mobley_2693089_GMX.gro created by acpype (v: 2023.10.27) on Thu May 14 13:34:49 2026
 1948
    1MOL     C1    1   1.245   1.516   1.099
    1MOL     C2    2   1.165   1.506   1.211
    1MOL     C3    3   1.428   1.464   1.226
    1MOL     C4    4   1.347   1.454   1.335
    1MOL     C5    5   1.273   1.202   1.487
    1MOL     C6    6   1.508   1.199   1.399
    1MOL     C7    7   1.407   1.418   1.469
    1MOL     C8    8   1.412   1.267   1.497
    1MOL     N1    9   1.378   1.496   1.105
    1MOL     N2   10   1.215   1.474   1.332
    1MOL     H1   11   1.205   1.542   1.002
    1MOL     H2   12   1.058   1.522   1.206
    1MOL     H3   13   1.535   1.448   1.229
    1MOL     H4   14   1.229   1.219   1.388
    1MOL     H5   15   1.205   1.242   1.562
    1MOL     H6   16   1.280   1.094   1.502
    1MOL     H7   17   1.515   1.092   1.419
    1MOL     H8   18   1.474   1.212   1.295
    1MOL     H9   19   1.609   1.241   1.408
    1MOL    H10   20   1.508   1.461   1.478
    1MOL    H11   21   1.347   1.468   1.547
    1MOL    H12   22   1.450   1.249   1.599
    2SOL     OW   23   0.230   0.628   0.113
    2SOL    HW1   24   0.137   0.626   0.150
    2SOL    HW2   25   0.231   0.589   0.021
    3SOL     OW   26   0.225   0.275   0.996
    3SOL    HW1   27   0.260   0.258   1.088
    3SOL    HW2   28   0.137   0.230   0.984
    4SOL     OW   29   0.019   0.368   0.647
    4SOL    HW1   30  -0.063   0.411   0.686
    4SOL    HW2   31  -0.009   0.295   0.584
    5SOL     OW   32   0.569   1.275   1.165
    5SOL    HW1   33   0.476   1.268   1.128
    5SOL    HW2   34   0.580   1.364   1.209
    6SOL     OW   35   1.555   1.511   0.703
    6SOL    HW1   36   1.498   1.495   0.784
    6SOL    HW2   37   1.496   1.521   0.623
    7SOL     OW   38   1.135   0.703   0.717
    7SOL    HW1   39   1.192   0.781   0.692
    7SOL    HW2   40   1.075   0.729   0.793
    8SOL     OW   41   1.755   0.607   0.231
    8SOL    HW1   42   1.743   0.594   0.132
    8SOL    HW2   43   1.725   0.526   0.280
    9SOL     OW   44   0.768   1.144   1.023
    9SOL    HW1   45   0.690   1.161   1.083
    9SOL    HW2   46   0.802   1.231   0.987
   10SOL     OW   47   0.850   0.798   1.823
   10SOL    HW1   48   0.846   0.874   1.888
   10SOL    HW2   49   0.872   0.834   1.732
   11SOL     OW   50   0.685   1.012   0.665
   11SOL    HW1   51   0.754   0.996   0.735
   11SOL    HW2   52   0.612   1.069   0.703
   12SOL     OW   53   0.686   1.161   1.803
   12SOL    HW1   54   0.746   1.240   1.817
   12SOL    HW2   55   0.600   1.192   1.762
   13SOL     OW   56   0.335   1.435   1.061
   13SOL    HW1   57   0.257   1.404   1.008
   13SOL    HW2   58   0.393   1.493   1.004
   14SOL     OW   59   0.438   0.392   1.499
   14SOL    HW1   60   0.520   0.336   1.508
   14SOL    HW2   61   0.357   0.334   1.503
   15SOL     OW   62   1.603   0.447   0.737
   15SOL    HW1   63   1.529   0.493   0.687
   15SOL    HW2   64   1.654   0.515   0.790
   16SOL     OW   65   0.231   1.713   0.483
   16SOL    HW1   66   0.265   1.790   0.537
   16SOL    HW2   67   0.275   1.713   0.393
   17SOL     OW   68   1.127   1.341   1.690
   17SOL    HW1   69   1.174   1.341   1.778
   17SOL    HW2   70   1.079   1.254   1.679
   18SOL     OW   71   0.230   1.434   0.538
   18SOL    HW1   72   0.204   1.530   0.538
   18SOL    HW2   73   0.159   1.380   0.583
   19SOL     OW   74   0.240   1.091   0.886
   19SOL    HW1   75   0.254   1.007   0.938
   19SOL    HW2   76   0.185   1.155   0.941
   20SOL     OW   77   0.620   1.786   1.439
   20SOL    HW1   78   0.528   1.769   1.474
   20SOL    HW2   79   0.648   1.878   1.465
   21SOL     OW   80   0.606   0.964   0.123
   21SOL    HW1   81   0.613   1.048   0.069
   21SOL    HW2   82   0.652   0.977   0.211
   22SOL     OW   83   1.594   0.114   1.480
   22SOL    HW1   84   1.576   0.181   1.408
   22SOL    HW2   85   1.591   0.160   1.569
   23SOL     OW   86   0.122   0.643   0.563
   23SOL    HW1   87   0.077   0.555   0.580
   23SOL    HW2   88   0.121   0.697   0.647
   24SOL     OW   89   1.842   1.767   0.359
   24SOL    HW1   90   1.896   1.738   0.439
   24SOL    HW2   91   1.872   1.857   0.330
   25SOL     OW   92   0.027   1.596   0.117
   25SOL    HW1   93   0.008   1.500   0.138
   25SOL    HW2   94  -0.006   1.654   0.192
   26SOL     OW   95   1.689   0.922   0.612
   26SOL    HW1   96   1.784   0.893   0.620
   26SOL    HW2   97   1.681   0.987   0.537
   27SOL     OW   98   1.641   1.108   0.432
   27SOL    HW1   99   1.727   1.110   0.380
   27SOL    HW2  100   1.655   1.155   0.520
   28SOL     OW  101   0.113   0.737   1.597
   28SOL    HW1  102   0.201   0.724   1.642
   28SOL    HW2  103   0.100   0.834   1.575
   29SOL     OW  104   0.613   1.365   0.726
   29SOL    HW1  105   0.564   1.278   0.735
   29SOL    HW2  106   0.590   1.408   0.639
   30SOL     OW  107   0.809   0.004   0.502
   30SOL    HW1  108   0.849   0.095   0.493
   30SOL    HW2  109   0.709   0.012   0.508
   31SOL     OW  110   0.197   0.976   1.264
   31SOL    HW1  111   0.286   0.931   1.250
   31SOL    HW2  112   0.124   0.911   1.245
   32SOL     OW  113   1.525   0.999   0.190
   32SOL    HW1  114   1.462   0.923   0.203
   32SOL    HW2  115   1.573   1.017   0.276
   33SOL     OW  116   1.187   1.792   1.616
   33SOL    HW1  117   1.211   1.852   1.540
   33SOL    HW2  118   1.194   1.697   1.586
   34SOL     OW  119   0.317   0.251   1.801
   34SOL    HW1  120   0.388   0.322   1.807
   34SOL    HW2  121   0.229   0.290   1.829
   35SOL     OW  122   1.667   1.714   0.572
   35SOL    HW1  123   1.626   1.691   0.484
   35SOL    HW2  124   1.649   1.640   0.637
   36SOL     OW  125   0.598   0.729   0.270
   36SOL    HW1  126   0.622   0.798   0.202
   36SOL    HW2  127   0.520   0.762   0.324
   37SOL     OW  128   1.281   0.345   0.944
   37SOL    HW1  129   1.195   0.295   0.931
   37SOL    HW2  130   1.343   0.291   1.000
   38SOL     OW  131   1.576   1.662   0.307
   38SOL    HW1  132   1.665   1.708   0.310
   38SOL    HW2  133   1.555   1.638   0.212
   39SOL     OW  134   0.807   0.605   1.465
   39SOL    HW1  135   0.760   0.602   1.554
   39SOL    HW2  136   0.756   0.550   1.399
   40SOL     OW  137   1.394   0.469   1.674
   40SOL    HW1  138   1.374   0.512   1.762
   40SOL    HW2  139   1.472   0.407   1.683
   41SOL     OW  140   0.973   0.890   1.572
   41SOL    HW1  141   1.019   0.806   1.543
   41SOL    HW2  142   0.917   0.924   1.497
   42SOL     OW  143   0.991   0.410   1.242
   42SOL    HW1  144   0.914   0.444   1.296
   42SOL    HW2  145   0.957   0.359   1.163
   43SOL     OW  146   1.041   0.701   0.429
   43SOL    HW1  147   1.067   0.697   0.525
   43SOL    HW2  148   0.956   0.650   0.415
   44SOL     OW  149   0.076   0.811   0.789
   44SOL    HW1  150   0.175   0.799   0.798
   44SOL    HW2  151   0.052   0.906   0.810
   45SOL     OW  152   0.130   1.821   1.571
   45SOL    HW1  153   0.120   1.806   1.670
   45SOL    HW2  154   0.044   1.857   1.535
   46SOL     OW  155   0.865   0.348   0.195
   46SOL    HW1  156   0.924   0.411   0.146
   46SOL    HW2  157   0.884   0.254   0.166
   47SOL     OW  158   1.719   0.585   1.831
   47SOL    HW1  159   1.693   0.674   1.795
   47SOL    HW2  160   1.717   0.517   1.758
   48SOL     OW  161   1.362   1.144   0.545
   48SOL    HW1  162   1.445   1.115   0.497
   48SOL    HW2  163   1.313   1.211   0.489
   49SOL     OW  164   0.550   0.196   0.885
   49SOL    HW1  165   0.545   0.191   0.985
   49SOL    HW2  166   0.552   0.292   0.856
   50SOL     OW  167   1.008   1.456   0.477
   50SOL    HW1  168   0.962   1.528   0.425
   50SOL    HW2  169   1.004   1.476   0.575
   51SOL     OW  170   0.351   1.801   0.853
   51SOL    HW1  171   0.401   1.715   0.859
   51SOL    HW2  172   0.416   1.878   0.850
   52SOL     OW  173   1.795   1.066   0.873
   52SOL    HW1  174   1.733   1.051   0.797
   52SOL    HW2  175   1.743   1.077   0.958
   53SOL     OW  176   0.321   0.943   0.242
   53SOL    HW1  177   0.403   0.982   0.200
   53SOL    HW2  178   0.294   0.861   0.193
   54SOL     OW  179   1.458   0.735   0.728
   54SOL    HW1  180   1.453   0.670   0.803
   54SOL    HW2  181   1.538   0.794   0.741
   55SOL     OW  182   0.461   1.266   1.727
   55SOL    HW1  183   0.411   1.267   1.641
   55SOL    HW2  184   0.398   1.248   1.803
   56SOL     OW  185   1.111   1.776   0.237
   56SOL    HW1  186   1.051   1.714   0.287
   56SOL    HW2  187   1.142   1.732   0.152
   57SOL     OW  188   0.202   0.285   1.498
   57SOL    HW1  189   0.122   0.345   1.485
   57SOL    HW2  190   0.192   0.236   1.584
   58SOL     OW  191   1.632   1.377   0.081
   58SOL    HW1  192   1.600   1.471   0.071
   58SOL    HW2  193   1.556   1.314   0.069
   59SOL     OW  194   0.464   1.743   0.323
   59SOL    HW1  195   0.497   1.782   0.409
   59SOL    HW2  196   0.540   1.736   0.258
   60SOL     OW  197   1.400   0.107   0.426
   60SOL    HW1  198   1.376   0.070   0.336
   60SOL    HW2  199   1.499   0.123   0.430
   61SOL     OW  200   0.249   1.785   1.241
   61SOL    HW1  201   0.306   1.720   1.291
   61SOL    HW2  202   0.233   1.752   1.148
   62SOL     OW  203   0.940   1.698   0.904
   62SOL    HW1  204   1.020   1.641   0.925
   62SOL    HW2  205   0.891   1.658   0.827
   63SOL     OW  206   0.382   0.700   0.480
   63SOL    HW1  207   0.427   0.610   0.477
   63SOL    HW2  208   0.288   0.689   0.513
   64SOL     OW  209   1.547   0.222   1.729
   64SOL    HW1  210   1.542   0.259   1.821
   64SOL    HW2  211   1.475   0.153   1.717
   65SOL     OW  212   0.614   0.122   0.117
   65SOL    HW1  213   0.712   0.100   0.124
   65SOL    HW2  214   0.583   0.105   0.024
   66SOL     OW  215   0.781   0.264   1.749
   66SOL    HW1  216   0.848   0.203   1.792
   66SOL    HW2  217   0.708   0.283   1.814
   67SOL     OW  218   1.351   0.590   1.433
   67SOL    HW1  219   1.379   0.547   1.518
   67SOL    HW2  220   1.376   0.686   1.434
   68SOL     OW  221   0.803   1.402   0.924
   68SOL    HW1  222   0.893   1.416   0.882
   68SOL    HW2  223   0.732   1.404   0.853
   69SOL     OW  224   0.922   0.503   0.899
   69SOL    HW1  225   0.897   0.494   0.803
   69SOL    HW2  226   0.970   0.421   0.930
   70SOL     OW  227   0.539   0.064   0.512
   70SOL    HW1  228   0.458   0.065   0.570
   70SOL    HW2  229   0.542   0.147   0.457
   71SOL     OW  230   1.434   1.188   0.041
   71SOL    HW1  231   1.466   1.112   0.098
   71SOL    HW2  232   1.342   1.215   0.071
   72SOL     OW  233   0.297   0.035   0.171
   72SOL    HW1  234   0.346   0.119   0.150
   72SOL    HW2  235   0.359  -0.030   0.216
   73SOL     OW  236   0.935   0.236   0.480
   73SOL    HW1  237   0.887   0.277   0.402
   73SOL    HW2  238   1.034   0.234   0.461
   74SOL     OW  239   1.076   0.683   1.464
   74SOL    HW1  240   0.996   0.622   1.467
   74SOL    HW2  241   1.157   0.630   1.440
   75SOL     OW  242   1.227   1.570   0.793
   75SOL    HW1  243   1.248   1.644   0.728
   75SOL    HW2  244   1.295   1.570   0.866
   76SOL     OW  245   0.459   1.152   0.741
   76SOL    HW1  246   0.388   1.125   0.806
   76SOL    HW2  247   0.433   1.124   0.648
   77SOL     OW  248   1.271   1.797   0.591
   77SOL    HW1  249   1.315   1.861   0.527
   77SOL    HW2  250   1.221   1.849   0.661
   78SOL     OW  251   1.032   0.549   0.016
   78SOL    HW1  252   0.991   0.631  -0.023
   78SOL    HW2  253   1.096   0.575   0.089
   79SOL     OW  254   0.078   0.556   1.386
   79SOL    HW1  255   0.170   0.555   1.345
   79SOL    HW2  256   0.072   0.630   1.453
   80SOL     OW  257   0.561   0.222   1.147
   80SOL    HW1  258   0.599   0.138   1.184
   80SOL    HW2  259   0.473   0.241   1.191
   81SOL     OW  260   0.866   0.454   0.642
   81SOL    HW1  261   0.834   0.526   0.580
   81SOL    HW2  262   0.890   0.373   0.589
   82SOL     OW  263   1.017   0.039   0.753
   82SOL    HW1  264   0.945   0.044   0.684
   82SOL    HW2  265   0.993  -0.030   0.822
   83SOL     OW  266   1.429   1.173   0.867
   83SOL    HW1  267   1.374   1.089   0.860
   83SOL    HW2  268   1.455   1.202   0.775
   84SOL     OW  269   1.466   0.590   0.992
   84SOL    HW1  270   1.436   0.495   0.999
   84SOL    HW2  271   1.539   0.606   1.058
   85SOL     OW  272   1.857   0.833   0.377
   85SOL    HW1  273   1.899   0.769   0.441
   85SOL    HW2  274   1.819   0.782   0.299
   86SOL     OW  275   0.488   1.385   0.174
   86SOL    HW1  276   0.401   1.370   0.221
   86SOL    HW2  277   0.471   1.411   0.079
   87SOL     OW  278   1.664   1.280   0.657
   87SOL    HW1  279   1.763   1.288   0.671
   87SOL    HW2  280   1.619   1.364   0.688
   88SOL     OW  281   1.390   0.575   0.078
   88SOL    HW1  282   1.336   0.554   0.159
   88SOL    HW2  283   1.481   0.534   0.087
   89SOL     OW  284   0.527   0.256   0.328
   89SOL    HW1  285   0.554   0.197   0.253
   89SOL    HW2  286   0.527   0.351   0.297
   90SOL     OW  287   1.754   1.223   1.588
   90SOL    HW1  288   1.845   1.184   1.575
   90SOL    HW2  289   1.762   1.319   1.612
   91SOL     OW  290   1.592   1.629   1.625
   91SOL    HW1  291   1.619   1.663   1.535
   91SOL    HW2  292   1.671   1.591   1.671
   92SOL     OW  293   1.111   1.195   1.100
   92SOL    HW1  294   1.071   1.239   1.181
   92SOL    HW2  295   1.070   1.232   1.017
   93SOL     OW  296   1.638   1.099   1.079
   93SOL    HW1  297   1.643   1.180   1.138
   93SOL    HW2  298   1.552   1.101   1.028
   94SOL     OW  299   0.915   0.089   1.402
   94SOL    HW1  300   0.940   0.069   1.307
   94SOL    HW2  301   0.987   0.145   1.444
   95SOL     OW  302   0.980   1.116   1.719
   95SOL    HW1  303   0.881   1.122   1.729
   95SOL    HW2  304   1.003   1.036   1.663
   96SOL     OW  305   0.705   1.050   0.368
   96SOL    HW1  306   0.691   1.057   0.467
   96SOL    HW2  307   0.789   0.999   0.350
   97SOL     OW  308   0.410   0.813   1.251
   97SOL    HW1  309   0.496   0.825   1.301
   97SOL    HW2  310   0.368   0.726   1.278
   98SOL     OW  311   1.274   0.386   1.262
   98SOL    HW1  312   1.295   0.460   1.326
   98SOL    HW2  313   1.185   0.403   1.219
   99SOL     OW  314   0.064   1.564   1.331
   99SOL    HW1  315   0.018   1.646   1.297
   99SOL    HW2  316   0.162   1.583   1.340
  100SOL     OW  317   0.367   1.100   0.501
  100SOL    HW1  318   0.360   1.183   0.445
  100SOL    HW2  319   0.371   1.020   0.441
  101SOL     OW  320   0.566   0.537   0.865
  101SOL    HW1  321   0.578   0.603   0.791
  101SOL    HW2  322   0.612   0.571   0.948
  102SOL     OW  323   1.252   1.348   0.388
  102SOL    HW1  324   1.302   1.425   0.428
  102SOL    HW2  325   1.157   1.350   0.420
  103SOL     OW  326   1.582   0.639   0.472
  103SOL    HW1  327   1.551   0.700   0.545
  103SOL    HW2  328   1.632   0.691   0.403
  104SOL     OW  329   0.354   1.510   1.329
  104SOL    HW1  330   0.333   1.466   1.242
  104SOL    HW2  331   0.451   1.536   1.332
  105SOL     OW  332   0.402   0.751   1.598
  105SOL    HW1  333   0.470   0.806   1.551
  105SOL    HW2  334   0.442   0.663   1.625
  106SOL     OW  335   1.587   0.779   1.670
  106SOL    HW1  336   1.495   0.817   1.665
  106SOL    HW2  337   1.647   0.826   1.605
  107SOL     OW  338   1.013   0.105   1.770
  107SOL    HW1  339   1.019   0.190   1.718
  107SOL    HW2  340   1.045   0.029   1.713
  108SOL     OW  341   0.504   0.050   1.740
  108SOL    HW1  342   0.462  -0.007   1.670
  108SOL    HW2  343   0.438   0.119   1.772
  109SOL     OW  344   0.573   0.870   1.029
  109SOL    HW1  345   0.617   0.959   1.020
  109SOL    HW2  346   0.510   0.870   1.106
  110SOL     OW  347   1.360   0.862   1.045
  110SOL    HW1  348   1.285   0.862   0.979
  110SOL    HW2  349   1.397   0.770   1.054
  111SOL     OW  350   1.209   0.525   0.275
  111SOL    HW1  351   1.222   0.441   0.329
  111SOL    HW2  352   1.180   0.599   0.335
  112SOL     OW  353   0.307   0.213   1.231
  112SOL    HW1  354   0.284   0.250   1.321
  112SOL    HW2  355   0.277   0.118   1.225
  113SOL     OW  356   0.037   1.310   1.282
  113SOL    HW1  357   0.090   1.261   1.350
  113SOL    HW2  358   0.059   1.408   1.287
  114SOL     OW  359   0.732   0.634   1.064
  114SOL    HW1  360   0.791   0.608   0.988
  114SOL    HW2  361   0.704   0.730   1.053
  115SOL     OW  362   1.728   0.935   1.854
  115SOL    HW1  363   1.682   0.928   1.765
  115SOL    HW2  364   1.666   0.979   1.920
  116SOL     OW  365   0.307   0.063   0.618
  116SOL    HW1  366   0.296   0.157   0.651
  116SOL    HW2  367   0.302   0.000   0.695
  117SOL     OW  368   1.622   0.367   0.374
  117SOL    HW1  369   1.624   0.291   0.438
  117SOL    HW2  370   1.574   0.444   0.414
  118SOL     OW  371   1.023   0.766   0.966
  118SOL    HW1  372   1.038   0.787   1.062
  118SOL    HW2  373   0.993   0.671   0.957
  119SOL     OW  374   0.980   1.573   1.700
  119SOL    HW1  375   0.960   1.617   1.612
  119SOL    HW2  376   1.019   1.482   1.684
  120SOL     OW  377   1.859   1.518   1.605
  120SOL    HW1  378   1.873   1.545   1.510
  120SOL    HW2  379   1.942   1.540   1.658
  121SOL     OW  380   0.350   0.898   1.804
  121SOL    HW1  381   0.426   0.942   1.852
  121SOL    HW2  382   0.385   0.851   1.722
  122SOL     OW  383   1.540   0.274   0.125
  122SOL    HW1  384   1.479   0.199   0.148
  122SOL    HW2  385   1.562   0.326   0.208
  123SOL     OW  386   1.303   0.838   0.042
  123SOL    HW1  387   1.337   0.745   0.057
  123SOL    HW2  388   1.321   0.865  -0.053
  124SOL     OW  389   1.068   1.333   0.849
  124SOL    HW1  390   1.075   1.249   0.794
  124SOL    HW2  391   1.130   1.402   0.813
  125SOL     OW  392   0.319   0.810   0.949
  125SOL    HW1  393   0.412   0.846   0.954
  125SOL    HW2  394   0.313   0.725   1.001
  126SOL     OW  395   0.339   0.509   1.006
  126SOL    HW1  396   0.287   0.426   0.989
  126SOL    HW2  397   0.416   0.514   0.942
  127SOL     OW  398   1.138   0.380   1.678
  127SOL    HW1  399   1.093   0.443   1.742
  127SOL    HW2  400   1.231   0.411   1.661
  128SOL     OW  401   1.160   0.207   1.477
  128SOL    HW1  402   1.160   0.271   1.554
  128SOL    HW2  403   1.188   0.255   1.394
  129SOL     OW  404   0.008   1.326   0.200
  129SOL    HW1  405  -0.085   1.347   0.169
  129SOL    HW2  406   0.018   1.227   0.213
  130SOL     OW  407   0.088   1.801   0.927
  130SOL    HW1  408   0.046   1.715   0.900
  130SOL    HW2  409   0.182   1.804   0.893
  131SOL     OW  410   0.504   1.568   0.910
  131SOL    HW1  411   0.570   1.642   0.919
  131SOL    HW2  412   0.548   1.489   0.868
  132SOL     OW  413   1.002   0.796   1.238
  132SOL    HW1  414   1.043   0.764   1.324
  132SOL    HW2  415   0.906   0.769   1.235
  133SOL     OW  416   0.040   0.544   1.114
  133SOL    HW1  417   0.125   0.511   1.073
  133SOL    HW2  418   0.053   0.559   1.212
  134SOL     OW  419   0.189   0.520   1.722
  134SOL    HW1  420   0.248   0.480   1.652
  134SOL    HW2  421   0.131   0.591   1.681
  135SOL     OW  422   1.369   0.950   1.660
  135SOL    HW1  423   1.408   1.039   1.680
  135SOL    HW2  424   1.379   0.930   1.563
  136SOL     OW  425   0.815   0.572   0.325
  136SOL    HW1  426   0.822   0.483   0.279
  136SOL    HW2  427   0.721   0.606   0.317
  137SOL     OW  428   1.657   0.604   1.206
  137SOL    HW1  429   1.619   0.535   1.268
  137SOL    HW2  430   1.739   0.568   1.162
  138SOL     OW  431   0.252   1.564   1.744
  138SOL    HW1  432   0.222   1.621   1.820
  138SOL    HW2  433   0.245   1.467   1.770
  139SOL     OW  434   0.671   0.464   1.269
  139SOL    HW1  435   0.637   0.375   1.239
  139SOL    HW2  436   0.697   0.518   1.189
  140SOL     OW  437   0.930   1.678   1.465
  140SOL    HW1  438   0.906   1.660   1.370
  140SOL    HW2  439   0.960   1.772   1.475
  141SOL     OW  440   0.473   0.500   0.191
  141SOL    HW1  441   0.534   0.580   0.195
  141SOL    HW2  442   0.378   0.531   0.198
  142SOL     OW  443   0.159   1.137   1.466
  142SOL    HW1  444   0.181   1.076   1.542
  142SOL    HW2  445   0.169   1.088   1.380
  143SOL     OW  446   1.347   1.059   1.234
  143SOL    HW1  447   1.371   0.996   1.160
  143SOL    HW2  448   1.257   1.099   1.216
  144SOL     OW  449   1.302   0.855   0.309
  144SOL    HW1  450   1.216   0.824   0.351
  144SOL    HW2  451   1.298   0.841   0.210
  145SOL     OW  452   1.759   1.747   1.154
  145SOL    HW1  453   1.820   1.777   1.081
  145SOL    HW2  454   1.721   1.658   1.132
  146SOL     OW  455   0.083   1.258   1.022
  146SOL    HW1  456   0.078   1.257   1.122
  146SOL    HW2  457   0.000   1.217   0.984
  147SOL     OW  458   0.688   1.662   1.716
  147SOL    HW1  459   0.632   1.743   1.725
  147SOL    HW2  460   0.740   1.666   1.630
  148SOL     OW  461   0.903   0.086   0.133
  148SOL    HW1  462   0.954   0.087   0.047
  148SOL    HW2  463   0.959   0.044   0.204
  149SOL     OW  464   1.726   0.135   0.523
  149SOL    HW1  465   1.799   0.118   0.456
  149SOL    HW2  466   1.695   0.048   0.561
  150SOL     OW  467   1.388   1.573   0.477
  150SOL    HW1  468   1.455   1.585   0.403
  150SOL    HW2  469   1.348   1.662   0.500
  151SOL     OW  470   0.130   1.794   1.851
  151SOL    HW1  471   0.089   1.720   1.904
  151SOL    HW2  472   0.194   1.845   1.909
  152SOL     OW  473   1.280   0.927   0.672
  152SOL    HW1  474   1.340   0.846   0.674
  152SOL    HW2  475   1.320   0.996   0.612
  153SOL     OW  476   0.830   1.273   1.422
  153SOL    HW1  477   0.825   1.306   1.517
  153SOL    HW2  478   0.744   1.292   1.376
  154SOL     OW  479   0.672   1.616   0.154
  154SOL    HW1  480   0.681   1.626   0.055
  154SOL    HW2  481   0.632   1.527   0.175
  155SOL     OW  482   1.650   1.720   1.394
  155SOL    HW1  483   1.703   1.730   1.310
  155SOL    HW2  484   1.623   1.810   1.428
  156SOL     OW  485   1.841   0.175   0.963
  156SOL    HW1  486   1.880   0.090   0.927
  156SOL    HW2  487   1.743   0.177   0.944
  157SOL     OW  488   0.263   0.326   0.720
  157SOL    HW1  489   0.184   0.377   0.686
  157SOL    HW2  490   0.254   0.311   0.818
  158SOL     OW  491   1.194   1.612   0.031
  158SOL    HW1  492   1.200   1.519   0.068
  158SOL    HW2  493   1.135   1.612  -0.049
  159SOL     OW  494   0.822   1.002   1.372
  159SOL    HW1  495   0.862   1.001   1.280
  159SOL    HW2  496   0.832   1.094   1.412
  160SOL     OW  497   0.916   0.910   0.291
  160SOL    HW1  498   0.979   0.948   0.223
  160SOL    HW2  499   0.956   0.827   0.330
  161SOL     OW  500   1.504   1.607   0.044
  161SOL    HW1  501   1.412   1.644   0.051
  161SOL    HW2  502   1.542   1.627  -0.046
  162SOL     OW  503   0.372   1.288   1.490
  162SOL    HW1  504   0.359   1.381   1.456
  162SOL    HW2  505   0.288   1.236   1.477
  163SOL     OW  506   1.039   1.098   0.696
  163SOL    HW1  507   0.969   1.051   0.750
  163SOL    HW2  508   1.098   1.030   0.653
  164SOL     OW  509   1.014   0.236   0.971
  164SOL    HW1  510   1.006   0.200   0.878
  164SOL    HW2  511   1.012   0.160   1.036
  165SOL     OW  512   0.590   1.487   0.491
  165SOL    HW1  513   0.632   1.429   0.421
  165SOL    HW2  514   0.546   1.566   0.447
  166SOL     OW  515   1.709   0.385   1.381
  166SOL    HW1  516   1.782   0.454   1.385
  166SOL    HW2  517   1.737   0.310   1.322
  167SOL     OW  518   0.255   1.348   0.290
  167SOL    HW1  519   0.159   1.349   0.263
  167SOL    HW2  520   0.267   1.401   0.374
  168SOL     OW  521   0.105   1.013   1.726
  168SOL    HW1  522   0.028   0.980   1.780
  168SOL    HW2  523   0.190   0.983   1.768
  169SOL     OW  524   0.672   0.203   1.489
  169SOL    HW1  525   0.762   0.187   1.449
  169SOL    HW2  526   0.680   0.208   1.588
  170SOL     OW  527   0.075   0.345   0.033
  170SOL    HW1  528  -0.017   0.317   0.004
  170SOL    HW2  529   0.106   0.422  -0.023
  171SOL     OW  530   1.440   0.856   1.398
  171SOL    HW1  531   1.383   0.908   1.335
  171SOL    HW2  532   1.536   0.868   1.374
  172SOL     OW  533   0.072   0.166   0.318
  172SOL    HW1  534   0.055   0.249   0.264
  172SOL    HW2  535   0.162   0.129   0.296
  173SOL     OW  536   1.183   1.335   0.119
  173SOL    HW1  537   1.084   1.324   0.121
  173SOL    HW2  538   1.217   1.350   0.212
  174SOL     OW  539   0.613   0.842   1.431
  174SOL    HW1  540   0.669   0.923   1.414
  174SOL    HW2  541   0.672   0.762   1.434
  175SOL     OW  542   1.493   1.767   0.959
  175SOL    HW1  543   1.526   1.831   0.890
  175SOL    HW2  544   1.559   1.761   1.034
  176SOL     OW  545   0.716   0.565   1.708
  176SOL    HW1  546   0.735   0.630   1.782
  176SOL    HW2  547   0.776   0.485   1.717
  177SOL     OW  548   0.390   1.741   1.560
  177SOL    HW1  549   0.299   1.782   1.558
  177SOL    HW2  550   0.383   1.647   1.592
  178SOL     OW  551   1.674   0.883   1.254
  178SOL    HW1  552   1.647   0.794   1.217
  178SOL    HW2  553   1.675   0.951   1.181
  179SOL     OW  554   1.225   0.325   0.449
  179SOL    HW1  555   1.290   0.251   0.438
  179SOL    HW2  556   1.245   0.375   0.533
  180SOL     OW  557   0.594   0.745   0.652
  180SOL    HW1  558   0.644   0.830   0.633
  180SOL    HW2  559   0.506   0.747   0.604
  181SOL     OW  560   1.777   0.342   1.642
  181SOL    HW1  561   1.760   0.373   1.548
  181SOL    HW2  562   1.693   0.305   1.680
  182SOL     OW  563   1.730   0.934   1.517
  182SOL    HW1  564   1.768   1.025   1.532
  182SOL    HW2  565   1.722   0.917   1.418
  183SOL     OW  566   0.859   1.374   0.016
  183SOL    HW1  567   0.813   1.389   0.104
  183SOL    HW2  568   0.903   1.459  -0.014
  184SOL     OW  569   0.661   1.790   0.953
  184SOL    HW1  570   0.615   1.878   0.940
  184SOL    HW2  571   0.760   1.802   0.946
  185SOL     OW  572   0.859   0.956   0.861
  185SOL    HW1  573   0.913   0.887   0.909
  185SOL    HW2  574   0.827   1.025   0.927
  186SOL     OW  575   1.083   0.984   0.087
  186SOL    HW1  576   1.060   1.037   0.005
  186SOL    HW2  577   1.164   0.928   0.068
  187SOL     OW  578   1.861   1.569   0.851
  187SOL    HW1  579   1.790   1.557   0.781
  187SOL    HW2  580   1.862   1.490   0.911
  188SOL     OW  581   0.221   1.314   1.844
  188SOL    HW1  582   0.156   1.241   1.823
  188SOL    HW2  583   0.225   1.328   1.942
  189SOL     OW  584   0.079   1.240   0.653
  189SOL    HW1  585   0.078   1.193   0.741
  189SOL    HW2  586   0.161   1.212   0.602
  190SOL     OW  587   0.672   1.391   1.624
  190SOL    HW1  588   0.594   1.341   1.662
  190SOL    HW2  589   0.669   1.486   1.655
  191SOL     OW  590   1.824   0.192   1.227
  191SOL    HW1  591   1.820   0.102   1.271
  191SOL    HW2  592   1.827   0.181   1.128
  192SOL     OW  593   0.428   0.424   0.520
  192SOL    HW1  594   0.458   0.352   0.458
  192SOL    HW2  595   0.389   0.384   0.603
  193SOL     OW  596   1.705   1.487   1.104
  193SOL    HW1  597   1.612   1.462   1.077
  193SOL    HW2  598   1.731   1.437   1.186
  194SOL     OW  599   0.317   0.547   1.280
  194SOL    HW1  600   0.355   0.488   1.352
  194SOL    HW2  601   0.357   0.521   1.192
  195SOL     OW  602   0.812   1.586   0.687
  195SOL    HW1  603   0.844   1.596   0.593
  195SOL    HW2  604   0.733   1.524   0.689
  196SOL     OW  605   1.424   0.214   1.112
  196SOL    HW1  606   1.476   0.149   1.167
  196SOL    HW2  607   1.375   0.277   1.173
  197SOL     OW  608   1.001   0.034   1.154
  197SOL    HW1  609   0.938  -0.038   1.123
  197SOL    HW2  610   1.094  -0.002   1.154
  198SOL     OW  611   0.770   1.330   0.301
  198SOL    HW1  612   0.724   1.243   0.318
  198SOL    HW2  613   0.861   1.327   0.342
  199SOL     OW  614   0.618   1.567   1.284
  199SOL    HW1  615   0.613   1.649   1.341
  199SOL    HW2  616   0.707   1.564   1.239
  200SOL     OW  617   1.352   0.052   0.168
  200SOL    HW1  618   1.387   0.011   0.084
  200SOL    HW2  619   1.262   0.014   0.188
  201SOL     OW  620   1.300   0.453   0.691
  201SOL    HW1  621   1.241   0.533   0.695
  201SOL    HW2  622   1.315   0.418   0.784
  202SOL     OW  623   1.593   0.221   0.882
  202SOL    HW1  624   1.509   0.220   0.936
  202SOL    HW2  625   1.595   0.304   0.826
  203SOL     OW  626   0.039   1.077   0.300
  203SOL    HW1  627   0.138   1.066   0.291
  203SOL    HW2  628  -0.001   0.991   0.332
  204SOL     OW  629   0.875   1.646   0.337
  204SOL    HW1  630   0.798   1.611   0.283
  204SOL    HW2  631   0.843   1.717   0.399
  205SOL     OW  632   0.230   0.628   1.975
  205SOL    HW1  633   0.137   0.626   2.012
  205SOL    HW2  634   0.231   0.589   1.883
  206SOL     OW  635   0.225   0.275   2.858
  206SOL    HW1  636   0.260   0.258   2.950
  206SOL    HW2  637   0.137   0.230   2.846
  207SOL     OW  638   0.019   0.368   2.509
  207SOL    HW1  639  -0.063   0.411   2.548
  207SOL    HW2  640  -0.009   0.295   2.446
  208SOL     OW  641   1.755   0.607   2.093
  208SOL    HW1  642   1.743   0.594   1.994
  208SOL    HW2  643   1.725   0.526   2.142
  209SOL     OW  644   0.685   1.012   2.527
  209SOL    HW1  645   0.754   0.996   2.597
  209SOL    HW2  646   0.612   1.069   2.565
  210SOL     OW  647   1.603   0.447   2.599
  210SOL    HW1  648   1.529   0.493   2.549
  210SOL    HW2  649   1.654   0.515   2.652
  211SOL     OW  650   0.231   1.713   2.345
  211SOL    HW1  651   0.265   1.790   2.399
  211SOL    HW2  652   0.275   1.713   2.255
  212SOL     OW  653   0.230   1.434   2.400
  212SOL    HW1  654   0.204   1.530   2.400
  212SOL    HW2  655   0.159   1.380   2.445
  213SOL     OW  656   0.240   1.091   2.748
  213SOL    HW1  657   0.254   1.007   2.800
  213SOL    HW2  658   0.185   1.155   2.803
  214SOL     OW  659   0.606   0.964   1.985
  214SOL    HW1  660   0.613   1.048   1.931
  214SOL    HW2  661   0.652   0.977   2.073
  215SOL     OW  662   0.122   0.643   2.425
  215SOL    HW1  663   0.077   0.555   2.442
  215SOL    HW2  664   0.121   0.697   2.509
  216SOL     OW  665   1.842   1.767   2.221
  216SOL    HW1  666   1.896   1.738   2.301
  216SOL    HW2  667   1.872   1.857   2.192
  217SOL     OW  668   0.027   1.596   1.979
  217SOL    HW1  669   0.008   1.500   2.000
  217SOL    HW2  670  -0.006   1.654   2.054
  218SOL     OW  671   1.689   0.922   2.474
  218SOL    HW1  672   1.784   0.893   2.482
  218SOL    HW2  673   1.681   0.987   2.399
  219SOL     OW  674   1.641   1.108   2.294
  219SOL    HW1  675   1.727   1.110   2.242
  219SOL    HW2  676   1.655   1.155   2.382
  220SOL     OW  677   0.613   1.365   2.588
  220SOL    HW1  678   0.564   1.278   2.597
  220SOL    HW2  679   0.590   1.408   2.501
  221SOL     OW  680   0.809   0.004   2.364
  221SOL    HW1  681   0.849   0.095   2.355
  221SOL    HW2  682   0.709   0.012   2.370
  222SOL     OW  683   1.525   0.999   2.052
  222SOL    HW1  684   1.462   0.923   2.065
  222SOL    HW2  685   1.573   1.017   2.138
  223SOL     OW  686   1.667   1.714   2.434
  223SOL    HW1  687   1.626   1.691   2.346
  223SOL    HW2  688   1.649   1.640   2.499
  224SOL     OW  689   0.598   0.729   2.132
  224SOL    HW1  690   0.622   0.798   2.064
  224SOL    HW2  691   0.520   0.762   2.186
  225SOL     OW  692   1.281   0.345   2.806
  225SOL    HW1  693   1.195   0.295   2.793
  225SOL    HW2  694   1.343   0.291   2.862
  226SOL     OW  695   1.576   1.662   2.169
  226SOL    HW1  696   1.665   1.708   2.172
  226SOL    HW2  697   1.555   1.638   2.074
  227SOL     OW  698   1.041   0.701   2.291
  227SOL    HW1  699   1.067   0.697   2.387
  227SOL    HW2  700   0.956   0.650   2.277
  228SOL     OW  701   0.076   0.811   2.651
  228SOL    HW1  702   0.175   0.799   2.660
  228SOL    HW2  703   0.052   0.906   2.672
  229SOL     OW  704   0.865   0.348   2.057
  229SOL    HW1  705   0.924   0.411   2.008
  229SOL    HW2  706   0.884   0.254   2.028
  230SOL     OW  707   1.362   1.144   2.407
  230SOL    HW1  708   1.445   1.115   2.359
  230SOL    HW2  709   1.313   1.211   2.351
  231SOL     OW  710   1.008   1.456   2.339
  231SOL    HW1  711   0.962   1.528   2.287
  231SOL    HW2  712   1.004   1.476   2.437
  232SOL     OW  713   0.351   1.801   2.715
  232SOL    HW1  714   0.401   1.715   2.721
  232SOL    HW2  715   0.416   1.878   2.712
  233SOL     OW  716   1.795   1.066   2.735
  233SOL    HW1  717   1.733   1.051   2.659
  233SOL    HW2  718   1.743   1.077   2.820
  234SOL     OW  719   0.321   0.943   2.104
  234SOL    HW1  720   0.403   0.982   2.062
  234SOL    HW2  721   0.294   0.861   2.055
  235SOL     OW  722   1.458   0.735   2.590
  235SOL    HW1  723   1.453   0.670   2.665
  235SOL    HW2  724   1.538   0.794   2.603
  236SOL     OW  725   1.111   1.776   2.099
  236SOL    HW1  726   1.051   1.714   2.149
  236SOL    HW2  727   1.142   1.732   2.014
  237SOL     OW  728   1.632   1.377   1.943
  237SOL    HW1  729   1.600   1.471   1.933
  237SOL    HW2  730   1.556   1.314   1.931
  238SOL     OW  731   0.464   1.743   2.185
  238SOL    HW1  732   0.497   1.782   2.271
  238SOL    HW2  733   0.540   1.736   2.120
  239SOL     OW  734   1.400   0.107   2.288
  239SOL    HW1  735   1.376   0.070   2.198
  239SOL    HW2  736   1.499   0.123   2.292
  240SOL     OW  737   0.940   1.698   2.766
  240SOL    HW1  738   1.020   1.641   2.787
  240SOL    HW2  739   0.891   1.658   2.689
  241SOL     OW  740   0.382   0.700   2.342
  241SOL    HW1  741   0.427   0.610   2.339
  241SOL    HW2  742   0.288   0.689   2.375
  242SOL     OW  743   0.614   0.122   1.979
  242SOL    HW1  744   0.712   0.100   1.986
  242SOL    HW2  745   0.583   0.105   1.886
  243SOL     OW  746   0.539   0.064   2.374
  243SOL    HW1  747   0.458   0.065   2.432
  243SOL    HW2  748   0.542   0.147   2.319
  244SOL     OW  749   1.434   1.188   1.903
  244SOL    HW1  750   1.466   1.112   1.960
  244SOL    HW2  751   1.342   1.215   1.933
  245SOL     OW  752   0.297   0.035   2.033
  245SOL    HW1  753   0.346   0.119   2.012
  245SOL    HW2  754   0.359  -0.030   2.078
  246SOL     OW  755   0.935   0.236   2.342
  246SOL    HW1  756   0.887   0.277   2.264
  246SOL    HW2  757   1.034   0.234   2.323
  247SOL     OW  758   0.459   1.152   2.603
  247SOL    HW1  759   0.388   1.125   2.668
  247SOL    HW2  760   0.433   1.124   2.510
  248SOL     OW  761   1.271   1.797   2.453
  248SOL    HW1  762   1.315   1.861   2.389
  248SOL    HW2  763   1.221   1.849   2.523
  249SOL     OW  764   1.032   0.549   1.878
  249SOL    HW1  765   0.991   0.631   1.839
  249SOL    HW2  766   1.096   0.575   1.951
  250SOL     OW  767   0.866   0.454   2.504
  250SOL    HW1  768   0.834   0.526   2.442
  250SOL    HW2  769   0.890   0.373   2.451
  251SOL     OW  770   1.017   0.039   2.615
  251SOL    HW1  771   0.945   0.044   2.546
  251SOL    HW2  772   0.993  -0.030   2.684
  252SOL     OW  773   1.857   0.833   2.239
  252SOL    HW1  774   1.899   0.769   2.303
  252SOL    HW2  775   1.819   0.782   2.161
  253SOL     OW  776   0.488   1.385   2.036
  253SOL    HW1  777   0.401   1.370   2.083
  253SOL    HW2  778   0.471   1.411   1.941
  254SOL     OW  779   1.664   1.280   2.519
  254SOL    HW1  780   1.763   1.288   2.533
  254SOL    HW2  781   1.619   1.364   2.550
  255SOL     OW  782   1.390   0.575   1.940
  255SOL    HW1  783   1.336   0.554   2.021
  255SOL    HW2  784   1.481   0.534   1.949
  256SOL     OW  785   0.527   0.256   2.190
  256SOL    HW1  786   0.554   0.197   2.115
  256SOL    HW2  787   0.527   0.351   2.159
  257SOL     OW  788   0.705   1.050   2.230
  257SOL    HW1  789   0.691   1.057   2.329
  257SOL    HW2  790   0.789   0.999   2.212
  258SOL     OW  791   0.367   1.100   2.363
  258SOL    HW1  792   0.360   1.183   2.307
  258SOL    HW2  793   0.371   1.020   2.303
  259SOL     OW  794   1.252   1.348   2.250
  259SOL    HW1  795   1.302   1.425   2.290
  259SOL    HW2  796   1.157   1.350   2.282
  260SOL     OW  797   1.582   0.639   2.334
  260SOL    HW1  798   1.551   0.700   2.407
  260SOL    HW2  799   1.632   0.691   2.265
  261SOL     OW  800   1.209   0.525   2.137
  261SOL    HW1  801   1.222   0.441   2.191
  261SOL    HW2  802   1.180   0.599   2.197
  262SOL     OW  803   0.307   0.063   2.480
  262SOL    HW1  804   0.296   0.157   2.513
  262SOL    HW2  805   0.302   0.000   2.557
  263SOL     OW  806   1.622   0.367   2.236
  263SOL    HW1  807   1.624   0.291   2.300
  263SOL    HW2  808   1.574   0.444   2.276
  264SOL     OW  809   1.023   0.766   2.828
  264SOL    HW1  810   1.038   0.787   2.924
  264SOL    HW2  811   0.993   0.671   2.819
  265SOL     OW  812   1.540   0.274   1.987
  265SOL    HW1  813   1.479   0.199   2.010
  265SOL    HW2  814   1.562   0.326   2.070
  266SOL     OW  815   1.303   0.838   1.904
  266SOL    HW1  816   1.337   0.745   1.919
  266SOL    HW2  817   1.321   0.865   1.809
  267SOL     OW  818   0.008   1.326   2.062
  267SOL    HW1  819  -0.085   1.347   2.031
  267SOL    HW2  820   0.018   1.227   2.075
  268SOL     OW  821   0.040   0.544   2.976
  268SOL    HW1  822   0.125   0.511   2.935
  268SOL    HW2  823   0.053   0.559   3.074
  269SOL     OW  824   0.815   0.572   2.187
  269SOL    HW1  825   0.822   0.483   2.141
  269SOL    HW2  826   0.721   0.606   2.179
  270SOL     OW  827   0.473   0.500   2.053
  270SOL    HW1  828   0.534   0.580   2.057
  270SOL    HW2  829   0.378   0.531   2.060
  271SOL     OW  830   1.302   0.855   2.171
  271SOL    HW1  831   1.216   0.824   2.213
  271SOL    HW2  832   1.298   0.841   2.072
  272SOL     OW  833   1.726   0.135   2.385
  272SOL    HW1  834   1.799   0.118   2.318
  272SOL    HW2  835   1.695   0.048   2.423
  273SOL     OW  836   1.388   1.573   2.339
  273SOL    HW1  837   1.455   1.585   2.265
  273SOL    HW2  838   1.348   1.662   2.362
  274SOL     OW  839   0.672   1.616   2.016
  274SOL    HW1  840   0.681   1.626   1.917
  274SOL    HW2  841   0.632   1.527   2.037
  275SOL     OW  842   1.841   0.175   2.825
  275SOL    HW1  843   1.880   0.090   2.789
  275SOL    HW2  844   1.743   0.177   2.806
  276SOL     OW  845   0.263   0.326   2.582
  276SOL    HW1  846   0.184   0.377   2.548
  276SOL    HW2  847   0.254   0.311   2.680
  277SOL     OW  848   1.194   1.612   1.893
  277SOL    HW1  849   1.200   1.519   1.930
  277SOL    HW2  850   1.135   1.612   1.813
  278SOL     OW  851   0.916   0.910   2.153
  278SOL    HW1  852   0.979   0.948   2.085
  278SOL    HW2  853   0.956   0.827   2.192
  279SOL     OW  854   1.504   1.607   1.906
  279SOL    HW1  855   1.412   1.644   1.913
  279SOL    HW2  856   1.542   1.627   1.816
  280SOL     OW  857   1.039   1.098   2.558
  280SOL    HW1  858   0.969   1.051   2.612
  280SOL    HW2  859   1.098   1.030   2.515
  281SOL     OW  860   0.590   1.487   2.353
  281SOL    HW1  861   0.632   1.429   2.283
  281SOL    HW2  862   0.546   1.566   2.309
  282SOL     OW  863   0.255   1.348   2.152
  282SOL    HW1  864   0.159   1.349   2.125
  282SOL    HW2  865   0.267   1.401   2.236
  283SOL     OW  866   0.075   0.345   1.895
  283SOL    HW1  867  -0.017   0.317   1.866
  283SOL    HW2  868   0.106   0.422   1.839
  284SOL     OW  869   0.072   0.166   2.180
  284SOL    HW1  870   0.055   0.249   2.126
  284SOL    HW2  871   0.162   0.129   2.158
  285SOL     OW  872   1.183   1.335   1.981
  285SOL    HW1  873   1.084   1.324   1.983
  285SOL    HW2  874   1.217   1.350   2.074
  286SOL     OW  875   1.225   0.325   2.311
  286SOL    HW1  876   1.290   0.251   2.300
  286SOL    HW2  877   1.245   0.375   2.395
  287SOL     OW  878   0.594   0.745   2.514
  287SOL    HW1  879   0.644   0.830   2.495
  287SOL    HW2  880   0.506   0.747   2.466
  288SOL     OW  881   0.859   1.374   1.878
  288SOL    HW1  882   0.813   1.389   1.966
  288SOL    HW2  883   0.903   1.459   1.848
  289SOL     OW  884   0.661   1.790   2.815
  289SOL    HW1  885   0.615   1.878   2.802
  289SOL    HW2  886   0.760   1.802   2.808
  290SOL     OW  887   0.859   0.956   2.723
  290SOL    HW1  888   0.913   0.887   2.771
  290SOL    HW2  889   0.827   1.025   2.789
  291SOL     OW  890   1.083   0.984   1.949
  291SOL    HW1  891   1.060   1.037   1.867
  291SOL    HW2  892   1.164   0.928   1.930
  292SOL     OW  893   0.079   1.240   2.515
  292SOL    HW1  894   0.078   1.193   2.603
  292SOL    HW2  895   0.161   1.212   2.464
  293SOL     OW  896   0.428   0.424   2.382
  293SOL    HW1  897   0.458   0.352   2.320
  293SOL    HW2  898   0.389   0.384   2.465
  294SOL     OW  899   1.705   1.487   2.966
  294SOL    HW1  900   1.612   1.462   2.939
  294SOL    HW2  901   1.731   1.437   3.048
  295SOL     OW  902   0.812   1.586   2.549
  295SOL    HW1  903   0.844   1.596   2.455
  295SOL    HW2  904   0.733   1.524   2.551
  296SOL     OW  905   0.770   1.330   2.163
  296SOL    HW1  906   0.724   1.243   2.180
  296SOL    HW2  907   0.861   1.327   2.204
  297SOL     OW  908   1.352   0.052   2.030
  297SOL    HW1  909   1.387   0.011   1.946
  297SOL    HW2  910   1.262   0.014   2.050
  298SOL     OW  911   1.300   0.453   2.553
  298SOL    HW1  912   1.241   0.533   2.557
  298SOL    HW2  913   1.315   0.418   2.646
  299SOL     OW  914   0.039   1.077   2.162
  299SOL    HW1  915   0.138   1.066   2.153
  299SOL    HW2  916  -0.001   0.991   2.194
  300SOL     OW  917   0.875   1.646   2.199
  300SOL    HW1  918   0.798   1.611   2.145
  300SOL    HW2  919   0.843   1.717   2.261
  301SOL     OW  920   0.230   2.490   0.113
  301SOL    HW1  921   0.137   2.488   0.150
  301SOL    HW2  922   0.231   2.451   0.021
  302SOL     OW  923   0.225   2.137   0.996
  302SOL    HW1  924   0.260   2.120   1.088
  302SOL    HW2  925   0.137   2.092   0.984
  303SOL     OW  926   0.019   2.230   0.647
  303SOL    HW1  927  -0.063   2.273   0.686
  303SOL    HW2  928  -0.009   2.157   0.584
  304SOL     OW  929   1.755   2.469   0.231
  304SOL    HW1  930   1.743   2.456   0.132
  304SOL    HW2  931   1.725   2.388   0.280
  305SOL     OW  932   0.850   2.660   1.823
  305SOL    HW1  933   0.846   2.736   1.888
  305SOL    HW2  934   0.872   2.696   1.732
  306SOL     OW  935   0.685   2.874   0.665
  306SOL    HW1  936   0.754   2.858   0.735
  306SOL    HW2  937   0.612   2.931   0.703
  307SOL     OW  938   0.438   2.254   1.499
  307SOL    HW1  939   0.520   2.198   1.508
  307SOL    HW2  940   0.357   2.196   1.503
  308SOL     OW  941   1.603   2.309   0.737
  308SOL    HW1  942   1.529   2.355   0.687
  308SOL    HW2  943   1.654   2.377   0.790
  309SOL     OW  944   1.594   1.976   1.480
  309SOL    HW1  945   1.576   2.043   1.408
  309SOL    HW2  946   1.591   2.022   1.569
  310SOL     OW  947   0.122   2.505   0.563
  310SOL    HW1  948   0.077   2.417   0.580
  310SOL    HW2  949   0.121   2.559   0.647
  311SOL     OW  950   0.113   2.599   1.597
  311SOL    HW1  951   0.201   2.586   1.642
  311SOL    HW2  952   0.100   2.696   1.575
  312SOL     OW  953   0.809   1.866   0.502
  312SOL    HW1  954   0.849   1.957   0.493
  312SOL    HW2  955   0.709   1.874   0.508
  313SOL     OW  956   0.317   2.113   1.801
  313SOL    HW1  957   0.388   2.184   1.807
  313SOL    HW2  958   0.229   2.152   1.829
  314SOL     OW  959   0.598   2.591   0.270
  314SOL    HW1  960   0.622   2.660   0.202
  314SOL    HW2  961   0.520   2.624   0.324
  315SOL     OW  962   1.281   2.207   0.944
  315SOL    HW1  963   1.195   2.157   0.931
  315SOL    HW2  964   1.343   2.153   1.000
  316SOL     OW  965   0.807   2.467   1.465
  316SOL    HW1  966   0.760   2.464   1.554
  316SOL    HW2  967   0.756   2.412   1.399
  317SOL     OW  968   1.394   2.331   1.674
  317SOL    HW1  969   1.374   2.374   1.762
  317SOL    HW2  970   1.472   2.269   1.683
  318SOL     OW  971   0.991   2.272   1.242
  318SOL    HW1  972   0.914   2.306   1.296
  318SOL    HW2  973   0.957   2.221   1.163
  319SOL     OW  974   1.041   2.563   0.429
  319SOL    HW1  975   1.067   2.559   0.525
  319SOL    HW2  976   0.956   2.512   0.415
  320SOL     OW  977   0.076   2.673   0.789
  320SOL    HW1  978   0.175   2.661   0.798
  320SOL    HW2  979   0.052   2.768   0.810
  321SOL     OW  980   0.865   2.210   0.195
  321SOL    HW1  981   0.924   2.273   0.146
  321SOL    HW2  982   0.884   2.116   0.166
  322SOL     OW  983   1.719   2.447   1.831
  322SOL    HW1  984   1.693   2.536   1.795
  322SOL    HW2  985   1.717   2.379   1.758
  323SOL     OW  986   0.550   2.058   0.885
  323SOL    HW1  987   0.545   2.053   0.985
  323SOL    HW2  988   0.552   2.154   0.856
  324SOL     OW  989   1.458   2.597   0.728
  324SOL    HW1  990   1.453   2.532   0.803
  324SOL    HW2  991   1.538   2.656   0.741
  325SOL     OW  992   0.202   2.147   1.498
  325SOL    HW1  993   0.122   2.207   1.485
  325SOL    HW2  994   0.192   2.098   1.584
  326SOL     OW  995   1.400   1.969   0.426
  326SOL    HW1  996   1.376   1.932   0.336
  326SOL    HW2  997   1.499   1.985   0.430
  327SOL     OW  998   0.382   2.562   0.480
  327SOL    HW1  999   0.427   2.472   0.477
  327SOL    HW2 1000   0.288   2.551   0.513
  328SOL     OW 1001   1.547   2.084   1.729
  328SOL    HW1 1002   1.542   2.121   1.821
  328SOL    HW2 1003   1.475   2.015   1.717
  329SOL     OW 1004   0.781   2.126   1.749
  329SOL    HW1 1005   0.848   2.065   1.792
  329SOL    HW2 1006   0.708   2.145   1.814
  330SOL     OW 1007   1.351   2.452   1.433
  330SOL    HW1 1008   1.379   2.409   1.518
  330SOL    HW2 1009   1.376   2.548   1.434
  331SOL     OW 1010   0.922   2.365   0.899
  331SOL    HW1 1011   0.897   2.356   0.803
  331SOL    HW2 1012   0.970   2.283   0.930
  332SOL     OW 1013   0.539   1.926   0.512
  332SOL    HW1 1014   0.458   1.927   0.570
  332SOL    HW2 1015   0.542   2.009   0.457
  333SOL     OW 1016   0.297   1.897   0.171
  333SOL    HW1 1017   0.346   1.981   0.150
  333SOL    HW2 1018   0.359   1.832   0.216
  334SOL     OW 1019   0.935   2.098   0.480
  334SOL    HW1 1020   0.887   2.139   0.402
  334SOL    HW2 1021   1.034   2.096   0.461
  335SOL     OW 1022   1.076   2.545   1.464
  335SOL    HW1 1023   0.996   2.484   1.467
  335SOL    HW2 1024   1.157   2.492   1.440
  336SOL     OW 1025   1.032   2.411   0.016
  336SOL    HW1 1026   0.991   2.493  -0.023
  336SOL    HW2 1027   1.096   2.437   0.089
  337SOL     OW 1028   0.078   2.418   1.386
  337SOL    HW1 1029   0.170   2.417   1.345
  337SOL    HW2 1030   0.072   2.492   1.453
  338SOL     OW 1031   0.561   2.084   1.147
  338SOL    HW1 1032   0.599   2.000   1.184
  338SOL    HW2 1033   0.473   2.103   1.191
  339SOL     OW 1034   0.866   2.316   0.642
  339SOL    HW1 1035   0.834   2.388   0.580
  339SOL    HW2 1036   0.890   2.235   0.589
  340SOL     OW 1037   1.017   1.901   0.753
  340SOL    HW1 1038   0.945   1.906   0.684
  340SOL    HW2 1039   0.993   1.832   0.822
  341SOL     OW 1040   1.466   2.452   0.992
  341SOL    HW1 1041   1.436   2.357   0.999
  341SOL    HW2 1042   1.539   2.468   1.058
  342SOL     OW 1043   1.857   2.695   0.377
  342SOL    HW1 1044   1.899   2.631   0.441
  342SOL    HW2 1045   1.819   2.644   0.299
  343SOL     OW 1046   1.390   2.437   0.078
  343SOL    HW1 1047   1.336   2.416   0.159
  343SOL    HW2 1048   1.481   2.396   0.087
  344SOL     OW 1049   0.527   2.118   0.328
  344SOL    HW1 1050   0.554   2.059   0.253
  344SOL    HW2 1051   0.527   2.213   0.297
  345SOL     OW 1052   0.915   1.951   1.402
  345SOL    HW1 1053   0.940   1.931   1.307
  345SOL    HW2 1054   0.987   2.007   1.444
  346SOL     OW 1055   0.705   2.912   0.368
  346SOL    HW1 1056   0.691   2.919   0.467
  346SOL    HW2 1057   0.789   2.861   0.350
  347SOL     OW 1058   0.410   2.675   1.251
  347SOL    HW1 1059   0.496   2.687   1.301
  347SOL    HW2 1060   0.368   2.588   1.278
  348SOL     OW 1061   1.274   2.248   1.262
  348SOL    HW1 1062   1.295   2.322   1.326
  348SOL    HW2 1063   1.185   2.265   1.219
  349SOL     OW 1064   0.566   2.399   0.865
  349SOL    HW1 1065   0.578   2.465   0.791
  349SOL    HW2 1066   0.612   2.433   0.948
  350SOL     OW 1067   1.582   2.501   0.472
  350SOL    HW1 1068   1.551   2.562   0.545
  350SOL    HW2 1069   1.632   2.553   0.403
  351SOL     OW 1070   1.587   2.641   1.670
  351SOL    HW1 1071   1.495   2.679   1.665
  351SOL    HW2 1072   1.647   2.688   1.605
  352SOL     OW 1073   1.013   1.967   1.770
  352SOL    HW1 1074   1.019   2.052   1.718
  352SOL    HW2 1075   1.045   1.891   1.713
  353SOL     OW 1076   0.504   1.912   1.740
  353SOL    HW1 1077   0.462   1.855   1.670
  353SOL    HW2 1078   0.438   1.981   1.772
  354SOL     OW 1079   1.360   2.724   1.045
  354SOL    HW1 1080   1.285   2.724   0.979
  354SOL    HW2 1081   1.397   2.632   1.054
  355SOL     OW 1082   1.209   2.387   0.275
  355SOL    HW1 1083   1.222   2.303   0.329
  355SOL    HW2 1084   1.180   2.461   0.335
  356SOL     OW 1085   0.307   2.075   1.231
  356SOL    HW1 1086   0.284   2.112   1.321
  356SOL    HW2 1087   0.277   1.980   1.225
  357SOL     OW 1088   0.732   2.496   1.064
  357SOL    HW1 1089   0.791   2.470   0.988
  357SOL    HW2 1090   0.704   2.592   1.053
  358SOL     OW 1091   1.728   2.797   1.854
  358SOL    HW1 1092   1.682   2.790   1.765
  358SOL    HW2 1093   1.666   2.841   1.920
  359SOL     OW 1094   0.307   1.925   0.618
  359SOL    HW1 1095   0.296   2.019   0.651
  359SOL    HW2 1096   0.302   1.862   0.695
  360SOL     OW 1097   1.622   2.229   0.374
  360SOL    HW1 1098   1.624   2.153   0.438
  360SOL    HW2 1099   1.574   2.306   0.414
  361SOL     OW 1100   1.540   2.136   0.125
  361SOL    HW1 1101   1.479   2.061   0.148
  361SOL    HW2 1102   1.562   2.188   0.208
  362SOL     OW 1103   0.319   2.672   0.949
  362SOL    HW1 1104   0.412   2.708   0.954
  362SOL    HW2 1105   0.313   2.587   1.001
  363SOL     OW 1106   0.339   2.371   1.006
  363SOL    HW1 1107   0.287   2.288   0.989
  363SOL    HW2 1108   0.416   2.376   0.942
  364SOL     OW 1109   1.138   2.242   1.678
  364SOL    HW1 1110   1.093   2.305   1.742
  364SOL    HW2 1111   1.231   2.273   1.661
  365SOL     OW 1112   1.160   2.069   1.477
  365SOL    HW1 1113   1.160   2.133   1.554
  365SOL    HW2 1114   1.188   2.117   1.394
  366SOL     OW 1115   0.040   2.406   1.114
  366SOL    HW1 1116   0.125   2.373   1.073
  366SOL    HW2 1117   0.053   2.421   1.212
  367SOL     OW 1118   0.189   2.382   1.722
  367SOL    HW1 1119   0.248   2.342   1.652
  367SOL    HW2 1120   0.131   2.453   1.681
  368SOL     OW 1121   0.815   2.434   0.325
  368SOL    HW1 1122   0.822   2.345   0.279
  368SOL    HW2 1123   0.721   2.468   0.317
  369SOL     OW 1124   1.657   2.466   1.206
  369SOL    HW1 1125   1.619   2.397   1.268
  369SOL    HW2 1126   1.739   2.430   1.162
  370SOL     OW 1127   0.671   2.326   1.269
  370SOL    HW1 1128   0.637   2.237   1.239
  370SOL    HW2 1129   0.697   2.380   1.189
  371SOL     OW 1130   0.473   2.362   0.191
  371SOL    HW1 1131   0.534   2.442   0.195
  371SOL    HW2 1132   0.378   2.393   0.198
  372SOL     OW 1133   0.903   1.948   0.133
  372SOL    HW1 1134   0.954   1.949   0.047
  372SOL    HW2 1135   0.959   1.906   0.204
  373SOL     OW 1136   1.726   1.997   0.523
  373SOL    HW1 1137   1.799   1.980   0.456
  373SOL    HW2 1138   1.695   1.910   0.561
  374SOL     OW 1139   1.280   2.789   0.672
  374SOL    HW1 1140   1.340   2.708   0.674
  374SOL    HW2 1141   1.320   2.858   0.612
  375SOL     OW 1142   1.841   2.037   0.963
  375SOL    HW1 1143   1.880   1.952   0.927
  375SOL    HW2 1144   1.743   2.039   0.944
  376SOL     OW 1145   0.263   2.188   0.720
  376SOL    HW1 1146   0.184   2.239   0.686
  376SOL    HW2 1147   0.254   2.173   0.818
  377SOL     OW 1148   1.014   2.098   0.971
  377SOL    HW1 1149   1.006   2.062   0.878
  377SOL    HW2 1150   1.012   2.022   1.036
  378SOL     OW 1151   1.709   2.247   1.381
  378SOL    HW1 1152   1.782   2.316   1.385
  378SOL    HW2 1153   1.737   2.172   1.322
  379SOL     OW 1154   0.105   2.875   1.726
  379SOL    HW1 1155   0.028   2.842   1.780
  379SOL    HW2 1156   0.190   2.845   1.768
  380SOL     OW 1157   0.672   2.065   1.489
  380SOL    HW1 1158   0.762   2.049   1.449
  380SOL    HW2 1159   0.680   2.070   1.588
  381SOL     OW 1160   0.075   2.207   0.033
  381SOL    HW1 1161  -0.017   2.179   0.004
  381SOL    HW2 1162   0.106   2.284  -0.023
  382SOL     OW 1163   0.072   2.028   0.318
  382SOL    HW1 1164   0.055   2.111   0.264
  382SOL    HW2 1165   0.162   1.991   0.296
  383SOL     OW 1166   0.716   2.427   1.708
  383SOL    HW1 1167   0.735   2.492   1.782
  383SOL    HW2 1168   0.776   2.347   1.717
  384SOL     OW 1169   1.674   2.745   1.254
  384SOL    HW1 1170   1.647   2.656   1.217
  384SOL    HW2 1171   1.675   2.813   1.181
  385SOL     OW 1172   1.225   2.187   0.449
  385SOL    HW1 1173   1.290   2.113   0.438
  385SOL    HW2 1174   1.245   2.237   0.533
  386SOL     OW 1175   0.594   2.607   0.652
  386SOL    HW1 1176   0.644   2.692   0.633
  386SOL    HW2 1177   0.506   2.609   0.604
  387SOL     OW 1178   1.777   2.204   1.642
  387SOL    HW1 1179   1.760   2.235   1.548
  387SOL    HW2 1180   1.693   2.167   1.680
  388SOL     OW 1181   0.859   2.818   0.861
  388SOL    HW1 1182   0.913   2.749   0.909
  388SOL    HW2 1183   0.827   2.887   0.927
  389SOL     OW 1184   1.824   2.054   1.227
  389SOL    HW1 1185   1.820   1.964   1.271
  389SOL    HW2 1186   1.827   2.043   1.128
  390SOL     OW 1187   0.428   2.286   0.520
  390SOL    HW1 1188   0.458   2.214   0.458
  390SOL    HW2 1189   0.389   2.246   0.603
  391SOL     OW 1190   0.317   2.409   1.280
  391SOL    HW1 1191   0.355   2.350   1.352
  391SOL    HW2 1192   0.357   2.383   1.192
  392SOL     OW 1193   1.424   2.076   1.112
  392SOL    HW1 1194   1.476   2.011   1.167
  392SOL    HW2 1195   1.375   2.139   1.173
  393SOL     OW 1196   1.001   1.896   1.154
  393SOL    HW1 1197   0.938   1.824   1.123
  393SOL    HW2 1198   1.094   1.860   1.154
  394SOL     OW 1199   1.352   1.914   0.168
  394SOL    HW1 1200   1.387   1.873   0.084
  394SOL    HW2 1201   1.262   1.876   0.188
  395SOL     OW 1202   1.300   2.315   0.691
  395SOL    HW1 1203   1.241   2.395   0.695
  395SOL    HW2 1204   1.315   2.280   0.784
  396SOL     OW 1205   1.593   2.083   0.882
  396SOL    HW1 1206   1.509   2.082   0.936
  396SOL    HW2 1207   1.595   2.166   0.826
  397SOL     OW 1208   0.230   2.490   1.975
  397SOL    HW1 1209   0.137   2.488   2.012
  397SOL    HW2 1210   0.231   2.451   1.883
  398SOL     OW 1211   0.225   2.137   2.858
  398SOL    HW1 1212   0.260   2.120   2.950
  398SOL    HW2 1213   0.137   2.092   2.846
  399SOL     OW 1214   0.019   2.230   2.509
  399SOL    HW1 1215  -0.063   2.273   2.548
  399SOL    HW2 1216  -0.009   2.157   2.446
  400SOL     OW 1217   1.755   2.469   2.093
  400SOL    HW1 1218   1.743   2.456   1.994
  400SOL    HW2 1219   1.725   2.388   2.142
  401SOL     OW 1220   0.685   2.874   2.527
  401SOL    HW1 1221   0.754   2.858   2.597
  401SOL    HW2 1222   0.612   2.931   2.565
  402SOL     OW 1223   1.603   2.309   2.599
  402SOL    HW1 1224   1.529   2.355   2.549
  402SOL    HW2 1225   1.654   2.377   2.652
  403SOL     OW 1226   0.122   2.505   2.425
  403SOL    HW1 1227   0.077   2.417   2.442
  403SOL    HW2 1228   0.121   2.559   2.509
  404SOL     OW 1229   0.809   1.866   2.364
  404SOL    HW1 1230   0.849   1.957   2.355
  404SOL    HW2 1231   0.709   1.874   2.370
  405SOL     OW 1232   0.598   2.591   2.132
  405SOL    HW1 1233   0.622   2.660   2.064
  405SOL    HW2 1234   0.520   2.624   2.186
  406SOL     OW 1235   1.281   2.207   2.806
  406SOL    HW1 1236   1.195   2.157   2.793
  406SOL    HW2 1237   1.343   2.153   2.862
  407SOL     OW 1238   1.041   2.563   2.291
  407SOL    HW1 1239   1.067   2.559   2.387
  407SOL    HW2 1240   0.956   2.512   2.277
  408SOL     OW 1241   0.076   2.673   2.651
  408SOL    HW1 1242   0.175   2.661   2.660
  408SOL    HW2 1243   0.052   2.768   2.672
  409SOL     OW 1244   0.865   2.210   2.057
  409SOL    HW1 1245   0.924   2.273   2.008
  409SOL    HW2 1246   0.884   2.116   2.028
  410SOL     OW 1247   1.458   2.597   2.590
  410SOL    HW1 1248   1.453   2.532   2.665
  410SOL    HW2 1249   1.538   2.656   2.603
  411SOL     OW 1250   1.400   1.969   2.288
  411SOL    HW1 1251   1.376   1.932   2.198
  411SOL    HW2 1252   1.499   1.985   2.292
  412SOL     OW 1253   0.382   2.562   2.342
  412SOL    HW1 1254   0.427   2.472   2.339
  412SOL    HW2 1255   0.288   2.551   2.375
  413SOL     OW 1256   0.614   1.984   1.979
  413SOL    HW1 1257   0.712   1.962   1.986
  413SOL    HW2 1258   0.583   1.967   1.886
  414SOL     OW 1259   0.539   1.926   2.374
  414SOL    HW1 1260   0.458   1.927   2.432
  414SOL    HW2 1261   0.542   2.009   2.319
  415SOL     OW 1262   0.297   1.897   2.033
  415SOL    HW1 1263   0.346   1.981   2.012
  415SOL    HW2 1264   0.359   1.832   2.078
  416SOL     OW 1265   0.935   2.098   2.342
  416SOL    HW1 1266   0.887   2.139   2.264
  416SOL    HW2 1267   1.034   2.096   2.323
  417SOL     OW 1268   1.032   2.411   1.878
  417SOL    HW1 1269   0.991   2.493   1.839
  417SOL    HW2 1270   1.096   2.437   1.951
  418SOL     OW 1271   0.866   2.316   2.504
  418SOL    HW1 1272   0.834   2.388   2.442
  418SOL    HW2 1273   0.890   2.235   2.451
  419SOL     OW 1274   1.017   1.901   2.615
  419SOL    HW1 1275   0.945   1.906   2.546
  419SOL    HW2 1276   0.993   1.832   2.684
  420SOL     OW 1277   1.857   2.695   2.239
  420SOL    HW1 1278   1.899   2.631   2.303
  420SOL    HW2 1279   1.819   2.644   2.161
  421SOL     OW 1280   1.390   2.437   1.940
  421SOL    HW1 1281   1.336   2.416   2.021
  421SOL    HW2 1282   1.481   2.396   1.949
  422SOL     OW 1283   0.527   2.118   2.190
  422SOL    HW1 1284   0.554   2.059   2.115
  422SOL    HW2 1285   0.527   2.213   2.159
  423SOL     OW 1286   0.705   2.912   2.230
  423SOL    HW1 1287   0.691   2.919   2.329
  423SOL    HW2 1288   0.789   2.861   2.212
  424SOL     OW 1289   1.582   2.501   2.334
  424SOL    HW1 1290   1.551   2.562   2.407
  424SOL    HW2 1291   1.632   2.553   2.265
  425SOL     OW 1292   1.209   2.387   2.137
  425SOL    HW1 1293   1.222   2.303   2.191
  425SOL    HW2 1294   1.180   2.461   2.197
  426SOL     OW 1295   0.307   1.925   2.480
  426SOL    HW1 1296   0.296   2.019   2.513
  426SOL    HW2 1297   0.302   1.862   2.557
  427SOL     OW 1298   1.622   2.229   2.236
  427SOL    HW1 1299   1.624   2.153   2.300
  427SOL    HW2 1300   1.574   2.306   2.276
  428SOL     OW 1301   1.540   2.136   1.987
  428SOL    HW1 1302   1.479   2.061   2.010
  428SOL    HW2 1303   1.562   2.188   2.070
  429SOL     OW 1304   0.040   2.406   2.976
  429SOL    HW1 1305   0.125   2.373   2.935
  429SOL    HW2 1306   0.053   2.421   3.074
  430SOL     OW 1307   0.815   2.434   2.187
  430SOL    HW1 1308   0.822   2.345   2.141
  430SOL    HW2 1309   0.721   2.468   2.179
  431SOL     OW 1310   0.473   2.362   2.053
  431SOL    HW1 1311   0.534   2.442   2.057
  431SOL    HW2 1312   0.378   2.393   2.060
  432SOL     OW 1313   1.726   1.997   2.385
  432SOL    HW1 1314   1.799   1.980   2.318
  432SOL    HW2 1315   1.695   1.910   2.423
  433SOL     OW 1316   1.280   2.789   2.534
  433SOL    HW1 1317   1.340   2.708   2.536
  433SOL    HW2 1318   1.320   2.858   2.474
  434SOL     OW 1319   1.841   2.037   2.825
  434SOL    HW1 1320   1.880   1.952   2.789
  434SOL    HW2 1321   1.743   2.039   2.806
  435SOL     OW 1322   0.263   2.188   2.582
  435SOL    HW1 1323   0.184   2.239   2.548
  435SOL    HW2 1324   0.254   2.173   2.680
  436SOL     OW 1325   0.916   2.772   2.153
  436SOL    HW1 1326   0.979   2.810   2.085
  436SOL    HW2 1327   0.956   2.689   2.192
  437SOL     OW 1328   1.039   2.960   2.558
  437SOL    HW1 1329   0.969   2.913   2.612
  437SOL    HW2 1330   1.098   2.892   2.515
  438SOL     OW 1331   0.075   2.207   1.895
  438SOL    HW1 1332  -0.017   2.179   1.866
  438SOL    HW2 1333   0.106   2.284   1.839
  439SOL     OW 1334   0.072   2.028   2.180
  439SOL    HW1 1335   0.055   2.111   2.126
  439SOL    HW2 1336   0.162   1.991   2.158
  440SOL     OW 1337   1.225   2.187   2.311
  440SOL    HW1 1338   1.290   2.113   2.300
  440SOL    HW2 1339   1.245   2.237   2.395
  441SOL     OW 1340   0.594   2.607   2.514
  441SOL    HW1 1341   0.644   2.692   2.495
  441SOL    HW2 1342   0.506   2.609   2.466
  442SOL     OW 1343   0.428   2.286   2.382
  442SOL    HW1 1344   0.458   2.214   2.320
  442SOL    HW2 1345   0.389   2.246   2.465
  443SOL     OW 1346   1.352   1.914   2.030
  443SOL    HW1 1347   1.387   1.873   1.946
  443SOL    HW2 1348   1.262   1.876   2.050
  444SOL     OW 1349   1.300   2.315   2.553
  444SOL    HW1 1350   1.241   2.395   2.557
  444SOL    HW2 1351   1.315   2.280   2.646
  445SOL     OW 1352   2.092   0.628   0.113
  445SOL    HW1 1353   1.999   0.626   0.150
  445SOL    HW2 1354   2.093   0.589   0.021
  446SOL     OW 1355   2.087   0.275   0.996
  446SOL    HW1 1356   2.122   0.258   1.088
  446SOL    HW2 1357   1.999   0.230   0.984
  447SOL     OW 1358   1.881   0.368   0.647
  447SOL    HW1 1359   1.799   0.411   0.686
  447SOL    HW2 1360   1.853   0.295   0.584
  448SOL     OW 1361   2.431   1.275   1.165
  448SOL    HW1 1362   2.338   1.268   1.128
  448SOL    HW2 1363   2.442   1.364   1.209
  449SOL     OW 1364   2.712   0.798   1.823
  449SOL    HW1 1365   2.708   0.874   1.888
  449SOL    HW2 1366   2.734   0.834   1.732
  450SOL     OW 1367   2.547   1.012   0.665
  450SOL    HW1 1368   2.616   0.996   0.735
  450SOL    HW2 1369   2.474   1.069   0.703
  451SOL     OW 1370   2.548   1.161   1.803
  451SOL    HW1 1371   2.608   1.240   1.817
  451SOL    HW2 1372   2.462   1.192   1.762
  452SOL     OW 1373   2.197   1.435   1.061
  452SOL    HW1 1374   2.119   1.404   1.008
  452SOL    HW2 1375   2.255   1.493   1.004
  453SOL     OW 1376   2.300   0.392   1.499
  453SOL    HW1 1377   2.382   0.336   1.508
  453SOL    HW2 1378   2.219   0.334   1.503
  454SOL     OW 1379   2.093   1.713   0.483
  454SOL    HW1 1380   2.127   1.790   0.537
  454SOL    HW2 1381   2.137   1.713   0.393
  455SOL     OW 1382   2.092   1.434   0.538
  455SOL    HW1 1383   2.066   1.530   0.538
  455SOL    HW2 1384   2.021   1.380   0.583
  456SOL     OW 1385   2.102   1.091   0.886
  456SOL    HW1 1386   2.116   1.007   0.938
  456SOL    HW2 1387   2.047   1.155   0.941
  457SOL     OW 1388   2.482   1.786   1.439
  457SOL    HW1 1389   2.390   1.769   1.474
  457SOL    HW2 1390   2.510   1.878   1.465
  458SOL     OW 1391   2.468   0.964   0.123
  458SOL    HW1 1392   2.475   1.048   0.069
  458SOL    HW2 1393   2.514   0.977   0.211
  459SOL     OW 1394   1.984   0.643   0.563
  459SOL    HW1 1395   1.939   0.555   0.580
  459SOL    HW2 1396   1.983   0.697   0.647
  460SOL     OW 1397   1.889   1.596   0.117
  460SOL    HW1 1398   1.870   1.500   0.138
  460SOL    HW2 1399   1.856   1.654   0.192
  461SOL     OW 1400   1.975   0.737   1.597
  461SOL    HW1 1401   2.063   0.724   1.642
  461SOL    HW2 1402   1.962   0.834   1.575
  462SOL     OW 1403   2.475   1.365   0.726
  462SOL    HW1 1404   2.426   1.278   0.735
  462SOL    HW2 1405   2.452   1.408   0.639
  463SOL     OW 1406   2.671   0.004   0.502
  463SOL    HW1 1407   2.711   0.095   0.493
  463SOL    HW2 1408   2.571   0.012   0.508
  464SOL     OW 1409   2.059   0.976   1.264
  464SOL    HW1 1410   2.148   0.931   1.250
  464SOL    HW2 1411   1.986   0.911   1.245
  465SOL     OW 1412   2.179   0.251   1.801
  465SOL    HW1 1413   2.250   0.322   1.807
  465SOL    HW2 1414   2.091   0.290   1.829
  466SOL     OW 1415   2.460   0.729   0.270
  466SOL    HW1 1416   2.484   0.798   0.202
  466SOL    HW2 1417   2.382   0.762   0.324
  467SOL     OW 1418   1.938   0.811   0.789
  467SOL    HW1 1419   2.037   0.799   0.798
  467SOL    HW2 1420   1.914   0.906   0.810
  468SOL     OW 1421   1.992   1.821   1.571
  468SOL    HW1 1422   1.982   1.806   1.670
  468SOL    HW2 1423   1.906   1.857   1.535
  469SOL     OW 1424   2.412   0.196   0.885
  469SOL    HW1 1425   2.407   0.191   0.985
  469SOL    HW2 1426   2.414   0.292   0.856
  470SOL     OW 1427   2.213   1.801   0.853
  470SOL    HW1 1428   2.263   1.715   0.859
  470SOL    HW2 1429   2.278   1.878   0.850
  471SOL     OW 1430   2.183   0.943   0.242
  471SOL    HW1 1431   2.265   0.982   0.200
  471SOL    HW2 1432   2.156   0.861   0.193
  472SOL     OW 1433   2.323   1.266   1.727
  472SOL    HW1 1434   2.273   1.267   1.641
  472SOL    HW2 1435   2.260   1.248   1.803
  473SOL     OW 1436   2.064   0.285   1.498
  473SOL    HW1 1437   1.984   0.345   1.485
  473SOL    HW2 1438   2.054   0.236   1.584
  474SOL     OW 1439   2.326   1.743   0.323
  474SOL    HW1 1440   2.359   1.782   0.409
  474SOL    HW2 1441   2.402   1.736   0.258
  475SOL     OW 1442   2.111   1.785   1.241
  475SOL    HW1 1443   2.168   1.720   1.291
  475SOL    HW2 1444   2.095   1.752   1.148
  476SOL     OW 1445   2.244   0.700   0.480
  476SOL    HW1 1446   2.289   0.610   0.477
  476SOL    HW2 1447   2.150   0.689   0.513
  477SOL     OW 1448   2.476   0.122   0.117
  477SOL    HW1 1449   2.574   0.100   0.124
  477SOL    HW2 1450   2.445   0.105   0.024
  478SOL     OW 1451   2.665   1.402   0.924
  478SOL    HW1 1452   2.755   1.416   0.882
  478SOL    HW2 1453   2.594   1.404   0.853
  479SOL     OW 1454   2.784   0.503   0.899
  479SOL    HW1 1455   2.759   0.494   0.803
  479SOL    HW2 1456   2.832   0.421   0.930
  480SOL     OW 1457   2.401   0.064   0.512
  480SOL    HW1 1458   2.320   0.065   0.570
  480SOL    HW2 1459   2.404   0.147   0.457
  481SOL     OW 1460   2.159   0.035   0.171
  481SOL    HW1 1461   2.208   0.119   0.150
  481SOL    HW2 1462   2.221  -0.030   0.216
  482SOL     OW 1463   2.321   1.152   0.741
  482SOL    HW1 1464   2.250   1.125   0.806
  482SOL    HW2 1465   2.295   1.124   0.648
  483SOL     OW 1466   1.940   0.556   1.386
  483SOL    HW1 1467   2.032   0.555   1.345
  483SOL    HW2 1468   1.934   0.630   1.453
  484SOL     OW 1469   2.423   0.222   1.147
  484SOL    HW1 1470   2.461   0.138   1.184
  484SOL    HW2 1471   2.335   0.241   1.191
  485SOL     OW 1472   2.350   1.385   0.174
  485SOL    HW1 1473   2.263   1.370   0.221
  485SOL    HW2 1474   2.333   1.411   0.079
  486SOL     OW 1475   2.389   0.256   0.328
  486SOL    HW1 1476   2.416   0.197   0.253
  486SOL    HW2 1477   2.389   0.351   0.297
  487SOL     OW 1478   2.777   0.089   1.402
  487SOL    HW1 1479   2.802   0.069   1.307
  487SOL    HW2 1480   2.849   0.145   1.444
  488SOL     OW 1481   2.272   0.813   1.251
  488SOL    HW1 1482   2.358   0.825   1.301
  488SOL    HW2 1483   2.230   0.726   1.278
  489SOL     OW 1484   1.926   1.564   1.331
  489SOL    HW1 1485   1.880   1.646   1.297
  489SOL    HW2 1486   2.024   1.583   1.340
  490SOL     OW 1487   2.229   1.100   0.501
  490SOL    HW1 1488   2.222   1.183   0.445
  490SOL    HW2 1489   2.233   1.020   0.441
  491SOL     OW 1490   2.428   0.537   0.865
  491SOL    HW1 1491   2.440   0.603   0.791
  491SOL    HW2 1492   2.474   0.571   0.948
  492SOL     OW 1493   2.216   1.510   1.329
  492SOL    HW1 1494   2.195   1.466   1.242
  492SOL    HW2 1495   2.313   1.536   1.332
  493SOL     OW 1496   2.264   0.751   1.598
  493SOL    HW1 1497   2.332   0.806   1.551
  493SOL    HW2 1498   2.304   0.663   1.625
  494SOL     OW 1499   2.366   0.050   1.740
  494SOL    HW1 1500   2.324  -0.007   1.670
  494SOL    HW2 1501   2.300   0.119   1.772
  495SOL     OW 1502   2.435   0.870   1.029
  495SOL    HW1 1503   2.479   0.959   1.020
  495SOL    HW2 1504   2.372   0.870   1.106
  496SOL     OW 1505   2.169   0.213   1.231
  496SOL    HW1 1506   2.146   0.250   1.321
  496SOL    HW2 1507   2.139   0.118   1.225
  497SOL     OW 1508   1.899   1.310   1.282
  497SOL    HW1 1509   1.952   1.261   1.350
  497SOL    HW2 1510   1.921   1.408   1.287
  498SOL     OW 1511   2.594   0.634   1.064
  498SOL    HW1 1512   2.653   0.608   0.988
  498SOL    HW2 1513   2.566   0.730   1.053
  499SOL     OW 1514   2.169   0.063   0.618
  499SOL    HW1 1515   2.158   0.157   0.651
  499SOL    HW2 1516   2.164   0.000   0.695
  500SOL     OW 1517   2.212   0.898   1.804
  500SOL    HW1 1518   2.288   0.942   1.852
  500SOL    HW2 1519   2.247   0.851   1.722
  501SOL     OW 1520   2.930   1.333   0.849
  501SOL    HW1 1521   2.937   1.249   0.794
  501SOL    HW2 1522   2.992   1.402   0.813
  502SOL     OW 1523   2.181   0.810   0.949
  502SOL    HW1 1524   2.274   0.846   0.954
  502SOL    HW2 1525   2.175   0.725   1.001
  503SOL     OW 1526   2.201   0.509   1.006
  503SOL    HW1 1527   2.149   0.426   0.989
  503SOL    HW2 1528   2.278   0.514   0.942
  504SOL     OW 1529   1.870   1.326   0.200
  504SOL    HW1 1530   1.777   1.347   0.169
  504SOL    HW2 1531   1.880   1.227   0.213
  505SOL     OW 1532   1.950   1.801   0.927
  505SOL    HW1 1533   1.908   1.715   0.900
  505SOL    HW2 1534   2.044   1.804   0.893
  506SOL     OW 1535   2.366   1.568   0.910
  506SOL    HW1 1536   2.432   1.642   0.919
  506SOL    HW2 1537   2.410   1.489   0.868
  507SOL     OW 1538   1.902   0.544   1.114
  507SOL    HW1 1539   1.987   0.511   1.073
  507SOL    HW2 1540   1.915   0.559   1.212
  508SOL     OW 1541   2.051   0.520   1.722
  508SOL    HW1 1542   2.110   0.480   1.652
  508SOL    HW2 1543   1.993   0.591   1.681
  509SOL     OW 1544   2.114   1.564   1.744
  509SOL    HW1 1545   2.084   1.621   1.820
  509SOL    HW2 1546   2.107   1.467   1.770
  510SOL     OW 1547   2.533   0.464   1.269
  510SOL    HW1 1548   2.499   0.375   1.239
  510SOL    HW2 1549   2.559   0.518   1.189
  511SOL     OW 1550   2.335   0.500   0.191
  511SOL    HW1 1551   2.396   0.580   0.195
  511SOL    HW2 1552   2.240   0.531   0.198
  512SOL     OW 1553   2.021   1.137   1.466
  512SOL    HW1 1554   2.043   1.076   1.542
  512SOL    HW2 1555   2.031   1.088   1.380
  513SOL     OW 1556   1.945   1.258   1.022
  513SOL    HW1 1557   1.940   1.257   1.122
  513SOL    HW2 1558   1.862   1.217   0.984
  514SOL     OW 1559   2.550   1.662   1.716
  514SOL    HW1 1560   2.494   1.743   1.725
  514SOL    HW2 1561   2.602   1.666   1.630
  515SOL     OW 1562   1.992   1.794   1.851
  515SOL    HW1 1563   1.951   1.720   1.904
  515SOL    HW2 1564   2.056   1.845   1.909
  516SOL     OW 1565   2.534   1.616   0.154
  516SOL    HW1 1566   2.543   1.626   0.055
  516SOL    HW2 1567   2.494   1.527   0.175
  517SOL     OW 1568   2.125   0.326   0.720
  517SOL    HW1 1569   2.046   0.377   0.686
  517SOL    HW2 1570   2.116   0.311   0.818
  518SOL     OW 1571   2.684   1.002   1.372
  518SOL    HW1 1572   2.724   1.001   1.280
  518SOL    HW2 1573   2.694   1.094   1.412
  519SOL     OW 1574   2.234   1.288   1.490
  519SOL    HW1 1575   2.221   1.381   1.456
  519SOL    HW2 1576   2.150   1.236   1.477
  520SOL     OW 1577   2.452   1.487   0.491
  520SOL    HW1 1578   2.494   1.429   0.421
  520SOL    HW2 1579   2.408   1.566   0.447
  521SOL     OW 1580   2.117   1.348   0.290
  521SOL    HW1 1581   2.021   1.349   0.263
  521SOL    HW2 1582   2.129   1.401   0.374
  522SOL     OW 1583   1.967   1.013   1.726
  522SOL    HW1 1584   1.890   0.980   1.780
  522SOL    HW2 1585   2.052   0.983   1.768
  523SOL     OW 1586   2.534   0.203   1.489
  523SOL    HW1 1587   2.624   0.187   1.449
  523SOL    HW2 1588   2.542   0.208   1.588
  524SOL     OW 1589   1.937   0.345   0.033
  524SOL    HW1 1590   1.845   0.317   0.004
  524SOL    HW2 1591   1.968   0.422  -0.023
  525SOL     OW 1592   1.934   0.166   0.318
  525SOL    HW1 1593   1.917   0.249   0.264
  525SOL    HW2 1594   2.024   0.129   0.296
  526SOL     OW 1595   2.475   0.842   1.431
  526SOL    HW1 1596   2.531   0.923   1.414
  526SOL    HW2 1597   2.534   0.762   1.434
  527SOL     OW 1598   2.578   0.565   1.708
  527SOL    HW1 1599   2.597   0.630   1.782
  527SOL    HW2 1600   2.638   0.485   1.717
  528SOL     OW 1601   2.252   1.741   1.560
  528SOL    HW1 1602   2.161   1.782   1.558
  528SOL    HW2 1603   2.245   1.647   1.592
  529SOL     OW 1604   2.456   0.745   0.652
  529SOL    HW1 1605   2.506   0.830   0.633
  529SOL    HW2 1606   2.368   0.747   0.604
  530SOL     OW 1607   2.523   1.790   0.953
  530SOL    HW1 1608   2.477   1.878   0.940
  530SOL    HW2 1609   2.622   1.802   0.946
  531SOL     OW 1610   2.083   1.314   1.844
  531SOL    HW1 1611   2.018   1.241   1.823
  531SOL    HW2 1612   2.087   1.328   1.942
  532SOL     OW 1613   1.941   1.240   0.653
  532SOL    HW1 1614   1.940   1.193   0.741
  532SOL    HW2 1615   2.023   1.212   0.602
  533SOL     OW 1616   2.534   1.391   1.624
  533SOL    HW1 1617   2.456   1.341   1.662
  533SOL    HW2 1618   2.531   1.486   1.655
  534SOL     OW 1619   2.290   0.424   0.520
  534SOL    HW1 1620   2.320   0.352   0.458
  534SOL    HW2 1621   2.251   0.384   0.603
  535SOL     OW 1622   2.179   0.547   1.280
  535SOL    HW1 1623   2.217   0.488   1.352
  535SOL    HW2 1624   2.219   0.521   1.192
  536SOL     OW 1625   2.674   1.586   0.687
  536SOL    HW1 1626   2.706   1.596   0.593
  536SOL    HW2 1627   2.595   1.524   0.689
  537SOL     OW 1628   2.863   0.034   1.154
  537SOL    HW1 1629   2.800  -0.038   1.123
  537SOL    HW2 1630   2.956  -0.002   1.154
  538SOL     OW 1631   2.480   1.567   1.284
  538SOL    HW1 1632   2.475   1.649   1.341
  538SOL    HW2 1633   2.569   1.564   1.239
  539SOL     OW 1634   1.901   1.077   0.300
  539SOL    HW1 1635   2.000   1.066   0.291
  539SOL    HW2 1636   1.861   0.991   0.332
  540SOL     OW 1637   2.092   0.628   1.975
  540SOL    HW1 1638   1.999   0.626   2.012
  540SOL    HW2 1639   2.093   0.589   1.883
  541SOL     OW 1640   2.087   0.275   2.858
  541SOL    HW1 1641   2.122   0.258   2.950
  541SOL    HW2 1642   1.999   0.230   2.846
  542SOL     OW 1643   1.881   0.368   2.509
  542SOL    HW1 1644   1.799   0.411   2.548
  542SOL    HW2 1645   1.853   0.295   2.446
  543SOL     OW 1646   2.547   1.012   2.527
  543SOL    HW1 1647   2.616   0.996   2.597
  543SOL    HW2 1648   2.474   1.069   2.565
  544SOL     OW 1649   2.093   1.713   2.345
  544SOL    HW1 1650   2.127   1.790   2.399
  544SOL    HW2 1651   2.137   1.713   2.255
  545SOL     OW 1652   2.092   1.434   2.400
  545SOL    HW1 1653   2.066   1.530   2.400
  545SOL    HW2 1654   2.021   1.380   2.445
  546SOL     OW 1655   2.102   1.091   2.748
  546SOL    HW1 1656   2.116   1.007   2.800
  546SOL    HW2 1657   2.047   1.155   2.803
  547SOL     OW 1658   2.468   0.964   1.985
  547SOL    HW1 1659   2.475   1.048   1.931
  547SOL    HW2 1660   2.514   0.977   2.073
  548SOL     OW 1661   1.984   0.643   2.425
  548SOL    HW1 1662   1.939   0.555   2.442
  548SOL    HW2 1663   1.983   0.697   2.509
  549SOL     OW 1664   1.889   1.596   1.979
  549SOL    HW1 1665   1.870   1.500   2.000
  549SOL    HW2 1666   1.856   1.654   2.054
  550SOL     OW 1667   2.475   1.365   2.588
  550SOL    HW1 1668   2.426   1.278   2.597
  550SOL    HW2 1669   2.452   1.408   2.501
  551SOL     OW 1670   2.671   0.004   2.364
  551SOL    HW1 1671   2.711   0.095   2.355
  551SOL    HW2 1672   2.571   0.012   2.370
  552SOL     OW 1673   2.460   0.729   2.132
  552SOL    HW1 1674   2.484   0.798   2.064
  552SOL    HW2 1675   2.382   0.762   2.186
  553SOL     OW 1676   1.938   0.811   2.651
  553SOL    HW1 1677   2.037   0.799   2.660
  553SOL    HW2 1678   1.914   0.906   2.672
  554SOL     OW 1679   2.213   1.801   2.715
  554SOL    HW1 1680   2.263   1.715   2.721
  554SOL    HW2 1681   2.278   1.878   2.712
  555SOL     OW 1682   2.183   0.943   2.104
  555SOL    HW1 1683   2.265   0.982   2.062
  555SOL    HW2 1684   2.156   0.861   2.055
  556SOL     OW 1685   2.326   1.743   2.185
  556SOL    HW1 1686   2.359   1.782   2.271
  556SOL    HW2 1687   2.402   1.736   2.120
  557SOL     OW 1688   2.244   0.700   2.342
  557SOL    HW1 1689   2.289   0.610   2.339
  557SOL    HW2 1690   2.150   0.689   2.375
  558SOL     OW 1691   2.476   0.122   1.979
  558SOL    HW1 1692   2.574   0.100   1.986
  558SOL    HW2 1693   2.445   0.105   1.886
  559SOL     OW 1694   2.401   0.064   2.374
  559SOL    HW1 1695   2.320   0.065   2.432
  559SOL    HW2 1696   2.404   0.147   2.319
  560SOL     OW 1697   2.159   0.035   2.033
  560SOL    HW1 1698   2.208   0.119   2.012
  560SOL    HW2 1699   2.221  -0.030   2.078
  561SOL     OW 1700   2.321   1.152   2.603
  561SOL    HW1 1701   2.250   1.125   2.668
  561SOL    HW2 1702   2.295   1.124   2.510
  562SOL     OW 1703   2.350   1.385   2.036
  562SOL    HW1 1704   2.263   1.370   2.083
  562SOL    HW2 1705   2.333   1.411   1.941
  563SOL     OW 1706   2.389   0.256   2.190
  563SOL    HW1 1707   2.416   0.197   2.115
  563SOL    HW2 1708   2.389   0.351   2.159
  564SOL     OW 1709   2.229   1.100   2.363
  564SOL    HW1 1710   2.222   1.183   2.307
  564SOL    HW2 1711   2.233   1.020   2.303
  565SOL     OW 1712   2.169   0.063   2.480
  565SOL    HW1 1713   2.158   0.157   2.513
  565SOL    HW2 1714   2.164   0.000   2.557
  566SOL     OW 1715   2.930   1.333   2.711
  566SOL    HW1 1716   2.937   1.249   2.656
  566SOL    HW2 1717   2.992   1.402   2.675
  567SOL     OW 1718   1.870   1.326   2.062
  567SOL    HW1 1719   1.777   1.347   2.031
  567SOL    HW2 1720   1.880   1.227   2.075
  568SOL     OW 1721   2.677   0.572   2.187
  568SOL    HW1 1722   2.684   0.483   2.141
  568SOL    HW2 1723   2.583   0.606   2.179
  569SOL     OW 1724   2.335   0.500   2.053
  569SOL    HW1 1725   2.396   0.580   2.057
  569SOL    HW2 1726   2.240   0.531   2.060
  570SOL     OW 1727   2.534   1.616   2.016
  570SOL    HW1 1728   2.543   1.626   1.917
  570SOL    HW2 1729   2.494   1.527   2.037
  571SOL     OW 1730   2.125   0.326   2.582
  571SOL    HW1 1731   2.046   0.377   2.548
  571SOL    HW2 1732   2.116   0.311   2.680
  572SOL     OW 1733   2.452   1.487   2.353
  572SOL    HW1 1734   2.494   1.429   2.283
  572SOL    HW2 1735   2.408   1.566   2.309
  573SOL     OW 1736   2.117   1.348   2.152
  573SOL    HW1 1737   2.021   1.349   2.125
  573SOL    HW2 1738   2.129   1.401   2.236
  574SOL     OW 1739   1.937   0.345   1.895
  574SOL    HW1 1740   1.845   0.317   1.866
  574SOL    HW2 1741   1.968   0.422   1.839
  575SOL     OW 1742   1.934   0.166   2.180
  575SOL    HW1 1743   1.917   0.249   2.126
  575SOL    HW2 1744   2.024   0.129   2.158
  576SOL     OW 1745   2.456   0.745   2.514
  576SOL    HW1 1746   2.506   0.830   2.495
  576SOL    HW2 1747   2.368   0.747   2.466
  577SOL     OW 1748   2.523   1.790   2.815
  577SOL    HW1 1749   2.477   1.878   2.802
  577SOL    HW2 1750   2.622   1.802   2.808
  578SOL     OW 1751   1.941   1.240   2.515
  578SOL    HW1 1752   1.940   1.193   2.603
  578SOL    HW2 1753   2.023   1.212   2.464
  579SOL     OW 1754   2.290   0.424   2.382
  579SOL    HW1 1755   2.320   0.352   2.320
  579SOL    HW2 1756   2.251   0.384   2.465
  580SOL     OW 1757   2.674   1.586   2.549
  580SOL    HW1 1758   2.706   1.596   2.455
  580SOL    HW2 1759   2.595   1.524   2.551
  581SOL     OW 1760   1.901   1.077   2.162
  581SOL    HW1 1761   2.000   1.066   2.153
  581SOL    HW2 1762   1.861   0.991   2.194
  582SOL     OW 1763   2.092   2.490   0.113
  582SOL    HW1 1764   1.999   2.488   0.150
  582SOL    HW2 1765   2.093   2.451   0.021
  583SOL     OW 1766   2.087   2.137   0.996
  583SOL    HW1 1767   2.122   2.120   1.088
  583SOL    HW2 1768   1.999   2.092   0.984
  584SOL     OW 1769   1.881   2.230   0.647
  584SOL    HW1 1770   1.799   2.273   0.686
  584SOL    HW2 1771   1.853   2.157   0.584
  585SOL     OW 1772   2.712   2.660   1.823
  585SOL    HW1 1773   2.708   2.736   1.888
  585SOL    HW2 1774   2.734   2.696   1.732
  586SOL     OW 1775   2.547   2.874   0.665
  586SOL    HW1 1776   2.616   2.858   0.735
  586SOL    HW2 1777   2.474   2.931   0.703
  587SOL     OW 1778   2.300   2.254   1.499
  587SOL    HW1 1779   2.382   2.198   1.508
  587SOL    HW2 1780   2.219   2.196   1.503
  588SOL     OW 1781   1.984   2.505   0.563
  588SOL    HW1 1782   1.939   2.417   0.580
  588SOL    HW2 1783   1.983   2.559   0.647
  589SOL     OW 1784   1.975   2.599   1.597
  589SOL    HW1 1785   2.063   2.586   1.642
  589SOL    HW2 1786   1.962   2.696   1.575
  590SOL     OW 1787   2.671   1.866   0.502
  590SOL    HW1 1788   2.711   1.957   0.493
  590SOL    HW2 1789   2.571   1.874   0.508
  591SOL     OW 1790   2.179   2.113   1.801
  591SOL    HW1 1791   2.250   2.184   1.807
  591SOL    HW2 1792   2.091   2.152   1.829
  592SOL     OW 1793   2.460   2.591   0.270
  592SOL    HW1 1794   2.484   2.660   0.202
  592SOL    HW2 1795   2.382   2.624   0.324
  593SOL     OW 1796   2.412   2.058   0.885
  593SOL    HW1 1797   2.407   2.053   0.985
  593SOL    HW2 1798   2.414   2.154   0.856
  594SOL     OW 1799   2.064   2.147   1.498
  594SOL    HW1 1800   1.984   2.207   1.485
  594SOL    HW2 1801   2.054   2.098   1.584
  595SOL     OW 1802   2.244   2.562   0.480
  595SOL    HW1 1803   2.289   2.472   0.477
  595SOL    HW2 1804   2.150   2.551   0.513
  596SOL     OW 1805   2.784   2.365   0.899
  596SOL    HW1 1806   2.759   2.356   0.803
  596SOL    HW2 1807   2.832   2.283   0.930
  597SOL     OW 1808   2.401   1.926   0.512
  597SOL    HW1 1809   2.320   1.927   0.570
  597SOL    HW2 1810   2.404   2.009   0.457
  598SOL     OW 1811   2.159   1.897   0.171
  598SOL    HW1 1812   2.208   1.981   0.150
  598SOL    HW2 1813   2.221   1.832   0.216
  599SOL     OW 1814   1.940   2.418   1.386
  599SOL    HW1 1815   2.032   2.417   1.345
  599SOL    HW2 1816   1.934   2.492   1.453
  600SOL     OW 1817   2.423   2.084   1.147
  600SOL    HW1 1818   2.461   2.000   1.184
  600SOL    HW2 1819   2.335   2.103   1.191
  601SOL     OW 1820   2.389   2.118   0.328
  601SOL    HW1 1821   2.416   2.059   0.253
  601SOL    HW2 1822   2.389   2.213   0.297
  602SOL     OW 1823   2.777   1.951   1.402
  602SOL    HW1 1824   2.802   1.931   1.307
  602SOL    HW2 1825   2.849   2.007   1.444
  603SOL     OW 1826   2.272   2.675   1.251
  603SOL    HW1 1827   2.358   2.687   1.301
  603SOL    HW2 1828   2.230   2.588   1.278
  604SOL     OW 1829   2.428   2.399   0.865
  604SOL    HW1 1830   2.440   2.465   0.791
  604SOL    HW2 1831   2.474   2.433   0.948
  605SOL     OW 1832   2.366   1.912   1.740
  605SOL    HW1 1833   2.324   1.855   1.670
  605SOL    HW2 1834   2.300   1.981   1.772
  606SOL     OW 1835   2.169   2.075   1.231
  606SOL    HW1 1836   2.146   2.112   1.321
  606SOL    HW2 1837   2.139   1.980   1.225
  607SOL     OW 1838   2.594   2.496   1.064
  607SOL    HW1 1839   2.653   2.470   0.988
  607SOL    HW2 1840   2.566   2.592   1.053
  608SOL     OW 1841   2.169   1.925   0.618
  608SOL    HW1 1842   2.158   2.019   0.651
  608SOL    HW2 1843   2.164   1.862   0.695
  609SOL     OW 1844   2.181   2.672   0.949
  609SOL    HW1 1845   2.274   2.708   0.954
  609SOL    HW2 1846   2.175   2.587   1.001
  610SOL     OW 1847   2.201   2.371   1.006
  610SOL    HW1 1848   2.149   2.288   0.989
  610SOL    HW2 1849   2.278   2.376   0.942
  611SOL     OW 1850   1.902   2.406   1.114
  611SOL    HW1 1851   1.987   2.373   1.073
  611SOL    HW2 1852   1.915   2.421   1.212
  612SOL     OW 1853   2.051   2.382   1.722
  612SOL    HW1 1854   2.110   2.342   1.652
  612SOL    HW2 1855   1.993   2.453   1.681
  613SOL     OW 1856   2.533   2.326   1.269
  613SOL    HW1 1857   2.499   2.237   1.239
  613SOL    HW2 1858   2.559   2.380   1.189
  614SOL     OW 1859   2.335   2.362   0.191
  614SOL    HW1 1860   2.396   2.442   0.195
  614SOL    HW2 1861   2.240   2.393   0.198
  615SOL     OW 1862   2.125   2.188   0.720
  615SOL    HW1 1863   2.046   2.239   0.686
  615SOL    HW2 1864   2.116   2.173   0.818
  616SOL     OW 1865   1.967   2.875   1.726
  616SOL    HW1 1866   1.890   2.842   1.780
  616SOL    HW2 1867   2.052   2.845   1.768
  617SOL     OW 1868   2.534   2.065   1.489
  617SOL    HW1 1869   2.624   2.049   1.449
  617SOL    HW2 1870   2.542   2.070   1.588
  618SOL     OW 1871   1.937   2.207   0.033
  618SOL    HW1 1872   1.845   2.179   0.004
  618SOL    HW2 1873   1.968   2.284  -0.023
  619SOL     OW 1874   1.934   2.028   0.318
  619SOL    HW1 1875   1.917   2.111   0.264
  619SOL    HW2 1876   2.024   1.991   0.296
  620SOL     OW 1877   2.578   2.427   1.708
  620SOL    HW1 1878   2.597   2.492   1.782
  620SOL    HW2 1879   2.638   2.347   1.717
  621SOL     OW 1880   2.456   2.607   0.652
  621SOL    HW1 1881   2.506   2.692   0.633
  621SOL    HW2 1882   2.368   2.609   0.604
  622SOL     OW 1883   2.290   2.286   0.520
  622SOL    HW1 1884   2.320   2.214   0.458
  622SOL    HW2 1885   2.251   2.246   0.603
  623SOL     OW 1886   2.179   2.409   1.280
  623SOL    HW1 1887   2.217   2.350   1.352
  623SOL    HW2 1888   2.219   2.383   1.192
  624SOL     OW 1889   2.092   2.490   1.975
  624SOL    HW1 1890   1.999   2.488   2.012
  624SOL    HW2 1891   2.093   2.451   1.883
  625SOL     OW 1892   2.087   2.137   2.858
  625SOL    HW1 1893   2.122   2.120   2.950
  625SOL    HW2 1894   1.999   2.092   2.846
  626SOL     OW 1895   1.881   2.230   2.509
  626SOL    HW1 1896   1.799   2.273   2.548
  626SOL    HW2 1897   1.853   2.157   2.446
  627SOL     OW 1898   2.547   2.874   2.527
  627SOL    HW1 1899   2.616   2.858   2.597
  627SOL    HW2 1900   2.474   2.931   2.565
  628SOL     OW 1901   1.984   2.505   2.425
  628SOL    HW1 1902   1.939   2.417   2.442
  628SOL    HW2 1903   1.983   2.559   2.509
  629SOL     OW 1904   2.671   1.866   2.364
  629SOL    HW1 1905   2.711   1.957   2.355
  629SOL    HW2 1906   2.571   1.874   2.370
  630SOL     OW 1907   2.460   2.591   2.132
  630SOL    HW1 1908   2.484   2.660   2.064
  630SOL    HW2 1909   2.382   2.624   2.186
  631SOL     OW 1910   2.244   2.562   2.342
  631SOL    HW1 1911   2.289   2.472   2.339
  631SOL    HW2 1912   2.150   2.551   2.375
  632SOL     OW 1913   2.476   1.984   1.979
  632SOL    HW1 1914   2.574   1.962   1.986
  632SOL    HW2 1915   2.445   1.967   1.886
  633SOL     OW 1916   2.401   1.926   2.374
  633SOL    HW1 1917   2.320   1.927   2.432
  633SOL    HW2 1918   2.404   2.009   2.319
  634SOL     OW 1919   2.159   1.897   2.033
  634SOL    HW1 1920   2.208   1.981   2.012
  634SOL    HW2 1921   2.221   1.832   2.078
  635SOL     OW 1922   2.389   2.118   2.190
  635SOL    HW1 1923   2.416   2.059   2.115
  635SOL    HW2 1924   2.389   2.213   2.159
  636SOL     OW 1925   2.169   1.925   2.480
  636SOL    HW1 1926   2.158   2.019   2.513
  636SOL    HW2 1927   2.164   1.862   2.557
  637SOL     OW 1928   2.677   2.434   2.187
  637SOL    HW1 1929   2.684   2.345   2.141
  637SOL    HW2 1930   2.583   2.468   2.179
  638SOL     OW 1931   2.335   2.362   2.053
  638SOL    HW1 1932   2.396   2.442   2.057
  638SOL    HW2 1933   2.240   2.393   2.060
  639SOL     OW 1934   2.125   2.188   2.582
  639SOL    HW1 1935   2.046   2.239   2.548
  639SOL    HW2 1936   2.116   2.173   2.680
  640SOL     OW 1937   1.937   2.207   1.895
  640SOL    HW1 1938   1.845   2.179   1.866
  640SOL    HW2 1939   1.968   2.284   1.839
  641SOL     OW 1940   1.934   2.028   2.180
  641SOL    HW1 1941   1.917   2.111   2.126
  641SOL    HW2 1942   2.024   1.991   2.158
  642SOL     OW 1943   2.456   2.607   2.514
  642SOL    HW1 1944   2.506   2.692   2.495
  642SOL    HW2 1945   2.368   2.609   2.466
  643SOL     OW 1946   2.290   2.286   2.382
  643SOL    HW1 1947   2.320   2.214   2.320
  643SOL    HW2 1948   2.251   2.246   2.465
   2.70872   2.70872   2.70872
