; mobley_1838110_GMX.itp created by acpype (v: 2023.10.27) on Thu May 14 13:16:25 2026

[ atomtypes ]
;name   bond_type     mass     charge   ptype   sigma         epsilon       Amb
 c3       c3          0.00000  0.00000   A     3.39771e-01   4.51035e-01 ; 1.91  0.1078
 f        f           0.00000  0.00000   A     3.03422e-01   3.48109e-01 ; 1.70  0.0832
 cl       cl          0.00000  0.00000   A     3.46595e-01   1.10374e+00 ; 1.95  0.2638

[ moleculetype ]
;name            nrexcl
 mobley_1838110   3

[ atoms ]
;   nr  type  resi  res  atom  cgnr     charge      mass       ; qtot   bond_type
     1   c3     1   MOL    C1    1     0.491000     12.01000 ; qtot 0.491
     2   c3     1   MOL    C2    2     0.337100     12.01000 ; qtot 0.828
     3    f     1   MOL    F1    3    -0.186300     19.00000 ; qtot 0.642
     4    f     1   MOL    F2    4    -0.186300     19.00000 ; qtot 0.456
     5    f     1   MOL    F3    5    -0.161300     19.00000 ; qtot 0.294
     6   cl     1   MOL   CL1    6    -0.113400     35.45000 ; qtot 0.181
     7   cl     1   MOL   CL2    7    -0.090400     35.45000 ; qtot 0.090
     8   cl     1   MOL   CL3    8    -0.090400     35.45000 ; qtot 0.000

[ bonds ]
;   ai     aj funct   r             k
     1      2   1    1.5354e-01    1.9154e+05 ;     C1 - C2    
     1      3   1    1.3512e-01    2.7973e+05 ;     C1 - F1    
     1      4   1    1.3512e-01    2.7973e+05 ;     C1 - F2    
     1      6   1    1.8092e-01    1.3724e+05 ;     C1 - CL1   
     2      5   1    1.3512e-01    2.7973e+05 ;     C2 - F3    
     2      7   1    1.8092e-01    1.3724e+05 ;     C2 - CL2   
     2      8   1    1.8092e-01    1.3724e+05 ;     C2 - CL3   

[ pairs ]
;   ai     aj    funct
     3      5      1 ;     F1 - F3    
     3      7      1 ;     F1 - CL2   
     3      8      1 ;     F1 - CL3   
     4      5      1 ;     F2 - F3    
     4      7      1 ;     F2 - CL2   
     4      8      1 ;     F2 - CL3   
     6      5      1 ;    CL1 - F3    
     6      7      1 ;    CL1 - CL2   
     6      8      1 ;    CL1 - CL3   

[ angles ]
;   ai     aj     ak    funct   theta         cth
     1      2      5      1    1.0948e+02    6.6408e+02 ;     C1 - C2     - F3    
     1      2      7      1    1.1039e+02    5.3254e+02 ;     C1 - C2     - CL2   
     1      2      8      1    1.1039e+02    5.3254e+02 ;     C1 - C2     - CL3   
     2      1      3      1    1.0948e+02    6.6408e+02 ;     C2 - C1     - F1    
     2      1      4      1    1.0948e+02    6.6408e+02 ;     C2 - C1     - F2    
     2      1      6      1    1.1039e+02    5.3254e+02 ;     C2 - C1     - CL1   
     3      1      4      1    1.0737e+02    8.9437e+02 ;     F1 - C1     - F2    
     3      1      6      1    1.0914e+02    6.8216e+02 ;     F1 - C1     - CL1   
     4      1      6      1    1.0914e+02    6.8216e+02 ;     F2 - C1     - CL1   
     5      2      7      1    1.0914e+02    6.8216e+02 ;     F3 - C2     - CL2   
     5      2      8      1    1.0914e+02    6.8216e+02 ;     F3 - C2     - CL3   
     7      2      8      1    1.0934e+02    5.8225e+02 ;    CL2 - C2     - CL3   

[ dihedrals ] ; propers
; for gromacs 4.5 or higher, using funct 9
;    i      j      k      l   func   phase     kd      pn
     3      1      2      5      9     0.00   7.57304   2 ;     F1-    C1-    C2-    F3
     3      1      2      7      9     0.00   0.65084   3 ;     F1-    C1-    C2-   CL2
     3      1      2      8      9     0.00   0.65084   3 ;     F1-    C1-    C2-   CL3
     4      1      2      5      9     0.00   0.65084   3 ;     F2-    C1-    C2-    F3
     4      1      2      5      9     0.00   7.57304   2 ;     F2-    C1-    C2-    F3
     4      1      2      7      9     0.00   0.65084   3 ;     F2-    C1-    C2-   CL2
     4      1      2      8      9     0.00   0.65084   3 ;     F2-    C1-    C2-   CL3
     6      1      2      5      9     0.00   0.65084   3 ;    CL1-    C1-    C2-    F3
     6      1      2      7      9     0.00   5.94128   3 ;    CL1-    C1-    C2-   CL2
     6      1      2      8      9     0.00   5.94128   3 ;    CL1-    C1-    C2-   CL3
