mobley_7227357_GMX.gro created by acpype (v: 2023.10.27) on Thu May 14 14:00:46 2026
 1890
    1MOL     C1    1   1.446   1.391   1.116
    1MOL     C2    2   1.195   1.271   1.542
    1MOL     C3    3   1.424   1.420   1.264
    1MOL     C4    4   1.299   1.360   1.475
    1MOL     C5    5   1.316   1.330   1.326
    1MOL     O1    6   1.354   1.194   1.308
    1MOL     H1    7   1.522   1.459   1.075
    1MOL     H2    8   1.481   1.288   1.101
    1MOL     H3    9   1.354   1.404   1.059
    1MOL     H4   10   1.182   1.301   1.646
    1MOL     H5   11   1.098   1.280   1.492
    1MOL     H6   12   1.225   1.166   1.541
    1MOL     H7   13   1.519   1.405   1.317
    1MOL     H8   14   1.396   1.525   1.275
    1MOL     H9   15   1.395   1.346   1.527
    1MOL    H10   16   1.270   1.465   1.489
    1MOL    H11   17   1.221   1.346   1.273
    1MOL    H12   18   1.449   1.189   1.329
    2SOL     OW   19   0.230   0.628   0.113
    2SOL    HW1   20   0.137   0.626   0.150
    2SOL    HW2   21   0.231   0.589   0.021
    3SOL     OW   22   0.225   0.275   0.996
    3SOL    HW1   23   0.260   0.258   1.088
    3SOL    HW2   24   0.137   0.230   0.984
    4SOL     OW   25   0.019   0.368   0.647
    4SOL    HW1   26  -0.063   0.411   0.686
    4SOL    HW2   27  -0.009   0.295   0.584
    5SOL     OW   28   0.569   1.275   1.165
    5SOL    HW1   29   0.476   1.268   1.128
    5SOL    HW2   30   0.580   1.364   1.209
    6SOL     OW   31   1.555   1.511   0.703
    6SOL    HW1   32   1.498   1.495   0.784
    6SOL    HW2   33   1.496   1.521   0.623
    7SOL     OW   34   1.135   0.703   0.717
    7SOL    HW1   35   1.192   0.781   0.692
    7SOL    HW2   36   1.075   0.729   0.793
    8SOL     OW   37   1.755   0.607   0.231
    8SOL    HW1   38   1.743   0.594   0.132
    8SOL    HW2   39   1.725   0.526   0.280
    9SOL     OW   40   0.768   1.144   1.023
    9SOL    HW1   41   0.690   1.161   1.083
    9SOL    HW2   42   0.802   1.231   0.987
   10SOL     OW   43   0.850   0.798   1.823
   10SOL    HW1   44   0.846   0.874   1.888
   10SOL    HW2   45   0.872   0.834   1.732
   11SOL     OW   46   0.685   1.012   0.665
   11SOL    HW1   47   0.754   0.996   0.735
   11SOL    HW2   48   0.612   1.069   0.703
   12SOL     OW   49   0.686   1.161   1.803
   12SOL    HW1   50   0.746   1.240   1.817
   12SOL    HW2   51   0.600   1.192   1.762
   13SOL     OW   52   0.335   1.435   1.061
   13SOL    HW1   53   0.257   1.404   1.008
   13SOL    HW2   54   0.393   1.493   1.004
   14SOL     OW   55   0.438   0.392   1.499
   14SOL    HW1   56   0.520   0.336   1.508
   14SOL    HW2   57   0.357   0.334   1.503
   15SOL     OW   58   1.603   0.447   0.737
   15SOL    HW1   59   1.529   0.493   0.687
   15SOL    HW2   60   1.654   0.515   0.790
   16SOL     OW   61   0.231   1.713   0.483
   16SOL    HW1   62   0.265   1.790   0.537
   16SOL    HW2   63   0.275   1.713   0.393
   17SOL     OW   64   0.230   1.434   0.538
   17SOL    HW1   65   0.204   1.530   0.538
   17SOL    HW2   66   0.159   1.380   0.583
   18SOL     OW   67   0.240   1.091   0.886
   18SOL    HW1   68   0.254   1.007   0.938
   18SOL    HW2   69   0.185   1.155   0.941
   19SOL     OW   70   0.620   1.786   1.439
   19SOL    HW1   71   0.528   1.769   1.474
   19SOL    HW2   72   0.648   1.878   1.465
   20SOL     OW   73   0.606   0.964   0.123
   20SOL    HW1   74   0.613   1.048   0.069
   20SOL    HW2   75   0.652   0.977   0.211
   21SOL     OW   76   1.594   0.114   1.480
   21SOL    HW1   77   1.576   0.181   1.408
   21SOL    HW2   78   1.591   0.160   1.569
   22SOL     OW   79   0.122   0.643   0.563
   22SOL    HW1   80   0.077   0.555   0.580
   22SOL    HW2   81   0.121   0.697   0.647
   23SOL     OW   82   1.842   1.767   0.359
   23SOL    HW1   83   1.896   1.738   0.439
   23SOL    HW2   84   1.872   1.857   0.330
   24SOL     OW   85   0.027   1.596   0.117
   24SOL    HW1   86   0.008   1.500   0.138
   24SOL    HW2   87  -0.006   1.654   0.192
   25SOL     OW   88   1.689   0.922   0.612
   25SOL    HW1   89   1.784   0.893   0.620
   25SOL    HW2   90   1.681   0.987   0.537
   26SOL     OW   91   1.641   1.108   0.432
   26SOL    HW1   92   1.727   1.110   0.380
   26SOL    HW2   93   1.655   1.155   0.520
   27SOL     OW   94   0.113   0.737   1.597
   27SOL    HW1   95   0.201   0.724   1.642
   27SOL    HW2   96   0.100   0.834   1.575
   28SOL     OW   97   0.613   1.365   0.726
   28SOL    HW1   98   0.564   1.278   0.735
   28SOL    HW2   99   0.590   1.408   0.639
   29SOL     OW  100   0.809   0.004   0.502
   29SOL    HW1  101   0.849   0.095   0.493
   29SOL    HW2  102   0.709   0.012   0.508
   30SOL     OW  103   0.197   0.976   1.264
   30SOL    HW1  104   0.286   0.931   1.250
   30SOL    HW2  105   0.124   0.911   1.245
   31SOL     OW  106   1.525   0.999   0.190
   31SOL    HW1  107   1.462   0.923   0.203
   31SOL    HW2  108   1.573   1.017   0.276
   32SOL     OW  109   1.187   1.792   1.616
   32SOL    HW1  110   1.211   1.852   1.540
   32SOL    HW2  111   1.194   1.697   1.586
   33SOL     OW  112   0.317   0.251   1.801
   33SOL    HW1  113   0.388   0.322   1.807
   33SOL    HW2  114   0.229   0.290   1.829
   34SOL     OW  115   1.667   1.714   0.572
   34SOL    HW1  116   1.626   1.691   0.484
   34SOL    HW2  117   1.649   1.640   0.637
   35SOL     OW  118   0.598   0.729   0.270
   35SOL    HW1  119   0.622   0.798   0.202
   35SOL    HW2  120   0.520   0.762   0.324
   36SOL     OW  121   1.281   0.345   0.944
   36SOL    HW1  122   1.195   0.295   0.931
   36SOL    HW2  123   1.343   0.291   1.000
   37SOL     OW  124   1.576   1.662   0.307
   37SOL    HW1  125   1.665   1.708   0.310
   37SOL    HW2  126   1.555   1.638   0.212
   38SOL     OW  127   0.807   0.605   1.465
   38SOL    HW1  128   0.760   0.602   1.554
   38SOL    HW2  129   0.756   0.550   1.399
   39SOL     OW  130   1.394   0.469   1.674
   39SOL    HW1  131   1.374   0.512   1.762
   39SOL    HW2  132   1.472   0.407   1.683
   40SOL     OW  133   0.973   0.890   1.572
   40SOL    HW1  134   1.019   0.806   1.543
   40SOL    HW2  135   0.917   0.924   1.497
   41SOL     OW  136   0.991   0.410   1.242
   41SOL    HW1  137   0.914   0.444   1.296
   41SOL    HW2  138   0.957   0.359   1.163
   42SOL     OW  139   1.041   0.701   0.429
   42SOL    HW1  140   1.067   0.697   0.525
   42SOL    HW2  141   0.956   0.650   0.415
   43SOL     OW  142   0.076   0.811   0.789
   43SOL    HW1  143   0.175   0.799   0.798
   43SOL    HW2  144   0.052   0.906   0.810
   44SOL     OW  145   0.130   1.821   1.571
   44SOL    HW1  146   0.120   1.806   1.670
   44SOL    HW2  147   0.044   1.857   1.535
   45SOL     OW  148   0.865   0.348   0.195
   45SOL    HW1  149   0.924   0.411   0.146
   45SOL    HW2  150   0.884   0.254   0.166
   46SOL     OW  151   1.719   0.585   1.831
   46SOL    HW1  152   1.693   0.674   1.795
   46SOL    HW2  153   1.717   0.517   1.758
   47SOL     OW  154   1.362   1.144   0.545
   47SOL    HW1  155   1.445   1.115   0.497
   47SOL    HW2  156   1.313   1.211   0.489
   48SOL     OW  157   0.550   0.196   0.885
   48SOL    HW1  158   0.545   0.191   0.985
   48SOL    HW2  159   0.552   0.292   0.856
   49SOL     OW  160   1.008   1.456   0.477
   49SOL    HW1  161   0.962   1.528   0.425
   49SOL    HW2  162   1.004   1.476   0.575
   50SOL     OW  163   0.351   1.801   0.853
   50SOL    HW1  164   0.401   1.715   0.859
   50SOL    HW2  165   0.416   1.878   0.850
   51SOL     OW  166   1.795   1.066   0.873
   51SOL    HW1  167   1.733   1.051   0.797
   51SOL    HW2  168   1.743   1.077   0.958
   52SOL     OW  169   0.321   0.943   0.242
   52SOL    HW1  170   0.403   0.982   0.200
   52SOL    HW2  171   0.294   0.861   0.193
   53SOL     OW  172   1.458   0.735   0.728
   53SOL    HW1  173   1.453   0.670   0.803
   53SOL    HW2  174   1.538   0.794   0.741
   54SOL     OW  175   0.461   1.266   1.727
   54SOL    HW1  176   0.411   1.267   1.641
   54SOL    HW2  177   0.398   1.248   1.803
   55SOL     OW  178   1.111   1.776   0.237
   55SOL    HW1  179   1.051   1.714   0.287
   55SOL    HW2  180   1.142   1.732   0.152
   56SOL     OW  181   0.202   0.285   1.498
   56SOL    HW1  182   0.122   0.345   1.485
   56SOL    HW2  183   0.192   0.236   1.584
   57SOL     OW  184   1.632   1.377   0.081
   57SOL    HW1  185   1.600   1.471   0.071
   57SOL    HW2  186   1.556   1.314   0.069
   58SOL     OW  187   0.464   1.743   0.323
   58SOL    HW1  188   0.497   1.782   0.409
   58SOL    HW2  189   0.540   1.736   0.258
   59SOL     OW  190   1.400   0.107   0.426
   59SOL    HW1  191   1.376   0.070   0.336
   59SOL    HW2  192   1.499   0.123   0.430
   60SOL     OW  193   0.249   1.785   1.241
   60SOL    HW1  194   0.306   1.720   1.291
   60SOL    HW2  195   0.233   1.752   1.148
   61SOL     OW  196   0.940   1.698   0.904
   61SOL    HW1  197   1.020   1.641   0.925
   61SOL    HW2  198   0.891   1.658   0.827
   62SOL     OW  199   0.382   0.700   0.480
   62SOL    HW1  200   0.427   0.610   0.477
   62SOL    HW2  201   0.288   0.689   0.513
   63SOL     OW  202   1.547   0.222   1.729
   63SOL    HW1  203   1.542   0.259   1.821
   63SOL    HW2  204   1.475   0.153   1.717
   64SOL     OW  205   0.614   0.122   0.117
   64SOL    HW1  206   0.712   0.100   0.124
   64SOL    HW2  207   0.583   0.105   0.024
   65SOL     OW  208   0.781   0.264   1.749
   65SOL    HW1  209   0.848   0.203   1.792
   65SOL    HW2  210   0.708   0.283   1.814
   66SOL     OW  211   0.888   1.514   1.195
   66SOL    HW1  212   0.865   1.489   1.101
   66SOL    HW2  213   0.949   1.445   1.234
   67SOL     OW  214   1.351   0.590   1.433
   67SOL    HW1  215   1.379   0.547   1.518
   67SOL    HW2  216   1.376   0.686   1.434
   68SOL     OW  217   0.803   1.402   0.924
   68SOL    HW1  218   0.893   1.416   0.882
   68SOL    HW2  219   0.732   1.404   0.853
   69SOL     OW  220   0.922   0.503   0.899
   69SOL    HW1  221   0.897   0.494   0.803
   69SOL    HW2  222   0.970   0.421   0.930
   70SOL     OW  223   0.539   0.064   0.512
   70SOL    HW1  224   0.458   0.065   0.570
   70SOL    HW2  225   0.542   0.147   0.457
   71SOL     OW  226   1.434   1.188   0.041
   71SOL    HW1  227   1.466   1.112   0.098
   71SOL    HW2  228   1.342   1.215   0.071
   72SOL     OW  229   0.297   0.035   0.171
   72SOL    HW1  230   0.346   0.119   0.150
   72SOL    HW2  231   0.359  -0.030   0.216
   73SOL     OW  232   0.935   0.236   0.480
   73SOL    HW1  233   0.887   0.277   0.402
   73SOL    HW2  234   1.034   0.234   0.461
   74SOL     OW  235   1.076   0.683   1.464
   74SOL    HW1  236   0.996   0.622   1.467
   74SOL    HW2  237   1.157   0.630   1.440
   75SOL     OW  238   1.227   1.570   0.793
   75SOL    HW1  239   1.248   1.644   0.728
   75SOL    HW2  240   1.295   1.570   0.866
   76SOL     OW  241   0.459   1.152   0.741
   76SOL    HW1  242   0.388   1.125   0.806
   76SOL    HW2  243   0.433   1.124   0.648
   77SOL     OW  244   1.271   1.797   0.591
   77SOL    HW1  245   1.315   1.861   0.527
   77SOL    HW2  246   1.221   1.849   0.661
   78SOL     OW  247   1.032   0.549   0.016
   78SOL    HW1  248   0.991   0.631  -0.023
   78SOL    HW2  249   1.096   0.575   0.089
   79SOL     OW  250   0.078   0.556   1.386
   79SOL    HW1  251   0.170   0.555   1.345
   79SOL    HW2  252   0.072   0.630   1.453
   80SOL     OW  253   0.561   0.222   1.147
   80SOL    HW1  254   0.599   0.138   1.184
   80SOL    HW2  255   0.473   0.241   1.191
   81SOL     OW  256   0.866   0.454   0.642
   81SOL    HW1  257   0.834   0.526   0.580
   81SOL    HW2  258   0.890   0.373   0.589
   82SOL     OW  259   1.017   0.039   0.753
   82SOL    HW1  260   0.945   0.044   0.684
   82SOL    HW2  261   0.993  -0.030   0.822
   83SOL     OW  262   1.429   1.173   0.867
   83SOL    HW1  263   1.374   1.089   0.860
   83SOL    HW2  264   1.455   1.202   0.775
   84SOL     OW  265   1.466   0.590   0.992
   84SOL    HW1  266   1.436   0.495   0.999
   84SOL    HW2  267   1.539   0.606   1.058
   85SOL     OW  268   1.857   0.833   0.377
   85SOL    HW1  269   1.899   0.769   0.441
   85SOL    HW2  270   1.819   0.782   0.299
   86SOL     OW  271   0.488   1.385   0.174
   86SOL    HW1  272   0.401   1.370   0.221
   86SOL    HW2  273   0.471   1.411   0.079
   87SOL     OW  274   1.664   1.280   0.657
   87SOL    HW1  275   1.763   1.288   0.671
   87SOL    HW2  276   1.619   1.364   0.688
   88SOL     OW  277   1.390   0.575   0.078
   88SOL    HW1  278   1.336   0.554   0.159
   88SOL    HW2  279   1.481   0.534   0.087
   89SOL     OW  280   0.527   0.256   0.328
   89SOL    HW1  281   0.554   0.197   0.253
   89SOL    HW2  282   0.527   0.351   0.297
   90SOL     OW  283   1.754   1.223   1.588
   90SOL    HW1  284   1.845   1.184   1.575
   90SOL    HW2  285   1.762   1.319   1.612
   91SOL     OW  286   1.592   1.629   1.625
   91SOL    HW1  287   1.619   1.663   1.535
   91SOL    HW2  288   1.671   1.591   1.671
   92SOL     OW  289   1.111   1.195   1.100
   92SOL    HW1  290   1.071   1.239   1.181
   92SOL    HW2  291   1.070   1.232   1.017
   93SOL     OW  292   1.638   1.099   1.079
   93SOL    HW1  293   1.643   1.180   1.138
   93SOL    HW2  294   1.552   1.101   1.028
   94SOL     OW  295   0.915   0.089   1.402
   94SOL    HW1  296   0.940   0.069   1.307
   94SOL    HW2  297   0.987   0.145   1.444
   95SOL     OW  298   0.980   1.116   1.719
   95SOL    HW1  299   0.881   1.122   1.729
   95SOL    HW2  300   1.003   1.036   1.663
   96SOL     OW  301   0.705   1.050   0.368
   96SOL    HW1  302   0.691   1.057   0.467
   96SOL    HW2  303   0.789   0.999   0.350
   97SOL     OW  304   0.410   0.813   1.251
   97SOL    HW1  305   0.496   0.825   1.301
   97SOL    HW2  306   0.368   0.726   1.278
   98SOL     OW  307   1.274   0.386   1.262
   98SOL    HW1  308   1.295   0.460   1.326
   98SOL    HW2  309   1.185   0.403   1.219
   99SOL     OW  310   0.064   1.564   1.331
   99SOL    HW1  311   0.018   1.646   1.297
   99SOL    HW2  312   0.162   1.583   1.340
  100SOL     OW  313   0.367   1.100   0.501
  100SOL    HW1  314   0.360   1.183   0.445
  100SOL    HW2  315   0.371   1.020   0.441
  101SOL     OW  316   0.566   0.537   0.865
  101SOL    HW1  317   0.578   0.603   0.791
  101SOL    HW2  318   0.612   0.571   0.948
  102SOL     OW  319   1.252   1.348   0.388
  102SOL    HW1  320   1.302   1.425   0.428
  102SOL    HW2  321   1.157   1.350   0.420
  103SOL     OW  322   1.582   0.639   0.472
  103SOL    HW1  323   1.551   0.700   0.545
  103SOL    HW2  324   1.632   0.691   0.403
  104SOL     OW  325   0.354   1.510   1.329
  104SOL    HW1  326   0.333   1.466   1.242
  104SOL    HW2  327   0.451   1.536   1.332
  105SOL     OW  328   0.402   0.751   1.598
  105SOL    HW1  329   0.470   0.806   1.551
  105SOL    HW2  330   0.442   0.663   1.625
  106SOL     OW  331   1.587   0.779   1.670
  106SOL    HW1  332   1.495   0.817   1.665
  106SOL    HW2  333   1.647   0.826   1.605
  107SOL     OW  334   1.013   0.105   1.770
  107SOL    HW1  335   1.019   0.190   1.718
  107SOL    HW2  336   1.045   0.029   1.713
  108SOL     OW  337   0.504   0.050   1.740
  108SOL    HW1  338   0.462  -0.007   1.670
  108SOL    HW2  339   0.438   0.119   1.772
  109SOL     OW  340   0.573   0.870   1.029
  109SOL    HW1  341   0.617   0.959   1.020
  109SOL    HW2  342   0.510   0.870   1.106
  110SOL     OW  343   1.360   0.862   1.045
  110SOL    HW1  344   1.285   0.862   0.979
  110SOL    HW2  345   1.397   0.770   1.054
  111SOL     OW  346   1.209   0.525   0.275
  111SOL    HW1  347   1.222   0.441   0.329
  111SOL    HW2  348   1.180   0.599   0.335
  112SOL     OW  349   0.307   0.213   1.231
  112SOL    HW1  350   0.284   0.250   1.321
  112SOL    HW2  351   0.277   0.118   1.225
  113SOL     OW  352   0.037   1.310   1.282
  113SOL    HW1  353   0.090   1.261   1.350
  113SOL    HW2  354   0.059   1.408   1.287
  114SOL     OW  355   0.732   0.634   1.064
  114SOL    HW1  356   0.791   0.608   0.988
  114SOL    HW2  357   0.704   0.730   1.053
  115SOL     OW  358   1.728   0.935   1.854
  115SOL    HW1  359   1.682   0.928   1.765
  115SOL    HW2  360   1.666   0.979   1.920
  116SOL     OW  361   0.307   0.063   0.618
  116SOL    HW1  362   0.296   0.157   0.651
  116SOL    HW2  363   0.302   0.000   0.695
  117SOL     OW  364   1.622   0.367   0.374
  117SOL    HW1  365   1.624   0.291   0.438
  117SOL    HW2  366   1.574   0.444   0.414
  118SOL     OW  367   1.023   0.766   0.966
  118SOL    HW1  368   1.038   0.787   1.062
  118SOL    HW2  369   0.993   0.671   0.957
  119SOL     OW  370   0.980   1.573   1.700
  119SOL    HW1  371   0.960   1.617   1.612
  119SOL    HW2  372   1.019   1.482   1.684
  120SOL     OW  373   1.859   1.518   1.605
  120SOL    HW1  374   1.873   1.545   1.510
  120SOL    HW2  375   1.942   1.540   1.658
  121SOL     OW  376   0.350   0.898   1.804
  121SOL    HW1  377   0.426   0.942   1.852
  121SOL    HW2  378   0.385   0.851   1.722
  122SOL     OW  379   1.540   0.274   0.125
  122SOL    HW1  380   1.479   0.199   0.148
  122SOL    HW2  381   1.562   0.326   0.208
  123SOL     OW  382   1.303   0.838   0.042
  123SOL    HW1  383   1.337   0.745   0.057
  123SOL    HW2  384   1.321   0.865  -0.053
  124SOL     OW  385   1.068   1.333   0.849
  124SOL    HW1  386   1.075   1.249   0.794
  124SOL    HW2  387   1.130   1.402   0.813
  125SOL     OW  388   0.319   0.810   0.949
  125SOL    HW1  389   0.412   0.846   0.954
  125SOL    HW2  390   0.313   0.725   1.001
  126SOL     OW  391   0.339   0.509   1.006
  126SOL    HW1  392   0.287   0.426   0.989
  126SOL    HW2  393   0.416   0.514   0.942
  127SOL     OW  394   1.138   0.380   1.678
  127SOL    HW1  395   1.093   0.443   1.742
  127SOL    HW2  396   1.231   0.411   1.661
  128SOL     OW  397   1.160   0.207   1.477
  128SOL    HW1  398   1.160   0.271   1.554
  128SOL    HW2  399   1.188   0.255   1.394
  129SOL     OW  400   0.008   1.326   0.200
  129SOL    HW1  401  -0.085   1.347   0.169
  129SOL    HW2  402   0.018   1.227   0.213
  130SOL     OW  403   0.088   1.801   0.927
  130SOL    HW1  404   0.046   1.715   0.900
  130SOL    HW2  405   0.182   1.804   0.893
  131SOL     OW  406   0.504   1.568   0.910
  131SOL    HW1  407   0.570   1.642   0.919
  131SOL    HW2  408   0.548   1.489   0.868
  132SOL     OW  409   1.002   0.796   1.238
  132SOL    HW1  410   1.043   0.764   1.324
  132SOL    HW2  411   0.906   0.769   1.235
  133SOL     OW  412   0.040   0.544   1.114
  133SOL    HW1  413   0.125   0.511   1.073
  133SOL    HW2  414   0.053   0.559   1.212
  134SOL     OW  415   0.189   0.520   1.722
  134SOL    HW1  416   0.248   0.480   1.652
  134SOL    HW2  417   0.131   0.591   1.681
  135SOL     OW  418   1.369   0.950   1.660
  135SOL    HW1  419   1.408   1.039   1.680
  135SOL    HW2  420   1.379   0.930   1.563
  136SOL     OW  421   0.815   0.572   0.325
  136SOL    HW1  422   0.822   0.483   0.279
  136SOL    HW2  423   0.721   0.606   0.317
  137SOL     OW  424   1.657   0.604   1.206
  137SOL    HW1  425   1.619   0.535   1.268
  137SOL    HW2  426   1.739   0.568   1.162
  138SOL     OW  427   0.252   1.564   1.744
  138SOL    HW1  428   0.222   1.621   1.820
  138SOL    HW2  429   0.245   1.467   1.770
  139SOL     OW  430   0.671   0.464   1.269
  139SOL    HW1  431   0.637   0.375   1.239
  139SOL    HW2  432   0.697   0.518   1.189
  140SOL     OW  433   0.930   1.678   1.465
  140SOL    HW1  434   0.906   1.660   1.370
  140SOL    HW2  435   0.960   1.772   1.475
  141SOL     OW  436   0.473   0.500   0.191
  141SOL    HW1  437   0.534   0.580   0.195
  141SOL    HW2  438   0.378   0.531   0.198
  142SOL     OW  439   0.159   1.137   1.466
  142SOL    HW1  440   0.181   1.076   1.542
  142SOL    HW2  441   0.169   1.088   1.380
  143SOL     OW  442   1.302   0.855   0.309
  143SOL    HW1  443   1.216   0.824   0.351
  143SOL    HW2  444   1.298   0.841   0.210
  144SOL     OW  445   1.759   1.747   1.154
  144SOL    HW1  446   1.820   1.777   1.081
  144SOL    HW2  447   1.721   1.658   1.132
  145SOL     OW  448   1.252   1.731   1.128
  145SOL    HW1  449   1.336   1.736   1.074
  145SOL    HW2  450   1.229   1.635   1.146
  146SOL     OW  451   0.083   1.258   1.022
  146SOL    HW1  452   0.078   1.257   1.122
  146SOL    HW2  453   0.000   1.217   0.984
  147SOL     OW  454   0.688   1.662   1.716
  147SOL    HW1  455   0.632   1.743   1.725
  147SOL    HW2  456   0.740   1.666   1.630
  148SOL     OW  457   0.903   0.086   0.133
  148SOL    HW1  458   0.954   0.087   0.047
  148SOL    HW2  459   0.959   0.044   0.204
  149SOL     OW  460   1.726   0.135   0.523
  149SOL    HW1  461   1.799   0.118   0.456
  149SOL    HW2  462   1.695   0.048   0.561
  150SOL     OW  463   1.388   1.573   0.477
  150SOL    HW1  464   1.455   1.585   0.403
  150SOL    HW2  465   1.348   1.662   0.500
  151SOL     OW  466   0.130   1.794   1.851
  151SOL    HW1  467   0.089   1.720   1.904
  151SOL    HW2  468   0.194   1.845   1.909
  152SOL     OW  469   1.280   0.927   0.672
  152SOL    HW1  470   1.340   0.846   0.674
  152SOL    HW2  471   1.320   0.996   0.612
  153SOL     OW  472   0.830   1.273   1.422
  153SOL    HW1  473   0.825   1.306   1.517
  153SOL    HW2  474   0.744   1.292   1.376
  154SOL     OW  475   0.672   1.616   0.154
  154SOL    HW1  476   0.681   1.626   0.055
  154SOL    HW2  477   0.632   1.527   0.175
  155SOL     OW  478   1.650   1.720   1.394
  155SOL    HW1  479   1.703   1.730   1.310
  155SOL    HW2  480   1.623   1.810   1.428
  156SOL     OW  481   1.841   0.175   0.963
  156SOL    HW1  482   1.880   0.090   0.927
  156SOL    HW2  483   1.743   0.177   0.944
  157SOL     OW  484   0.263   0.326   0.720
  157SOL    HW1  485   0.184   0.377   0.686
  157SOL    HW2  486   0.254   0.311   0.818
  158SOL     OW  487   1.194   1.612   0.031
  158SOL    HW1  488   1.200   1.519   0.068
  158SOL    HW2  489   1.135   1.612  -0.049
  159SOL     OW  490   0.822   1.002   1.372
  159SOL    HW1  491   0.862   1.001   1.280
  159SOL    HW2  492   0.832   1.094   1.412
  160SOL     OW  493   0.916   0.910   0.291
  160SOL    HW1  494   0.979   0.948   0.223
  160SOL    HW2  495   0.956   0.827   0.330
  161SOL     OW  496   1.504   1.607   0.044
  161SOL    HW1  497   1.412   1.644   0.051
  161SOL    HW2  498   1.542   1.627  -0.046
  162SOL     OW  499   0.372   1.288   1.490
  162SOL    HW1  500   0.359   1.381   1.456
  162SOL    HW2  501   0.288   1.236   1.477
  163SOL     OW  502   1.039   1.098   0.696
  163SOL    HW1  503   0.969   1.051   0.750
  163SOL    HW2  504   1.098   1.030   0.653
  164SOL     OW  505   1.014   0.236   0.971
  164SOL    HW1  506   1.006   0.200   0.878
  164SOL    HW2  507   1.012   0.160   1.036
  165SOL     OW  508   0.590   1.487   0.491
  165SOL    HW1  509   0.632   1.429   0.421
  165SOL    HW2  510   0.546   1.566   0.447
  166SOL     OW  511   1.709   0.385   1.381
  166SOL    HW1  512   1.782   0.454   1.385
  166SOL    HW2  513   1.737   0.310   1.322
  167SOL     OW  514   0.255   1.348   0.290
  167SOL    HW1  515   0.159   1.349   0.263
  167SOL    HW2  516   0.267   1.401   0.374
  168SOL     OW  517   0.105   1.013   1.726
  168SOL    HW1  518   0.028   0.980   1.780
  168SOL    HW2  519   0.190   0.983   1.768
  169SOL     OW  520   0.672   0.203   1.489
  169SOL    HW1  521   0.762   0.187   1.449
  169SOL    HW2  522   0.680   0.208   1.588
  170SOL     OW  523   0.075   0.345   0.033
  170SOL    HW1  524  -0.017   0.317   0.004
  170SOL    HW2  525   0.106   0.422  -0.023
  171SOL     OW  526   1.440   0.856   1.398
  171SOL    HW1  527   1.383   0.908   1.335
  171SOL    HW2  528   1.536   0.868   1.374
  172SOL     OW  529   0.072   0.166   0.318
  172SOL    HW1  530   0.055   0.249   0.264
  172SOL    HW2  531   0.162   0.129   0.296
  173SOL     OW  532   1.183   1.335   0.119
  173SOL    HW1  533   1.084   1.324   0.121
  173SOL    HW2  534   1.217   1.350   0.212
  174SOL     OW  535   0.613   0.842   1.431
  174SOL    HW1  536   0.669   0.923   1.414
  174SOL    HW2  537   0.672   0.762   1.434
  175SOL     OW  538   1.493   1.767   0.959
  175SOL    HW1  539   1.526   1.831   0.890
  175SOL    HW2  540   1.559   1.761   1.034
  176SOL     OW  541   0.716   0.565   1.708
  176SOL    HW1  542   0.735   0.630   1.782
  176SOL    HW2  543   0.776   0.485   1.717
  177SOL     OW  544   1.450   1.220   1.633
  177SOL    HW1  545   1.441   1.210   1.732
  177SOL    HW2  546   1.546   1.213   1.607
  178SOL     OW  547   0.390   1.741   1.560
  178SOL    HW1  548   0.299   1.782   1.558
  178SOL    HW2  549   0.383   1.647   1.592
  179SOL     OW  550   1.674   0.883   1.254
  179SOL    HW1  551   1.647   0.794   1.217
  179SOL    HW2  552   1.675   0.951   1.181
  180SOL     OW  553   1.225   0.325   0.449
  180SOL    HW1  554   1.290   0.251   0.438
  180SOL    HW2  555   1.245   0.375   0.533
  181SOL     OW  556   0.594   0.745   0.652
  181SOL    HW1  557   0.644   0.830   0.633
  181SOL    HW2  558   0.506   0.747   0.604
  182SOL     OW  559   1.777   0.342   1.642
  182SOL    HW1  560   1.760   0.373   1.548
  182SOL    HW2  561   1.693   0.305   1.680
  183SOL     OW  562   1.730   0.934   1.517
  183SOL    HW1  563   1.768   1.025   1.532
  183SOL    HW2  564   1.722   0.917   1.418
  184SOL     OW  565   0.859   1.374   0.016
  184SOL    HW1  566   0.813   1.389   0.104
  184SOL    HW2  567   0.903   1.459  -0.014
  185SOL     OW  568   0.661   1.790   0.953
  185SOL    HW1  569   0.615   1.878   0.940
  185SOL    HW2  570   0.760   1.802   0.946
  186SOL     OW  571   0.859   0.956   0.861
  186SOL    HW1  572   0.913   0.887   0.909
  186SOL    HW2  573   0.827   1.025   0.927
  187SOL     OW  574   1.083   0.984   0.087
  187SOL    HW1  575   1.060   1.037   0.005
  187SOL    HW2  576   1.164   0.928   0.068
  188SOL     OW  577   1.861   1.569   0.851
  188SOL    HW1  578   1.790   1.557   0.781
  188SOL    HW2  579   1.862   1.490   0.911
  189SOL     OW  580   0.221   1.314   1.844
  189SOL    HW1  581   0.156   1.241   1.823
  189SOL    HW2  582   0.225   1.328   1.942
  190SOL     OW  583   0.079   1.240   0.653
  190SOL    HW1  584   0.078   1.193   0.741
  190SOL    HW2  585   0.161   1.212   0.602
  191SOL     OW  586   0.672   1.391   1.624
  191SOL    HW1  587   0.594   1.341   1.662
  191SOL    HW2  588   0.669   1.486   1.655
  192SOL     OW  589   1.824   0.192   1.227
  192SOL    HW1  590   1.820   0.102   1.271
  192SOL    HW2  591   1.827   0.181   1.128
  193SOL     OW  592   0.428   0.424   0.520
  193SOL    HW1  593   0.458   0.352   0.458
  193SOL    HW2  594   0.389   0.384   0.603
  194SOL     OW  595   0.317   0.547   1.280
  194SOL    HW1  596   0.355   0.488   1.352
  194SOL    HW2  597   0.357   0.521   1.192
  195SOL     OW  598   0.812   1.586   0.687
  195SOL    HW1  599   0.844   1.596   0.593
  195SOL    HW2  600   0.733   1.524   0.689
  196SOL     OW  601   1.424   0.214   1.112
  196SOL    HW1  602   1.476   0.149   1.167
  196SOL    HW2  603   1.375   0.277   1.173
  197SOL     OW  604   1.001   0.034   1.154
  197SOL    HW1  605   0.938  -0.038   1.123
  197SOL    HW2  606   1.094  -0.002   1.154
  198SOL     OW  607   0.770   1.330   0.301
  198SOL    HW1  608   0.724   1.243   0.318
  198SOL    HW2  609   0.861   1.327   0.342
  199SOL     OW  610   0.618   1.567   1.284
  199SOL    HW1  611   0.613   1.649   1.341
  199SOL    HW2  612   0.707   1.564   1.239
  200SOL     OW  613   1.352   0.052   0.168
  200SOL    HW1  614   1.387   0.011   0.084
  200SOL    HW2  615   1.262   0.014   0.188
  201SOL     OW  616   1.300   0.453   0.691
  201SOL    HW1  617   1.241   0.533   0.695
  201SOL    HW2  618   1.315   0.418   0.784
  202SOL     OW  619   1.593   0.221   0.882
  202SOL    HW1  620   1.509   0.220   0.936
  202SOL    HW2  621   1.595   0.304   0.826
  203SOL     OW  622   0.039   1.077   0.300
  203SOL    HW1  623   0.138   1.066   0.291
  203SOL    HW2  624  -0.001   0.991   0.332
  204SOL     OW  625   0.875   1.646   0.337
  204SOL    HW1  626   0.798   1.611   0.283
  204SOL    HW2  627   0.843   1.717   0.399
  205SOL     OW  628   0.230   0.628   1.975
  205SOL    HW1  629   0.137   0.626   2.012
  205SOL    HW2  630   0.231   0.589   1.883
  206SOL     OW  631   0.019   0.368   2.509
  206SOL    HW1  632  -0.063   0.411   2.548
  206SOL    HW2  633  -0.009   0.295   2.446
  207SOL     OW  634   1.755   0.607   2.093
  207SOL    HW1  635   1.743   0.594   1.994
  207SOL    HW2  636   1.725   0.526   2.142
  208SOL     OW  637   0.685   1.012   2.527
  208SOL    HW1  638   0.754   0.996   2.597
  208SOL    HW2  639   0.612   1.069   2.565
  209SOL     OW  640   1.603   0.447   2.599
  209SOL    HW1  641   1.529   0.493   2.549
  209SOL    HW2  642   1.654   0.515   2.652
  210SOL     OW  643   0.231   1.713   2.345
  210SOL    HW1  644   0.265   1.790   2.399
  210SOL    HW2  645   0.275   1.713   2.255
  211SOL     OW  646   0.230   1.434   2.400
  211SOL    HW1  647   0.204   1.530   2.400
  211SOL    HW2  648   0.159   1.380   2.445
  212SOL     OW  649   0.240   1.091   2.748
  212SOL    HW1  650   0.254   1.007   2.800
  212SOL    HW2  651   0.185   1.155   2.803
  213SOL     OW  652   0.606   0.964   1.985
  213SOL    HW1  653   0.613   1.048   1.931
  213SOL    HW2  654   0.652   0.977   2.073
  214SOL     OW  655   0.122   0.643   2.425
  214SOL    HW1  656   0.077   0.555   2.442
  214SOL    HW2  657   0.121   0.697   2.509
  215SOL     OW  658   1.842   1.767   2.221
  215SOL    HW1  659   1.896   1.738   2.301
  215SOL    HW2  660   1.872   1.857   2.192
  216SOL     OW  661   0.027   1.596   1.979
  216SOL    HW1  662   0.008   1.500   2.000
  216SOL    HW2  663  -0.006   1.654   2.054
  217SOL     OW  664   1.689   0.922   2.474
  217SOL    HW1  665   1.784   0.893   2.482
  217SOL    HW2  666   1.681   0.987   2.399
  218SOL     OW  667   1.641   1.108   2.294
  218SOL    HW1  668   1.727   1.110   2.242
  218SOL    HW2  669   1.655   1.155   2.382
  219SOL     OW  670   0.613   1.365   2.588
  219SOL    HW1  671   0.564   1.278   2.597
  219SOL    HW2  672   0.590   1.408   2.501
  220SOL     OW  673   0.809   0.004   2.364
  220SOL    HW1  674   0.849   0.095   2.355
  220SOL    HW2  675   0.709   0.012   2.370
  221SOL     OW  676   1.525   0.999   2.052
  221SOL    HW1  677   1.462   0.923   2.065
  221SOL    HW2  678   1.573   1.017   2.138
  222SOL     OW  679   1.667   1.714   2.434
  222SOL    HW1  680   1.626   1.691   2.346
  222SOL    HW2  681   1.649   1.640   2.499
  223SOL     OW  682   0.598   0.729   2.132
  223SOL    HW1  683   0.622   0.798   2.064
  223SOL    HW2  684   0.520   0.762   2.186
  224SOL     OW  685   1.281   0.345   2.806
  224SOL    HW1  686   1.195   0.295   2.793
  224SOL    HW2  687   1.343   0.291   2.862
  225SOL     OW  688   1.576   1.662   2.169
  225SOL    HW1  689   1.665   1.708   2.172
  225SOL    HW2  690   1.555   1.638   2.074
  226SOL     OW  691   1.041   0.701   2.291
  226SOL    HW1  692   1.067   0.697   2.387
  226SOL    HW2  693   0.956   0.650   2.277
  227SOL     OW  694   0.076   0.811   2.651
  227SOL    HW1  695   0.175   0.799   2.660
  227SOL    HW2  696   0.052   0.906   2.672
  228SOL     OW  697   0.865   0.348   2.057
  228SOL    HW1  698   0.924   0.411   2.008
  228SOL    HW2  699   0.884   0.254   2.028
  229SOL     OW  700   1.362   1.144   2.407
  229SOL    HW1  701   1.445   1.115   2.359
  229SOL    HW2  702   1.313   1.211   2.351
  230SOL     OW  703   1.008   1.456   2.339
  230SOL    HW1  704   0.962   1.528   2.287
  230SOL    HW2  705   1.004   1.476   2.437
  231SOL     OW  706   0.351   1.801   2.715
  231SOL    HW1  707   0.401   1.715   2.721
  231SOL    HW2  708   0.416   1.878   2.712
  232SOL     OW  709   1.795   1.066   2.735
  232SOL    HW1  710   1.733   1.051   2.659
  232SOL    HW2  711   1.743   1.077   2.820
  233SOL     OW  712   0.321   0.943   2.104
  233SOL    HW1  713   0.403   0.982   2.062
  233SOL    HW2  714   0.294   0.861   2.055
  234SOL     OW  715   1.111   1.776   2.099
  234SOL    HW1  716   1.051   1.714   2.149
  234SOL    HW2  717   1.142   1.732   2.014
  235SOL     OW  718   1.632   1.377   1.943
  235SOL    HW1  719   1.600   1.471   1.933
  235SOL    HW2  720   1.556   1.314   1.931
  236SOL     OW  721   0.464   1.743   2.185
  236SOL    HW1  722   0.497   1.782   2.271
  236SOL    HW2  723   0.540   1.736   2.120
  237SOL     OW  724   1.400   0.107   2.288
  237SOL    HW1  725   1.376   0.070   2.198
  237SOL    HW2  726   1.499   0.123   2.292
  238SOL     OW  727   0.940   1.698   2.766
  238SOL    HW1  728   1.020   1.641   2.787
  238SOL    HW2  729   0.891   1.658   2.689
  239SOL     OW  730   0.382   0.700   2.342
  239SOL    HW1  731   0.427   0.610   2.339
  239SOL    HW2  732   0.288   0.689   2.375
  240SOL     OW  733   0.614   0.122   1.979
  240SOL    HW1  734   0.712   0.100   1.986
  240SOL    HW2  735   0.583   0.105   1.886
  241SOL     OW  736   0.539   0.064   2.374
  241SOL    HW1  737   0.458   0.065   2.432
  241SOL    HW2  738   0.542   0.147   2.319
  242SOL     OW  739   1.434   1.188   1.903
  242SOL    HW1  740   1.466   1.112   1.960
  242SOL    HW2  741   1.342   1.215   1.933
  243SOL     OW  742   0.297   0.035   2.033
  243SOL    HW1  743   0.346   0.119   2.012
  243SOL    HW2  744   0.359  -0.030   2.078
  244SOL     OW  745   0.935   0.236   2.342
  244SOL    HW1  746   0.887   0.277   2.264
  244SOL    HW2  747   1.034   0.234   2.323
  245SOL     OW  748   0.459   1.152   2.603
  245SOL    HW1  749   0.388   1.125   2.668
  245SOL    HW2  750   0.433   1.124   2.510
  246SOL     OW  751   1.271   1.797   2.453
  246SOL    HW1  752   1.315   1.861   2.389
  246SOL    HW2  753   1.221   1.849   2.523
  247SOL     OW  754   1.032   0.549   1.878
  247SOL    HW1  755   0.991   0.631   1.839
  247SOL    HW2  756   1.096   0.575   1.951
  248SOL     OW  757   0.866   0.454   2.504
  248SOL    HW1  758   0.834   0.526   2.442
  248SOL    HW2  759   0.890   0.373   2.451
  249SOL     OW  760   1.857   0.833   2.239
  249SOL    HW1  761   1.899   0.769   2.303
  249SOL    HW2  762   1.819   0.782   2.161
  250SOL     OW  763   0.488   1.385   2.036
  250SOL    HW1  764   0.401   1.370   2.083
  250SOL    HW2  765   0.471   1.411   1.941
  251SOL     OW  766   1.664   1.280   2.519
  251SOL    HW1  767   1.763   1.288   2.533
  251SOL    HW2  768   1.619   1.364   2.550
  252SOL     OW  769   1.390   0.575   1.940
  252SOL    HW1  770   1.336   0.554   2.021
  252SOL    HW2  771   1.481   0.534   1.949
  253SOL     OW  772   0.527   0.256   2.190
  253SOL    HW1  773   0.554   0.197   2.115
  253SOL    HW2  774   0.527   0.351   2.159
  254SOL     OW  775   0.705   1.050   2.230
  254SOL    HW1  776   0.691   1.057   2.329
  254SOL    HW2  777   0.789   0.999   2.212
  255SOL     OW  778   0.367   1.100   2.363
  255SOL    HW1  779   0.360   1.183   2.307
  255SOL    HW2  780   0.371   1.020   2.303
  256SOL     OW  781   1.252   1.348   2.250
  256SOL    HW1  782   1.302   1.425   2.290
  256SOL    HW2  783   1.157   1.350   2.282
  257SOL     OW  784   1.582   0.639   2.334
  257SOL    HW1  785   1.551   0.700   2.407
  257SOL    HW2  786   1.632   0.691   2.265
  258SOL     OW  787   1.209   0.525   2.137
  258SOL    HW1  788   1.222   0.441   2.191
  258SOL    HW2  789   1.180   0.599   2.197
  259SOL     OW  790   0.307   0.063   2.480
  259SOL    HW1  791   0.296   0.157   2.513
  259SOL    HW2  792   0.302   0.000   2.557
  260SOL     OW  793   1.622   0.367   2.236
  260SOL    HW1  794   1.624   0.291   2.300
  260SOL    HW2  795   1.574   0.444   2.276
  261SOL     OW  796   1.540   0.274   1.987
  261SOL    HW1  797   1.479   0.199   2.010
  261SOL    HW2  798   1.562   0.326   2.070
  262SOL     OW  799   1.303   0.838   1.904
  262SOL    HW1  800   1.337   0.745   1.919
  262SOL    HW2  801   1.321   0.865   1.809
  263SOL     OW  802   0.008   1.326   2.062
  263SOL    HW1  803  -0.085   1.347   2.031
  263SOL    HW2  804   0.018   1.227   2.075
  264SOL     OW  805   0.040   0.544   2.976
  264SOL    HW1  806   0.125   0.511   2.935
  264SOL    HW2  807   0.053   0.559   3.074
  265SOL     OW  808   0.815   0.572   2.187
  265SOL    HW1  809   0.822   0.483   2.141
  265SOL    HW2  810   0.721   0.606   2.179
  266SOL     OW  811   0.473   0.500   2.053
  266SOL    HW1  812   0.534   0.580   2.057
  266SOL    HW2  813   0.378   0.531   2.060
  267SOL     OW  814   1.302   0.855   2.171
  267SOL    HW1  815   1.216   0.824   2.213
  267SOL    HW2  816   1.298   0.841   2.072
  268SOL     OW  817   1.726   0.135   2.385
  268SOL    HW1  818   1.799   0.118   2.318
  268SOL    HW2  819   1.695   0.048   2.423
  269SOL     OW  820   1.388   1.573   2.339
  269SOL    HW1  821   1.455   1.585   2.265
  269SOL    HW2  822   1.348   1.662   2.362
  270SOL     OW  823   0.672   1.616   2.016
  270SOL    HW1  824   0.681   1.626   1.917
  270SOL    HW2  825   0.632   1.527   2.037
  271SOL     OW  826   1.841   0.175   2.825
  271SOL    HW1  827   1.880   0.090   2.789
  271SOL    HW2  828   1.743   0.177   2.806
  272SOL     OW  829   0.263   0.326   2.582
  272SOL    HW1  830   0.184   0.377   2.548
  272SOL    HW2  831   0.254   0.311   2.680
  273SOL     OW  832   1.194   1.612   1.893
  273SOL    HW1  833   1.200   1.519   1.930
  273SOL    HW2  834   1.135   1.612   1.813
  274SOL     OW  835   0.916   0.910   2.153
  274SOL    HW1  836   0.979   0.948   2.085
  274SOL    HW2  837   0.956   0.827   2.192
  275SOL     OW  838   1.504   1.607   1.906
  275SOL    HW1  839   1.412   1.644   1.913
  275SOL    HW2  840   1.542   1.627   1.816
  276SOL     OW  841   0.590   1.487   2.353
  276SOL    HW1  842   0.632   1.429   2.283
  276SOL    HW2  843   0.546   1.566   2.309
  277SOL     OW  844   0.255   1.348   2.152
  277SOL    HW1  845   0.159   1.349   2.125
  277SOL    HW2  846   0.267   1.401   2.236
  278SOL     OW  847   0.075   0.345   1.895
  278SOL    HW1  848  -0.017   0.317   1.866
  278SOL    HW2  849   0.106   0.422   1.839
  279SOL     OW  850   0.072   0.166   2.180
  279SOL    HW1  851   0.055   0.249   2.126
  279SOL    HW2  852   0.162   0.129   2.158
  280SOL     OW  853   1.183   1.335   1.981
  280SOL    HW1  854   1.084   1.324   1.983
  280SOL    HW2  855   1.217   1.350   2.074
  281SOL     OW  856   1.225   0.325   2.311
  281SOL    HW1  857   1.290   0.251   2.300
  281SOL    HW2  858   1.245   0.375   2.395
  282SOL     OW  859   0.594   0.745   2.514
  282SOL    HW1  860   0.644   0.830   2.495
  282SOL    HW2  861   0.506   0.747   2.466
  283SOL     OW  862   0.859   1.374   1.878
  283SOL    HW1  863   0.813   1.389   1.966
  283SOL    HW2  864   0.903   1.459   1.848
  284SOL     OW  865   0.661   1.790   2.815
  284SOL    HW1  866   0.615   1.878   2.802
  284SOL    HW2  867   0.760   1.802   2.808
  285SOL     OW  868   0.859   0.956   2.723
  285SOL    HW1  869   0.913   0.887   2.771
  285SOL    HW2  870   0.827   1.025   2.789
  286SOL     OW  871   1.083   0.984   1.949
  286SOL    HW1  872   1.060   1.037   1.867
  286SOL    HW2  873   1.164   0.928   1.930
  287SOL     OW  874   0.079   1.240   2.515
  287SOL    HW1  875   0.078   1.193   2.603
  287SOL    HW2  876   0.161   1.212   2.464
  288SOL     OW  877   0.428   0.424   2.382
  288SOL    HW1  878   0.458   0.352   2.320
  288SOL    HW2  879   0.389   0.384   2.465
  289SOL     OW  880   1.705   1.487   2.966
  289SOL    HW1  881   1.612   1.462   2.939
  289SOL    HW2  882   1.731   1.437   3.048
  290SOL     OW  883   0.812   1.586   2.549
  290SOL    HW1  884   0.844   1.596   2.455
  290SOL    HW2  885   0.733   1.524   2.551
  291SOL     OW  886   0.770   1.330   2.163
  291SOL    HW1  887   0.724   1.243   2.180
  291SOL    HW2  888   0.861   1.327   2.204
  292SOL     OW  889   1.352   0.052   2.030
  292SOL    HW1  890   1.387   0.011   1.946
  292SOL    HW2  891   1.262   0.014   2.050
  293SOL     OW  892   1.300   0.453   2.553
  293SOL    HW1  893   1.241   0.533   2.557
  293SOL    HW2  894   1.315   0.418   2.646
  294SOL     OW  895   0.039   1.077   2.162
  294SOL    HW1  896   0.138   1.066   2.153
  294SOL    HW2  897  -0.001   0.991   2.194
  295SOL     OW  898   0.875   1.646   2.199
  295SOL    HW1  899   0.798   1.611   2.145
  295SOL    HW2  900   0.843   1.717   2.261
  296SOL     OW  901   0.230   2.490   0.113
  296SOL    HW1  902   0.137   2.488   0.150
  296SOL    HW2  903   0.231   2.451   0.021
  297SOL     OW  904   0.225   2.137   0.996
  297SOL    HW1  905   0.260   2.120   1.088
  297SOL    HW2  906   0.137   2.092   0.984
  298SOL     OW  907   0.019   2.230   0.647
  298SOL    HW1  908  -0.063   2.273   0.686
  298SOL    HW2  909  -0.009   2.157   0.584
  299SOL     OW  910   1.755   2.469   0.231
  299SOL    HW1  911   1.743   2.456   0.132
  299SOL    HW2  912   1.725   2.388   0.280
  300SOL     OW  913   0.850   2.660   1.823
  300SOL    HW1  914   0.846   2.736   1.888
  300SOL    HW2  915   0.872   2.696   1.732
  301SOL     OW  916   0.685   2.874   0.665
  301SOL    HW1  917   0.754   2.858   0.735
  301SOL    HW2  918   0.612   2.931   0.703
  302SOL     OW  919   0.438   2.254   1.499
  302SOL    HW1  920   0.520   2.198   1.508
  302SOL    HW2  921   0.357   2.196   1.503
  303SOL     OW  922   1.603   2.309   0.737
  303SOL    HW1  923   1.529   2.355   0.687
  303SOL    HW2  924   1.654   2.377   0.790
  304SOL     OW  925   1.594   1.976   1.480
  304SOL    HW1  926   1.576   2.043   1.408
  304SOL    HW2  927   1.591   2.022   1.569
  305SOL     OW  928   0.122   2.505   0.563
  305SOL    HW1  929   0.077   2.417   0.580
  305SOL    HW2  930   0.121   2.559   0.647
  306SOL     OW  931   0.113   2.599   1.597
  306SOL    HW1  932   0.201   2.586   1.642
  306SOL    HW2  933   0.100   2.696   1.575
  307SOL     OW  934   0.809   1.866   0.502
  307SOL    HW1  935   0.849   1.957   0.493
  307SOL    HW2  936   0.709   1.874   0.508
  308SOL     OW  937   0.317   2.113   1.801
  308SOL    HW1  938   0.388   2.184   1.807
  308SOL    HW2  939   0.229   2.152   1.829
  309SOL     OW  940   0.598   2.591   0.270
  309SOL    HW1  941   0.622   2.660   0.202
  309SOL    HW2  942   0.520   2.624   0.324
  310SOL     OW  943   1.281   2.207   0.944
  310SOL    HW1  944   1.195   2.157   0.931
  310SOL    HW2  945   1.343   2.153   1.000
  311SOL     OW  946   0.807   2.467   1.465
  311SOL    HW1  947   0.760   2.464   1.554
  311SOL    HW2  948   0.756   2.412   1.399
  312SOL     OW  949   1.394   2.331   1.674
  312SOL    HW1  950   1.374   2.374   1.762
  312SOL    HW2  951   1.472   2.269   1.683
  313SOL     OW  952   0.991   2.272   1.242
  313SOL    HW1  953   0.914   2.306   1.296
  313SOL    HW2  954   0.957   2.221   1.163
  314SOL     OW  955   1.041   2.563   0.429
  314SOL    HW1  956   1.067   2.559   0.525
  314SOL    HW2  957   0.956   2.512   0.415
  315SOL     OW  958   0.076   2.673   0.789
  315SOL    HW1  959   0.175   2.661   0.798
  315SOL    HW2  960   0.052   2.768   0.810
  316SOL     OW  961   0.865   2.210   0.195
  316SOL    HW1  962   0.924   2.273   0.146
  316SOL    HW2  963   0.884   2.116   0.166
  317SOL     OW  964   1.719   2.447   1.831
  317SOL    HW1  965   1.693   2.536   1.795
  317SOL    HW2  966   1.717   2.379   1.758
  318SOL     OW  967   0.550   2.058   0.885
  318SOL    HW1  968   0.545   2.053   0.985
  318SOL    HW2  969   0.552   2.154   0.856
  319SOL     OW  970   1.458   2.597   0.728
  319SOL    HW1  971   1.453   2.532   0.803
  319SOL    HW2  972   1.538   2.656   0.741
  320SOL     OW  973   0.202   2.147   1.498
  320SOL    HW1  974   0.122   2.207   1.485
  320SOL    HW2  975   0.192   2.098   1.584
  321SOL     OW  976   1.400   1.969   0.426
  321SOL    HW1  977   1.376   1.932   0.336
  321SOL    HW2  978   1.499   1.985   0.430
  322SOL     OW  979   0.382   2.562   0.480
  322SOL    HW1  980   0.427   2.472   0.477
  322SOL    HW2  981   0.288   2.551   0.513
  323SOL     OW  982   1.547   2.084   1.729
  323SOL    HW1  983   1.542   2.121   1.821
  323SOL    HW2  984   1.475   2.015   1.717
  324SOL     OW  985   0.781   2.126   1.749
  324SOL    HW1  986   0.848   2.065   1.792
  324SOL    HW2  987   0.708   2.145   1.814
  325SOL     OW  988   1.351   2.452   1.433
  325SOL    HW1  989   1.379   2.409   1.518
  325SOL    HW2  990   1.376   2.548   1.434
  326SOL     OW  991   0.922   2.365   0.899
  326SOL    HW1  992   0.897   2.356   0.803
  326SOL    HW2  993   0.970   2.283   0.930
  327SOL     OW  994   0.539   1.926   0.512
  327SOL    HW1  995   0.458   1.927   0.570
  327SOL    HW2  996   0.542   2.009   0.457
  328SOL     OW  997   0.297   1.897   0.171
  328SOL    HW1  998   0.346   1.981   0.150
  328SOL    HW2  999   0.359   1.832   0.216
  329SOL     OW 1000   0.935   2.098   0.480
  329SOL    HW1 1001   0.887   2.139   0.402
  329SOL    HW2 1002   1.034   2.096   0.461
  330SOL     OW 1003   1.076   2.545   1.464
  330SOL    HW1 1004   0.996   2.484   1.467
  330SOL    HW2 1005   1.157   2.492   1.440
  331SOL     OW 1006   1.032   2.411   0.016
  331SOL    HW1 1007   0.991   2.493  -0.023
  331SOL    HW2 1008   1.096   2.437   0.089
  332SOL     OW 1009   0.078   2.418   1.386
  332SOL    HW1 1010   0.170   2.417   1.345
  332SOL    HW2 1011   0.072   2.492   1.453
  333SOL     OW 1012   0.561   2.084   1.147
  333SOL    HW1 1013   0.599   2.000   1.184
  333SOL    HW2 1014   0.473   2.103   1.191
  334SOL     OW 1015   0.866   2.316   0.642
  334SOL    HW1 1016   0.834   2.388   0.580
  334SOL    HW2 1017   0.890   2.235   0.589
  335SOL     OW 1018   1.017   1.901   0.753
  335SOL    HW1 1019   0.945   1.906   0.684
  335SOL    HW2 1020   0.993   1.832   0.822
  336SOL     OW 1021   1.466   2.452   0.992
  336SOL    HW1 1022   1.436   2.357   0.999
  336SOL    HW2 1023   1.539   2.468   1.058
  337SOL     OW 1024   1.390   2.437   0.078
  337SOL    HW1 1025   1.336   2.416   0.159
  337SOL    HW2 1026   1.481   2.396   0.087
  338SOL     OW 1027   0.527   2.118   0.328
  338SOL    HW1 1028   0.554   2.059   0.253
  338SOL    HW2 1029   0.527   2.213   0.297
  339SOL     OW 1030   0.915   1.951   1.402
  339SOL    HW1 1031   0.940   1.931   1.307
  339SOL    HW2 1032   0.987   2.007   1.444
  340SOL     OW 1033   0.705   2.912   0.368
  340SOL    HW1 1034   0.691   2.919   0.467
  340SOL    HW2 1035   0.789   2.861   0.350
  341SOL     OW 1036   0.410   2.675   1.251
  341SOL    HW1 1037   0.496   2.687   1.301
  341SOL    HW2 1038   0.368   2.588   1.278
  342SOL     OW 1039   1.274   2.248   1.262
  342SOL    HW1 1040   1.295   2.322   1.326
  342SOL    HW2 1041   1.185   2.265   1.219
  343SOL     OW 1042   0.566   2.399   0.865
  343SOL    HW1 1043   0.578   2.465   0.791
  343SOL    HW2 1044   0.612   2.433   0.948
  344SOL     OW 1045   1.582   2.501   0.472
  344SOL    HW1 1046   1.551   2.562   0.545
  344SOL    HW2 1047   1.632   2.553   0.403
  345SOL     OW 1048   1.587   2.641   1.670
  345SOL    HW1 1049   1.495   2.679   1.665
  345SOL    HW2 1050   1.647   2.688   1.605
  346SOL     OW 1051   1.013   1.967   1.770
  346SOL    HW1 1052   1.019   2.052   1.718
  346SOL    HW2 1053   1.045   1.891   1.713
  347SOL     OW 1054   0.504   1.912   1.740
  347SOL    HW1 1055   0.462   1.855   1.670
  347SOL    HW2 1056   0.438   1.981   1.772
  348SOL     OW 1057   1.360   2.724   1.045
  348SOL    HW1 1058   1.285   2.724   0.979
  348SOL    HW2 1059   1.397   2.632   1.054
  349SOL     OW 1060   1.209   2.387   0.275
  349SOL    HW1 1061   1.222   2.303   0.329
  349SOL    HW2 1062   1.180   2.461   0.335
  350SOL     OW 1063   0.307   2.075   1.231
  350SOL    HW1 1064   0.284   2.112   1.321
  350SOL    HW2 1065   0.277   1.980   1.225
  351SOL     OW 1066   0.732   2.496   1.064
  351SOL    HW1 1067   0.791   2.470   0.988
  351SOL    HW2 1068   0.704   2.592   1.053
  352SOL     OW 1069   1.728   2.797   1.854
  352SOL    HW1 1070   1.682   2.790   1.765
  352SOL    HW2 1071   1.666   2.841   1.920
  353SOL     OW 1072   0.307   1.925   0.618
  353SOL    HW1 1073   0.296   2.019   0.651
  353SOL    HW2 1074   0.302   1.862   0.695
  354SOL     OW 1075   1.622   2.229   0.374
  354SOL    HW1 1076   1.624   2.153   0.438
  354SOL    HW2 1077   1.574   2.306   0.414
  355SOL     OW 1078   1.540   2.136   0.125
  355SOL    HW1 1079   1.479   2.061   0.148
  355SOL    HW2 1080   1.562   2.188   0.208
  356SOL     OW 1081   0.319   2.672   0.949
  356SOL    HW1 1082   0.412   2.708   0.954
  356SOL    HW2 1083   0.313   2.587   1.001
  357SOL     OW 1084   0.339   2.371   1.006
  357SOL    HW1 1085   0.287   2.288   0.989
  357SOL    HW2 1086   0.416   2.376   0.942
  358SOL     OW 1087   1.138   2.242   1.678
  358SOL    HW1 1088   1.093   2.305   1.742
  358SOL    HW2 1089   1.231   2.273   1.661
  359SOL     OW 1090   1.160   2.069   1.477
  359SOL    HW1 1091   1.160   2.133   1.554
  359SOL    HW2 1092   1.188   2.117   1.394
  360SOL     OW 1093   0.040   2.406   1.114
  360SOL    HW1 1094   0.125   2.373   1.073
  360SOL    HW2 1095   0.053   2.421   1.212
  361SOL     OW 1096   0.189   2.382   1.722
  361SOL    HW1 1097   0.248   2.342   1.652
  361SOL    HW2 1098   0.131   2.453   1.681
  362SOL     OW 1099   0.815   2.434   0.325
  362SOL    HW1 1100   0.822   2.345   0.279
  362SOL    HW2 1101   0.721   2.468   0.317
  363SOL     OW 1102   1.657   2.466   1.206
  363SOL    HW1 1103   1.619   2.397   1.268
  363SOL    HW2 1104   1.739   2.430   1.162
  364SOL     OW 1105   0.671   2.326   1.269
  364SOL    HW1 1106   0.637   2.237   1.239
  364SOL    HW2 1107   0.697   2.380   1.189
  365SOL     OW 1108   0.473   2.362   0.191
  365SOL    HW1 1109   0.534   2.442   0.195
  365SOL    HW2 1110   0.378   2.393   0.198
  366SOL     OW 1111   0.903   1.948   0.133
  366SOL    HW1 1112   0.954   1.949   0.047
  366SOL    HW2 1113   0.959   1.906   0.204
  367SOL     OW 1114   1.726   1.997   0.523
  367SOL    HW1 1115   1.799   1.980   0.456
  367SOL    HW2 1116   1.695   1.910   0.561
  368SOL     OW 1117   1.280   2.789   0.672
  368SOL    HW1 1118   1.340   2.708   0.674
  368SOL    HW2 1119   1.320   2.858   0.612
  369SOL     OW 1120   1.841   2.037   0.963
  369SOL    HW1 1121   1.880   1.952   0.927
  369SOL    HW2 1122   1.743   2.039   0.944
  370SOL     OW 1123   0.263   2.188   0.720
  370SOL    HW1 1124   0.184   2.239   0.686
  370SOL    HW2 1125   0.254   2.173   0.818
  371SOL     OW 1126   1.014   2.098   0.971
  371SOL    HW1 1127   1.006   2.062   0.878
  371SOL    HW2 1128   1.012   2.022   1.036
  372SOL     OW 1129   1.709   2.247   1.381
  372SOL    HW1 1130   1.782   2.316   1.385
  372SOL    HW2 1131   1.737   2.172   1.322
  373SOL     OW 1132   0.105   2.875   1.726
  373SOL    HW1 1133   0.028   2.842   1.780
  373SOL    HW2 1134   0.190   2.845   1.768
  374SOL     OW 1135   0.672   2.065   1.489
  374SOL    HW1 1136   0.762   2.049   1.449
  374SOL    HW2 1137   0.680   2.070   1.588
  375SOL     OW 1138   0.075   2.207   0.033
  375SOL    HW1 1139  -0.017   2.179   0.004
  375SOL    HW2 1140   0.106   2.284  -0.023
  376SOL     OW 1141   0.072   2.028   0.318
  376SOL    HW1 1142   0.055   2.111   0.264
  376SOL    HW2 1143   0.162   1.991   0.296
  377SOL     OW 1144   0.716   2.427   1.708
  377SOL    HW1 1145   0.735   2.492   1.782
  377SOL    HW2 1146   0.776   2.347   1.717
  378SOL     OW 1147   1.225   2.187   0.449
  378SOL    HW1 1148   1.290   2.113   0.438
  378SOL    HW2 1149   1.245   2.237   0.533
  379SOL     OW 1150   0.594   2.607   0.652
  379SOL    HW1 1151   0.644   2.692   0.633
  379SOL    HW2 1152   0.506   2.609   0.604
  380SOL     OW 1153   1.777   2.204   1.642
  380SOL    HW1 1154   1.760   2.235   1.548
  380SOL    HW2 1155   1.693   2.167   1.680
  381SOL     OW 1156   0.859   2.818   0.861
  381SOL    HW1 1157   0.913   2.749   0.909
  381SOL    HW2 1158   0.827   2.887   0.927
  382SOL     OW 1159   1.083   2.846   0.087
  382SOL    HW1 1160   1.060   2.899   0.005
  382SOL    HW2 1161   1.164   2.790   0.068
  383SOL     OW 1162   1.824   2.054   1.227
  383SOL    HW1 1163   1.820   1.964   1.271
  383SOL    HW2 1164   1.827   2.043   1.128
  384SOL     OW 1165   0.428   2.286   0.520
  384SOL    HW1 1166   0.458   2.214   0.458
  384SOL    HW2 1167   0.389   2.246   0.603
  385SOL     OW 1168   0.317   2.409   1.280
  385SOL    HW1 1169   0.355   2.350   1.352
  385SOL    HW2 1170   0.357   2.383   1.192
  386SOL     OW 1171   1.424   2.076   1.112
  386SOL    HW1 1172   1.476   2.011   1.167
  386SOL    HW2 1173   1.375   2.139   1.173
  387SOL     OW 1174   1.001   1.896   1.154
  387SOL    HW1 1175   0.938   1.824   1.123
  387SOL    HW2 1176   1.094   1.860   1.154
  388SOL     OW 1177   1.352   1.914   0.168
  388SOL    HW1 1178   1.387   1.873   0.084
  388SOL    HW2 1179   1.262   1.876   0.188
  389SOL     OW 1180   1.300   2.315   0.691
  389SOL    HW1 1181   1.241   2.395   0.695
  389SOL    HW2 1182   1.315   2.280   0.784
  390SOL     OW 1183   1.593   2.083   0.882
  390SOL    HW1 1184   1.509   2.082   0.936
  390SOL    HW2 1185   1.595   2.166   0.826
  391SOL     OW 1186   0.230   2.490   1.975
  391SOL    HW1 1187   0.137   2.488   2.012
  391SOL    HW2 1188   0.231   2.451   1.883
  392SOL     OW 1189   0.019   2.230   2.509
  392SOL    HW1 1190  -0.063   2.273   2.548
  392SOL    HW2 1191  -0.009   2.157   2.446
  393SOL     OW 1192   1.755   2.469   2.093
  393SOL    HW1 1193   1.743   2.456   1.994
  393SOL    HW2 1194   1.725   2.388   2.142
  394SOL     OW 1195   0.685   2.874   2.527
  394SOL    HW1 1196   0.754   2.858   2.597
  394SOL    HW2 1197   0.612   2.931   2.565
  395SOL     OW 1198   1.603   2.309   2.599
  395SOL    HW1 1199   1.529   2.355   2.549
  395SOL    HW2 1200   1.654   2.377   2.652
  396SOL     OW 1201   0.122   2.505   2.425
  396SOL    HW1 1202   0.077   2.417   2.442
  396SOL    HW2 1203   0.121   2.559   2.509
  397SOL     OW 1204   0.809   1.866   2.364
  397SOL    HW1 1205   0.849   1.957   2.355
  397SOL    HW2 1206   0.709   1.874   2.370
  398SOL     OW 1207   0.598   2.591   2.132
  398SOL    HW1 1208   0.622   2.660   2.064
  398SOL    HW2 1209   0.520   2.624   2.186
  399SOL     OW 1210   1.281   2.207   2.806
  399SOL    HW1 1211   1.195   2.157   2.793
  399SOL    HW2 1212   1.343   2.153   2.862
  400SOL     OW 1213   1.041   2.563   2.291
  400SOL    HW1 1214   1.067   2.559   2.387
  400SOL    HW2 1215   0.956   2.512   2.277
  401SOL     OW 1216   0.076   2.673   2.651
  401SOL    HW1 1217   0.175   2.661   2.660
  401SOL    HW2 1218   0.052   2.768   2.672
  402SOL     OW 1219   0.865   2.210   2.057
  402SOL    HW1 1220   0.924   2.273   2.008
  402SOL    HW2 1221   0.884   2.116   2.028
  403SOL     OW 1222   1.400   1.969   2.288
  403SOL    HW1 1223   1.376   1.932   2.198
  403SOL    HW2 1224   1.499   1.985   2.292
  404SOL     OW 1225   0.382   2.562   2.342
  404SOL    HW1 1226   0.427   2.472   2.339
  404SOL    HW2 1227   0.288   2.551   2.375
  405SOL     OW 1228   0.614   1.984   1.979
  405SOL    HW1 1229   0.712   1.962   1.986
  405SOL    HW2 1230   0.583   1.967   1.886
  406SOL     OW 1231   0.539   1.926   2.374
  406SOL    HW1 1232   0.458   1.927   2.432
  406SOL    HW2 1233   0.542   2.009   2.319
  407SOL     OW 1234   0.297   1.897   2.033
  407SOL    HW1 1235   0.346   1.981   2.012
  407SOL    HW2 1236   0.359   1.832   2.078
  408SOL     OW 1237   0.935   2.098   2.342
  408SOL    HW1 1238   0.887   2.139   2.264
  408SOL    HW2 1239   1.034   2.096   2.323
  409SOL     OW 1240   1.032   2.411   1.878
  409SOL    HW1 1241   0.991   2.493   1.839
  409SOL    HW2 1242   1.096   2.437   1.951
  410SOL     OW 1243   0.866   2.316   2.504
  410SOL    HW1 1244   0.834   2.388   2.442
  410SOL    HW2 1245   0.890   2.235   2.451
  411SOL     OW 1246   1.390   2.437   1.940
  411SOL    HW1 1247   1.336   2.416   2.021
  411SOL    HW2 1248   1.481   2.396   1.949
  412SOL     OW 1249   0.527   2.118   2.190
  412SOL    HW1 1250   0.554   2.059   2.115
  412SOL    HW2 1251   0.527   2.213   2.159
  413SOL     OW 1252   0.705   2.912   2.230
  413SOL    HW1 1253   0.691   2.919   2.329
  413SOL    HW2 1254   0.789   2.861   2.212
  414SOL     OW 1255   1.582   2.501   2.334
  414SOL    HW1 1256   1.551   2.562   2.407
  414SOL    HW2 1257   1.632   2.553   2.265
  415SOL     OW 1258   1.209   2.387   2.137
  415SOL    HW1 1259   1.222   2.303   2.191
  415SOL    HW2 1260   1.180   2.461   2.197
  416SOL     OW 1261   0.307   1.925   2.480
  416SOL    HW1 1262   0.296   2.019   2.513
  416SOL    HW2 1263   0.302   1.862   2.557
  417SOL     OW 1264   1.622   2.229   2.236
  417SOL    HW1 1265   1.624   2.153   2.300
  417SOL    HW2 1266   1.574   2.306   2.276
  418SOL     OW 1267   1.540   2.136   1.987
  418SOL    HW1 1268   1.479   2.061   2.010
  418SOL    HW2 1269   1.562   2.188   2.070
  419SOL     OW 1270   0.040   2.406   2.976
  419SOL    HW1 1271   0.125   2.373   2.935
  419SOL    HW2 1272   0.053   2.421   3.074
  420SOL     OW 1273   0.815   2.434   2.187
  420SOL    HW1 1274   0.822   2.345   2.141
  420SOL    HW2 1275   0.721   2.468   2.179
  421SOL     OW 1276   0.473   2.362   2.053
  421SOL    HW1 1277   0.534   2.442   2.057
  421SOL    HW2 1278   0.378   2.393   2.060
  422SOL     OW 1279   1.726   1.997   2.385
  422SOL    HW1 1280   1.799   1.980   2.318
  422SOL    HW2 1281   1.695   1.910   2.423
  423SOL     OW 1282   1.280   2.789   2.534
  423SOL    HW1 1283   1.340   2.708   2.536
  423SOL    HW2 1284   1.320   2.858   2.474
  424SOL     OW 1285   1.841   2.037   2.825
  424SOL    HW1 1286   1.880   1.952   2.789
  424SOL    HW2 1287   1.743   2.039   2.806
  425SOL     OW 1288   0.263   2.188   2.582
  425SOL    HW1 1289   0.184   2.239   2.548
  425SOL    HW2 1290   0.254   2.173   2.680
  426SOL     OW 1291   0.916   2.772   2.153
  426SOL    HW1 1292   0.979   2.810   2.085
  426SOL    HW2 1293   0.956   2.689   2.192
  427SOL     OW 1294   0.075   2.207   1.895
  427SOL    HW1 1295  -0.017   2.179   1.866
  427SOL    HW2 1296   0.106   2.284   1.839
  428SOL     OW 1297   0.072   2.028   2.180
  428SOL    HW1 1298   0.055   2.111   2.126
  428SOL    HW2 1299   0.162   1.991   2.158
  429SOL     OW 1300   1.225   2.187   2.311
  429SOL    HW1 1301   1.290   2.113   2.300
  429SOL    HW2 1302   1.245   2.237   2.395
  430SOL     OW 1303   0.594   2.607   2.514
  430SOL    HW1 1304   0.644   2.692   2.495
  430SOL    HW2 1305   0.506   2.609   2.466
  431SOL     OW 1306   0.428   2.286   2.382
  431SOL    HW1 1307   0.458   2.214   2.320
  431SOL    HW2 1308   0.389   2.246   2.465
  432SOL     OW 1309   1.352   1.914   2.030
  432SOL    HW1 1310   1.387   1.873   1.946
  432SOL    HW2 1311   1.262   1.876   2.050
  433SOL     OW 1312   1.300   2.315   2.553
  433SOL    HW1 1313   1.241   2.395   2.557
  433SOL    HW2 1314   1.315   2.280   2.646
  434SOL     OW 1315   2.092   0.628   0.113
  434SOL    HW1 1316   1.999   0.626   0.150
  434SOL    HW2 1317   2.093   0.589   0.021
  435SOL     OW 1318   2.087   0.275   0.996
  435SOL    HW1 1319   2.122   0.258   1.088
  435SOL    HW2 1320   1.999   0.230   0.984
  436SOL     OW 1321   1.881   0.368   0.647
  436SOL    HW1 1322   1.799   0.411   0.686
  436SOL    HW2 1323   1.853   0.295   0.584
  437SOL     OW 1324   2.431   1.275   1.165
  437SOL    HW1 1325   2.338   1.268   1.128
  437SOL    HW2 1326   2.442   1.364   1.209
  438SOL     OW 1327   2.712   0.798   1.823
  438SOL    HW1 1328   2.708   0.874   1.888
  438SOL    HW2 1329   2.734   0.834   1.732
  439SOL     OW 1330   2.547   1.012   0.665
  439SOL    HW1 1331   2.616   0.996   0.735
  439SOL    HW2 1332   2.474   1.069   0.703
  440SOL     OW 1333   2.548   1.161   1.803
  440SOL    HW1 1334   2.608   1.240   1.817
  440SOL    HW2 1335   2.462   1.192   1.762
  441SOL     OW 1336   2.197   1.435   1.061
  441SOL    HW1 1337   2.119   1.404   1.008
  441SOL    HW2 1338   2.255   1.493   1.004
  442SOL     OW 1339   2.300   0.392   1.499
  442SOL    HW1 1340   2.382   0.336   1.508
  442SOL    HW2 1341   2.219   0.334   1.503
  443SOL     OW 1342   2.093   1.713   0.483
  443SOL    HW1 1343   2.127   1.790   0.537
  443SOL    HW2 1344   2.137   1.713   0.393
  444SOL     OW 1345   2.092   1.434   0.538
  444SOL    HW1 1346   2.066   1.530   0.538
  444SOL    HW2 1347   2.021   1.380   0.583
  445SOL     OW 1348   2.102   1.091   0.886
  445SOL    HW1 1349   2.116   1.007   0.938
  445SOL    HW2 1350   2.047   1.155   0.941
  446SOL     OW 1351   2.482   1.786   1.439
  446SOL    HW1 1352   2.390   1.769   1.474
  446SOL    HW2 1353   2.510   1.878   1.465
  447SOL     OW 1354   2.468   0.964   0.123
  447SOL    HW1 1355   2.475   1.048   0.069
  447SOL    HW2 1356   2.514   0.977   0.211
  448SOL     OW 1357   1.984   0.643   0.563
  448SOL    HW1 1358   1.939   0.555   0.580
  448SOL    HW2 1359   1.983   0.697   0.647
  449SOL     OW 1360   1.889   1.596   0.117
  449SOL    HW1 1361   1.870   1.500   0.138
  449SOL    HW2 1362   1.856   1.654   0.192
  450SOL     OW 1363   1.975   0.737   1.597
  450SOL    HW1 1364   2.063   0.724   1.642
  450SOL    HW2 1365   1.962   0.834   1.575
  451SOL     OW 1366   2.475   1.365   0.726
  451SOL    HW1 1367   2.426   1.278   0.735
  451SOL    HW2 1368   2.452   1.408   0.639
  452SOL     OW 1369   2.671   0.004   0.502
  452SOL    HW1 1370   2.711   0.095   0.493
  452SOL    HW2 1371   2.571   0.012   0.508
  453SOL     OW 1372   2.059   0.976   1.264
  453SOL    HW1 1373   2.148   0.931   1.250
  453SOL    HW2 1374   1.986   0.911   1.245
  454SOL     OW 1375   2.179   0.251   1.801
  454SOL    HW1 1376   2.250   0.322   1.807
  454SOL    HW2 1377   2.091   0.290   1.829
  455SOL     OW 1378   2.460   0.729   0.270
  455SOL    HW1 1379   2.484   0.798   0.202
  455SOL    HW2 1380   2.382   0.762   0.324
  456SOL     OW 1381   1.938   0.811   0.789
  456SOL    HW1 1382   2.037   0.799   0.798
  456SOL    HW2 1383   1.914   0.906   0.810
  457SOL     OW 1384   1.992   1.821   1.571
  457SOL    HW1 1385   1.982   1.806   1.670
  457SOL    HW2 1386   1.906   1.857   1.535
  458SOL     OW 1387   2.412   0.196   0.885
  458SOL    HW1 1388   2.407   0.191   0.985
  458SOL    HW2 1389   2.414   0.292   0.856
  459SOL     OW 1390   2.213   1.801   0.853
  459SOL    HW1 1391   2.263   1.715   0.859
  459SOL    HW2 1392   2.278   1.878   0.850
  460SOL     OW 1393   2.183   0.943   0.242
  460SOL    HW1 1394   2.265   0.982   0.200
  460SOL    HW2 1395   2.156   0.861   0.193
  461SOL     OW 1396   2.323   1.266   1.727
  461SOL    HW1 1397   2.273   1.267   1.641
  461SOL    HW2 1398   2.260   1.248   1.803
  462SOL     OW 1399   2.064   0.285   1.498
  462SOL    HW1 1400   1.984   0.345   1.485
  462SOL    HW2 1401   2.054   0.236   1.584
  463SOL     OW 1402   2.326   1.743   0.323
  463SOL    HW1 1403   2.359   1.782   0.409
  463SOL    HW2 1404   2.402   1.736   0.258
  464SOL     OW 1405   2.111   1.785   1.241
  464SOL    HW1 1406   2.168   1.720   1.291
  464SOL    HW2 1407   2.095   1.752   1.148
  465SOL     OW 1408   2.244   0.700   0.480
  465SOL    HW1 1409   2.289   0.610   0.477
  465SOL    HW2 1410   2.150   0.689   0.513
  466SOL     OW 1411   2.476   0.122   0.117
  466SOL    HW1 1412   2.574   0.100   0.124
  466SOL    HW2 1413   2.445   0.105   0.024
  467SOL     OW 1414   2.665   1.402   0.924
  467SOL    HW1 1415   2.755   1.416   0.882
  467SOL    HW2 1416   2.594   1.404   0.853
  468SOL     OW 1417   2.784   0.503   0.899
  468SOL    HW1 1418   2.759   0.494   0.803
  468SOL    HW2 1419   2.832   0.421   0.930
  469SOL     OW 1420   2.401   0.064   0.512
  469SOL    HW1 1421   2.320   0.065   0.570
  469SOL    HW2 1422   2.404   0.147   0.457
  470SOL     OW 1423   2.159   0.035   0.171
  470SOL    HW1 1424   2.208   0.119   0.150
  470SOL    HW2 1425   2.221  -0.030   0.216
  471SOL     OW 1426   2.321   1.152   0.741
  471SOL    HW1 1427   2.250   1.125   0.806
  471SOL    HW2 1428   2.295   1.124   0.648
  472SOL     OW 1429   1.940   0.556   1.386
  472SOL    HW1 1430   2.032   0.555   1.345
  472SOL    HW2 1431   1.934   0.630   1.453
  473SOL     OW 1432   2.423   0.222   1.147
  473SOL    HW1 1433   2.461   0.138   1.184
  473SOL    HW2 1434   2.335   0.241   1.191
  474SOL     OW 1435   2.350   1.385   0.174
  474SOL    HW1 1436   2.263   1.370   0.221
  474SOL    HW2 1437   2.333   1.411   0.079
  475SOL     OW 1438   2.389   0.256   0.328
  475SOL    HW1 1439   2.416   0.197   0.253
  475SOL    HW2 1440   2.389   0.351   0.297
  476SOL     OW 1441   2.272   0.813   1.251
  476SOL    HW1 1442   2.358   0.825   1.301
  476SOL    HW2 1443   2.230   0.726   1.278
  477SOL     OW 1444   1.926   1.564   1.331
  477SOL    HW1 1445   1.880   1.646   1.297
  477SOL    HW2 1446   2.024   1.583   1.340
  478SOL     OW 1447   2.229   1.100   0.501
  478SOL    HW1 1448   2.222   1.183   0.445
  478SOL    HW2 1449   2.233   1.020   0.441
  479SOL     OW 1450   2.428   0.537   0.865
  479SOL    HW1 1451   2.440   0.603   0.791
  479SOL    HW2 1452   2.474   0.571   0.948
  480SOL     OW 1453   2.216   1.510   1.329
  480SOL    HW1 1454   2.195   1.466   1.242
  480SOL    HW2 1455   2.313   1.536   1.332
  481SOL     OW 1456   2.264   0.751   1.598
  481SOL    HW1 1457   2.332   0.806   1.551
  481SOL    HW2 1458   2.304   0.663   1.625
  482SOL     OW 1459   2.366   0.050   1.740
  482SOL    HW1 1460   2.324  -0.007   1.670
  482SOL    HW2 1461   2.300   0.119   1.772
  483SOL     OW 1462   2.435   0.870   1.029
  483SOL    HW1 1463   2.479   0.959   1.020
  483SOL    HW2 1464   2.372   0.870   1.106
  484SOL     OW 1465   2.169   0.213   1.231
  484SOL    HW1 1466   2.146   0.250   1.321
  484SOL    HW2 1467   2.139   0.118   1.225
  485SOL     OW 1468   1.899   1.310   1.282
  485SOL    HW1 1469   1.952   1.261   1.350
  485SOL    HW2 1470   1.921   1.408   1.287
  486SOL     OW 1471   2.169   0.063   0.618
  486SOL    HW1 1472   2.158   0.157   0.651
  486SOL    HW2 1473   2.164   0.000   0.695
  487SOL     OW 1474   2.212   0.898   1.804
  487SOL    HW1 1475   2.288   0.942   1.852
  487SOL    HW2 1476   2.247   0.851   1.722
  488SOL     OW 1477   2.930   1.333   0.849
  488SOL    HW1 1478   2.937   1.249   0.794
  488SOL    HW2 1479   2.992   1.402   0.813
  489SOL     OW 1480   2.181   0.810   0.949
  489SOL    HW1 1481   2.274   0.846   0.954
  489SOL    HW2 1482   2.175   0.725   1.001
  490SOL     OW 1483   2.201   0.509   1.006
  490SOL    HW1 1484   2.149   0.426   0.989
  490SOL    HW2 1485   2.278   0.514   0.942
  491SOL     OW 1486   1.870   1.326   0.200
  491SOL    HW1 1487   1.777   1.347   0.169
  491SOL    HW2 1488   1.880   1.227   0.213
  492SOL     OW 1489   1.950   1.801   0.927
  492SOL    HW1 1490   1.908   1.715   0.900
  492SOL    HW2 1491   2.044   1.804   0.893
  493SOL     OW 1492   2.366   1.568   0.910
  493SOL    HW1 1493   2.432   1.642   0.919
  493SOL    HW2 1494   2.410   1.489   0.868
  494SOL     OW 1495   1.902   0.544   1.114
  494SOL    HW1 1496   1.987   0.511   1.073
  494SOL    HW2 1497   1.915   0.559   1.212
  495SOL     OW 1498   2.051   0.520   1.722
  495SOL    HW1 1499   2.110   0.480   1.652
  495SOL    HW2 1500   1.993   0.591   1.681
  496SOL     OW 1501   2.114   1.564   1.744
  496SOL    HW1 1502   2.084   1.621   1.820
  496SOL    HW2 1503   2.107   1.467   1.770
  497SOL     OW 1504   2.533   0.464   1.269
  497SOL    HW1 1505   2.499   0.375   1.239
  497SOL    HW2 1506   2.559   0.518   1.189
  498SOL     OW 1507   2.335   0.500   0.191
  498SOL    HW1 1508   2.396   0.580   0.195
  498SOL    HW2 1509   2.240   0.531   0.198
  499SOL     OW 1510   2.021   1.137   1.466
  499SOL    HW1 1511   2.043   1.076   1.542
  499SOL    HW2 1512   2.031   1.088   1.380
  500SOL     OW 1513   1.945   1.258   1.022
  500SOL    HW1 1514   1.940   1.257   1.122
  500SOL    HW2 1515   1.862   1.217   0.984
  501SOL     OW 1516   2.550   1.662   1.716
  501SOL    HW1 1517   2.494   1.743   1.725
  501SOL    HW2 1518   2.602   1.666   1.630
  502SOL     OW 1519   1.992   1.794   1.851
  502SOL    HW1 1520   1.951   1.720   1.904
  502SOL    HW2 1521   2.056   1.845   1.909
  503SOL     OW 1522   2.125   0.326   0.720
  503SOL    HW1 1523   2.046   0.377   0.686
  503SOL    HW2 1524   2.116   0.311   0.818
  504SOL     OW 1525   2.234   1.288   1.490
  504SOL    HW1 1526   2.221   1.381   1.456
  504SOL    HW2 1527   2.150   1.236   1.477
  505SOL     OW 1528   2.901   1.098   0.696
  505SOL    HW1 1529   2.831   1.051   0.750
  505SOL    HW2 1530   2.960   1.030   0.653
  506SOL     OW 1531   2.452   1.487   0.491
  506SOL    HW1 1532   2.494   1.429   0.421
  506SOL    HW2 1533   2.408   1.566   0.447
  507SOL     OW 1534   2.117   1.348   0.290
  507SOL    HW1 1535   2.021   1.349   0.263
  507SOL    HW2 1536   2.129   1.401   0.374
  508SOL     OW 1537   1.967   1.013   1.726
  508SOL    HW1 1538   1.890   0.980   1.780
  508SOL    HW2 1539   2.052   0.983   1.768
  509SOL     OW 1540   2.534   0.203   1.489
  509SOL    HW1 1541   2.624   0.187   1.449
  509SOL    HW2 1542   2.542   0.208   1.588
  510SOL     OW 1543   1.937   0.345   0.033
  510SOL    HW1 1544   1.845   0.317   0.004
  510SOL    HW2 1545   1.968   0.422  -0.023
  511SOL     OW 1546   1.934   0.166   0.318
  511SOL    HW1 1547   1.917   0.249   0.264
  511SOL    HW2 1548   2.024   0.129   0.296
  512SOL     OW 1549   2.475   0.842   1.431
  512SOL    HW1 1550   2.531   0.923   1.414
  512SOL    HW2 1551   2.534   0.762   1.434
  513SOL     OW 1552   2.578   0.565   1.708
  513SOL    HW1 1553   2.597   0.630   1.782
  513SOL    HW2 1554   2.638   0.485   1.717
  514SOL     OW 1555   2.252   1.741   1.560
  514SOL    HW1 1556   2.161   1.782   1.558
  514SOL    HW2 1557   2.245   1.647   1.592
  515SOL     OW 1558   2.456   0.745   0.652
  515SOL    HW1 1559   2.506   0.830   0.633
  515SOL    HW2 1560   2.368   0.747   0.604
  516SOL     OW 1561   2.083   1.314   1.844
  516SOL    HW1 1562   2.018   1.241   1.823
  516SOL    HW2 1563   2.087   1.328   1.942
  517SOL     OW 1564   1.941   1.240   0.653
  517SOL    HW1 1565   1.940   1.193   0.741
  517SOL    HW2 1566   2.023   1.212   0.602
  518SOL     OW 1567   2.534   1.391   1.624
  518SOL    HW1 1568   2.456   1.341   1.662
  518SOL    HW2 1569   2.531   1.486   1.655
  519SOL     OW 1570   2.290   0.424   0.520
  519SOL    HW1 1571   2.320   0.352   0.458
  519SOL    HW2 1572   2.251   0.384   0.603
  520SOL     OW 1573   2.179   0.547   1.280
  520SOL    HW1 1574   2.217   0.488   1.352
  520SOL    HW2 1575   2.219   0.521   1.192
  521SOL     OW 1576   2.674   1.586   0.687
  521SOL    HW1 1577   2.706   1.596   0.593
  521SOL    HW2 1578   2.595   1.524   0.689
  522SOL     OW 1579   2.480   1.567   1.284
  522SOL    HW1 1580   2.475   1.649   1.341
  522SOL    HW2 1581   2.569   1.564   1.239
  523SOL     OW 1582   1.901   1.077   0.300
  523SOL    HW1 1583   2.000   1.066   0.291
  523SOL    HW2 1584   1.861   0.991   0.332
  524SOL     OW 1585   2.092   0.628   1.975
  524SOL    HW1 1586   1.999   0.626   2.012
  524SOL    HW2 1587   2.093   0.589   1.883
  525SOL     OW 1588   1.881   0.368   2.509
  525SOL    HW1 1589   1.799   0.411   2.548
  525SOL    HW2 1590   1.853   0.295   2.446
  526SOL     OW 1591   2.547   1.012   2.527
  526SOL    HW1 1592   2.616   0.996   2.597
  526SOL    HW2 1593   2.474   1.069   2.565
  527SOL     OW 1594   2.093   1.713   2.345
  527SOL    HW1 1595   2.127   1.790   2.399
  527SOL    HW2 1596   2.137   1.713   2.255
  528SOL     OW 1597   2.092   1.434   2.400
  528SOL    HW1 1598   2.066   1.530   2.400
  528SOL    HW2 1599   2.021   1.380   2.445
  529SOL     OW 1600   2.102   1.091   2.748
  529SOL    HW1 1601   2.116   1.007   2.800
  529SOL    HW2 1602   2.047   1.155   2.803
  530SOL     OW 1603   2.468   0.964   1.985
  530SOL    HW1 1604   2.475   1.048   1.931
  530SOL    HW2 1605   2.514   0.977   2.073
  531SOL     OW 1606   1.984   0.643   2.425
  531SOL    HW1 1607   1.939   0.555   2.442
  531SOL    HW2 1608   1.983   0.697   2.509
  532SOL     OW 1609   1.889   1.596   1.979
  532SOL    HW1 1610   1.870   1.500   2.000
  532SOL    HW2 1611   1.856   1.654   2.054
  533SOL     OW 1612   2.475   1.365   2.588
  533SOL    HW1 1613   2.426   1.278   2.597
  533SOL    HW2 1614   2.452   1.408   2.501
  534SOL     OW 1615   2.671   0.004   2.364
  534SOL    HW1 1616   2.711   0.095   2.355
  534SOL    HW2 1617   2.571   0.012   2.370
  535SOL     OW 1618   2.460   0.729   2.132
  535SOL    HW1 1619   2.484   0.798   2.064
  535SOL    HW2 1620   2.382   0.762   2.186
  536SOL     OW 1621   1.938   0.811   2.651
  536SOL    HW1 1622   2.037   0.799   2.660
  536SOL    HW2 1623   1.914   0.906   2.672
  537SOL     OW 1624   2.213   1.801   2.715
  537SOL    HW1 1625   2.263   1.715   2.721
  537SOL    HW2 1626   2.278   1.878   2.712
  538SOL     OW 1627   2.183   0.943   2.104
  538SOL    HW1 1628   2.265   0.982   2.062
  538SOL    HW2 1629   2.156   0.861   2.055
  539SOL     OW 1630   2.326   1.743   2.185
  539SOL    HW1 1631   2.359   1.782   2.271
  539SOL    HW2 1632   2.402   1.736   2.120
  540SOL     OW 1633   2.244   0.700   2.342
  540SOL    HW1 1634   2.289   0.610   2.339
  540SOL    HW2 1635   2.150   0.689   2.375
  541SOL     OW 1636   2.476   0.122   1.979
  541SOL    HW1 1637   2.574   0.100   1.986
  541SOL    HW2 1638   2.445   0.105   1.886
  542SOL     OW 1639   2.401   0.064   2.374
  542SOL    HW1 1640   2.320   0.065   2.432
  542SOL    HW2 1641   2.404   0.147   2.319
  543SOL     OW 1642   2.159   0.035   2.033
  543SOL    HW1 1643   2.208   0.119   2.012
  543SOL    HW2 1644   2.221  -0.030   2.078
  544SOL     OW 1645   2.321   1.152   2.603
  544SOL    HW1 1646   2.250   1.125   2.668
  544SOL    HW2 1647   2.295   1.124   2.510
  545SOL     OW 1648   2.350   1.385   2.036
  545SOL    HW1 1649   2.263   1.370   2.083
  545SOL    HW2 1650   2.333   1.411   1.941
  546SOL     OW 1651   2.389   0.256   2.190
  546SOL    HW1 1652   2.416   0.197   2.115
  546SOL    HW2 1653   2.389   0.351   2.159
  547SOL     OW 1654   2.229   1.100   2.363
  547SOL    HW1 1655   2.222   1.183   2.307
  547SOL    HW2 1656   2.233   1.020   2.303
  548SOL     OW 1657   2.169   0.063   2.480
  548SOL    HW1 1658   2.158   0.157   2.513
  548SOL    HW2 1659   2.164   0.000   2.557
  549SOL     OW 1660   2.930   1.333   2.711
  549SOL    HW1 1661   2.937   1.249   2.656
  549SOL    HW2 1662   2.992   1.402   2.675
  550SOL     OW 1663   1.870   1.326   2.062
  550SOL    HW1 1664   1.777   1.347   2.031
  550SOL    HW2 1665   1.880   1.227   2.075
  551SOL     OW 1666   2.677   0.572   2.187
  551SOL    HW1 1667   2.684   0.483   2.141
  551SOL    HW2 1668   2.583   0.606   2.179
  552SOL     OW 1669   2.335   0.500   2.053
  552SOL    HW1 1670   2.396   0.580   2.057
  552SOL    HW2 1671   2.240   0.531   2.060
  553SOL     OW 1672   2.125   0.326   2.582
  553SOL    HW1 1673   2.046   0.377   2.548
  553SOL    HW2 1674   2.116   0.311   2.680
  554SOL     OW 1675   2.901   1.098   2.558
  554SOL    HW1 1676   2.831   1.051   2.612
  554SOL    HW2 1677   2.960   1.030   2.515
  555SOL     OW 1678   2.452   1.487   2.353
  555SOL    HW1 1679   2.494   1.429   2.283
  555SOL    HW2 1680   2.408   1.566   2.309
  556SOL     OW 1681   2.117   1.348   2.152
  556SOL    HW1 1682   2.021   1.349   2.125
  556SOL    HW2 1683   2.129   1.401   2.236
  557SOL     OW 1684   1.937   0.345   1.895
  557SOL    HW1 1685   1.845   0.317   1.866
  557SOL    HW2 1686   1.968   0.422   1.839
  558SOL     OW 1687   1.934   0.166   2.180
  558SOL    HW1 1688   1.917   0.249   2.126
  558SOL    HW2 1689   2.024   0.129   2.158
  559SOL     OW 1690   2.456   0.745   2.514
  559SOL    HW1 1691   2.506   0.830   2.495
  559SOL    HW2 1692   2.368   0.747   2.466
  560SOL     OW 1693   2.523   1.790   2.815
  560SOL    HW1 1694   2.477   1.878   2.802
  560SOL    HW2 1695   2.622   1.802   2.808
  561SOL     OW 1696   1.941   1.240   2.515
  561SOL    HW1 1697   1.940   1.193   2.603
  561SOL    HW2 1698   2.023   1.212   2.464
  562SOL     OW 1699   2.290   0.424   2.382
  562SOL    HW1 1700   2.320   0.352   2.320
  562SOL    HW2 1701   2.251   0.384   2.465
  563SOL     OW 1702   2.674   1.586   2.549
  563SOL    HW1 1703   2.706   1.596   2.455
  563SOL    HW2 1704   2.595   1.524   2.551
  564SOL     OW 1705   1.901   1.077   2.162
  564SOL    HW1 1706   2.000   1.066   2.153
  564SOL    HW2 1707   1.861   0.991   2.194
  565SOL     OW 1708   2.092   2.490   0.113
  565SOL    HW1 1709   1.999   2.488   0.150
  565SOL    HW2 1710   2.093   2.451   0.021
  566SOL     OW 1711   2.087   2.137   0.996
  566SOL    HW1 1712   2.122   2.120   1.088
  566SOL    HW2 1713   1.999   2.092   0.984
  567SOL     OW 1714   1.881   2.230   0.647
  567SOL    HW1 1715   1.799   2.273   0.686
  567SOL    HW2 1716   1.853   2.157   0.584
  568SOL     OW 1717   2.712   2.660   1.823
  568SOL    HW1 1718   2.708   2.736   1.888
  568SOL    HW2 1719   2.734   2.696   1.732
  569SOL     OW 1720   2.547   2.874   0.665
  569SOL    HW1 1721   2.616   2.858   0.735
  569SOL    HW2 1722   2.474   2.931   0.703
  570SOL     OW 1723   2.300   2.254   1.499
  570SOL    HW1 1724   2.382   2.198   1.508
  570SOL    HW2 1725   2.219   2.196   1.503
  571SOL     OW 1726   1.984   2.505   0.563
  571SOL    HW1 1727   1.939   2.417   0.580
  571SOL    HW2 1728   1.983   2.559   0.647
  572SOL     OW 1729   1.975   2.599   1.597
  572SOL    HW1 1730   2.063   2.586   1.642
  572SOL    HW2 1731   1.962   2.696   1.575
  573SOL     OW 1732   2.671   1.866   0.502
  573SOL    HW1 1733   2.711   1.957   0.493
  573SOL    HW2 1734   2.571   1.874   0.508
  574SOL     OW 1735   2.179   2.113   1.801
  574SOL    HW1 1736   2.250   2.184   1.807
  574SOL    HW2 1737   2.091   2.152   1.829
  575SOL     OW 1738   2.460   2.591   0.270
  575SOL    HW1 1739   2.484   2.660   0.202
  575SOL    HW2 1740   2.382   2.624   0.324
  576SOL     OW 1741   2.412   2.058   0.885
  576SOL    HW1 1742   2.407   2.053   0.985
  576SOL    HW2 1743   2.414   2.154   0.856
  577SOL     OW 1744   2.064   2.147   1.498
  577SOL    HW1 1745   1.984   2.207   1.485
  577SOL    HW2 1746   2.054   2.098   1.584
  578SOL     OW 1747   2.244   2.562   0.480
  578SOL    HW1 1748   2.289   2.472   0.477
  578SOL    HW2 1749   2.150   2.551   0.513
  579SOL     OW 1750   2.784   2.365   0.899
  579SOL    HW1 1751   2.759   2.356   0.803
  579SOL    HW2 1752   2.832   2.283   0.930
  580SOL     OW 1753   2.401   1.926   0.512
  580SOL    HW1 1754   2.320   1.927   0.570
  580SOL    HW2 1755   2.404   2.009   0.457
  581SOL     OW 1756   2.159   1.897   0.171
  581SOL    HW1 1757   2.208   1.981   0.150
  581SOL    HW2 1758   2.221   1.832   0.216
  582SOL     OW 1759   1.940   2.418   1.386
  582SOL    HW1 1760   2.032   2.417   1.345
  582SOL    HW2 1761   1.934   2.492   1.453
  583SOL     OW 1762   2.423   2.084   1.147
  583SOL    HW1 1763   2.461   2.000   1.184
  583SOL    HW2 1764   2.335   2.103   1.191
  584SOL     OW 1765   2.389   2.118   0.328
  584SOL    HW1 1766   2.416   2.059   0.253
  584SOL    HW2 1767   2.389   2.213   0.297
  585SOL     OW 1768   2.272   2.675   1.251
  585SOL    HW1 1769   2.358   2.687   1.301
  585SOL    HW2 1770   2.230   2.588   1.278
  586SOL     OW 1771   2.428   2.399   0.865
  586SOL    HW1 1772   2.440   2.465   0.791
  586SOL    HW2 1773   2.474   2.433   0.948
  587SOL     OW 1774   2.875   1.967   1.770
  587SOL    HW1 1775   2.881   2.052   1.718
  587SOL    HW2 1776   2.907   1.891   1.713
  588SOL     OW 1777   2.366   1.912   1.740
  588SOL    HW1 1778   2.324   1.855   1.670
  588SOL    HW2 1779   2.300   1.981   1.772
  589SOL     OW 1780   2.169   2.075   1.231
  589SOL    HW1 1781   2.146   2.112   1.321
  589SOL    HW2 1782   2.139   1.980   1.225
  590SOL     OW 1783   2.169   1.925   0.618
  590SOL    HW1 1784   2.158   2.019   0.651
  590SOL    HW2 1785   2.164   1.862   0.695
  591SOL     OW 1786   2.181   2.672   0.949
  591SOL    HW1 1787   2.274   2.708   0.954
  591SOL    HW2 1788   2.175   2.587   1.001
  592SOL     OW 1789   2.201   2.371   1.006
  592SOL    HW1 1790   2.149   2.288   0.989
  592SOL    HW2 1791   2.278   2.376   0.942
  593SOL     OW 1792   2.864   2.658   1.238
  593SOL    HW1 1793   2.905   2.626   1.324
  593SOL    HW2 1794   2.768   2.631   1.235
  594SOL     OW 1795   1.902   2.406   1.114
  594SOL    HW1 1796   1.987   2.373   1.073
  594SOL    HW2 1797   1.915   2.421   1.212
  595SOL     OW 1798   2.051   2.382   1.722
  595SOL    HW1 1799   2.110   2.342   1.652
  595SOL    HW2 1800   1.993   2.453   1.681
  596SOL     OW 1801   2.533   2.326   1.269
  596SOL    HW1 1802   2.499   2.237   1.239
  596SOL    HW2 1803   2.559   2.380   1.189
  597SOL     OW 1804   2.335   2.362   0.191
  597SOL    HW1 1805   2.396   2.442   0.195
  597SOL    HW2 1806   2.240   2.393   0.198
  598SOL     OW 1807   2.125   2.188   0.720
  598SOL    HW1 1808   2.046   2.239   0.686
  598SOL    HW2 1809   2.116   2.173   0.818
  599SOL     OW 1810   1.967   2.875   1.726
  599SOL    HW1 1811   1.890   2.842   1.780
  599SOL    HW2 1812   2.052   2.845   1.768
  600SOL     OW 1813   2.534   2.065   1.489
  600SOL    HW1 1814   2.624   2.049   1.449
  600SOL    HW2 1815   2.542   2.070   1.588
  601SOL     OW 1816   1.937   2.207   0.033
  601SOL    HW1 1817   1.845   2.179   0.004
  601SOL    HW2 1818   1.968   2.284  -0.023
  602SOL     OW 1819   1.934   2.028   0.318
  602SOL    HW1 1820   1.917   2.111   0.264
  602SOL    HW2 1821   2.024   1.991   0.296
  603SOL     OW 1822   2.578   2.427   1.708
  603SOL    HW1 1823   2.597   2.492   1.782
  603SOL    HW2 1824   2.638   2.347   1.717
  604SOL     OW 1825   2.456   2.607   0.652
  604SOL    HW1 1826   2.506   2.692   0.633
  604SOL    HW2 1827   2.368   2.609   0.604
  605SOL     OW 1828   2.290   2.286   0.520
  605SOL    HW1 1829   2.320   2.214   0.458
  605SOL    HW2 1830   2.251   2.246   0.603
  606SOL     OW 1831   2.179   2.409   1.280
  606SOL    HW1 1832   2.217   2.350   1.352
  606SOL    HW2 1833   2.219   2.383   1.192
  607SOL     OW 1834   2.092   2.490   1.975
  607SOL    HW1 1835   1.999   2.488   2.012
  607SOL    HW2 1836   2.093   2.451   1.883
  608SOL     OW 1837   1.881   2.230   2.509
  608SOL    HW1 1838   1.799   2.273   2.548
  608SOL    HW2 1839   1.853   2.157   2.446
  609SOL     OW 1840   2.547   2.874   2.527
  609SOL    HW1 1841   2.616   2.858   2.597
  609SOL    HW2 1842   2.474   2.931   2.565
  610SOL     OW 1843   1.984   2.505   2.425
  610SOL    HW1 1844   1.939   2.417   2.442
  610SOL    HW2 1845   1.983   2.559   2.509
  611SOL     OW 1846   2.671   1.866   2.364
  611SOL    HW1 1847   2.711   1.957   2.355
  611SOL    HW2 1848   2.571   1.874   2.370
  612SOL     OW 1849   2.460   2.591   2.132
  612SOL    HW1 1850   2.484   2.660   2.064
  612SOL    HW2 1851   2.382   2.624   2.186
  613SOL     OW 1852   2.244   2.562   2.342
  613SOL    HW1 1853   2.289   2.472   2.339
  613SOL    HW2 1854   2.150   2.551   2.375
  614SOL     OW 1855   2.476   1.984   1.979
  614SOL    HW1 1856   2.574   1.962   1.986
  614SOL    HW2 1857   2.445   1.967   1.886
  615SOL     OW 1858   2.401   1.926   2.374
  615SOL    HW1 1859   2.320   1.927   2.432
  615SOL    HW2 1860   2.404   2.009   2.319
  616SOL     OW 1861   2.159   1.897   2.033
  616SOL    HW1 1862   2.208   1.981   2.012
  616SOL    HW2 1863   2.221   1.832   2.078
  617SOL     OW 1864   2.389   2.118   2.190
  617SOL    HW1 1865   2.416   2.059   2.115
  617SOL    HW2 1866   2.389   2.213   2.159
  618SOL     OW 1867   2.169   1.925   2.480
  618SOL    HW1 1868   2.158   2.019   2.513
  618SOL    HW2 1869   2.164   1.862   2.557
  619SOL     OW 1870   2.677   2.434   2.187
  619SOL    HW1 1871   2.684   2.345   2.141
  619SOL    HW2 1872   2.583   2.468   2.179
  620SOL     OW 1873   2.335   2.362   2.053
  620SOL    HW1 1874   2.396   2.442   2.057
  620SOL    HW2 1875   2.240   2.393   2.060
  621SOL     OW 1876   2.125   2.188   2.582
  621SOL    HW1 1877   2.046   2.239   2.548
  621SOL    HW2 1878   2.116   2.173   2.680
  622SOL     OW 1879   1.937   2.207   1.895
  622SOL    HW1 1880   1.845   2.179   1.866
  622SOL    HW2 1881   1.968   2.284   1.839
  623SOL     OW 1882   1.934   2.028   2.180
  623SOL    HW1 1883   1.917   2.111   2.126
  623SOL    HW2 1884   2.024   1.991   2.158
  624SOL     OW 1885   2.456   2.607   2.514
  624SOL    HW1 1886   2.506   2.692   2.495
  624SOL    HW2 1887   2.368   2.609   2.466
  625SOL     OW 1888   2.290   2.286   2.382
  625SOL    HW1 1889   2.320   2.214   2.320
  625SOL    HW2 1890   2.251   2.246   2.465
   2.68308   2.68308   2.68308
