; mobley_7774695_GMX.itp created by acpype (v: 2023.10.27) on Thu May 14 13:40:38 2026

[ atomtypes ]
;name   bond_type     mass     charge   ptype   sigma         epsilon       Amb
 ca       ca          0.00000  0.00000   A     3.31521e-01   4.13379e-01 ; 1.86  0.0988
 c3       c3          0.00000  0.00000   A     3.39771e-01   4.51035e-01 ; 1.91  0.1078
 nu       nu          0.00000  0.00000   A     3.27904e-01   6.46428e-01 ; 1.84  0.1545
 ha       ha          0.00000  0.00000   A     2.62548e-01   6.73624e-02 ; 1.47  0.0161
 h1       h1          0.00000  0.00000   A     2.42200e-01   8.70272e-02 ; 1.36  0.0208
 hn       hn          0.00000  0.00000   A     1.10650e-01   4.18400e-02 ; 0.62  0.0100

[ moleculetype ]
;name            nrexcl
 mobley_7774695   3

[ atoms ]
;   nr  type  resi  res  atom  cgnr     charge      mass       ; qtot   bond_type
     1   ca     1   MOL    C1    1    -0.172000     12.01000 ; qtot -0.172
     2   ca     1   MOL    C2    2    -0.095500     12.01000 ; qtot -0.267
     3   ca     1   MOL    C3    3    -0.095500     12.01000 ; qtot -0.363
     4   ca     1   MOL    C4    4    -0.187500     12.01000 ; qtot -0.550
     5   ca     1   MOL    C5    5    -0.187500     12.01000 ; qtot -0.738
     6   ca     1   MOL    C6    6     0.142600     12.01000 ; qtot -0.595
     7   c3     1   MOL    C7    7     0.175100     12.01000 ; qtot -0.420
     8   nu     1   MOL    N1    8    -0.730601     14.01000 ; qtot -1.151
     9   ha     1   MOL    H1    9     0.130000      1.00800 ; qtot -1.021
    10   ha     1   MOL    H2   10     0.128000      1.00800 ; qtot -0.893
    11   ha     1   MOL    H3   11     0.128000      1.00800 ; qtot -0.765
    12   ha     1   MOL    H4   12     0.130500      1.00800 ; qtot -0.634
    13   ha     1   MOL    H5   13     0.130500      1.00800 ; qtot -0.504
    14   h1     1   MOL    H6   14     0.036367      1.00800 ; qtot -0.468
    15   h1     1   MOL    H7   15     0.036367      1.00800 ; qtot -0.431
    16   h1     1   MOL    H8   16     0.036367      1.00800 ; qtot -0.395
    17   hn     1   MOL    H9   17     0.394800      1.00800 ; qtot 0.000

[ bonds ]
;   ai     aj funct   r             k
     1      2   1    1.3986e-01    2.9644e+05 ;     C1 - C2    
     1      3   1    1.3986e-01    2.9644e+05 ;     C1 - C3    
     1      9   1    1.0860e-01    3.0183e+05 ;     C1 - H1    
     2      4   1    1.3986e-01    2.9644e+05 ;     C2 - C4    
     2     10   1    1.0860e-01    3.0183e+05 ;     C2 - H2    
     3      5   1    1.3986e-01    2.9644e+05 ;     C3 - C5    
     3     11   1    1.0860e-01    3.0183e+05 ;     C3 - H3    
     4      6   1    1.3986e-01    2.9644e+05 ;     C4 - C6    
     4     12   1    1.0860e-01    3.0183e+05 ;     C4 - H4    
     5      6   1    1.3986e-01    2.9644e+05 ;     C5 - C6    
     5     13   1    1.0860e-01    3.0183e+05 ;     C5 - H5    
     6      8   1    1.3944e-01    2.6771e+05 ;     C6 - N1    
     7      8   1    1.4590e-01    2.1658e+05 ;     C7 - N1    
     7     14   1    1.0969e-01    2.8804e+05 ;     C7 - H6    
     7     15   1    1.0969e-01    2.8804e+05 ;     C7 - H7    
     7     16   1    1.0969e-01    2.8804e+05 ;     C7 - H8    
     8     17   1    1.0137e-01    3.9538e+05 ;     N1 - H9    

[ pairs ]
;   ai     aj    funct
     1      6      1 ;     C1 - C6    
     1     12      1 ;     C1 - H4    
     1     13      1 ;     C1 - H5    
     2      5      1 ;     C2 - C5    
     2      8      1 ;     C2 - N1    
     2     11      1 ;     C2 - H3    
     3      4      1 ;     C3 - C4    
     3      8      1 ;     C3 - N1    
     3     10      1 ;     C3 - H2    
     4      7      1 ;     C4 - C7    
     4     13      1 ;     C4 - H5    
     4     17      1 ;     C4 - H9    
     5      7      1 ;     C5 - C7    
     5     12      1 ;     C5 - H4    
     5     17      1 ;     C5 - H9    
     6     10      1 ;     C6 - H2    
     6     11      1 ;     C6 - H3    
     6     14      1 ;     C6 - H6    
     6     15      1 ;     C6 - H7    
     6     16      1 ;     C6 - H8    
     8     12      1 ;     N1 - H4    
     8     13      1 ;     N1 - H5    
     9      4      1 ;     H1 - C4    
     9      5      1 ;     H1 - C5    
     9     10      1 ;     H1 - H2    
     9     11      1 ;     H1 - H3    
    10     12      1 ;     H2 - H4    
    11     13      1 ;     H3 - H5    
    14     17      1 ;     H6 - H9    
    15     17      1 ;     H7 - H9    
    16     17      1 ;     H8 - H9    

[ angles ]
;   ai     aj     ak    funct   theta         cth
     1      2      4      1    1.2002e+02    5.3279e+02 ;     C1 - C2     - C4    
     1      2     10      1    1.1988e+02    3.7572e+02 ;     C1 - C2     - H2    
     1      3      5      1    1.2002e+02    5.3279e+02 ;     C1 - C3     - C5    
     1      3     11      1    1.1988e+02    3.7572e+02 ;     C1 - C3     - H3    
     2      1      3      1    1.2002e+02    5.3279e+02 ;     C2 - C1     - C3    
     2      1      9      1    1.1988e+02    3.7572e+02 ;     C2 - C1     - H1    
     2      4      6      1    1.2002e+02    5.3279e+02 ;     C2 - C4     - C6    
     2      4     12      1    1.1988e+02    3.7572e+02 ;     C2 - C4     - H4    
     3      1      9      1    1.1988e+02    3.7572e+02 ;     C3 - C1     - H1    
     3      5      6      1    1.2002e+02    5.3279e+02 ;     C3 - C5     - C6    
     3      5     13      1    1.1988e+02    3.7572e+02 ;     C3 - C5     - H5    
     4      2     10      1    1.1988e+02    3.7572e+02 ;     C4 - C2     - H2    
     4      6      5      1    1.2002e+02    5.3279e+02 ;     C4 - C6     - C5    
     4      6      8      1    1.2074e+02    5.6476e+02 ;     C4 - C6     - N1    
     5      3     11      1    1.1988e+02    3.7572e+02 ;     C5 - C3     - H3    
     5      6      8      1    1.2074e+02    5.6476e+02 ;     C5 - C6     - N1    
     6      4     12      1    1.1988e+02    3.7572e+02 ;     C6 - C4     - H4    
     6      5     13      1    1.1988e+02    3.7572e+02 ;     C6 - C5     - H5    
     6      8      7      1    1.2373e+02    6.3513e+02 ;     C6 - N1     - C7    
     6      8     17      1    1.1473e+02    4.8083e+02 ;     C6 - N1     - H9    
     7      8     17      1    1.1531e+02    4.6024e+02 ;     C7 - N1     - H9    
     8      7     14      1    1.0966e+02    4.0200e+02 ;     N1 - C7     - H6    
     8      7     15      1    1.0966e+02    4.0200e+02 ;     N1 - C7     - H7    
     8      7     16      1    1.0966e+02    4.0200e+02 ;     N1 - C7     - H8    
    14      7     15      1    1.0855e+02    2.9824e+02 ;     H6 - C7     - H7    
    14      7     16      1    1.0855e+02    2.9824e+02 ;     H6 - C7     - H8    
    15      7     16      1    1.0855e+02    2.9824e+02 ;     H7 - C7     - H8    

[ dihedrals ] ; propers
; for gromacs 4.5 or higher, using funct 9
;    i      j      k      l   func   phase     kd      pn
     1      2      4      6      9   180.00  15.16700   2 ;     C1-    C2-    C4-    C6
     1      2      4     12      9   180.00  15.16700   2 ;     C1-    C2-    C4-    H4
     1      3      5      6      9   180.00  15.16700   2 ;     C1-    C3-    C5-    C6
     1      3      5     13      9   180.00  15.16700   2 ;     C1-    C3-    C5-    H5
     2      1      3      5      9   180.00  15.16700   2 ;     C2-    C1-    C3-    C5
     2      1      3     11      9   180.00  15.16700   2 ;     C2-    C1-    C3-    H3
     2      4      6      5      9   180.00  15.16700   2 ;     C2-    C4-    C6-    C5
     2      4      6      8      9   180.00  15.16700   2 ;     C2-    C4-    C6-    N1
     3      1      2      4      9   180.00  15.16700   2 ;     C3-    C1-    C2-    C4
     3      1      2     10      9   180.00  15.16700   2 ;     C3-    C1-    C2-    H2
     3      5      6      4      9   180.00  15.16700   2 ;     C3-    C5-    C6-    C4
     3      5      6      8      9   180.00  15.16700   2 ;     C3-    C5-    C6-    N1
     4      6      5     13      9   180.00  15.16700   2 ;     C4-    C6-    C5-    H5
     4      6      8      7      9   180.00   1.38072   2 ;     C4-    C6-    N1-    C7
     4      6      8     17      9   180.00   4.39320   2 ;     C4-    C6-    N1-    H9
     5      6      4     12      9   180.00  15.16700   2 ;     C5-    C6-    C4-    H4
     5      6      8      7      9   180.00   1.38072   2 ;     C5-    C6-    N1-    C7
     5      6      8     17      9   180.00   4.39320   2 ;     C5-    C6-    N1-    H9
     6      4      2     10      9   180.00  15.16700   2 ;     C6-    C4-    C2-    H2
     6      5      3     11      9   180.00  15.16700   2 ;     C6-    C5-    C3-    H3
     6      8      7     14      9     0.00   1.75728   3 ;     C6-    N1-    C7-    H6
     6      8      7     15      9     0.00   1.75728   3 ;     C6-    N1-    C7-    H7
     6      8      7     16      9     0.00   1.75728   3 ;     C6-    N1-    C7-    H8
     8      6      4     12      9   180.00  15.16700   2 ;     N1-    C6-    C4-    H4
     8      6      5     13      9   180.00  15.16700   2 ;     N1-    C6-    C5-    H5
     9      1      2      4      9   180.00  15.16700   2 ;     H1-    C1-    C2-    C4
     9      1      2     10      9   180.00  15.16700   2 ;     H1-    C1-    C2-    H2
     9      1      3      5      9   180.00  15.16700   2 ;     H1-    C1-    C3-    C5
     9      1      3     11      9   180.00  15.16700   2 ;     H1-    C1-    C3-    H3
    10      2      4     12      9   180.00  15.16700   2 ;     H2-    C2-    C4-    H4
    11      3      5     13      9   180.00  15.16700   2 ;     H3-    C3-    C5-    H5
    14      7      8     17      9     0.00   0.00000   0 ;     H6-    C7-    N1-    H9
    15      7      8     17      9     0.00   0.00000   0 ;     H7-    C7-    N1-    H9
    16      7      8     17      9     0.00   0.00000   0 ;     H8-    C7-    N1-    H9

[ dihedrals ] ; impropers
; treated as propers in GROMACS to use correct AMBER analytical function
;    i      j      k      l   func   phase     kd      pn
     1      4      2     10      4   180.00   4.60240   2 ;     C1-    C4-    C2-    H2
     1      5      3     11      4   180.00   4.60240   2 ;     C1-    C5-    C3-    H3
     2      6      4     12      4   180.00   4.60240   2 ;     C2-    C6-    C4-    H4
     3      6      5     13      4   180.00   4.60240   2 ;     C3-    C6-    C5-    H5
     4      5      6      8      4   180.00   4.60240   2 ;     C4-    C5-    C6-    N1
     7      6      8     17      4   180.00   4.60240   2 ;     C7-    C6-    N1-    H9
     9      1      3      2      4   180.00   4.60240   2 ;     H1-    C1-    C3-    C2
