; mobley_1977493_GMX.top created by acpype (v: 2023.10.27) on Thu May 14 13:56:36 2026

[ defaults ]
; nbfunc        comb-rule       gen-pairs       fudgeLJ fudgeQQ
1               2               yes             0.5     0.8333333333

; Include mobley_1977493_GMX.itp topology
#include "mobley_1977493_GMX.itp"

; Ligand position restraints
#ifdef POSRES_LIG
#include "posre_mobley_1977493.itp"
#endif

#include "../common/SOL.TIP3P.itp"

[ system ]
mobley_1977493 in water

[ molecules ]
; Compound        nmols
 mobley_1977493   1     
SOL               477
