; mobley_2782339_GMX.itp created by acpype (v: 2023.10.27) on Thu May 14 13:46:18 2026

[ atomtypes ]
;name   bond_type     mass     charge   ptype   sigma         epsilon       Amb
 ca       ca          0.00000  0.00000   A     3.31521e-01   4.13379e-01 ; 1.86  0.0988
 c        c           0.00000  0.00000   A     3.31521e-01   4.13379e-01 ; 1.86  0.0988
 ns       ns          0.00000  0.00000   A     3.26995e-01   4.91202e-01 ; 1.84  0.1174
 o        o           0.00000  0.00000   A     3.04812e-01   6.12119e-01 ; 1.71  0.1463
 ha       ha          0.00000  0.00000   A     2.62548e-01   6.73624e-02 ; 1.47  0.0161
 hn       hn          0.00000  0.00000   A     1.10650e-01   4.18400e-02 ; 0.62  0.0100

[ moleculetype ]
;name            nrexcl
 mobley_2782339   3

[ atoms ]
;   nr  type  resi  res  atom  cgnr     charge      mass       ; qtot   bond_type
     1   ca     1   MOL    C1    1    -0.117000     12.01000 ; qtot -0.117
     2   ca     1   MOL    C2    2    -0.117000     12.01000 ; qtot -0.234
     3   ca     1   MOL    C3    3    -0.062000     12.01000 ; qtot -0.296
     4   ca     1   MOL    C4    4    -0.062000     12.01000 ; qtot -0.358
     5   ca     1   MOL    C5    5    -0.140600     12.01000 ; qtot -0.499
     6   ca     1   MOL    C6    6    -0.140600     12.01000 ; qtot -0.639
     7    c     1   MOL    C7    7     0.723100     12.01000 ; qtot 0.084
     8    c     1   MOL    C8    8     0.723100     12.01000 ; qtot 0.807
     9   ns     1   MOL    N1    9    -0.622500     14.01000 ; qtot 0.185
    10    o     1   MOL    O1   10    -0.570500     16.00000 ; qtot -0.386
    11    o     1   MOL    O2   11    -0.570500     16.00000 ; qtot -0.956
    12   ha     1   MOL    H1   12     0.144000      1.00800 ; qtot -0.812
    13   ha     1   MOL    H2   13     0.144000      1.00800 ; qtot -0.668
    14   ha     1   MOL    H3   14     0.160000      1.00800 ; qtot -0.508
    15   ha     1   MOL    H4   15     0.160000      1.00800 ; qtot -0.348
    16   hn     1   MOL    H5   16     0.348500      1.00800 ; qtot 0.000

[ bonds ]
;   ai     aj funct   r             k
     1      2   1    1.3986e-01    2.9644e+05 ;     C1 - C2    
     1      3   1    1.3986e-01    2.9644e+05 ;     C1 - C3    
     1     12   1    1.0860e-01    3.0183e+05 ;     C1 - H1    
     2      4   1    1.3986e-01    2.9644e+05 ;     C2 - C4    
     2     13   1    1.0860e-01    3.0183e+05 ;     C2 - H2    
     3      5   1    1.3986e-01    2.9644e+05 ;     C3 - C5    
     3     14   1    1.0860e-01    3.0183e+05 ;     C3 - H3    
     4      6   1    1.3986e-01    2.9644e+05 ;     C4 - C6    
     4     15   1    1.0860e-01    3.0183e+05 ;     C4 - H4    
     5      6   1    1.3986e-01    2.9644e+05 ;     C5 - C6    
     5      7   1    1.4907e-01    2.1994e+05 ;     C5 - C7    
     6      8   1    1.4907e-01    2.1994e+05 ;     C6 - C8    
     7      9   1    1.3798e-01    2.8122e+05 ;     C7 - N1    
     7     10   1    1.2190e-01    4.9421e+05 ;     C7 - O1    
     8      9   1    1.3798e-01    2.8122e+05 ;     C8 - N1    
     8     11   1    1.2190e-01    4.9421e+05 ;     C8 - O2    
     9     16   1    1.0132e-01    3.9630e+05 ;     N1 - H5    

[ pairs ]
;   ai     aj    funct
     1      6      1 ;     C1 - C6    
     1      7      1 ;     C1 - C7    
     1     15      1 ;     C1 - H4    
     2      5      1 ;     C2 - C5    
     2      8      1 ;     C2 - C8    
     2     14      1 ;     C2 - H3    
     3      4      1 ;     C3 - C4    
     3      8      1 ;     C3 - C8    
     3      9      1 ;     C3 - N1    
     3     10      1 ;     C3 - O1    
     3     13      1 ;     C3 - H2    
     4      7      1 ;     C4 - C7    
     4      9      1 ;     C4 - N1    
     4     11      1 ;     C4 - O2    
     5     11      1 ;     C5 - O2    
     5     15      1 ;     C5 - H4    
     5     16      1 ;     C5 - H5    
     6     10      1 ;     C6 - O1    
     6     13      1 ;     C6 - H2    
     6     14      1 ;     C6 - H3    
     6     16      1 ;     C6 - H5    
     7     11      1 ;     C7 - O2    
     7     14      1 ;     C7 - H3    
     8     10      1 ;     C8 - O1    
     8     15      1 ;     C8 - H4    
    10     16      1 ;     O1 - H5    
    11     16      1 ;     O2 - H5    
    12      4      1 ;     H1 - C4    
    12      5      1 ;     H1 - C5    
    12     13      1 ;     H1 - H2    
    12     14      1 ;     H1 - H3    
    13     15      1 ;     H2 - H4    

[ angles ]
;   ai     aj     ak    funct   theta         cth
     1      2      4      1    1.2002e+02    5.3279e+02 ;     C1 - C2     - C4    
     1      2     13      1    1.1988e+02    3.7572e+02 ;     C1 - C2     - H2    
     1      3      5      1    1.2002e+02    5.3279e+02 ;     C1 - C3     - C5    
     1      3     14      1    1.1988e+02    3.7572e+02 ;     C1 - C3     - H3    
     2      1      3      1    1.2002e+02    5.3279e+02 ;     C2 - C1     - C3    
     2      1     12      1    1.1988e+02    3.7572e+02 ;     C2 - C1     - H1    
     2      4      6      1    1.2002e+02    5.3279e+02 ;     C2 - C4     - C6    
     2      4     15      1    1.1988e+02    3.7572e+02 ;     C2 - C4     - H4    
     3      1     12      1    1.1988e+02    3.7572e+02 ;     C3 - C1     - H1    
     3      5      6      1    1.2002e+02    5.3279e+02 ;     C3 - C5     - C6    
     3      5      7      1    1.2033e+02    5.1413e+02 ;     C3 - C5     - C7    
     4      2     13      1    1.1988e+02    3.7572e+02 ;     C4 - C2     - H2    
     4      6      5      1    1.2002e+02    5.3279e+02 ;     C4 - C6     - C5    
     4      6      8      1    1.2033e+02    5.1413e+02 ;     C4 - C6     - C8    
     5      3     14      1    1.1988e+02    3.7572e+02 ;     C5 - C3     - H3    
     5      6      8      1    1.2033e+02    5.1413e+02 ;     C5 - C6     - C8    
     5      7      9      1    1.1509e+02    5.6116e+02 ;     C5 - C7     - N1    
     5      7     10      1    1.2260e+02    6.5237e+02 ;     C5 - C7     - O1    
     6      4     15      1    1.1988e+02    3.7572e+02 ;     C6 - C4     - H4    
     6      5      7      1    1.2033e+02    5.1413e+02 ;     C6 - C5     - C7    
     6      8      9      1    1.1509e+02    5.6116e+02 ;     C6 - C8     - N1    
     6      8     11      1    1.2260e+02    6.5237e+02 ;     C6 - C8     - O2    
     7      9      8      1    1.2805e+02    6.4618e+02 ;     C7 - N1     - C8    
     7      9     16      1    1.1726e+02    4.8007e+02 ;     C7 - N1     - H5    
     8      9     16      1    1.1726e+02    4.8007e+02 ;     C8 - N1     - H5    
     9      7     10      1    1.2305e+02    7.2977e+02 ;     N1 - C7     - O1    
     9      8     11      1    1.2305e+02    7.2977e+02 ;     N1 - C8     - O2    

[ dihedrals ] ; propers
; for gromacs 4.5 or higher, using funct 9
;    i      j      k      l   func   phase     kd      pn
     1      2      4      6      9   180.00  15.16700   2 ;     C1-    C2-    C4-    C6
     1      2      4     15      9   180.00  15.16700   2 ;     C1-    C2-    C4-    H4
     1      3      5      6      9   180.00  15.16700   2 ;     C1-    C3-    C5-    C6
     1      3      5      7      9   180.00  15.16700   2 ;     C1-    C3-    C5-    C7
     2      1      3      5      9   180.00  15.16700   2 ;     C2-    C1-    C3-    C5
     2      1      3     14      9   180.00  15.16700   2 ;     C2-    C1-    C3-    H3
     2      4      6      5      9   180.00  15.16700   2 ;     C2-    C4-    C6-    C5
     2      4      6      8      9   180.00  15.16700   2 ;     C2-    C4-    C6-    C8
     3      1      2      4      9   180.00  15.16700   2 ;     C3-    C1-    C2-    C4
     3      1      2     13      9   180.00  15.16700   2 ;     C3-    C1-    C2-    H2
     3      5      6      4      9   180.00  15.16700   2 ;     C3-    C5-    C6-    C4
     3      5      6      8      9   180.00  15.16700   2 ;     C3-    C5-    C6-    C8
     3      5      7      9      9   180.00   8.88054   2 ;     C3-    C5-    C7-    N1
     3      5      7     10      9   180.00   2.42672   2 ;     C3-    C5-    C7-    O1
     4      6      5      7      9   180.00  15.16700   2 ;     C4-    C6-    C5-    C7
     4      6      8      9      9   180.00   8.88054   2 ;     C4-    C6-    C8-    N1
     4      6      8     11      9   180.00   2.42672   2 ;     C4-    C6-    C8-    O2
     5      6      4     15      9   180.00  15.16700   2 ;     C5-    C6-    C4-    H4
     5      6      8      9      9   180.00   8.88054   2 ;     C5-    C6-    C8-    N1
     5      6      8     11      9   180.00   2.42672   2 ;     C5-    C6-    C8-    O2
     5      7      9      8      9   180.00  10.46000   2 ;     C5-    C7-    N1-    C8
     5      7      9     16      9   180.00  10.46000   2 ;     C5-    C7-    N1-    H5
     6      4      2     13      9   180.00  15.16700   2 ;     C6-    C4-    C2-    H2
     6      5      3     14      9   180.00  15.16700   2 ;     C6-    C5-    C3-    H3
     6      5      7      9      9   180.00   8.88054   2 ;     C6-    C5-    C7-    N1
     6      5      7     10      9   180.00   2.42672   2 ;     C6-    C5-    C7-    O1
     6      8      9      7      9   180.00  10.46000   2 ;     C6-    C8-    N1-    C7
     6      8      9     16      9   180.00  10.46000   2 ;     C6-    C8-    N1-    H5
     7      5      3     14      9   180.00  15.16700   2 ;     C7-    C5-    C3-    H3
     7      5      6      8      9   180.00  15.16700   2 ;     C7-    C5-    C6-    C8
     7      9      8     11      9   180.00  10.46000   2 ;     C7-    N1-    C8-    O2
     8      6      4     15      9   180.00  15.16700   2 ;     C8-    C6-    C4-    H4
     8      9      7     10      9   180.00  10.46000   2 ;     C8-    N1-    C7-    O1
    10      7      9     16      9     0.00   8.36800   1 ;     O1-    C7-    N1-    H5
    10      7      9     16      9   180.00  10.46000   2 ;     O1-    C7-    N1-    H5
    11      8      9     16      9     0.00   8.36800   1 ;     O2-    C8-    N1-    H5
    11      8      9     16      9   180.00  10.46000   2 ;     O2-    C8-    N1-    H5
    12      1      2      4      9   180.00  15.16700   2 ;     H1-    C1-    C2-    C4
    12      1      2     13      9   180.00  15.16700   2 ;     H1-    C1-    C2-    H2
    12      1      3      5      9   180.00  15.16700   2 ;     H1-    C1-    C3-    C5
    12      1      3     14      9   180.00  15.16700   2 ;     H1-    C1-    C3-    H3
    13      2      4     15      9   180.00  15.16700   2 ;     H2-    C2-    C4-    H4

[ dihedrals ] ; impropers
; treated as propers in GROMACS to use correct AMBER analytical function
;    i      j      k      l   func   phase     kd      pn
     1      4      2     13      4   180.00   4.60240   2 ;     C1-    C4-    C2-    H2
     1      5      3     14      4   180.00   4.60240   2 ;     C1-    C5-    C3-    H3
     2      6      4     15      4   180.00   4.60240   2 ;     C2-    C6-    C4-    H4
     5      9      7     10      4   180.00  43.93200   2 ;     C5-    N1-    C7-    O1
     6      9      8     11      4   180.00  43.93200   2 ;     C6-    N1-    C8-    O2
     7      3      5      6      4   180.00   4.60240   2 ;     C7-    C3-    C5-    C6
     7      8      9     16      4   180.00   4.60240   2 ;     C7-    C8-    N1-    H5
     8      4      6      5      4   180.00   4.60240   2 ;     C8-    C4-    C6-    C5
    12      1      3      2      4   180.00   4.60240   2 ;     H1-    C1-    C3-    C2
