; mobley_5759258_GMX.itp created by acpype (v: 2023.10.27) on Thu May 14 13:48:30 2026

[ atomtypes ]
;name   bond_type     mass     charge   ptype   sigma         epsilon       Amb
 c3       c3          0.00000  0.00000   A     3.39771e-01   4.51035e-01 ; 1.91  0.1078
 oh       oh          0.00000  0.00000   A     3.24287e-01   3.89112e-01 ; 1.82  0.0930
 hc       hc          0.00000  0.00000   A     2.60018e-01   8.70272e-02 ; 1.46  0.0208
 h1       h1          0.00000  0.00000   A     2.42200e-01   8.70272e-02 ; 1.36  0.0208
 ho       ho          0.00000  0.00000   A     5.37925e-02   1.96648e-02 ; 0.30  0.0047

[ moleculetype ]
;name            nrexcl
 mobley_5759258   3

[ atoms ]
;   nr  type  resi  res  atom  cgnr     charge      mass       ; qtot   bond_type
     1   c3     1   MOL    C1    1    -0.093100     12.01000 ; qtot -0.093
     2   c3     1   MOL    C2    2    -0.079400     12.01000 ; qtot -0.172
     3   c3     1   MOL    C3    3    -0.076400     12.01000 ; qtot -0.249
     4   c3     1   MOL    C4    4    -0.120400     12.01000 ; qtot -0.369
     5   c3     1   MOL    C5    5     0.127400     12.01000 ; qtot -0.242
     6   oh     1   MOL    O1    6    -0.597801     16.00000 ; qtot -0.840
     7   hc     1   MOL    H1    7     0.033367      1.00800 ; qtot -0.806
     8   hc     1   MOL    H2    8     0.033367      1.00800 ; qtot -0.773
     9   hc     1   MOL    H3    9     0.033367      1.00800 ; qtot -0.740
    10   hc     1   MOL    H4   10     0.039700      1.00800 ; qtot -0.700
    11   hc     1   MOL    H5   11     0.039700      1.00800 ; qtot -0.660
    12   hc     1   MOL    H6   12     0.041200      1.00800 ; qtot -0.619
    13   hc     1   MOL    H7   13     0.041200      1.00800 ; qtot -0.578
    14   hc     1   MOL    H8   14     0.046700      1.00800 ; qtot -0.531
    15   hc     1   MOL    H9   15     0.046700      1.00800 ; qtot -0.484
    16   h1     1   MOL   H10   16     0.044200      1.00800 ; qtot -0.440
    17   h1     1   MOL   H11   17     0.044200      1.00800 ; qtot -0.396
    18   ho     1   MOL   H12   18     0.396000      1.00800 ; qtot -0.000

[ bonds ]
;   ai     aj funct   r             k
     1      2   1    1.5354e-01    1.9154e+05 ;     C1 - C2    
     1      7   1    1.0962e-01    2.8891e+05 ;     C1 - H1    
     1      8   1    1.0962e-01    2.8891e+05 ;     C1 - H2    
     1      9   1    1.0962e-01    2.8891e+05 ;     C1 - H3    
     2      3   1    1.5354e-01    1.9154e+05 ;     C2 - C3    
     2     10   1    1.0962e-01    2.8891e+05 ;     C2 - H4    
     2     11   1    1.0962e-01    2.8891e+05 ;     C2 - H5    
     3      4   1    1.5354e-01    1.9154e+05 ;     C3 - C4    
     3     12   1    1.0962e-01    2.8891e+05 ;     C3 - H6    
     3     13   1    1.0962e-01    2.8891e+05 ;     C3 - H7    
     4      5   1    1.5354e-01    1.9154e+05 ;     C4 - C5    
     4     14   1    1.0962e-01    2.8891e+05 ;     C4 - H8    
     4     15   1    1.0962e-01    2.8891e+05 ;     C4 - H9    
     5      6   1    1.4242e-01    2.3861e+05 ;     C5 - O1    
     5     16   1    1.0969e-01    2.8804e+05 ;     C5 - H10   
     5     17   1    1.0969e-01    2.8804e+05 ;     C5 - H11   
     6     18   1    9.7250e-02    4.4811e+05 ;     O1 - H12   

[ pairs ]
;   ai     aj    funct
     1      4      1 ;     C1 - C4    
     1     12      1 ;     C1 - H6    
     1     13      1 ;     C1 - H7    
     2      5      1 ;     C2 - C5    
     2     14      1 ;     C2 - H8    
     2     15      1 ;     C2 - H9    
     3      6      1 ;     C3 - O1    
     3     16      1 ;     C3 - H10   
     3     17      1 ;     C3 - H11   
     4     10      1 ;     C4 - H4    
     4     11      1 ;     C4 - H5    
     4     18      1 ;     C4 - H12   
     5     12      1 ;     C5 - H6    
     5     13      1 ;     C5 - H7    
     6     14      1 ;     O1 - H8    
     6     15      1 ;     O1 - H9    
     7      3      1 ;     H1 - C3    
     7     10      1 ;     H1 - H4    
     7     11      1 ;     H1 - H5    
     8      3      1 ;     H2 - C3    
     8     10      1 ;     H2 - H4    
     8     11      1 ;     H2 - H5    
     9      3      1 ;     H3 - C3    
     9     10      1 ;     H3 - H4    
     9     11      1 ;     H3 - H5    
    10     12      1 ;     H4 - H6    
    10     13      1 ;     H4 - H7    
    11     12      1 ;     H5 - H6    
    11     13      1 ;     H5 - H7    
    12     14      1 ;     H6 - H8    
    12     15      1 ;     H6 - H9    
    13     14      1 ;     H7 - H8    
    13     15      1 ;     H7 - H9    
    14     16      1 ;     H8 - H10   
    14     17      1 ;     H8 - H11   
    15     16      1 ;     H9 - H10   
    15     17      1 ;     H9 - H11   
    16     18      1 ;    H10 - H12   
    17     18      1 ;    H11 - H12   

[ angles ]
;   ai     aj     ak    funct   theta         cth
     1      2      3      1    1.1263e+02    5.0099e+02 ;     C1 - C2     - C3    
     1      2     10      1    1.0968e+02    3.6208e+02 ;     C1 - C2     - H4    
     1      2     11      1    1.0968e+02    3.6208e+02 ;     C1 - C2     - H5    
     2      1      7      1    1.0968e+02    3.6208e+02 ;     C2 - C1     - H1    
     2      1      8      1    1.0968e+02    3.6208e+02 ;     C2 - C1     - H2    
     2      1      9      1    1.0968e+02    3.6208e+02 ;     C2 - C1     - H3    
     2      3      4      1    1.1263e+02    5.0099e+02 ;     C2 - C3     - C4    
     2      3     12      1    1.0968e+02    3.6208e+02 ;     C2 - C3     - H6    
     2      3     13      1    1.0968e+02    3.6208e+02 ;     C2 - C3     - H7    
     3      2     10      1    1.0968e+02    3.6208e+02 ;     C3 - C2     - H4    
     3      2     11      1    1.0968e+02    3.6208e+02 ;     C3 - C2     - H5    
     3      4      5      1    1.1263e+02    5.0099e+02 ;     C3 - C4     - C5    
     3      4     14      1    1.0968e+02    3.6208e+02 ;     C3 - C4     - H8    
     3      4     15      1    1.0968e+02    3.6208e+02 ;     C3 - C4     - H9    
     4      3     12      1    1.0968e+02    3.6208e+02 ;     C4 - C3     - H6    
     4      3     13      1    1.0968e+02    3.6208e+02 ;     C4 - C3     - H7    
     4      5      6      1    1.0966e+02    6.4258e+02 ;     C4 - C5     - O1    
     4      5     16      1    1.0959e+02    3.6217e+02 ;     C4 - C5     - H10   
     4      5     17      1    1.0959e+02    3.6217e+02 ;     C4 - C5     - H11   
     5      4     14      1    1.0968e+02    3.6208e+02 ;     C5 - C4     - H8    
     5      4     15      1    1.0968e+02    3.6208e+02 ;     C5 - C4     - H9    
     5      6     18      1    1.0739e+02    5.4501e+02 ;     C5 - O1     - H12   
     6      5     16      1    1.1038e+02    4.7103e+02 ;     O1 - C5     - H10   
     6      5     17      1    1.1038e+02    4.7103e+02 ;     O1 - C5     - H11   
     7      1      8      1    1.0773e+02    2.9957e+02 ;     H1 - C1     - H2    
     7      1      9      1    1.0773e+02    2.9957e+02 ;     H1 - C1     - H3    
     8      1      9      1    1.0773e+02    2.9957e+02 ;     H2 - C1     - H3    
    10      2     11      1    1.0773e+02    2.9957e+02 ;     H4 - C2     - H5    
    12      3     13      1    1.0773e+02    2.9957e+02 ;     H6 - C3     - H7    
    14      4     15      1    1.0773e+02    2.9957e+02 ;     H8 - C4     - H9    
    16      5     17      1    1.0855e+02    2.9824e+02 ;    H10 - C5     - H11   

[ dihedrals ] ; propers
; for gromacs 4.5 or higher, using funct 9
;    i      j      k      l   func   phase     kd      pn
     1      2      3      4      9     0.00   2.17568   3 ;     C1-    C2-    C3-    C4
     1      2      3     12      9     0.00   0.54392   3 ;     C1-    C2-    C3-    H6
     1      2      3     13      9     0.00   0.54392   3 ;     C1-    C2-    C3-    H7
     2      3      4      5      9     0.00   2.17568   3 ;     C2-    C3-    C4-    C5
     2      3      4     14      9     0.00   0.54392   3 ;     C2-    C3-    C4-    H8
     2      3      4     15      9     0.00   0.54392   3 ;     C2-    C3-    C4-    H9
     3      4      5      6      9     0.00   0.75312   3 ;     C3-    C4-    C5-    O1
     3      4      5     16      9     0.00   0.65084   3 ;     C3-    C4-    C5-   H10
     3      4      5     17      9     0.00   0.65084   3 ;     C3-    C4-    C5-   H11
     4      3      2     10      9     0.00   0.54392   3 ;     C4-    C3-    C2-    H4
     4      3      2     11      9     0.00   0.54392   3 ;     C4-    C3-    C2-    H5
     4      5      6     18      9     0.00   0.25104   3 ;     C4-    C5-    O1-   H12
     5      4      3     12      9     0.00   0.54392   3 ;     C5-    C4-    C3-    H6
     5      4      3     13      9     0.00   0.54392   3 ;     C5-    C4-    C3-    H7
     6      5      4     14      9     0.00   0.37656   3 ;     O1-    C5-    C4-    H8
     6      5      4     15      9     0.00   0.37656   3 ;     O1-    C5-    C4-    H9
     7      1      2      3      9     0.00   0.54392   3 ;     H1-    C1-    C2-    C3
     7      1      2     10      9     0.00   0.50208   3 ;     H1-    C1-    C2-    H4
     7      1      2     11      9     0.00   0.50208   3 ;     H1-    C1-    C2-    H5
     8      1      2      3      9     0.00   0.54392   3 ;     H2-    C1-    C2-    C3
     8      1      2     10      9     0.00   0.50208   3 ;     H2-    C1-    C2-    H4
     8      1      2     11      9     0.00   0.50208   3 ;     H2-    C1-    C2-    H5
     9      1      2      3      9     0.00   0.54392   3 ;     H3-    C1-    C2-    C3
     9      1      2     10      9     0.00   0.50208   3 ;     H3-    C1-    C2-    H4
     9      1      2     11      9     0.00   0.50208   3 ;     H3-    C1-    C2-    H5
    10      2      3     12      9     0.00   0.50208   3 ;     H4-    C2-    C3-    H6
    10      2      3     13      9     0.00   0.50208   3 ;     H4-    C2-    C3-    H7
    11      2      3     12      9     0.00   0.50208   3 ;     H5-    C2-    C3-    H6
    11      2      3     13      9     0.00   0.50208   3 ;     H5-    C2-    C3-    H7
    12      3      4     14      9     0.00   0.50208   3 ;     H6-    C3-    C4-    H8
    12      3      4     15      9     0.00   0.50208   3 ;     H6-    C3-    C4-    H9
    13      3      4     14      9     0.00   0.50208   3 ;     H7-    C3-    C4-    H8
    13      3      4     15      9     0.00   0.50208   3 ;     H7-    C3-    C4-    H9
    14      4      5     16      9     0.00   0.65084   3 ;     H8-    C4-    C5-   H10
    14      4      5     17      9     0.00   0.65084   3 ;     H8-    C4-    C5-   H11
    15      4      5     16      9     0.00   0.65084   3 ;     H9-    C4-    C5-   H10
    15      4      5     17      9     0.00   0.65084   3 ;     H9-    C4-    C5-   H11
    16      5      6     18      9     0.00   0.51463   3 ;    H10-    C5-    O1-   H12
    17      5      6     18      9     0.00   0.51463   3 ;    H11-    C5-    O1-   H12
