mobley_7200804_GMX.gro created by acpype (v: 2023.10.27) on Thu May 14 13:34:19 2026
 1660
    1MOL     C1    1   1.267   1.286   1.121
    1MOL     C2    2   1.160   1.346   1.188
    1MOL     C3    3   1.372   1.230   1.193
    1MOL     C4    4   1.158   1.349   1.328
    1MOL     C5    5   1.370   1.233   1.333
    1MOL     C6    6   1.263   1.292   1.400
    1MOL     O1    7   1.472   1.177   1.403
    1MOL     F1    8   1.261   1.296   1.534
    1MOL     H1    9   1.268   1.284   1.012
    1MOL     H2   10   1.078   1.390   1.132
    1MOL     H3   11   1.454   1.183   1.141
    1MOL     H4   12   1.075   1.395   1.380
    1MOL     H5   13   1.463   1.201   1.497
    2SOL     OW   14   0.230   0.628   0.113
    2SOL    HW1   15   0.137   0.626   0.150
    2SOL    HW2   16   0.231   0.589   0.021
    3SOL     OW   17   0.225   0.275   0.996
    3SOL    HW1   18   0.260   0.258   1.088
    3SOL    HW2   19   0.137   0.230   0.984
    4SOL     OW   20   0.019   0.368   0.647
    4SOL    HW1   21  -0.063   0.411   0.686
    4SOL    HW2   22  -0.009   0.295   0.584
    5SOL     OW   23   0.569   1.275   1.165
    5SOL    HW1   24   0.476   1.268   1.128
    5SOL    HW2   25   0.580   1.364   1.209
    6SOL     OW   26   1.555   1.511   0.703
    6SOL    HW1   27   1.498   1.495   0.784
    6SOL    HW2   28   1.496   1.521   0.623
    7SOL     OW   29   1.135   0.703   0.717
    7SOL    HW1   30   1.192   0.781   0.692
    7SOL    HW2   31   1.075   0.729   0.793
    8SOL     OW   32   1.755   0.607   0.231
    8SOL    HW1   33   1.743   0.594   0.132
    8SOL    HW2   34   1.725   0.526   0.280
    9SOL     OW   35   0.768   1.144   1.023
    9SOL    HW1   36   0.690   1.161   1.083
    9SOL    HW2   37   0.802   1.231   0.987
   10SOL     OW   38   0.850   0.798   1.823
   10SOL    HW1   39   0.846   0.874   1.888
   10SOL    HW2   40   0.872   0.834   1.732
   11SOL     OW   41   0.685   1.012   0.665
   11SOL    HW1   42   0.754   0.996   0.735
   11SOL    HW2   43   0.612   1.069   0.703
   12SOL     OW   44   0.686   1.161   1.803
   12SOL    HW1   45   0.746   1.240   1.817
   12SOL    HW2   46   0.600   1.192   1.762
   13SOL     OW   47   0.335   1.435   1.061
   13SOL    HW1   48   0.257   1.404   1.008
   13SOL    HW2   49   0.393   1.493   1.004
   14SOL     OW   50   1.460   1.505   1.339
   14SOL    HW1   51   1.484   1.599   1.365
   14SOL    HW2   52   1.444   1.451   1.421
   15SOL     OW   53   0.438   0.392   1.499
   15SOL    HW1   54   0.520   0.336   1.508
   15SOL    HW2   55   0.357   0.334   1.503
   16SOL     OW   56   1.603   0.447   0.737
   16SOL    HW1   57   1.529   0.493   0.687
   16SOL    HW2   58   1.654   0.515   0.790
   17SOL     OW   59   0.231   1.713   0.483
   17SOL    HW1   60   0.265   1.790   0.537
   17SOL    HW2   61   0.275   1.713   0.393
   18SOL     OW   62   1.127   1.341   1.690
   18SOL    HW1   63   1.174   1.341   1.778
   18SOL    HW2   64   1.079   1.254   1.679
   19SOL     OW   65   0.230   1.434   0.538
   19SOL    HW1   66   0.204   1.530   0.538
   19SOL    HW2   67   0.159   1.380   0.583
   20SOL     OW   68   0.240   1.091   0.886
   20SOL    HW1   69   0.254   1.007   0.938
   20SOL    HW2   70   0.185   1.155   0.941
   21SOL     OW   71   0.620   1.786   1.439
   21SOL    HW1   72   0.528   1.769   1.474
   21SOL    HW2   73   0.648   1.878   1.465
   22SOL     OW   74   0.606   0.964   0.123
   22SOL    HW1   75   0.613   1.048   0.069
   22SOL    HW2   76   0.652   0.977   0.211
   23SOL     OW   77   1.594   0.114   1.480
   23SOL    HW1   78   1.576   0.181   1.408
   23SOL    HW2   79   1.591   0.160   1.569
   24SOL     OW   80   0.122   0.643   0.563
   24SOL    HW1   81   0.077   0.555   0.580
   24SOL    HW2   82   0.121   0.697   0.647
   25SOL     OW   83   1.842   1.767   0.359
   25SOL    HW1   84   1.896   1.738   0.439
   25SOL    HW2   85   1.872   1.857   0.330
   26SOL     OW   86   0.027   1.596   0.117
   26SOL    HW1   87   0.008   1.500   0.138
   26SOL    HW2   88  -0.006   1.654   0.192
   27SOL     OW   89   1.689   0.922   0.612
   27SOL    HW1   90   1.784   0.893   0.620
   27SOL    HW2   91   1.681   0.987   0.537
   28SOL     OW   92   1.641   1.108   0.432
   28SOL    HW1   93   1.727   1.110   0.380
   28SOL    HW2   94   1.655   1.155   0.520
   29SOL     OW   95   0.113   0.737   1.597
   29SOL    HW1   96   0.201   0.724   1.642
   29SOL    HW2   97   0.100   0.834   1.575
   30SOL     OW   98   0.613   1.365   0.726
   30SOL    HW1   99   0.564   1.278   0.735
   30SOL    HW2  100   0.590   1.408   0.639
   31SOL     OW  101   0.809   0.004   0.502
   31SOL    HW1  102   0.849   0.095   0.493
   31SOL    HW2  103   0.709   0.012   0.508
   32SOL     OW  104   0.197   0.976   1.264
   32SOL    HW1  105   0.286   0.931   1.250
   32SOL    HW2  106   0.124   0.911   1.245
   33SOL     OW  107   1.525   0.999   0.190
   33SOL    HW1  108   1.462   0.923   0.203
   33SOL    HW2  109   1.573   1.017   0.276
   34SOL     OW  110   1.187   1.792   1.616
   34SOL    HW1  111   1.211   1.852   1.540
   34SOL    HW2  112   1.194   1.697   1.586
   35SOL     OW  113   0.317   0.251   1.801
   35SOL    HW1  114   0.388   0.322   1.807
   35SOL    HW2  115   0.229   0.290   1.829
   36SOL     OW  116   1.466   1.417   0.953
   36SOL    HW1  117   1.407   1.423   1.033
   36SOL    HW2  118   1.451   1.329   0.907
   37SOL     OW  119   1.667   1.714   0.572
   37SOL    HW1  120   1.626   1.691   0.484
   37SOL    HW2  121   1.649   1.640   0.637
   38SOL     OW  122   0.598   0.729   0.270
   38SOL    HW1  123   0.622   0.798   0.202
   38SOL    HW2  124   0.520   0.762   0.324
   39SOL     OW  125   1.281   0.345   0.944
   39SOL    HW1  126   1.195   0.295   0.931
   39SOL    HW2  127   1.343   0.291   1.000
   40SOL     OW  128   1.576   1.662   0.307
   40SOL    HW1  129   1.665   1.708   0.310
   40SOL    HW2  130   1.555   1.638   0.212
   41SOL     OW  131   0.807   0.605   1.465
   41SOL    HW1  132   0.760   0.602   1.554
   41SOL    HW2  133   0.756   0.550   1.399
   42SOL     OW  134   1.394   0.469   1.674
   42SOL    HW1  135   1.374   0.512   1.762
   42SOL    HW2  136   1.472   0.407   1.683
   43SOL     OW  137   0.973   0.890   1.572
   43SOL    HW1  138   1.019   0.806   1.543
   43SOL    HW2  139   0.917   0.924   1.497
   44SOL     OW  140   0.991   0.410   1.242
   44SOL    HW1  141   0.914   0.444   1.296
   44SOL    HW2  142   0.957   0.359   1.163
   45SOL     OW  143   1.041   0.701   0.429
   45SOL    HW1  144   1.067   0.697   0.525
   45SOL    HW2  145   0.956   0.650   0.415
   46SOL     OW  146   0.076   0.811   0.789
   46SOL    HW1  147   0.175   0.799   0.798
   46SOL    HW2  148   0.052   0.906   0.810
   47SOL     OW  149   0.130   1.821   1.571
   47SOL    HW1  150   0.120   1.806   1.670
   47SOL    HW2  151   0.044   1.857   1.535
   48SOL     OW  152   0.865   0.348   0.195
   48SOL    HW1  153   0.924   0.411   0.146
   48SOL    HW2  154   0.884   0.254   0.166
   49SOL     OW  155   1.719   0.585   1.831
   49SOL    HW1  156   1.693   0.674   1.795
   49SOL    HW2  157   1.717   0.517   1.758
   50SOL     OW  158   1.362   1.144   0.545
   50SOL    HW1  159   1.445   1.115   0.497
   50SOL    HW2  160   1.313   1.211   0.489
   51SOL     OW  161   0.550   0.196   0.885
   51SOL    HW1  162   0.545   0.191   0.985
   51SOL    HW2  163   0.552   0.292   0.856
   52SOL     OW  164   1.008   1.456   0.477
   52SOL    HW1  165   0.962   1.528   0.425
   52SOL    HW2  166   1.004   1.476   0.575
   53SOL     OW  167   0.351   1.801   0.853
   53SOL    HW1  168   0.401   1.715   0.859
   53SOL    HW2  169   0.416   1.878   0.850
   54SOL     OW  170   1.795   1.066   0.873
   54SOL    HW1  171   1.733   1.051   0.797
   54SOL    HW2  172   1.743   1.077   0.958
   55SOL     OW  173   1.227   1.550   1.506
   55SOL    HW1  174   1.233   1.473   1.570
   55SOL    HW2  175   1.175   1.524   1.426
   56SOL     OW  176   0.321   0.943   0.242
   56SOL    HW1  177   0.403   0.982   0.200
   56SOL    HW2  178   0.294   0.861   0.193
   57SOL     OW  179   1.458   0.735   0.728
   57SOL    HW1  180   1.453   0.670   0.803
   57SOL    HW2  181   1.538   0.794   0.741
   58SOL     OW  182   0.461   1.266   1.727
   58SOL    HW1  183   0.411   1.267   1.641
   58SOL    HW2  184   0.398   1.248   1.803
   59SOL     OW  185   1.111   1.776   0.237
   59SOL    HW1  186   1.051   1.714   0.287
   59SOL    HW2  187   1.142   1.732   0.152
   60SOL     OW  188   0.202   0.285   1.498
   60SOL    HW1  189   0.122   0.345   1.485
   60SOL    HW2  190   0.192   0.236   1.584
   61SOL     OW  191   1.632   1.377   0.081
   61SOL    HW1  192   1.600   1.471   0.071
   61SOL    HW2  193   1.556   1.314   0.069
   62SOL     OW  194   0.464   1.743   0.323
   62SOL    HW1  195   0.497   1.782   0.409
   62SOL    HW2  196   0.540   1.736   0.258
   63SOL     OW  197   1.400   0.107   0.426
   63SOL    HW1  198   1.376   0.070   0.336
   63SOL    HW2  199   1.499   0.123   0.430
   64SOL     OW  200   0.249   1.785   1.241
   64SOL    HW1  201   0.306   1.720   1.291
   64SOL    HW2  202   0.233   1.752   1.148
   65SOL     OW  203   0.940   1.698   0.904
   65SOL    HW1  204   1.020   1.641   0.925
   65SOL    HW2  205   0.891   1.658   0.827
   66SOL     OW  206   0.382   0.700   0.480
   66SOL    HW1  207   0.427   0.610   0.477
   66SOL    HW2  208   0.288   0.689   0.513
   67SOL     OW  209   1.547   0.222   1.729
   67SOL    HW1  210   1.542   0.259   1.821
   67SOL    HW2  211   1.475   0.153   1.717
   68SOL     OW  212   0.614   0.122   0.117
   68SOL    HW1  213   0.712   0.100   0.124
   68SOL    HW2  214   0.583   0.105   0.024
   69SOL     OW  215   0.781   0.264   1.749
   69SOL    HW1  216   0.848   0.203   1.792
   69SOL    HW2  217   0.708   0.283   1.814
   70SOL     OW  218   0.888   1.514   1.195
   70SOL    HW1  219   0.865   1.489   1.101
   70SOL    HW2  220   0.949   1.445   1.234
   71SOL     OW  221   1.351   0.590   1.433
   71SOL    HW1  222   1.379   0.547   1.518
   71SOL    HW2  223   1.376   0.686   1.434
   72SOL     OW  224   0.803   1.402   0.924
   72SOL    HW1  225   0.893   1.416   0.882
   72SOL    HW2  226   0.732   1.404   0.853
   73SOL     OW  227   0.922   0.503   0.899
   73SOL    HW1  228   0.897   0.494   0.803
   73SOL    HW2  229   0.970   0.421   0.930
   74SOL     OW  230   0.539   0.064   0.512
   74SOL    HW1  231   0.458   0.065   0.570
   74SOL    HW2  232   0.542   0.147   0.457
   75SOL     OW  233   1.434   1.188   0.041
   75SOL    HW1  234   1.466   1.112   0.098
   75SOL    HW2  235   1.342   1.215   0.071
   76SOL     OW  236   0.297   0.035   0.171
   76SOL    HW1  237   0.346   0.119   0.150
   76SOL    HW2  238   0.359  -0.030   0.216
   77SOL     OW  239   0.935   0.236   0.480
   77SOL    HW1  240   0.887   0.277   0.402
   77SOL    HW2  241   1.034   0.234   0.461
   78SOL     OW  242   1.076   0.683   1.464
   78SOL    HW1  243   0.996   0.622   1.467
   78SOL    HW2  244   1.157   0.630   1.440
   79SOL     OW  245   1.227   1.570   0.793
   79SOL    HW1  246   1.248   1.644   0.728
   79SOL    HW2  247   1.295   1.570   0.866
   80SOL     OW  248   0.459   1.152   0.741
   80SOL    HW1  249   0.388   1.125   0.806
   80SOL    HW2  250   0.433   1.124   0.648
   81SOL     OW  251   1.271   1.797   0.591
   81SOL    HW1  252   1.315   1.861   0.527
   81SOL    HW2  253   1.221   1.849   0.661
   82SOL     OW  254   1.032   0.549   0.016
   82SOL    HW1  255   0.991   0.631  -0.023
   82SOL    HW2  256   1.096   0.575   0.089
   83SOL     OW  257   0.078   0.556   1.386
   83SOL    HW1  258   0.170   0.555   1.345
   83SOL    HW2  259   0.072   0.630   1.453
   84SOL     OW  260   0.561   0.222   1.147
   84SOL    HW1  261   0.599   0.138   1.184
   84SOL    HW2  262   0.473   0.241   1.191
   85SOL     OW  263   0.866   0.454   0.642
   85SOL    HW1  264   0.834   0.526   0.580
   85SOL    HW2  265   0.890   0.373   0.589
   86SOL     OW  266   1.017   0.039   0.753
   86SOL    HW1  267   0.945   0.044   0.684
   86SOL    HW2  268   0.993  -0.030   0.822
   87SOL     OW  269   1.429   1.173   0.867
   87SOL    HW1  270   1.374   1.089   0.860
   87SOL    HW2  271   1.455   1.202   0.775
   88SOL     OW  272   1.466   0.590   0.992
   88SOL    HW1  273   1.436   0.495   0.999
   88SOL    HW2  274   1.539   0.606   1.058
   89SOL     OW  275   1.857   0.833   0.377
   89SOL    HW1  276   1.899   0.769   0.441
   89SOL    HW2  277   1.819   0.782   0.299
   90SOL     OW  278   0.488   1.385   0.174
   90SOL    HW1  279   0.401   1.370   0.221
   90SOL    HW2  280   0.471   1.411   0.079
   91SOL     OW  281   1.664   1.280   0.657
   91SOL    HW1  282   1.763   1.288   0.671
   91SOL    HW2  283   1.619   1.364   0.688
   92SOL     OW  284   1.390   0.575   0.078
   92SOL    HW1  285   1.336   0.554   0.159
   92SOL    HW2  286   1.481   0.534   0.087
   93SOL     OW  287   0.527   0.256   0.328
   93SOL    HW1  288   0.554   0.197   0.253
   93SOL    HW2  289   0.527   0.351   0.297
   94SOL     OW  290   1.754   1.223   1.588
   94SOL    HW1  291   1.845   1.184   1.575
   94SOL    HW2  292   1.762   1.319   1.612
   95SOL     OW  293   1.592   1.629   1.625
   95SOL    HW1  294   1.619   1.663   1.535
   95SOL    HW2  295   1.671   1.591   1.671
   96SOL     OW  296   1.638   1.099   1.079
   96SOL    HW1  297   1.643   1.180   1.138
   96SOL    HW2  298   1.552   1.101   1.028
   97SOL     OW  299   0.915   0.089   1.402
   97SOL    HW1  300   0.940   0.069   1.307
   97SOL    HW2  301   0.987   0.145   1.444
   98SOL     OW  302   0.980   1.116   1.719
   98SOL    HW1  303   0.881   1.122   1.729
   98SOL    HW2  304   1.003   1.036   1.663
   99SOL     OW  305   0.705   1.050   0.368
   99SOL    HW1  306   0.691   1.057   0.467
   99SOL    HW2  307   0.789   0.999   0.350
  100SOL     OW  308   0.410   0.813   1.251
  100SOL    HW1  309   0.496   0.825   1.301
  100SOL    HW2  310   0.368   0.726   1.278
  101SOL     OW  311   1.274   0.386   1.262
  101SOL    HW1  312   1.295   0.460   1.326
  101SOL    HW2  313   1.185   0.403   1.219
  102SOL     OW  314   0.064   1.564   1.331
  102SOL    HW1  315   0.018   1.646   1.297
  102SOL    HW2  316   0.162   1.583   1.340
  103SOL     OW  317   0.367   1.100   0.501
  103SOL    HW1  318   0.360   1.183   0.445
  103SOL    HW2  319   0.371   1.020   0.441
  104SOL     OW  320   0.566   0.537   0.865
  104SOL    HW1  321   0.578   0.603   0.791
  104SOL    HW2  322   0.612   0.571   0.948
  105SOL     OW  323   1.252   1.348   0.388
  105SOL    HW1  324   1.302   1.425   0.428
  105SOL    HW2  325   1.157   1.350   0.420
  106SOL     OW  326   1.582   0.639   0.472
  106SOL    HW1  327   1.551   0.700   0.545
  106SOL    HW2  328   1.632   0.691   0.403
  107SOL     OW  329   0.354   1.510   1.329
  107SOL    HW1  330   0.333   1.466   1.242
  107SOL    HW2  331   0.451   1.536   1.332
  108SOL     OW  332   0.402   0.751   1.598
  108SOL    HW1  333   0.470   0.806   1.551
  108SOL    HW2  334   0.442   0.663   1.625
  109SOL     OW  335   1.587   0.779   1.670
  109SOL    HW1  336   1.495   0.817   1.665
  109SOL    HW2  337   1.647   0.826   1.605
  110SOL     OW  338   1.013   0.105   1.770
  110SOL    HW1  339   1.019   0.190   1.718
  110SOL    HW2  340   1.045   0.029   1.713
  111SOL     OW  341   0.504   0.050   1.740
  111SOL    HW1  342   0.462  -0.007   1.670
  111SOL    HW2  343   0.438   0.119   1.772
  112SOL     OW  344   0.573   0.870   1.029
  112SOL    HW1  345   0.617   0.959   1.020
  112SOL    HW2  346   0.510   0.870   1.106
  113SOL     OW  347   1.360   0.862   1.045
  113SOL    HW1  348   1.285   0.862   0.979
  113SOL    HW2  349   1.397   0.770   1.054
  114SOL     OW  350   1.209   0.525   0.275
  114SOL    HW1  351   1.222   0.441   0.329
  114SOL    HW2  352   1.180   0.599   0.335
  115SOL     OW  353   0.307   0.213   1.231
  115SOL    HW1  354   0.284   0.250   1.321
  115SOL    HW2  355   0.277   0.118   1.225
  116SOL     OW  356   0.037   1.310   1.282
  116SOL    HW1  357   0.090   1.261   1.350
  116SOL    HW2  358   0.059   1.408   1.287
  117SOL     OW  359   0.732   0.634   1.064
  117SOL    HW1  360   0.791   0.608   0.988
  117SOL    HW2  361   0.704   0.730   1.053
  118SOL     OW  362   1.728   0.935   1.854
  118SOL    HW1  363   1.682   0.928   1.765
  118SOL    HW2  364   1.666   0.979   1.920
  119SOL     OW  365   0.307   0.063   0.618
  119SOL    HW1  366   0.296   0.157   0.651
  119SOL    HW2  367   0.302   0.000   0.695
  120SOL     OW  368   1.622   0.367   0.374
  120SOL    HW1  369   1.624   0.291   0.438
  120SOL    HW2  370   1.574   0.444   0.414
  121SOL     OW  371   1.023   0.766   0.966
  121SOL    HW1  372   1.038   0.787   1.062
  121SOL    HW2  373   0.993   0.671   0.957
  122SOL     OW  374   0.980   1.573   1.700
  122SOL    HW1  375   0.960   1.617   1.612
  122SOL    HW2  376   1.019   1.482   1.684
  123SOL     OW  377   1.859   1.518   1.605
  123SOL    HW1  378   1.873   1.545   1.510
  123SOL    HW2  379   1.942   1.540   1.658
  124SOL     OW  380   0.350   0.898   1.804
  124SOL    HW1  381   0.426   0.942   1.852
  124SOL    HW2  382   0.385   0.851   1.722
  125SOL     OW  383   1.540   0.274   0.125
  125SOL    HW1  384   1.479   0.199   0.148
  125SOL    HW2  385   1.562   0.326   0.208
  126SOL     OW  386   1.303   0.838   0.042
  126SOL    HW1  387   1.337   0.745   0.057
  126SOL    HW2  388   1.321   0.865  -0.053
  127SOL     OW  389   1.068   1.333   0.849
  127SOL    HW1  390   1.075   1.249   0.794
  127SOL    HW2  391   1.130   1.402   0.813
  128SOL     OW  392   0.319   0.810   0.949
  128SOL    HW1  393   0.412   0.846   0.954
  128SOL    HW2  394   0.313   0.725   1.001
  129SOL     OW  395   0.339   0.509   1.006
  129SOL    HW1  396   0.287   0.426   0.989
  129SOL    HW2  397   0.416   0.514   0.942
  130SOL     OW  398   1.138   0.380   1.678
  130SOL    HW1  399   1.093   0.443   1.742
  130SOL    HW2  400   1.231   0.411   1.661
  131SOL     OW  401   1.160   0.207   1.477
  131SOL    HW1  402   1.160   0.271   1.554
  131SOL    HW2  403   1.188   0.255   1.394
  132SOL     OW  404   0.008   1.326   0.200
  132SOL    HW1  405  -0.085   1.347   0.169
  132SOL    HW2  406   0.018   1.227   0.213
  133SOL     OW  407   0.088   1.801   0.927
  133SOL    HW1  408   0.046   1.715   0.900
  133SOL    HW2  409   0.182   1.804   0.893
  134SOL     OW  410   0.504   1.568   0.910
  134SOL    HW1  411   0.570   1.642   0.919
  134SOL    HW2  412   0.548   1.489   0.868
  135SOL     OW  413   1.002   0.796   1.238
  135SOL    HW1  414   1.043   0.764   1.324
  135SOL    HW2  415   0.906   0.769   1.235
  136SOL     OW  416   0.040   0.544   1.114
  136SOL    HW1  417   0.125   0.511   1.073
  136SOL    HW2  418   0.053   0.559   1.212
  137SOL     OW  419   0.189   0.520   1.722
  137SOL    HW1  420   0.248   0.480   1.652
  137SOL    HW2  421   0.131   0.591   1.681
  138SOL     OW  422   1.369   0.950   1.660
  138SOL    HW1  423   1.408   1.039   1.680
  138SOL    HW2  424   1.379   0.930   1.563
  139SOL     OW  425   0.815   0.572   0.325
  139SOL    HW1  426   0.822   0.483   0.279
  139SOL    HW2  427   0.721   0.606   0.317
  140SOL     OW  428   1.657   0.604   1.206
  140SOL    HW1  429   1.619   0.535   1.268
  140SOL    HW2  430   1.739   0.568   1.162
  141SOL     OW  431   0.252   1.564   1.744
  141SOL    HW1  432   0.222   1.621   1.820
  141SOL    HW2  433   0.245   1.467   1.770
  142SOL     OW  434   0.671   0.464   1.269
  142SOL    HW1  435   0.637   0.375   1.239
  142SOL    HW2  436   0.697   0.518   1.189
  143SOL     OW  437   0.930   1.678   1.465
  143SOL    HW1  438   0.906   1.660   1.370
  143SOL    HW2  439   0.960   1.772   1.475
  144SOL     OW  440   0.473   0.500   0.191
  144SOL    HW1  441   0.534   0.580   0.195
  144SOL    HW2  442   0.378   0.531   0.198
  145SOL     OW  443   0.159   1.137   1.466
  145SOL    HW1  444   0.181   1.076   1.542
  145SOL    HW2  445   0.169   1.088   1.380
  146SOL     OW  446   1.302   0.855   0.309
  146SOL    HW1  447   1.216   0.824   0.351
  146SOL    HW2  448   1.298   0.841   0.210
  147SOL     OW  449   1.759   1.747   1.154
  147SOL    HW1  450   1.820   1.777   1.081
  147SOL    HW2  451   1.721   1.658   1.132
  148SOL     OW  452   1.252   1.731   1.128
  148SOL    HW1  453   1.336   1.736   1.074
  148SOL    HW2  454   1.229   1.635   1.146
  149SOL     OW  455   0.083   1.258   1.022
  149SOL    HW1  456   0.078   1.257   1.122
  149SOL    HW2  457   0.000   1.217   0.984
  150SOL     OW  458   0.688   1.662   1.716
  150SOL    HW1  459   0.632   1.743   1.725
  150SOL    HW2  460   0.740   1.666   1.630
  151SOL     OW  461   0.903   0.086   0.133
  151SOL    HW1  462   0.954   0.087   0.047
  151SOL    HW2  463   0.959   0.044   0.204
  152SOL     OW  464   1.726   0.135   0.523
  152SOL    HW1  465   1.799   0.118   0.456
  152SOL    HW2  466   1.695   0.048   0.561
  153SOL     OW  467   1.388   1.573   0.477
  153SOL    HW1  468   1.455   1.585   0.403
  153SOL    HW2  469   1.348   1.662   0.500
  154SOL     OW  470   0.130   1.794   1.851
  154SOL    HW1  471   0.089   1.720   1.904
  154SOL    HW2  472   0.194   1.845   1.909
  155SOL     OW  473   1.280   0.927   0.672
  155SOL    HW1  474   1.340   0.846   0.674
  155SOL    HW2  475   1.320   0.996   0.612
  156SOL     OW  476   0.830   1.273   1.422
  156SOL    HW1  477   0.825   1.306   1.517
  156SOL    HW2  478   0.744   1.292   1.376
  157SOL     OW  479   0.672   1.616   0.154
  157SOL    HW1  480   0.681   1.626   0.055
  157SOL    HW2  481   0.632   1.527   0.175
  158SOL     OW  482   1.650   1.720   1.394
  158SOL    HW1  483   1.703   1.730   1.310
  158SOL    HW2  484   1.623   1.810   1.428
  159SOL     OW  485   1.841   0.175   0.963
  159SOL    HW1  486   1.880   0.090   0.927
  159SOL    HW2  487   1.743   0.177   0.944
  160SOL     OW  488   0.263   0.326   0.720
  160SOL    HW1  489   0.184   0.377   0.686
  160SOL    HW2  490   0.254   0.311   0.818
  161SOL     OW  491   1.194   1.612   0.031
  161SOL    HW1  492   1.200   1.519   0.068
  161SOL    HW2  493   1.135   1.612  -0.049
  162SOL     OW  494   0.822   1.002   1.372
  162SOL    HW1  495   0.862   1.001   1.280
  162SOL    HW2  496   0.832   1.094   1.412
  163SOL     OW  497   0.916   0.910   0.291
  163SOL    HW1  498   0.979   0.948   0.223
  163SOL    HW2  499   0.956   0.827   0.330
  164SOL     OW  500   1.504   1.607   0.044
  164SOL    HW1  501   1.412   1.644   0.051
  164SOL    HW2  502   1.542   1.627  -0.046
  165SOL     OW  503   0.372   1.288   1.490
  165SOL    HW1  504   0.359   1.381   1.456
  165SOL    HW2  505   0.288   1.236   1.477
  166SOL     OW  506   1.614   1.292   1.289
  166SOL    HW1  507   1.674   1.295   1.369
  166SOL    HW2  508   1.539   1.356   1.302
  167SOL     OW  509   1.039   1.098   0.696
  167SOL    HW1  510   0.969   1.051   0.750
  167SOL    HW2  511   1.098   1.030   0.653
  168SOL     OW  512   1.014   0.236   0.971
  168SOL    HW1  513   1.006   0.200   0.878
  168SOL    HW2  514   1.012   0.160   1.036
  169SOL     OW  515   0.590   1.487   0.491
  169SOL    HW1  516   0.632   1.429   0.421
  169SOL    HW2  517   0.546   1.566   0.447
  170SOL     OW  518   1.709   0.385   1.381
  170SOL    HW1  519   1.782   0.454   1.385
  170SOL    HW2  520   1.737   0.310   1.322
  171SOL     OW  521   0.255   1.348   0.290
  171SOL    HW1  522   0.159   1.349   0.263
  171SOL    HW2  523   0.267   1.401   0.374
  172SOL     OW  524   0.105   1.013   1.726
  172SOL    HW1  525   0.028   0.980   1.780
  172SOL    HW2  526   0.190   0.983   1.768
  173SOL     OW  527   0.672   0.203   1.489
  173SOL    HW1  528   0.762   0.187   1.449
  173SOL    HW2  529   0.680   0.208   1.588
  174SOL     OW  530   0.075   0.345   0.033
  174SOL    HW1  531  -0.017   0.317   0.004
  174SOL    HW2  532   0.106   0.422  -0.023
  175SOL     OW  533   1.440   0.856   1.398
  175SOL    HW1  534   1.383   0.908   1.335
  175SOL    HW2  535   1.536   0.868   1.374
  176SOL     OW  536   0.072   0.166   0.318
  176SOL    HW1  537   0.055   0.249   0.264
  176SOL    HW2  538   0.162   0.129   0.296
  177SOL     OW  539   1.183   1.335   0.119
  177SOL    HW1  540   1.084   1.324   0.121
  177SOL    HW2  541   1.217   1.350   0.212
  178SOL     OW  542   0.613   0.842   1.431
  178SOL    HW1  543   0.669   0.923   1.414
  178SOL    HW2  544   0.672   0.762   1.434
  179SOL     OW  545   1.493   1.767   0.959
  179SOL    HW1  546   1.526   1.831   0.890
  179SOL    HW2  547   1.559   1.761   1.034
  180SOL     OW  548   0.716   0.565   1.708
  180SOL    HW1  549   0.735   0.630   1.782
  180SOL    HW2  550   0.776   0.485   1.717
  181SOL     OW  551   0.390   1.741   1.560
  181SOL    HW1  552   0.299   1.782   1.558
  181SOL    HW2  553   0.383   1.647   1.592
  182SOL     OW  554   1.674   0.883   1.254
  182SOL    HW1  555   1.647   0.794   1.217
  182SOL    HW2  556   1.675   0.951   1.181
  183SOL     OW  557   1.225   0.325   0.449
  183SOL    HW1  558   1.290   0.251   0.438
  183SOL    HW2  559   1.245   0.375   0.533
  184SOL     OW  560   0.594   0.745   0.652
  184SOL    HW1  561   0.644   0.830   0.633
  184SOL    HW2  562   0.506   0.747   0.604
  185SOL     OW  563   1.777   0.342   1.642
  185SOL    HW1  564   1.760   0.373   1.548
  185SOL    HW2  565   1.693   0.305   1.680
  186SOL     OW  566   1.730   0.934   1.517
  186SOL    HW1  567   1.768   1.025   1.532
  186SOL    HW2  568   1.722   0.917   1.418
  187SOL     OW  569   0.859   1.374   0.016
  187SOL    HW1  570   0.813   1.389   0.104
  187SOL    HW2  571   0.903   1.459  -0.014
  188SOL     OW  572   0.661   1.790   0.953
  188SOL    HW1  573   0.615   1.878   0.940
  188SOL    HW2  574   0.760   1.802   0.946
  189SOL     OW  575   0.859   0.956   0.861
  189SOL    HW1  576   0.913   0.887   0.909
  189SOL    HW2  577   0.827   1.025   0.927
  190SOL     OW  578   1.083   0.984   0.087
  190SOL    HW1  579   1.060   1.037   0.005
  190SOL    HW2  580   1.164   0.928   0.068
  191SOL     OW  581   1.861   1.569   0.851
  191SOL    HW1  582   1.790   1.557   0.781
  191SOL    HW2  583   1.862   1.490   0.911
  192SOL     OW  584   0.221   1.314   1.844
  192SOL    HW1  585   0.156   1.241   1.823
  192SOL    HW2  586   0.225   1.328   1.942
  193SOL     OW  587   0.079   1.240   0.653
  193SOL    HW1  588   0.078   1.193   0.741
  193SOL    HW2  589   0.161   1.212   0.602
  194SOL     OW  590   0.672   1.391   1.624
  194SOL    HW1  591   0.594   1.341   1.662
  194SOL    HW2  592   0.669   1.486   1.655
  195SOL     OW  593   1.824   0.192   1.227
  195SOL    HW1  594   1.820   0.102   1.271
  195SOL    HW2  595   1.827   0.181   1.128
  196SOL     OW  596   0.428   0.424   0.520
  196SOL    HW1  597   0.458   0.352   0.458
  196SOL    HW2  598   0.389   0.384   0.603
  197SOL     OW  599   1.705   1.487   1.104
  197SOL    HW1  600   1.612   1.462   1.077
  197SOL    HW2  601   1.731   1.437   1.186
  198SOL     OW  602   0.317   0.547   1.280
  198SOL    HW1  603   0.355   0.488   1.352
  198SOL    HW2  604   0.357   0.521   1.192
  199SOL     OW  605   0.812   1.586   0.687
  199SOL    HW1  606   0.844   1.596   0.593
  199SOL    HW2  607   0.733   1.524   0.689
  200SOL     OW  608   1.424   0.214   1.112
  200SOL    HW1  609   1.476   0.149   1.167
  200SOL    HW2  610   1.375   0.277   1.173
  201SOL     OW  611   1.001   0.034   1.154
  201SOL    HW1  612   0.938  -0.038   1.123
  201SOL    HW2  613   1.094  -0.002   1.154
  202SOL     OW  614   0.770   1.330   0.301
  202SOL    HW1  615   0.724   1.243   0.318
  202SOL    HW2  616   0.861   1.327   0.342
  203SOL     OW  617   0.618   1.567   1.284
  203SOL    HW1  618   0.613   1.649   1.341
  203SOL    HW2  619   0.707   1.564   1.239
  204SOL     OW  620   1.352   0.052   0.168
  204SOL    HW1  621   1.387   0.011   0.084
  204SOL    HW2  622   1.262   0.014   0.188
  205SOL     OW  623   1.300   0.453   0.691
  205SOL    HW1  624   1.241   0.533   0.695
  205SOL    HW2  625   1.315   0.418   0.784
  206SOL     OW  626   1.593   0.221   0.882
  206SOL    HW1  627   1.509   0.220   0.936
  206SOL    HW2  628   1.595   0.304   0.826
  207SOL     OW  629   0.039   1.077   0.300
  207SOL    HW1  630   0.138   1.066   0.291
  207SOL    HW2  631  -0.001   0.991   0.332
  208SOL     OW  632   0.875   1.646   0.337
  208SOL    HW1  633   0.798   1.611   0.283
  208SOL    HW2  634   0.843   1.717   0.399
  209SOL     OW  635   0.230   0.628   1.975
  209SOL    HW1  636   0.137   0.626   2.012
  209SOL    HW2  637   0.231   0.589   1.883
  210SOL     OW  638   1.755   0.607   2.093
  210SOL    HW1  639   1.743   0.594   1.994
  210SOL    HW2  640   1.725   0.526   2.142
  211SOL     OW  641   0.231   1.713   2.345
  211SOL    HW1  642   0.265   1.790   2.399
  211SOL    HW2  643   0.275   1.713   2.255
  212SOL     OW  644   0.230   1.434   2.400
  212SOL    HW1  645   0.204   1.530   2.400
  212SOL    HW2  646   0.159   1.380   2.445
  213SOL     OW  647   0.606   0.964   1.985
  213SOL    HW1  648   0.613   1.048   1.931
  213SOL    HW2  649   0.652   0.977   2.073
  214SOL     OW  650   0.122   0.643   2.425
  214SOL    HW1  651   0.077   0.555   2.442
  214SOL    HW2  652   0.121   0.697   2.509
  215SOL     OW  653   1.842   1.767   2.221
  215SOL    HW1  654   1.896   1.738   2.301
  215SOL    HW2  655   1.872   1.857   2.192
  216SOL     OW  656   0.027   1.596   1.979
  216SOL    HW1  657   0.008   1.500   2.000
  216SOL    HW2  658  -0.006   1.654   2.054
  217SOL     OW  659   1.689   0.922   2.474
  217SOL    HW1  660   1.784   0.893   2.482
  217SOL    HW2  661   1.681   0.987   2.399
  218SOL     OW  662   1.641   1.108   2.294
  218SOL    HW1  663   1.727   1.110   2.242
  218SOL    HW2  664   1.655   1.155   2.382
  219SOL     OW  665   0.613   1.365   2.588
  219SOL    HW1  666   0.564   1.278   2.597
  219SOL    HW2  667   0.590   1.408   2.501
  220SOL     OW  668   0.809   0.004   2.364
  220SOL    HW1  669   0.849   0.095   2.355
  220SOL    HW2  670   0.709   0.012   2.370
  221SOL     OW  671   1.525   0.999   2.052
  221SOL    HW1  672   1.462   0.923   2.065
  221SOL    HW2  673   1.573   1.017   2.138
  222SOL     OW  674   1.466   1.417   2.815
  222SOL    HW1  675   1.407   1.423   2.895
  222SOL    HW2  676   1.451   1.329   2.769
  223SOL     OW  677   0.598   0.729   2.132
  223SOL    HW1  678   0.622   0.798   2.064
  223SOL    HW2  679   0.520   0.762   2.186
  224SOL     OW  680   1.576   1.662   2.169
  224SOL    HW1  681   1.665   1.708   2.172
  224SOL    HW2  682   1.555   1.638   2.074
  225SOL     OW  683   1.041   0.701   2.291
  225SOL    HW1  684   1.067   0.697   2.387
  225SOL    HW2  685   0.956   0.650   2.277
  226SOL     OW  686   0.076   0.811   2.651
  226SOL    HW1  687   0.175   0.799   2.660
  226SOL    HW2  688   0.052   0.906   2.672
  227SOL     OW  689   0.865   0.348   2.057
  227SOL    HW1  690   0.924   0.411   2.008
  227SOL    HW2  691   0.884   0.254   2.028
  228SOL     OW  692   1.362   1.144   2.407
  228SOL    HW1  693   1.445   1.115   2.359
  228SOL    HW2  694   1.313   1.211   2.351
  229SOL     OW  695   1.008   1.456   2.339
  229SOL    HW1  696   0.962   1.528   2.287
  229SOL    HW2  697   1.004   1.476   2.437
  230SOL     OW  698   0.351   1.801   2.715
  230SOL    HW1  699   0.401   1.715   2.721
  230SOL    HW2  700   0.416   1.878   2.712
  231SOL     OW  701   0.321   0.943   2.104
  231SOL    HW1  702   0.403   0.982   2.062
  231SOL    HW2  703   0.294   0.861   2.055
  232SOL     OW  704   1.111   1.776   2.099
  232SOL    HW1  705   1.051   1.714   2.149
  232SOL    HW2  706   1.142   1.732   2.014
  233SOL     OW  707   1.632   1.377   1.943
  233SOL    HW1  708   1.600   1.471   1.933
  233SOL    HW2  709   1.556   1.314   1.931
  234SOL     OW  710   0.464   1.743   2.185
  234SOL    HW1  711   0.497   1.782   2.271
  234SOL    HW2  712   0.540   1.736   2.120
  235SOL     OW  713   1.400   0.107   2.288
  235SOL    HW1  714   1.376   0.070   2.198
  235SOL    HW2  715   1.499   0.123   2.292
  236SOL     OW  716   0.382   0.700   2.342
  236SOL    HW1  717   0.427   0.610   2.339
  236SOL    HW2  718   0.288   0.689   2.375
  237SOL     OW  719   0.614   0.122   1.979
  237SOL    HW1  720   0.712   0.100   1.986
  237SOL    HW2  721   0.583   0.105   1.886
  238SOL     OW  722   0.539   0.064   2.374
  238SOL    HW1  723   0.458   0.065   2.432
  238SOL    HW2  724   0.542   0.147   2.319
  239SOL     OW  725   1.434   1.188   1.903
  239SOL    HW1  726   1.466   1.112   1.960
  239SOL    HW2  727   1.342   1.215   1.933
  240SOL     OW  728   0.297   0.035   2.033
  240SOL    HW1  729   0.346   0.119   2.012
  240SOL    HW2  730   0.359  -0.030   2.078
  241SOL     OW  731   0.935   0.236   2.342
  241SOL    HW1  732   0.887   0.277   2.264
  241SOL    HW2  733   1.034   0.234   2.323
  242SOL     OW  734   0.459   1.152   2.603
  242SOL    HW1  735   0.388   1.125   2.668
  242SOL    HW2  736   0.433   1.124   2.510
  243SOL     OW  737   1.271   1.797   2.453
  243SOL    HW1  738   1.315   1.861   2.389
  243SOL    HW2  739   1.221   1.849   2.523
  244SOL     OW  740   1.032   0.549   1.878
  244SOL    HW1  741   0.991   0.631   1.839
  244SOL    HW2  742   1.096   0.575   1.951
  245SOL     OW  743   0.866   0.454   2.504
  245SOL    HW1  744   0.834   0.526   2.442
  245SOL    HW2  745   0.890   0.373   2.451
  246SOL     OW  746   1.857   0.833   2.239
  246SOL    HW1  747   1.899   0.769   2.303
  246SOL    HW2  748   1.819   0.782   2.161
  247SOL     OW  749   0.488   1.385   2.036
  247SOL    HW1  750   0.401   1.370   2.083
  247SOL    HW2  751   0.471   1.411   1.941
  248SOL     OW  752   1.390   0.575   1.940
  248SOL    HW1  753   1.336   0.554   2.021
  248SOL    HW2  754   1.481   0.534   1.949
  249SOL     OW  755   0.527   0.256   2.190
  249SOL    HW1  756   0.554   0.197   2.115
  249SOL    HW2  757   0.527   0.351   2.159
  250SOL     OW  758   0.705   1.050   2.230
  250SOL    HW1  759   0.691   1.057   2.329
  250SOL    HW2  760   0.789   0.999   2.212
  251SOL     OW  761   0.367   1.100   2.363
  251SOL    HW1  762   0.360   1.183   2.307
  251SOL    HW2  763   0.371   1.020   2.303
  252SOL     OW  764   1.252   1.348   2.250
  252SOL    HW1  765   1.302   1.425   2.290
  252SOL    HW2  766   1.157   1.350   2.282
  253SOL     OW  767   1.582   0.639   2.334
  253SOL    HW1  768   1.551   0.700   2.407
  253SOL    HW2  769   1.632   0.691   2.265
  254SOL     OW  770   1.209   0.525   2.137
  254SOL    HW1  771   1.222   0.441   2.191
  254SOL    HW2  772   1.180   0.599   2.197
  255SOL     OW  773   0.307   0.063   2.480
  255SOL    HW1  774   0.296   0.157   2.513
  255SOL    HW2  775   0.302   0.000   2.557
  256SOL     OW  776   1.622   0.367   2.236
  256SOL    HW1  777   1.624   0.291   2.300
  256SOL    HW2  778   1.574   0.444   2.276
  257SOL     OW  779   1.540   0.274   1.987
  257SOL    HW1  780   1.479   0.199   2.010
  257SOL    HW2  781   1.562   0.326   2.070
  258SOL     OW  782   1.303   0.838   1.904
  258SOL    HW1  783   1.337   0.745   1.919
  258SOL    HW2  784   1.321   0.865   1.809
  259SOL     OW  785   0.008   1.326   2.062
  259SOL    HW1  786  -0.085   1.347   2.031
  259SOL    HW2  787   0.018   1.227   2.075
  260SOL     OW  788   0.815   0.572   2.187
  260SOL    HW1  789   0.822   0.483   2.141
  260SOL    HW2  790   0.721   0.606   2.179
  261SOL     OW  791   0.473   0.500   2.053
  261SOL    HW1  792   0.534   0.580   2.057
  261SOL    HW2  793   0.378   0.531   2.060
  262SOL     OW  794   1.302   0.855   2.171
  262SOL    HW1  795   1.216   0.824   2.213
  262SOL    HW2  796   1.298   0.841   2.072
  263SOL     OW  797   1.726   0.135   2.385
  263SOL    HW1  798   1.799   0.118   2.318
  263SOL    HW2  799   1.695   0.048   2.423
  264SOL     OW  800   1.388   1.573   2.339
  264SOL    HW1  801   1.455   1.585   2.265
  264SOL    HW2  802   1.348   1.662   2.362
  265SOL     OW  803   0.672   1.616   2.016
  265SOL    HW1  804   0.681   1.626   1.917
  265SOL    HW2  805   0.632   1.527   2.037
  266SOL     OW  806   1.841   0.175   2.825
  266SOL    HW1  807   1.880   0.090   2.789
  266SOL    HW2  808   1.743   0.177   2.806
  267SOL     OW  809   1.194   1.612   1.893
  267SOL    HW1  810   1.200   1.519   1.930
  267SOL    HW2  811   1.135   1.612   1.813
  268SOL     OW  812   0.916   0.910   2.153
  268SOL    HW1  813   0.979   0.948   2.085
  268SOL    HW2  814   0.956   0.827   2.192
  269SOL     OW  815   1.504   1.607   1.906
  269SOL    HW1  816   1.412   1.644   1.913
  269SOL    HW2  817   1.542   1.627   1.816
  270SOL     OW  818   0.590   1.487   2.353
  270SOL    HW1  819   0.632   1.429   2.283
  270SOL    HW2  820   0.546   1.566   2.309
  271SOL     OW  821   0.255   1.348   2.152
  271SOL    HW1  822   0.159   1.349   2.125
  271SOL    HW2  823   0.267   1.401   2.236
  272SOL     OW  824   0.075   0.345   1.895
  272SOL    HW1  825  -0.017   0.317   1.866
  272SOL    HW2  826   0.106   0.422   1.839
  273SOL     OW  827   0.072   0.166   2.180
  273SOL    HW1  828   0.055   0.249   2.126
  273SOL    HW2  829   0.162   0.129   2.158
  274SOL     OW  830   1.183   1.335   1.981
  274SOL    HW1  831   1.084   1.324   1.983
  274SOL    HW2  832   1.217   1.350   2.074
  275SOL     OW  833   1.225   0.325   2.311
  275SOL    HW1  834   1.290   0.251   2.300
  275SOL    HW2  835   1.245   0.375   2.395
  276SOL     OW  836   0.594   0.745   2.514
  276SOL    HW1  837   0.644   0.830   2.495
  276SOL    HW2  838   0.506   0.747   2.466
  277SOL     OW  839   0.859   1.374   1.878
  277SOL    HW1  840   0.813   1.389   1.966
  277SOL    HW2  841   0.903   1.459   1.848
  278SOL     OW  842   1.083   0.984   1.949
  278SOL    HW1  843   1.060   1.037   1.867
  278SOL    HW2  844   1.164   0.928   1.930
  279SOL     OW  845   0.079   1.240   2.515
  279SOL    HW1  846   0.078   1.193   2.603
  279SOL    HW2  847   0.161   1.212   2.464
  280SOL     OW  848   0.428   0.424   2.382
  280SOL    HW1  849   0.458   0.352   2.320
  280SOL    HW2  850   0.389   0.384   2.465
  281SOL     OW  851   0.770   1.330   2.163
  281SOL    HW1  852   0.724   1.243   2.180
  281SOL    HW2  853   0.861   1.327   2.204
  282SOL     OW  854   1.352   0.052   2.030
  282SOL    HW1  855   1.387   0.011   1.946
  282SOL    HW2  856   1.262   0.014   2.050
  283SOL     OW  857   1.300   0.453   2.553
  283SOL    HW1  858   1.241   0.533   2.557
  283SOL    HW2  859   1.315   0.418   2.646
  284SOL     OW  860   0.039   1.077   2.162
  284SOL    HW1  861   0.138   1.066   2.153
  284SOL    HW2  862  -0.001   0.991   2.194
  285SOL     OW  863   0.875   1.646   2.199
  285SOL    HW1  864   0.798   1.611   2.145
  285SOL    HW2  865   0.843   1.717   2.261
  286SOL     OW  866   0.225   2.137   0.996
  286SOL    HW1  867   0.260   2.120   1.088
  286SOL    HW2  868   0.137   2.092   0.984
  287SOL     OW  869   0.019   2.230   0.647
  287SOL    HW1  870  -0.063   2.273   0.686
  287SOL    HW2  871  -0.009   2.157   0.584
  288SOL     OW  872   1.755   2.469   0.231
  288SOL    HW1  873   1.743   2.456   0.132
  288SOL    HW2  874   1.725   2.388   0.280
  289SOL     OW  875   0.438   2.254   1.499
  289SOL    HW1  876   0.520   2.198   1.508
  289SOL    HW2  877   0.357   2.196   1.503
  290SOL     OW  878   1.603   2.309   0.737
  290SOL    HW1  879   1.529   2.355   0.687
  290SOL    HW2  880   1.654   2.377   0.790
  291SOL     OW  881   1.594   1.976   1.480
  291SOL    HW1  882   1.576   2.043   1.408
  291SOL    HW2  883   1.591   2.022   1.569
  292SOL     OW  884   0.122   2.505   0.563
  292SOL    HW1  885   0.077   2.417   0.580
  292SOL    HW2  886   0.121   2.559   0.647
  293SOL     OW  887   0.113   2.599   1.597
  293SOL    HW1  888   0.201   2.586   1.642
  293SOL    HW2  889   0.100   2.696   1.575
  294SOL     OW  890   0.809   1.866   0.502
  294SOL    HW1  891   0.849   1.957   0.493
  294SOL    HW2  892   0.709   1.874   0.508
  295SOL     OW  893   0.317   2.113   1.801
  295SOL    HW1  894   0.388   2.184   1.807
  295SOL    HW2  895   0.229   2.152   1.829
  296SOL     OW  896   1.281   2.207   0.944
  296SOL    HW1  897   1.195   2.157   0.931
  296SOL    HW2  898   1.343   2.153   1.000
  297SOL     OW  899   0.807   2.467   1.465
  297SOL    HW1  900   0.760   2.464   1.554
  297SOL    HW2  901   0.756   2.412   1.399
  298SOL     OW  902   1.394   2.331   1.674
  298SOL    HW1  903   1.374   2.374   1.762
  298SOL    HW2  904   1.472   2.269   1.683
  299SOL     OW  905   0.991   2.272   1.242
  299SOL    HW1  906   0.914   2.306   1.296
  299SOL    HW2  907   0.957   2.221   1.163
  300SOL     OW  908   1.041   2.563   0.429
  300SOL    HW1  909   1.067   2.559   0.525
  300SOL    HW2  910   0.956   2.512   0.415
  301SOL     OW  911   0.076   2.673   0.789
  301SOL    HW1  912   0.175   2.661   0.798
  301SOL    HW2  913   0.052   2.768   0.810
  302SOL     OW  914   0.865   2.210   0.195
  302SOL    HW1  915   0.924   2.273   0.146
  302SOL    HW2  916   0.884   2.116   0.166
  303SOL     OW  917   1.719   2.447   1.831
  303SOL    HW1  918   1.693   2.536   1.795
  303SOL    HW2  919   1.717   2.379   1.758
  304SOL     OW  920   0.550   2.058   0.885
  304SOL    HW1  921   0.545   2.053   0.985
  304SOL    HW2  922   0.552   2.154   0.856
  305SOL     OW  923   1.458   2.597   0.728
  305SOL    HW1  924   1.453   2.532   0.803
  305SOL    HW2  925   1.538   2.656   0.741
  306SOL     OW  926   0.202   2.147   1.498
  306SOL    HW1  927   0.122   2.207   1.485
  306SOL    HW2  928   0.192   2.098   1.584
  307SOL     OW  929   1.400   1.969   0.426
  307SOL    HW1  930   1.376   1.932   0.336
  307SOL    HW2  931   1.499   1.985   0.430
  308SOL     OW  932   1.547   2.084   1.729
  308SOL    HW1  933   1.542   2.121   1.821
  308SOL    HW2  934   1.475   2.015   1.717
  309SOL     OW  935   0.614   1.984   0.117
  309SOL    HW1  936   0.712   1.962   0.124
  309SOL    HW2  937   0.583   1.967   0.024
  310SOL     OW  938   0.781   2.126   1.749
  310SOL    HW1  939   0.848   2.065   1.792
  310SOL    HW2  940   0.708   2.145   1.814
  311SOL     OW  941   1.351   2.452   1.433
  311SOL    HW1  942   1.379   2.409   1.518
  311SOL    HW2  943   1.376   2.548   1.434
  312SOL     OW  944   0.922   2.365   0.899
  312SOL    HW1  945   0.897   2.356   0.803
  312SOL    HW2  946   0.970   2.283   0.930
  313SOL     OW  947   0.539   1.926   0.512
  313SOL    HW1  948   0.458   1.927   0.570
  313SOL    HW2  949   0.542   2.009   0.457
  314SOL     OW  950   0.935   2.098   0.480
  314SOL    HW1  951   0.887   2.139   0.402
  314SOL    HW2  952   1.034   2.096   0.461
  315SOL     OW  953   1.076   2.545   1.464
  315SOL    HW1  954   0.996   2.484   1.467
  315SOL    HW2  955   1.157   2.492   1.440
  316SOL     OW  956   1.032   2.411   0.016
  316SOL    HW1  957   0.991   2.493  -0.023
  316SOL    HW2  958   1.096   2.437   0.089
  317SOL     OW  959   0.078   2.418   1.386
  317SOL    HW1  960   0.170   2.417   1.345
  317SOL    HW2  961   0.072   2.492   1.453
  318SOL     OW  962   0.561   2.084   1.147
  318SOL    HW1  963   0.599   2.000   1.184
  318SOL    HW2  964   0.473   2.103   1.191
  319SOL     OW  965   0.866   2.316   0.642
  319SOL    HW1  966   0.834   2.388   0.580
  319SOL    HW2  967   0.890   2.235   0.589
  320SOL     OW  968   1.017   1.901   0.753
  320SOL    HW1  969   0.945   1.906   0.684
  320SOL    HW2  970   0.993   1.832   0.822
  321SOL     OW  971   1.466   2.452   0.992
  321SOL    HW1  972   1.436   2.357   0.999
  321SOL    HW2  973   1.539   2.468   1.058
  322SOL     OW  974   0.527   2.118   0.328
  322SOL    HW1  975   0.554   2.059   0.253
  322SOL    HW2  976   0.527   2.213   0.297
  323SOL     OW  977   0.915   1.951   1.402
  323SOL    HW1  978   0.940   1.931   1.307
  323SOL    HW2  979   0.987   2.007   1.444
  324SOL     OW  980   1.274   2.248   1.262
  324SOL    HW1  981   1.295   2.322   1.326
  324SOL    HW2  982   1.185   2.265   1.219
  325SOL     OW  983   0.566   2.399   0.865
  325SOL    HW1  984   0.578   2.465   0.791
  325SOL    HW2  985   0.612   2.433   0.948
  326SOL     OW  986   1.582   2.501   0.472
  326SOL    HW1  987   1.551   2.562   0.545
  326SOL    HW2  988   1.632   2.553   0.403
  327SOL     OW  989   1.013   1.967   1.770
  327SOL    HW1  990   1.019   2.052   1.718
  327SOL    HW2  991   1.045   1.891   1.713
  328SOL     OW  992   0.504   1.912   1.740
  328SOL    HW1  993   0.462   1.855   1.670
  328SOL    HW2  994   0.438   1.981   1.772
  329SOL     OW  995   1.209   2.387   0.275
  329SOL    HW1  996   1.222   2.303   0.329
  329SOL    HW2  997   1.180   2.461   0.335
  330SOL     OW  998   0.307   2.075   1.231
  330SOL    HW1  999   0.284   2.112   1.321
  330SOL    HW2 1000   0.277   1.980   1.225
  331SOL     OW 1001   0.732   2.496   1.064
  331SOL    HW1 1002   0.791   2.470   0.988
  331SOL    HW2 1003   0.704   2.592   1.053
  332SOL     OW 1004   0.307   1.925   0.618
  332SOL    HW1 1005   0.296   2.019   0.651
  332SOL    HW2 1006   0.302   1.862   0.695
  333SOL     OW 1007   1.622   2.229   0.374
  333SOL    HW1 1008   1.624   2.153   0.438
  333SOL    HW2 1009   1.574   2.306   0.414
  334SOL     OW 1010   1.540   2.136   0.125
  334SOL    HW1 1011   1.479   2.061   0.148
  334SOL    HW2 1012   1.562   2.188   0.208
  335SOL     OW 1013   0.319   2.672   0.949
  335SOL    HW1 1014   0.412   2.708   0.954
  335SOL    HW2 1015   0.313   2.587   1.001
  336SOL     OW 1016   0.339   2.371   1.006
  336SOL    HW1 1017   0.287   2.288   0.989
  336SOL    HW2 1018   0.416   2.376   0.942
  337SOL     OW 1019   1.138   2.242   1.678
  337SOL    HW1 1020   1.093   2.305   1.742
  337SOL    HW2 1021   1.231   2.273   1.661
  338SOL     OW 1022   1.160   2.069   1.477
  338SOL    HW1 1023   1.160   2.133   1.554
  338SOL    HW2 1024   1.188   2.117   1.394
  339SOL     OW 1025   0.040   2.406   1.114
  339SOL    HW1 1026   0.125   2.373   1.073
  339SOL    HW2 1027   0.053   2.421   1.212
  340SOL     OW 1028   0.189   2.382   1.722
  340SOL    HW1 1029   0.248   2.342   1.652
  340SOL    HW2 1030   0.131   2.453   1.681
  341SOL     OW 1031   0.815   2.434   0.325
  341SOL    HW1 1032   0.822   2.345   0.279
  341SOL    HW2 1033   0.721   2.468   0.317
  342SOL     OW 1034   1.657   2.466   1.206
  342SOL    HW1 1035   1.619   2.397   1.268
  342SOL    HW2 1036   1.739   2.430   1.162
  343SOL     OW 1037   0.671   2.326   1.269
  343SOL    HW1 1038   0.637   2.237   1.239
  343SOL    HW2 1039   0.697   2.380   1.189
  344SOL     OW 1040   0.473   2.362   0.191
  344SOL    HW1 1041   0.534   2.442   0.195
  344SOL    HW2 1042   0.378   2.393   0.198
  345SOL     OW 1043   0.903   1.948   0.133
  345SOL    HW1 1044   0.954   1.949   0.047
  345SOL    HW2 1045   0.959   1.906   0.204
  346SOL     OW 1046   1.726   1.997   0.523
  346SOL    HW1 1047   1.799   1.980   0.456
  346SOL    HW2 1048   1.695   1.910   0.561
  347SOL     OW 1049   1.841   2.037   0.963
  347SOL    HW1 1050   1.880   1.952   0.927
  347SOL    HW2 1051   1.743   2.039   0.944
  348SOL     OW 1052   0.263   2.188   0.720
  348SOL    HW1 1053   0.184   2.239   0.686
  348SOL    HW2 1054   0.254   2.173   0.818
  349SOL     OW 1055   1.014   2.098   0.971
  349SOL    HW1 1056   1.006   2.062   0.878
  349SOL    HW2 1057   1.012   2.022   1.036
  350SOL     OW 1058   1.709   2.247   1.381
  350SOL    HW1 1059   1.782   2.316   1.385
  350SOL    HW2 1060   1.737   2.172   1.322
  351SOL     OW 1061   0.672   2.065   1.489
  351SOL    HW1 1062   0.762   2.049   1.449
  351SOL    HW2 1063   0.680   2.070   1.588
  352SOL     OW 1064   0.075   2.207   0.033
  352SOL    HW1 1065  -0.017   2.179   0.004
  352SOL    HW2 1066   0.106   2.284  -0.023
  353SOL     OW 1067   0.072   2.028   0.318
  353SOL    HW1 1068   0.055   2.111   0.264
  353SOL    HW2 1069   0.162   1.991   0.296
  354SOL     OW 1070   0.716   2.427   1.708
  354SOL    HW1 1071   0.735   2.492   1.782
  354SOL    HW2 1072   0.776   2.347   1.717
  355SOL     OW 1073   1.225   2.187   0.449
  355SOL    HW1 1074   1.290   2.113   0.438
  355SOL    HW2 1075   1.245   2.237   0.533
  356SOL     OW 1076   1.777   2.204   1.642
  356SOL    HW1 1077   1.760   2.235   1.548
  356SOL    HW2 1078   1.693   2.167   1.680
  357SOL     OW 1079   1.083   2.846   0.087
  357SOL    HW1 1080   1.060   2.899   0.005
  357SOL    HW2 1081   1.164   2.790   0.068
  358SOL     OW 1082   1.824   2.054   1.227
  358SOL    HW1 1083   1.820   1.964   1.271
  358SOL    HW2 1084   1.827   2.043   1.128
  359SOL     OW 1085   0.428   2.286   0.520
  359SOL    HW1 1086   0.458   2.214   0.458
  359SOL    HW2 1087   0.389   2.246   0.603
  360SOL     OW 1088   0.317   2.409   1.280
  360SOL    HW1 1089   0.355   2.350   1.352
  360SOL    HW2 1090   0.357   2.383   1.192
  361SOL     OW 1091   1.424   2.076   1.112
  361SOL    HW1 1092   1.476   2.011   1.167
  361SOL    HW2 1093   1.375   2.139   1.173
  362SOL     OW 1094   1.001   1.896   1.154
  362SOL    HW1 1095   0.938   1.824   1.123
  362SOL    HW2 1096   1.094   1.860   1.154
  363SOL     OW 1097   1.352   1.914   0.168
  363SOL    HW1 1098   1.387   1.873   0.084
  363SOL    HW2 1099   1.262   1.876   0.188
  364SOL     OW 1100   1.300   2.315   0.691
  364SOL    HW1 1101   1.241   2.395   0.695
  364SOL    HW2 1102   1.315   2.280   0.784
  365SOL     OW 1103   1.593   2.083   0.882
  365SOL    HW1 1104   1.509   2.082   0.936
  365SOL    HW2 1105   1.595   2.166   0.826
  366SOL     OW 1106   1.755   2.469   2.093
  366SOL    HW1 1107   1.743   2.456   1.994
  366SOL    HW2 1108   1.725   2.388   2.142
  367SOL     OW 1109   0.122   2.505   2.425
  367SOL    HW1 1110   0.077   2.417   2.442
  367SOL    HW2 1111   0.121   2.559   2.509
  368SOL     OW 1112   0.809   1.866   2.364
  368SOL    HW1 1113   0.849   1.957   2.355
  368SOL    HW2 1114   0.709   1.874   2.370
  369SOL     OW 1115   1.041   2.563   2.291
  369SOL    HW1 1116   1.067   2.559   2.387
  369SOL    HW2 1117   0.956   2.512   2.277
  370SOL     OW 1118   0.076   2.673   2.651
  370SOL    HW1 1119   0.175   2.661   2.660
  370SOL    HW2 1120   0.052   2.768   2.672
  371SOL     OW 1121   0.865   2.210   2.057
  371SOL    HW1 1122   0.924   2.273   2.008
  371SOL    HW2 1123   0.884   2.116   2.028
  372SOL     OW 1124   1.400   1.969   2.288
  372SOL    HW1 1125   1.376   1.932   2.198
  372SOL    HW2 1126   1.499   1.985   2.292
  373SOL     OW 1127   0.614   1.984   1.979
  373SOL    HW1 1128   0.712   1.962   1.986
  373SOL    HW2 1129   0.583   1.967   1.886
  374SOL     OW 1130   0.539   1.926   2.374
  374SOL    HW1 1131   0.458   1.927   2.432
  374SOL    HW2 1132   0.542   2.009   2.319
  375SOL     OW 1133   0.297   1.897   2.033
  375SOL    HW1 1134   0.346   1.981   2.012
  375SOL    HW2 1135   0.359   1.832   2.078
  376SOL     OW 1136   0.935   2.098   2.342
  376SOL    HW1 1137   0.887   2.139   2.264
  376SOL    HW2 1138   1.034   2.096   2.323
  377SOL     OW 1139   1.032   2.411   1.878
  377SOL    HW1 1140   0.991   2.493   1.839
  377SOL    HW2 1141   1.096   2.437   1.951
  378SOL     OW 1142   0.866   2.316   2.504
  378SOL    HW1 1143   0.834   2.388   2.442
  378SOL    HW2 1144   0.890   2.235   2.451
  379SOL     OW 1145   0.527   2.118   2.190
  379SOL    HW1 1146   0.554   2.059   2.115
  379SOL    HW2 1147   0.527   2.213   2.159
  380SOL     OW 1148   1.582   2.501   2.334
  380SOL    HW1 1149   1.551   2.562   2.407
  380SOL    HW2 1150   1.632   2.553   2.265
  381SOL     OW 1151   1.209   2.387   2.137
  381SOL    HW1 1152   1.222   2.303   2.191
  381SOL    HW2 1153   1.180   2.461   2.197
  382SOL     OW 1154   0.307   1.925   2.480
  382SOL    HW1 1155   0.296   2.019   2.513
  382SOL    HW2 1156   0.302   1.862   2.557
  383SOL     OW 1157   1.622   2.229   2.236
  383SOL    HW1 1158   1.624   2.153   2.300
  383SOL    HW2 1159   1.574   2.306   2.276
  384SOL     OW 1160   1.540   2.136   1.987
  384SOL    HW1 1161   1.479   2.061   2.010
  384SOL    HW2 1162   1.562   2.188   2.070
  385SOL     OW 1163   0.815   2.434   2.187
  385SOL    HW1 1164   0.822   2.345   2.141
  385SOL    HW2 1165   0.721   2.468   2.179
  386SOL     OW 1166   0.473   2.362   2.053
  386SOL    HW1 1167   0.534   2.442   2.057
  386SOL    HW2 1168   0.378   2.393   2.060
  387SOL     OW 1169   1.726   1.997   2.385
  387SOL    HW1 1170   1.799   1.980   2.318
  387SOL    HW2 1171   1.695   1.910   2.423
  388SOL     OW 1172   1.841   2.037   2.825
  388SOL    HW1 1173   1.880   1.952   2.789
  388SOL    HW2 1174   1.743   2.039   2.806
  389SOL     OW 1175   0.075   2.207   1.895
  389SOL    HW1 1176  -0.017   2.179   1.866
  389SOL    HW2 1177   0.106   2.284   1.839
  390SOL     OW 1178   0.072   2.028   2.180
  390SOL    HW1 1179   0.055   2.111   2.126
  390SOL    HW2 1180   0.162   1.991   2.158
  391SOL     OW 1181   1.225   2.187   2.311
  391SOL    HW1 1182   1.290   2.113   2.300
  391SOL    HW2 1183   1.245   2.237   2.395
  392SOL     OW 1184   1.083   2.846   1.949
  392SOL    HW1 1185   1.060   2.899   1.867
  392SOL    HW2 1186   1.164   2.790   1.930
  393SOL     OW 1187   0.428   2.286   2.382
  393SOL    HW1 1188   0.458   2.214   2.320
  393SOL    HW2 1189   0.389   2.246   2.465
  394SOL     OW 1190   1.352   1.914   2.030
  394SOL    HW1 1191   1.387   1.873   1.946
  394SOL    HW2 1192   1.262   1.876   2.050
  395SOL     OW 1193   1.300   2.315   2.553
  395SOL    HW1 1194   1.241   2.395   2.557
  395SOL    HW2 1195   1.315   2.280   2.646
  396SOL     OW 1196   2.092   0.628   0.113
  396SOL    HW1 1197   1.999   0.626   0.150
  396SOL    HW2 1198   2.093   0.589   0.021
  397SOL     OW 1199   2.087   0.275   0.996
  397SOL    HW1 1200   2.122   0.258   1.088
  397SOL    HW2 1201   1.999   0.230   0.984
  398SOL     OW 1202   1.881   0.368   0.647
  398SOL    HW1 1203   1.799   0.411   0.686
  398SOL    HW2 1204   1.853   0.295   0.584
  399SOL     OW 1205   2.431   1.275   1.165
  399SOL    HW1 1206   2.338   1.268   1.128
  399SOL    HW2 1207   2.442   1.364   1.209
  400SOL     OW 1208   2.712   0.798   1.823
  400SOL    HW1 1209   2.708   0.874   1.888
  400SOL    HW2 1210   2.734   0.834   1.732
  401SOL     OW 1211   2.197   1.435   1.061
  401SOL    HW1 1212   2.119   1.404   1.008
  401SOL    HW2 1213   2.255   1.493   1.004
  402SOL     OW 1214   2.300   0.392   1.499
  402SOL    HW1 1215   2.382   0.336   1.508
  402SOL    HW2 1216   2.219   0.334   1.503
  403SOL     OW 1217   2.093   1.713   0.483
  403SOL    HW1 1218   2.127   1.790   0.537
  403SOL    HW2 1219   2.137   1.713   0.393
  404SOL     OW 1220   2.092   1.434   0.538
  404SOL    HW1 1221   2.066   1.530   0.538
  404SOL    HW2 1222   2.021   1.380   0.583
  405SOL     OW 1223   2.102   1.091   0.886
  405SOL    HW1 1224   2.116   1.007   0.938
  405SOL    HW2 1225   2.047   1.155   0.941
  406SOL     OW 1226   1.984   0.643   0.563
  406SOL    HW1 1227   1.939   0.555   0.580
  406SOL    HW2 1228   1.983   0.697   0.647
  407SOL     OW 1229   1.889   1.596   0.117
  407SOL    HW1 1230   1.870   1.500   0.138
  407SOL    HW2 1231   1.856   1.654   0.192
  408SOL     OW 1232   1.975   0.737   1.597
  408SOL    HW1 1233   2.063   0.724   1.642
  408SOL    HW2 1234   1.962   0.834   1.575
  409SOL     OW 1235   2.475   1.365   0.726
  409SOL    HW1 1236   2.426   1.278   0.735
  409SOL    HW2 1237   2.452   1.408   0.639
  410SOL     OW 1238   2.059   0.976   1.264
  410SOL    HW1 1239   2.148   0.931   1.250
  410SOL    HW2 1240   1.986   0.911   1.245
  411SOL     OW 1241   2.179   0.251   1.801
  411SOL    HW1 1242   2.250   0.322   1.807
  411SOL    HW2 1243   2.091   0.290   1.829
  412SOL     OW 1244   2.460   0.729   0.270
  412SOL    HW1 1245   2.484   0.798   0.202
  412SOL    HW2 1246   2.382   0.762   0.324
  413SOL     OW 1247   1.938   0.811   0.789
  413SOL    HW1 1248   2.037   0.799   0.798
  413SOL    HW2 1249   1.914   0.906   0.810
  414SOL     OW 1250   1.992   1.821   1.571
  414SOL    HW1 1251   1.982   1.806   1.670
  414SOL    HW2 1252   1.906   1.857   1.535
  415SOL     OW 1253   2.727   0.348   0.195
  415SOL    HW1 1254   2.786   0.411   0.146
  415SOL    HW2 1255   2.746   0.254   0.166
  416SOL     OW 1256   2.412   0.196   0.885
  416SOL    HW1 1257   2.407   0.191   0.985
  416SOL    HW2 1258   2.414   0.292   0.856
  417SOL     OW 1259   2.213   1.801   0.853
  417SOL    HW1 1260   2.263   1.715   0.859
  417SOL    HW2 1261   2.278   1.878   0.850
  418SOL     OW 1262   2.183   0.943   0.242
  418SOL    HW1 1263   2.265   0.982   0.200
  418SOL    HW2 1264   2.156   0.861   0.193
  419SOL     OW 1265   2.323   1.266   1.727
  419SOL    HW1 1266   2.273   1.267   1.641
  419SOL    HW2 1267   2.260   1.248   1.803
  420SOL     OW 1268   2.064   0.285   1.498
  420SOL    HW1 1269   1.984   0.345   1.485
  420SOL    HW2 1270   2.054   0.236   1.584
  421SOL     OW 1271   2.326   1.743   0.323
  421SOL    HW1 1272   2.359   1.782   0.409
  421SOL    HW2 1273   2.402   1.736   0.258
  422SOL     OW 1274   2.111   1.785   1.241
  422SOL    HW1 1275   2.168   1.720   1.291
  422SOL    HW2 1276   2.095   1.752   1.148
  423SOL     OW 1277   2.244   0.700   0.480
  423SOL    HW1 1278   2.289   0.610   0.477
  423SOL    HW2 1279   2.150   0.689   0.513
  424SOL     OW 1280   2.665   1.402   0.924
  424SOL    HW1 1281   2.755   1.416   0.882
  424SOL    HW2 1282   2.594   1.404   0.853
  425SOL     OW 1283   2.401   0.064   0.512
  425SOL    HW1 1284   2.320   0.065   0.570
  425SOL    HW2 1285   2.404   0.147   0.457
  426SOL     OW 1286   2.159   0.035   0.171
  426SOL    HW1 1287   2.208   0.119   0.150
  426SOL    HW2 1288   2.221  -0.030   0.216
  427SOL     OW 1289   2.797   0.236   0.480
  427SOL    HW1 1290   2.749   0.277   0.402
  427SOL    HW2 1291   2.896   0.234   0.461
  428SOL     OW 1292   2.321   1.152   0.741
  428SOL    HW1 1293   2.250   1.125   0.806
  428SOL    HW2 1294   2.295   1.124   0.648
  429SOL     OW 1295   1.940   0.556   1.386
  429SOL    HW1 1296   2.032   0.555   1.345
  429SOL    HW2 1297   1.934   0.630   1.453
  430SOL     OW 1298   2.423   0.222   1.147
  430SOL    HW1 1299   2.461   0.138   1.184
  430SOL    HW2 1300   2.335   0.241   1.191
  431SOL     OW 1301   2.389   0.256   0.328
  431SOL    HW1 1302   2.416   0.197   0.253
  431SOL    HW2 1303   2.389   0.351   0.297
  432SOL     OW 1304   2.272   0.813   1.251
  432SOL    HW1 1305   2.358   0.825   1.301
  432SOL    HW2 1306   2.230   0.726   1.278
  433SOL     OW 1307   1.926   1.564   1.331
  433SOL    HW1 1308   1.880   1.646   1.297
  433SOL    HW2 1309   2.024   1.583   1.340
  434SOL     OW 1310   2.229   1.100   0.501
  434SOL    HW1 1311   2.222   1.183   0.445
  434SOL    HW2 1312   2.233   1.020   0.441
  435SOL     OW 1313   2.428   0.537   0.865
  435SOL    HW1 1314   2.440   0.603   0.791
  435SOL    HW2 1315   2.474   0.571   0.948
  436SOL     OW 1316   2.216   1.510   1.329
  436SOL    HW1 1317   2.195   1.466   1.242
  436SOL    HW2 1318   2.313   1.536   1.332
  437SOL     OW 1319   2.264   0.751   1.598
  437SOL    HW1 1320   2.332   0.806   1.551
  437SOL    HW2 1321   2.304   0.663   1.625
  438SOL     OW 1322   2.366   0.050   1.740
  438SOL    HW1 1323   2.324  -0.007   1.670
  438SOL    HW2 1324   2.300   0.119   1.772
  439SOL     OW 1325   2.435   0.870   1.029
  439SOL    HW1 1326   2.479   0.959   1.020
  439SOL    HW2 1327   2.372   0.870   1.106
  440SOL     OW 1328   2.169   0.213   1.231
  440SOL    HW1 1329   2.146   0.250   1.321
  440SOL    HW2 1330   2.139   0.118   1.225
  441SOL     OW 1331   1.899   1.310   1.282
  441SOL    HW1 1332   1.952   1.261   1.350
  441SOL    HW2 1333   1.921   1.408   1.287
  442SOL     OW 1334   2.169   0.063   0.618
  442SOL    HW1 1335   2.158   0.157   0.651
  442SOL    HW2 1336   2.164   0.000   0.695
  443SOL     OW 1337   2.212   0.898   1.804
  443SOL    HW1 1338   2.288   0.942   1.852
  443SOL    HW2 1339   2.247   0.851   1.722
  444SOL     OW 1340   2.181   0.810   0.949
  444SOL    HW1 1341   2.274   0.846   0.954
  444SOL    HW2 1342   2.175   0.725   1.001
  445SOL     OW 1343   2.201   0.509   1.006
  445SOL    HW1 1344   2.149   0.426   0.989
  445SOL    HW2 1345   2.278   0.514   0.942
  446SOL     OW 1346   1.870   1.326   0.200
  446SOL    HW1 1347   1.777   1.347   0.169
  446SOL    HW2 1348   1.880   1.227   0.213
  447SOL     OW 1349   1.950   1.801   0.927
  447SOL    HW1 1350   1.908   1.715   0.900
  447SOL    HW2 1351   2.044   1.804   0.893
  448SOL     OW 1352   2.366   1.568   0.910
  448SOL    HW1 1353   2.432   1.642   0.919
  448SOL    HW2 1354   2.410   1.489   0.868
  449SOL     OW 1355   1.902   0.544   1.114
  449SOL    HW1 1356   1.987   0.511   1.073
  449SOL    HW2 1357   1.915   0.559   1.212
  450SOL     OW 1358   2.051   0.520   1.722
  450SOL    HW1 1359   2.110   0.480   1.652
  450SOL    HW2 1360   1.993   0.591   1.681
  451SOL     OW 1361   2.677   0.572   0.325
  451SOL    HW1 1362   2.684   0.483   0.279
  451SOL    HW2 1363   2.583   0.606   0.317
  452SOL     OW 1364   2.114   1.564   1.744
  452SOL    HW1 1365   2.084   1.621   1.820
  452SOL    HW2 1366   2.107   1.467   1.770
  453SOL     OW 1367   2.335   0.500   0.191
  453SOL    HW1 1368   2.396   0.580   0.195
  453SOL    HW2 1369   2.240   0.531   0.198
  454SOL     OW 1370   2.021   1.137   1.466
  454SOL    HW1 1371   2.043   1.076   1.542
  454SOL    HW2 1372   2.031   1.088   1.380
  455SOL     OW 1373   1.945   1.258   1.022
  455SOL    HW1 1374   1.940   1.257   1.122
  455SOL    HW2 1375   1.862   1.217   0.984
  456SOL     OW 1376   2.550   1.662   1.716
  456SOL    HW1 1377   2.494   1.743   1.725
  456SOL    HW2 1378   2.602   1.666   1.630
  457SOL     OW 1379   1.992   1.794   1.851
  457SOL    HW1 1380   1.951   1.720   1.904
  457SOL    HW2 1381   2.056   1.845   1.909
  458SOL     OW 1382   2.125   0.326   0.720
  458SOL    HW1 1383   2.046   0.377   0.686
  458SOL    HW2 1384   2.116   0.311   0.818
  459SOL     OW 1385   2.234   1.288   1.490
  459SOL    HW1 1386   2.221   1.381   1.456
  459SOL    HW2 1387   2.150   1.236   1.477
  460SOL     OW 1388   2.452   1.487   0.491
  460SOL    HW1 1389   2.494   1.429   0.421
  460SOL    HW2 1390   2.408   1.566   0.447
  461SOL     OW 1391   2.117   1.348   0.290
  461SOL    HW1 1392   2.021   1.349   0.263
  461SOL    HW2 1393   2.129   1.401   0.374
  462SOL     OW 1394   1.967   1.013   1.726
  462SOL    HW1 1395   1.890   0.980   1.780
  462SOL    HW2 1396   2.052   0.983   1.768
  463SOL     OW 1397   2.534   0.203   1.489
  463SOL    HW1 1398   2.624   0.187   1.449
  463SOL    HW2 1399   2.542   0.208   1.588
  464SOL     OW 1400   1.937   0.345   0.033
  464SOL    HW1 1401   1.845   0.317   0.004
  464SOL    HW2 1402   1.968   0.422  -0.023
  465SOL     OW 1403   2.475   0.842   1.431
  465SOL    HW1 1404   2.531   0.923   1.414
  465SOL    HW2 1405   2.534   0.762   1.434
  466SOL     OW 1406   2.252   1.741   1.560
  466SOL    HW1 1407   2.161   1.782   1.558
  466SOL    HW2 1408   2.245   1.647   1.592
  467SOL     OW 1409   2.456   0.745   0.652
  467SOL    HW1 1410   2.506   0.830   0.633
  467SOL    HW2 1411   2.368   0.747   0.604
  468SOL     OW 1412   2.083   1.314   1.844
  468SOL    HW1 1413   2.018   1.241   1.823
  468SOL    HW2 1414   2.087   1.328   1.942
  469SOL     OW 1415   1.941   1.240   0.653
  469SOL    HW1 1416   1.940   1.193   0.741
  469SOL    HW2 1417   2.023   1.212   0.602
  470SOL     OW 1418   2.534   1.391   1.624
  470SOL    HW1 1419   2.456   1.341   1.662
  470SOL    HW2 1420   2.531   1.486   1.655
  471SOL     OW 1421   2.290   0.424   0.520
  471SOL    HW1 1422   2.320   0.352   0.458
  471SOL    HW2 1423   2.251   0.384   0.603
  472SOL     OW 1424   2.179   0.547   1.280
  472SOL    HW1 1425   2.217   0.488   1.352
  472SOL    HW2 1426   2.219   0.521   1.192
  473SOL     OW 1427   1.901   1.077   0.300
  473SOL    HW1 1428   2.000   1.066   0.291
  473SOL    HW2 1429   1.861   0.991   0.332
  474SOL     OW 1430   2.092   0.628   1.975
  474SOL    HW1 1431   1.999   0.626   2.012
  474SOL    HW2 1432   2.093   0.589   1.883
  475SOL     OW 1433   2.093   1.713   2.345
  475SOL    HW1 1434   2.127   1.790   2.399
  475SOL    HW2 1435   2.137   1.713   2.255
  476SOL     OW 1436   2.092   1.434   2.400
  476SOL    HW1 1437   2.066   1.530   2.400
  476SOL    HW2 1438   2.021   1.380   2.445
  477SOL     OW 1439   1.984   0.643   2.425
  477SOL    HW1 1440   1.939   0.555   2.442
  477SOL    HW2 1441   1.983   0.697   2.509
  478SOL     OW 1442   1.889   1.596   1.979
  478SOL    HW1 1443   1.870   1.500   2.000
  478SOL    HW2 1444   1.856   1.654   2.054
  479SOL     OW 1445   2.460   0.729   2.132
  479SOL    HW1 1446   2.484   0.798   2.064
  479SOL    HW2 1447   2.382   0.762   2.186
  480SOL     OW 1448   1.938   0.811   2.651
  480SOL    HW1 1449   2.037   0.799   2.660
  480SOL    HW2 1450   1.914   0.906   2.672
  481SOL     OW 1451   2.727   0.348   2.057
  481SOL    HW1 1452   2.786   0.411   2.008
  481SOL    HW2 1453   2.746   0.254   2.028
  482SOL     OW 1454   2.213   1.801   2.715
  482SOL    HW1 1455   2.263   1.715   2.721
  482SOL    HW2 1456   2.278   1.878   2.712
  483SOL     OW 1457   2.183   0.943   2.104
  483SOL    HW1 1458   2.265   0.982   2.062
  483SOL    HW2 1459   2.156   0.861   2.055
  484SOL     OW 1460   2.326   1.743   2.185
  484SOL    HW1 1461   2.359   1.782   2.271
  484SOL    HW2 1462   2.402   1.736   2.120
  485SOL     OW 1463   2.244   0.700   2.342
  485SOL    HW1 1464   2.289   0.610   2.339
  485SOL    HW2 1465   2.150   0.689   2.375
  486SOL     OW 1466   2.476   0.122   1.979
  486SOL    HW1 1467   2.574   0.100   1.986
  486SOL    HW2 1468   2.445   0.105   1.886
  487SOL     OW 1469   2.401   0.064   2.374
  487SOL    HW1 1470   2.320   0.065   2.432
  487SOL    HW2 1471   2.404   0.147   2.319
  488SOL     OW 1472   2.159   0.035   2.033
  488SOL    HW1 1473   2.208   0.119   2.012
  488SOL    HW2 1474   2.221  -0.030   2.078
  489SOL     OW 1475   2.797   0.236   2.342
  489SOL    HW1 1476   2.749   0.277   2.264
  489SOL    HW2 1477   2.896   0.234   2.323
  490SOL     OW 1478   2.321   1.152   2.603
  490SOL    HW1 1479   2.250   1.125   2.668
  490SOL    HW2 1480   2.295   1.124   2.510
  491SOL     OW 1481   2.389   0.256   2.190
  491SOL    HW1 1482   2.416   0.197   2.115
  491SOL    HW2 1483   2.389   0.351   2.159
  492SOL     OW 1484   2.229   1.100   2.363
  492SOL    HW1 1485   2.222   1.183   2.307
  492SOL    HW2 1486   2.233   1.020   2.303
  493SOL     OW 1487   2.169   0.063   2.480
  493SOL    HW1 1488   2.158   0.157   2.513
  493SOL    HW2 1489   2.164   0.000   2.557
  494SOL     OW 1490   1.870   1.326   2.062
  494SOL    HW1 1491   1.777   1.347   2.031
  494SOL    HW2 1492   1.880   1.227   2.075
  495SOL     OW 1493   2.677   0.572   2.187
  495SOL    HW1 1494   2.684   0.483   2.141
  495SOL    HW2 1495   2.583   0.606   2.179
  496SOL     OW 1496   2.335   0.500   2.053
  496SOL    HW1 1497   2.396   0.580   2.057
  496SOL    HW2 1498   2.240   0.531   2.060
  497SOL     OW 1499   2.452   1.487   2.353
  497SOL    HW1 1500   2.494   1.429   2.283
  497SOL    HW2 1501   2.408   1.566   2.309
  498SOL     OW 1502   2.117   1.348   2.152
  498SOL    HW1 1503   2.021   1.349   2.125
  498SOL    HW2 1504   2.129   1.401   2.236
  499SOL     OW 1505   1.937   0.345   1.895
  499SOL    HW1 1506   1.845   0.317   1.866
  499SOL    HW2 1507   1.968   0.422   1.839
  500SOL     OW 1508   1.934   0.166   2.180
  500SOL    HW1 1509   1.917   0.249   2.126
  500SOL    HW2 1510   2.024   0.129   2.158
  501SOL     OW 1511   2.456   0.745   2.514
  501SOL    HW1 1512   2.506   0.830   2.495
  501SOL    HW2 1513   2.368   0.747   2.466
  502SOL     OW 1514   1.941   1.240   2.515
  502SOL    HW1 1515   1.940   1.193   2.603
  502SOL    HW2 1516   2.023   1.212   2.464
  503SOL     OW 1517   2.290   0.424   2.382
  503SOL    HW1 1518   2.320   0.352   2.320
  503SOL    HW2 1519   2.251   0.384   2.465
  504SOL     OW 1520   1.901   1.077   2.162
  504SOL    HW1 1521   2.000   1.066   2.153
  504SOL    HW2 1522   1.861   0.991   2.194
  505SOL     OW 1523   2.087   2.137   0.996
  505SOL    HW1 1524   2.122   2.120   1.088
  505SOL    HW2 1525   1.999   2.092   0.984
  506SOL     OW 1526   1.881   2.230   0.647
  506SOL    HW1 1527   1.799   2.273   0.686
  506SOL    HW2 1528   1.853   2.157   0.584
  507SOL     OW 1529   2.712   2.660   1.823
  507SOL    HW1 1530   2.708   2.736   1.888
  507SOL    HW2 1531   2.734   2.696   1.732
  508SOL     OW 1532   2.300   2.254   1.499
  508SOL    HW1 1533   2.382   2.198   1.508
  508SOL    HW2 1534   2.219   2.196   1.503
  509SOL     OW 1535   1.984   2.505   0.563
  509SOL    HW1 1536   1.939   2.417   0.580
  509SOL    HW2 1537   1.983   2.559   0.647
  510SOL     OW 1538   1.975   2.599   1.597
  510SOL    HW1 1539   2.063   2.586   1.642
  510SOL    HW2 1540   1.962   2.696   1.575
  511SOL     OW 1541   2.671   1.866   0.502
  511SOL    HW1 1542   2.711   1.957   0.493
  511SOL    HW2 1543   2.571   1.874   0.508
  512SOL     OW 1544   2.179   2.113   1.801
  512SOL    HW1 1545   2.250   2.184   1.807
  512SOL    HW2 1546   2.091   2.152   1.829
  513SOL     OW 1547   2.727   2.210   0.195
  513SOL    HW1 1548   2.786   2.273   0.146
  513SOL    HW2 1549   2.746   2.116   0.166
  514SOL     OW 1550   2.412   2.058   0.885
  514SOL    HW1 1551   2.407   2.053   0.985
  514SOL    HW2 1552   2.414   2.154   0.856
  515SOL     OW 1553   2.064   2.147   1.498
  515SOL    HW1 1554   1.984   2.207   1.485
  515SOL    HW2 1555   2.054   2.098   1.584
  516SOL     OW 1556   2.476   1.984   0.117
  516SOL    HW1 1557   2.574   1.962   0.124
  516SOL    HW2 1558   2.445   1.967   0.024
  517SOL     OW 1559   2.401   1.926   0.512
  517SOL    HW1 1560   2.320   1.927   0.570
  517SOL    HW2 1561   2.404   2.009   0.457
  518SOL     OW 1562   2.797   2.098   0.480
  518SOL    HW1 1563   2.749   2.139   0.402
  518SOL    HW2 1564   2.896   2.096   0.461
  519SOL     OW 1565   1.940   2.418   1.386
  519SOL    HW1 1566   2.032   2.417   1.345
  519SOL    HW2 1567   1.934   2.492   1.453
  520SOL     OW 1568   2.423   2.084   1.147
  520SOL    HW1 1569   2.461   2.000   1.184
  520SOL    HW2 1570   2.335   2.103   1.191
  521SOL     OW 1571   2.389   2.118   0.328
  521SOL    HW1 1572   2.416   2.059   0.253
  521SOL    HW2 1573   2.389   2.213   0.297
  522SOL     OW 1574   2.428   2.399   0.865
  522SOL    HW1 1575   2.440   2.465   0.791
  522SOL    HW2 1576   2.474   2.433   0.948
  523SOL     OW 1577   2.366   1.912   1.740
  523SOL    HW1 1578   2.324   1.855   1.670
  523SOL    HW2 1579   2.300   1.981   1.772
  524SOL     OW 1580   2.169   2.075   1.231
  524SOL    HW1 1581   2.146   2.112   1.321
  524SOL    HW2 1582   2.139   1.980   1.225
  525SOL     OW 1583   2.169   1.925   0.618
  525SOL    HW1 1584   2.158   2.019   0.651
  525SOL    HW2 1585   2.164   1.862   0.695
  526SOL     OW 1586   2.181   2.672   0.949
  526SOL    HW1 1587   2.274   2.708   0.954
  526SOL    HW2 1588   2.175   2.587   1.001
  527SOL     OW 1589   2.201   2.371   1.006
  527SOL    HW1 1590   2.149   2.288   0.989
  527SOL    HW2 1591   2.278   2.376   0.942
  528SOL     OW 1592   1.902   2.406   1.114
  528SOL    HW1 1593   1.987   2.373   1.073
  528SOL    HW2 1594   1.915   2.421   1.212
  529SOL     OW 1595   2.051   2.382   1.722
  529SOL    HW1 1596   2.110   2.342   1.652
  529SOL    HW2 1597   1.993   2.453   1.681
  530SOL     OW 1598   2.677   2.434   0.325
  530SOL    HW1 1599   2.684   2.345   0.279
  530SOL    HW2 1600   2.583   2.468   0.317
  531SOL     OW 1601   2.335   2.362   0.191
  531SOL    HW1 1602   2.396   2.442   0.195
  531SOL    HW2 1603   2.240   2.393   0.198
  532SOL     OW 1604   2.125   2.188   0.720
  532SOL    HW1 1605   2.046   2.239   0.686
  532SOL    HW2 1606   2.116   2.173   0.818
  533SOL     OW 1607   2.534   2.065   1.489
  533SOL    HW1 1608   2.624   2.049   1.449
  533SOL    HW2 1609   2.542   2.070   1.588
  534SOL     OW 1610   1.937   2.207   0.033
  534SOL    HW1 1611   1.845   2.179   0.004
  534SOL    HW2 1612   1.968   2.284  -0.023
  535SOL     OW 1613   2.290   2.286   0.520
  535SOL    HW1 1614   2.320   2.214   0.458
  535SOL    HW2 1615   2.251   2.246   0.603
  536SOL     OW 1616   2.179   2.409   1.280
  536SOL    HW1 1617   2.217   2.350   1.352
  536SOL    HW2 1618   2.219   2.383   1.192
  537SOL     OW 1619   1.984   2.505   2.425
  537SOL    HW1 1620   1.939   2.417   2.442
  537SOL    HW2 1621   1.983   2.559   2.509
  538SOL     OW 1622   2.671   1.866   2.364
  538SOL    HW1 1623   2.711   1.957   2.355
  538SOL    HW2 1624   2.571   1.874   2.370
  539SOL     OW 1625   2.727   2.210   2.057
  539SOL    HW1 1626   2.786   2.273   2.008
  539SOL    HW2 1627   2.746   2.116   2.028
  540SOL     OW 1628   2.476   1.984   1.979
  540SOL    HW1 1629   2.574   1.962   1.986
  540SOL    HW2 1630   2.445   1.967   1.886
  541SOL     OW 1631   2.401   1.926   2.374
  541SOL    HW1 1632   2.320   1.927   2.432
  541SOL    HW2 1633   2.404   2.009   2.319
  542SOL     OW 1634   2.159   1.897   2.033
  542SOL    HW1 1635   2.208   1.981   2.012
  542SOL    HW2 1636   2.221   1.832   2.078
  543SOL     OW 1637   2.797   2.098   2.342
  543SOL    HW1 1638   2.749   2.139   2.264
  543SOL    HW2 1639   2.896   2.096   2.323
  544SOL     OW 1640   2.389   2.118   2.190
  544SOL    HW1 1641   2.416   2.059   2.115
  544SOL    HW2 1642   2.389   2.213   2.159
  545SOL     OW 1643   2.169   1.925   2.480
  545SOL    HW1 1644   2.158   2.019   2.513
  545SOL    HW2 1645   2.164   1.862   2.557
  546SOL     OW 1646   2.677   2.434   2.187
  546SOL    HW1 1647   2.684   2.345   2.141
  546SOL    HW2 1648   2.583   2.468   2.179
  547SOL     OW 1649   2.335   2.362   2.053
  547SOL    HW1 1650   2.396   2.442   2.057
  547SOL    HW2 1651   2.240   2.393   2.060
  548SOL     OW 1652   1.937   2.207   1.895
  548SOL    HW1 1653   1.845   2.179   1.866
  548SOL    HW2 1654   1.968   2.284   1.839
  549SOL     OW 1655   1.934   2.028   2.180
  549SOL    HW1 1656   1.917   2.111   2.126
  549SOL    HW2 1657   2.024   1.991   2.158
  550SOL     OW 1658   2.290   2.286   2.382
  550SOL    HW1 1659   2.320   2.214   2.320
  550SOL    HW2 1660   2.251   2.246   2.465
   2.56318   2.56318   2.56318
