mobley_1527293_GMX.gro created by acpype (v: 2023.10.27) on Thu May 14 13:37:29 2026
 3181
    1MOL     C1    1   1.612   1.628   1.086
    1MOL     C2    2   1.607   1.748   1.157
    1MOL     C3    3   1.612   1.506   1.154
    1MOL     C4    4   1.603   1.746   1.297
    1MOL     C5    5   1.607   1.504   1.293
    1MOL     C6    6   1.491   1.679   1.576
    1MOL     C7    7   1.486   1.677   1.715
    1MOL     C8    8   1.697   1.561   1.721
    1MOL     C9    9   1.603   1.624   1.365
    1MOL    C10   10   1.598   1.622   1.509
    1MOL    C11   11   1.589   1.618   1.788
    1MOL    C12   12   1.702   1.563   1.582
    1MOL    C13   13   1.577   1.474   1.994
    1MOL    C14   14   1.701   1.692   2.004
    1MOL    C15   15   1.584   1.616   1.937
    1MOL     O1   16   1.578   1.372   1.926
    1MOL     O2   17   1.569   1.471   2.129
    1MOL     F1   18   1.806   1.507   1.519
    1MOL     H1   19   1.615   1.630   0.977
    1MOL     H2   20   1.607   1.843   1.104
    1MOL     H3   21   1.615   1.413   1.098
    1MOL     H4   22   1.599   1.840   1.351
    1MOL     H5   23   1.608   1.409   1.345
    1MOL     H6   24   1.409   1.726   1.521
    1MOL     H7   25   1.401   1.722   1.767
    1MOL     H8   26   1.778   1.514   1.777
    1MOL     H9   27   1.798   1.648   1.977
    1MOL    H10   28   1.700   1.797   1.974
    1MOL    H11   29   1.694   1.688   2.113
    1MOL    H12   30   1.491   1.666   1.970
    1MOL    H13   31   1.564   1.381   2.169
    2SOL     OW   32   0.230   0.628   0.113
    2SOL    HW1   33   0.137   0.626   0.150
    2SOL    HW2   34   0.231   0.589   0.021
    3SOL     OW   35   0.225   0.275   0.996
    3SOL    HW1   36   0.260   0.258   1.088
    3SOL    HW2   37   0.137   0.230   0.984
    4SOL     OW   38   0.019   0.368   0.647
    4SOL    HW1   39  -0.063   0.411   0.686
    4SOL    HW2   40  -0.009   0.295   0.584
    5SOL     OW   41   0.569   1.275   1.165
    5SOL    HW1   42   0.476   1.268   1.128
    5SOL    HW2   43   0.580   1.364   1.209
    6SOL     OW   44   1.555   1.511   0.703
    6SOL    HW1   45   1.498   1.495   0.784
    6SOL    HW2   46   1.496   1.521   0.623
    7SOL     OW   47   1.135   0.703   0.717
    7SOL    HW1   48   1.192   0.781   0.692
    7SOL    HW2   49   1.075   0.729   0.793
    8SOL     OW   50   1.755   0.607   0.231
    8SOL    HW1   51   1.743   0.594   0.132
    8SOL    HW2   52   1.725   0.526   0.280
    9SOL     OW   53   0.768   1.144   1.023
    9SOL    HW1   54   0.690   1.161   1.083
    9SOL    HW2   55   0.802   1.231   0.987
   10SOL     OW   56   0.850   0.798   1.823
   10SOL    HW1   57   0.846   0.874   1.888
   10SOL    HW2   58   0.872   0.834   1.732
   11SOL     OW   59   0.685   1.012   0.665
   11SOL    HW1   60   0.754   0.996   0.735
   11SOL    HW2   61   0.612   1.069   0.703
   12SOL     OW   62   0.686   1.161   1.803
   12SOL    HW1   63   0.746   1.240   1.817
   12SOL    HW2   64   0.600   1.192   1.762
   13SOL     OW   65   0.335   1.435   1.061
   13SOL    HW1   66   0.257   1.404   1.008
   13SOL    HW2   67   0.393   1.493   1.004
   14SOL     OW   68   0.438   0.392   1.499
   14SOL    HW1   69   0.520   0.336   1.508
   14SOL    HW2   70   0.357   0.334   1.503
   15SOL     OW   71   1.603   0.447   0.737
   15SOL    HW1   72   1.529   0.493   0.687
   15SOL    HW2   73   1.654   0.515   0.790
   16SOL     OW   74   0.231   1.713   0.483
   16SOL    HW1   75   0.265   1.790   0.537
   16SOL    HW2   76   0.275   1.713   0.393
   17SOL     OW   77   1.127   1.341   1.690
   17SOL    HW1   78   1.174   1.341   1.778
   17SOL    HW2   79   1.079   1.254   1.679
   18SOL     OW   80   0.230   1.434   0.538
   18SOL    HW1   81   0.204   1.530   0.538
   18SOL    HW2   82   0.159   1.380   0.583
   19SOL     OW   83   0.240   1.091   0.886
   19SOL    HW1   84   0.254   1.007   0.938
   19SOL    HW2   85   0.185   1.155   0.941
   20SOL     OW   86   0.620   1.786   1.439
   20SOL    HW1   87   0.528   1.769   1.474
   20SOL    HW2   88   0.648   1.878   1.465
   21SOL     OW   89   0.606   0.964   0.123
   21SOL    HW1   90   0.613   1.048   0.069
   21SOL    HW2   91   0.652   0.977   0.211
   22SOL     OW   92   1.594   0.114   1.480
   22SOL    HW1   93   1.576   0.181   1.408
   22SOL    HW2   94   1.591   0.160   1.569
   23SOL     OW   95   0.122   0.643   0.563
   23SOL    HW1   96   0.077   0.555   0.580
   23SOL    HW2   97   0.121   0.697   0.647
   24SOL     OW   98   1.842   1.767   0.359
   24SOL    HW1   99   1.896   1.738   0.439
   24SOL    HW2  100   1.872   1.857   0.330
   25SOL     OW  101   0.027   1.596   0.117
   25SOL    HW1  102   0.008   1.500   0.138
   25SOL    HW2  103  -0.006   1.654   0.192
   26SOL     OW  104   1.689   0.922   0.612
   26SOL    HW1  105   1.784   0.893   0.620
   26SOL    HW2  106   1.681   0.987   0.537
   27SOL     OW  107   1.641   1.108   0.432
   27SOL    HW1  108   1.727   1.110   0.380
   27SOL    HW2  109   1.655   1.155   0.520
   28SOL     OW  110   0.113   0.737   1.597
   28SOL    HW1  111   0.201   0.724   1.642
   28SOL    HW2  112   0.100   0.834   1.575
   29SOL     OW  113   0.613   1.365   0.726
   29SOL    HW1  114   0.564   1.278   0.735
   29SOL    HW2  115   0.590   1.408   0.639
   30SOL     OW  116   1.293   1.228   1.423
   30SOL    HW1  117   1.330   1.155   1.365
   30SOL    HW2  118   1.345   1.233   1.508
   31SOL     OW  119   0.809   0.004   0.502
   31SOL    HW1  120   0.849   0.095   0.493
   31SOL    HW2  121   0.709   0.012   0.508
   32SOL     OW  122   0.197   0.976   1.264
   32SOL    HW1  123   0.286   0.931   1.250
   32SOL    HW2  124   0.124   0.911   1.245
   33SOL     OW  125   1.525   0.999   0.190
   33SOL    HW1  126   1.462   0.923   0.203
   33SOL    HW2  127   1.573   1.017   0.276
   34SOL     OW  128   1.187   1.792   1.616
   34SOL    HW1  129   1.211   1.852   1.540
   34SOL    HW2  130   1.194   1.697   1.586
   35SOL     OW  131   0.317   0.251   1.801
   35SOL    HW1  132   0.388   0.322   1.807
   35SOL    HW2  133   0.229   0.290   1.829
   36SOL     OW  134   1.466   1.417   0.953
   36SOL    HW1  135   1.407   1.423   1.033
   36SOL    HW2  136   1.451   1.329   0.907
   37SOL     OW  137   1.667   1.714   0.572
   37SOL    HW1  138   1.626   1.691   0.484
   37SOL    HW2  139   1.649   1.640   0.637
   38SOL     OW  140   0.598   0.729   0.270
   38SOL    HW1  141   0.622   0.798   0.202
   38SOL    HW2  142   0.520   0.762   0.324
   39SOL     OW  143   1.281   0.345   0.944
   39SOL    HW1  144   1.195   0.295   0.931
   39SOL    HW2  145   1.343   0.291   1.000
   40SOL     OW  146   1.576   1.662   0.307
   40SOL    HW1  147   1.665   1.708   0.310
   40SOL    HW2  148   1.555   1.638   0.212
   41SOL     OW  149   0.807   0.605   1.465
   41SOL    HW1  150   0.760   0.602   1.554
   41SOL    HW2  151   0.756   0.550   1.399
   42SOL     OW  152   1.394   0.469   1.674
   42SOL    HW1  153   1.374   0.512   1.762
   42SOL    HW2  154   1.472   0.407   1.683
   43SOL     OW  155   0.973   0.890   1.572
   43SOL    HW1  156   1.019   0.806   1.543
   43SOL    HW2  157   0.917   0.924   1.497
   44SOL     OW  158   0.991   0.410   1.242
   44SOL    HW1  159   0.914   0.444   1.296
   44SOL    HW2  160   0.957   0.359   1.163
   45SOL     OW  161   1.041   0.701   0.429
   45SOL    HW1  162   1.067   0.697   0.525
   45SOL    HW2  163   0.956   0.650   0.415
   46SOL     OW  164   0.076   0.811   0.789
   46SOL    HW1  165   0.175   0.799   0.798
   46SOL    HW2  166   0.052   0.906   0.810
   47SOL     OW  167   0.130   1.821   1.571
   47SOL    HW1  168   0.120   1.806   1.670
   47SOL    HW2  169   0.044   1.857   1.535
   48SOL     OW  170   0.865   0.348   0.195
   48SOL    HW1  171   0.924   0.411   0.146
   48SOL    HW2  172   0.884   0.254   0.166
   49SOL     OW  173   1.719   0.585   1.831
   49SOL    HW1  174   1.693   0.674   1.795
   49SOL    HW2  175   1.717   0.517   1.758
   50SOL     OW  176   1.362   1.144   0.545
   50SOL    HW1  177   1.445   1.115   0.497
   50SOL    HW2  178   1.313   1.211   0.489
   51SOL     OW  179   0.550   0.196   0.885
   51SOL    HW1  180   0.545   0.191   0.985
   51SOL    HW2  181   0.552   0.292   0.856
   52SOL     OW  182   1.008   1.456   0.477
   52SOL    HW1  183   0.962   1.528   0.425
   52SOL    HW2  184   1.004   1.476   0.575
   53SOL     OW  185   0.351   1.801   0.853
   53SOL    HW1  186   0.401   1.715   0.859
   53SOL    HW2  187   0.416   1.878   0.850
   54SOL     OW  188   1.795   1.066   0.873
   54SOL    HW1  189   1.733   1.051   0.797
   54SOL    HW2  190   1.743   1.077   0.958
   55SOL     OW  191   1.227   1.550   1.506
   55SOL    HW1  192   1.233   1.473   1.570
   55SOL    HW2  193   1.175   1.524   1.426
   56SOL     OW  194   0.321   0.943   0.242
   56SOL    HW1  195   0.403   0.982   0.200
   56SOL    HW2  196   0.294   0.861   0.193
   57SOL     OW  197   1.458   0.735   0.728
   57SOL    HW1  198   1.453   0.670   0.803
   57SOL    HW2  199   1.538   0.794   0.741
   58SOL     OW  200   0.461   1.266   1.727
   58SOL    HW1  201   0.411   1.267   1.641
   58SOL    HW2  202   0.398   1.248   1.803
   59SOL     OW  203   1.111   1.776   0.237
   59SOL    HW1  204   1.051   1.714   0.287
   59SOL    HW2  205   1.142   1.732   0.152
   60SOL     OW  206   0.202   0.285   1.498
   60SOL    HW1  207   0.122   0.345   1.485
   60SOL    HW2  208   0.192   0.236   1.584
   61SOL     OW  209   1.632   1.377   0.081
   61SOL    HW1  210   1.600   1.471   0.071
   61SOL    HW2  211   1.556   1.314   0.069
   62SOL     OW  212   0.464   1.743   0.323
   62SOL    HW1  213   0.497   1.782   0.409
   62SOL    HW2  214   0.540   1.736   0.258
   63SOL     OW  215   1.400   0.107   0.426
   63SOL    HW1  216   1.376   0.070   0.336
   63SOL    HW2  217   1.499   0.123   0.430
   64SOL     OW  218   0.249   1.785   1.241
   64SOL    HW1  219   0.306   1.720   1.291
   64SOL    HW2  220   0.233   1.752   1.148
   65SOL     OW  221   0.940   1.698   0.904
   65SOL    HW1  222   1.020   1.641   0.925
   65SOL    HW2  223   0.891   1.658   0.827
   66SOL     OW  224   0.382   0.700   0.480
   66SOL    HW1  225   0.427   0.610   0.477
   66SOL    HW2  226   0.288   0.689   0.513
   67SOL     OW  227   1.547   0.222   1.729
   67SOL    HW1  228   1.542   0.259   1.821
   67SOL    HW2  229   1.475   0.153   1.717
   68SOL     OW  230   0.614   0.122   0.117
   68SOL    HW1  231   0.712   0.100   0.124
   68SOL    HW2  232   0.583   0.105   0.024
   69SOL     OW  233   0.781   0.264   1.749
   69SOL    HW1  234   0.848   0.203   1.792
   69SOL    HW2  235   0.708   0.283   1.814
   70SOL     OW  236   0.888   1.514   1.195
   70SOL    HW1  237   0.865   1.489   1.101
   70SOL    HW2  238   0.949   1.445   1.234
   71SOL     OW  239   1.351   0.590   1.433
   71SOL    HW1  240   1.379   0.547   1.518
   71SOL    HW2  241   1.376   0.686   1.434
   72SOL     OW  242   0.803   1.402   0.924
   72SOL    HW1  243   0.893   1.416   0.882
   72SOL    HW2  244   0.732   1.404   0.853
   73SOL     OW  245   0.922   0.503   0.899
   73SOL    HW1  246   0.897   0.494   0.803
   73SOL    HW2  247   0.970   0.421   0.930
   74SOL     OW  248   0.539   0.064   0.512
   74SOL    HW1  249   0.458   0.065   0.570
   74SOL    HW2  250   0.542   0.147   0.457
   75SOL     OW  251   1.434   1.188   0.041
   75SOL    HW1  252   1.466   1.112   0.098
   75SOL    HW2  253   1.342   1.215   0.071
   76SOL     OW  254   0.297   0.035   0.171
   76SOL    HW1  255   0.346   0.119   0.150
   76SOL    HW2  256   0.359  -0.030   0.216
   77SOL     OW  257   0.935   0.236   0.480
   77SOL    HW1  258   0.887   0.277   0.402
   77SOL    HW2  259   1.034   0.234   0.461
   78SOL     OW  260   1.076   0.683   1.464
   78SOL    HW1  261   0.996   0.622   1.467
   78SOL    HW2  262   1.157   0.630   1.440
   79SOL     OW  263   1.227   1.570   0.793
   79SOL    HW1  264   1.248   1.644   0.728
   79SOL    HW2  265   1.295   1.570   0.866
   80SOL     OW  266   0.459   1.152   0.741
   80SOL    HW1  267   0.388   1.125   0.806
   80SOL    HW2  268   0.433   1.124   0.648
   81SOL     OW  269   1.271   1.797   0.591
   81SOL    HW1  270   1.315   1.861   0.527
   81SOL    HW2  271   1.221   1.849   0.661
   82SOL     OW  272   1.032   0.549   0.016
   82SOL    HW1  273   0.991   0.631  -0.023
   82SOL    HW2  274   1.096   0.575   0.089
   83SOL     OW  275   0.078   0.556   1.386
   83SOL    HW1  276   0.170   0.555   1.345
   83SOL    HW2  277   0.072   0.630   1.453
   84SOL     OW  278   0.561   0.222   1.147
   84SOL    HW1  279   0.599   0.138   1.184
   84SOL    HW2  280   0.473   0.241   1.191
   85SOL     OW  281   0.866   0.454   0.642
   85SOL    HW1  282   0.834   0.526   0.580
   85SOL    HW2  283   0.890   0.373   0.589
   86SOL     OW  284   1.017   0.039   0.753
   86SOL    HW1  285   0.945   0.044   0.684
   86SOL    HW2  286   0.993  -0.030   0.822
   87SOL     OW  287   1.429   1.173   0.867
   87SOL    HW1  288   1.374   1.089   0.860
   87SOL    HW2  289   1.455   1.202   0.775
   88SOL     OW  290   1.466   0.590   0.992
   88SOL    HW1  291   1.436   0.495   0.999
   88SOL    HW2  292   1.539   0.606   1.058
   89SOL     OW  293   1.857   0.833   0.377
   89SOL    HW1  294   1.899   0.769   0.441
   89SOL    HW2  295   1.819   0.782   0.299
   90SOL     OW  296   0.488   1.385   0.174
   90SOL    HW1  297   0.401   1.370   0.221
   90SOL    HW2  298   0.471   1.411   0.079
   91SOL     OW  299   1.664   1.280   0.657
   91SOL    HW1  300   1.763   1.288   0.671
   91SOL    HW2  301   1.619   1.364   0.688
   92SOL     OW  302   1.390   0.575   0.078
   92SOL    HW1  303   1.336   0.554   0.159
   92SOL    HW2  304   1.481   0.534   0.087
   93SOL     OW  305   0.527   0.256   0.328
   93SOL    HW1  306   0.554   0.197   0.253
   93SOL    HW2  307   0.527   0.351   0.297
   94SOL     OW  308   1.754   1.223   1.588
   94SOL    HW1  309   1.845   1.184   1.575
   94SOL    HW2  310   1.762   1.319   1.612
   95SOL     OW  311   1.064   1.347   1.340
   95SOL    HW1  312   0.984   1.324   1.395
   95SOL    HW2  313   1.147   1.321   1.389
   96SOL     OW  314   1.111   1.195   1.100
   96SOL    HW1  315   1.071   1.239   1.181
   96SOL    HW2  316   1.070   1.232   1.017
   97SOL     OW  317   1.638   1.099   1.079
   97SOL    HW1  318   1.643   1.180   1.138
   97SOL    HW2  319   1.552   1.101   1.028
   98SOL     OW  320   0.915   0.089   1.402
   98SOL    HW1  321   0.940   0.069   1.307
   98SOL    HW2  322   0.987   0.145   1.444
   99SOL     OW  323   0.980   1.116   1.719
   99SOL    HW1  324   0.881   1.122   1.729
   99SOL    HW2  325   1.003   1.036   1.663
  100SOL     OW  326   0.705   1.050   0.368
  100SOL    HW1  327   0.691   1.057   0.467
  100SOL    HW2  328   0.789   0.999   0.350
  101SOL     OW  329   0.410   0.813   1.251
  101SOL    HW1  330   0.496   0.825   1.301
  101SOL    HW2  331   0.368   0.726   1.278
  102SOL     OW  332   1.274   0.386   1.262
  102SOL    HW1  333   1.295   0.460   1.326
  102SOL    HW2  334   1.185   0.403   1.219
  103SOL     OW  335   0.064   1.564   1.331
  103SOL    HW1  336   0.018   1.646   1.297
  103SOL    HW2  337   0.162   1.583   1.340
  104SOL     OW  338   0.367   1.100   0.501
  104SOL    HW1  339   0.360   1.183   0.445
  104SOL    HW2  340   0.371   1.020   0.441
  105SOL     OW  341   0.566   0.537   0.865
  105SOL    HW1  342   0.578   0.603   0.791
  105SOL    HW2  343   0.612   0.571   0.948
  106SOL     OW  344   1.252   1.348   0.388
  106SOL    HW1  345   1.302   1.425   0.428
  106SOL    HW2  346   1.157   1.350   0.420
  107SOL     OW  347   1.272   1.445   1.142
  107SOL    HW1  348   1.319   1.458   1.229
  107SOL    HW2  349   1.206   1.371   1.151
  108SOL     OW  350   1.582   0.639   0.472
  108SOL    HW1  351   1.551   0.700   0.545
  108SOL    HW2  352   1.632   0.691   0.403
  109SOL     OW  353   0.354   1.510   1.329
  109SOL    HW1  354   0.333   1.466   1.242
  109SOL    HW2  355   0.451   1.536   1.332
  110SOL     OW  356   0.402   0.751   1.598
  110SOL    HW1  357   0.470   0.806   1.551
  110SOL    HW2  358   0.442   0.663   1.625
  111SOL     OW  359   1.587   0.779   1.670
  111SOL    HW1  360   1.495   0.817   1.665
  111SOL    HW2  361   1.647   0.826   1.605
  112SOL     OW  362   1.013   0.105   1.770
  112SOL    HW1  363   1.019   0.190   1.718
  112SOL    HW2  364   1.045   0.029   1.713
  113SOL     OW  365   0.504   0.050   1.740
  113SOL    HW1  366   0.462  -0.007   1.670
  113SOL    HW2  367   0.438   0.119   1.772
  114SOL     OW  368   0.573   0.870   1.029
  114SOL    HW1  369   0.617   0.959   1.020
  114SOL    HW2  370   0.510   0.870   1.106
  115SOL     OW  371   1.360   0.862   1.045
  115SOL    HW1  372   1.285   0.862   0.979
  115SOL    HW2  373   1.397   0.770   1.054
  116SOL     OW  374   1.209   0.525   0.275
  116SOL    HW1  375   1.222   0.441   0.329
  116SOL    HW2  376   1.180   0.599   0.335
  117SOL     OW  377   0.307   0.213   1.231
  117SOL    HW1  378   0.284   0.250   1.321
  117SOL    HW2  379   0.277   0.118   1.225
  118SOL     OW  380   0.037   1.310   1.282
  118SOL    HW1  381   0.090   1.261   1.350
  118SOL    HW2  382   0.059   1.408   1.287
  119SOL     OW  383   0.732   0.634   1.064
  119SOL    HW1  384   0.791   0.608   0.988
  119SOL    HW2  385   0.704   0.730   1.053
  120SOL     OW  386   1.728   0.935   1.854
  120SOL    HW1  387   1.682   0.928   1.765
  120SOL    HW2  388   1.666   0.979   1.920
  121SOL     OW  389   0.307   0.063   0.618
  121SOL    HW1  390   0.296   0.157   0.651
  121SOL    HW2  391   0.302   0.000   0.695
  122SOL     OW  392   1.622   0.367   0.374
  122SOL    HW1  393   1.624   0.291   0.438
  122SOL    HW2  394   1.574   0.444   0.414
  123SOL     OW  395   1.023   0.766   0.966
  123SOL    HW1  396   1.038   0.787   1.062
  123SOL    HW2  397   0.993   0.671   0.957
  124SOL     OW  398   0.980   1.573   1.700
  124SOL    HW1  399   0.960   1.617   1.612
  124SOL    HW2  400   1.019   1.482   1.684
  125SOL     OW  401   0.350   0.898   1.804
  125SOL    HW1  402   0.426   0.942   1.852
  125SOL    HW2  403   0.385   0.851   1.722
  126SOL     OW  404   1.540   0.274   0.125
  126SOL    HW1  405   1.479   0.199   0.148
  126SOL    HW2  406   1.562   0.326   0.208
  127SOL     OW  407   1.303   0.838   0.042
  127SOL    HW1  408   1.337   0.745   0.057
  127SOL    HW2  409   1.321   0.865  -0.053
  128SOL     OW  410   1.068   1.333   0.849
  128SOL    HW1  411   1.075   1.249   0.794
  128SOL    HW2  412   1.130   1.402   0.813
  129SOL     OW  413   0.319   0.810   0.949
  129SOL    HW1  414   0.412   0.846   0.954
  129SOL    HW2  415   0.313   0.725   1.001
  130SOL     OW  416   0.339   0.509   1.006
  130SOL    HW1  417   0.287   0.426   0.989
  130SOL    HW2  418   0.416   0.514   0.942
  131SOL     OW  419   1.138   0.380   1.678
  131SOL    HW1  420   1.093   0.443   1.742
  131SOL    HW2  421   1.231   0.411   1.661
  132SOL     OW  422   1.160   0.207   1.477
  132SOL    HW1  423   1.160   0.271   1.554
  132SOL    HW2  424   1.188   0.255   1.394
  133SOL     OW  425   0.008   1.326   0.200
  133SOL    HW1  426  -0.085   1.347   0.169
  133SOL    HW2  427   0.018   1.227   0.213
  134SOL     OW  428   0.088   1.801   0.927
  134SOL    HW1  429   0.046   1.715   0.900
  134SOL    HW2  430   0.182   1.804   0.893
  135SOL     OW  431   0.504   1.568   0.910
  135SOL    HW1  432   0.570   1.642   0.919
  135SOL    HW2  433   0.548   1.489   0.868
  136SOL     OW  434   1.002   0.796   1.238
  136SOL    HW1  435   1.043   0.764   1.324
  136SOL    HW2  436   0.906   0.769   1.235
  137SOL     OW  437   0.040   0.544   1.114
  137SOL    HW1  438   0.125   0.511   1.073
  137SOL    HW2  439   0.053   0.559   1.212
  138SOL     OW  440   0.189   0.520   1.722
  138SOL    HW1  441   0.248   0.480   1.652
  138SOL    HW2  442   0.131   0.591   1.681
  139SOL     OW  443   1.369   0.950   1.660
  139SOL    HW1  444   1.408   1.039   1.680
  139SOL    HW2  445   1.379   0.930   1.563
  140SOL     OW  446   0.815   0.572   0.325
  140SOL    HW1  447   0.822   0.483   0.279
  140SOL    HW2  448   0.721   0.606   0.317
  141SOL     OW  449   1.657   0.604   1.206
  141SOL    HW1  450   1.619   0.535   1.268
  141SOL    HW2  451   1.739   0.568   1.162
  142SOL     OW  452   0.252   1.564   1.744
  142SOL    HW1  453   0.222   1.621   1.820
  142SOL    HW2  454   0.245   1.467   1.770
  143SOL     OW  455   0.671   0.464   1.269
  143SOL    HW1  456   0.637   0.375   1.239
  143SOL    HW2  457   0.697   0.518   1.189
  144SOL     OW  458   0.930   1.678   1.465
  144SOL    HW1  459   0.906   1.660   1.370
  144SOL    HW2  460   0.960   1.772   1.475
  145SOL     OW  461   0.473   0.500   0.191
  145SOL    HW1  462   0.534   0.580   0.195
  145SOL    HW2  463   0.378   0.531   0.198
  146SOL     OW  464   0.159   1.137   1.466
  146SOL    HW1  465   0.181   1.076   1.542
  146SOL    HW2  466   0.169   1.088   1.380
  147SOL     OW  467   1.347   1.059   1.234
  147SOL    HW1  468   1.371   0.996   1.160
  147SOL    HW2  469   1.257   1.099   1.216
  148SOL     OW  470   1.302   0.855   0.309
  148SOL    HW1  471   1.216   0.824   0.351
  148SOL    HW2  472   1.298   0.841   0.210
  149SOL     OW  473   1.252   1.731   1.128
  149SOL    HW1  474   1.336   1.736   1.074
  149SOL    HW2  475   1.229   1.635   1.146
  150SOL     OW  476   0.083   1.258   1.022
  150SOL    HW1  477   0.078   1.257   1.122
  150SOL    HW2  478   0.000   1.217   0.984
  151SOL     OW  479   0.688   1.662   1.716
  151SOL    HW1  480   0.632   1.743   1.725
  151SOL    HW2  481   0.740   1.666   1.630
  152SOL     OW  482   0.903   0.086   0.133
  152SOL    HW1  483   0.954   0.087   0.047
  152SOL    HW2  484   0.959   0.044   0.204
  153SOL     OW  485   1.726   0.135   0.523
  153SOL    HW1  486   1.799   0.118   0.456
  153SOL    HW2  487   1.695   0.048   0.561
  154SOL     OW  488   1.388   1.573   0.477
  154SOL    HW1  489   1.455   1.585   0.403
  154SOL    HW2  490   1.348   1.662   0.500
  155SOL     OW  491   0.130   1.794   1.851
  155SOL    HW1  492   0.089   1.720   1.904
  155SOL    HW2  493   0.194   1.845   1.909
  156SOL     OW  494   1.280   0.927   0.672
  156SOL    HW1  495   1.340   0.846   0.674
  156SOL    HW2  496   1.320   0.996   0.612
  157SOL     OW  497   0.830   1.273   1.422
  157SOL    HW1  498   0.825   1.306   1.517
  157SOL    HW2  499   0.744   1.292   1.376
  158SOL     OW  500   0.672   1.616   0.154
  158SOL    HW1  501   0.681   1.626   0.055
  158SOL    HW2  502   0.632   1.527   0.175
  159SOL     OW  503   1.841   0.175   0.963
  159SOL    HW1  504   1.880   0.090   0.927
  159SOL    HW2  505   1.743   0.177   0.944
  160SOL     OW  506   0.263   0.326   0.720
  160SOL    HW1  507   0.184   0.377   0.686
  160SOL    HW2  508   0.254   0.311   0.818
  161SOL     OW  509   1.194   1.612   0.031
  161SOL    HW1  510   1.200   1.519   0.068
  161SOL    HW2  511   1.135   1.612  -0.049
  162SOL     OW  512   0.822   1.002   1.372
  162SOL    HW1  513   0.862   1.001   1.280
  162SOL    HW2  514   0.832   1.094   1.412
  163SOL     OW  515   0.916   0.910   0.291
  163SOL    HW1  516   0.979   0.948   0.223
  163SOL    HW2  517   0.956   0.827   0.330
  164SOL     OW  518   1.504   1.607   0.044
  164SOL    HW1  519   1.412   1.644   0.051
  164SOL    HW2  520   1.542   1.627  -0.046
  165SOL     OW  521   0.372   1.288   1.490
  165SOL    HW1  522   0.359   1.381   1.456
  165SOL    HW2  523   0.288   1.236   1.477
  166SOL     OW  524   1.039   1.098   0.696
  166SOL    HW1  525   0.969   1.051   0.750
  166SOL    HW2  526   1.098   1.030   0.653
  167SOL     OW  527   1.014   0.236   0.971
  167SOL    HW1  528   1.006   0.200   0.878
  167SOL    HW2  529   1.012   0.160   1.036
  168SOL     OW  530   0.590   1.487   0.491
  168SOL    HW1  531   0.632   1.429   0.421
  168SOL    HW2  532   0.546   1.566   0.447
  169SOL     OW  533   1.709   0.385   1.381
  169SOL    HW1  534   1.782   0.454   1.385
  169SOL    HW2  535   1.737   0.310   1.322
  170SOL     OW  536   0.255   1.348   0.290
  170SOL    HW1  537   0.159   1.349   0.263
  170SOL    HW2  538   0.267   1.401   0.374
  171SOL     OW  539   0.105   1.013   1.726
  171SOL    HW1  540   0.028   0.980   1.780
  171SOL    HW2  541   0.190   0.983   1.768
  172SOL     OW  542   0.672   0.203   1.489
  172SOL    HW1  543   0.762   0.187   1.449
  172SOL    HW2  544   0.680   0.208   1.588
  173SOL     OW  545   0.075   0.345   0.033
  173SOL    HW1  546  -0.017   0.317   0.004
  173SOL    HW2  547   0.106   0.422  -0.023
  174SOL     OW  548   1.440   0.856   1.398
  174SOL    HW1  549   1.383   0.908   1.335
  174SOL    HW2  550   1.536   0.868   1.374
  175SOL     OW  551   0.072   0.166   0.318
  175SOL    HW1  552   0.055   0.249   0.264
  175SOL    HW2  553   0.162   0.129   0.296
  176SOL     OW  554   1.183   1.335   0.119
  176SOL    HW1  555   1.084   1.324   0.121
  176SOL    HW2  556   1.217   1.350   0.212
  177SOL     OW  557   0.613   0.842   1.431
  177SOL    HW1  558   0.669   0.923   1.414
  177SOL    HW2  559   0.672   0.762   1.434
  178SOL     OW  560   0.716   0.565   1.708
  178SOL    HW1  561   0.735   0.630   1.782
  178SOL    HW2  562   0.776   0.485   1.717
  179SOL     OW  563   1.450   1.220   1.633
  179SOL    HW1  564   1.441   1.210   1.732
  179SOL    HW2  565   1.546   1.213   1.607
  180SOL     OW  566   0.390   1.741   1.560
  180SOL    HW1  567   0.299   1.782   1.558
  180SOL    HW2  568   0.383   1.647   1.592
  181SOL     OW  569   1.674   0.883   1.254
  181SOL    HW1  570   1.647   0.794   1.217
  181SOL    HW2  571   1.675   0.951   1.181
  182SOL     OW  572   1.225   0.325   0.449
  182SOL    HW1  573   1.290   0.251   0.438
  182SOL    HW2  574   1.245   0.375   0.533
  183SOL     OW  575   0.594   0.745   0.652
  183SOL    HW1  576   0.644   0.830   0.633
  183SOL    HW2  577   0.506   0.747   0.604
  184SOL     OW  578   1.777   0.342   1.642
  184SOL    HW1  579   1.760   0.373   1.548
  184SOL    HW2  580   1.693   0.305   1.680
  185SOL     OW  581   1.730   0.934   1.517
  185SOL    HW1  582   1.768   1.025   1.532
  185SOL    HW2  583   1.722   0.917   1.418
  186SOL     OW  584   0.859   1.374   0.016
  186SOL    HW1  585   0.813   1.389   0.104
  186SOL    HW2  586   0.903   1.459  -0.014
  187SOL     OW  587   0.661   1.790   0.953
  187SOL    HW1  588   0.615   1.878   0.940
  187SOL    HW2  589   0.760   1.802   0.946
  188SOL     OW  590   0.859   0.956   0.861
  188SOL    HW1  591   0.913   0.887   0.909
  188SOL    HW2  592   0.827   1.025   0.927
  189SOL     OW  593   1.083   0.984   0.087
  189SOL    HW1  594   1.060   1.037   0.005
  189SOL    HW2  595   1.164   0.928   0.068
  190SOL     OW  596   1.861   1.569   0.851
  190SOL    HW1  597   1.790   1.557   0.781
  190SOL    HW2  598   1.862   1.490   0.911
  191SOL     OW  599   0.221   1.314   1.844
  191SOL    HW1  600   0.156   1.241   1.823
  191SOL    HW2  601   0.225   1.328   1.942
  192SOL     OW  602   0.079   1.240   0.653
  192SOL    HW1  603   0.078   1.193   0.741
  192SOL    HW2  604   0.161   1.212   0.602
  193SOL     OW  605   0.672   1.391   1.624
  193SOL    HW1  606   0.594   1.341   1.662
  193SOL    HW2  607   0.669   1.486   1.655
  194SOL     OW  608   1.824   0.192   1.227
  194SOL    HW1  609   1.820   0.102   1.271
  194SOL    HW2  610   1.827   0.181   1.128
  195SOL     OW  611   0.428   0.424   0.520
  195SOL    HW1  612   0.458   0.352   0.458
  195SOL    HW2  613   0.389   0.384   0.603
  196SOL     OW  614   0.317   0.547   1.280
  196SOL    HW1  615   0.355   0.488   1.352
  196SOL    HW2  616   0.357   0.521   1.192
  197SOL     OW  617   0.812   1.586   0.687
  197SOL    HW1  618   0.844   1.596   0.593
  197SOL    HW2  619   0.733   1.524   0.689
  198SOL     OW  620   1.424   0.214   1.112
  198SOL    HW1  621   1.476   0.149   1.167
  198SOL    HW2  622   1.375   0.277   1.173
  199SOL     OW  623   1.001   0.034   1.154
  199SOL    HW1  624   0.938  -0.038   1.123
  199SOL    HW2  625   1.094  -0.002   1.154
  200SOL     OW  626   0.770   1.330   0.301
  200SOL    HW1  627   0.724   1.243   0.318
  200SOL    HW2  628   0.861   1.327   0.342
  201SOL     OW  629   0.618   1.567   1.284
  201SOL    HW1  630   0.613   1.649   1.341
  201SOL    HW2  631   0.707   1.564   1.239
  202SOL     OW  632   1.352   0.052   0.168
  202SOL    HW1  633   1.387   0.011   0.084
  202SOL    HW2  634   1.262   0.014   0.188
  203SOL     OW  635   1.300   0.453   0.691
  203SOL    HW1  636   1.241   0.533   0.695
  203SOL    HW2  637   1.315   0.418   0.784
  204SOL     OW  638   1.593   0.221   0.882
  204SOL    HW1  639   1.509   0.220   0.936
  204SOL    HW2  640   1.595   0.304   0.826
  205SOL     OW  641   0.039   1.077   0.300
  205SOL    HW1  642   0.138   1.066   0.291
  205SOL    HW2  643  -0.001   0.991   0.332
  206SOL     OW  644   0.875   1.646   0.337
  206SOL    HW1  645   0.798   1.611   0.283
  206SOL    HW2  646   0.843   1.717   0.399
  207SOL     OW  647   0.230   0.628   1.975
  207SOL    HW1  648   0.137   0.626   2.012
  207SOL    HW2  649   0.231   0.589   1.883
  208SOL     OW  650   0.225   0.275   2.858
  208SOL    HW1  651   0.260   0.258   2.950
  208SOL    HW2  652   0.137   0.230   2.846
  209SOL     OW  653   0.019   0.368   2.509
  209SOL    HW1  654  -0.063   0.411   2.548
  209SOL    HW2  655  -0.009   0.295   2.446
  210SOL     OW  656   0.569   1.275   3.027
  210SOL    HW1  657   0.476   1.268   2.990
  210SOL    HW2  658   0.580   1.364   3.071
  211SOL     OW  659   1.555   1.511   2.565
  211SOL    HW1  660   1.498   1.495   2.646
  211SOL    HW2  661   1.496   1.521   2.485
  212SOL     OW  662   1.135   0.703   2.579
  212SOL    HW1  663   1.192   0.781   2.554
  212SOL    HW2  664   1.075   0.729   2.655
  213SOL     OW  665   1.755   0.607   2.093
  213SOL    HW1  666   1.743   0.594   1.994
  213SOL    HW2  667   1.725   0.526   2.142
  214SOL     OW  668   0.768   1.144   2.885
  214SOL    HW1  669   0.690   1.161   2.945
  214SOL    HW2  670   0.802   1.231   2.849
  215SOL     OW  671   0.685   1.012   2.527
  215SOL    HW1  672   0.754   0.996   2.597
  215SOL    HW2  673   0.612   1.069   2.565
  216SOL     OW  674   0.335   1.435   2.923
  216SOL    HW1  675   0.257   1.404   2.870
  216SOL    HW2  676   0.393   1.493   2.866
  217SOL     OW  677   1.603   0.447   2.599
  217SOL    HW1  678   1.529   0.493   2.549
  217SOL    HW2  679   1.654   0.515   2.652
  218SOL     OW  680   0.231   1.713   2.345
  218SOL    HW1  681   0.265   1.790   2.399
  218SOL    HW2  682   0.275   1.713   2.255
  219SOL     OW  683   0.230   1.434   2.400
  219SOL    HW1  684   0.204   1.530   2.400
  219SOL    HW2  685   0.159   1.380   2.445
  220SOL     OW  686   0.240   1.091   2.748
  220SOL    HW1  687   0.254   1.007   2.800
  220SOL    HW2  688   0.185   1.155   2.803
  221SOL     OW  689   0.620   1.786   3.301
  221SOL    HW1  690   0.528   1.769   3.336
  221SOL    HW2  691   0.648   1.878   3.327
  222SOL     OW  692   0.606   0.964   1.985
  222SOL    HW1  693   0.613   1.048   1.931
  222SOL    HW2  694   0.652   0.977   2.073
  223SOL     OW  695   0.122   0.643   2.425
  223SOL    HW1  696   0.077   0.555   2.442
  223SOL    HW2  697   0.121   0.697   2.509
  224SOL     OW  698   1.842   1.767   2.221
  224SOL    HW1  699   1.896   1.738   2.301
  224SOL    HW2  700   1.872   1.857   2.192
  225SOL     OW  701   0.027   1.596   1.979
  225SOL    HW1  702   0.008   1.500   2.000
  225SOL    HW2  703  -0.006   1.654   2.054
  226SOL     OW  704   1.689   0.922   2.474
  226SOL    HW1  705   1.784   0.893   2.482
  226SOL    HW2  706   1.681   0.987   2.399
  227SOL     OW  707   1.641   1.108   2.294
  227SOL    HW1  708   1.727   1.110   2.242
  227SOL    HW2  709   1.655   1.155   2.382
  228SOL     OW  710   0.613   1.365   2.588
  228SOL    HW1  711   0.564   1.278   2.597
  228SOL    HW2  712   0.590   1.408   2.501
  229SOL     OW  713   0.809   0.004   2.364
  229SOL    HW1  714   0.849   0.095   2.355
  229SOL    HW2  715   0.709   0.012   2.370
  230SOL     OW  716   0.197   0.976   3.126
  230SOL    HW1  717   0.286   0.931   3.112
  230SOL    HW2  718   0.124   0.911   3.107
  231SOL     OW  719   1.525   0.999   2.052
  231SOL    HW1  720   1.462   0.923   2.065
  231SOL    HW2  721   1.573   1.017   2.138
  232SOL     OW  722   1.466   1.417   2.815
  232SOL    HW1  723   1.407   1.423   2.895
  232SOL    HW2  724   1.451   1.329   2.769
  233SOL     OW  725   1.667   1.714   2.434
  233SOL    HW1  726   1.626   1.691   2.346
  233SOL    HW2  727   1.649   1.640   2.499
  234SOL     OW  728   0.598   0.729   2.132
  234SOL    HW1  729   0.622   0.798   2.064
  234SOL    HW2  730   0.520   0.762   2.186
  235SOL     OW  731   1.281   0.345   2.806
  235SOL    HW1  732   1.195   0.295   2.793
  235SOL    HW2  733   1.343   0.291   2.862
  236SOL     OW  734   0.991   0.410   3.104
  236SOL    HW1  735   0.914   0.444   3.158
  236SOL    HW2  736   0.957   0.359   3.025
  237SOL     OW  737   1.041   0.701   2.291
  237SOL    HW1  738   1.067   0.697   2.387
  237SOL    HW2  739   0.956   0.650   2.277
  238SOL     OW  740   0.076   0.811   2.651
  238SOL    HW1  741   0.175   0.799   2.660
  238SOL    HW2  742   0.052   0.906   2.672
  239SOL     OW  743   0.130   1.821   3.433
  239SOL    HW1  744   0.120   1.806   3.532
  239SOL    HW2  745   0.044   1.857   3.397
  240SOL     OW  746   0.865   0.348   2.057
  240SOL    HW1  747   0.924   0.411   2.008
  240SOL    HW2  748   0.884   0.254   2.028
  241SOL     OW  749   1.362   1.144   2.407
  241SOL    HW1  750   1.445   1.115   2.359
  241SOL    HW2  751   1.313   1.211   2.351
  242SOL     OW  752   0.550   0.196   2.747
  242SOL    HW1  753   0.545   0.191   2.847
  242SOL    HW2  754   0.552   0.292   2.718
  243SOL     OW  755   1.008   1.456   2.339
  243SOL    HW1  756   0.962   1.528   2.287
  243SOL    HW2  757   1.004   1.476   2.437
  244SOL     OW  758   0.351   1.801   2.715
  244SOL    HW1  759   0.401   1.715   2.721
  244SOL    HW2  760   0.416   1.878   2.712
  245SOL     OW  761   1.795   1.066   2.735
  245SOL    HW1  762   1.733   1.051   2.659
  245SOL    HW2  763   1.743   1.077   2.820
  246SOL     OW  764   0.321   0.943   2.104
  246SOL    HW1  765   0.403   0.982   2.062
  246SOL    HW2  766   0.294   0.861   2.055
  247SOL     OW  767   1.458   0.735   2.590
  247SOL    HW1  768   1.453   0.670   2.665
  247SOL    HW2  769   1.538   0.794   2.603
  248SOL     OW  770   1.111   1.776   2.099
  248SOL    HW1  771   1.051   1.714   2.149
  248SOL    HW2  772   1.142   1.732   2.014
  249SOL     OW  773   0.464   1.743   2.185
  249SOL    HW1  774   0.497   1.782   2.271
  249SOL    HW2  775   0.540   1.736   2.120
  250SOL     OW  776   1.400   0.107   2.288
  250SOL    HW1  777   1.376   0.070   2.198
  250SOL    HW2  778   1.499   0.123   2.292
  251SOL     OW  779   0.249   1.785   3.103
  251SOL    HW1  780   0.306   1.720   3.153
  251SOL    HW2  781   0.233   1.752   3.010
  252SOL     OW  782   0.940   1.698   2.766
  252SOL    HW1  783   1.020   1.641   2.787
  252SOL    HW2  784   0.891   1.658   2.689
  253SOL     OW  785   0.382   0.700   2.342
  253SOL    HW1  786   0.427   0.610   2.339
  253SOL    HW2  787   0.288   0.689   2.375
  254SOL     OW  788   0.614   0.122   1.979
  254SOL    HW1  789   0.712   0.100   1.986
  254SOL    HW2  790   0.583   0.105   1.886
  255SOL     OW  791   0.803   1.402   2.786
  255SOL    HW1  792   0.893   1.416   2.744
  255SOL    HW2  793   0.732   1.404   2.715
  256SOL     OW  794   0.922   0.503   2.761
  256SOL    HW1  795   0.897   0.494   2.665
  256SOL    HW2  796   0.970   0.421   2.792
  257SOL     OW  797   0.539   0.064   2.374
  257SOL    HW1  798   0.458   0.065   2.432
  257SOL    HW2  799   0.542   0.147   2.319
  258SOL     OW  800   1.434   1.188   1.903
  258SOL    HW1  801   1.466   1.112   1.960
  258SOL    HW2  802   1.342   1.215   1.933
  259SOL     OW  803   0.297   0.035   2.033
  259SOL    HW1  804   0.346   0.119   2.012
  259SOL    HW2  805   0.359  -0.030   2.078
  260SOL     OW  806   0.935   0.236   2.342
  260SOL    HW1  807   0.887   0.277   2.264
  260SOL    HW2  808   1.034   0.234   2.323
  261SOL     OW  809   1.227   1.570   2.655
  261SOL    HW1  810   1.248   1.644   2.590
  261SOL    HW2  811   1.295   1.570   2.728
  262SOL     OW  812   0.459   1.152   2.603
  262SOL    HW1  813   0.388   1.125   2.668
  262SOL    HW2  814   0.433   1.124   2.510
  263SOL     OW  815   1.271   1.797   2.453
  263SOL    HW1  816   1.315   1.861   2.389
  263SOL    HW2  817   1.221   1.849   2.523
  264SOL     OW  818   1.032   0.549   1.878
  264SOL    HW1  819   0.991   0.631   1.839
  264SOL    HW2  820   1.096   0.575   1.951
  265SOL     OW  821   0.561   0.222   3.009
  265SOL    HW1  822   0.599   0.138   3.046
  265SOL    HW2  823   0.473   0.241   3.053
  266SOL     OW  824   0.866   0.454   2.504
  266SOL    HW1  825   0.834   0.526   2.442
  266SOL    HW2  826   0.890   0.373   2.451
  267SOL     OW  827   1.017   0.039   2.615
  267SOL    HW1  828   0.945   0.044   2.546
  267SOL    HW2  829   0.993  -0.030   2.684
  268SOL     OW  830   1.429   1.173   2.729
  268SOL    HW1  831   1.374   1.089   2.722
  268SOL    HW2  832   1.455   1.202   2.637
  269SOL     OW  833   1.466   0.590   2.854
  269SOL    HW1  834   1.436   0.495   2.861
  269SOL    HW2  835   1.539   0.606   2.920
  270SOL     OW  836   1.857   0.833   2.239
  270SOL    HW1  837   1.899   0.769   2.303
  270SOL    HW2  838   1.819   0.782   2.161
  271SOL     OW  839   0.488   1.385   2.036
  271SOL    HW1  840   0.401   1.370   2.083
  271SOL    HW2  841   0.471   1.411   1.941
  272SOL     OW  842   1.664   1.280   2.519
  272SOL    HW1  843   1.763   1.288   2.533
  272SOL    HW2  844   1.619   1.364   2.550
  273SOL     OW  845   1.390   0.575   1.940
  273SOL    HW1  846   1.336   0.554   2.021
  273SOL    HW2  847   1.481   0.534   1.949
  274SOL     OW  848   0.527   0.256   2.190
  274SOL    HW1  849   0.554   0.197   2.115
  274SOL    HW2  850   0.527   0.351   2.159
  275SOL     OW  851   1.111   1.195   2.962
  275SOL    HW1  852   1.071   1.239   3.043
  275SOL    HW2  853   1.070   1.232   2.879
  276SOL     OW  854   1.638   1.099   2.941
  276SOL    HW1  855   1.643   1.180   3.000
  276SOL    HW2  856   1.552   1.101   2.890
  277SOL     OW  857   0.705   1.050   2.230
  277SOL    HW1  858   0.691   1.057   2.329
  277SOL    HW2  859   0.789   0.999   2.212
  278SOL     OW  860   0.410   0.813   3.113
  278SOL    HW1  861   0.496   0.825   3.163
  278SOL    HW2  862   0.368   0.726   3.140
  279SOL     OW  863   1.274   0.386   3.124
  279SOL    HW1  864   1.295   0.460   3.188
  279SOL    HW2  865   1.185   0.403   3.081
  280SOL     OW  866   0.367   1.100   2.363
  280SOL    HW1  867   0.360   1.183   2.307
  280SOL    HW2  868   0.371   1.020   2.303
  281SOL     OW  869   0.566   0.537   2.727
  281SOL    HW1  870   0.578   0.603   2.653
  281SOL    HW2  871   0.612   0.571   2.810
  282SOL     OW  872   1.252   1.348   2.250
  282SOL    HW1  873   1.302   1.425   2.290
  282SOL    HW2  874   1.157   1.350   2.282
  283SOL     OW  875   1.272   1.445   3.004
  283SOL    HW1  876   1.319   1.458   3.091
  283SOL    HW2  877   1.206   1.371   3.013
  284SOL     OW  878   1.582   0.639   2.334
  284SOL    HW1  879   1.551   0.700   2.407
  284SOL    HW2  880   1.632   0.691   2.265
  285SOL     OW  881   0.354   1.510   3.191
  285SOL    HW1  882   0.333   1.466   3.104
  285SOL    HW2  883   0.451   1.536   3.194
  286SOL     OW  884   0.573   0.870   2.891
  286SOL    HW1  885   0.617   0.959   2.882
  286SOL    HW2  886   0.510   0.870   2.968
  287SOL     OW  887   1.360   0.862   2.907
  287SOL    HW1  888   1.285   0.862   2.841
  287SOL    HW2  889   1.397   0.770   2.916
  288SOL     OW  890   1.209   0.525   2.137
  288SOL    HW1  891   1.222   0.441   2.191
  288SOL    HW2  892   1.180   0.599   2.197
  289SOL     OW  893   0.307   0.213   3.093
  289SOL    HW1  894   0.284   0.250   3.183
  289SOL    HW2  895   0.277   0.118   3.087
  290SOL     OW  896   0.037   1.310   3.144
  290SOL    HW1  897   0.090   1.261   3.212
  290SOL    HW2  898   0.059   1.408   3.149
  291SOL     OW  899   0.732   0.634   2.926
  291SOL    HW1  900   0.791   0.608   2.850
  291SOL    HW2  901   0.704   0.730   2.915
  292SOL     OW  902   0.307   0.063   2.480
  292SOL    HW1  903   0.296   0.157   2.513
  292SOL    HW2  904   0.302   0.000   2.557
  293SOL     OW  905   1.622   0.367   2.236
  293SOL    HW1  906   1.624   0.291   2.300
  293SOL    HW2  907   1.574   0.444   2.276
  294SOL     OW  908   1.023   0.766   2.828
  294SOL    HW1  909   1.038   0.787   2.924
  294SOL    HW2  910   0.993   0.671   2.819
  295SOL     OW  911   1.540   0.274   1.987
  295SOL    HW1  912   1.479   0.199   2.010
  295SOL    HW2  913   1.562   0.326   2.070
  296SOL     OW  914   1.303   0.838   1.904
  296SOL    HW1  915   1.337   0.745   1.919
  296SOL    HW2  916   1.321   0.865   1.809
  297SOL     OW  917   1.068   1.333   2.711
  297SOL    HW1  918   1.075   1.249   2.656
  297SOL    HW2  919   1.130   1.402   2.675
  298SOL     OW  920   0.319   0.810   2.811
  298SOL    HW1  921   0.412   0.846   2.816
  298SOL    HW2  922   0.313   0.725   2.863
  299SOL     OW  923   0.339   0.509   2.868
  299SOL    HW1  924   0.287   0.426   2.851
  299SOL    HW2  925   0.416   0.514   2.804
  300SOL     OW  926   1.160   0.207   3.339
  300SOL    HW1  927   1.160   0.271   3.416
  300SOL    HW2  928   1.188   0.255   3.256
  301SOL     OW  929   0.008   1.326   2.062
  301SOL    HW1  930  -0.085   1.347   2.031
  301SOL    HW2  931   0.018   1.227   2.075
  302SOL     OW  932   0.088   1.801   2.789
  302SOL    HW1  933   0.046   1.715   2.762
  302SOL    HW2  934   0.182   1.804   2.755
  303SOL     OW  935   0.504   1.568   2.772
  303SOL    HW1  936   0.570   1.642   2.781
  303SOL    HW2  937   0.548   1.489   2.730
  304SOL     OW  938   1.002   0.796   3.100
  304SOL    HW1  939   1.043   0.764   3.186
  304SOL    HW2  940   0.906   0.769   3.097
  305SOL     OW  941   0.040   0.544   2.976
  305SOL    HW1  942   0.125   0.511   2.935
  305SOL    HW2  943   0.053   0.559   3.074
  306SOL     OW  944   0.815   0.572   2.187
  306SOL    HW1  945   0.822   0.483   2.141
  306SOL    HW2  946   0.721   0.606   2.179
  307SOL     OW  947   1.657   0.604   3.068
  307SOL    HW1  948   1.619   0.535   3.130
  307SOL    HW2  949   1.739   0.568   3.024
  308SOL     OW  950   0.671   0.464   3.131
  308SOL    HW1  951   0.637   0.375   3.101
  308SOL    HW2  952   0.697   0.518   3.051
  309SOL     OW  953   0.930   1.678   3.327
  309SOL    HW1  954   0.906   1.660   3.232
  309SOL    HW2  955   0.960   1.772   3.337
  310SOL     OW  956   0.473   0.500   2.053
  310SOL    HW1  957   0.534   0.580   2.057
  310SOL    HW2  958   0.378   0.531   2.060
  311SOL     OW  959   1.347   1.059   3.096
  311SOL    HW1  960   1.371   0.996   3.022
  311SOL    HW2  961   1.257   1.099   3.078
  312SOL     OW  962   1.302   0.855   2.171
  312SOL    HW1  963   1.216   0.824   2.213
  312SOL    HW2  964   1.298   0.841   2.072
  313SOL     OW  965   1.759   1.747   3.016
  313SOL    HW1  966   1.820   1.777   2.943
  313SOL    HW2  967   1.721   1.658   2.994
  314SOL     OW  968   1.252   1.731   2.990
  314SOL    HW1  969   1.336   1.736   2.936
  314SOL    HW2  970   1.229   1.635   3.008
  315SOL     OW  971   0.083   1.258   2.884
  315SOL    HW1  972   0.078   1.257   2.984
  315SOL    HW2  973   0.000   1.217   2.846
  316SOL     OW  974   1.726   0.135   2.385
  316SOL    HW1  975   1.799   0.118   2.318
  316SOL    HW2  976   1.695   0.048   2.423
  317SOL     OW  977   1.388   1.573   2.339
  317SOL    HW1  978   1.455   1.585   2.265
  317SOL    HW2  979   1.348   1.662   2.362
  318SOL     OW  980   1.280   0.927   2.534
  318SOL    HW1  981   1.340   0.846   2.536
  318SOL    HW2  982   1.320   0.996   2.474
  319SOL     OW  983   0.672   1.616   2.016
  319SOL    HW1  984   0.681   1.626   1.917
  319SOL    HW2  985   0.632   1.527   2.037
  320SOL     OW  986   1.650   1.720   3.256
  320SOL    HW1  987   1.703   1.730   3.172
  320SOL    HW2  988   1.623   1.810   3.290
  321SOL     OW  989   1.841   0.175   2.825
  321SOL    HW1  990   1.880   0.090   2.789
  321SOL    HW2  991   1.743   0.177   2.806
  322SOL     OW  992   0.263   0.326   2.582
  322SOL    HW1  993   0.184   0.377   2.548
  322SOL    HW2  994   0.254   0.311   2.680
  323SOL     OW  995   1.194   1.612   1.893
  323SOL    HW1  996   1.200   1.519   1.930
  323SOL    HW2  997   1.135   1.612   1.813
  324SOL     OW  998   0.822   1.002   3.234
  324SOL    HW1  999   0.862   1.001   3.142
  324SOL    HW2 1000   0.832   1.094   3.274
  325SOL     OW 1001   0.916   0.910   2.153
  325SOL    HW1 1002   0.979   0.948   2.085
  325SOL    HW2 1003   0.956   0.827   2.192
  326SOL     OW 1004   1.039   1.098   2.558
  326SOL    HW1 1005   0.969   1.051   2.612
  326SOL    HW2 1006   1.098   1.030   2.515
  327SOL     OW 1007   1.014   0.236   2.833
  327SOL    HW1 1008   1.006   0.200   2.740
  327SOL    HW2 1009   1.012   0.160   2.898
  328SOL     OW 1010   0.590   1.487   2.353
  328SOL    HW1 1011   0.632   1.429   2.283
  328SOL    HW2 1012   0.546   1.566   2.309
  329SOL     OW 1013   1.709   0.385   3.243
  329SOL    HW1 1014   1.782   0.454   3.247
  329SOL    HW2 1015   1.737   0.310   3.184
  330SOL     OW 1016   0.255   1.348   2.152
  330SOL    HW1 1017   0.159   1.349   2.125
  330SOL    HW2 1018   0.267   1.401   2.236
  331SOL     OW 1019   0.075   0.345   1.895
  331SOL    HW1 1020  -0.017   0.317   1.866
  331SOL    HW2 1021   0.106   0.422   1.839
  332SOL     OW 1022   0.072   0.166   2.180
  332SOL    HW1 1023   0.055   0.249   2.126
  332SOL    HW2 1024   0.162   0.129   2.158
  333SOL     OW 1025   1.183   1.335   1.981
  333SOL    HW1 1026   1.084   1.324   1.983
  333SOL    HW2 1027   1.217   1.350   2.074
  334SOL     OW 1028   1.493   1.767   2.821
  334SOL    HW1 1029   1.526   1.831   2.752
  334SOL    HW2 1030   1.559   1.761   2.896
  335SOL     OW 1031   1.450   1.220   3.495
  335SOL    HW1 1032   1.441   1.210   3.594
  335SOL    HW2 1033   1.546   1.213   3.469
  336SOL     OW 1034   1.674   0.883   3.116
  336SOL    HW1 1035   1.647   0.794   3.079
  336SOL    HW2 1036   1.675   0.951   3.043
  337SOL     OW 1037   1.225   0.325   2.311
  337SOL    HW1 1038   1.290   0.251   2.300
  337SOL    HW2 1039   1.245   0.375   2.395
  338SOL     OW 1040   0.594   0.745   2.514
  338SOL    HW1 1041   0.644   0.830   2.495
  338SOL    HW2 1042   0.506   0.747   2.466
  339SOL     OW 1043   1.730   0.934   3.379
  339SOL    HW1 1044   1.768   1.025   3.394
  339SOL    HW2 1045   1.722   0.917   3.280
  340SOL     OW 1046   0.859   1.374   1.878
  340SOL    HW1 1047   0.813   1.389   1.966
  340SOL    HW2 1048   0.903   1.459   1.848
  341SOL     OW 1049   0.661   1.790   2.815
  341SOL    HW1 1050   0.615   1.878   2.802
  341SOL    HW2 1051   0.760   1.802   2.808
  342SOL     OW 1052   0.859   0.956   2.723
  342SOL    HW1 1053   0.913   0.887   2.771
  342SOL    HW2 1054   0.827   1.025   2.789
  343SOL     OW 1055   1.083   0.984   1.949
  343SOL    HW1 1056   1.060   1.037   1.867
  343SOL    HW2 1057   1.164   0.928   1.930
  344SOL     OW 1058   1.861   1.569   2.713
  344SOL    HW1 1059   1.790   1.557   2.643
  344SOL    HW2 1060   1.862   1.490   2.773
  345SOL     OW 1061   0.079   1.240   2.515
  345SOL    HW1 1062   0.078   1.193   2.603
  345SOL    HW2 1063   0.161   1.212   2.464
  346SOL     OW 1064   1.824   0.192   3.089
  346SOL    HW1 1065   1.820   0.102   3.133
  346SOL    HW2 1066   1.827   0.181   2.990
  347SOL     OW 1067   0.428   0.424   2.382
  347SOL    HW1 1068   0.458   0.352   2.320
  347SOL    HW2 1069   0.389   0.384   2.465
  348SOL     OW 1070   1.705   1.487   2.966
  348SOL    HW1 1071   1.612   1.462   2.939
  348SOL    HW2 1072   1.731   1.437   3.048
  349SOL     OW 1073   0.812   1.586   2.549
  349SOL    HW1 1074   0.844   1.596   2.455
  349SOL    HW2 1075   0.733   1.524   2.551
  350SOL     OW 1076   1.424   0.214   2.974
  350SOL    HW1 1077   1.476   0.149   3.029
  350SOL    HW2 1078   1.375   0.277   3.035
  351SOL     OW 1079   1.001   0.034   3.016
  351SOL    HW1 1080   0.938  -0.038   2.985
  351SOL    HW2 1081   1.094  -0.002   3.016
  352SOL     OW 1082   0.770   1.330   2.163
  352SOL    HW1 1083   0.724   1.243   2.180
  352SOL    HW2 1084   0.861   1.327   2.204
  353SOL     OW 1085   1.352   0.052   2.030
  353SOL    HW1 1086   1.387   0.011   1.946
  353SOL    HW2 1087   1.262   0.014   2.050
  354SOL     OW 1088   1.300   0.453   2.553
  354SOL    HW1 1089   1.241   0.533   2.557
  354SOL    HW2 1090   1.315   0.418   2.646
  355SOL     OW 1091   1.593   0.221   2.744
  355SOL    HW1 1092   1.509   0.220   2.798
  355SOL    HW2 1093   1.595   0.304   2.688
  356SOL     OW 1094   0.039   1.077   2.162
  356SOL    HW1 1095   0.138   1.066   2.153
  356SOL    HW2 1096  -0.001   0.991   2.194
  357SOL     OW 1097   0.875   1.646   2.199
  357SOL    HW1 1098   0.798   1.611   2.145
  357SOL    HW2 1099   0.843   1.717   2.261
  358SOL     OW 1100   0.230   2.490   0.113
  358SOL    HW1 1101   0.137   2.488   0.150
  358SOL    HW2 1102   0.231   2.451   0.021
  359SOL     OW 1103   0.225   2.137   0.996
  359SOL    HW1 1104   0.260   2.120   1.088
  359SOL    HW2 1105   0.137   2.092   0.984
  360SOL     OW 1106   0.019   2.230   0.647
  360SOL    HW1 1107  -0.063   2.273   0.686
  360SOL    HW2 1108  -0.009   2.157   0.584
  361SOL     OW 1109   1.555   3.373   0.703
  361SOL    HW1 1110   1.498   3.357   0.784
  361SOL    HW2 1111   1.496   3.383   0.623
  362SOL     OW 1112   1.135   2.565   0.717
  362SOL    HW1 1113   1.192   2.643   0.692
  362SOL    HW2 1114   1.075   2.591   0.793
  363SOL     OW 1115   1.755   2.469   0.231
  363SOL    HW1 1116   1.743   2.456   0.132
  363SOL    HW2 1117   1.725   2.388   0.280
  364SOL     OW 1118   0.768   3.006   1.023
  364SOL    HW1 1119   0.690   3.023   1.083
  364SOL    HW2 1120   0.802   3.093   0.987
  365SOL     OW 1121   0.850   2.660   1.823
  365SOL    HW1 1122   0.846   2.736   1.888
  365SOL    HW2 1123   0.872   2.696   1.732
  366SOL     OW 1124   0.685   2.874   0.665
  366SOL    HW1 1125   0.754   2.858   0.735
  366SOL    HW2 1126   0.612   2.931   0.703
  367SOL     OW 1127   0.686   3.023   1.803
  367SOL    HW1 1128   0.746   3.102   1.817
  367SOL    HW2 1129   0.600   3.054   1.762
  368SOL     OW 1130   0.335   3.297   1.061
  368SOL    HW1 1131   0.257   3.266   1.008
  368SOL    HW2 1132   0.393   3.355   1.004
  369SOL     OW 1133   0.438   2.254   1.499
  369SOL    HW1 1134   0.520   2.198   1.508
  369SOL    HW2 1135   0.357   2.196   1.503
  370SOL     OW 1136   1.603   2.309   0.737
  370SOL    HW1 1137   1.529   2.355   0.687
  370SOL    HW2 1138   1.654   2.377   0.790
  371SOL     OW 1139   0.240   2.953   0.886
  371SOL    HW1 1140   0.254   2.869   0.938
  371SOL    HW2 1141   0.185   3.017   0.941
  372SOL     OW 1142   0.606   2.826   0.123
  372SOL    HW1 1143   0.613   2.910   0.069
  372SOL    HW2 1144   0.652   2.839   0.211
  373SOL     OW 1145   1.594   1.976   1.480
  373SOL    HW1 1146   1.576   2.043   1.408
  373SOL    HW2 1147   1.591   2.022   1.569
  374SOL     OW 1148   0.122   2.505   0.563
  374SOL    HW1 1149   0.077   2.417   0.580
  374SOL    HW2 1150   0.121   2.559   0.647
  375SOL     OW 1151   1.689   2.784   0.612
  375SOL    HW1 1152   1.784   2.755   0.620
  375SOL    HW2 1153   1.681   2.849   0.537
  376SOL     OW 1154   1.641   2.970   0.432
  376SOL    HW1 1155   1.727   2.972   0.380
  376SOL    HW2 1156   1.655   3.017   0.520
  377SOL     OW 1157   0.113   2.599   1.597
  377SOL    HW1 1158   0.201   2.586   1.642
  377SOL    HW2 1159   0.100   2.696   1.575
  378SOL     OW 1160   1.293   3.090   1.423
  378SOL    HW1 1161   1.330   3.017   1.365
  378SOL    HW2 1162   1.345   3.095   1.508
  379SOL     OW 1163   0.809   1.866   0.502
  379SOL    HW1 1164   0.849   1.957   0.493
  379SOL    HW2 1165   0.709   1.874   0.508
  380SOL     OW 1166   0.197   2.838   1.264
  380SOL    HW1 1167   0.286   2.793   1.250
  380SOL    HW2 1168   0.124   2.773   1.245
  381SOL     OW 1169   1.525   2.861   0.190
  381SOL    HW1 1170   1.462   2.785   0.203
  381SOL    HW2 1171   1.573   2.879   0.276
  382SOL     OW 1172   0.317   2.113   1.801
  382SOL    HW1 1173   0.388   2.184   1.807
  382SOL    HW2 1174   0.229   2.152   1.829
  383SOL     OW 1175   1.466   3.279   0.953
  383SOL    HW1 1176   1.407   3.285   1.033
  383SOL    HW2 1177   1.451   3.191   0.907
  384SOL     OW 1178   0.598   2.591   0.270
  384SOL    HW1 1179   0.622   2.660   0.202
  384SOL    HW2 1180   0.520   2.624   0.324
  385SOL     OW 1181   1.281   2.207   0.944
  385SOL    HW1 1182   1.195   2.157   0.931
  385SOL    HW2 1183   1.343   2.153   1.000
  386SOL     OW 1184   0.807   2.467   1.465
  386SOL    HW1 1185   0.760   2.464   1.554
  386SOL    HW2 1186   0.756   2.412   1.399
  387SOL     OW 1187   1.394   2.331   1.674
  387SOL    HW1 1188   1.374   2.374   1.762
  387SOL    HW2 1189   1.472   2.269   1.683
  388SOL     OW 1190   0.973   2.752   1.572
  388SOL    HW1 1191   1.019   2.668   1.543
  388SOL    HW2 1192   0.917   2.786   1.497
  389SOL     OW 1193   0.991   2.272   1.242
  389SOL    HW1 1194   0.914   2.306   1.296
  389SOL    HW2 1195   0.957   2.221   1.163
  390SOL     OW 1196   1.041   2.563   0.429
  390SOL    HW1 1197   1.067   2.559   0.525
  390SOL    HW2 1198   0.956   2.512   0.415
  391SOL     OW 1199   0.076   2.673   0.789
  391SOL    HW1 1200   0.175   2.661   0.798
  391SOL    HW2 1201   0.052   2.768   0.810
  392SOL     OW 1202   0.865   2.210   0.195
  392SOL    HW1 1203   0.924   2.273   0.146
  392SOL    HW2 1204   0.884   2.116   0.166
  393SOL     OW 1205   1.719   2.447   1.831
  393SOL    HW1 1206   1.693   2.536   1.795
  393SOL    HW2 1207   1.717   2.379   1.758
  394SOL     OW 1208   1.362   3.006   0.545
  394SOL    HW1 1209   1.445   2.977   0.497
  394SOL    HW2 1210   1.313   3.073   0.489
  395SOL     OW 1211   0.550   2.058   0.885
  395SOL    HW1 1212   0.545   2.053   0.985
  395SOL    HW2 1213   0.552   2.154   0.856
  396SOL     OW 1214   1.795   2.928   0.873
  396SOL    HW1 1215   1.733   2.913   0.797
  396SOL    HW2 1216   1.743   2.939   0.958
  397SOL     OW 1217   0.321   2.805   0.242
  397SOL    HW1 1218   0.403   2.844   0.200
  397SOL    HW2 1219   0.294   2.723   0.193
  398SOL     OW 1220   1.458   2.597   0.728
  398SOL    HW1 1221   1.453   2.532   0.803
  398SOL    HW2 1222   1.538   2.656   0.741
  399SOL     OW 1223   0.202   2.147   1.498
  399SOL    HW1 1224   0.122   2.207   1.485
  399SOL    HW2 1225   0.192   2.098   1.584
  400SOL     OW 1226   1.632   3.239   0.081
  400SOL    HW1 1227   1.600   3.333   0.071
  400SOL    HW2 1228   1.556   3.176   0.069
  401SOL     OW 1229   1.400   1.969   0.426
  401SOL    HW1 1230   1.376   1.932   0.336
  401SOL    HW2 1231   1.499   1.985   0.430
  402SOL     OW 1232   0.382   2.562   0.480
  402SOL    HW1 1233   0.427   2.472   0.477
  402SOL    HW2 1234   0.288   2.551   0.513
  403SOL     OW 1235   1.547   2.084   1.729
  403SOL    HW1 1236   1.542   2.121   1.821
  403SOL    HW2 1237   1.475   2.015   1.717
  404SOL     OW 1238   0.781   2.126   1.749
  404SOL    HW1 1239   0.848   2.065   1.792
  404SOL    HW2 1240   0.708   2.145   1.814
  405SOL     OW 1241   1.351   2.452   1.433
  405SOL    HW1 1242   1.379   2.409   1.518
  405SOL    HW2 1243   1.376   2.548   1.434
  406SOL     OW 1244   0.803   3.264   0.924
  406SOL    HW1 1245   0.893   3.278   0.882
  406SOL    HW2 1246   0.732   3.266   0.853
  407SOL     OW 1247   0.922   2.365   0.899
  407SOL    HW1 1248   0.897   2.356   0.803
  407SOL    HW2 1249   0.970   2.283   0.930
  408SOL     OW 1250   0.539   1.926   0.512
  408SOL    HW1 1251   0.458   1.927   0.570
  408SOL    HW2 1252   0.542   2.009   0.457
  409SOL     OW 1253   1.434   3.050   0.041
  409SOL    HW1 1254   1.466   2.974   0.098
  409SOL    HW2 1255   1.342   3.077   0.071
  410SOL     OW 1256   0.297   1.897   0.171
  410SOL    HW1 1257   0.346   1.981   0.150
  410SOL    HW2 1258   0.359   1.832   0.216
  411SOL     OW 1259   0.935   2.098   0.480
  411SOL    HW1 1260   0.887   2.139   0.402
  411SOL    HW2 1261   1.034   2.096   0.461
  412SOL     OW 1262   1.076   2.545   1.464
  412SOL    HW1 1263   0.996   2.484   1.467
  412SOL    HW2 1264   1.157   2.492   1.440
  413SOL     OW 1265   0.459   3.014   0.741
  413SOL    HW1 1266   0.388   2.987   0.806
  413SOL    HW2 1267   0.433   2.986   0.648
  414SOL     OW 1268   1.032   2.411   0.016
  414SOL    HW1 1269   0.991   2.493  -0.023
  414SOL    HW2 1270   1.096   2.437   0.089
  415SOL     OW 1271   0.078   2.418   1.386
  415SOL    HW1 1272   0.170   2.417   1.345
  415SOL    HW2 1273   0.072   2.492   1.453
  416SOL     OW 1274   0.561   2.084   1.147
  416SOL    HW1 1275   0.599   2.000   1.184
  416SOL    HW2 1276   0.473   2.103   1.191
  417SOL     OW 1277   0.866   2.316   0.642
  417SOL    HW1 1278   0.834   2.388   0.580
  417SOL    HW2 1279   0.890   2.235   0.589
  418SOL     OW 1280   1.017   1.901   0.753
  418SOL    HW1 1281   0.945   1.906   0.684
  418SOL    HW2 1282   0.993   1.832   0.822
  419SOL     OW 1283   1.429   3.035   0.867
  419SOL    HW1 1284   1.374   2.951   0.860
  419SOL    HW2 1285   1.455   3.064   0.775
  420SOL     OW 1286   1.466   2.452   0.992
  420SOL    HW1 1287   1.436   2.357   0.999
  420SOL    HW2 1288   1.539   2.468   1.058
  421SOL     OW 1289   1.857   2.695   0.377
  421SOL    HW1 1290   1.899   2.631   0.441
  421SOL    HW2 1291   1.819   2.644   0.299
  422SOL     OW 1292   1.664   3.142   0.657
  422SOL    HW1 1293   1.763   3.150   0.671
  422SOL    HW2 1294   1.619   3.226   0.688
  423SOL     OW 1295   1.390   2.437   0.078
  423SOL    HW1 1296   1.336   2.416   0.159
  423SOL    HW2 1297   1.481   2.396   0.087
  424SOL     OW 1298   0.527   2.118   0.328
  424SOL    HW1 1299   0.554   2.059   0.253
  424SOL    HW2 1300   0.527   2.213   0.297
  425SOL     OW 1301   1.754   3.085   1.588
  425SOL    HW1 1302   1.845   3.046   1.575
  425SOL    HW2 1303   1.762   3.181   1.612
  426SOL     OW 1304   1.638   2.961   1.079
  426SOL    HW1 1305   1.643   3.042   1.138
  426SOL    HW2 1306   1.552   2.963   1.028
  427SOL     OW 1307   0.915   1.951   1.402
  427SOL    HW1 1308   0.940   1.931   1.307
  427SOL    HW2 1309   0.987   2.007   1.444
  428SOL     OW 1310   0.980   2.978   1.719
  428SOL    HW1 1311   0.881   2.984   1.729
  428SOL    HW2 1312   1.003   2.898   1.663
  429SOL     OW 1313   0.705   2.912   0.368
  429SOL    HW1 1314   0.691   2.919   0.467
  429SOL    HW2 1315   0.789   2.861   0.350
  430SOL     OW 1316   0.410   2.675   1.251
  430SOL    HW1 1317   0.496   2.687   1.301
  430SOL    HW2 1318   0.368   2.588   1.278
  431SOL     OW 1319   1.274   2.248   1.262
  431SOL    HW1 1320   1.295   2.322   1.326
  431SOL    HW2 1321   1.185   2.265   1.219
  432SOL     OW 1322   0.367   2.962   0.501
  432SOL    HW1 1323   0.360   3.045   0.445
  432SOL    HW2 1324   0.371   2.882   0.441
  433SOL     OW 1325   0.566   2.399   0.865
  433SOL    HW1 1326   0.578   2.465   0.791
  433SOL    HW2 1327   0.612   2.433   0.948
  434SOL     OW 1328   1.582   2.501   0.472
  434SOL    HW1 1329   1.551   2.562   0.545
  434SOL    HW2 1330   1.632   2.553   0.403
  435SOL     OW 1331   0.402   2.613   1.598
  435SOL    HW1 1332   0.470   2.668   1.551
  435SOL    HW2 1333   0.442   2.525   1.625
  436SOL     OW 1334   1.587   2.641   1.670
  436SOL    HW1 1335   1.495   2.679   1.665
  436SOL    HW2 1336   1.647   2.688   1.605
  437SOL     OW 1337   1.013   1.967   1.770
  437SOL    HW1 1338   1.019   2.052   1.718
  437SOL    HW2 1339   1.045   1.891   1.713
  438SOL     OW 1340   0.504   1.912   1.740
  438SOL    HW1 1341   0.462   1.855   1.670
  438SOL    HW2 1342   0.438   1.981   1.772
  439SOL     OW 1343   0.573   2.732   1.029
  439SOL    HW1 1344   0.617   2.821   1.020
  439SOL    HW2 1345   0.510   2.732   1.106
  440SOL     OW 1346   1.360   2.724   1.045
  440SOL    HW1 1347   1.285   2.724   0.979
  440SOL    HW2 1348   1.397   2.632   1.054
  441SOL     OW 1349   1.209   2.387   0.275
  441SOL    HW1 1350   1.222   2.303   0.329
  441SOL    HW2 1351   1.180   2.461   0.335
  442SOL     OW 1352   0.307   2.075   1.231
  442SOL    HW1 1353   0.284   2.112   1.321
  442SOL    HW2 1354   0.277   1.980   1.225
  443SOL     OW 1355   0.037   3.172   1.282
  443SOL    HW1 1356   0.090   3.123   1.350
  443SOL    HW2 1357   0.059   3.270   1.287
  444SOL     OW 1358   0.732   2.496   1.064
  444SOL    HW1 1359   0.791   2.470   0.988
  444SOL    HW2 1360   0.704   2.592   1.053
  445SOL     OW 1361   1.728   2.797   1.854
  445SOL    HW1 1362   1.682   2.790   1.765
  445SOL    HW2 1363   1.666   2.841   1.920
  446SOL     OW 1364   0.307   1.925   0.618
  446SOL    HW1 1365   0.296   2.019   0.651
  446SOL    HW2 1366   0.302   1.862   0.695
  447SOL     OW 1367   1.622   2.229   0.374
  447SOL    HW1 1368   1.624   2.153   0.438
  447SOL    HW2 1369   1.574   2.306   0.414
  448SOL     OW 1370   1.023   2.628   0.966
  448SOL    HW1 1371   1.038   2.649   1.062
  448SOL    HW2 1372   0.993   2.533   0.957
  449SOL     OW 1373   1.859   3.380   1.605
  449SOL    HW1 1374   1.873   3.407   1.510
  449SOL    HW2 1375   1.942   3.402   1.658
  450SOL     OW 1376   0.350   2.760   1.804
  450SOL    HW1 1377   0.426   2.804   1.852
  450SOL    HW2 1378   0.385   2.713   1.722
  451SOL     OW 1379   1.540   2.136   0.125
  451SOL    HW1 1380   1.479   2.061   0.148
  451SOL    HW2 1381   1.562   2.188   0.208
  452SOL     OW 1382   1.303   2.700   0.042
  452SOL    HW1 1383   1.337   2.607   0.057
  452SOL    HW2 1384   1.321   2.727  -0.053
  453SOL     OW 1385   0.319   2.672   0.949
  453SOL    HW1 1386   0.412   2.708   0.954
  453SOL    HW2 1387   0.313   2.587   1.001
  454SOL     OW 1388   0.339   2.371   1.006
  454SOL    HW1 1389   0.287   2.288   0.989
  454SOL    HW2 1390   0.416   2.376   0.942
  455SOL     OW 1391   1.138   2.242   1.678
  455SOL    HW1 1392   1.093   2.305   1.742
  455SOL    HW2 1393   1.231   2.273   1.661
  456SOL     OW 1394   1.160   2.069   1.477
  456SOL    HW1 1395   1.160   2.133   1.554
  456SOL    HW2 1396   1.188   2.117   1.394
  457SOL     OW 1397   0.008   3.188   0.200
  457SOL    HW1 1398  -0.085   3.209   0.169
  457SOL    HW2 1399   0.018   3.089   0.213
  458SOL     OW 1400   1.002   2.658   1.238
  458SOL    HW1 1401   1.043   2.626   1.324
  458SOL    HW2 1402   0.906   2.631   1.235
  459SOL     OW 1403   0.040   2.406   1.114
  459SOL    HW1 1404   0.125   2.373   1.073
  459SOL    HW2 1405   0.053   2.421   1.212
  460SOL     OW 1406   0.189   2.382   1.722
  460SOL    HW1 1407   0.248   2.342   1.652
  460SOL    HW2 1408   0.131   2.453   1.681
  461SOL     OW 1409   1.369   2.812   1.660
  461SOL    HW1 1410   1.408   2.901   1.680
  461SOL    HW2 1411   1.379   2.792   1.563
  462SOL     OW 1412   0.815   2.434   0.325
  462SOL    HW1 1413   0.822   2.345   0.279
  462SOL    HW2 1414   0.721   2.468   0.317
  463SOL     OW 1415   1.657   2.466   1.206
  463SOL    HW1 1416   1.619   2.397   1.268
  463SOL    HW2 1417   1.739   2.430   1.162
  464SOL     OW 1418   0.671   2.326   1.269
  464SOL    HW1 1419   0.637   2.237   1.239
  464SOL    HW2 1420   0.697   2.380   1.189
  465SOL     OW 1421   0.473   2.362   0.191
  465SOL    HW1 1422   0.534   2.442   0.195
  465SOL    HW2 1423   0.378   2.393   0.198
  466SOL     OW 1424   0.159   2.999   1.466
  466SOL    HW1 1425   0.181   2.938   1.542
  466SOL    HW2 1426   0.169   2.950   1.380
  467SOL     OW 1427   1.347   2.921   1.234
  467SOL    HW1 1428   1.371   2.858   1.160
  467SOL    HW2 1429   1.257   2.961   1.216
  468SOL     OW 1430   1.302   2.717   0.309
  468SOL    HW1 1431   1.216   2.686   0.351
  468SOL    HW2 1432   1.298   2.703   0.210
  469SOL     OW 1433   0.083   3.120   1.022
  469SOL    HW1 1434   0.078   3.119   1.122
  469SOL    HW2 1435   0.000   3.079   0.984
  470SOL     OW 1436   0.903   1.948   0.133
  470SOL    HW1 1437   0.954   1.949   0.047
  470SOL    HW2 1438   0.959   1.906   0.204
  471SOL     OW 1439   1.726   1.997   0.523
  471SOL    HW1 1440   1.799   1.980   0.456
  471SOL    HW2 1441   1.695   1.910   0.561
  472SOL     OW 1442   1.280   2.789   0.672
  472SOL    HW1 1443   1.340   2.708   0.674
  472SOL    HW2 1444   1.320   2.858   0.612
  473SOL     OW 1445   0.830   3.135   1.422
  473SOL    HW1 1446   0.825   3.168   1.517
  473SOL    HW2 1447   0.744   3.154   1.376
  474SOL     OW 1448   1.841   2.037   0.963
  474SOL    HW1 1449   1.880   1.952   0.927
  474SOL    HW2 1450   1.743   2.039   0.944
  475SOL     OW 1451   0.263   2.188   0.720
  475SOL    HW1 1452   0.184   2.239   0.686
  475SOL    HW2 1453   0.254   2.173   0.818
  476SOL     OW 1454   0.822   2.864   1.372
  476SOL    HW1 1455   0.862   2.863   1.280
  476SOL    HW2 1456   0.832   2.956   1.412
  477SOL     OW 1457   0.916   2.772   0.291
  477SOL    HW1 1458   0.979   2.810   0.223
  477SOL    HW2 1459   0.956   2.689   0.330
  478SOL     OW 1460   0.372   3.150   1.490
  478SOL    HW1 1461   0.359   3.243   1.456
  478SOL    HW2 1462   0.288   3.098   1.477
  479SOL     OW 1463   1.614   3.154   1.289
  479SOL    HW1 1464   1.674   3.157   1.369
  479SOL    HW2 1465   1.539   3.218   1.302
  480SOL     OW 1466   1.039   2.960   0.696
  480SOL    HW1 1467   0.969   2.913   0.750
  480SOL    HW2 1468   1.098   2.892   0.653
  481SOL     OW 1469   1.014   2.098   0.971
  481SOL    HW1 1470   1.006   2.062   0.878
  481SOL    HW2 1471   1.012   2.022   1.036
  482SOL     OW 1472   1.709   2.247   1.381
  482SOL    HW1 1473   1.782   2.316   1.385
  482SOL    HW2 1474   1.737   2.172   1.322
  483SOL     OW 1475   0.105   2.875   1.726
  483SOL    HW1 1476   0.028   2.842   1.780
  483SOL    HW2 1477   0.190   2.845   1.768
  484SOL     OW 1478   0.672   2.065   1.489
  484SOL    HW1 1479   0.762   2.049   1.449
  484SOL    HW2 1480   0.680   2.070   1.588
  485SOL     OW 1481   0.075   2.207   0.033
  485SOL    HW1 1482  -0.017   2.179   0.004
  485SOL    HW2 1483   0.106   2.284  -0.023
  486SOL     OW 1484   1.440   2.718   1.398
  486SOL    HW1 1485   1.383   2.770   1.335
  486SOL    HW2 1486   1.536   2.730   1.374
  487SOL     OW 1487   0.072   2.028   0.318
  487SOL    HW1 1488   0.055   2.111   0.264
  487SOL    HW2 1489   0.162   1.991   0.296
  488SOL     OW 1490   0.613   2.704   1.431
  488SOL    HW1 1491   0.669   2.785   1.414
  488SOL    HW2 1492   0.672   2.624   1.434
  489SOL     OW 1493   0.716   2.427   1.708
  489SOL    HW1 1494   0.735   2.492   1.782
  489SOL    HW2 1495   0.776   2.347   1.717
  490SOL     OW 1496   1.450   3.082   1.633
  490SOL    HW1 1497   1.441   3.072   1.732
  490SOL    HW2 1498   1.546   3.075   1.607
  491SOL     OW 1499   1.674   2.745   1.254
  491SOL    HW1 1500   1.647   2.656   1.217
  491SOL    HW2 1501   1.675   2.813   1.181
  492SOL     OW 1502   1.225   2.187   0.449
  492SOL    HW1 1503   1.290   2.113   0.438
  492SOL    HW2 1504   1.245   2.237   0.533
  493SOL     OW 1505   0.594   2.607   0.652
  493SOL    HW1 1506   0.644   2.692   0.633
  493SOL    HW2 1507   0.506   2.609   0.604
  494SOL     OW 1508   1.777   2.204   1.642
  494SOL    HW1 1509   1.760   2.235   1.548
  494SOL    HW2 1510   1.693   2.167   1.680
  495SOL     OW 1511   1.730   2.796   1.517
  495SOL    HW1 1512   1.768   2.887   1.532
  495SOL    HW2 1513   1.722   2.779   1.418
  496SOL     OW 1514   0.859   2.818   0.861
  496SOL    HW1 1515   0.913   2.749   0.909
  496SOL    HW2 1516   0.827   2.887   0.927
  497SOL     OW 1517   1.083   2.846   0.087
  497SOL    HW1 1518   1.060   2.899   0.005
  497SOL    HW2 1519   1.164   2.790   0.068
  498SOL     OW 1520   0.079   3.102   0.653
  498SOL    HW1 1521   0.078   3.055   0.741
  498SOL    HW2 1522   0.161   3.074   0.602
  499SOL     OW 1523   1.824   2.054   1.227
  499SOL    HW1 1524   1.820   1.964   1.271
  499SOL    HW2 1525   1.827   2.043   1.128
  500SOL     OW 1526   0.428   2.286   0.520
  500SOL    HW1 1527   0.458   2.214   0.458
  500SOL    HW2 1528   0.389   2.246   0.603
  501SOL     OW 1529   0.317   2.409   1.280
  501SOL    HW1 1530   0.355   2.350   1.352
  501SOL    HW2 1531   0.357   2.383   1.192
  502SOL     OW 1532   1.424   2.076   1.112
  502SOL    HW1 1533   1.476   2.011   1.167
  502SOL    HW2 1534   1.375   2.139   1.173
  503SOL     OW 1535   1.001   1.896   1.154
  503SOL    HW1 1536   0.938   1.824   1.123
  503SOL    HW2 1537   1.094   1.860   1.154
  504SOL     OW 1538   0.770   3.192   0.301
  504SOL    HW1 1539   0.724   3.105   0.318
  504SOL    HW2 1540   0.861   3.189   0.342
  505SOL     OW 1541   1.352   1.914   0.168
  505SOL    HW1 1542   1.387   1.873   0.084
  505SOL    HW2 1543   1.262   1.876   0.188
  506SOL     OW 1544   1.300   2.315   0.691
  506SOL    HW1 1545   1.241   2.395   0.695
  506SOL    HW2 1546   1.315   2.280   0.784
  507SOL     OW 1547   1.593   2.083   0.882
  507SOL    HW1 1548   1.509   2.082   0.936
  507SOL    HW2 1549   1.595   2.166   0.826
  508SOL     OW 1550   0.039   2.939   0.300
  508SOL    HW1 1551   0.138   2.928   0.291
  508SOL    HW2 1552  -0.001   2.853   0.332
  509SOL     OW 1553   0.230   2.490   1.975
  509SOL    HW1 1554   0.137   2.488   2.012
  509SOL    HW2 1555   0.231   2.451   1.883
  510SOL     OW 1556   0.225   2.137   2.858
  510SOL    HW1 1557   0.260   2.120   2.950
  510SOL    HW2 1558   0.137   2.092   2.846
  511SOL     OW 1559   0.019   2.230   2.509
  511SOL    HW1 1560  -0.063   2.273   2.548
  511SOL    HW2 1561  -0.009   2.157   2.446
  512SOL     OW 1562   1.555   3.373   2.565
  512SOL    HW1 1563   1.498   3.357   2.646
  512SOL    HW2 1564   1.496   3.383   2.485
  513SOL     OW 1565   1.135   2.565   2.579
  513SOL    HW1 1566   1.192   2.643   2.554
  513SOL    HW2 1567   1.075   2.591   2.655
  514SOL     OW 1568   1.755   2.469   2.093
  514SOL    HW1 1569   1.743   2.456   1.994
  514SOL    HW2 1570   1.725   2.388   2.142
  515SOL     OW 1571   0.768   3.006   2.885
  515SOL    HW1 1572   0.690   3.023   2.945
  515SOL    HW2 1573   0.802   3.093   2.849
  516SOL     OW 1574   0.685   2.874   2.527
  516SOL    HW1 1575   0.754   2.858   2.597
  516SOL    HW2 1576   0.612   2.931   2.565
  517SOL     OW 1577   0.335   3.297   2.923
  517SOL    HW1 1578   0.257   3.266   2.870
  517SOL    HW2 1579   0.393   3.355   2.866
  518SOL     OW 1580   1.603   2.309   2.599
  518SOL    HW1 1581   1.529   2.355   2.549
  518SOL    HW2 1582   1.654   2.377   2.652
  519SOL     OW 1583   0.240   2.953   2.748
  519SOL    HW1 1584   0.254   2.869   2.800
  519SOL    HW2 1585   0.185   3.017   2.803
  520SOL     OW 1586   0.606   2.826   1.985
  520SOL    HW1 1587   0.613   2.910   1.931
  520SOL    HW2 1588   0.652   2.839   2.073
  521SOL     OW 1589   0.122   2.505   2.425
  521SOL    HW1 1590   0.077   2.417   2.442
  521SOL    HW2 1591   0.121   2.559   2.509
  522SOL     OW 1592   1.689   2.784   2.474
  522SOL    HW1 1593   1.784   2.755   2.482
  522SOL    HW2 1594   1.681   2.849   2.399
  523SOL     OW 1595   1.641   2.970   2.294
  523SOL    HW1 1596   1.727   2.972   2.242
  523SOL    HW2 1597   1.655   3.017   2.382
  524SOL     OW 1598   0.809   1.866   2.364
  524SOL    HW1 1599   0.849   1.957   2.355
  524SOL    HW2 1600   0.709   1.874   2.370
  525SOL     OW 1601   0.197   2.838   3.126
  525SOL    HW1 1602   0.286   2.793   3.112
  525SOL    HW2 1603   0.124   2.773   3.107
  526SOL     OW 1604   1.525   2.861   2.052
  526SOL    HW1 1605   1.462   2.785   2.065
  526SOL    HW2 1606   1.573   2.879   2.138
  527SOL     OW 1607   1.466   3.279   2.815
  527SOL    HW1 1608   1.407   3.285   2.895
  527SOL    HW2 1609   1.451   3.191   2.769
  528SOL     OW 1610   0.598   2.591   2.132
  528SOL    HW1 1611   0.622   2.660   2.064
  528SOL    HW2 1612   0.520   2.624   2.186
  529SOL     OW 1613   1.281   2.207   2.806
  529SOL    HW1 1614   1.195   2.157   2.793
  529SOL    HW2 1615   1.343   2.153   2.862
  530SOL     OW 1616   0.991   2.272   3.104
  530SOL    HW1 1617   0.914   2.306   3.158
  530SOL    HW2 1618   0.957   2.221   3.025
  531SOL     OW 1619   1.041   2.563   2.291
  531SOL    HW1 1620   1.067   2.559   2.387
  531SOL    HW2 1621   0.956   2.512   2.277
  532SOL     OW 1622   0.076   2.673   2.651
  532SOL    HW1 1623   0.175   2.661   2.660
  532SOL    HW2 1624   0.052   2.768   2.672
  533SOL     OW 1625   0.865   2.210   2.057
  533SOL    HW1 1626   0.924   2.273   2.008
  533SOL    HW2 1627   0.884   2.116   2.028
  534SOL     OW 1628   1.362   3.006   2.407
  534SOL    HW1 1629   1.445   2.977   2.359
  534SOL    HW2 1630   1.313   3.073   2.351
  535SOL     OW 1631   0.550   2.058   2.747
  535SOL    HW1 1632   0.545   2.053   2.847
  535SOL    HW2 1633   0.552   2.154   2.718
  536SOL     OW 1634   1.795   2.928   2.735
  536SOL    HW1 1635   1.733   2.913   2.659
  536SOL    HW2 1636   1.743   2.939   2.820
  537SOL     OW 1637   0.321   2.805   2.104
  537SOL    HW1 1638   0.403   2.844   2.062
  537SOL    HW2 1639   0.294   2.723   2.055
  538SOL     OW 1640   1.458   2.597   2.590
  538SOL    HW1 1641   1.453   2.532   2.665
  538SOL    HW2 1642   1.538   2.656   2.603
  539SOL     OW 1643   1.632   3.239   1.943
  539SOL    HW1 1644   1.600   3.333   1.933
  539SOL    HW2 1645   1.556   3.176   1.931
  540SOL     OW 1646   1.400   1.969   2.288
  540SOL    HW1 1647   1.376   1.932   2.198
  540SOL    HW2 1648   1.499   1.985   2.292
  541SOL     OW 1649   0.382   2.562   2.342
  541SOL    HW1 1650   0.427   2.472   2.339
  541SOL    HW2 1651   0.288   2.551   2.375
  542SOL     OW 1652   0.614   1.984   1.979
  542SOL    HW1 1653   0.712   1.962   1.986
  542SOL    HW2 1654   0.583   1.967   1.886
  543SOL     OW 1655   0.803   3.264   2.786
  543SOL    HW1 1656   0.893   3.278   2.744
  543SOL    HW2 1657   0.732   3.266   2.715
  544SOL     OW 1658   0.922   2.365   2.761
  544SOL    HW1 1659   0.897   2.356   2.665
  544SOL    HW2 1660   0.970   2.283   2.792
  545SOL     OW 1661   0.539   1.926   2.374
  545SOL    HW1 1662   0.458   1.927   2.432
  545SOL    HW2 1663   0.542   2.009   2.319
  546SOL     OW 1664   1.434   3.050   1.903
  546SOL    HW1 1665   1.466   2.974   1.960
  546SOL    HW2 1666   1.342   3.077   1.933
  547SOL     OW 1667   0.297   1.897   2.033
  547SOL    HW1 1668   0.346   1.981   2.012
  547SOL    HW2 1669   0.359   1.832   2.078
  548SOL     OW 1670   0.935   2.098   2.342
  548SOL    HW1 1671   0.887   2.139   2.264
  548SOL    HW2 1672   1.034   2.096   2.323
  549SOL     OW 1673   0.459   3.014   2.603
  549SOL    HW1 1674   0.388   2.987   2.668
  549SOL    HW2 1675   0.433   2.986   2.510
  550SOL     OW 1676   1.032   2.411   1.878
  550SOL    HW1 1677   0.991   2.493   1.839
  550SOL    HW2 1678   1.096   2.437   1.951
  551SOL     OW 1679   0.561   2.084   3.009
  551SOL    HW1 1680   0.599   2.000   3.046
  551SOL    HW2 1681   0.473   2.103   3.053
  552SOL     OW 1682   0.866   2.316   2.504
  552SOL    HW1 1683   0.834   2.388   2.442
  552SOL    HW2 1684   0.890   2.235   2.451
  553SOL     OW 1685   1.017   1.901   2.615
  553SOL    HW1 1686   0.945   1.906   2.546
  553SOL    HW2 1687   0.993   1.832   2.684
  554SOL     OW 1688   1.429   3.035   2.729
  554SOL    HW1 1689   1.374   2.951   2.722
  554SOL    HW2 1690   1.455   3.064   2.637
  555SOL     OW 1691   1.466   2.452   2.854
  555SOL    HW1 1692   1.436   2.357   2.861
  555SOL    HW2 1693   1.539   2.468   2.920
  556SOL     OW 1694   1.857   2.695   2.239
  556SOL    HW1 1695   1.899   2.631   2.303
  556SOL    HW2 1696   1.819   2.644   2.161
  557SOL     OW 1697   1.664   3.142   2.519
  557SOL    HW1 1698   1.763   3.150   2.533
  557SOL    HW2 1699   1.619   3.226   2.550
  558SOL     OW 1700   1.390   2.437   1.940
  558SOL    HW1 1701   1.336   2.416   2.021
  558SOL    HW2 1702   1.481   2.396   1.949
  559SOL     OW 1703   0.527   2.118   2.190
  559SOL    HW1 1704   0.554   2.059   2.115
  559SOL    HW2 1705   0.527   2.213   2.159
  560SOL     OW 1706   1.638   2.961   2.941
  560SOL    HW1 1707   1.643   3.042   3.000
  560SOL    HW2 1708   1.552   2.963   2.890
  561SOL     OW 1709   0.705   2.912   2.230
  561SOL    HW1 1710   0.691   2.919   2.329
  561SOL    HW2 1711   0.789   2.861   2.212
  562SOL     OW 1712   0.410   2.675   3.113
  562SOL    HW1 1713   0.496   2.687   3.163
  562SOL    HW2 1714   0.368   2.588   3.140
  563SOL     OW 1715   1.274   2.248   3.124
  563SOL    HW1 1716   1.295   2.322   3.188
  563SOL    HW2 1717   1.185   2.265   3.081
  564SOL     OW 1718   0.367   2.962   2.363
  564SOL    HW1 1719   0.360   3.045   2.307
  564SOL    HW2 1720   0.371   2.882   2.303
  565SOL     OW 1721   0.566   2.399   2.727
  565SOL    HW1 1722   0.578   2.465   2.653
  565SOL    HW2 1723   0.612   2.433   2.810
  566SOL     OW 1724   1.582   2.501   2.334
  566SOL    HW1 1725   1.551   2.562   2.407
  566SOL    HW2 1726   1.632   2.553   2.265
  567SOL     OW 1727   0.573   2.732   2.891
  567SOL    HW1 1728   0.617   2.821   2.882
  567SOL    HW2 1729   0.510   2.732   2.968
  568SOL     OW 1730   1.360   2.724   2.907
  568SOL    HW1 1731   1.285   2.724   2.841
  568SOL    HW2 1732   1.397   2.632   2.916
  569SOL     OW 1733   1.209   2.387   2.137
  569SOL    HW1 1734   1.222   2.303   2.191
  569SOL    HW2 1735   1.180   2.461   2.197
  570SOL     OW 1736   0.307   2.075   3.093
  570SOL    HW1 1737   0.284   2.112   3.183
  570SOL    HW2 1738   0.277   1.980   3.087
  571SOL     OW 1739   0.037   3.172   3.144
  571SOL    HW1 1740   0.090   3.123   3.212
  571SOL    HW2 1741   0.059   3.270   3.149
  572SOL     OW 1742   0.732   2.496   2.926
  572SOL    HW1 1743   0.791   2.470   2.850
  572SOL    HW2 1744   0.704   2.592   2.915
  573SOL     OW 1745   0.307   1.925   2.480
  573SOL    HW1 1746   0.296   2.019   2.513
  573SOL    HW2 1747   0.302   1.862   2.557
  574SOL     OW 1748   1.622   2.229   2.236
  574SOL    HW1 1749   1.624   2.153   2.300
  574SOL    HW2 1750   1.574   2.306   2.276
  575SOL     OW 1751   1.023   2.628   2.828
  575SOL    HW1 1752   1.038   2.649   2.924
  575SOL    HW2 1753   0.993   2.533   2.819
  576SOL     OW 1754   1.540   2.136   1.987
  576SOL    HW1 1755   1.479   2.061   2.010
  576SOL    HW2 1756   1.562   2.188   2.070
  577SOL     OW 1757   1.303   2.700   1.904
  577SOL    HW1 1758   1.337   2.607   1.919
  577SOL    HW2 1759   1.321   2.727   1.809
  578SOL     OW 1760   0.319   2.672   2.811
  578SOL    HW1 1761   0.412   2.708   2.816
  578SOL    HW2 1762   0.313   2.587   2.863
  579SOL     OW 1763   0.339   2.371   2.868
  579SOL    HW1 1764   0.287   2.288   2.851
  579SOL    HW2 1765   0.416   2.376   2.804
  580SOL     OW 1766   1.160   2.069   3.339
  580SOL    HW1 1767   1.160   2.133   3.416
  580SOL    HW2 1768   1.188   2.117   3.256
  581SOL     OW 1769   0.008   3.188   2.062
  581SOL    HW1 1770  -0.085   3.209   2.031
  581SOL    HW2 1771   0.018   3.089   2.075
  582SOL     OW 1772   1.002   2.658   3.100
  582SOL    HW1 1773   1.043   2.626   3.186
  582SOL    HW2 1774   0.906   2.631   3.097
  583SOL     OW 1775   0.040   2.406   2.976
  583SOL    HW1 1776   0.125   2.373   2.935
  583SOL    HW2 1777   0.053   2.421   3.074
  584SOL     OW 1778   0.815   2.434   2.187
  584SOL    HW1 1779   0.822   2.345   2.141
  584SOL    HW2 1780   0.721   2.468   2.179
  585SOL     OW 1781   1.657   2.466   3.068
  585SOL    HW1 1782   1.619   2.397   3.130
  585SOL    HW2 1783   1.739   2.430   3.024
  586SOL     OW 1784   0.671   2.326   3.131
  586SOL    HW1 1785   0.637   2.237   3.101
  586SOL    HW2 1786   0.697   2.380   3.051
  587SOL     OW 1787   0.473   2.362   2.053
  587SOL    HW1 1788   0.534   2.442   2.057
  587SOL    HW2 1789   0.378   2.393   2.060
  588SOL     OW 1790   1.347   2.921   3.096
  588SOL    HW1 1791   1.371   2.858   3.022
  588SOL    HW2 1792   1.257   2.961   3.078
  589SOL     OW 1793   1.302   2.717   2.171
  589SOL    HW1 1794   1.216   2.686   2.213
  589SOL    HW2 1795   1.298   2.703   2.072
  590SOL     OW 1796   0.083   3.120   2.884
  590SOL    HW1 1797   0.078   3.119   2.984
  590SOL    HW2 1798   0.000   3.079   2.846
  591SOL     OW 1799   1.726   1.997   2.385
  591SOL    HW1 1800   1.799   1.980   2.318
  591SOL    HW2 1801   1.695   1.910   2.423
  592SOL     OW 1802   1.280   2.789   2.534
  592SOL    HW1 1803   1.340   2.708   2.536
  592SOL    HW2 1804   1.320   2.858   2.474
  593SOL     OW 1805   1.841   2.037   2.825
  593SOL    HW1 1806   1.880   1.952   2.789
  593SOL    HW2 1807   1.743   2.039   2.806
  594SOL     OW 1808   0.263   2.188   2.582
  594SOL    HW1 1809   0.184   2.239   2.548
  594SOL    HW2 1810   0.254   2.173   2.680
  595SOL     OW 1811   1.194   3.474   1.893
  595SOL    HW1 1812   1.200   3.381   1.930
  595SOL    HW2 1813   1.135   3.474   1.813
  596SOL     OW 1814   0.822   2.864   3.234
  596SOL    HW1 1815   0.862   2.863   3.142
  596SOL    HW2 1816   0.832   2.956   3.274
  597SOL     OW 1817   0.916   2.772   2.153
  597SOL    HW1 1818   0.979   2.810   2.085
  597SOL    HW2 1819   0.956   2.689   2.192
  598SOL     OW 1820   1.039   2.960   2.558
  598SOL    HW1 1821   0.969   2.913   2.612
  598SOL    HW2 1822   1.098   2.892   2.515
  599SOL     OW 1823   1.014   2.098   2.833
  599SOL    HW1 1824   1.006   2.062   2.740
  599SOL    HW2 1825   1.012   2.022   2.898
  600SOL     OW 1826   1.709   2.247   3.243
  600SOL    HW1 1827   1.782   2.316   3.247
  600SOL    HW2 1828   1.737   2.172   3.184
  601SOL     OW 1829   0.075   2.207   1.895
  601SOL    HW1 1830  -0.017   2.179   1.866
  601SOL    HW2 1831   0.106   2.284   1.839
  602SOL     OW 1832   0.072   2.028   2.180
  602SOL    HW1 1833   0.055   2.111   2.126
  602SOL    HW2 1834   0.162   1.991   2.158
  603SOL     OW 1835   1.450   3.082   3.495
  603SOL    HW1 1836   1.441   3.072   3.594
  603SOL    HW2 1837   1.546   3.075   3.469
  604SOL     OW 1838   1.674   2.745   3.116
  604SOL    HW1 1839   1.647   2.656   3.079
  604SOL    HW2 1840   1.675   2.813   3.043
  605SOL     OW 1841   1.225   2.187   2.311
  605SOL    HW1 1842   1.290   2.113   2.300
  605SOL    HW2 1843   1.245   2.237   2.395
  606SOL     OW 1844   0.594   2.607   2.514
  606SOL    HW1 1845   0.644   2.692   2.495
  606SOL    HW2 1846   0.506   2.609   2.466
  607SOL     OW 1847   1.730   2.796   3.379
  607SOL    HW1 1848   1.768   2.887   3.394
  607SOL    HW2 1849   1.722   2.779   3.280
  608SOL     OW 1850   0.859   2.818   2.723
  608SOL    HW1 1851   0.913   2.749   2.771
  608SOL    HW2 1852   0.827   2.887   2.789
  609SOL     OW 1853   1.083   2.846   1.949
  609SOL    HW1 1854   1.060   2.899   1.867
  609SOL    HW2 1855   1.164   2.790   1.930
  610SOL     OW 1856   0.079   3.102   2.515
  610SOL    HW1 1857   0.078   3.055   2.603
  610SOL    HW2 1858   0.161   3.074   2.464
  611SOL     OW 1859   1.824   2.054   3.089
  611SOL    HW1 1860   1.820   1.964   3.133
  611SOL    HW2 1861   1.827   2.043   2.990
  612SOL     OW 1862   0.428   2.286   2.382
  612SOL    HW1 1863   0.458   2.214   2.320
  612SOL    HW2 1864   0.389   2.246   2.465
  613SOL     OW 1865   1.424   2.076   2.974
  613SOL    HW1 1866   1.476   2.011   3.029
  613SOL    HW2 1867   1.375   2.139   3.035
  614SOL     OW 1868   1.001   1.896   3.016
  614SOL    HW1 1869   0.938   1.824   2.985
  614SOL    HW2 1870   1.094   1.860   3.016
  615SOL     OW 1871   0.770   3.192   2.163
  615SOL    HW1 1872   0.724   3.105   2.180
  615SOL    HW2 1873   0.861   3.189   2.204
  616SOL     OW 1874   1.352   1.914   2.030
  616SOL    HW1 1875   1.387   1.873   1.946
  616SOL    HW2 1876   1.262   1.876   2.050
  617SOL     OW 1877   1.300   2.315   2.553
  617SOL    HW1 1878   1.241   2.395   2.557
  617SOL    HW2 1879   1.315   2.280   2.646
  618SOL     OW 1880   1.593   2.083   2.744
  618SOL    HW1 1881   1.509   2.082   2.798
  618SOL    HW2 1882   1.595   2.166   2.688
  619SOL     OW 1883   0.039   2.939   2.162
  619SOL    HW1 1884   0.138   2.928   2.153
  619SOL    HW2 1885  -0.001   2.853   2.194
  620SOL     OW 1886   2.092   0.628   0.113
  620SOL    HW1 1887   1.999   0.626   0.150
  620SOL    HW2 1888   2.093   0.589   0.021
  621SOL     OW 1889   2.087   0.275   0.996
  621SOL    HW1 1890   2.122   0.258   1.088
  621SOL    HW2 1891   1.999   0.230   0.984
  622SOL     OW 1892   1.881   0.368   0.647
  622SOL    HW1 1893   1.799   0.411   0.686
  622SOL    HW2 1894   1.853   0.295   0.584
  623SOL     OW 1895   2.431   1.275   1.165
  623SOL    HW1 1896   2.338   1.268   1.128
  623SOL    HW2 1897   2.442   1.364   1.209
  624SOL     OW 1898   2.997   0.703   0.717
  624SOL    HW1 1899   3.054   0.781   0.692
  624SOL    HW2 1900   2.937   0.729   0.793
  625SOL     OW 1901   2.630   1.144   1.023
  625SOL    HW1 1902   2.552   1.161   1.083
  625SOL    HW2 1903   2.664   1.231   0.987
  626SOL     OW 1904   2.712   0.798   1.823
  626SOL    HW1 1905   2.708   0.874   1.888
  626SOL    HW2 1906   2.734   0.834   1.732
  627SOL     OW 1907   2.547   1.012   0.665
  627SOL    HW1 1908   2.616   0.996   0.735
  627SOL    HW2 1909   2.474   1.069   0.703
  628SOL     OW 1910   2.548   1.161   1.803
  628SOL    HW1 1911   2.608   1.240   1.817
  628SOL    HW2 1912   2.462   1.192   1.762
  629SOL     OW 1913   2.197   1.435   1.061
  629SOL    HW1 1914   2.119   1.404   1.008
  629SOL    HW2 1915   2.255   1.493   1.004
  630SOL     OW 1916   2.300   0.392   1.499
  630SOL    HW1 1917   2.382   0.336   1.508
  630SOL    HW2 1918   2.219   0.334   1.503
  631SOL     OW 1919   2.093   1.713   0.483
  631SOL    HW1 1920   2.127   1.790   0.537
  631SOL    HW2 1921   2.137   1.713   0.393
  632SOL     OW 1922   2.989   1.341   1.690
  632SOL    HW1 1923   3.036   1.341   1.778
  632SOL    HW2 1924   2.941   1.254   1.679
  633SOL     OW 1925   2.092   1.434   0.538
  633SOL    HW1 1926   2.066   1.530   0.538
  633SOL    HW2 1927   2.021   1.380   0.583
  634SOL     OW 1928   2.102   1.091   0.886
  634SOL    HW1 1929   2.116   1.007   0.938
  634SOL    HW2 1930   2.047   1.155   0.941
  635SOL     OW 1931   2.482   1.786   1.439
  635SOL    HW1 1932   2.390   1.769   1.474
  635SOL    HW2 1933   2.510   1.878   1.465
  636SOL     OW 1934   2.468   0.964   0.123
  636SOL    HW1 1935   2.475   1.048   0.069
  636SOL    HW2 1936   2.514   0.977   0.211
  637SOL     OW 1937   1.984   0.643   0.563
  637SOL    HW1 1938   1.939   0.555   0.580
  637SOL    HW2 1939   1.983   0.697   0.647
  638SOL     OW 1940   1.889   1.596   0.117
  638SOL    HW1 1941   1.870   1.500   0.138
  638SOL    HW2 1942   1.856   1.654   0.192
  639SOL     OW 1943   1.975   0.737   1.597
  639SOL    HW1 1944   2.063   0.724   1.642
  639SOL    HW2 1945   1.962   0.834   1.575
  640SOL     OW 1946   2.475   1.365   0.726
  640SOL    HW1 1947   2.426   1.278   0.735
  640SOL    HW2 1948   2.452   1.408   0.639
  641SOL     OW 1949   3.155   1.228   1.423
  641SOL    HW1 1950   3.192   1.155   1.365
  641SOL    HW2 1951   3.207   1.233   1.508
  642SOL     OW 1952   2.671   0.004   0.502
  642SOL    HW1 1953   2.711   0.095   0.493
  642SOL    HW2 1954   2.571   0.012   0.508
  643SOL     OW 1955   2.059   0.976   1.264
  643SOL    HW1 1956   2.148   0.931   1.250
  643SOL    HW2 1957   1.986   0.911   1.245
  644SOL     OW 1958   3.049   1.792   1.616
  644SOL    HW1 1959   3.073   1.852   1.540
  644SOL    HW2 1960   3.056   1.697   1.586
  645SOL     OW 1961   2.179   0.251   1.801
  645SOL    HW1 1962   2.250   0.322   1.807
  645SOL    HW2 1963   2.091   0.290   1.829
  646SOL     OW 1964   2.460   0.729   0.270
  646SOL    HW1 1965   2.484   0.798   0.202
  646SOL    HW2 1966   2.382   0.762   0.324
  647SOL     OW 1967   3.143   0.345   0.944
  647SOL    HW1 1968   3.057   0.295   0.931
  647SOL    HW2 1969   3.205   0.291   1.000
  648SOL     OW 1970   2.669   0.605   1.465
  648SOL    HW1 1971   2.622   0.602   1.554
  648SOL    HW2 1972   2.618   0.550   1.399
  649SOL     OW 1973   2.835   0.890   1.572
  649SOL    HW1 1974   2.881   0.806   1.543
  649SOL    HW2 1975   2.779   0.924   1.497
  650SOL     OW 1976   2.853   0.410   1.242
  650SOL    HW1 1977   2.776   0.444   1.296
  650SOL    HW2 1978   2.819   0.359   1.163
  651SOL     OW 1979   2.903   0.701   0.429
  651SOL    HW1 1980   2.929   0.697   0.525
  651SOL    HW2 1981   2.818   0.650   0.415
  652SOL     OW 1982   1.938   0.811   0.789
  652SOL    HW1 1983   2.037   0.799   0.798
  652SOL    HW2 1984   1.914   0.906   0.810
  653SOL     OW 1985   1.992   1.821   1.571
  653SOL    HW1 1986   1.982   1.806   1.670
  653SOL    HW2 1987   1.906   1.857   1.535
  654SOL     OW 1988   2.727   0.348   0.195
  654SOL    HW1 1989   2.786   0.411   0.146
  654SOL    HW2 1990   2.746   0.254   0.166
  655SOL     OW 1991   2.412   0.196   0.885
  655SOL    HW1 1992   2.407   0.191   0.985
  655SOL    HW2 1993   2.414   0.292   0.856
  656SOL     OW 1994   2.870   1.456   0.477
  656SOL    HW1 1995   2.824   1.528   0.425
  656SOL    HW2 1996   2.866   1.476   0.575
  657SOL     OW 1997   2.213   1.801   0.853
  657SOL    HW1 1998   2.263   1.715   0.859
  657SOL    HW2 1999   2.278   1.878   0.850
  658SOL     OW 2000   3.089   1.550   1.506
  658SOL    HW1 2001   3.095   1.473   1.570
  658SOL    HW2 2002   3.037   1.524   1.426
  659SOL     OW 2003   2.183   0.943   0.242
  659SOL    HW1 2004   2.265   0.982   0.200
  659SOL    HW2 2005   2.156   0.861   0.193
  660SOL     OW 2006   2.323   1.266   1.727
  660SOL    HW1 2007   2.273   1.267   1.641
  660SOL    HW2 2008   2.260   1.248   1.803
  661SOL     OW 2009   2.973   1.776   0.237
  661SOL    HW1 2010   2.913   1.714   0.287
  661SOL    HW2 2011   3.004   1.732   0.152
  662SOL     OW 2012   2.064   0.285   1.498
  662SOL    HW1 2013   1.984   0.345   1.485
  662SOL    HW2 2014   2.054   0.236   1.584
  663SOL     OW 2015   2.326   1.743   0.323
  663SOL    HW1 2016   2.359   1.782   0.409
  663SOL    HW2 2017   2.402   1.736   0.258
  664SOL     OW 2018   2.111   1.785   1.241
  664SOL    HW1 2019   2.168   1.720   1.291
  664SOL    HW2 2020   2.095   1.752   1.148
  665SOL     OW 2021   2.802   1.698   0.904
  665SOL    HW1 2022   2.882   1.641   0.925
  665SOL    HW2 2023   2.753   1.658   0.827
  666SOL     OW 2024   2.244   0.700   0.480
  666SOL    HW1 2025   2.289   0.610   0.477
  666SOL    HW2 2026   2.150   0.689   0.513
  667SOL     OW 2027   2.476   0.122   0.117
  667SOL    HW1 2028   2.574   0.100   0.124
  667SOL    HW2 2029   2.445   0.105   0.024
  668SOL     OW 2030   2.643   0.264   1.749
  668SOL    HW1 2031   2.710   0.203   1.792
  668SOL    HW2 2032   2.570   0.283   1.814
  669SOL     OW 2033   2.750   1.514   1.195
  669SOL    HW1 2034   2.727   1.489   1.101
  669SOL    HW2 2035   2.811   1.445   1.234
  670SOL     OW 2036   2.665   1.402   0.924
  670SOL    HW1 2037   2.755   1.416   0.882
  670SOL    HW2 2038   2.594   1.404   0.853
  671SOL     OW 2039   2.784   0.503   0.899
  671SOL    HW1 2040   2.759   0.494   0.803
  671SOL    HW2 2041   2.832   0.421   0.930
  672SOL     OW 2042   2.401   0.064   0.512
  672SOL    HW1 2043   2.320   0.065   0.570
  672SOL    HW2 2044   2.404   0.147   0.457
  673SOL     OW 2045   2.159   0.035   0.171
  673SOL    HW1 2046   2.208   0.119   0.150
  673SOL    HW2 2047   2.221  -0.030   0.216
  674SOL     OW 2048   2.797   0.236   0.480
  674SOL    HW1 2049   2.749   0.277   0.402
  674SOL    HW2 2050   2.896   0.234   0.461
  675SOL     OW 2051   2.938   0.683   1.464
  675SOL    HW1 2052   2.858   0.622   1.467
  675SOL    HW2 2053   3.019   0.630   1.440
  676SOL     OW 2054   3.089   1.570   0.793
  676SOL    HW1 2055   3.110   1.644   0.728
  676SOL    HW2 2056   3.157   1.570   0.866
  677SOL     OW 2057   2.321   1.152   0.741
  677SOL    HW1 2058   2.250   1.125   0.806
  677SOL    HW2 2059   2.295   1.124   0.648
  678SOL     OW 2060   3.133   1.797   0.591
  678SOL    HW1 2061   3.177   1.861   0.527
  678SOL    HW2 2062   3.083   1.849   0.661
  679SOL     OW 2063   2.894   0.549   0.016
  679SOL    HW1 2064   2.853   0.631  -0.023
  679SOL    HW2 2065   2.958   0.575   0.089
  680SOL     OW 2066   1.940   0.556   1.386
  680SOL    HW1 2067   2.032   0.555   1.345
  680SOL    HW2 2068   1.934   0.630   1.453
  681SOL     OW 2069   2.423   0.222   1.147
  681SOL    HW1 2070   2.461   0.138   1.184
  681SOL    HW2 2071   2.335   0.241   1.191
  682SOL     OW 2072   2.728   0.454   0.642
  682SOL    HW1 2073   2.696   0.526   0.580
  682SOL    HW2 2074   2.752   0.373   0.589
  683SOL     OW 2075   2.879   0.039   0.753
  683SOL    HW1 2076   2.807   0.044   0.684
  683SOL    HW2 2077   2.855  -0.030   0.822
  684SOL     OW 2078   2.350   1.385   0.174
  684SOL    HW1 2079   2.263   1.370   0.221
  684SOL    HW2 2080   2.333   1.411   0.079
  685SOL     OW 2081   2.389   0.256   0.328
  685SOL    HW1 2082   2.416   0.197   0.253
  685SOL    HW2 2083   2.389   0.351   0.297
  686SOL     OW 2084   2.926   1.347   1.340
  686SOL    HW1 2085   2.846   1.324   1.395
  686SOL    HW2 2086   3.009   1.321   1.389
  687SOL     OW 2087   2.973   1.195   1.100
  687SOL    HW1 2088   2.933   1.239   1.181
  687SOL    HW2 2089   2.932   1.232   1.017
  688SOL     OW 2090   2.777   0.089   1.402
  688SOL    HW1 2091   2.802   0.069   1.307
  688SOL    HW2 2092   2.849   0.145   1.444
  689SOL     OW 2093   2.842   1.116   1.719
  689SOL    HW1 2094   2.743   1.122   1.729
  689SOL    HW2 2095   2.865   1.036   1.663
  690SOL     OW 2096   2.567   1.050   0.368
  690SOL    HW1 2097   2.553   1.057   0.467
  690SOL    HW2 2098   2.651   0.999   0.350
  691SOL     OW 2099   2.272   0.813   1.251
  691SOL    HW1 2100   2.358   0.825   1.301
  691SOL    HW2 2101   2.230   0.726   1.278
  692SOL     OW 2102   3.136   0.386   1.262
  692SOL    HW1 2103   3.157   0.460   1.326
  692SOL    HW2 2104   3.047   0.403   1.219
  693SOL     OW 2105   1.926   1.564   1.331
  693SOL    HW1 2106   1.880   1.646   1.297
  693SOL    HW2 2107   2.024   1.583   1.340
  694SOL     OW 2108   2.229   1.100   0.501
  694SOL    HW1 2109   2.222   1.183   0.445
  694SOL    HW2 2110   2.233   1.020   0.441
  695SOL     OW 2111   2.428   0.537   0.865
  695SOL    HW1 2112   2.440   0.603   0.791
  695SOL    HW2 2113   2.474   0.571   0.948
  696SOL     OW 2114   3.114   1.348   0.388
  696SOL    HW1 2115   3.164   1.425   0.428
  696SOL    HW2 2116   3.019   1.350   0.420
  697SOL     OW 2117   2.216   1.510   1.329
  697SOL    HW1 2118   2.195   1.466   1.242
  697SOL    HW2 2119   2.313   1.536   1.332
  698SOL     OW 2120   2.264   0.751   1.598
  698SOL    HW1 2121   2.332   0.806   1.551
  698SOL    HW2 2122   2.304   0.663   1.625
  699SOL     OW 2123   2.875   0.105   1.770
  699SOL    HW1 2124   2.881   0.190   1.718
  699SOL    HW2 2125   2.907   0.029   1.713
  700SOL     OW 2126   2.366   0.050   1.740
  700SOL    HW1 2127   2.324  -0.007   1.670
  700SOL    HW2 2128   2.300   0.119   1.772
  701SOL     OW 2129   2.435   0.870   1.029
  701SOL    HW1 2130   2.479   0.959   1.020
  701SOL    HW2 2131   2.372   0.870   1.106
  702SOL     OW 2132   3.222   0.862   1.045
  702SOL    HW1 2133   3.147   0.862   0.979
  702SOL    HW2 2134   3.259   0.770   1.054
  703SOL     OW 2135   3.071   0.525   0.275
  703SOL    HW1 2136   3.084   0.441   0.329
  703SOL    HW2 2137   3.042   0.599   0.335
  704SOL     OW 2138   2.169   0.213   1.231
  704SOL    HW1 2139   2.146   0.250   1.321
  704SOL    HW2 2140   2.139   0.118   1.225
  705SOL     OW 2141   1.899   1.310   1.282
  705SOL    HW1 2142   1.952   1.261   1.350
  705SOL    HW2 2143   1.921   1.408   1.287
  706SOL     OW 2144   2.594   0.634   1.064
  706SOL    HW1 2145   2.653   0.608   0.988
  706SOL    HW2 2146   2.566   0.730   1.053
  707SOL     OW 2147   2.169   0.063   0.618
  707SOL    HW1 2148   2.158   0.157   0.651
  707SOL    HW2 2149   2.164   0.000   0.695
  708SOL     OW 2150   3.484   0.367   0.374
  708SOL    HW1 2151   3.486   0.291   0.438
  708SOL    HW2 2152   3.436   0.444   0.414
  709SOL     OW 2153   2.885   0.766   0.966
  709SOL    HW1 2154   2.900   0.787   1.062
  709SOL    HW2 2155   2.855   0.671   0.957
  710SOL     OW 2156   2.842   1.573   1.700
  710SOL    HW1 2157   2.822   1.617   1.612
  710SOL    HW2 2158   2.881   1.482   1.684
  711SOL     OW 2159   2.212   0.898   1.804
  711SOL    HW1 2160   2.288   0.942   1.852
  711SOL    HW2 2161   2.247   0.851   1.722
  712SOL     OW 2162   3.165   0.838   0.042
  712SOL    HW1 2163   3.199   0.745   0.057
  712SOL    HW2 2164   3.183   0.865  -0.053
  713SOL     OW 2165   2.930   1.333   0.849
  713SOL    HW1 2166   2.937   1.249   0.794
  713SOL    HW2 2167   2.992   1.402   0.813
  714SOL     OW 2168   2.181   0.810   0.949
  714SOL    HW1 2169   2.274   0.846   0.954
  714SOL    HW2 2170   2.175   0.725   1.001
  715SOL     OW 2171   2.201   0.509   1.006
  715SOL    HW1 2172   2.149   0.426   0.989
  715SOL    HW2 2173   2.278   0.514   0.942
  716SOL     OW 2174   3.000   0.380   1.678
  716SOL    HW1 2175   2.955   0.443   1.742
  716SOL    HW2 2176   3.093   0.411   1.661
  717SOL     OW 2177   3.022   0.207   1.477
  717SOL    HW1 2178   3.022   0.271   1.554
  717SOL    HW2 2179   3.050   0.255   1.394
  718SOL     OW 2180   1.950   1.801   0.927
  718SOL    HW1 2181   1.908   1.715   0.900
  718SOL    HW2 2182   2.044   1.804   0.893
  719SOL     OW 2183   2.366   1.568   0.910
  719SOL    HW1 2184   2.432   1.642   0.919
  719SOL    HW2 2185   2.410   1.489   0.868
  720SOL     OW 2186   2.864   0.796   1.238
  720SOL    HW1 2187   2.905   0.764   1.324
  720SOL    HW2 2188   2.768   0.769   1.235
  721SOL     OW 2189   1.902   0.544   1.114
  721SOL    HW1 2190   1.987   0.511   1.073
  721SOL    HW2 2191   1.915   0.559   1.212
  722SOL     OW 2192   2.051   0.520   1.722
  722SOL    HW1 2193   2.110   0.480   1.652
  722SOL    HW2 2194   1.993   0.591   1.681
  723SOL     OW 2195   2.677   0.572   0.325
  723SOL    HW1 2196   2.684   0.483   0.279
  723SOL    HW2 2197   2.583   0.606   0.317
  724SOL     OW 2198   2.114   1.564   1.744
  724SOL    HW1 2199   2.084   1.621   1.820
  724SOL    HW2 2200   2.107   1.467   1.770
  725SOL     OW 2201   2.533   0.464   1.269
  725SOL    HW1 2202   2.499   0.375   1.239
  725SOL    HW2 2203   2.559   0.518   1.189
  726SOL     OW 2204   2.792   1.678   1.465
  726SOL    HW1 2205   2.768   1.660   1.370
  726SOL    HW2 2206   2.822   1.772   1.475
  727SOL     OW 2207   2.335   0.500   0.191
  727SOL    HW1 2208   2.396   0.580   0.195
  727SOL    HW2 2209   2.240   0.531   0.198
  728SOL     OW 2210   2.021   1.137   1.466
  728SOL    HW1 2211   2.043   1.076   1.542
  728SOL    HW2 2212   2.031   1.088   1.380
  729SOL     OW 2213   3.209   1.059   1.234
  729SOL    HW1 2214   3.233   0.996   1.160
  729SOL    HW2 2215   3.119   1.099   1.216
  730SOL     OW 2216   3.114   1.731   1.128
  730SOL    HW1 2217   3.198   1.736   1.074
  730SOL    HW2 2218   3.091   1.635   1.146
  731SOL     OW 2219   1.945   1.258   1.022
  731SOL    HW1 2220   1.940   1.257   1.122
  731SOL    HW2 2221   1.862   1.217   0.984
  732SOL     OW 2222   2.550   1.662   1.716
  732SOL    HW1 2223   2.494   1.743   1.725
  732SOL    HW2 2224   2.602   1.666   1.630
  733SOL     OW 2225   2.765   0.086   0.133
  733SOL    HW1 2226   2.816   0.087   0.047
  733SOL    HW2 2227   2.821   0.044   0.204
  734SOL     OW 2228   3.250   1.573   0.477
  734SOL    HW1 2229   3.317   1.585   0.403
  734SOL    HW2 2230   3.210   1.662   0.500
  735SOL     OW 2231   1.992   1.794   1.851
  735SOL    HW1 2232   1.951   1.720   1.904
  735SOL    HW2 2233   2.056   1.845   1.909
  736SOL     OW 2234   2.692   1.273   1.422
  736SOL    HW1 2235   2.687   1.306   1.517
  736SOL    HW2 2236   2.606   1.292   1.376
  737SOL     OW 2237   2.534   1.616   0.154
  737SOL    HW1 2238   2.543   1.626   0.055
  737SOL    HW2 2239   2.494   1.527   0.175
  738SOL     OW 2240   2.125   0.326   0.720
  738SOL    HW1 2241   2.046   0.377   0.686
  738SOL    HW2 2242   2.116   0.311   0.818
  739SOL     OW 2243   3.056   1.612   0.031
  739SOL    HW1 2244   3.062   1.519   0.068
  739SOL    HW2 2245   2.997   1.612  -0.049
  740SOL     OW 2246   2.684   1.002   1.372
  740SOL    HW1 2247   2.724   1.001   1.280
  740SOL    HW2 2248   2.694   1.094   1.412
  741SOL     OW 2249   2.778   0.910   0.291
  741SOL    HW1 2250   2.841   0.948   0.223
  741SOL    HW2 2251   2.818   0.827   0.330
  742SOL     OW 2252   2.234   1.288   1.490
  742SOL    HW1 2253   2.221   1.381   1.456
  742SOL    HW2 2254   2.150   1.236   1.477
  743SOL     OW 2255   2.901   1.098   0.696
  743SOL    HW1 2256   2.831   1.051   0.750
  743SOL    HW2 2257   2.960   1.030   0.653
  744SOL     OW 2258   2.876   0.236   0.971
  744SOL    HW1 2259   2.868   0.200   0.878
  744SOL    HW2 2260   2.874   0.160   1.036
  745SOL     OW 2261   2.452   1.487   0.491
  745SOL    HW1 2262   2.494   1.429   0.421
  745SOL    HW2 2263   2.408   1.566   0.447
  746SOL     OW 2264   2.117   1.348   0.290
  746SOL    HW1 2265   2.021   1.349   0.263
  746SOL    HW2 2266   2.129   1.401   0.374
  747SOL     OW 2267   1.967   1.013   1.726
  747SOL    HW1 2268   1.890   0.980   1.780
  747SOL    HW2 2269   2.052   0.983   1.768
  748SOL     OW 2270   2.534   0.203   1.489
  748SOL    HW1 2271   2.624   0.187   1.449
  748SOL    HW2 2272   2.542   0.208   1.588
  749SOL     OW 2273   1.934   0.166   0.318
  749SOL    HW1 2274   1.917   0.249   0.264
  749SOL    HW2 2275   2.024   0.129   0.296
  750SOL     OW 2276   2.475   0.842   1.431
  750SOL    HW1 2277   2.531   0.923   1.414
  750SOL    HW2 2278   2.534   0.762   1.434
  751SOL     OW 2279   2.578   0.565   1.708
  751SOL    HW1 2280   2.597   0.630   1.782
  751SOL    HW2 2281   2.638   0.485   1.717
  752SOL     OW 2282   2.252   1.741   1.560
  752SOL    HW1 2283   2.161   1.782   1.558
  752SOL    HW2 2284   2.245   1.647   1.592
  753SOL     OW 2285   3.087   0.325   0.449
  753SOL    HW1 2286   3.152   0.251   0.438
  753SOL    HW2 2287   3.107   0.375   0.533
  754SOL     OW 2288   2.456   0.745   0.652
  754SOL    HW1 2289   2.506   0.830   0.633
  754SOL    HW2 2290   2.368   0.747   0.604
  755SOL     OW 2291   2.721   1.374   0.016
  755SOL    HW1 2292   2.675   1.389   0.104
  755SOL    HW2 2293   2.765   1.459  -0.014
  756SOL     OW 2294   2.523   1.790   0.953
  756SOL    HW1 2295   2.477   1.878   0.940
  756SOL    HW2 2296   2.622   1.802   0.946
  757SOL     OW 2297   2.721   0.956   0.861
  757SOL    HW1 2298   2.775   0.887   0.909
  757SOL    HW2 2299   2.689   1.025   0.927
  758SOL     OW 2300   2.945   0.984   0.087
  758SOL    HW1 2301   2.922   1.037   0.005
  758SOL    HW2 2302   3.026   0.928   0.068
  759SOL     OW 2303   2.083   1.314   1.844
  759SOL    HW1 2304   2.018   1.241   1.823
  759SOL    HW2 2305   2.087   1.328   1.942
  760SOL     OW 2306   1.941   1.240   0.653
  760SOL    HW1 2307   1.940   1.193   0.741
  760SOL    HW2 2308   2.023   1.212   0.602
  761SOL     OW 2309   2.534   1.391   1.624
  761SOL    HW1 2310   2.456   1.341   1.662
  761SOL    HW2 2311   2.531   1.486   1.655
  762SOL     OW 2312   2.290   0.424   0.520
  762SOL    HW1 2313   2.320   0.352   0.458
  762SOL    HW2 2314   2.251   0.384   0.603
  763SOL     OW 2315   2.179   0.547   1.280
  763SOL    HW1 2316   2.217   0.488   1.352
  763SOL    HW2 2317   2.219   0.521   1.192
  764SOL     OW 2318   2.674   1.586   0.687
  764SOL    HW1 2319   2.706   1.596   0.593
  764SOL    HW2 2320   2.595   1.524   0.689
  765SOL     OW 2321   2.863   0.034   1.154
  765SOL    HW1 2322   2.800  -0.038   1.123
  765SOL    HW2 2323   2.956  -0.002   1.154
  766SOL     OW 2324   2.632   1.330   0.301
  766SOL    HW1 2325   2.586   1.243   0.318
  766SOL    HW2 2326   2.723   1.327   0.342
  767SOL     OW 2327   2.480   1.567   1.284
  767SOL    HW1 2328   2.475   1.649   1.341
  767SOL    HW2 2329   2.569   1.564   1.239
  768SOL     OW 2330   1.901   1.077   0.300
  768SOL    HW1 2331   2.000   1.066   0.291
  768SOL    HW2 2332   1.861   0.991   0.332
  769SOL     OW 2333   2.737   1.646   0.337
  769SOL    HW1 2334   2.660   1.611   0.283
  769SOL    HW2 2335   2.705   1.717   0.399
  770SOL     OW 2336   2.092   0.628   1.975
  770SOL    HW1 2337   1.999   0.626   2.012
  770SOL    HW2 2338   2.093   0.589   1.883
  771SOL     OW 2339   2.087   0.275   2.858
  771SOL    HW1 2340   2.122   0.258   2.950
  771SOL    HW2 2341   1.999   0.230   2.846
  772SOL     OW 2342   1.881   0.368   2.509
  772SOL    HW1 2343   1.799   0.411   2.548
  772SOL    HW2 2344   1.853   0.295   2.446
  773SOL     OW 2345   2.431   1.275   3.027
  773SOL    HW1 2346   2.338   1.268   2.990
  773SOL    HW2 2347   2.442   1.364   3.071
  774SOL     OW 2348   2.997   0.703   2.579
  774SOL    HW1 2349   3.054   0.781   2.554
  774SOL    HW2 2350   2.937   0.729   2.655
  775SOL     OW 2351   2.630   1.144   2.885
  775SOL    HW1 2352   2.552   1.161   2.945
  775SOL    HW2 2353   2.664   1.231   2.849
  776SOL     OW 2354   2.547   1.012   2.527
  776SOL    HW1 2355   2.616   0.996   2.597
  776SOL    HW2 2356   2.474   1.069   2.565
  777SOL     OW 2357   2.197   1.435   2.923
  777SOL    HW1 2358   2.119   1.404   2.870
  777SOL    HW2 2359   2.255   1.493   2.866
  778SOL     OW 2360   2.093   1.713   2.345
  778SOL    HW1 2361   2.127   1.790   2.399
  778SOL    HW2 2362   2.137   1.713   2.255
  779SOL     OW 2363   2.092   1.434   2.400
  779SOL    HW1 2364   2.066   1.530   2.400
  779SOL    HW2 2365   2.021   1.380   2.445
  780SOL     OW 2366   2.102   1.091   2.748
  780SOL    HW1 2367   2.116   1.007   2.800
  780SOL    HW2 2368   2.047   1.155   2.803
  781SOL     OW 2369   2.482   1.786   3.301
  781SOL    HW1 2370   2.390   1.769   3.336
  781SOL    HW2 2371   2.510   1.878   3.327
  782SOL     OW 2372   2.468   0.964   1.985
  782SOL    HW1 2373   2.475   1.048   1.931
  782SOL    HW2 2374   2.514   0.977   2.073
  783SOL     OW 2375   1.984   0.643   2.425
  783SOL    HW1 2376   1.939   0.555   2.442
  783SOL    HW2 2377   1.983   0.697   2.509
  784SOL     OW 2378   2.475   1.365   2.588
  784SOL    HW1 2379   2.426   1.278   2.597
  784SOL    HW2 2380   2.452   1.408   2.501
  785SOL     OW 2381   2.671   0.004   2.364
  785SOL    HW1 2382   2.711   0.095   2.355
  785SOL    HW2 2383   2.571   0.012   2.370
  786SOL     OW 2384   2.059   0.976   3.126
  786SOL    HW1 2385   2.148   0.931   3.112
  786SOL    HW2 2386   1.986   0.911   3.107
  787SOL     OW 2387   2.460   0.729   2.132
  787SOL    HW1 2388   2.484   0.798   2.064
  787SOL    HW2 2389   2.382   0.762   2.186
  788SOL     OW 2390   3.143   0.345   2.806
  788SOL    HW1 2391   3.057   0.295   2.793
  788SOL    HW2 2392   3.205   0.291   2.862
  789SOL     OW 2393   2.853   0.410   3.104
  789SOL    HW1 2394   2.776   0.444   3.158
  789SOL    HW2 2395   2.819   0.359   3.025
  790SOL     OW 2396   2.903   0.701   2.291
  790SOL    HW1 2397   2.929   0.697   2.387
  790SOL    HW2 2398   2.818   0.650   2.277
  791SOL     OW 2399   1.938   0.811   2.651
  791SOL    HW1 2400   2.037   0.799   2.660
  791SOL    HW2 2401   1.914   0.906   2.672
  792SOL     OW 2402   2.727   0.348   2.057
  792SOL    HW1 2403   2.786   0.411   2.008
  792SOL    HW2 2404   2.746   0.254   2.028
  793SOL     OW 2405   2.412   0.196   2.747
  793SOL    HW1 2406   2.407   0.191   2.847
  793SOL    HW2 2407   2.414   0.292   2.718
  794SOL     OW 2408   2.870   1.456   2.339
  794SOL    HW1 2409   2.824   1.528   2.287
  794SOL    HW2 2410   2.866   1.476   2.437
  795SOL     OW 2411   2.213   1.801   2.715
  795SOL    HW1 2412   2.263   1.715   2.721
  795SOL    HW2 2413   2.278   1.878   2.712
  796SOL     OW 2414   2.183   0.943   2.104
  796SOL    HW1 2415   2.265   0.982   2.062
  796SOL    HW2 2416   2.156   0.861   2.055
  797SOL     OW 2417   2.973   1.776   2.099
  797SOL    HW1 2418   2.913   1.714   2.149
  797SOL    HW2 2419   3.004   1.732   2.014
  798SOL     OW 2420   2.326   1.743   2.185
  798SOL    HW1 2421   2.359   1.782   2.271
  798SOL    HW2 2422   2.402   1.736   2.120
  799SOL     OW 2423   2.111   1.785   3.103
  799SOL    HW1 2424   2.168   1.720   3.153
  799SOL    HW2 2425   2.095   1.752   3.010
  800SOL     OW 2426   2.802   1.698   2.766
  800SOL    HW1 2427   2.882   1.641   2.787
  800SOL    HW2 2428   2.753   1.658   2.689
  801SOL     OW 2429   2.244   0.700   2.342
  801SOL    HW1 2430   2.289   0.610   2.339
  801SOL    HW2 2431   2.150   0.689   2.375
  802SOL     OW 2432   2.476   0.122   1.979
  802SOL    HW1 2433   2.574   0.100   1.986
  802SOL    HW2 2434   2.445   0.105   1.886
  803SOL     OW 2435   2.665   1.402   2.786
  803SOL    HW1 2436   2.755   1.416   2.744
  803SOL    HW2 2437   2.594   1.404   2.715
  804SOL     OW 2438   2.784   0.503   2.761
  804SOL    HW1 2439   2.759   0.494   2.665
  804SOL    HW2 2440   2.832   0.421   2.792
  805SOL     OW 2441   2.401   0.064   2.374
  805SOL    HW1 2442   2.320   0.065   2.432
  805SOL    HW2 2443   2.404   0.147   2.319
  806SOL     OW 2444   2.159   0.035   2.033
  806SOL    HW1 2445   2.208   0.119   2.012
  806SOL    HW2 2446   2.221  -0.030   2.078
  807SOL     OW 2447   2.797   0.236   2.342
  807SOL    HW1 2448   2.749   0.277   2.264
  807SOL    HW2 2449   2.896   0.234   2.323
  808SOL     OW 2450   3.089   1.570   2.655
  808SOL    HW1 2451   3.110   1.644   2.590
  808SOL    HW2 2452   3.157   1.570   2.728
  809SOL     OW 2453   2.321   1.152   2.603
  809SOL    HW1 2454   2.250   1.125   2.668
  809SOL    HW2 2455   2.295   1.124   2.510
  810SOL     OW 2456   3.133   1.797   2.453
  810SOL    HW1 2457   3.177   1.861   2.389
  810SOL    HW2 2458   3.083   1.849   2.523
  811SOL     OW 2459   2.894   0.549   1.878
  811SOL    HW1 2460   2.853   0.631   1.839
  811SOL    HW2 2461   2.958   0.575   1.951
  812SOL     OW 2462   2.423   0.222   3.009
  812SOL    HW1 2463   2.461   0.138   3.046
  812SOL    HW2 2464   2.335   0.241   3.053
  813SOL     OW 2465   2.728   0.454   2.504
  813SOL    HW1 2466   2.696   0.526   2.442
  813SOL    HW2 2467   2.752   0.373   2.451
  814SOL     OW 2468   2.879   0.039   2.615
  814SOL    HW1 2469   2.807   0.044   2.546
  814SOL    HW2 2470   2.855  -0.030   2.684
  815SOL     OW 2471   2.350   1.385   2.036
  815SOL    HW1 2472   2.263   1.370   2.083
  815SOL    HW2 2473   2.333   1.411   1.941
  816SOL     OW 2474   2.389   0.256   2.190
  816SOL    HW1 2475   2.416   0.197   2.115
  816SOL    HW2 2476   2.389   0.351   2.159
  817SOL     OW 2477   2.973   1.195   2.962
  817SOL    HW1 2478   2.933   1.239   3.043
  817SOL    HW2 2479   2.932   1.232   2.879
  818SOL     OW 2480   2.567   1.050   2.230
  818SOL    HW1 2481   2.553   1.057   2.329
  818SOL    HW2 2482   2.651   0.999   2.212
  819SOL     OW 2483   2.272   0.813   3.113
  819SOL    HW1 2484   2.358   0.825   3.163
  819SOL    HW2 2485   2.230   0.726   3.140
  820SOL     OW 2486   2.229   1.100   2.363
  820SOL    HW1 2487   2.222   1.183   2.307
  820SOL    HW2 2488   2.233   1.020   2.303
  821SOL     OW 2489   2.428   0.537   2.727
  821SOL    HW1 2490   2.440   0.603   2.653
  821SOL    HW2 2491   2.474   0.571   2.810
  822SOL     OW 2492   3.114   1.348   2.250
  822SOL    HW1 2493   3.164   1.425   2.290
  822SOL    HW2 2494   3.019   1.350   2.282
  823SOL     OW 2495   2.216   1.510   3.191
  823SOL    HW1 2496   2.195   1.466   3.104
  823SOL    HW2 2497   2.313   1.536   3.194
  824SOL     OW 2498   2.435   0.870   2.891
  824SOL    HW1 2499   2.479   0.959   2.882
  824SOL    HW2 2500   2.372   0.870   2.968
  825SOL     OW 2501   3.222   0.862   2.907
  825SOL    HW1 2502   3.147   0.862   2.841
  825SOL    HW2 2503   3.259   0.770   2.916
  826SOL     OW 2504   3.071   0.525   2.137
  826SOL    HW1 2505   3.084   0.441   2.191
  826SOL    HW2 2506   3.042   0.599   2.197
  827SOL     OW 2507   2.169   0.213   3.093
  827SOL    HW1 2508   2.146   0.250   3.183
  827SOL    HW2 2509   2.139   0.118   3.087
  828SOL     OW 2510   1.899   1.310   3.144
  828SOL    HW1 2511   1.952   1.261   3.212
  828SOL    HW2 2512   1.921   1.408   3.149
  829SOL     OW 2513   2.594   0.634   2.926
  829SOL    HW1 2514   2.653   0.608   2.850
  829SOL    HW2 2515   2.566   0.730   2.915
  830SOL     OW 2516   2.169   0.063   2.480
  830SOL    HW1 2517   2.158   0.157   2.513
  830SOL    HW2 2518   2.164   0.000   2.557
  831SOL     OW 2519   3.484   0.367   2.236
  831SOL    HW1 2520   3.486   0.291   2.300
  831SOL    HW2 2521   3.436   0.444   2.276
  832SOL     OW 2522   2.885   0.766   2.828
  832SOL    HW1 2523   2.900   0.787   2.924
  832SOL    HW2 2524   2.855   0.671   2.819
  833SOL     OW 2525   2.930   1.333   2.711
  833SOL    HW1 2526   2.937   1.249   2.656
  833SOL    HW2 2527   2.992   1.402   2.675
  834SOL     OW 2528   2.181   0.810   2.811
  834SOL    HW1 2529   2.274   0.846   2.816
  834SOL    HW2 2530   2.175   0.725   2.863
  835SOL     OW 2531   2.201   0.509   2.868
  835SOL    HW1 2532   2.149   0.426   2.851
  835SOL    HW2 2533   2.278   0.514   2.804
  836SOL     OW 2534   3.022   0.207   3.339
  836SOL    HW1 2535   3.022   0.271   3.416
  836SOL    HW2 2536   3.050   0.255   3.256
  837SOL     OW 2537   1.870   1.326   2.062
  837SOL    HW1 2538   1.777   1.347   2.031
  837SOL    HW2 2539   1.880   1.227   2.075
  838SOL     OW 2540   1.950   1.801   2.789
  838SOL    HW1 2541   1.908   1.715   2.762
  838SOL    HW2 2542   2.044   1.804   2.755
  839SOL     OW 2543   2.366   1.568   2.772
  839SOL    HW1 2544   2.432   1.642   2.781
  839SOL    HW2 2545   2.410   1.489   2.730
  840SOL     OW 2546   2.864   0.796   3.100
  840SOL    HW1 2547   2.905   0.764   3.186
  840SOL    HW2 2548   2.768   0.769   3.097
  841SOL     OW 2549   1.902   0.544   2.976
  841SOL    HW1 2550   1.987   0.511   2.935
  841SOL    HW2 2551   1.915   0.559   3.074
  842SOL     OW 2552   2.677   0.572   2.187
  842SOL    HW1 2553   2.684   0.483   2.141
  842SOL    HW2 2554   2.583   0.606   2.179
  843SOL     OW 2555   2.533   0.464   3.131
  843SOL    HW1 2556   2.499   0.375   3.101
  843SOL    HW2 2557   2.559   0.518   3.051
  844SOL     OW 2558   2.792   1.678   3.327
  844SOL    HW1 2559   2.768   1.660   3.232
  844SOL    HW2 2560   2.822   1.772   3.337
  845SOL     OW 2561   2.335   0.500   2.053
  845SOL    HW1 2562   2.396   0.580   2.057
  845SOL    HW2 2563   2.240   0.531   2.060
  846SOL     OW 2564   3.209   1.059   3.096
  846SOL    HW1 2565   3.233   0.996   3.022
  846SOL    HW2 2566   3.119   1.099   3.078
  847SOL     OW 2567   3.114   1.731   2.990
  847SOL    HW1 2568   3.198   1.736   2.936
  847SOL    HW2 2569   3.091   1.635   3.008
  848SOL     OW 2570   1.945   1.258   2.884
  848SOL    HW1 2571   1.940   1.257   2.984
  848SOL    HW2 2572   1.862   1.217   2.846
  849SOL     OW 2573   3.250   1.573   2.339
  849SOL    HW1 2574   3.317   1.585   2.265
  849SOL    HW2 2575   3.210   1.662   2.362
  850SOL     OW 2576   2.534   1.616   2.016
  850SOL    HW1 2577   2.543   1.626   1.917
  850SOL    HW2 2578   2.494   1.527   2.037
  851SOL     OW 2579   2.125   0.326   2.582
  851SOL    HW1 2580   2.046   0.377   2.548
  851SOL    HW2 2581   2.116   0.311   2.680
  852SOL     OW 2582   3.056   1.612   1.893
  852SOL    HW1 2583   3.062   1.519   1.930
  852SOL    HW2 2584   2.997   1.612   1.813
  853SOL     OW 2585   2.684   1.002   3.234
  853SOL    HW1 2586   2.724   1.001   3.142
  853SOL    HW2 2587   2.694   1.094   3.274
  854SOL     OW 2588   2.778   0.910   2.153
  854SOL    HW1 2589   2.841   0.948   2.085
  854SOL    HW2 2590   2.818   0.827   2.192
  855SOL     OW 2591   2.901   1.098   2.558
  855SOL    HW1 2592   2.831   1.051   2.612
  855SOL    HW2 2593   2.960   1.030   2.515
  856SOL     OW 2594   2.876   0.236   2.833
  856SOL    HW1 2595   2.868   0.200   2.740
  856SOL    HW2 2596   2.874   0.160   2.898
  857SOL     OW 2597   2.452   1.487   2.353
  857SOL    HW1 2598   2.494   1.429   2.283
  857SOL    HW2 2599   2.408   1.566   2.309
  858SOL     OW 2600   2.117   1.348   2.152
  858SOL    HW1 2601   2.021   1.349   2.125
  858SOL    HW2 2602   2.129   1.401   2.236
  859SOL     OW 2603   1.937   0.345   1.895
  859SOL    HW1 2604   1.845   0.317   1.866
  859SOL    HW2 2605   1.968   0.422   1.839
  860SOL     OW 2606   1.934   0.166   2.180
  860SOL    HW1 2607   1.917   0.249   2.126
  860SOL    HW2 2608   2.024   0.129   2.158
  861SOL     OW 2609   3.087   0.325   2.311
  861SOL    HW1 2610   3.152   0.251   2.300
  861SOL    HW2 2611   3.107   0.375   2.395
  862SOL     OW 2612   2.456   0.745   2.514
  862SOL    HW1 2613   2.506   0.830   2.495
  862SOL    HW2 2614   2.368   0.747   2.466
  863SOL     OW 2615   2.721   1.374   1.878
  863SOL    HW1 2616   2.675   1.389   1.966
  863SOL    HW2 2617   2.765   1.459   1.848
  864SOL     OW 2618   2.523   1.790   2.815
  864SOL    HW1 2619   2.477   1.878   2.802
  864SOL    HW2 2620   2.622   1.802   2.808
  865SOL     OW 2621   2.721   0.956   2.723
  865SOL    HW1 2622   2.775   0.887   2.771
  865SOL    HW2 2623   2.689   1.025   2.789
  866SOL     OW 2624   2.945   0.984   1.949
  866SOL    HW1 2625   2.922   1.037   1.867
  866SOL    HW2 2626   3.026   0.928   1.930
  867SOL     OW 2627   1.941   1.240   2.515
  867SOL    HW1 2628   1.940   1.193   2.603
  867SOL    HW2 2629   2.023   1.212   2.464
  868SOL     OW 2630   2.290   0.424   2.382
  868SOL    HW1 2631   2.320   0.352   2.320
  868SOL    HW2 2632   2.251   0.384   2.465
  869SOL     OW 2633   2.674   1.586   2.549
  869SOL    HW1 2634   2.706   1.596   2.455
  869SOL    HW2 2635   2.595   1.524   2.551
  870SOL     OW 2636   2.863   0.034   3.016
  870SOL    HW1 2637   2.800  -0.038   2.985
  870SOL    HW2 2638   2.956  -0.002   3.016
  871SOL     OW 2639   2.632   1.330   2.163
  871SOL    HW1 2640   2.586   1.243   2.180
  871SOL    HW2 2641   2.723   1.327   2.204
  872SOL     OW 2642   1.901   1.077   2.162
  872SOL    HW1 2643   2.000   1.066   2.153
  872SOL    HW2 2644   1.861   0.991   2.194
  873SOL     OW 2645   2.737   1.646   2.199
  873SOL    HW1 2646   2.660   1.611   2.145
  873SOL    HW2 2647   2.705   1.717   2.261
  874SOL     OW 2648   2.092   2.490   0.113
  874SOL    HW1 2649   1.999   2.488   0.150
  874SOL    HW2 2650   2.093   2.451   0.021
  875SOL     OW 2651   2.087   2.137   0.996
  875SOL    HW1 2652   2.122   2.120   1.088
  875SOL    HW2 2653   1.999   2.092   0.984
  876SOL     OW 2654   1.881   2.230   0.647
  876SOL    HW1 2655   1.799   2.273   0.686
  876SOL    HW2 2656   1.853   2.157   0.584
  877SOL     OW 2657   2.997   2.565   0.717
  877SOL    HW1 2658   3.054   2.643   0.692
  877SOL    HW2 2659   2.937   2.591   0.793
  878SOL     OW 2660   2.630   3.006   1.023
  878SOL    HW1 2661   2.552   3.023   1.083
  878SOL    HW2 2662   2.664   3.093   0.987
  879SOL     OW 2663   2.712   2.660   1.823
  879SOL    HW1 2664   2.708   2.736   1.888
  879SOL    HW2 2665   2.734   2.696   1.732
  880SOL     OW 2666   2.547   2.874   0.665
  880SOL    HW1 2667   2.616   2.858   0.735
  880SOL    HW2 2668   2.474   2.931   0.703
  881SOL     OW 2669   2.548   3.023   1.803
  881SOL    HW1 2670   2.608   3.102   1.817
  881SOL    HW2 2671   2.462   3.054   1.762
  882SOL     OW 2672   2.197   3.297   1.061
  882SOL    HW1 2673   2.119   3.266   1.008
  882SOL    HW2 2674   2.255   3.355   1.004
  883SOL     OW 2675   2.300   2.254   1.499
  883SOL    HW1 2676   2.382   2.198   1.508
  883SOL    HW2 2677   2.219   2.196   1.503
  884SOL     OW 2678   2.102   2.953   0.886
  884SOL    HW1 2679   2.116   2.869   0.938
  884SOL    HW2 2680   2.047   3.017   0.941
  885SOL     OW 2681   2.468   2.826   0.123
  885SOL    HW1 2682   2.475   2.910   0.069
  885SOL    HW2 2683   2.514   2.839   0.211
  886SOL     OW 2684   1.984   2.505   0.563
  886SOL    HW1 2685   1.939   2.417   0.580
  886SOL    HW2 2686   1.983   2.559   0.647
  887SOL     OW 2687   1.975   2.599   1.597
  887SOL    HW1 2688   2.063   2.586   1.642
  887SOL    HW2 2689   1.962   2.696   1.575
  888SOL     OW 2690   3.155   3.090   1.423
  888SOL    HW1 2691   3.192   3.017   1.365
  888SOL    HW2 2692   3.207   3.095   1.508
  889SOL     OW 2693   2.671   1.866   0.502
  889SOL    HW1 2694   2.711   1.957   0.493
  889SOL    HW2 2695   2.571   1.874   0.508
  890SOL     OW 2696   2.059   2.838   1.264
  890SOL    HW1 2697   2.148   2.793   1.250
  890SOL    HW2 2698   1.986   2.773   1.245
  891SOL     OW 2699   2.179   2.113   1.801
  891SOL    HW1 2700   2.250   2.184   1.807
  891SOL    HW2 2701   2.091   2.152   1.829
  892SOL     OW 2702   2.460   2.591   0.270
  892SOL    HW1 2703   2.484   2.660   0.202
  892SOL    HW2 2704   2.382   2.624   0.324
  893SOL     OW 2705   3.143   2.207   0.944
  893SOL    HW1 2706   3.057   2.157   0.931
  893SOL    HW2 2707   3.205   2.153   1.000
  894SOL     OW 2708   2.669   2.467   1.465
  894SOL    HW1 2709   2.622   2.464   1.554
  894SOL    HW2 2710   2.618   2.412   1.399
  895SOL     OW 2711   2.835   2.752   1.572
  895SOL    HW1 2712   2.881   2.668   1.543
  895SOL    HW2 2713   2.779   2.786   1.497
  896SOL     OW 2714   2.853   2.272   1.242
  896SOL    HW1 2715   2.776   2.306   1.296
  896SOL    HW2 2716   2.819   2.221   1.163
  897SOL     OW 2717   2.903   2.563   0.429
  897SOL    HW1 2718   2.929   2.559   0.525
  897SOL    HW2 2719   2.818   2.512   0.415
  898SOL     OW 2720   1.938   2.673   0.789
  898SOL    HW1 2721   2.037   2.661   0.798
  898SOL    HW2 2722   1.914   2.768   0.810
  899SOL     OW 2723   2.727   2.210   0.195
  899SOL    HW1 2724   2.786   2.273   0.146
  899SOL    HW2 2725   2.746   2.116   0.166
  900SOL     OW 2726   2.412   2.058   0.885
  900SOL    HW1 2727   2.407   2.053   0.985
  900SOL    HW2 2728   2.414   2.154   0.856
  901SOL     OW 2729   2.183   2.805   0.242
  901SOL    HW1 2730   2.265   2.844   0.200
  901SOL    HW2 2731   2.156   2.723   0.193
  902SOL     OW 2732   2.064   2.147   1.498
  902SOL    HW1 2733   1.984   2.207   1.485
  902SOL    HW2 2734   2.054   2.098   1.584
  903SOL     OW 2735   2.244   2.562   0.480
  903SOL    HW1 2736   2.289   2.472   0.477
  903SOL    HW2 2737   2.150   2.551   0.513
  904SOL     OW 2738   2.643   2.126   1.749
  904SOL    HW1 2739   2.710   2.065   1.792
  904SOL    HW2 2740   2.570   2.145   1.814
  905SOL     OW 2741   2.665   3.264   0.924
  905SOL    HW1 2742   2.755   3.278   0.882
  905SOL    HW2 2743   2.594   3.266   0.853
  906SOL     OW 2744   2.784   2.365   0.899
  906SOL    HW1 2745   2.759   2.356   0.803
  906SOL    HW2 2746   2.832   2.283   0.930
  907SOL     OW 2747   2.401   1.926   0.512
  907SOL    HW1 2748   2.320   1.927   0.570
  907SOL    HW2 2749   2.404   2.009   0.457
  908SOL     OW 2750   2.159   1.897   0.171
  908SOL    HW1 2751   2.208   1.981   0.150
  908SOL    HW2 2752   2.221   1.832   0.216
  909SOL     OW 2753   2.797   2.098   0.480
  909SOL    HW1 2754   2.749   2.139   0.402
  909SOL    HW2 2755   2.896   2.096   0.461
  910SOL     OW 2756   2.938   2.545   1.464
  910SOL    HW1 2757   2.858   2.484   1.467
  910SOL    HW2 2758   3.019   2.492   1.440
  911SOL     OW 2759   2.321   3.014   0.741
  911SOL    HW1 2760   2.250   2.987   0.806
  911SOL    HW2 2761   2.295   2.986   0.648
  912SOL     OW 2762   2.894   2.411   0.016
  912SOL    HW1 2763   2.853   2.493  -0.023
  912SOL    HW2 2764   2.958   2.437   0.089
  913SOL     OW 2765   1.940   2.418   1.386
  913SOL    HW1 2766   2.032   2.417   1.345
  913SOL    HW2 2767   1.934   2.492   1.453
  914SOL     OW 2768   2.423   2.084   1.147
  914SOL    HW1 2769   2.461   2.000   1.184
  914SOL    HW2 2770   2.335   2.103   1.191
  915SOL     OW 2771   2.728   2.316   0.642
  915SOL    HW1 2772   2.696   2.388   0.580
  915SOL    HW2 2773   2.752   2.235   0.589
  916SOL     OW 2774   2.879   1.901   0.753
  916SOL    HW1 2775   2.807   1.906   0.684
  916SOL    HW2 2776   2.855   1.832   0.822
  917SOL     OW 2777   2.389   2.118   0.328
  917SOL    HW1 2778   2.416   2.059   0.253
  917SOL    HW2 2779   2.389   2.213   0.297
  918SOL     OW 2780   2.777   1.951   1.402
  918SOL    HW1 2781   2.802   1.931   1.307
  918SOL    HW2 2782   2.849   2.007   1.444
  919SOL     OW 2783   2.842   2.978   1.719
  919SOL    HW1 2784   2.743   2.984   1.729
  919SOL    HW2 2785   2.865   2.898   1.663
  920SOL     OW 2786   2.567   2.912   0.368
  920SOL    HW1 2787   2.553   2.919   0.467
  920SOL    HW2 2788   2.651   2.861   0.350
  921SOL     OW 2789   2.272   2.675   1.251
  921SOL    HW1 2790   2.358   2.687   1.301
  921SOL    HW2 2791   2.230   2.588   1.278
  922SOL     OW 2792   3.136   2.248   1.262
  922SOL    HW1 2793   3.157   2.322   1.326
  922SOL    HW2 2794   3.047   2.265   1.219
  923SOL     OW 2795   2.229   2.962   0.501
  923SOL    HW1 2796   2.222   3.045   0.445
  923SOL    HW2 2797   2.233   2.882   0.441
  924SOL     OW 2798   2.428   2.399   0.865
  924SOL    HW1 2799   2.440   2.465   0.791
  924SOL    HW2 2800   2.474   2.433   0.948
  925SOL     OW 2801   3.114   3.210   0.388
  925SOL    HW1 2802   3.164   3.287   0.428
  925SOL    HW2 2803   3.019   3.212   0.420
  926SOL     OW 2804   2.264   2.613   1.598
  926SOL    HW1 2805   2.332   2.668   1.551
  926SOL    HW2 2806   2.304   2.525   1.625
  927SOL     OW 2807   2.875   1.967   1.770
  927SOL    HW1 2808   2.881   2.052   1.718
  927SOL    HW2 2809   2.907   1.891   1.713
  928SOL     OW 2810   2.366   1.912   1.740
  928SOL    HW1 2811   2.324   1.855   1.670
  928SOL    HW2 2812   2.300   1.981   1.772
  929SOL     OW 2813   2.435   2.732   1.029
  929SOL    HW1 2814   2.479   2.821   1.020
  929SOL    HW2 2815   2.372   2.732   1.106
  930SOL     OW 2816   3.222   2.724   1.045
  930SOL    HW1 2817   3.147   2.724   0.979
  930SOL    HW2 2818   3.259   2.632   1.054
  931SOL     OW 2819   3.071   2.387   0.275
  931SOL    HW1 2820   3.084   2.303   0.329
  931SOL    HW2 2821   3.042   2.461   0.335
  932SOL     OW 2822   2.169   2.075   1.231
  932SOL    HW1 2823   2.146   2.112   1.321
  932SOL    HW2 2824   2.139   1.980   1.225
  933SOL     OW 2825   2.594   2.496   1.064
  933SOL    HW1 2826   2.653   2.470   0.988
  933SOL    HW2 2827   2.566   2.592   1.053
  934SOL     OW 2828   2.169   1.925   0.618
  934SOL    HW1 2829   2.158   2.019   0.651
  934SOL    HW2 2830   2.164   1.862   0.695
  935SOL     OW 2831   3.484   2.229   0.374
  935SOL    HW1 2832   3.486   2.153   0.438
  935SOL    HW2 2833   3.436   2.306   0.414
  936SOL     OW 2834   2.885   2.628   0.966
  936SOL    HW1 2835   2.900   2.649   1.062
  936SOL    HW2 2836   2.855   2.533   0.957
  937SOL     OW 2837   2.212   2.760   1.804
  937SOL    HW1 2838   2.288   2.804   1.852
  937SOL    HW2 2839   2.247   2.713   1.722
  938SOL     OW 2840   3.165   2.700   0.042
  938SOL    HW1 2841   3.199   2.607   0.057
  938SOL    HW2 2842   3.183   2.727  -0.053
  939SOL     OW 2843   2.181   2.672   0.949
  939SOL    HW1 2844   2.274   2.708   0.954
  939SOL    HW2 2845   2.175   2.587   1.001
  940SOL     OW 2846   2.201   2.371   1.006
  940SOL    HW1 2847   2.149   2.288   0.989
  940SOL    HW2 2848   2.278   2.376   0.942
  941SOL     OW 2849   3.000   2.242   1.678
  941SOL    HW1 2850   2.955   2.305   1.742
  941SOL    HW2 2851   3.093   2.273   1.661
  942SOL     OW 2852   3.022   2.069   1.477
  942SOL    HW1 2853   3.022   2.133   1.554
  942SOL    HW2 2854   3.050   2.117   1.394
  943SOL     OW 2855   2.864   2.658   1.238
  943SOL    HW1 2856   2.905   2.626   1.324
  943SOL    HW2 2857   2.768   2.631   1.235
  944SOL     OW 2858   1.902   2.406   1.114
  944SOL    HW1 2859   1.987   2.373   1.073
  944SOL    HW2 2860   1.915   2.421   1.212
  945SOL     OW 2861   2.051   2.382   1.722
  945SOL    HW1 2862   2.110   2.342   1.652
  945SOL    HW2 2863   1.993   2.453   1.681
  946SOL     OW 2864   2.677   2.434   0.325
  946SOL    HW1 2865   2.684   2.345   0.279
  946SOL    HW2 2866   2.583   2.468   0.317
  947SOL     OW 2867   2.533   2.326   1.269
  947SOL    HW1 2868   2.499   2.237   1.239
  947SOL    HW2 2869   2.559   2.380   1.189
  948SOL     OW 2870   2.335   2.362   0.191
  948SOL    HW1 2871   2.396   2.442   0.195
  948SOL    HW2 2872   2.240   2.393   0.198
  949SOL     OW 2873   2.021   2.999   1.466
  949SOL    HW1 2874   2.043   2.938   1.542
  949SOL    HW2 2875   2.031   2.950   1.380
  950SOL     OW 2876   3.209   2.921   1.234
  950SOL    HW1 2877   3.233   2.858   1.160
  950SOL    HW2 2878   3.119   2.961   1.216
  951SOL     OW 2879   1.945   3.120   1.022
  951SOL    HW1 2880   1.940   3.119   1.122
  951SOL    HW2 2881   1.862   3.079   0.984
  952SOL     OW 2882   2.765   1.948   0.133
  952SOL    HW1 2883   2.816   1.949   0.047
  952SOL    HW2 2884   2.821   1.906   0.204
  953SOL     OW 2885   2.692   3.135   1.422
  953SOL    HW1 2886   2.687   3.168   1.517
  953SOL    HW2 2887   2.606   3.154   1.376
  954SOL     OW 2888   2.125   2.188   0.720
  954SOL    HW1 2889   2.046   2.239   0.686
  954SOL    HW2 2890   2.116   2.173   0.818
  955SOL     OW 2891   2.684   2.864   1.372
  955SOL    HW1 2892   2.724   2.863   1.280
  955SOL    HW2 2893   2.694   2.956   1.412
  956SOL     OW 2894   2.778   2.772   0.291
  956SOL    HW1 2895   2.841   2.810   0.223
  956SOL    HW2 2896   2.818   2.689   0.330
  957SOL     OW 2897   2.234   3.150   1.490
  957SOL    HW1 2898   2.221   3.243   1.456
  957SOL    HW2 2899   2.150   3.098   1.477
  958SOL     OW 2900   2.901   2.960   0.696
  958SOL    HW1 2901   2.831   2.913   0.750
  958SOL    HW2 2902   2.960   2.892   0.653
  959SOL     OW 2903   2.876   2.098   0.971
  959SOL    HW1 2904   2.868   2.062   0.878
  959SOL    HW2 2905   2.874   2.022   1.036
  960SOL     OW 2906   1.967   2.875   1.726
  960SOL    HW1 2907   1.890   2.842   1.780
  960SOL    HW2 2908   2.052   2.845   1.768
  961SOL     OW 2909   2.534   2.065   1.489
  961SOL    HW1 2910   2.624   2.049   1.449
  961SOL    HW2 2911   2.542   2.070   1.588
  962SOL     OW 2912   1.934   2.028   0.318
  962SOL    HW1 2913   1.917   2.111   0.264
  962SOL    HW2 2914   2.024   1.991   0.296
  963SOL     OW 2915   2.475   2.704   1.431
  963SOL    HW1 2916   2.531   2.785   1.414
  963SOL    HW2 2917   2.534   2.624   1.434
  964SOL     OW 2918   2.578   2.427   1.708
  964SOL    HW1 2919   2.597   2.492   1.782
  964SOL    HW2 2920   2.638   2.347   1.717
  965SOL     OW 2921   3.312   3.082   1.633
  965SOL    HW1 2922   3.303   3.072   1.732
  965SOL    HW2 2923   3.408   3.075   1.607
  966SOL     OW 2924   3.087   2.187   0.449
  966SOL    HW1 2925   3.152   2.113   0.438
  966SOL    HW2 2926   3.107   2.237   0.533
  967SOL     OW 2927   2.456   2.607   0.652
  967SOL    HW1 2928   2.506   2.692   0.633
  967SOL    HW2 2929   2.368   2.609   0.604
  968SOL     OW 2930   2.721   2.818   0.861
  968SOL    HW1 2931   2.775   2.749   0.909
  968SOL    HW2 2932   2.689   2.887   0.927
  969SOL     OW 2933   2.945   2.846   0.087
  969SOL    HW1 2934   2.922   2.899   0.005
  969SOL    HW2 2935   3.026   2.790   0.068
  970SOL     OW 2936   1.941   3.102   0.653
  970SOL    HW1 2937   1.940   3.055   0.741
  970SOL    HW2 2938   2.023   3.074   0.602
  971SOL     OW 2939   2.290   2.286   0.520
  971SOL    HW1 2940   2.320   2.214   0.458
  971SOL    HW2 2941   2.251   2.246   0.603
  972SOL     OW 2942   2.179   2.409   1.280
  972SOL    HW1 2943   2.217   2.350   1.352
  972SOL    HW2 2944   2.219   2.383   1.192
  973SOL     OW 2945   2.863   1.896   1.154
  973SOL    HW1 2946   2.800   1.824   1.123
  973SOL    HW2 2947   2.956   1.860   1.154
  974SOL     OW 2948   2.632   3.192   0.301
  974SOL    HW1 2949   2.586   3.105   0.318
  974SOL    HW2 2950   2.723   3.189   0.342
  975SOL     OW 2951   1.901   2.939   0.300
  975SOL    HW1 2952   2.000   2.928   0.291
  975SOL    HW2 2953   1.861   2.853   0.332
  976SOL     OW 2954   2.092   2.490   1.975
  976SOL    HW1 2955   1.999   2.488   2.012
  976SOL    HW2 2956   2.093   2.451   1.883
  977SOL     OW 2957   2.087   2.137   2.858
  977SOL    HW1 2958   2.122   2.120   2.950
  977SOL    HW2 2959   1.999   2.092   2.846
  978SOL     OW 2960   1.881   2.230   2.509
  978SOL    HW1 2961   1.799   2.273   2.548
  978SOL    HW2 2962   1.853   2.157   2.446
  979SOL     OW 2963   2.997   2.565   2.579
  979SOL    HW1 2964   3.054   2.643   2.554
  979SOL    HW2 2965   2.937   2.591   2.655
  980SOL     OW 2966   2.630   3.006   2.885
  980SOL    HW1 2967   2.552   3.023   2.945
  980SOL    HW2 2968   2.664   3.093   2.849
  981SOL     OW 2969   2.547   2.874   2.527
  981SOL    HW1 2970   2.616   2.858   2.597
  981SOL    HW2 2971   2.474   2.931   2.565
  982SOL     OW 2972   2.197   3.297   2.923
  982SOL    HW1 2973   2.119   3.266   2.870
  982SOL    HW2 2974   2.255   3.355   2.866
  983SOL     OW 2975   2.102   2.953   2.748
  983SOL    HW1 2976   2.116   2.869   2.800
  983SOL    HW2 2977   2.047   3.017   2.803
  984SOL     OW 2978   2.468   2.826   1.985
  984SOL    HW1 2979   2.475   2.910   1.931
  984SOL    HW2 2980   2.514   2.839   2.073
  985SOL     OW 2981   1.984   2.505   2.425
  985SOL    HW1 2982   1.939   2.417   2.442
  985SOL    HW2 2983   1.983   2.559   2.509
  986SOL     OW 2984   2.671   1.866   2.364
  986SOL    HW1 2985   2.711   1.957   2.355
  986SOL    HW2 2986   2.571   1.874   2.370
  987SOL     OW 2987   2.059   2.838   3.126
  987SOL    HW1 2988   2.148   2.793   3.112
  987SOL    HW2 2989   1.986   2.773   3.107
  988SOL     OW 2990   2.460   2.591   2.132
  988SOL    HW1 2991   2.484   2.660   2.064
  988SOL    HW2 2992   2.382   2.624   2.186
  989SOL     OW 2993   3.143   2.207   2.806
  989SOL    HW1 2994   3.057   2.157   2.793
  989SOL    HW2 2995   3.205   2.153   2.862
  990SOL     OW 2996   2.853   2.272   3.104
  990SOL    HW1 2997   2.776   2.306   3.158
  990SOL    HW2 2998   2.819   2.221   3.025
  991SOL     OW 2999   2.903   2.563   2.291
  991SOL    HW1 3000   2.929   2.559   2.387
  991SOL    HW2 3001   2.818   2.512   2.277
  992SOL     OW 3002   1.938   2.673   2.651
  992SOL    HW1 3003   2.037   2.661   2.660
  992SOL    HW2 3004   1.914   2.768   2.672
  993SOL     OW 3005   2.727   2.210   2.057
  993SOL    HW1 3006   2.786   2.273   2.008
  993SOL    HW2 3007   2.746   2.116   2.028
  994SOL     OW 3008   2.412   2.058   2.747
  994SOL    HW1 3009   2.407   2.053   2.847
  994SOL    HW2 3010   2.414   2.154   2.718
  995SOL     OW 3011   2.183   2.805   2.104
  995SOL    HW1 3012   2.265   2.844   2.062
  995SOL    HW2 3013   2.156   2.723   2.055
  996SOL     OW 3014   2.244   2.562   2.342
  996SOL    HW1 3015   2.289   2.472   2.339
  996SOL    HW2 3016   2.150   2.551   2.375
  997SOL     OW 3017   2.476   1.984   1.979
  997SOL    HW1 3018   2.574   1.962   1.986
  997SOL    HW2 3019   2.445   1.967   1.886
  998SOL     OW 3020   2.665   3.264   2.786
  998SOL    HW1 3021   2.755   3.278   2.744
  998SOL    HW2 3022   2.594   3.266   2.715
  999SOL     OW 3023   2.784   2.365   2.761
  999SOL    HW1 3024   2.759   2.356   2.665
  999SOL    HW2 3025   2.832   2.283   2.792
 1000SOL     OW 3026   2.401   1.926   2.374
 1000SOL    HW1 3027   2.320   1.927   2.432
 1000SOL    HW2 3028   2.404   2.009   2.319
 1001SOL     OW 3029   3.296   3.050   1.903
 1001SOL    HW1 3030   3.328   2.974   1.960
 1001SOL    HW2 3031   3.204   3.077   1.933
 1002SOL     OW 3032   2.159   1.897   2.033
 1002SOL    HW1 3033   2.208   1.981   2.012
 1002SOL    HW2 3034   2.221   1.832   2.078
 1003SOL     OW 3035   2.797   2.098   2.342
 1003SOL    HW1 3036   2.749   2.139   2.264
 1003SOL    HW2 3037   2.896   2.096   2.323
 1004SOL     OW 3038   2.321   3.014   2.603
 1004SOL    HW1 3039   2.250   2.987   2.668
 1004SOL    HW2 3040   2.295   2.986   2.510
 1005SOL     OW 3041   2.894   2.411   1.878
 1005SOL    HW1 3042   2.853   2.493   1.839
 1005SOL    HW2 3043   2.958   2.437   1.951
 1006SOL     OW 3044   2.423   2.084   3.009
 1006SOL    HW1 3045   2.461   2.000   3.046
 1006SOL    HW2 3046   2.335   2.103   3.053
 1007SOL     OW 3047   2.728   2.316   2.504
 1007SOL    HW1 3048   2.696   2.388   2.442
 1007SOL    HW2 3049   2.752   2.235   2.451
 1008SOL     OW 3050   2.879   1.901   2.615
 1008SOL    HW1 3051   2.807   1.906   2.546
 1008SOL    HW2 3052   2.855   1.832   2.684
 1009SOL     OW 3053   2.389   2.118   2.190
 1009SOL    HW1 3054   2.416   2.059   2.115
 1009SOL    HW2 3055   2.389   2.213   2.159
 1010SOL     OW 3056   2.567   2.912   2.230
 1010SOL    HW1 3057   2.553   2.919   2.329
 1010SOL    HW2 3058   2.651   2.861   2.212
 1011SOL     OW 3059   2.272   2.675   3.113
 1011SOL    HW1 3060   2.358   2.687   3.163
 1011SOL    HW2 3061   2.230   2.588   3.140
 1012SOL     OW 3062   2.229   2.962   2.363
 1012SOL    HW1 3063   2.222   3.045   2.307
 1012SOL    HW2 3064   2.233   2.882   2.303
 1013SOL     OW 3065   2.428   2.399   2.727
 1013SOL    HW1 3066   2.440   2.465   2.653
 1013SOL    HW2 3067   2.474   2.433   2.810
 1014SOL     OW 3068   3.114   3.210   2.250
 1014SOL    HW1 3069   3.164   3.287   2.290
 1014SOL    HW2 3070   3.019   3.212   2.282
 1015SOL     OW 3071   2.435   2.732   2.891
 1015SOL    HW1 3072   2.479   2.821   2.882
 1015SOL    HW2 3073   2.372   2.732   2.968
 1016SOL     OW 3074   3.222   2.724   2.907
 1016SOL    HW1 3075   3.147   2.724   2.841
 1016SOL    HW2 3076   3.259   2.632   2.916
 1017SOL     OW 3077   3.071   2.387   2.137
 1017SOL    HW1 3078   3.084   2.303   2.191
 1017SOL    HW2 3079   3.042   2.461   2.197
 1018SOL     OW 3080   2.169   2.075   3.093
 1018SOL    HW1 3081   2.146   2.112   3.183
 1018SOL    HW2 3082   2.139   1.980   3.087
 1019SOL     OW 3083   2.594   2.496   2.926
 1019SOL    HW1 3084   2.653   2.470   2.850
 1019SOL    HW2 3085   2.566   2.592   2.915
 1020SOL     OW 3086   2.169   1.925   2.480
 1020SOL    HW1 3087   2.158   2.019   2.513
 1020SOL    HW2 3088   2.164   1.862   2.557
 1021SOL     OW 3089   3.484   2.229   2.236
 1021SOL    HW1 3090   3.486   2.153   2.300
 1021SOL    HW2 3091   3.436   2.306   2.276
 1022SOL     OW 3092   2.885   2.628   2.828
 1022SOL    HW1 3093   2.900   2.649   2.924
 1022SOL    HW2 3094   2.855   2.533   2.819
 1023SOL     OW 3095   2.181   2.672   2.811
 1023SOL    HW1 3096   2.274   2.708   2.816
 1023SOL    HW2 3097   2.175   2.587   2.863
 1024SOL     OW 3098   2.201   2.371   2.868
 1024SOL    HW1 3099   2.149   2.288   2.851
 1024SOL    HW2 3100   2.278   2.376   2.804
 1025SOL     OW 3101   3.022   2.069   3.339
 1025SOL    HW1 3102   3.022   2.133   3.416
 1025SOL    HW2 3103   3.050   2.117   3.256
 1026SOL     OW 3104   1.870   3.188   2.062
 1026SOL    HW1 3105   1.777   3.209   2.031
 1026SOL    HW2 3106   1.880   3.089   2.075
 1027SOL     OW 3107   2.864   2.658   3.100
 1027SOL    HW1 3108   2.905   2.626   3.186
 1027SOL    HW2 3109   2.768   2.631   3.097
 1028SOL     OW 3110   1.902   2.406   2.976
 1028SOL    HW1 3111   1.987   2.373   2.935
 1028SOL    HW2 3112   1.915   2.421   3.074
 1029SOL     OW 3113   2.677   2.434   2.187
 1029SOL    HW1 3114   2.684   2.345   2.141
 1029SOL    HW2 3115   2.583   2.468   2.179
 1030SOL     OW 3116   2.533   2.326   3.131
 1030SOL    HW1 3117   2.499   2.237   3.101
 1030SOL    HW2 3118   2.559   2.380   3.051
 1031SOL     OW 3119   2.335   2.362   2.053
 1031SOL    HW1 3120   2.396   2.442   2.057
 1031SOL    HW2 3121   2.240   2.393   2.060
 1032SOL     OW 3122   3.209   2.921   3.096
 1032SOL    HW1 3123   3.233   2.858   3.022
 1032SOL    HW2 3124   3.119   2.961   3.078
 1033SOL     OW 3125   1.945   3.120   2.884
 1033SOL    HW1 3126   1.940   3.119   2.984
 1033SOL    HW2 3127   1.862   3.079   2.846
 1034SOL     OW 3128   2.125   2.188   2.582
 1034SOL    HW1 3129   2.046   2.239   2.548
 1034SOL    HW2 3130   2.116   2.173   2.680
 1035SOL     OW 3131   3.056   3.474   1.893
 1035SOL    HW1 3132   3.062   3.381   1.930
 1035SOL    HW2 3133   2.997   3.474   1.813
 1036SOL     OW 3134   2.684   2.864   3.234
 1036SOL    HW1 3135   2.724   2.863   3.142
 1036SOL    HW2 3136   2.694   2.956   3.274
 1037SOL     OW 3137   2.778   2.772   2.153
 1037SOL    HW1 3138   2.841   2.810   2.085
 1037SOL    HW2 3139   2.818   2.689   2.192
 1038SOL     OW 3140   2.901   2.960   2.558
 1038SOL    HW1 3141   2.831   2.913   2.612
 1038SOL    HW2 3142   2.960   2.892   2.515
 1039SOL     OW 3143   2.876   2.098   2.833
 1039SOL    HW1 3144   2.868   2.062   2.740
 1039SOL    HW2 3145   2.874   2.022   2.898
 1040SOL     OW 3146   1.937   2.207   1.895
 1040SOL    HW1 3147   1.845   2.179   1.866
 1040SOL    HW2 3148   1.968   2.284   1.839
 1041SOL     OW 3149   1.934   2.028   2.180
 1041SOL    HW1 3150   1.917   2.111   2.126
 1041SOL    HW2 3151   2.024   1.991   2.158
 1042SOL     OW 3152   3.087   2.187   2.311
 1042SOL    HW1 3153   3.152   2.113   2.300
 1042SOL    HW2 3154   3.107   2.237   2.395
 1043SOL     OW 3155   2.456   2.607   2.514
 1043SOL    HW1 3156   2.506   2.692   2.495
 1043SOL    HW2 3157   2.368   2.609   2.466
 1044SOL     OW 3158   2.721   2.818   2.723
 1044SOL    HW1 3159   2.775   2.749   2.771
 1044SOL    HW2 3160   2.689   2.887   2.789
 1045SOL     OW 3161   2.945   2.846   1.949
 1045SOL    HW1 3162   2.922   2.899   1.867
 1045SOL    HW2 3163   3.026   2.790   1.930
 1046SOL     OW 3164   1.941   3.102   2.515
 1046SOL    HW1 3165   1.940   3.055   2.603
 1046SOL    HW2 3166   2.023   3.074   2.464
 1047SOL     OW 3167   2.290   2.286   2.382
 1047SOL    HW1 3168   2.320   2.214   2.320
 1047SOL    HW2 3169   2.251   2.246   2.465
 1048SOL     OW 3170   2.863   1.896   3.016
 1048SOL    HW1 3171   2.800   1.824   2.985
 1048SOL    HW2 3172   2.956   1.860   3.016
 1049SOL     OW 3173   2.632   3.192   2.163
 1049SOL    HW1 3174   2.586   3.105   2.180
 1049SOL    HW2 3175   2.723   3.189   2.204
 1050SOL     OW 3176   3.214   1.914   2.030
 1050SOL    HW1 3177   3.249   1.873   1.946
 1050SOL    HW2 3178   3.124   1.876   2.050
 1051SOL     OW 3179   1.901   2.939   2.162
 1051SOL    HW1 3180   2.000   2.928   2.153
 1051SOL    HW2 3181   1.861   2.853   2.194
   3.21880   3.21880   3.21880
