mobley_8739734_GMX.gro created by acpype (v: 2023.10.27) on Thu May 14 13:17:12 2026
 1636
    1MOL     C1    1   1.235   1.188   1.230
    1MOL     C2    2   1.259   1.061   1.307
    1MOL     C3    3   1.415   1.356   1.275
    1MOL     C4    4   1.176   1.431   1.257
    1MOL     C5    5   1.269   1.319   1.301
    1MOL     O1    6   1.193   1.186   1.114
    1MOL     H1    7   1.366   1.046   1.322
    1MOL     H2    8   1.220   0.976   1.250
    1MOL     H3    9   1.207   1.065   1.403
    1MOL     H4   10   1.434   1.368   1.168
    1MOL     H5   11   1.441   1.450   1.325
    1MOL     H6   12   1.483   1.279   1.312
    1MOL     H7   13   1.071   1.404   1.273
    1MOL     H8   14   1.188   1.454   1.151
    1MOL     H9   15   1.196   1.523   1.314
    1MOL    H10   16   1.254   1.303   1.409
    2SOL     OW   17   0.230   0.628   0.113
    2SOL    HW1   18   0.137   0.626   0.150
    2SOL    HW2   19   0.231   0.589   0.021
    3SOL     OW   20   0.225   0.275   0.996
    3SOL    HW1   21   0.260   0.258   1.088
    3SOL    HW2   22   0.137   0.230   0.984
    4SOL     OW   23   0.019   0.368   0.647
    4SOL    HW1   24  -0.063   0.411   0.686
    4SOL    HW2   25  -0.009   0.295   0.584
    5SOL     OW   26   0.569   1.275   1.165
    5SOL    HW1   27   0.476   1.268   1.128
    5SOL    HW2   28   0.580   1.364   1.209
    6SOL     OW   29   1.555   1.511   0.703
    6SOL    HW1   30   1.498   1.495   0.784
    6SOL    HW2   31   1.496   1.521   0.623
    7SOL     OW   32   1.135   0.703   0.717
    7SOL    HW1   33   1.192   0.781   0.692
    7SOL    HW2   34   1.075   0.729   0.793
    8SOL     OW   35   1.755   0.607   0.231
    8SOL    HW1   36   1.743   0.594   0.132
    8SOL    HW2   37   1.725   0.526   0.280
    9SOL     OW   38   0.768   1.144   1.023
    9SOL    HW1   39   0.690   1.161   1.083
    9SOL    HW2   40   0.802   1.231   0.987
   10SOL     OW   41   0.850   0.798   1.823
   10SOL    HW1   42   0.846   0.874   1.888
   10SOL    HW2   43   0.872   0.834   1.732
   11SOL     OW   44   0.685   1.012   0.665
   11SOL    HW1   45   0.754   0.996   0.735
   11SOL    HW2   46   0.612   1.069   0.703
   12SOL     OW   47   0.686   1.161   1.803
   12SOL    HW1   48   0.746   1.240   1.817
   12SOL    HW2   49   0.600   1.192   1.762
   13SOL     OW   50   0.335   1.435   1.061
   13SOL    HW1   51   0.257   1.404   1.008
   13SOL    HW2   52   0.393   1.493   1.004
   14SOL     OW   53   0.438   0.392   1.499
   14SOL    HW1   54   0.520   0.336   1.508
   14SOL    HW2   55   0.357   0.334   1.503
   15SOL     OW   56   1.603   0.447   0.737
   15SOL    HW1   57   1.529   0.493   0.687
   15SOL    HW2   58   1.654   0.515   0.790
   16SOL     OW   59   0.231   1.713   0.483
   16SOL    HW1   60   0.265   1.790   0.537
   16SOL    HW2   61   0.275   1.713   0.393
   17SOL     OW   62   1.127   1.341   1.690
   17SOL    HW1   63   1.174   1.341   1.778
   17SOL    HW2   64   1.079   1.254   1.679
   18SOL     OW   65   0.230   1.434   0.538
   18SOL    HW1   66   0.204   1.530   0.538
   18SOL    HW2   67   0.159   1.380   0.583
   19SOL     OW   68   0.240   1.091   0.886
   19SOL    HW1   69   0.254   1.007   0.938
   19SOL    HW2   70   0.185   1.155   0.941
   20SOL     OW   71   0.620   1.786   1.439
   20SOL    HW1   72   0.528   1.769   1.474
   20SOL    HW2   73   0.648   1.878   1.465
   21SOL     OW   74   0.606   0.964   0.123
   21SOL    HW1   75   0.613   1.048   0.069
   21SOL    HW2   76   0.652   0.977   0.211
   22SOL     OW   77   1.594   0.114   1.480
   22SOL    HW1   78   1.576   0.181   1.408
   22SOL    HW2   79   1.591   0.160   1.569
   23SOL     OW   80   0.122   0.643   0.563
   23SOL    HW1   81   0.077   0.555   0.580
   23SOL    HW2   82   0.121   0.697   0.647
   24SOL     OW   83   1.842   1.767   0.359
   24SOL    HW1   84   1.896   1.738   0.439
   24SOL    HW2   85   1.872   1.857   0.330
   25SOL     OW   86   0.027   1.596   0.117
   25SOL    HW1   87   0.008   1.500   0.138
   25SOL    HW2   88  -0.006   1.654   0.192
   26SOL     OW   89   1.689   0.922   0.612
   26SOL    HW1   90   1.784   0.893   0.620
   26SOL    HW2   91   1.681   0.987   0.537
   27SOL     OW   92   1.641   1.108   0.432
   27SOL    HW1   93   1.727   1.110   0.380
   27SOL    HW2   94   1.655   1.155   0.520
   28SOL     OW   95   0.113   0.737   1.597
   28SOL    HW1   96   0.201   0.724   1.642
   28SOL    HW2   97   0.100   0.834   1.575
   29SOL     OW   98   0.613   1.365   0.726
   29SOL    HW1   99   0.564   1.278   0.735
   29SOL    HW2  100   0.590   1.408   0.639
   30SOL     OW  101   0.809   0.004   0.502
   30SOL    HW1  102   0.849   0.095   0.493
   30SOL    HW2  103   0.709   0.012   0.508
   31SOL     OW  104   0.197   0.976   1.264
   31SOL    HW1  105   0.286   0.931   1.250
   31SOL    HW2  106   0.124   0.911   1.245
   32SOL     OW  107   1.525   0.999   0.190
   32SOL    HW1  108   1.462   0.923   0.203
   32SOL    HW2  109   1.573   1.017   0.276
   33SOL     OW  110   1.187   1.792   1.616
   33SOL    HW1  111   1.211   1.852   1.540
   33SOL    HW2  112   1.194   1.697   1.586
   34SOL     OW  113   0.317   0.251   1.801
   34SOL    HW1  114   0.388   0.322   1.807
   34SOL    HW2  115   0.229   0.290   1.829
   35SOL     OW  116   1.466   1.417   0.953
   35SOL    HW1  117   1.407   1.423   1.033
   35SOL    HW2  118   1.451   1.329   0.907
   36SOL     OW  119   1.667   1.714   0.572
   36SOL    HW1  120   1.626   1.691   0.484
   36SOL    HW2  121   1.649   1.640   0.637
   37SOL     OW  122   0.598   0.729   0.270
   37SOL    HW1  123   0.622   0.798   0.202
   37SOL    HW2  124   0.520   0.762   0.324
   38SOL     OW  125   1.281   0.345   0.944
   38SOL    HW1  126   1.195   0.295   0.931
   38SOL    HW2  127   1.343   0.291   1.000
   39SOL     OW  128   1.576   1.662   0.307
   39SOL    HW1  129   1.665   1.708   0.310
   39SOL    HW2  130   1.555   1.638   0.212
   40SOL     OW  131   0.807   0.605   1.465
   40SOL    HW1  132   0.760   0.602   1.554
   40SOL    HW2  133   0.756   0.550   1.399
   41SOL     OW  134   1.394   0.469   1.674
   41SOL    HW1  135   1.374   0.512   1.762
   41SOL    HW2  136   1.472   0.407   1.683
   42SOL     OW  137   0.973   0.890   1.572
   42SOL    HW1  138   1.019   0.806   1.543
   42SOL    HW2  139   0.917   0.924   1.497
   43SOL     OW  140   0.991   0.410   1.242
   43SOL    HW1  141   0.914   0.444   1.296
   43SOL    HW2  142   0.957   0.359   1.163
   44SOL     OW  143   1.041   0.701   0.429
   44SOL    HW1  144   1.067   0.697   0.525
   44SOL    HW2  145   0.956   0.650   0.415
   45SOL     OW  146   0.076   0.811   0.789
   45SOL    HW1  147   0.175   0.799   0.798
   45SOL    HW2  148   0.052   0.906   0.810
   46SOL     OW  149   0.130   1.821   1.571
   46SOL    HW1  150   0.120   1.806   1.670
   46SOL    HW2  151   0.044   1.857   1.535
   47SOL     OW  152   0.865   0.348   0.195
   47SOL    HW1  153   0.924   0.411   0.146
   47SOL    HW2  154   0.884   0.254   0.166
   48SOL     OW  155   1.719   0.585   1.831
   48SOL    HW1  156   1.693   0.674   1.795
   48SOL    HW2  157   1.717   0.517   1.758
   49SOL     OW  158   1.362   1.144   0.545
   49SOL    HW1  159   1.445   1.115   0.497
   49SOL    HW2  160   1.313   1.211   0.489
   50SOL     OW  161   0.550   0.196   0.885
   50SOL    HW1  162   0.545   0.191   0.985
   50SOL    HW2  163   0.552   0.292   0.856
   51SOL     OW  164   1.008   1.456   0.477
   51SOL    HW1  165   0.962   1.528   0.425
   51SOL    HW2  166   1.004   1.476   0.575
   52SOL     OW  167   0.351   1.801   0.853
   52SOL    HW1  168   0.401   1.715   0.859
   52SOL    HW2  169   0.416   1.878   0.850
   53SOL     OW  170   1.795   1.066   0.873
   53SOL    HW1  171   1.733   1.051   0.797
   53SOL    HW2  172   1.743   1.077   0.958
   54SOL     OW  173   0.321   0.943   0.242
   54SOL    HW1  174   0.403   0.982   0.200
   54SOL    HW2  175   0.294   0.861   0.193
   55SOL     OW  176   1.458   0.735   0.728
   55SOL    HW1  177   1.453   0.670   0.803
   55SOL    HW2  178   1.538   0.794   0.741
   56SOL     OW  179   0.461   1.266   1.727
   56SOL    HW1  180   0.411   1.267   1.641
   56SOL    HW2  181   0.398   1.248   1.803
   57SOL     OW  182   1.111   1.776   0.237
   57SOL    HW1  183   1.051   1.714   0.287
   57SOL    HW2  184   1.142   1.732   0.152
   58SOL     OW  185   0.202   0.285   1.498
   58SOL    HW1  186   0.122   0.345   1.485
   58SOL    HW2  187   0.192   0.236   1.584
   59SOL     OW  188   1.632   1.377   0.081
   59SOL    HW1  189   1.600   1.471   0.071
   59SOL    HW2  190   1.556   1.314   0.069
   60SOL     OW  191   0.464   1.743   0.323
   60SOL    HW1  192   0.497   1.782   0.409
   60SOL    HW2  193   0.540   1.736   0.258
   61SOL     OW  194   1.400   0.107   0.426
   61SOL    HW1  195   1.376   0.070   0.336
   61SOL    HW2  196   1.499   0.123   0.430
   62SOL     OW  197   0.249   1.785   1.241
   62SOL    HW1  198   0.306   1.720   1.291
   62SOL    HW2  199   0.233   1.752   1.148
   63SOL     OW  200   0.940   1.698   0.904
   63SOL    HW1  201   1.020   1.641   0.925
   63SOL    HW2  202   0.891   1.658   0.827
   64SOL     OW  203   0.382   0.700   0.480
   64SOL    HW1  204   0.427   0.610   0.477
   64SOL    HW2  205   0.288   0.689   0.513
   65SOL     OW  206   1.547   0.222   1.729
   65SOL    HW1  207   1.542   0.259   1.821
   65SOL    HW2  208   1.475   0.153   1.717
   66SOL     OW  209   0.614   0.122   0.117
   66SOL    HW1  210   0.712   0.100   0.124
   66SOL    HW2  211   0.583   0.105   0.024
   67SOL     OW  212   0.781   0.264   1.749
   67SOL    HW1  213   0.848   0.203   1.792
   67SOL    HW2  214   0.708   0.283   1.814
   68SOL     OW  215   1.351   0.590   1.433
   68SOL    HW1  216   1.379   0.547   1.518
   68SOL    HW2  217   1.376   0.686   1.434
   69SOL     OW  218   0.803   1.402   0.924
   69SOL    HW1  219   0.893   1.416   0.882
   69SOL    HW2  220   0.732   1.404   0.853
   70SOL     OW  221   0.922   0.503   0.899
   70SOL    HW1  222   0.897   0.494   0.803
   70SOL    HW2  223   0.970   0.421   0.930
   71SOL     OW  224   0.539   0.064   0.512
   71SOL    HW1  225   0.458   0.065   0.570
   71SOL    HW2  226   0.542   0.147   0.457
   72SOL     OW  227   1.434   1.188   0.041
   72SOL    HW1  228   1.466   1.112   0.098
   72SOL    HW2  229   1.342   1.215   0.071
   73SOL     OW  230   0.297   0.035   0.171
   73SOL    HW1  231   0.346   0.119   0.150
   73SOL    HW2  232   0.359  -0.030   0.216
   74SOL     OW  233   0.935   0.236   0.480
   74SOL    HW1  234   0.887   0.277   0.402
   74SOL    HW2  235   1.034   0.234   0.461
   75SOL     OW  236   1.076   0.683   1.464
   75SOL    HW1  237   0.996   0.622   1.467
   75SOL    HW2  238   1.157   0.630   1.440
   76SOL     OW  239   1.227   1.570   0.793
   76SOL    HW1  240   1.248   1.644   0.728
   76SOL    HW2  241   1.295   1.570   0.866
   77SOL     OW  242   0.459   1.152   0.741
   77SOL    HW1  243   0.388   1.125   0.806
   77SOL    HW2  244   0.433   1.124   0.648
   78SOL     OW  245   1.271   1.797   0.591
   78SOL    HW1  246   1.315   1.861   0.527
   78SOL    HW2  247   1.221   1.849   0.661
   79SOL     OW  248   1.032   0.549   0.016
   79SOL    HW1  249   0.991   0.631  -0.023
   79SOL    HW2  250   1.096   0.575   0.089
   80SOL     OW  251   0.078   0.556   1.386
   80SOL    HW1  252   0.170   0.555   1.345
   80SOL    HW2  253   0.072   0.630   1.453
   81SOL     OW  254   0.561   0.222   1.147
   81SOL    HW1  255   0.599   0.138   1.184
   81SOL    HW2  256   0.473   0.241   1.191
   82SOL     OW  257   0.866   0.454   0.642
   82SOL    HW1  258   0.834   0.526   0.580
   82SOL    HW2  259   0.890   0.373   0.589
   83SOL     OW  260   1.017   0.039   0.753
   83SOL    HW1  261   0.945   0.044   0.684
   83SOL    HW2  262   0.993  -0.030   0.822
   84SOL     OW  263   1.429   1.173   0.867
   84SOL    HW1  264   1.374   1.089   0.860
   84SOL    HW2  265   1.455   1.202   0.775
   85SOL     OW  266   1.466   0.590   0.992
   85SOL    HW1  267   1.436   0.495   0.999
   85SOL    HW2  268   1.539   0.606   1.058
   86SOL     OW  269   1.857   0.833   0.377
   86SOL    HW1  270   1.899   0.769   0.441
   86SOL    HW2  271   1.819   0.782   0.299
   87SOL     OW  272   0.488   1.385   0.174
   87SOL    HW1  273   0.401   1.370   0.221
   87SOL    HW2  274   0.471   1.411   0.079
   88SOL     OW  275   1.664   1.280   0.657
   88SOL    HW1  276   1.763   1.288   0.671
   88SOL    HW2  277   1.619   1.364   0.688
   89SOL     OW  278   1.390   0.575   0.078
   89SOL    HW1  279   1.336   0.554   0.159
   89SOL    HW2  280   1.481   0.534   0.087
   90SOL     OW  281   0.527   0.256   0.328
   90SOL    HW1  282   0.554   0.197   0.253
   90SOL    HW2  283   0.527   0.351   0.297
   91SOL     OW  284   1.754   1.223   1.588
   91SOL    HW1  285   1.845   1.184   1.575
   91SOL    HW2  286   1.762   1.319   1.612
   92SOL     OW  287   1.592   1.629   1.625
   92SOL    HW1  288   1.619   1.663   1.535
   92SOL    HW2  289   1.671   1.591   1.671
   93SOL     OW  290   1.638   1.099   1.079
   93SOL    HW1  291   1.643   1.180   1.138
   93SOL    HW2  292   1.552   1.101   1.028
   94SOL     OW  293   0.915   0.089   1.402
   94SOL    HW1  294   0.940   0.069   1.307
   94SOL    HW2  295   0.987   0.145   1.444
   95SOL     OW  296   0.980   1.116   1.719
   95SOL    HW1  297   0.881   1.122   1.729
   95SOL    HW2  298   1.003   1.036   1.663
   96SOL     OW  299   0.705   1.050   0.368
   96SOL    HW1  300   0.691   1.057   0.467
   96SOL    HW2  301   0.789   0.999   0.350
   97SOL     OW  302   0.410   0.813   1.251
   97SOL    HW1  303   0.496   0.825   1.301
   97SOL    HW2  304   0.368   0.726   1.278
   98SOL     OW  305   1.274   0.386   1.262
   98SOL    HW1  306   1.295   0.460   1.326
   98SOL    HW2  307   1.185   0.403   1.219
   99SOL     OW  308   0.064   1.564   1.331
   99SOL    HW1  309   0.018   1.646   1.297
   99SOL    HW2  310   0.162   1.583   1.340
  100SOL     OW  311   0.367   1.100   0.501
  100SOL    HW1  312   0.360   1.183   0.445
  100SOL    HW2  313   0.371   1.020   0.441
  101SOL     OW  314   0.566   0.537   0.865
  101SOL    HW1  315   0.578   0.603   0.791
  101SOL    HW2  316   0.612   0.571   0.948
  102SOL     OW  317   1.252   1.348   0.388
  102SOL    HW1  318   1.302   1.425   0.428
  102SOL    HW2  319   1.157   1.350   0.420
  103SOL     OW  320   1.582   0.639   0.472
  103SOL    HW1  321   1.551   0.700   0.545
  103SOL    HW2  322   1.632   0.691   0.403
  104SOL     OW  323   0.354   1.510   1.329
  104SOL    HW1  324   0.333   1.466   1.242
  104SOL    HW2  325   0.451   1.536   1.332
  105SOL     OW  326   0.402   0.751   1.598
  105SOL    HW1  327   0.470   0.806   1.551
  105SOL    HW2  328   0.442   0.663   1.625
  106SOL     OW  329   1.587   0.779   1.670
  106SOL    HW1  330   1.495   0.817   1.665
  106SOL    HW2  331   1.647   0.826   1.605
  107SOL     OW  332   1.013   0.105   1.770
  107SOL    HW1  333   1.019   0.190   1.718
  107SOL    HW2  334   1.045   0.029   1.713
  108SOL     OW  335   0.504   0.050   1.740
  108SOL    HW1  336   0.462  -0.007   1.670
  108SOL    HW2  337   0.438   0.119   1.772
  109SOL     OW  338   0.573   0.870   1.029
  109SOL    HW1  339   0.617   0.959   1.020
  109SOL    HW2  340   0.510   0.870   1.106
  110SOL     OW  341   1.360   0.862   1.045
  110SOL    HW1  342   1.285   0.862   0.979
  110SOL    HW2  343   1.397   0.770   1.054
  111SOL     OW  344   1.209   0.525   0.275
  111SOL    HW1  345   1.222   0.441   0.329
  111SOL    HW2  346   1.180   0.599   0.335
  112SOL     OW  347   0.307   0.213   1.231
  112SOL    HW1  348   0.284   0.250   1.321
  112SOL    HW2  349   0.277   0.118   1.225
  113SOL     OW  350   0.037   1.310   1.282
  113SOL    HW1  351   0.090   1.261   1.350
  113SOL    HW2  352   0.059   1.408   1.287
  114SOL     OW  353   0.732   0.634   1.064
  114SOL    HW1  354   0.791   0.608   0.988
  114SOL    HW2  355   0.704   0.730   1.053
  115SOL     OW  356   1.728   0.935   1.854
  115SOL    HW1  357   1.682   0.928   1.765
  115SOL    HW2  358   1.666   0.979   1.920
  116SOL     OW  359   0.307   0.063   0.618
  116SOL    HW1  360   0.296   0.157   0.651
  116SOL    HW2  361   0.302   0.000   0.695
  117SOL     OW  362   1.622   0.367   0.374
  117SOL    HW1  363   1.624   0.291   0.438
  117SOL    HW2  364   1.574   0.444   0.414
  118SOL     OW  365   1.023   0.766   0.966
  118SOL    HW1  366   1.038   0.787   1.062
  118SOL    HW2  367   0.993   0.671   0.957
  119SOL     OW  368   0.980   1.573   1.700
  119SOL    HW1  369   0.960   1.617   1.612
  119SOL    HW2  370   1.019   1.482   1.684
  120SOL     OW  371   1.859   1.518   1.605
  120SOL    HW1  372   1.873   1.545   1.510
  120SOL    HW2  373   1.942   1.540   1.658
  121SOL     OW  374   0.350   0.898   1.804
  121SOL    HW1  375   0.426   0.942   1.852
  121SOL    HW2  376   0.385   0.851   1.722
  122SOL     OW  377   1.540   0.274   0.125
  122SOL    HW1  378   1.479   0.199   0.148
  122SOL    HW2  379   1.562   0.326   0.208
  123SOL     OW  380   1.303   0.838   0.042
  123SOL    HW1  381   1.337   0.745   0.057
  123SOL    HW2  382   1.321   0.865  -0.053
  124SOL     OW  383   1.068   1.333   0.849
  124SOL    HW1  384   1.075   1.249   0.794
  124SOL    HW2  385   1.130   1.402   0.813
  125SOL     OW  386   0.319   0.810   0.949
  125SOL    HW1  387   0.412   0.846   0.954
  125SOL    HW2  388   0.313   0.725   1.001
  126SOL     OW  389   0.339   0.509   1.006
  126SOL    HW1  390   0.287   0.426   0.989
  126SOL    HW2  391   0.416   0.514   0.942
  127SOL     OW  392   1.138   0.380   1.678
  127SOL    HW1  393   1.093   0.443   1.742
  127SOL    HW2  394   1.231   0.411   1.661
  128SOL     OW  395   1.160   0.207   1.477
  128SOL    HW1  396   1.160   0.271   1.554
  128SOL    HW2  397   1.188   0.255   1.394
  129SOL     OW  398   0.008   1.326   0.200
  129SOL    HW1  399  -0.085   1.347   0.169
  129SOL    HW2  400   0.018   1.227   0.213
  130SOL     OW  401   0.088   1.801   0.927
  130SOL    HW1  402   0.046   1.715   0.900
  130SOL    HW2  403   0.182   1.804   0.893
  131SOL     OW  404   0.504   1.568   0.910
  131SOL    HW1  405   0.570   1.642   0.919
  131SOL    HW2  406   0.548   1.489   0.868
  132SOL     OW  407   1.002   0.796   1.238
  132SOL    HW1  408   1.043   0.764   1.324
  132SOL    HW2  409   0.906   0.769   1.235
  133SOL     OW  410   0.040   0.544   1.114
  133SOL    HW1  411   0.125   0.511   1.073
  133SOL    HW2  412   0.053   0.559   1.212
  134SOL     OW  413   0.189   0.520   1.722
  134SOL    HW1  414   0.248   0.480   1.652
  134SOL    HW2  415   0.131   0.591   1.681
  135SOL     OW  416   1.369   0.950   1.660
  135SOL    HW1  417   1.408   1.039   1.680
  135SOL    HW2  418   1.379   0.930   1.563
  136SOL     OW  419   0.815   0.572   0.325
  136SOL    HW1  420   0.822   0.483   0.279
  136SOL    HW2  421   0.721   0.606   0.317
  137SOL     OW  422   1.657   0.604   1.206
  137SOL    HW1  423   1.619   0.535   1.268
  137SOL    HW2  424   1.739   0.568   1.162
  138SOL     OW  425   0.252   1.564   1.744
  138SOL    HW1  426   0.222   1.621   1.820
  138SOL    HW2  427   0.245   1.467   1.770
  139SOL     OW  428   0.671   0.464   1.269
  139SOL    HW1  429   0.637   0.375   1.239
  139SOL    HW2  430   0.697   0.518   1.189
  140SOL     OW  431   0.930   1.678   1.465
  140SOL    HW1  432   0.906   1.660   1.370
  140SOL    HW2  433   0.960   1.772   1.475
  141SOL     OW  434   0.473   0.500   0.191
  141SOL    HW1  435   0.534   0.580   0.195
  141SOL    HW2  436   0.378   0.531   0.198
  142SOL     OW  437   0.159   1.137   1.466
  142SOL    HW1  438   0.181   1.076   1.542
  142SOL    HW2  439   0.169   1.088   1.380
  143SOL     OW  440   1.302   0.855   0.309
  143SOL    HW1  441   1.216   0.824   0.351
  143SOL    HW2  442   1.298   0.841   0.210
  144SOL     OW  443   1.759   1.747   1.154
  144SOL    HW1  444   1.820   1.777   1.081
  144SOL    HW2  445   1.721   1.658   1.132
  145SOL     OW  446   1.252   1.731   1.128
  145SOL    HW1  447   1.336   1.736   1.074
  145SOL    HW2  448   1.229   1.635   1.146
  146SOL     OW  449   0.083   1.258   1.022
  146SOL    HW1  450   0.078   1.257   1.122
  146SOL    HW2  451   0.000   1.217   0.984
  147SOL     OW  452   0.688   1.662   1.716
  147SOL    HW1  453   0.632   1.743   1.725
  147SOL    HW2  454   0.740   1.666   1.630
  148SOL     OW  455   0.903   0.086   0.133
  148SOL    HW1  456   0.954   0.087   0.047
  148SOL    HW2  457   0.959   0.044   0.204
  149SOL     OW  458   1.726   0.135   0.523
  149SOL    HW1  459   1.799   0.118   0.456
  149SOL    HW2  460   1.695   0.048   0.561
  150SOL     OW  461   1.388   1.573   0.477
  150SOL    HW1  462   1.455   1.585   0.403
  150SOL    HW2  463   1.348   1.662   0.500
  151SOL     OW  464   0.130   1.794   1.851
  151SOL    HW1  465   0.089   1.720   1.904
  151SOL    HW2  466   0.194   1.845   1.909
  152SOL     OW  467   1.280   0.927   0.672
  152SOL    HW1  468   1.340   0.846   0.674
  152SOL    HW2  469   1.320   0.996   0.612
  153SOL     OW  470   0.830   1.273   1.422
  153SOL    HW1  471   0.825   1.306   1.517
  153SOL    HW2  472   0.744   1.292   1.376
  154SOL     OW  473   0.672   1.616   0.154
  154SOL    HW1  474   0.681   1.626   0.055
  154SOL    HW2  475   0.632   1.527   0.175
  155SOL     OW  476   1.650   1.720   1.394
  155SOL    HW1  477   1.703   1.730   1.310
  155SOL    HW2  478   1.623   1.810   1.428
  156SOL     OW  479   1.841   0.175   0.963
  156SOL    HW1  480   1.880   0.090   0.927
  156SOL    HW2  481   1.743   0.177   0.944
  157SOL     OW  482   0.263   0.326   0.720
  157SOL    HW1  483   0.184   0.377   0.686
  157SOL    HW2  484   0.254   0.311   0.818
  158SOL     OW  485   1.194   1.612   0.031
  158SOL    HW1  486   1.200   1.519   0.068
  158SOL    HW2  487   1.135   1.612  -0.049
  159SOL     OW  488   0.822   1.002   1.372
  159SOL    HW1  489   0.862   1.001   1.280
  159SOL    HW2  490   0.832   1.094   1.412
  160SOL     OW  491   0.916   0.910   0.291
  160SOL    HW1  492   0.979   0.948   0.223
  160SOL    HW2  493   0.956   0.827   0.330
  161SOL     OW  494   1.504   1.607   0.044
  161SOL    HW1  495   1.412   1.644   0.051
  161SOL    HW2  496   1.542   1.627  -0.046
  162SOL     OW  497   0.372   1.288   1.490
  162SOL    HW1  498   0.359   1.381   1.456
  162SOL    HW2  499   0.288   1.236   1.477
  163SOL     OW  500   1.039   1.098   0.696
  163SOL    HW1  501   0.969   1.051   0.750
  163SOL    HW2  502   1.098   1.030   0.653
  164SOL     OW  503   1.014   0.236   0.971
  164SOL    HW1  504   1.006   0.200   0.878
  164SOL    HW2  505   1.012   0.160   1.036
  165SOL     OW  506   0.590   1.487   0.491
  165SOL    HW1  507   0.632   1.429   0.421
  165SOL    HW2  508   0.546   1.566   0.447
  166SOL     OW  509   1.709   0.385   1.381
  166SOL    HW1  510   1.782   0.454   1.385
  166SOL    HW2  511   1.737   0.310   1.322
  167SOL     OW  512   0.255   1.348   0.290
  167SOL    HW1  513   0.159   1.349   0.263
  167SOL    HW2  514   0.267   1.401   0.374
  168SOL     OW  515   0.105   1.013   1.726
  168SOL    HW1  516   0.028   0.980   1.780
  168SOL    HW2  517   0.190   0.983   1.768
  169SOL     OW  518   0.672   0.203   1.489
  169SOL    HW1  519   0.762   0.187   1.449
  169SOL    HW2  520   0.680   0.208   1.588
  170SOL     OW  521   0.075   0.345   0.033
  170SOL    HW1  522  -0.017   0.317   0.004
  170SOL    HW2  523   0.106   0.422  -0.023
  171SOL     OW  524   1.440   0.856   1.398
  171SOL    HW1  525   1.383   0.908   1.335
  171SOL    HW2  526   1.536   0.868   1.374
  172SOL     OW  527   0.072   0.166   0.318
  172SOL    HW1  528   0.055   0.249   0.264
  172SOL    HW2  529   0.162   0.129   0.296
  173SOL     OW  530   1.183   1.335   0.119
  173SOL    HW1  531   1.084   1.324   0.121
  173SOL    HW2  532   1.217   1.350   0.212
  174SOL     OW  533   0.613   0.842   1.431
  174SOL    HW1  534   0.669   0.923   1.414
  174SOL    HW2  535   0.672   0.762   1.434
  175SOL     OW  536   1.493   1.767   0.959
  175SOL    HW1  537   1.526   1.831   0.890
  175SOL    HW2  538   1.559   1.761   1.034
  176SOL     OW  539   0.716   0.565   1.708
  176SOL    HW1  540   0.735   0.630   1.782
  176SOL    HW2  541   0.776   0.485   1.717
  177SOL     OW  542   1.450   1.220   1.633
  177SOL    HW1  543   1.441   1.210   1.732
  177SOL    HW2  544   1.546   1.213   1.607
  178SOL     OW  545   0.390   1.741   1.560
  178SOL    HW1  546   0.299   1.782   1.558
  178SOL    HW2  547   0.383   1.647   1.592
  179SOL     OW  548   1.674   0.883   1.254
  179SOL    HW1  549   1.647   0.794   1.217
  179SOL    HW2  550   1.675   0.951   1.181
  180SOL     OW  551   1.225   0.325   0.449
  180SOL    HW1  552   1.290   0.251   0.438
  180SOL    HW2  553   1.245   0.375   0.533
  181SOL     OW  554   0.594   0.745   0.652
  181SOL    HW1  555   0.644   0.830   0.633
  181SOL    HW2  556   0.506   0.747   0.604
  182SOL     OW  557   1.777   0.342   1.642
  182SOL    HW1  558   1.760   0.373   1.548
  182SOL    HW2  559   1.693   0.305   1.680
  183SOL     OW  560   1.730   0.934   1.517
  183SOL    HW1  561   1.768   1.025   1.532
  183SOL    HW2  562   1.722   0.917   1.418
  184SOL     OW  563   0.859   1.374   0.016
  184SOL    HW1  564   0.813   1.389   0.104
  184SOL    HW2  565   0.903   1.459  -0.014
  185SOL     OW  566   0.661   1.790   0.953
  185SOL    HW1  567   0.615   1.878   0.940
  185SOL    HW2  568   0.760   1.802   0.946
  186SOL     OW  569   0.859   0.956   0.861
  186SOL    HW1  570   0.913   0.887   0.909
  186SOL    HW2  571   0.827   1.025   0.927
  187SOL     OW  572   1.083   0.984   0.087
  187SOL    HW1  573   1.060   1.037   0.005
  187SOL    HW2  574   1.164   0.928   0.068
  188SOL     OW  575   1.861   1.569   0.851
  188SOL    HW1  576   1.790   1.557   0.781
  188SOL    HW2  577   1.862   1.490   0.911
  189SOL     OW  578   0.221   1.314   1.844
  189SOL    HW1  579   0.156   1.241   1.823
  189SOL    HW2  580   0.225   1.328   1.942
  190SOL     OW  581   0.079   1.240   0.653
  190SOL    HW1  582   0.078   1.193   0.741
  190SOL    HW2  583   0.161   1.212   0.602
  191SOL     OW  584   0.672   1.391   1.624
  191SOL    HW1  585   0.594   1.341   1.662
  191SOL    HW2  586   0.669   1.486   1.655
  192SOL     OW  587   1.824   0.192   1.227
  192SOL    HW1  588   1.820   0.102   1.271
  192SOL    HW2  589   1.827   0.181   1.128
  193SOL     OW  590   0.428   0.424   0.520
  193SOL    HW1  591   0.458   0.352   0.458
  193SOL    HW2  592   0.389   0.384   0.603
  194SOL     OW  593   1.705   1.487   1.104
  194SOL    HW1  594   1.612   1.462   1.077
  194SOL    HW2  595   1.731   1.437   1.186
  195SOL     OW  596   0.317   0.547   1.280
  195SOL    HW1  597   0.355   0.488   1.352
  195SOL    HW2  598   0.357   0.521   1.192
  196SOL     OW  599   0.812   1.586   0.687
  196SOL    HW1  600   0.844   1.596   0.593
  196SOL    HW2  601   0.733   1.524   0.689
  197SOL     OW  602   1.424   0.214   1.112
  197SOL    HW1  603   1.476   0.149   1.167
  197SOL    HW2  604   1.375   0.277   1.173
  198SOL     OW  605   1.001   0.034   1.154
  198SOL    HW1  606   0.938  -0.038   1.123
  198SOL    HW2  607   1.094  -0.002   1.154
  199SOL     OW  608   0.770   1.330   0.301
  199SOL    HW1  609   0.724   1.243   0.318
  199SOL    HW2  610   0.861   1.327   0.342
  200SOL     OW  611   0.618   1.567   1.284
  200SOL    HW1  612   0.613   1.649   1.341
  200SOL    HW2  613   0.707   1.564   1.239
  201SOL     OW  614   1.352   0.052   0.168
  201SOL    HW1  615   1.387   0.011   0.084
  201SOL    HW2  616   1.262   0.014   0.188
  202SOL     OW  617   1.300   0.453   0.691
  202SOL    HW1  618   1.241   0.533   0.695
  202SOL    HW2  619   1.315   0.418   0.784
  203SOL     OW  620   1.593   0.221   0.882
  203SOL    HW1  621   1.509   0.220   0.936
  203SOL    HW2  622   1.595   0.304   0.826
  204SOL     OW  623   0.039   1.077   0.300
  204SOL    HW1  624   0.138   1.066   0.291
  204SOL    HW2  625  -0.001   0.991   0.332
  205SOL     OW  626   0.875   1.646   0.337
  205SOL    HW1  627   0.798   1.611   0.283
  205SOL    HW2  628   0.843   1.717   0.399
  206SOL     OW  629   0.230   0.628   1.975
  206SOL    HW1  630   0.137   0.626   2.012
  206SOL    HW2  631   0.231   0.589   1.883
  207SOL     OW  632   1.755   0.607   2.093
  207SOL    HW1  633   1.743   0.594   1.994
  207SOL    HW2  634   1.725   0.526   2.142
  208SOL     OW  635   0.231   1.713   2.345
  208SOL    HW1  636   0.265   1.790   2.399
  208SOL    HW2  637   0.275   1.713   2.255
  209SOL     OW  638   0.230   1.434   2.400
  209SOL    HW1  639   0.204   1.530   2.400
  209SOL    HW2  640   0.159   1.380   2.445
  210SOL     OW  641   0.606   0.964   1.985
  210SOL    HW1  642   0.613   1.048   1.931
  210SOL    HW2  643   0.652   0.977   2.073
  211SOL     OW  644   0.122   0.643   2.425
  211SOL    HW1  645   0.077   0.555   2.442
  211SOL    HW2  646   0.121   0.697   2.509
  212SOL     OW  647   1.842   1.767   2.221
  212SOL    HW1  648   1.896   1.738   2.301
  212SOL    HW2  649   1.872   1.857   2.192
  213SOL     OW  650   0.027   1.596   1.979
  213SOL    HW1  651   0.008   1.500   2.000
  213SOL    HW2  652  -0.006   1.654   2.054
  214SOL     OW  653   1.689   0.922   2.474
  214SOL    HW1  654   1.784   0.893   2.482
  214SOL    HW2  655   1.681   0.987   2.399
  215SOL     OW  656   1.641   1.108   2.294
  215SOL    HW1  657   1.727   1.110   2.242
  215SOL    HW2  658   1.655   1.155   2.382
  216SOL     OW  659   0.613   1.365   2.588
  216SOL    HW1  660   0.564   1.278   2.597
  216SOL    HW2  661   0.590   1.408   2.501
  217SOL     OW  662   0.809   0.004   2.364
  217SOL    HW1  663   0.849   0.095   2.355
  217SOL    HW2  664   0.709   0.012   2.370
  218SOL     OW  665   1.525   0.999   2.052
  218SOL    HW1  666   1.462   0.923   2.065
  218SOL    HW2  667   1.573   1.017   2.138
  219SOL     OW  668   0.598   0.729   2.132
  219SOL    HW1  669   0.622   0.798   2.064
  219SOL    HW2  670   0.520   0.762   2.186
  220SOL     OW  671   1.576   1.662   2.169
  220SOL    HW1  672   1.665   1.708   2.172
  220SOL    HW2  673   1.555   1.638   2.074
  221SOL     OW  674   1.041   0.701   2.291
  221SOL    HW1  675   1.067   0.697   2.387
  221SOL    HW2  676   0.956   0.650   2.277
  222SOL     OW  677   0.076   0.811   2.651
  222SOL    HW1  678   0.175   0.799   2.660
  222SOL    HW2  679   0.052   0.906   2.672
  223SOL     OW  680   0.865   0.348   2.057
  223SOL    HW1  681   0.924   0.411   2.008
  223SOL    HW2  682   0.884   0.254   2.028
  224SOL     OW  683   1.362   1.144   2.407
  224SOL    HW1  684   1.445   1.115   2.359
  224SOL    HW2  685   1.313   1.211   2.351
  225SOL     OW  686   1.008   1.456   2.339
  225SOL    HW1  687   0.962   1.528   2.287
  225SOL    HW2  688   1.004   1.476   2.437
  226SOL     OW  689   0.351   1.801   2.715
  226SOL    HW1  690   0.401   1.715   2.721
  226SOL    HW2  691   0.416   1.878   2.712
  227SOL     OW  692   0.321   0.943   2.104
  227SOL    HW1  693   0.403   0.982   2.062
  227SOL    HW2  694   0.294   0.861   2.055
  228SOL     OW  695   1.111   1.776   2.099
  228SOL    HW1  696   1.051   1.714   2.149
  228SOL    HW2  697   1.142   1.732   2.014
  229SOL     OW  698   1.632   1.377   1.943
  229SOL    HW1  699   1.600   1.471   1.933
  229SOL    HW2  700   1.556   1.314   1.931
  230SOL     OW  701   0.464   1.743   2.185
  230SOL    HW1  702   0.497   1.782   2.271
  230SOL    HW2  703   0.540   1.736   2.120
  231SOL     OW  704   1.400   0.107   2.288
  231SOL    HW1  705   1.376   0.070   2.198
  231SOL    HW2  706   1.499   0.123   2.292
  232SOL     OW  707   0.382   0.700   2.342
  232SOL    HW1  708   0.427   0.610   2.339
  232SOL    HW2  709   0.288   0.689   2.375
  233SOL     OW  710   0.614   0.122   1.979
  233SOL    HW1  711   0.712   0.100   1.986
  233SOL    HW2  712   0.583   0.105   1.886
  234SOL     OW  713   0.539   0.064   2.374
  234SOL    HW1  714   0.458   0.065   2.432
  234SOL    HW2  715   0.542   0.147   2.319
  235SOL     OW  716   1.434   1.188   1.903
  235SOL    HW1  717   1.466   1.112   1.960
  235SOL    HW2  718   1.342   1.215   1.933
  236SOL     OW  719   0.297   0.035   2.033
  236SOL    HW1  720   0.346   0.119   2.012
  236SOL    HW2  721   0.359  -0.030   2.078
  237SOL     OW  722   0.935   0.236   2.342
  237SOL    HW1  723   0.887   0.277   2.264
  237SOL    HW2  724   1.034   0.234   2.323
  238SOL     OW  725   0.459   1.152   2.603
  238SOL    HW1  726   0.388   1.125   2.668
  238SOL    HW2  727   0.433   1.124   2.510
  239SOL     OW  728   1.271   1.797   2.453
  239SOL    HW1  729   1.315   1.861   2.389
  239SOL    HW2  730   1.221   1.849   2.523
  240SOL     OW  731   1.032   0.549   1.878
  240SOL    HW1  732   0.991   0.631   1.839
  240SOL    HW2  733   1.096   0.575   1.951
  241SOL     OW  734   0.866   0.454   2.504
  241SOL    HW1  735   0.834   0.526   2.442
  241SOL    HW2  736   0.890   0.373   2.451
  242SOL     OW  737   1.857   0.833   2.239
  242SOL    HW1  738   1.899   0.769   2.303
  242SOL    HW2  739   1.819   0.782   2.161
  243SOL     OW  740   0.488   1.385   2.036
  243SOL    HW1  741   0.401   1.370   2.083
  243SOL    HW2  742   0.471   1.411   1.941
  244SOL     OW  743   1.390   0.575   1.940
  244SOL    HW1  744   1.336   0.554   2.021
  244SOL    HW2  745   1.481   0.534   1.949
  245SOL     OW  746   0.527   0.256   2.190
  245SOL    HW1  747   0.554   0.197   2.115
  245SOL    HW2  748   0.527   0.351   2.159
  246SOL     OW  749   0.705   1.050   2.230
  246SOL    HW1  750   0.691   1.057   2.329
  246SOL    HW2  751   0.789   0.999   2.212
  247SOL     OW  752   0.367   1.100   2.363
  247SOL    HW1  753   0.360   1.183   2.307
  247SOL    HW2  754   0.371   1.020   2.303
  248SOL     OW  755   1.252   1.348   2.250
  248SOL    HW1  756   1.302   1.425   2.290
  248SOL    HW2  757   1.157   1.350   2.282
  249SOL     OW  758   1.582   0.639   2.334
  249SOL    HW1  759   1.551   0.700   2.407
  249SOL    HW2  760   1.632   0.691   2.265
  250SOL     OW  761   1.209   0.525   2.137
  250SOL    HW1  762   1.222   0.441   2.191
  250SOL    HW2  763   1.180   0.599   2.197
  251SOL     OW  764   0.307   0.063   2.480
  251SOL    HW1  765   0.296   0.157   2.513
  251SOL    HW2  766   0.302   0.000   2.557
  252SOL     OW  767   1.622   0.367   2.236
  252SOL    HW1  768   1.624   0.291   2.300
  252SOL    HW2  769   1.574   0.444   2.276
  253SOL     OW  770   1.540   0.274   1.987
  253SOL    HW1  771   1.479   0.199   2.010
  253SOL    HW2  772   1.562   0.326   2.070
  254SOL     OW  773   1.303   0.838   1.904
  254SOL    HW1  774   1.337   0.745   1.919
  254SOL    HW2  775   1.321   0.865   1.809
  255SOL     OW  776   0.008   1.326   2.062
  255SOL    HW1  777  -0.085   1.347   2.031
  255SOL    HW2  778   0.018   1.227   2.075
  256SOL     OW  779   0.815   0.572   2.187
  256SOL    HW1  780   0.822   0.483   2.141
  256SOL    HW2  781   0.721   0.606   2.179
  257SOL     OW  782   0.473   0.500   2.053
  257SOL    HW1  783   0.534   0.580   2.057
  257SOL    HW2  784   0.378   0.531   2.060
  258SOL     OW  785   1.302   0.855   2.171
  258SOL    HW1  786   1.216   0.824   2.213
  258SOL    HW2  787   1.298   0.841   2.072
  259SOL     OW  788   1.726   0.135   2.385
  259SOL    HW1  789   1.799   0.118   2.318
  259SOL    HW2  790   1.695   0.048   2.423
  260SOL     OW  791   1.388   1.573   2.339
  260SOL    HW1  792   1.455   1.585   2.265
  260SOL    HW2  793   1.348   1.662   2.362
  261SOL     OW  794   0.672   1.616   2.016
  261SOL    HW1  795   0.681   1.626   1.917
  261SOL    HW2  796   0.632   1.527   2.037
  262SOL     OW  797   1.841   0.175   2.825
  262SOL    HW1  798   1.880   0.090   2.789
  262SOL    HW2  799   1.743   0.177   2.806
  263SOL     OW  800   1.194   1.612   1.893
  263SOL    HW1  801   1.200   1.519   1.930
  263SOL    HW2  802   1.135   1.612   1.813
  264SOL     OW  803   0.916   0.910   2.153
  264SOL    HW1  804   0.979   0.948   2.085
  264SOL    HW2  805   0.956   0.827   2.192
  265SOL     OW  806   1.504   1.607   1.906
  265SOL    HW1  807   1.412   1.644   1.913
  265SOL    HW2  808   1.542   1.627   1.816
  266SOL     OW  809   0.590   1.487   2.353
  266SOL    HW1  810   0.632   1.429   2.283
  266SOL    HW2  811   0.546   1.566   2.309
  267SOL     OW  812   0.255   1.348   2.152
  267SOL    HW1  813   0.159   1.349   2.125
  267SOL    HW2  814   0.267   1.401   2.236
  268SOL     OW  815   0.075   0.345   1.895
  268SOL    HW1  816  -0.017   0.317   1.866
  268SOL    HW2  817   0.106   0.422   1.839
  269SOL     OW  818   0.072   0.166   2.180
  269SOL    HW1  819   0.055   0.249   2.126
  269SOL    HW2  820   0.162   0.129   2.158
  270SOL     OW  821   1.183   1.335   1.981
  270SOL    HW1  822   1.084   1.324   1.983
  270SOL    HW2  823   1.217   1.350   2.074
  271SOL     OW  824   1.225   0.325   2.311
  271SOL    HW1  825   1.290   0.251   2.300
  271SOL    HW2  826   1.245   0.375   2.395
  272SOL     OW  827   0.594   0.745   2.514
  272SOL    HW1  828   0.644   0.830   2.495
  272SOL    HW2  829   0.506   0.747   2.466
  273SOL     OW  830   0.859   1.374   1.878
  273SOL    HW1  831   0.813   1.389   1.966
  273SOL    HW2  832   0.903   1.459   1.848
  274SOL     OW  833   1.083   0.984   1.949
  274SOL    HW1  834   1.060   1.037   1.867
  274SOL    HW2  835   1.164   0.928   1.930
  275SOL     OW  836   0.079   1.240   2.515
  275SOL    HW1  837   0.078   1.193   2.603
  275SOL    HW2  838   0.161   1.212   2.464
  276SOL     OW  839   0.428   0.424   2.382
  276SOL    HW1  840   0.458   0.352   2.320
  276SOL    HW2  841   0.389   0.384   2.465
  277SOL     OW  842   0.770   1.330   2.163
  277SOL    HW1  843   0.724   1.243   2.180
  277SOL    HW2  844   0.861   1.327   2.204
  278SOL     OW  845   1.352   0.052   2.030
  278SOL    HW1  846   1.387   0.011   1.946
  278SOL    HW2  847   1.262   0.014   2.050
  279SOL     OW  848   0.039   1.077   2.162
  279SOL    HW1  849   0.138   1.066   2.153
  279SOL    HW2  850  -0.001   0.991   2.194
  280SOL     OW  851   0.875   1.646   2.199
  280SOL    HW1  852   0.798   1.611   2.145
  280SOL    HW2  853   0.843   1.717   2.261
  281SOL     OW  854   0.225   2.137   0.996
  281SOL    HW1  855   0.260   2.120   1.088
  281SOL    HW2  856   0.137   2.092   0.984
  282SOL     OW  857   0.019   2.230   0.647
  282SOL    HW1  858  -0.063   2.273   0.686
  282SOL    HW2  859  -0.009   2.157   0.584
  283SOL     OW  860   1.755   2.469   0.231
  283SOL    HW1  861   1.743   2.456   0.132
  283SOL    HW2  862   1.725   2.388   0.280
  284SOL     OW  863   0.438   2.254   1.499
  284SOL    HW1  864   0.520   2.198   1.508
  284SOL    HW2  865   0.357   2.196   1.503
  285SOL     OW  866   1.603   2.309   0.737
  285SOL    HW1  867   1.529   2.355   0.687
  285SOL    HW2  868   1.654   2.377   0.790
  286SOL     OW  869   1.594   1.976   1.480
  286SOL    HW1  870   1.576   2.043   1.408
  286SOL    HW2  871   1.591   2.022   1.569
  287SOL     OW  872   0.122   2.505   0.563
  287SOL    HW1  873   0.077   2.417   0.580
  287SOL    HW2  874   0.121   2.559   0.647
  288SOL     OW  875   0.809   1.866   0.502
  288SOL    HW1  876   0.849   1.957   0.493
  288SOL    HW2  877   0.709   1.874   0.508
  289SOL     OW  878   0.317   2.113   1.801
  289SOL    HW1  879   0.388   2.184   1.807
  289SOL    HW2  880   0.229   2.152   1.829
  290SOL     OW  881   1.281   2.207   0.944
  290SOL    HW1  882   1.195   2.157   0.931
  290SOL    HW2  883   1.343   2.153   1.000
  291SOL     OW  884   0.807   2.467   1.465
  291SOL    HW1  885   0.760   2.464   1.554
  291SOL    HW2  886   0.756   2.412   1.399
  292SOL     OW  887   1.394   2.331   1.674
  292SOL    HW1  888   1.374   2.374   1.762
  292SOL    HW2  889   1.472   2.269   1.683
  293SOL     OW  890   0.991   2.272   1.242
  293SOL    HW1  891   0.914   2.306   1.296
  293SOL    HW2  892   0.957   2.221   1.163
  294SOL     OW  893   1.041   2.563   0.429
  294SOL    HW1  894   1.067   2.559   0.525
  294SOL    HW2  895   0.956   2.512   0.415
  295SOL     OW  896   0.076   2.673   0.789
  295SOL    HW1  897   0.175   2.661   0.798
  295SOL    HW2  898   0.052   2.768   0.810
  296SOL     OW  899   0.865   2.210   0.195
  296SOL    HW1  900   0.924   2.273   0.146
  296SOL    HW2  901   0.884   2.116   0.166
  297SOL     OW  902   1.719   2.447   1.831
  297SOL    HW1  903   1.693   2.536   1.795
  297SOL    HW2  904   1.717   2.379   1.758
  298SOL     OW  905   0.550   2.058   0.885
  298SOL    HW1  906   0.545   2.053   0.985
  298SOL    HW2  907   0.552   2.154   0.856
  299SOL     OW  908   1.458   2.597   0.728
  299SOL    HW1  909   1.453   2.532   0.803
  299SOL    HW2  910   1.538   2.656   0.741
  300SOL     OW  911   0.202   2.147   1.498
  300SOL    HW1  912   0.122   2.207   1.485
  300SOL    HW2  913   0.192   2.098   1.584
  301SOL     OW  914   1.400   1.969   0.426
  301SOL    HW1  915   1.376   1.932   0.336
  301SOL    HW2  916   1.499   1.985   0.430
  302SOL     OW  917   1.547   2.084   1.729
  302SOL    HW1  918   1.542   2.121   1.821
  302SOL    HW2  919   1.475   2.015   1.717
  303SOL     OW  920   0.614   1.984   0.117
  303SOL    HW1  921   0.712   1.962   0.124
  303SOL    HW2  922   0.583   1.967   0.024
  304SOL     OW  923   0.781   2.126   1.749
  304SOL    HW1  924   0.848   2.065   1.792
  304SOL    HW2  925   0.708   2.145   1.814
  305SOL     OW  926   1.351   2.452   1.433
  305SOL    HW1  927   1.379   2.409   1.518
  305SOL    HW2  928   1.376   2.548   1.434
  306SOL     OW  929   0.922   2.365   0.899
  306SOL    HW1  930   0.897   2.356   0.803
  306SOL    HW2  931   0.970   2.283   0.930
  307SOL     OW  932   0.539   1.926   0.512
  307SOL    HW1  933   0.458   1.927   0.570
  307SOL    HW2  934   0.542   2.009   0.457
  308SOL     OW  935   0.935   2.098   0.480
  308SOL    HW1  936   0.887   2.139   0.402
  308SOL    HW2  937   1.034   2.096   0.461
  309SOL     OW  938   1.076   2.545   1.464
  309SOL    HW1  939   0.996   2.484   1.467
  309SOL    HW2  940   1.157   2.492   1.440
  310SOL     OW  941   1.032   2.411   0.016
  310SOL    HW1  942   0.991   2.493  -0.023
  310SOL    HW2  943   1.096   2.437   0.089
  311SOL     OW  944   0.078   2.418   1.386
  311SOL    HW1  945   0.170   2.417   1.345
  311SOL    HW2  946   0.072   2.492   1.453
  312SOL     OW  947   0.561   2.084   1.147
  312SOL    HW1  948   0.599   2.000   1.184
  312SOL    HW2  949   0.473   2.103   1.191
  313SOL     OW  950   0.866   2.316   0.642
  313SOL    HW1  951   0.834   2.388   0.580
  313SOL    HW2  952   0.890   2.235   0.589
  314SOL     OW  953   1.017   1.901   0.753
  314SOL    HW1  954   0.945   1.906   0.684
  314SOL    HW2  955   0.993   1.832   0.822
  315SOL     OW  956   1.466   2.452   0.992
  315SOL    HW1  957   1.436   2.357   0.999
  315SOL    HW2  958   1.539   2.468   1.058
  316SOL     OW  959   0.527   2.118   0.328
  316SOL    HW1  960   0.554   2.059   0.253
  316SOL    HW2  961   0.527   2.213   0.297
  317SOL     OW  962   0.915   1.951   1.402
  317SOL    HW1  963   0.940   1.931   1.307
  317SOL    HW2  964   0.987   2.007   1.444
  318SOL     OW  965   1.274   2.248   1.262
  318SOL    HW1  966   1.295   2.322   1.326
  318SOL    HW2  967   1.185   2.265   1.219
  319SOL     OW  968   0.566   2.399   0.865
  319SOL    HW1  969   0.578   2.465   0.791
  319SOL    HW2  970   0.612   2.433   0.948
  320SOL     OW  971   1.582   2.501   0.472
  320SOL    HW1  972   1.551   2.562   0.545
  320SOL    HW2  973   1.632   2.553   0.403
  321SOL     OW  974   1.013   1.967   1.770
  321SOL    HW1  975   1.019   2.052   1.718
  321SOL    HW2  976   1.045   1.891   1.713
  322SOL     OW  977   0.504   1.912   1.740
  322SOL    HW1  978   0.462   1.855   1.670
  322SOL    HW2  979   0.438   1.981   1.772
  323SOL     OW  980   1.209   2.387   0.275
  323SOL    HW1  981   1.222   2.303   0.329
  323SOL    HW2  982   1.180   2.461   0.335
  324SOL     OW  983   0.307   2.075   1.231
  324SOL    HW1  984   0.284   2.112   1.321
  324SOL    HW2  985   0.277   1.980   1.225
  325SOL     OW  986   0.732   2.496   1.064
  325SOL    HW1  987   0.791   2.470   0.988
  325SOL    HW2  988   0.704   2.592   1.053
  326SOL     OW  989   0.307   1.925   0.618
  326SOL    HW1  990   0.296   2.019   0.651
  326SOL    HW2  991   0.302   1.862   0.695
  327SOL     OW  992   1.622   2.229   0.374
  327SOL    HW1  993   1.624   2.153   0.438
  327SOL    HW2  994   1.574   2.306   0.414
  328SOL     OW  995   1.540   2.136   0.125
  328SOL    HW1  996   1.479   2.061   0.148
  328SOL    HW2  997   1.562   2.188   0.208
  329SOL     OW  998   0.319   2.672   0.949
  329SOL    HW1  999   0.412   2.708   0.954
  329SOL    HW2 1000   0.313   2.587   1.001
  330SOL     OW 1001   0.339   2.371   1.006
  330SOL    HW1 1002   0.287   2.288   0.989
  330SOL    HW2 1003   0.416   2.376   0.942
  331SOL     OW 1004   1.138   2.242   1.678
  331SOL    HW1 1005   1.093   2.305   1.742
  331SOL    HW2 1006   1.231   2.273   1.661
  332SOL     OW 1007   1.160   2.069   1.477
  332SOL    HW1 1008   1.160   2.133   1.554
  332SOL    HW2 1009   1.188   2.117   1.394
  333SOL     OW 1010   0.040   2.406   1.114
  333SOL    HW1 1011   0.125   2.373   1.073
  333SOL    HW2 1012   0.053   2.421   1.212
  334SOL     OW 1013   0.189   2.382   1.722
  334SOL    HW1 1014   0.248   2.342   1.652
  334SOL    HW2 1015   0.131   2.453   1.681
  335SOL     OW 1016   0.815   2.434   0.325
  335SOL    HW1 1017   0.822   2.345   0.279
  335SOL    HW2 1018   0.721   2.468   0.317
  336SOL     OW 1019   1.657   2.466   1.206
  336SOL    HW1 1020   1.619   2.397   1.268
  336SOL    HW2 1021   1.739   2.430   1.162
  337SOL     OW 1022   0.671   2.326   1.269
  337SOL    HW1 1023   0.637   2.237   1.239
  337SOL    HW2 1024   0.697   2.380   1.189
  338SOL     OW 1025   0.903   1.948   0.133
  338SOL    HW1 1026   0.954   1.949   0.047
  338SOL    HW2 1027   0.959   1.906   0.204
  339SOL     OW 1028   1.726   1.997   0.523
  339SOL    HW1 1029   1.799   1.980   0.456
  339SOL    HW2 1030   1.695   1.910   0.561
  340SOL     OW 1031   1.841   2.037   0.963
  340SOL    HW1 1032   1.880   1.952   0.927
  340SOL    HW2 1033   1.743   2.039   0.944
  341SOL     OW 1034   0.263   2.188   0.720
  341SOL    HW1 1035   0.184   2.239   0.686
  341SOL    HW2 1036   0.254   2.173   0.818
  342SOL     OW 1037   1.014   2.098   0.971
  342SOL    HW1 1038   1.006   2.062   0.878
  342SOL    HW2 1039   1.012   2.022   1.036
  343SOL     OW 1040   1.709   2.247   1.381
  343SOL    HW1 1041   1.782   2.316   1.385
  343SOL    HW2 1042   1.737   2.172   1.322
  344SOL     OW 1043   0.672   2.065   1.489
  344SOL    HW1 1044   0.762   2.049   1.449
  344SOL    HW2 1045   0.680   2.070   1.588
  345SOL     OW 1046   0.075   2.207   0.033
  345SOL    HW1 1047  -0.017   2.179   0.004
  345SOL    HW2 1048   0.106   2.284  -0.023
  346SOL     OW 1049   0.072   2.028   0.318
  346SOL    HW1 1050   0.055   2.111   0.264
  346SOL    HW2 1051   0.162   1.991   0.296
  347SOL     OW 1052   0.716   2.427   1.708
  347SOL    HW1 1053   0.735   2.492   1.782
  347SOL    HW2 1054   0.776   2.347   1.717
  348SOL     OW 1055   1.225   2.187   0.449
  348SOL    HW1 1056   1.290   2.113   0.438
  348SOL    HW2 1057   1.245   2.237   0.533
  349SOL     OW 1058   1.777   2.204   1.642
  349SOL    HW1 1059   1.760   2.235   1.548
  349SOL    HW2 1060   1.693   2.167   1.680
  350SOL     OW 1061   1.083   2.846   0.087
  350SOL    HW1 1062   1.060   2.899   0.005
  350SOL    HW2 1063   1.164   2.790   0.068
  351SOL     OW 1064   1.824   2.054   1.227
  351SOL    HW1 1065   1.820   1.964   1.271
  351SOL    HW2 1066   1.827   2.043   1.128
  352SOL     OW 1067   0.428   2.286   0.520
  352SOL    HW1 1068   0.458   2.214   0.458
  352SOL    HW2 1069   0.389   2.246   0.603
  353SOL     OW 1070   0.317   2.409   1.280
  353SOL    HW1 1071   0.355   2.350   1.352
  353SOL    HW2 1072   0.357   2.383   1.192
  354SOL     OW 1073   1.424   2.076   1.112
  354SOL    HW1 1074   1.476   2.011   1.167
  354SOL    HW2 1075   1.375   2.139   1.173
  355SOL     OW 1076   1.001   1.896   1.154
  355SOL    HW1 1077   0.938   1.824   1.123
  355SOL    HW2 1078   1.094   1.860   1.154
  356SOL     OW 1079   1.352   1.914   0.168
  356SOL    HW1 1080   1.387   1.873   0.084
  356SOL    HW2 1081   1.262   1.876   0.188
  357SOL     OW 1082   1.300   2.315   0.691
  357SOL    HW1 1083   1.241   2.395   0.695
  357SOL    HW2 1084   1.315   2.280   0.784
  358SOL     OW 1085   1.593   2.083   0.882
  358SOL    HW1 1086   1.509   2.082   0.936
  358SOL    HW2 1087   1.595   2.166   0.826
  359SOL     OW 1088   1.755   2.469   2.093
  359SOL    HW1 1089   1.743   2.456   1.994
  359SOL    HW2 1090   1.725   2.388   2.142
  360SOL     OW 1091   0.122   2.505   2.425
  360SOL    HW1 1092   0.077   2.417   2.442
  360SOL    HW2 1093   0.121   2.559   2.509
  361SOL     OW 1094   0.809   1.866   2.364
  361SOL    HW1 1095   0.849   1.957   2.355
  361SOL    HW2 1096   0.709   1.874   2.370
  362SOL     OW 1097   1.041   2.563   2.291
  362SOL    HW1 1098   1.067   2.559   2.387
  362SOL    HW2 1099   0.956   2.512   2.277
  363SOL     OW 1100   0.076   2.673   2.651
  363SOL    HW1 1101   0.175   2.661   2.660
  363SOL    HW2 1102   0.052   2.768   2.672
  364SOL     OW 1103   0.865   2.210   2.057
  364SOL    HW1 1104   0.924   2.273   2.008
  364SOL    HW2 1105   0.884   2.116   2.028
  365SOL     OW 1106   1.400   1.969   2.288
  365SOL    HW1 1107   1.376   1.932   2.198
  365SOL    HW2 1108   1.499   1.985   2.292
  366SOL     OW 1109   0.614   1.984   1.979
  366SOL    HW1 1110   0.712   1.962   1.986
  366SOL    HW2 1111   0.583   1.967   1.886
  367SOL     OW 1112   0.539   1.926   2.374
  367SOL    HW1 1113   0.458   1.927   2.432
  367SOL    HW2 1114   0.542   2.009   2.319
  368SOL     OW 1115   0.297   1.897   2.033
  368SOL    HW1 1116   0.346   1.981   2.012
  368SOL    HW2 1117   0.359   1.832   2.078
  369SOL     OW 1118   0.935   2.098   2.342
  369SOL    HW1 1119   0.887   2.139   2.264
  369SOL    HW2 1120   1.034   2.096   2.323
  370SOL     OW 1121   1.032   2.411   1.878
  370SOL    HW1 1122   0.991   2.493   1.839
  370SOL    HW2 1123   1.096   2.437   1.951
  371SOL     OW 1124   0.866   2.316   2.504
  371SOL    HW1 1125   0.834   2.388   2.442
  371SOL    HW2 1126   0.890   2.235   2.451
  372SOL     OW 1127   0.527   2.118   2.190
  372SOL    HW1 1128   0.554   2.059   2.115
  372SOL    HW2 1129   0.527   2.213   2.159
  373SOL     OW 1130   1.582   2.501   2.334
  373SOL    HW1 1131   1.551   2.562   2.407
  373SOL    HW2 1132   1.632   2.553   2.265
  374SOL     OW 1133   1.209   2.387   2.137
  374SOL    HW1 1134   1.222   2.303   2.191
  374SOL    HW2 1135   1.180   2.461   2.197
  375SOL     OW 1136   0.307   1.925   2.480
  375SOL    HW1 1137   0.296   2.019   2.513
  375SOL    HW2 1138   0.302   1.862   2.557
  376SOL     OW 1139   1.622   2.229   2.236
  376SOL    HW1 1140   1.624   2.153   2.300
  376SOL    HW2 1141   1.574   2.306   2.276
  377SOL     OW 1142   1.540   2.136   1.987
  377SOL    HW1 1143   1.479   2.061   2.010
  377SOL    HW2 1144   1.562   2.188   2.070
  378SOL     OW 1145   0.339   2.371   2.868
  378SOL    HW1 1146   0.287   2.288   2.851
  378SOL    HW2 1147   0.416   2.376   2.804
  379SOL     OW 1148   0.815   2.434   2.187
  379SOL    HW1 1149   0.822   2.345   2.141
  379SOL    HW2 1150   0.721   2.468   2.179
  380SOL     OW 1151   1.726   1.997   2.385
  380SOL    HW1 1152   1.799   1.980   2.318
  380SOL    HW2 1153   1.695   1.910   2.423
  381SOL     OW 1154   0.075   2.207   1.895
  381SOL    HW1 1155  -0.017   2.179   1.866
  381SOL    HW2 1156   0.106   2.284   1.839
  382SOL     OW 1157   0.072   2.028   2.180
  382SOL    HW1 1158   0.055   2.111   2.126
  382SOL    HW2 1159   0.162   1.991   2.158
  383SOL     OW 1160   1.225   2.187   2.311
  383SOL    HW1 1161   1.290   2.113   2.300
  383SOL    HW2 1162   1.245   2.237   2.395
  384SOL     OW 1163   1.083   2.846   1.949
  384SOL    HW1 1164   1.060   2.899   1.867
  384SOL    HW2 1165   1.164   2.790   1.930
  385SOL     OW 1166   0.428   2.286   2.382
  385SOL    HW1 1167   0.458   2.214   2.320
  385SOL    HW2 1168   0.389   2.246   2.465
  386SOL     OW 1169   1.352   1.914   2.030
  386SOL    HW1 1170   1.387   1.873   1.946
  386SOL    HW2 1171   1.262   1.876   2.050
  387SOL     OW 1172   1.300   2.315   2.553
  387SOL    HW1 1173   1.241   2.395   2.557
  387SOL    HW2 1174   1.315   2.280   2.646
  388SOL     OW 1175   2.092   0.628   0.113
  388SOL    HW1 1176   1.999   0.626   0.150
  388SOL    HW2 1177   2.093   0.589   0.021
  389SOL     OW 1178   2.087   0.275   0.996
  389SOL    HW1 1179   2.122   0.258   1.088
  389SOL    HW2 1180   1.999   0.230   0.984
  390SOL     OW 1181   1.881   0.368   0.647
  390SOL    HW1 1182   1.799   0.411   0.686
  390SOL    HW2 1183   1.853   0.295   0.584
  391SOL     OW 1184   2.431   1.275   1.165
  391SOL    HW1 1185   2.338   1.268   1.128
  391SOL    HW2 1186   2.442   1.364   1.209
  392SOL     OW 1187   2.712   0.798   1.823
  392SOL    HW1 1188   2.708   0.874   1.888
  392SOL    HW2 1189   2.734   0.834   1.732
  393SOL     OW 1190   2.197   1.435   1.061
  393SOL    HW1 1191   2.119   1.404   1.008
  393SOL    HW2 1192   2.255   1.493   1.004
  394SOL     OW 1193   2.300   0.392   1.499
  394SOL    HW1 1194   2.382   0.336   1.508
  394SOL    HW2 1195   2.219   0.334   1.503
  395SOL     OW 1196   2.093   1.713   0.483
  395SOL    HW1 1197   2.127   1.790   0.537
  395SOL    HW2 1198   2.137   1.713   0.393
  396SOL     OW 1199   2.092   1.434   0.538
  396SOL    HW1 1200   2.066   1.530   0.538
  396SOL    HW2 1201   2.021   1.380   0.583
  397SOL     OW 1202   2.102   1.091   0.886
  397SOL    HW1 1203   2.116   1.007   0.938
  397SOL    HW2 1204   2.047   1.155   0.941
  398SOL     OW 1205   1.984   0.643   0.563
  398SOL    HW1 1206   1.939   0.555   0.580
  398SOL    HW2 1207   1.983   0.697   0.647
  399SOL     OW 1208   1.889   1.596   0.117
  399SOL    HW1 1209   1.870   1.500   0.138
  399SOL    HW2 1210   1.856   1.654   0.192
  400SOL     OW 1211   1.975   0.737   1.597
  400SOL    HW1 1212   2.063   0.724   1.642
  400SOL    HW2 1213   1.962   0.834   1.575
  401SOL     OW 1214   2.475   1.365   0.726
  401SOL    HW1 1215   2.426   1.278   0.735
  401SOL    HW2 1216   2.452   1.408   0.639
  402SOL     OW 1217   2.059   0.976   1.264
  402SOL    HW1 1218   2.148   0.931   1.250
  402SOL    HW2 1219   1.986   0.911   1.245
  403SOL     OW 1220   2.179   0.251   1.801
  403SOL    HW1 1221   2.250   0.322   1.807
  403SOL    HW2 1222   2.091   0.290   1.829
  404SOL     OW 1223   2.460   0.729   0.270
  404SOL    HW1 1224   2.484   0.798   0.202
  404SOL    HW2 1225   2.382   0.762   0.324
  405SOL     OW 1226   1.938   0.811   0.789
  405SOL    HW1 1227   2.037   0.799   0.798
  405SOL    HW2 1228   1.914   0.906   0.810
  406SOL     OW 1229   1.992   1.821   1.571
  406SOL    HW1 1230   1.982   1.806   1.670
  406SOL    HW2 1231   1.906   1.857   1.535
  407SOL     OW 1232   2.727   0.348   0.195
  407SOL    HW1 1233   2.786   0.411   0.146
  407SOL    HW2 1234   2.746   0.254   0.166
  408SOL     OW 1235   2.412   0.196   0.885
  408SOL    HW1 1236   2.407   0.191   0.985
  408SOL    HW2 1237   2.414   0.292   0.856
  409SOL     OW 1238   2.213   1.801   0.853
  409SOL    HW1 1239   2.263   1.715   0.859
  409SOL    HW2 1240   2.278   1.878   0.850
  410SOL     OW 1241   2.183   0.943   0.242
  410SOL    HW1 1242   2.265   0.982   0.200
  410SOL    HW2 1243   2.156   0.861   0.193
  411SOL     OW 1244   2.323   1.266   1.727
  411SOL    HW1 1245   2.273   1.267   1.641
  411SOL    HW2 1246   2.260   1.248   1.803
  412SOL     OW 1247   2.064   0.285   1.498
  412SOL    HW1 1248   1.984   0.345   1.485
  412SOL    HW2 1249   2.054   0.236   1.584
  413SOL     OW 1250   2.326   1.743   0.323
  413SOL    HW1 1251   2.359   1.782   0.409
  413SOL    HW2 1252   2.402   1.736   0.258
  414SOL     OW 1253   2.111   1.785   1.241
  414SOL    HW1 1254   2.168   1.720   1.291
  414SOL    HW2 1255   2.095   1.752   1.148
  415SOL     OW 1256   2.244   0.700   0.480
  415SOL    HW1 1257   2.289   0.610   0.477
  415SOL    HW2 1258   2.150   0.689   0.513
  416SOL     OW 1259   2.665   1.402   0.924
  416SOL    HW1 1260   2.755   1.416   0.882
  416SOL    HW2 1261   2.594   1.404   0.853
  417SOL     OW 1262   2.401   0.064   0.512
  417SOL    HW1 1263   2.320   0.065   0.570
  417SOL    HW2 1264   2.404   0.147   0.457
  418SOL     OW 1265   2.159   0.035   0.171
  418SOL    HW1 1266   2.208   0.119   0.150
  418SOL    HW2 1267   2.221  -0.030   0.216
  419SOL     OW 1268   2.797   0.236   0.480
  419SOL    HW1 1269   2.749   0.277   0.402
  419SOL    HW2 1270   2.896   0.234   0.461
  420SOL     OW 1271   2.321   1.152   0.741
  420SOL    HW1 1272   2.250   1.125   0.806
  420SOL    HW2 1273   2.295   1.124   0.648
  421SOL     OW 1274   1.940   0.556   1.386
  421SOL    HW1 1275   2.032   0.555   1.345
  421SOL    HW2 1276   1.934   0.630   1.453
  422SOL     OW 1277   2.423   0.222   1.147
  422SOL    HW1 1278   2.461   0.138   1.184
  422SOL    HW2 1279   2.335   0.241   1.191
  423SOL     OW 1280   2.389   0.256   0.328
  423SOL    HW1 1281   2.416   0.197   0.253
  423SOL    HW2 1282   2.389   0.351   0.297
  424SOL     OW 1283   2.272   0.813   1.251
  424SOL    HW1 1284   2.358   0.825   1.301
  424SOL    HW2 1285   2.230   0.726   1.278
  425SOL     OW 1286   1.926   1.564   1.331
  425SOL    HW1 1287   1.880   1.646   1.297
  425SOL    HW2 1288   2.024   1.583   1.340
  426SOL     OW 1289   2.229   1.100   0.501
  426SOL    HW1 1290   2.222   1.183   0.445
  426SOL    HW2 1291   2.233   1.020   0.441
  427SOL     OW 1292   2.428   0.537   0.865
  427SOL    HW1 1293   2.440   0.603   0.791
  427SOL    HW2 1294   2.474   0.571   0.948
  428SOL     OW 1295   2.216   1.510   1.329
  428SOL    HW1 1296   2.195   1.466   1.242
  428SOL    HW2 1297   2.313   1.536   1.332
  429SOL     OW 1298   2.264   0.751   1.598
  429SOL    HW1 1299   2.332   0.806   1.551
  429SOL    HW2 1300   2.304   0.663   1.625
  430SOL     OW 1301   2.366   0.050   1.740
  430SOL    HW1 1302   2.324  -0.007   1.670
  430SOL    HW2 1303   2.300   0.119   1.772
  431SOL     OW 1304   2.435   0.870   1.029
  431SOL    HW1 1305   2.479   0.959   1.020
  431SOL    HW2 1306   2.372   0.870   1.106
  432SOL     OW 1307   2.169   0.213   1.231
  432SOL    HW1 1308   2.146   0.250   1.321
  432SOL    HW2 1309   2.139   0.118   1.225
  433SOL     OW 1310   1.899   1.310   1.282
  433SOL    HW1 1311   1.952   1.261   1.350
  433SOL    HW2 1312   1.921   1.408   1.287
  434SOL     OW 1313   2.169   0.063   0.618
  434SOL    HW1 1314   2.158   0.157   0.651
  434SOL    HW2 1315   2.164   0.000   0.695
  435SOL     OW 1316   2.212   0.898   1.804
  435SOL    HW1 1317   2.288   0.942   1.852
  435SOL    HW2 1318   2.247   0.851   1.722
  436SOL     OW 1319   2.181   0.810   0.949
  436SOL    HW1 1320   2.274   0.846   0.954
  436SOL    HW2 1321   2.175   0.725   1.001
  437SOL     OW 1322   2.201   0.509   1.006
  437SOL    HW1 1323   2.149   0.426   0.989
  437SOL    HW2 1324   2.278   0.514   0.942
  438SOL     OW 1325   1.870   1.326   0.200
  438SOL    HW1 1326   1.777   1.347   0.169
  438SOL    HW2 1327   1.880   1.227   0.213
  439SOL     OW 1328   1.950   1.801   0.927
  439SOL    HW1 1329   1.908   1.715   0.900
  439SOL    HW2 1330   2.044   1.804   0.893
  440SOL     OW 1331   2.366   1.568   0.910
  440SOL    HW1 1332   2.432   1.642   0.919
  440SOL    HW2 1333   2.410   1.489   0.868
  441SOL     OW 1334   1.902   0.544   1.114
  441SOL    HW1 1335   1.987   0.511   1.073
  441SOL    HW2 1336   1.915   0.559   1.212
  442SOL     OW 1337   2.051   0.520   1.722
  442SOL    HW1 1338   2.110   0.480   1.652
  442SOL    HW2 1339   1.993   0.591   1.681
  443SOL     OW 1340   2.677   0.572   0.325
  443SOL    HW1 1341   2.684   0.483   0.279
  443SOL    HW2 1342   2.583   0.606   0.317
  444SOL     OW 1343   2.114   1.564   1.744
  444SOL    HW1 1344   2.084   1.621   1.820
  444SOL    HW2 1345   2.107   1.467   1.770
  445SOL     OW 1346   2.335   0.500   0.191
  445SOL    HW1 1347   2.396   0.580   0.195
  445SOL    HW2 1348   2.240   0.531   0.198
  446SOL     OW 1349   2.021   1.137   1.466
  446SOL    HW1 1350   2.043   1.076   1.542
  446SOL    HW2 1351   2.031   1.088   1.380
  447SOL     OW 1352   1.945   1.258   1.022
  447SOL    HW1 1353   1.940   1.257   1.122
  447SOL    HW2 1354   1.862   1.217   0.984
  448SOL     OW 1355   2.550   1.662   1.716
  448SOL    HW1 1356   2.494   1.743   1.725
  448SOL    HW2 1357   2.602   1.666   1.630
  449SOL     OW 1358   1.992   1.794   1.851
  449SOL    HW1 1359   1.951   1.720   1.904
  449SOL    HW2 1360   2.056   1.845   1.909
  450SOL     OW 1361   2.125   0.326   0.720
  450SOL    HW1 1362   2.046   0.377   0.686
  450SOL    HW2 1363   2.116   0.311   0.818
  451SOL     OW 1364   2.234   1.288   1.490
  451SOL    HW1 1365   2.221   1.381   1.456
  451SOL    HW2 1366   2.150   1.236   1.477
  452SOL     OW 1367   2.452   1.487   0.491
  452SOL    HW1 1368   2.494   1.429   0.421
  452SOL    HW2 1369   2.408   1.566   0.447
  453SOL     OW 1370   2.117   1.348   0.290
  453SOL    HW1 1371   2.021   1.349   0.263
  453SOL    HW2 1372   2.129   1.401   0.374
  454SOL     OW 1373   1.967   1.013   1.726
  454SOL    HW1 1374   1.890   0.980   1.780
  454SOL    HW2 1375   2.052   0.983   1.768
  455SOL     OW 1376   2.534   0.203   1.489
  455SOL    HW1 1377   2.624   0.187   1.449
  455SOL    HW2 1378   2.542   0.208   1.588
  456SOL     OW 1379   1.937   0.345   0.033
  456SOL    HW1 1380   1.845   0.317   0.004
  456SOL    HW2 1381   1.968   0.422  -0.023
  457SOL     OW 1382   2.475   0.842   1.431
  457SOL    HW1 1383   2.531   0.923   1.414
  457SOL    HW2 1384   2.534   0.762   1.434
  458SOL     OW 1385   2.252   1.741   1.560
  458SOL    HW1 1386   2.161   1.782   1.558
  458SOL    HW2 1387   2.245   1.647   1.592
  459SOL     OW 1388   2.456   0.745   0.652
  459SOL    HW1 1389   2.506   0.830   0.633
  459SOL    HW2 1390   2.368   0.747   0.604
  460SOL     OW 1391   2.083   1.314   1.844
  460SOL    HW1 1392   2.018   1.241   1.823
  460SOL    HW2 1393   2.087   1.328   1.942
  461SOL     OW 1394   1.941   1.240   0.653
  461SOL    HW1 1395   1.940   1.193   0.741
  461SOL    HW2 1396   2.023   1.212   0.602
  462SOL     OW 1397   2.534   1.391   1.624
  462SOL    HW1 1398   2.456   1.341   1.662
  462SOL    HW2 1399   2.531   1.486   1.655
  463SOL     OW 1400   2.290   0.424   0.520
  463SOL    HW1 1401   2.320   0.352   0.458
  463SOL    HW2 1402   2.251   0.384   0.603
  464SOL     OW 1403   2.179   0.547   1.280
  464SOL    HW1 1404   2.217   0.488   1.352
  464SOL    HW2 1405   2.219   0.521   1.192
  465SOL     OW 1406   1.901   1.077   0.300
  465SOL    HW1 1407   2.000   1.066   0.291
  465SOL    HW2 1408   1.861   0.991   0.332
  466SOL     OW 1409   2.092   0.628   1.975
  466SOL    HW1 1410   1.999   0.626   2.012
  466SOL    HW2 1411   2.093   0.589   1.883
  467SOL     OW 1412   2.093   1.713   2.345
  467SOL    HW1 1413   2.127   1.790   2.399
  467SOL    HW2 1414   2.137   1.713   2.255
  468SOL     OW 1415   2.092   1.434   2.400
  468SOL    HW1 1416   2.066   1.530   2.400
  468SOL    HW2 1417   2.021   1.380   2.445
  469SOL     OW 1418   1.984   0.643   2.425
  469SOL    HW1 1419   1.939   0.555   2.442
  469SOL    HW2 1420   1.983   0.697   2.509
  470SOL     OW 1421   1.889   1.596   1.979
  470SOL    HW1 1422   1.870   1.500   2.000
  470SOL    HW2 1423   1.856   1.654   2.054
  471SOL     OW 1424   2.460   0.729   2.132
  471SOL    HW1 1425   2.484   0.798   2.064
  471SOL    HW2 1426   2.382   0.762   2.186
  472SOL     OW 1427   1.938   0.811   2.651
  472SOL    HW1 1428   2.037   0.799   2.660
  472SOL    HW2 1429   1.914   0.906   2.672
  473SOL     OW 1430   2.727   0.348   2.057
  473SOL    HW1 1431   2.786   0.411   2.008
  473SOL    HW2 1432   2.746   0.254   2.028
  474SOL     OW 1433   2.213   1.801   2.715
  474SOL    HW1 1434   2.263   1.715   2.721
  474SOL    HW2 1435   2.278   1.878   2.712
  475SOL     OW 1436   2.183   0.943   2.104
  475SOL    HW1 1437   2.265   0.982   2.062
  475SOL    HW2 1438   2.156   0.861   2.055
  476SOL     OW 1439   2.326   1.743   2.185
  476SOL    HW1 1440   2.359   1.782   2.271
  476SOL    HW2 1441   2.402   1.736   2.120
  477SOL     OW 1442   2.244   0.700   2.342
  477SOL    HW1 1443   2.289   0.610   2.339
  477SOL    HW2 1444   2.150   0.689   2.375
  478SOL     OW 1445   2.476   0.122   1.979
  478SOL    HW1 1446   2.574   0.100   1.986
  478SOL    HW2 1447   2.445   0.105   1.886
  479SOL     OW 1448   2.401   0.064   2.374
  479SOL    HW1 1449   2.320   0.065   2.432
  479SOL    HW2 1450   2.404   0.147   2.319
  480SOL     OW 1451   2.159   0.035   2.033
  480SOL    HW1 1452   2.208   0.119   2.012
  480SOL    HW2 1453   2.221  -0.030   2.078
  481SOL     OW 1454   2.797   0.236   2.342
  481SOL    HW1 1455   2.749   0.277   2.264
  481SOL    HW2 1456   2.896   0.234   2.323
  482SOL     OW 1457   2.321   1.152   2.603
  482SOL    HW1 1458   2.250   1.125   2.668
  482SOL    HW2 1459   2.295   1.124   2.510
  483SOL     OW 1460   2.389   0.256   2.190
  483SOL    HW1 1461   2.416   0.197   2.115
  483SOL    HW2 1462   2.389   0.351   2.159
  484SOL     OW 1463   2.229   1.100   2.363
  484SOL    HW1 1464   2.222   1.183   2.307
  484SOL    HW2 1465   2.233   1.020   2.303
  485SOL     OW 1466   2.169   0.063   2.480
  485SOL    HW1 1467   2.158   0.157   2.513
  485SOL    HW2 1468   2.164   0.000   2.557
  486SOL     OW 1469   1.870   1.326   2.062
  486SOL    HW1 1470   1.777   1.347   2.031
  486SOL    HW2 1471   1.880   1.227   2.075
  487SOL     OW 1472   2.677   0.572   2.187
  487SOL    HW1 1473   2.684   0.483   2.141
  487SOL    HW2 1474   2.583   0.606   2.179
  488SOL     OW 1475   2.335   0.500   2.053
  488SOL    HW1 1476   2.396   0.580   2.057
  488SOL    HW2 1477   2.240   0.531   2.060
  489SOL     OW 1478   2.452   1.487   2.353
  489SOL    HW1 1479   2.494   1.429   2.283
  489SOL    HW2 1480   2.408   1.566   2.309
  490SOL     OW 1481   2.117   1.348   2.152
  490SOL    HW1 1482   2.021   1.349   2.125
  490SOL    HW2 1483   2.129   1.401   2.236
  491SOL     OW 1484   1.937   0.345   1.895
  491SOL    HW1 1485   1.845   0.317   1.866
  491SOL    HW2 1486   1.968   0.422   1.839
  492SOL     OW 1487   1.934   0.166   2.180
  492SOL    HW1 1488   1.917   0.249   2.126
  492SOL    HW2 1489   2.024   0.129   2.158
  493SOL     OW 1490   2.456   0.745   2.514
  493SOL    HW1 1491   2.506   0.830   2.495
  493SOL    HW2 1492   2.368   0.747   2.466
  494SOL     OW 1493   1.941   1.240   2.515
  494SOL    HW1 1494   1.940   1.193   2.603
  494SOL    HW2 1495   2.023   1.212   2.464
  495SOL     OW 1496   2.290   0.424   2.382
  495SOL    HW1 1497   2.320   0.352   2.320
  495SOL    HW2 1498   2.251   0.384   2.465
  496SOL     OW 1499   1.901   1.077   2.162
  496SOL    HW1 1500   2.000   1.066   2.153
  496SOL    HW2 1501   1.861   0.991   2.194
  497SOL     OW 1502   2.087   2.137   0.996
  497SOL    HW1 1503   2.122   2.120   1.088
  497SOL    HW2 1504   1.999   2.092   0.984
  498SOL     OW 1505   1.881   2.230   0.647
  498SOL    HW1 1506   1.799   2.273   0.686
  498SOL    HW2 1507   1.853   2.157   0.584
  499SOL     OW 1508   2.712   2.660   1.823
  499SOL    HW1 1509   2.708   2.736   1.888
  499SOL    HW2 1510   2.734   2.696   1.732
  500SOL     OW 1511   2.300   2.254   1.499
  500SOL    HW1 1512   2.382   2.198   1.508
  500SOL    HW2 1513   2.219   2.196   1.503
  501SOL     OW 1514   1.984   2.505   0.563
  501SOL    HW1 1515   1.939   2.417   0.580
  501SOL    HW2 1516   1.983   2.559   0.647
  502SOL     OW 1517   2.671   1.866   0.502
  502SOL    HW1 1518   2.711   1.957   0.493
  502SOL    HW2 1519   2.571   1.874   0.508
  503SOL     OW 1520   2.179   2.113   1.801
  503SOL    HW1 1521   2.250   2.184   1.807
  503SOL    HW2 1522   2.091   2.152   1.829
  504SOL     OW 1523   2.727   2.210   0.195
  504SOL    HW1 1524   2.786   2.273   0.146
  504SOL    HW2 1525   2.746   2.116   0.166
  505SOL     OW 1526   2.412   2.058   0.885
  505SOL    HW1 1527   2.407   2.053   0.985
  505SOL    HW2 1528   2.414   2.154   0.856
  506SOL     OW 1529   2.064   2.147   1.498
  506SOL    HW1 1530   1.984   2.207   1.485
  506SOL    HW2 1531   2.054   2.098   1.584
  507SOL     OW 1532   2.476   1.984   0.117
  507SOL    HW1 1533   2.574   1.962   0.124
  507SOL    HW2 1534   2.445   1.967   0.024
  508SOL     OW 1535   2.401   1.926   0.512
  508SOL    HW1 1536   2.320   1.927   0.570
  508SOL    HW2 1537   2.404   2.009   0.457
  509SOL     OW 1538   2.797   2.098   0.480
  509SOL    HW1 1539   2.749   2.139   0.402
  509SOL    HW2 1540   2.896   2.096   0.461
  510SOL     OW 1541   1.940   2.418   1.386
  510SOL    HW1 1542   2.032   2.417   1.345
  510SOL    HW2 1543   1.934   2.492   1.453
  511SOL     OW 1544   2.423   2.084   1.147
  511SOL    HW1 1545   2.461   2.000   1.184
  511SOL    HW2 1546   2.335   2.103   1.191
  512SOL     OW 1547   2.389   2.118   0.328
  512SOL    HW1 1548   2.416   2.059   0.253
  512SOL    HW2 1549   2.389   2.213   0.297
  513SOL     OW 1550   2.428   2.399   0.865
  513SOL    HW1 1551   2.440   2.465   0.791
  513SOL    HW2 1552   2.474   2.433   0.948
  514SOL     OW 1553   2.366   1.912   1.740
  514SOL    HW1 1554   2.324   1.855   1.670
  514SOL    HW2 1555   2.300   1.981   1.772
  515SOL     OW 1556   2.169   2.075   1.231
  515SOL    HW1 1557   2.146   2.112   1.321
  515SOL    HW2 1558   2.139   1.980   1.225
  516SOL     OW 1559   2.169   1.925   0.618
  516SOL    HW1 1560   2.158   2.019   0.651
  516SOL    HW2 1561   2.164   1.862   0.695
  517SOL     OW 1562   2.181   2.672   0.949
  517SOL    HW1 1563   2.274   2.708   0.954
  517SOL    HW2 1564   2.175   2.587   1.001
  518SOL     OW 1565   2.201   2.371   1.006
  518SOL    HW1 1566   2.149   2.288   0.989
  518SOL    HW2 1567   2.278   2.376   0.942
  519SOL     OW 1568   1.902   2.406   1.114
  519SOL    HW1 1569   1.987   2.373   1.073
  519SOL    HW2 1570   1.915   2.421   1.212
  520SOL     OW 1571   2.051   2.382   1.722
  520SOL    HW1 1572   2.110   2.342   1.652
  520SOL    HW2 1573   1.993   2.453   1.681
  521SOL     OW 1574   2.677   2.434   0.325
  521SOL    HW1 1575   2.684   2.345   0.279
  521SOL    HW2 1576   2.583   2.468   0.317
  522SOL     OW 1577   2.125   2.188   0.720
  522SOL    HW1 1578   2.046   2.239   0.686
  522SOL    HW2 1579   2.116   2.173   0.818
  523SOL     OW 1580   2.534   2.065   1.489
  523SOL    HW1 1581   2.624   2.049   1.449
  523SOL    HW2 1582   2.542   2.070   1.588
  524SOL     OW 1583   1.937   2.207   0.033
  524SOL    HW1 1584   1.845   2.179   0.004
  524SOL    HW2 1585   1.968   2.284  -0.023
  525SOL     OW 1586   1.934   2.028   0.318
  525SOL    HW1 1587   1.917   2.111   0.264
  525SOL    HW2 1588   2.024   1.991   0.296
  526SOL     OW 1589   2.290   2.286   0.520
  526SOL    HW1 1590   2.320   2.214   0.458
  526SOL    HW2 1591   2.251   2.246   0.603
  527SOL     OW 1592   2.179   2.409   1.280
  527SOL    HW1 1593   2.217   2.350   1.352
  527SOL    HW2 1594   2.219   2.383   1.192
  528SOL     OW 1595   1.984   2.505   2.425
  528SOL    HW1 1596   1.939   2.417   2.442
  528SOL    HW2 1597   1.983   2.559   2.509
  529SOL     OW 1598   2.671   1.866   2.364
  529SOL    HW1 1599   2.711   1.957   2.355
  529SOL    HW2 1600   2.571   1.874   2.370
  530SOL     OW 1601   2.727   2.210   2.057
  530SOL    HW1 1602   2.786   2.273   2.008
  530SOL    HW2 1603   2.746   2.116   2.028
  531SOL     OW 1604   2.476   1.984   1.979
  531SOL    HW1 1605   2.574   1.962   1.986
  531SOL    HW2 1606   2.445   1.967   1.886
  532SOL     OW 1607   2.401   1.926   2.374
  532SOL    HW1 1608   2.320   1.927   2.432
  532SOL    HW2 1609   2.404   2.009   2.319
  533SOL     OW 1610   2.159   1.897   2.033
  533SOL    HW1 1611   2.208   1.981   2.012
  533SOL    HW2 1612   2.221   1.832   2.078
  534SOL     OW 1613   2.797   2.098   2.342
  534SOL    HW1 1614   2.749   2.139   2.264
  534SOL    HW2 1615   2.896   2.096   2.323
  535SOL     OW 1616   2.389   2.118   2.190
  535SOL    HW1 1617   2.416   2.059   2.115
  535SOL    HW2 1618   2.389   2.213   2.159
  536SOL     OW 1619   2.169   1.925   2.480
  536SOL    HW1 1620   2.158   2.019   2.513
  536SOL    HW2 1621   2.164   1.862   2.557
  537SOL     OW 1622   2.201   2.371   2.868
  537SOL    HW1 1623   2.149   2.288   2.851
  537SOL    HW2 1624   2.278   2.376   2.804
  538SOL     OW 1625   2.677   2.434   2.187
  538SOL    HW1 1626   2.684   2.345   2.141
  538SOL    HW2 1627   2.583   2.468   2.179
  539SOL     OW 1628   1.937   2.207   1.895
  539SOL    HW1 1629   1.845   2.179   1.866
  539SOL    HW2 1630   1.968   2.284   1.839
  540SOL     OW 1631   1.934   2.028   2.180
  540SOL    HW1 1632   1.917   2.111   2.126
  540SOL    HW2 1633   2.024   1.991   2.158
  541SOL     OW 1634   2.290   2.286   2.382
  541SOL    HW1 1635   2.320   2.214   2.320
  541SOL    HW2 1636   2.251   2.246   2.465
   2.55125   2.55125   2.55125
