; mobley_4463913_GMX.top created by acpype (v: 2023.10.27) on Thu May 14 13:39:13 2026

[ defaults ]
; nbfunc        comb-rule       gen-pairs       fudgeLJ fudgeQQ
1               2               yes             0.5     0.8333333333

; Include mobley_4463913_GMX.itp topology
#include "mobley_4463913_GMX.itp"

; Ligand position restraints
#ifdef POSRES_LIG
#include "posre_mobley_4463913.itp"
#endif

#include "../common/SOL.TIP3P.itp"

[ system ]
mobley_4463913 in water

[ molecules ]
; Compound        nmols
 mobley_4463913   1     
SOL               704
