; mobley_9246215_GMX.itp created by acpype (v: 2023.10.27) on Thu May 14 13:55:05 2026

[ atomtypes ]
;name   bond_type     mass     charge   ptype   sigma         epsilon       Amb
 c2       c2          0.00000  0.00000   A     3.31521e-01   4.13379e-01 ; 1.86  0.0988
 c3       c3          0.00000  0.00000   A     3.39771e-01   4.51035e-01 ; 1.91  0.1078
 ha       ha          0.00000  0.00000   A     2.62548e-01   6.73624e-02 ; 1.47  0.0161
 hc       hc          0.00000  0.00000   A     2.60018e-01   8.70272e-02 ; 1.46  0.0208

[ moleculetype ]
;name            nrexcl
 mobley_9246215   3

[ atoms ]
;   nr  type  resi  res  atom  cgnr     charge      mass       ; qtot   bond_type
     1   c2     1   MOL    C1    1    -0.223000     12.01000 ; qtot -0.223
     2   c2     1   MOL    C2    2    -0.223000     12.01000 ; qtot -0.446
     3   c2     1   MOL    C3    3    -0.160200     12.01000 ; qtot -0.606
     4   c2     1   MOL    C4    4    -0.160200     12.01000 ; qtot -0.766
     5   c3     1   MOL    C5    5    -0.025000     12.01000 ; qtot -0.791
     6   ha     1   MOL    H1    6     0.111500      1.00800 ; qtot -0.680
     7   ha     1   MOL    H2    7     0.111500      1.00800 ; qtot -0.568
     8   ha     1   MOL    H3    8     0.111500      1.00800 ; qtot -0.457
     9   ha     1   MOL    H4    9     0.111500      1.00800 ; qtot -0.345
    10   ha     1   MOL    H5   10     0.119000      1.00800 ; qtot -0.226
    11   ha     1   MOL    H6   11     0.119000      1.00800 ; qtot -0.107
    12   hc     1   MOL    H7   12     0.053700      1.00800 ; qtot -0.054
    13   hc     1   MOL    H8   13     0.053700      1.00800 ; qtot -0.000

[ bonds ]
;   ai     aj funct   r             k
     1      3   1    1.3379e-01    3.6484e+05 ;     C1 - C3    
     1      6   1    1.0882e-01    2.9898e+05 ;     C1 - H1    
     1      7   1    1.0882e-01    2.9898e+05 ;     C1 - H2    
     2      4   1    1.3379e-01    3.6484e+05 ;     C2 - C4    
     2      8   1    1.0882e-01    2.9898e+05 ;     C2 - H3    
     2      9   1    1.0882e-01    2.9898e+05 ;     C2 - H4    
     3      5   1    1.5088e-01    2.0786e+05 ;     C3 - C5    
     3     10   1    1.0882e-01    2.9898e+05 ;     C3 - H5    
     4      5   1    1.5088e-01    2.0786e+05 ;     C4 - C5    
     4     11   1    1.0882e-01    2.9898e+05 ;     C4 - H6    
     5     12   1    1.0962e-01    2.8891e+05 ;     C5 - H7    
     5     13   1    1.0962e-01    2.8891e+05 ;     C5 - H8    

[ pairs ]
;   ai     aj    funct
     1      4      1 ;     C1 - C4    
     1     12      1 ;     C1 - H7    
     1     13      1 ;     C1 - H8    
     2      3      1 ;     C2 - C3    
     2     12      1 ;     C2 - H7    
     2     13      1 ;     C2 - H8    
     3     11      1 ;     C3 - H6    
     4     10      1 ;     C4 - H5    
     5      8      1 ;     C5 - H3    
     5      9      1 ;     C5 - H4    
     6      5      1 ;     H1 - C5    
     6     10      1 ;     H1 - H5    
     7      5      1 ;     H2 - C5    
     7     10      1 ;     H2 - H5    
     8     11      1 ;     H3 - H6    
     9     11      1 ;     H4 - H6    
    10     12      1 ;     H5 - H7    
    10     13      1 ;     H5 - H8    
    11     12      1 ;     H6 - H7    
    11     13      1 ;     H6 - H8    

[ angles ]
;   ai     aj     ak    funct   theta         cth
     1      3      5      1    1.2495e+02    5.0944e+02 ;     C1 - C3     - C5    
     1      3     10      1    1.2039e+02    3.8802e+02 ;     C1 - C3     - H5    
     2      4      5      1    1.2495e+02    5.0944e+02 ;     C2 - C4     - C5    
     2      4     11      1    1.2039e+02    3.8802e+02 ;     C2 - C4     - H6    
     3      1      6      1    1.2039e+02    3.8802e+02 ;     C3 - C1     - H1    
     3      1      7      1    1.2039e+02    3.8802e+02 ;     C3 - C1     - H2    
     3      5      4      1    1.1185e+02    5.1162e+02 ;     C3 - C5     - C4    
     3      5     12      1    1.1065e+02    3.6618e+02 ;     C3 - C5     - H7    
     3      5     13      1    1.1065e+02    3.6618e+02 ;     C3 - C5     - H8    
     4      2      8      1    1.2039e+02    3.8802e+02 ;     C4 - C2     - H3    
     4      2      9      1    1.2039e+02    3.8802e+02 ;     C4 - C2     - H4    
     4      5     12      1    1.1065e+02    3.6618e+02 ;     C4 - C5     - H7    
     4      5     13      1    1.1065e+02    3.6618e+02 ;     C4 - C5     - H8    
     5      3     10      1    1.1505e+02    3.5941e+02 ;     C5 - C3     - H5    
     5      4     11      1    1.1505e+02    3.5941e+02 ;     C5 - C4     - H6    
     6      1      7      1    1.1666e+02    2.9003e+02 ;     H1 - C1     - H2    
     8      2      9      1    1.1666e+02    2.9003e+02 ;     H3 - C2     - H4    
    12      5     13      1    1.0773e+02    2.9957e+02 ;     H7 - C5     - H8    

[ dihedrals ] ; propers
; for gromacs 4.5 or higher, using funct 9
;    i      j      k      l   func   phase     kd      pn
     1      3      5      4      9     0.00   4.76976   1 ;     C1-    C3-    C5-    C4
     1      3      5     12      9   180.00   1.08784   3 ;     C1-    C3-    C5-    H7
     1      3      5     13      9   180.00   1.08784   3 ;     C1-    C3-    C5-    H8
     2      4      5      3      9     0.00   4.76976   1 ;     C2-    C4-    C5-    C3
     2      4      5     12      9   180.00   1.08784   3 ;     C2-    C4-    C5-    H7
     2      4      5     13      9   180.00   1.08784   3 ;     C2-    C4-    C5-    H8
     3      5      4     11      9     0.00   0.00000   0 ;     C3-    C5-    C4-    H6
     4      5      3     10      9     0.00   0.00000   0 ;     C4-    C5-    C3-    H5
     5      4      2      8      9   180.00  27.82360   2 ;     C5-    C4-    C2-    H3
     5      4      2      9      9   180.00  27.82360   2 ;     C5-    C4-    C2-    H4
     6      1      3      5      9   180.00  27.82360   2 ;     H1-    C1-    C3-    C5
     6      1      3     10      9   180.00  27.82360   2 ;     H1-    C1-    C3-    H5
     7      1      3      5      9   180.00  27.82360   2 ;     H2-    C1-    C3-    C5
     7      1      3     10      9   180.00  27.82360   2 ;     H2-    C1-    C3-    H5
     8      2      4     11      9   180.00  27.82360   2 ;     H3-    C2-    C4-    H6
     9      2      4     11      9   180.00  27.82360   2 ;     H4-    C2-    C4-    H6
    10      3      5     12      9     0.00   0.00000   0 ;     H5-    C3-    C5-    H7
    10      3      5     13      9     0.00   0.00000   0 ;     H5-    C3-    C5-    H8
    11      4      5     12      9     0.00   0.00000   0 ;     H6-    C4-    C5-    H7
    11      4      5     13      9     0.00   0.00000   0 ;     H6-    C4-    C5-    H8

[ dihedrals ] ; impropers
; treated as propers in GROMACS to use correct AMBER analytical function
;    i      j      k      l   func   phase     kd      pn
     1      5      3     10      4   180.00   4.60240   2 ;     C1-    C5-    C3-    H5
     2      5      4     11      4   180.00   4.60240   2 ;     C2-    C5-    C4-    H6
     4      8      2      9      4   180.00   4.60240   2 ;     C4-    H3-    C2-    H4
     7      1      6      3      4   180.00   4.60240   2 ;     H2-    C1-    H1-    C3
