; mobley_8467917_GMX.itp created by acpype (v: 2023.10.27) on Thu May 14 13:16:34 2026

[ atomtypes ]
;name   bond_type     mass     charge   ptype   sigma         epsilon       Amb
 c2       c2          0.00000  0.00000   A     3.31521e-01   4.13379e-01 ; 1.86  0.0988
 c3       c3          0.00000  0.00000   A     3.39771e-01   4.51035e-01 ; 1.91  0.1078
 ha       ha          0.00000  0.00000   A     2.62548e-01   6.73624e-02 ; 1.47  0.0161
 hc       hc          0.00000  0.00000   A     2.60018e-01   8.70272e-02 ; 1.46  0.0208

[ moleculetype ]
;name            nrexcl
 mobley_8467917   3

[ atoms ]
;   nr  type  resi  res  atom  cgnr     charge      mass       ; qtot   bond_type
     1   c2     1   MOL    C1    1    -0.175199     12.01000 ; qtot -0.175
     2   c2     1   MOL    C2    2    -0.171200     12.01000 ; qtot -0.346
     3   c3     1   MOL    C3    3    -0.062900     12.01000 ; qtot -0.409
     4   c3     1   MOL    C4    4    -0.092100     12.01000 ; qtot -0.501
     5   c3     1   MOL    C5    5    -0.048200     12.01000 ; qtot -0.550
     6   c3     1   MOL    C6    6    -0.080400     12.01000 ; qtot -0.630
     7   c3     1   MOL    C7    7    -0.076400     12.01000 ; qtot -0.706
     8   ha     1   MOL    H1    8     0.118000      1.00800 ; qtot -0.588
     9   ha     1   MOL    H2    9     0.120000      1.00800 ; qtot -0.468
    10   hc     1   MOL    H3   10     0.040033      1.00800 ; qtot -0.428
    11   hc     1   MOL    H4   11     0.040033      1.00800 ; qtot -0.388
    12   hc     1   MOL    H5   12     0.040033      1.00800 ; qtot -0.348
    13   hc     1   MOL    H6   13     0.032700      1.00800 ; qtot -0.316
    14   hc     1   MOL    H7   14     0.032700      1.00800 ; qtot -0.283
    15   hc     1   MOL    H8   15     0.032700      1.00800 ; qtot -0.250
    16   hc     1   MOL    H9   16     0.045200      1.00800 ; qtot -0.205
    17   hc     1   MOL   H10   17     0.045200      1.00800 ; qtot -0.160
    18   hc     1   MOL   H11   18     0.038200      1.00800 ; qtot -0.122
    19   hc     1   MOL   H12   19     0.038200      1.00800 ; qtot -0.083
    20   hc     1   MOL   H13   20     0.041700      1.00800 ; qtot -0.042
    21   hc     1   MOL   H14   21     0.041700      1.00800 ; qtot -0.000

[ bonds ]
;   ai     aj funct   r             k
     1      2   1    1.3379e-01    3.6484e+05 ;     C1 - C2    
     1      3   1    1.5088e-01    2.0786e+05 ;     C1 - C3    
     1      8   1    1.0882e-01    2.9898e+05 ;     C1 - H1    
     2      5   1    1.5088e-01    2.0786e+05 ;     C2 - C5    
     2      9   1    1.0882e-01    2.9898e+05 ;     C2 - H2    
     3     10   1    1.0962e-01    2.8891e+05 ;     C3 - H3    
     3     11   1    1.0962e-01    2.8891e+05 ;     C3 - H4    
     3     12   1    1.0962e-01    2.8891e+05 ;     C3 - H5    
     4      6   1    1.5354e-01    1.9154e+05 ;     C4 - C6    
     4     13   1    1.0962e-01    2.8891e+05 ;     C4 - H6    
     4     14   1    1.0962e-01    2.8891e+05 ;     C4 - H7    
     4     15   1    1.0962e-01    2.8891e+05 ;     C4 - H8    
     5      7   1    1.5354e-01    1.9154e+05 ;     C5 - C7    
     5     16   1    1.0962e-01    2.8891e+05 ;     C5 - H9    
     5     17   1    1.0962e-01    2.8891e+05 ;     C5 - H10   
     6      7   1    1.5354e-01    1.9154e+05 ;     C6 - C7    
     6     18   1    1.0962e-01    2.8891e+05 ;     C6 - H11   
     6     19   1    1.0962e-01    2.8891e+05 ;     C6 - H12   
     7     20   1    1.0962e-01    2.8891e+05 ;     C7 - H13   
     7     21   1    1.0962e-01    2.8891e+05 ;     C7 - H14   

[ pairs ]
;   ai     aj    funct
     1      7      1 ;     C1 - C7    
     1     16      1 ;     C1 - H9    
     1     17      1 ;     C1 - H10   
     2      6      1 ;     C2 - C6    
     2     10      1 ;     C2 - H3    
     2     11      1 ;     C2 - H4    
     2     12      1 ;     C2 - H5    
     2     20      1 ;     C2 - H13   
     2     21      1 ;     C2 - H14   
     3      5      1 ;     C3 - C5    
     3      9      1 ;     C3 - H2    
     4      5      1 ;     C4 - C5    
     4     20      1 ;     C4 - H13   
     4     21      1 ;     C4 - H14   
     5     18      1 ;     C5 - H11   
     5     19      1 ;     C5 - H12   
     6     16      1 ;     C6 - H9    
     6     17      1 ;     C6 - H10   
     7      9      1 ;     C7 - H2    
     7     13      1 ;     C7 - H6    
     7     14      1 ;     C7 - H7    
     7     15      1 ;     C7 - H8    
     8      5      1 ;     H1 - C5    
     8      9      1 ;     H1 - H2    
     8     10      1 ;     H1 - H3    
     8     11      1 ;     H1 - H4    
     8     12      1 ;     H1 - H5    
     9     16      1 ;     H2 - H9    
     9     17      1 ;     H2 - H10   
    13     18      1 ;     H6 - H11   
    13     19      1 ;     H6 - H12   
    14     18      1 ;     H7 - H11   
    14     19      1 ;     H7 - H12   
    15     18      1 ;     H8 - H11   
    15     19      1 ;     H8 - H12   
    16     20      1 ;     H9 - H13   
    16     21      1 ;     H9 - H14   
    17     20      1 ;    H10 - H13   
    17     21      1 ;    H10 - H14   
    18     20      1 ;    H11 - H13   
    18     21      1 ;    H11 - H14   
    19     20      1 ;    H12 - H13   
    19     21      1 ;    H12 - H14   

[ angles ]
;   ai     aj     ak    funct   theta         cth
     1      2      5      1    1.2495e+02    5.0944e+02 ;     C1 - C2     - C5    
     1      2      9      1    1.2039e+02    3.8802e+02 ;     C1 - C2     - H2    
     1      3     10      1    1.1065e+02    3.6618e+02 ;     C1 - C3     - H3    
     1      3     11      1    1.1065e+02    3.6618e+02 ;     C1 - C3     - H4    
     1      3     12      1    1.1065e+02    3.6618e+02 ;     C1 - C3     - H5    
     2      1      3      1    1.2495e+02    5.0944e+02 ;     C2 - C1     - C3    
     2      1      8      1    1.2039e+02    3.8802e+02 ;     C2 - C1     - H1    
     2      5      7      1    1.1258e+02    5.0543e+02 ;     C2 - C5     - C7    
     2      5     16      1    1.1065e+02    3.6618e+02 ;     C2 - C5     - H9    
     2      5     17      1    1.1065e+02    3.6618e+02 ;     C2 - C5     - H10   
     3      1      8      1    1.1505e+02    3.5941e+02 ;     C3 - C1     - H1    
     4      6      7      1    1.1263e+02    5.0099e+02 ;     C4 - C6     - C7    
     4      6     18      1    1.0968e+02    3.6208e+02 ;     C4 - C6     - H11   
     4      6     19      1    1.0968e+02    3.6208e+02 ;     C4 - C6     - H12   
     5      2      9      1    1.1505e+02    3.5941e+02 ;     C5 - C2     - H2    
     5      7      6      1    1.1263e+02    5.0099e+02 ;     C5 - C7     - C6    
     5      7     20      1    1.0968e+02    3.6208e+02 ;     C5 - C7     - H13   
     5      7     21      1    1.0968e+02    3.6208e+02 ;     C5 - C7     - H14   
     6      4     13      1    1.0968e+02    3.6208e+02 ;     C6 - C4     - H6    
     6      4     14      1    1.0968e+02    3.6208e+02 ;     C6 - C4     - H7    
     6      4     15      1    1.0968e+02    3.6208e+02 ;     C6 - C4     - H8    
     6      7     20      1    1.0968e+02    3.6208e+02 ;     C6 - C7     - H13   
     6      7     21      1    1.0968e+02    3.6208e+02 ;     C6 - C7     - H14   
     7      5     16      1    1.0968e+02    3.6208e+02 ;     C7 - C5     - H9    
     7      5     17      1    1.0968e+02    3.6208e+02 ;     C7 - C5     - H10   
     7      6     18      1    1.0968e+02    3.6208e+02 ;     C7 - C6     - H11   
     7      6     19      1    1.0968e+02    3.6208e+02 ;     C7 - C6     - H12   
    10      3     11      1    1.0773e+02    2.9957e+02 ;     H3 - C3     - H4    
    10      3     12      1    1.0773e+02    2.9957e+02 ;     H3 - C3     - H5    
    11      3     12      1    1.0773e+02    2.9957e+02 ;     H4 - C3     - H5    
    13      4     14      1    1.0773e+02    2.9957e+02 ;     H6 - C4     - H7    
    13      4     15      1    1.0773e+02    2.9957e+02 ;     H6 - C4     - H8    
    14      4     15      1    1.0773e+02    2.9957e+02 ;     H7 - C4     - H8    
    16      5     17      1    1.0773e+02    2.9957e+02 ;     H9 - C5     - H10   
    18      6     19      1    1.0773e+02    2.9957e+02 ;    H11 - C6     - H12   
    20      7     21      1    1.0773e+02    2.9957e+02 ;    H13 - C7     - H14   

[ dihedrals ] ; propers
; for gromacs 4.5 or higher, using funct 9
;    i      j      k      l   func   phase     kd      pn
     1      2      5      7      9     0.00   0.00000   0 ;     C1-    C2-    C5-    C7
     1      2      5     16      9   180.00   1.08784   3 ;     C1-    C2-    C5-    H9
     1      2      5     17      9   180.00   1.08784   3 ;     C1-    C2-    C5-   H10
     2      1      3     10      9   180.00   1.08784   3 ;     C2-    C1-    C3-    H3
     2      1      3     11      9   180.00   1.08784   3 ;     C2-    C1-    C3-    H4
     2      1      3     12      9   180.00   1.08784   3 ;     C2-    C1-    C3-    H5
     2      5      7      6      9     0.00   0.65084   3 ;     C2-    C5-    C7-    C6
     2      5      7     20      9     0.00   0.65084   3 ;     C2-    C5-    C7-   H13
     2      5      7     21      9     0.00   0.65084   3 ;     C2-    C5-    C7-   H14
     3      1      2      5      9     0.00   0.62760   1 ;     C3-    C1-    C2-    C5
     3      1      2      5      9   180.00   5.56472   3 ;     C3-    C1-    C2-    C5
     3      1      2      5      9   180.00  24.18352   2 ;     C3-    C1-    C2-    C5
     3      1      2      9      9   180.00  27.82360   2 ;     C3-    C1-    C2-    H2
     4      6      7      5      9     0.00   2.17568   3 ;     C4-    C6-    C7-    C5
     4      6      7     20      9     0.00   0.54392   3 ;     C4-    C6-    C7-   H13
     4      6      7     21      9     0.00   0.54392   3 ;     C4-    C6-    C7-   H14
     5      7      6     18      9     0.00   0.54392   3 ;     C5-    C7-    C6-   H11
     5      7      6     19      9     0.00   0.54392   3 ;     C5-    C7-    C6-   H12
     6      7      5     16      9     0.00   0.54392   3 ;     C6-    C7-    C5-    H9
     6      7      5     17      9     0.00   0.54392   3 ;     C6-    C7-    C5-   H10
     7      5      2      9      9     0.00   0.00000   0 ;     C7-    C5-    C2-    H2
     7      6      4     13      9     0.00   0.54392   3 ;     C7-    C6-    C4-    H6
     7      6      4     14      9     0.00   0.54392   3 ;     C7-    C6-    C4-    H7
     7      6      4     15      9     0.00   0.54392   3 ;     C7-    C6-    C4-    H8
     8      1      2      5      9   180.00  27.82360   2 ;     H1-    C1-    C2-    C5
     8      1      2      9      9   180.00  27.82360   2 ;     H1-    C1-    C2-    H2
     8      1      3     10      9     0.00   0.00000   0 ;     H1-    C1-    C3-    H3
     8      1      3     11      9     0.00   0.00000   0 ;     H1-    C1-    C3-    H4
     8      1      3     12      9     0.00   0.00000   0 ;     H1-    C1-    C3-    H5
     9      2      5     16      9     0.00   0.00000   0 ;     H2-    C2-    C5-    H9
     9      2      5     17      9     0.00   0.00000   0 ;     H2-    C2-    C5-   H10
    13      4      6     18      9     0.00   0.50208   3 ;     H6-    C4-    C6-   H11
    13      4      6     19      9     0.00   0.50208   3 ;     H6-    C4-    C6-   H12
    14      4      6     18      9     0.00   0.50208   3 ;     H7-    C4-    C6-   H11
    14      4      6     19      9     0.00   0.50208   3 ;     H7-    C4-    C6-   H12
    15      4      6     18      9     0.00   0.50208   3 ;     H8-    C4-    C6-   H11
    15      4      6     19      9     0.00   0.50208   3 ;     H8-    C4-    C6-   H12
    16      5      7     20      9     0.00   0.50208   3 ;     H9-    C5-    C7-   H13
    16      5      7     21      9     0.00   0.50208   3 ;     H9-    C5-    C7-   H14
    17      5      7     20      9     0.00   0.50208   3 ;    H10-    C5-    C7-   H13
    17      5      7     21      9     0.00   0.50208   3 ;    H10-    C5-    C7-   H14
    18      6      7     20      9     0.00   0.50208   3 ;    H11-    C6-    C7-   H13
    18      6      7     21      9     0.00   0.50208   3 ;    H11-    C6-    C7-   H14
    19      6      7     20      9     0.00   0.50208   3 ;    H12-    C6-    C7-   H13
    19      6      7     21      9     0.00   0.50208   3 ;    H12-    C6-    C7-   H14

[ dihedrals ] ; impropers
; treated as propers in GROMACS to use correct AMBER analytical function
;    i      j      k      l   func   phase     kd      pn
     1      5      2      9      4   180.00   4.60240   2 ;     C1-    C5-    C2-    H2
     8      1      3      2      4   180.00   4.60240   2 ;     H1-    C1-    C3-    C2
