; mobley_6190089_GMX.itp created by acpype (v: 2023.10.27) on Thu May 14 13:19:25 2026

[ atomtypes ]
;name   bond_type     mass     charge   ptype   sigma         epsilon       Amb
 c3       c3          0.00000  0.00000   A     3.39771e-01   4.51035e-01 ; 1.91  0.1078
 cl       cl          0.00000  0.00000   A     3.46595e-01   1.10374e+00 ; 1.95  0.2638
 h2       h2          0.00000  0.00000   A     2.24382e-01   8.70272e-02 ; 1.26  0.0208

[ moleculetype ]
;name            nrexcl
 mobley_6190089   3

[ atoms ]
;   nr  type  resi  res  atom  cgnr     charge      mass       ; qtot   bond_type
     1   c3     1   MOL    C1    1     0.122100     12.01000 ; qtot 0.122
     2   c3     1   MOL    C2    2     0.122100     12.01000 ; qtot 0.244
     3   cl     1   MOL   CL1    3    -0.117900     35.45000 ; qtot 0.126
     4   cl     1   MOL   CL2    4    -0.117900     35.45000 ; qtot 0.008
     5   cl     1   MOL   CL3    5    -0.117900     35.45000 ; qtot -0.110
     6   cl     1   MOL   CL4    6    -0.117900     35.45000 ; qtot -0.227
     7   h2     1   MOL    H1    7     0.113700      1.00800 ; qtot -0.114
     8   h2     1   MOL    H2    8     0.113700      1.00800 ; qtot 0.000

[ bonds ]
;   ai     aj funct   r             k
     1      2   1    1.5354e-01    1.9154e+05 ;     C1 - C2    
     1      3   1    1.8092e-01    1.3724e+05 ;     C1 - CL1   
     1      4   1    1.8092e-01    1.3724e+05 ;     C1 - CL2   
     1      7   1    1.0950e-01    2.9039e+05 ;     C1 - H1    
     2      5   1    1.8092e-01    1.3724e+05 ;     C2 - CL3   
     2      6   1    1.8092e-01    1.3724e+05 ;     C2 - CL4   
     2      8   1    1.0950e-01    2.9039e+05 ;     C2 - H2    

[ pairs ]
;   ai     aj    funct
     3      5      1 ;    CL1 - CL3   
     3      6      1 ;    CL1 - CL4   
     3      8      1 ;    CL1 - H2    
     4      5      1 ;    CL2 - CL3   
     4      6      1 ;    CL2 - CL4   
     4      8      1 ;    CL2 - H2    
     7      5      1 ;     H1 - CL3   
     7      6      1 ;     H1 - CL4   
     7      8      1 ;     H1 - H2    

[ angles ]
;   ai     aj     ak    funct   theta         cth
     1      2      5      1    1.1039e+02    5.3254e+02 ;     C1 - C2     - CL3   
     1      2      6      1    1.1039e+02    5.3254e+02 ;     C1 - C2     - CL4   
     1      2      8      1    1.1042e+02    3.6091e+02 ;     C1 - C2     - H2    
     2      1      3      1    1.1039e+02    5.3254e+02 ;     C2 - C1     - CL1   
     2      1      4      1    1.1039e+02    5.3254e+02 ;     C2 - C1     - CL2   
     2      1      7      1    1.1042e+02    3.6091e+02 ;     C2 - C1     - H1    
     3      1      4      1    1.0934e+02    5.8225e+02 ;    CL1 - C1     - CL2   
     3      1      7      1    1.0706e+02    3.6133e+02 ;    CL1 - C1     - H1    
     4      1      7      1    1.0706e+02    3.6133e+02 ;    CL2 - C1     - H1    
     5      2      6      1    1.0934e+02    5.8225e+02 ;    CL3 - C2     - CL4   
     5      2      8      1    1.0706e+02    3.6133e+02 ;    CL3 - C2     - H2    
     6      2      8      1    1.0706e+02    3.6133e+02 ;    CL4 - C2     - H2    

[ dihedrals ] ; propers
; for gromacs 4.5 or higher, using funct 9
;    i      j      k      l   func   phase     kd      pn
     3      1      2      5      9     0.00   5.94128   3 ;    CL1-    C1-    C2-   CL3
     3      1      2      6      9     0.00   5.94128   3 ;    CL1-    C1-    C2-   CL4
     3      1      2      8      9     0.00   0.65084   3 ;    CL1-    C1-    C2-    H2
     4      1      2      5      9     0.00   5.94128   3 ;    CL2-    C1-    C2-   CL3
     4      1      2      6      9     0.00   5.94128   3 ;    CL2-    C1-    C2-   CL4
     4      1      2      8      9     0.00   0.65084   3 ;    CL2-    C1-    C2-    H2
     7      1      2      5      9     0.00   0.65084   3 ;     H1-    C1-    C2-   CL3
     7      1      2      6      9     0.00   0.65084   3 ;     H1-    C1-    C2-   CL4
     7      1      2      8      9     0.00   0.65084   3 ;     H1-    C1-    C2-    H2
