; mobley_1235151_GMX.itp created by acpype (v: 2023.10.27) on Thu May 14 13:18:43 2026

[ atomtypes ]
;name   bond_type     mass     charge   ptype   sigma         epsilon       Amb
 c3       c3          0.00000  0.00000   A     3.39771e-01   4.51035e-01 ; 1.91  0.1078
 no       no          0.00000  0.00000   A     3.36510e-01   3.58987e-01 ; 1.89  0.0858
 o        o           0.00000  0.00000   A     3.04812e-01   6.12119e-01 ; 1.71  0.1463
 hc       hc          0.00000  0.00000   A     2.60018e-01   8.70272e-02 ; 1.46  0.0208
 h1       h1          0.00000  0.00000   A     2.42200e-01   8.70272e-02 ; 1.36  0.0208

[ moleculetype ]
;name            nrexcl
 mobley_1235151   3

[ atoms ]
;   nr  type  resi  res  atom  cgnr     charge      mass       ; qtot   bond_type
     1   c3     1   MOL    C1    1    -0.094100     12.01000 ; qtot -0.094
     2   c3     1   MOL    C2    2    -0.079400     12.01000 ; qtot -0.173
     3   c3     1   MOL    C3    3    -0.078400     12.01000 ; qtot -0.252
     4   c3     1   MOL    C4    4    -0.094400     12.01000 ; qtot -0.346
     5   c3     1   MOL    C5    5    -0.077700     12.01000 ; qtot -0.424
     6   no     1   MOL    N1    6     0.229301     14.01000 ; qtot -0.195
     7    o     1   MOL    O1    7    -0.211500     16.00000 ; qtot -0.406
     8    o     1   MOL    O2    8    -0.211500     16.00000 ; qtot -0.618
     9   hc     1   MOL    H1    9     0.036033      1.00800 ; qtot -0.582
    10   hc     1   MOL    H2   10     0.036033      1.00800 ; qtot -0.546
    11   hc     1   MOL    H3   11     0.036033      1.00800 ; qtot -0.510
    12   hc     1   MOL    H4   12     0.044700      1.00800 ; qtot -0.465
    13   hc     1   MOL    H5   13     0.044700      1.00800 ; qtot -0.420
    14   hc     1   MOL    H6   14     0.045200      1.00800 ; qtot -0.375
    15   hc     1   MOL    H7   15     0.045200      1.00800 ; qtot -0.330
    16   hc     1   MOL    H8   16     0.070200      1.00800 ; qtot -0.260
    17   hc     1   MOL    H9   17     0.070200      1.00800 ; qtot -0.189
    18   h1     1   MOL   H10   18     0.094700      1.00800 ; qtot -0.095
    19   h1     1   MOL   H11   19     0.094700      1.00800 ; qtot 0.000

[ bonds ]
;   ai     aj funct   r             k
     1      2   1    1.5354e-01    1.9154e+05 ;     C1 - C2    
     1      9   1    1.0962e-01    2.8891e+05 ;     C1 - H1    
     1     10   1    1.0962e-01    2.8891e+05 ;     C1 - H2    
     1     11   1    1.0962e-01    2.8891e+05 ;     C1 - H3    
     2      3   1    1.5354e-01    1.9154e+05 ;     C2 - C3    
     2     12   1    1.0962e-01    2.8891e+05 ;     C2 - H4    
     2     13   1    1.0962e-01    2.8891e+05 ;     C2 - H5    
     3      4   1    1.5354e-01    1.9154e+05 ;     C3 - C4    
     3     14   1    1.0962e-01    2.8891e+05 ;     C3 - H6    
     3     15   1    1.0962e-01    2.8891e+05 ;     C3 - H7    
     4      5   1    1.5354e-01    1.9154e+05 ;     C4 - C5    
     4     16   1    1.0962e-01    2.8891e+05 ;     C4 - H8    
     4     17   1    1.0962e-01    2.8891e+05 ;     C4 - H9    
     5      6   1    1.5232e-01    1.7705e+05 ;     C5 - N1    
     5     18   1    1.0969e-01    2.8804e+05 ;     C5 - H10   
     5     19   1    1.0969e-01    2.8804e+05 ;     C5 - H11   
     6      7   1    1.2311e-01    3.0270e+05 ;     N1 - O1    
     6      8   1    1.2311e-01    3.0270e+05 ;     N1 - O2    

[ pairs ]
;   ai     aj    funct
     1      4      1 ;     C1 - C4    
     1     14      1 ;     C1 - H6    
     1     15      1 ;     C1 - H7    
     2      5      1 ;     C2 - C5    
     2     16      1 ;     C2 - H8    
     2     17      1 ;     C2 - H9    
     3      6      1 ;     C3 - N1    
     3     18      1 ;     C3 - H10   
     3     19      1 ;     C3 - H11   
     4      7      1 ;     C4 - O1    
     4      8      1 ;     C4 - O2    
     4     12      1 ;     C4 - H4    
     4     13      1 ;     C4 - H5    
     5     14      1 ;     C5 - H6    
     5     15      1 ;     C5 - H7    
     6     16      1 ;     N1 - H8    
     6     17      1 ;     N1 - H9    
     7     18      1 ;     O1 - H10   
     7     19      1 ;     O1 - H11   
     8     18      1 ;     O2 - H10   
     8     19      1 ;     O2 - H11   
     9      3      1 ;     H1 - C3    
     9     12      1 ;     H1 - H4    
     9     13      1 ;     H1 - H5    
    10      3      1 ;     H2 - C3    
    10     12      1 ;     H2 - H4    
    10     13      1 ;     H2 - H5    
    11      3      1 ;     H3 - C3    
    11     12      1 ;     H3 - H4    
    11     13      1 ;     H3 - H5    
    12     14      1 ;     H4 - H6    
    12     15      1 ;     H4 - H7    
    13     14      1 ;     H5 - H6    
    13     15      1 ;     H5 - H7    
    14     16      1 ;     H6 - H8    
    14     17      1 ;     H6 - H9    
    15     16      1 ;     H7 - H8    
    15     17      1 ;     H7 - H9    
    16     18      1 ;     H8 - H10   
    16     19      1 ;     H8 - H11   
    17     18      1 ;     H9 - H10   
    17     19      1 ;     H9 - H11   

[ angles ]
;   ai     aj     ak    funct   theta         cth
     1      2      3      1    1.1263e+02    5.0099e+02 ;     C1 - C2     - C3    
     1      2     12      1    1.0968e+02    3.6208e+02 ;     C1 - C2     - H4    
     1      2     13      1    1.0968e+02    3.6208e+02 ;     C1 - C2     - H5    
     2      1      9      1    1.0968e+02    3.6208e+02 ;     C2 - C1     - H1    
     2      1     10      1    1.0968e+02    3.6208e+02 ;     C2 - C1     - H2    
     2      1     11      1    1.0968e+02    3.6208e+02 ;     C2 - C1     - H3    
     2      3      4      1    1.1263e+02    5.0099e+02 ;     C2 - C3     - C4    
     2      3     14      1    1.0968e+02    3.6208e+02 ;     C2 - C3     - H6    
     2      3     15      1    1.0968e+02    3.6208e+02 ;     C2 - C3     - H7    
     3      2     12      1    1.0968e+02    3.6208e+02 ;     C3 - C2     - H4    
     3      2     13      1    1.0968e+02    3.6208e+02 ;     C3 - C2     - H5    
     3      4      5      1    1.1263e+02    5.0099e+02 ;     C3 - C4     - C5    
     3      4     16      1    1.0968e+02    3.6208e+02 ;     C3 - C4     - H8    
     3      4     17      1    1.0968e+02    3.6208e+02 ;     C3 - C4     - H9    
     4      3     14      1    1.0968e+02    3.6208e+02 ;     C4 - C3     - H6    
     4      3     15      1    1.0968e+02    3.6208e+02 ;     C4 - C3     - H7    
     4      5      6      1    1.0962e+02    5.4124e+02 ;     C4 - C5     - N1    
     4      5     18      1    1.0959e+02    3.6217e+02 ;     C4 - C5     - H10   
     4      5     19      1    1.0959e+02    3.6217e+02 ;     C4 - C5     - H11   
     5      4     16      1    1.0968e+02    3.6208e+02 ;     C5 - C4     - H8    
     5      4     17      1    1.0968e+02    3.6208e+02 ;     C5 - C4     - H9    
     5      6      7      1    1.1693e+02    8.1027e+02 ;     C5 - N1     - O1    
     5      6      8      1    1.1693e+02    8.1027e+02 ;     C5 - N1     - O2    
     6      5     18      1    1.0556e+02    3.9455e+02 ;     N1 - C5     - H10   
     6      5     19      1    1.0556e+02    3.9455e+02 ;     N1 - C5     - H11   
     7      6      8      1    1.2505e+02    1.0964e+03 ;     O1 - N1     - O2    
     9      1     10      1    1.0773e+02    2.9957e+02 ;     H1 - C1     - H2    
     9      1     11      1    1.0773e+02    2.9957e+02 ;     H1 - C1     - H3    
    10      1     11      1    1.0773e+02    2.9957e+02 ;     H2 - C1     - H3    
    12      2     13      1    1.0773e+02    2.9957e+02 ;     H4 - C2     - H5    
    14      3     15      1    1.0773e+02    2.9957e+02 ;     H6 - C3     - H7    
    16      4     17      1    1.0773e+02    2.9957e+02 ;     H8 - C4     - H9    
    18      5     19      1    1.0855e+02    2.9824e+02 ;    H10 - C5     - H11   

[ dihedrals ] ; propers
; for gromacs 4.5 or higher, using funct 9
;    i      j      k      l   func   phase     kd      pn
     1      2      3      4      9     0.00   2.17568   3 ;     C1-    C2-    C3-    C4
     1      2      3     14      9     0.00   0.54392   3 ;     C1-    C2-    C3-    H6
     1      2      3     15      9     0.00   0.54392   3 ;     C1-    C2-    C3-    H7
     2      3      4      5      9     0.00   2.17568   3 ;     C2-    C3-    C4-    C5
     2      3      4     16      9     0.00   0.54392   3 ;     C2-    C3-    C4-    H8
     2      3      4     17      9     0.00   0.54392   3 ;     C2-    C3-    C4-    H9
     3      4      5      6      9     0.00   0.65084   3 ;     C3-    C4-    C5-    N1
     3      4      5     18      9     0.00   0.65084   3 ;     C3-    C4-    C5-   H10
     3      4      5     19      9     0.00   0.65084   3 ;     C3-    C4-    C5-   H11
     4      3      2     12      9     0.00   0.54392   3 ;     C4-    C3-    C2-    H4
     4      3      2     13      9     0.00   0.54392   3 ;     C4-    C3-    C2-    H5
     4      5      6      7      9     0.00   0.00000   0 ;     C4-    C5-    N1-    O1
     4      5      6      8      9     0.00   0.00000   0 ;     C4-    C5-    N1-    O2
     5      4      3     14      9     0.00   0.54392   3 ;     C5-    C4-    C3-    H6
     5      4      3     15      9     0.00   0.54392   3 ;     C5-    C4-    C3-    H7
     6      5      4     16      9     0.00   0.65084   3 ;     N1-    C5-    C4-    H8
     6      5      4     17      9     0.00   0.65084   3 ;     N1-    C5-    C4-    H9
     7      6      5     18      9     0.00   0.00000   0 ;     O1-    N1-    C5-   H10
     7      6      5     19      9     0.00   0.00000   0 ;     O1-    N1-    C5-   H11
     8      6      5     18      9     0.00   0.00000   0 ;     O2-    N1-    C5-   H10
     8      6      5     19      9     0.00   0.00000   0 ;     O2-    N1-    C5-   H11
     9      1      2      3      9     0.00   0.54392   3 ;     H1-    C1-    C2-    C3
     9      1      2     12      9     0.00   0.50208   3 ;     H1-    C1-    C2-    H4
     9      1      2     13      9     0.00   0.50208   3 ;     H1-    C1-    C2-    H5
    10      1      2      3      9     0.00   0.54392   3 ;     H2-    C1-    C2-    C3
    10      1      2     12      9     0.00   0.50208   3 ;     H2-    C1-    C2-    H4
    10      1      2     13      9     0.00   0.50208   3 ;     H2-    C1-    C2-    H5
    11      1      2      3      9     0.00   0.54392   3 ;     H3-    C1-    C2-    C3
    11      1      2     12      9     0.00   0.50208   3 ;     H3-    C1-    C2-    H4
    11      1      2     13      9     0.00   0.50208   3 ;     H3-    C1-    C2-    H5
    12      2      3     14      9     0.00   0.50208   3 ;     H4-    C2-    C3-    H6
    12      2      3     15      9     0.00   0.50208   3 ;     H4-    C2-    C3-    H7
    13      2      3     14      9     0.00   0.50208   3 ;     H5-    C2-    C3-    H6
    13      2      3     15      9     0.00   0.50208   3 ;     H5-    C2-    C3-    H7
    14      3      4     16      9     0.00   0.50208   3 ;     H6-    C3-    C4-    H8
    14      3      4     17      9     0.00   0.50208   3 ;     H6-    C3-    C4-    H9
    15      3      4     16      9     0.00   0.50208   3 ;     H7-    C3-    C4-    H8
    15      3      4     17      9     0.00   0.50208   3 ;     H7-    C3-    C4-    H9
    16      4      5     18      9     0.00   0.65084   3 ;     H8-    C4-    C5-   H10
    16      4      5     19      9     0.00   0.65084   3 ;     H8-    C4-    C5-   H11
    17      4      5     18      9     0.00   0.65084   3 ;     H9-    C4-    C5-   H10
    17      4      5     19      9     0.00   0.65084   3 ;     H9-    C4-    C5-   H11

[ dihedrals ] ; impropers
; treated as propers in GROMACS to use correct AMBER analytical function
;    i      j      k      l   func   phase     kd      pn
     5      7      6      8      4   180.00   4.60240   2 ;     C5-    O1-    N1-    O2
