mobley_4884177_GMX.gro created by acpype (v: 2023.10.27) on Thu May 14 13:46:09 2026
 1949
    1MOL     C1    1   1.205   1.398   1.185
    1MOL     C2    2   1.318   1.434   1.258
    1MOL     C3    3   1.119   1.303   1.240
    1MOL     C4    4   1.250   1.282   1.428
    1MOL     C5    5   1.341   1.376   1.381
    1MOL     C6    6   1.582   1.323   1.430
    1MOL     C7    7   1.461   1.412   1.462
    1MOL     N1    8   1.139   1.245   1.360
    1MOL     H1    9   1.184   1.442   1.088
    1MOL     H2   10   1.386   1.508   1.217
    1MOL     H3   11   1.030   1.272   1.187
    1MOL     H4   12   1.263   1.233   1.524
    1MOL     H5   13   1.559   1.218   1.451
    1MOL     H6   14   1.668   1.353   1.491
    1MOL     H7   15   1.610   1.331   1.325
    1MOL     H8   16   1.489   1.518   1.444
    1MOL     H9   17   1.439   1.406   1.570
    2SOL     OW   18   0.230   0.628   0.113
    2SOL    HW1   19   0.137   0.626   0.150
    2SOL    HW2   20   0.231   0.589   0.021
    3SOL     OW   21   0.225   0.275   0.996
    3SOL    HW1   22   0.260   0.258   1.088
    3SOL    HW2   23   0.137   0.230   0.984
    4SOL     OW   24   0.019   0.368   0.647
    4SOL    HW1   25  -0.063   0.411   0.686
    4SOL    HW2   26  -0.009   0.295   0.584
    5SOL     OW   27   0.569   1.275   1.165
    5SOL    HW1   28   0.476   1.268   1.128
    5SOL    HW2   29   0.580   1.364   1.209
    6SOL     OW   30   1.555   1.511   0.703
    6SOL    HW1   31   1.498   1.495   0.784
    6SOL    HW2   32   1.496   1.521   0.623
    7SOL     OW   33   1.135   0.703   0.717
    7SOL    HW1   34   1.192   0.781   0.692
    7SOL    HW2   35   1.075   0.729   0.793
    8SOL     OW   36   1.755   0.607   0.231
    8SOL    HW1   37   1.743   0.594   0.132
    8SOL    HW2   38   1.725   0.526   0.280
    9SOL     OW   39   0.768   1.144   1.023
    9SOL    HW1   40   0.690   1.161   1.083
    9SOL    HW2   41   0.802   1.231   0.987
   10SOL     OW   42   0.850   0.798   1.823
   10SOL    HW1   43   0.846   0.874   1.888
   10SOL    HW2   44   0.872   0.834   1.732
   11SOL     OW   45   0.685   1.012   0.665
   11SOL    HW1   46   0.754   0.996   0.735
   11SOL    HW2   47   0.612   1.069   0.703
   12SOL     OW   48   0.686   1.161   1.803
   12SOL    HW1   49   0.746   1.240   1.817
   12SOL    HW2   50   0.600   1.192   1.762
   13SOL     OW   51   0.335   1.435   1.061
   13SOL    HW1   52   0.257   1.404   1.008
   13SOL    HW2   53   0.393   1.493   1.004
   14SOL     OW   54   0.438   0.392   1.499
   14SOL    HW1   55   0.520   0.336   1.508
   14SOL    HW2   56   0.357   0.334   1.503
   15SOL     OW   57   1.603   0.447   0.737
   15SOL    HW1   58   1.529   0.493   0.687
   15SOL    HW2   59   1.654   0.515   0.790
   16SOL     OW   60   0.231   1.713   0.483
   16SOL    HW1   61   0.265   1.790   0.537
   16SOL    HW2   62   0.275   1.713   0.393
   17SOL     OW   63   1.127   1.341   1.690
   17SOL    HW1   64   1.174   1.341   1.778
   17SOL    HW2   65   1.079   1.254   1.679
   18SOL     OW   66   0.230   1.434   0.538
   18SOL    HW1   67   0.204   1.530   0.538
   18SOL    HW2   68   0.159   1.380   0.583
   19SOL     OW   69   0.240   1.091   0.886
   19SOL    HW1   70   0.254   1.007   0.938
   19SOL    HW2   71   0.185   1.155   0.941
   20SOL     OW   72   0.620   1.786   1.439
   20SOL    HW1   73   0.528   1.769   1.474
   20SOL    HW2   74   0.648   1.878   1.465
   21SOL     OW   75   0.606   0.964   0.123
   21SOL    HW1   76   0.613   1.048   0.069
   21SOL    HW2   77   0.652   0.977   0.211
   22SOL     OW   78   1.594   0.114   1.480
   22SOL    HW1   79   1.576   0.181   1.408
   22SOL    HW2   80   1.591   0.160   1.569
   23SOL     OW   81   0.122   0.643   0.563
   23SOL    HW1   82   0.077   0.555   0.580
   23SOL    HW2   83   0.121   0.697   0.647
   24SOL     OW   84   1.842   1.767   0.359
   24SOL    HW1   85   1.896   1.738   0.439
   24SOL    HW2   86   1.872   1.857   0.330
   25SOL     OW   87   0.027   1.596   0.117
   25SOL    HW1   88   0.008   1.500   0.138
   25SOL    HW2   89  -0.006   1.654   0.192
   26SOL     OW   90   1.689   0.922   0.612
   26SOL    HW1   91   1.784   0.893   0.620
   26SOL    HW2   92   1.681   0.987   0.537
   27SOL     OW   93   1.641   1.108   0.432
   27SOL    HW1   94   1.727   1.110   0.380
   27SOL    HW2   95   1.655   1.155   0.520
   28SOL     OW   96   0.113   0.737   1.597
   28SOL    HW1   97   0.201   0.724   1.642
   28SOL    HW2   98   0.100   0.834   1.575
   29SOL     OW   99   0.613   1.365   0.726
   29SOL    HW1  100   0.564   1.278   0.735
   29SOL    HW2  101   0.590   1.408   0.639
   30SOL     OW  102   0.809   0.004   0.502
   30SOL    HW1  103   0.849   0.095   0.493
   30SOL    HW2  104   0.709   0.012   0.508
   31SOL     OW  105   0.197   0.976   1.264
   31SOL    HW1  106   0.286   0.931   1.250
   31SOL    HW2  107   0.124   0.911   1.245
   32SOL     OW  108   1.525   0.999   0.190
   32SOL    HW1  109   1.462   0.923   0.203
   32SOL    HW2  110   1.573   1.017   0.276
   33SOL     OW  111   1.187   1.792   1.616
   33SOL    HW1  112   1.211   1.852   1.540
   33SOL    HW2  113   1.194   1.697   1.586
   34SOL     OW  114   0.317   0.251   1.801
   34SOL    HW1  115   0.388   0.322   1.807
   34SOL    HW2  116   0.229   0.290   1.829
   35SOL     OW  117   1.466   1.417   0.953
   35SOL    HW1  118   1.407   1.423   1.033
   35SOL    HW2  119   1.451   1.329   0.907
   36SOL     OW  120   1.667   1.714   0.572
   36SOL    HW1  121   1.626   1.691   0.484
   36SOL    HW2  122   1.649   1.640   0.637
   37SOL     OW  123   0.598   0.729   0.270
   37SOL    HW1  124   0.622   0.798   0.202
   37SOL    HW2  125   0.520   0.762   0.324
   38SOL     OW  126   1.281   0.345   0.944
   38SOL    HW1  127   1.195   0.295   0.931
   38SOL    HW2  128   1.343   0.291   1.000
   39SOL     OW  129   1.576   1.662   0.307
   39SOL    HW1  130   1.665   1.708   0.310
   39SOL    HW2  131   1.555   1.638   0.212
   40SOL     OW  132   0.807   0.605   1.465
   40SOL    HW1  133   0.760   0.602   1.554
   40SOL    HW2  134   0.756   0.550   1.399
   41SOL     OW  135   1.394   0.469   1.674
   41SOL    HW1  136   1.374   0.512   1.762
   41SOL    HW2  137   1.472   0.407   1.683
   42SOL     OW  138   0.973   0.890   1.572
   42SOL    HW1  139   1.019   0.806   1.543
   42SOL    HW2  140   0.917   0.924   1.497
   43SOL     OW  141   0.991   0.410   1.242
   43SOL    HW1  142   0.914   0.444   1.296
   43SOL    HW2  143   0.957   0.359   1.163
   44SOL     OW  144   1.041   0.701   0.429
   44SOL    HW1  145   1.067   0.697   0.525
   44SOL    HW2  146   0.956   0.650   0.415
   45SOL     OW  147   0.076   0.811   0.789
   45SOL    HW1  148   0.175   0.799   0.798
   45SOL    HW2  149   0.052   0.906   0.810
   46SOL     OW  150   0.130   1.821   1.571
   46SOL    HW1  151   0.120   1.806   1.670
   46SOL    HW2  152   0.044   1.857   1.535
   47SOL     OW  153   0.865   0.348   0.195
   47SOL    HW1  154   0.924   0.411   0.146
   47SOL    HW2  155   0.884   0.254   0.166
   48SOL     OW  156   1.719   0.585   1.831
   48SOL    HW1  157   1.693   0.674   1.795
   48SOL    HW2  158   1.717   0.517   1.758
   49SOL     OW  159   1.362   1.144   0.545
   49SOL    HW1  160   1.445   1.115   0.497
   49SOL    HW2  161   1.313   1.211   0.489
   50SOL     OW  162   0.550   0.196   0.885
   50SOL    HW1  163   0.545   0.191   0.985
   50SOL    HW2  164   0.552   0.292   0.856
   51SOL     OW  165   1.008   1.456   0.477
   51SOL    HW1  166   0.962   1.528   0.425
   51SOL    HW2  167   1.004   1.476   0.575
   52SOL     OW  168   0.351   1.801   0.853
   52SOL    HW1  169   0.401   1.715   0.859
   52SOL    HW2  170   0.416   1.878   0.850
   53SOL     OW  171   1.795   1.066   0.873
   53SOL    HW1  172   1.733   1.051   0.797
   53SOL    HW2  173   1.743   1.077   0.958
   54SOL     OW  174   1.227   1.550   1.506
   54SOL    HW1  175   1.233   1.473   1.570
   54SOL    HW2  176   1.175   1.524   1.426
   55SOL     OW  177   0.321   0.943   0.242
   55SOL    HW1  178   0.403   0.982   0.200
   55SOL    HW2  179   0.294   0.861   0.193
   56SOL     OW  180   1.458   0.735   0.728
   56SOL    HW1  181   1.453   0.670   0.803
   56SOL    HW2  182   1.538   0.794   0.741
   57SOL     OW  183   0.461   1.266   1.727
   57SOL    HW1  184   0.411   1.267   1.641
   57SOL    HW2  185   0.398   1.248   1.803
   58SOL     OW  186   1.111   1.776   0.237
   58SOL    HW1  187   1.051   1.714   0.287
   58SOL    HW2  188   1.142   1.732   0.152
   59SOL     OW  189   0.202   0.285   1.498
   59SOL    HW1  190   0.122   0.345   1.485
   59SOL    HW2  191   0.192   0.236   1.584
   60SOL     OW  192   1.632   1.377   0.081
   60SOL    HW1  193   1.600   1.471   0.071
   60SOL    HW2  194   1.556   1.314   0.069
   61SOL     OW  195   0.464   1.743   0.323
   61SOL    HW1  196   0.497   1.782   0.409
   61SOL    HW2  197   0.540   1.736   0.258
   62SOL     OW  198   1.400   0.107   0.426
   62SOL    HW1  199   1.376   0.070   0.336
   62SOL    HW2  200   1.499   0.123   0.430
   63SOL     OW  201   0.249   1.785   1.241
   63SOL    HW1  202   0.306   1.720   1.291
   63SOL    HW2  203   0.233   1.752   1.148
   64SOL     OW  204   0.940   1.698   0.904
   64SOL    HW1  205   1.020   1.641   0.925
   64SOL    HW2  206   0.891   1.658   0.827
   65SOL     OW  207   0.382   0.700   0.480
   65SOL    HW1  208   0.427   0.610   0.477
   65SOL    HW2  209   0.288   0.689   0.513
   66SOL     OW  210   1.547   0.222   1.729
   66SOL    HW1  211   1.542   0.259   1.821
   66SOL    HW2  212   1.475   0.153   1.717
   67SOL     OW  213   0.614   0.122   0.117
   67SOL    HW1  214   0.712   0.100   0.124
   67SOL    HW2  215   0.583   0.105   0.024
   68SOL     OW  216   0.781   0.264   1.749
   68SOL    HW1  217   0.848   0.203   1.792
   68SOL    HW2  218   0.708   0.283   1.814
   69SOL     OW  219   0.888   1.514   1.195
   69SOL    HW1  220   0.865   1.489   1.101
   69SOL    HW2  221   0.949   1.445   1.234
   70SOL     OW  222   1.351   0.590   1.433
   70SOL    HW1  223   1.379   0.547   1.518
   70SOL    HW2  224   1.376   0.686   1.434
   71SOL     OW  225   0.803   1.402   0.924
   71SOL    HW1  226   0.893   1.416   0.882
   71SOL    HW2  227   0.732   1.404   0.853
   72SOL     OW  228   0.922   0.503   0.899
   72SOL    HW1  229   0.897   0.494   0.803
   72SOL    HW2  230   0.970   0.421   0.930
   73SOL     OW  231   0.539   0.064   0.512
   73SOL    HW1  232   0.458   0.065   0.570
   73SOL    HW2  233   0.542   0.147   0.457
   74SOL     OW  234   1.434   1.188   0.041
   74SOL    HW1  235   1.466   1.112   0.098
   74SOL    HW2  236   1.342   1.215   0.071
   75SOL     OW  237   0.297   0.035   0.171
   75SOL    HW1  238   0.346   0.119   0.150
   75SOL    HW2  239   0.359  -0.030   0.216
   76SOL     OW  240   0.935   0.236   0.480
   76SOL    HW1  241   0.887   0.277   0.402
   76SOL    HW2  242   1.034   0.234   0.461
   77SOL     OW  243   1.076   0.683   1.464
   77SOL    HW1  244   0.996   0.622   1.467
   77SOL    HW2  245   1.157   0.630   1.440
   78SOL     OW  246   1.227   1.570   0.793
   78SOL    HW1  247   1.248   1.644   0.728
   78SOL    HW2  248   1.295   1.570   0.866
   79SOL     OW  249   0.459   1.152   0.741
   79SOL    HW1  250   0.388   1.125   0.806
   79SOL    HW2  251   0.433   1.124   0.648
   80SOL     OW  252   1.271   1.797   0.591
   80SOL    HW1  253   1.315   1.861   0.527
   80SOL    HW2  254   1.221   1.849   0.661
   81SOL     OW  255   1.032   0.549   0.016
   81SOL    HW1  256   0.991   0.631  -0.023
   81SOL    HW2  257   1.096   0.575   0.089
   82SOL     OW  258   0.078   0.556   1.386
   82SOL    HW1  259   0.170   0.555   1.345
   82SOL    HW2  260   0.072   0.630   1.453
   83SOL     OW  261   0.561   0.222   1.147
   83SOL    HW1  262   0.599   0.138   1.184
   83SOL    HW2  263   0.473   0.241   1.191
   84SOL     OW  264   0.866   0.454   0.642
   84SOL    HW1  265   0.834   0.526   0.580
   84SOL    HW2  266   0.890   0.373   0.589
   85SOL     OW  267   1.017   0.039   0.753
   85SOL    HW1  268   0.945   0.044   0.684
   85SOL    HW2  269   0.993  -0.030   0.822
   86SOL     OW  270   1.429   1.173   0.867
   86SOL    HW1  271   1.374   1.089   0.860
   86SOL    HW2  272   1.455   1.202   0.775
   87SOL     OW  273   1.466   0.590   0.992
   87SOL    HW1  274   1.436   0.495   0.999
   87SOL    HW2  275   1.539   0.606   1.058
   88SOL     OW  276   1.857   0.833   0.377
   88SOL    HW1  277   1.899   0.769   0.441
   88SOL    HW2  278   1.819   0.782   0.299
   89SOL     OW  279   0.488   1.385   0.174
   89SOL    HW1  280   0.401   1.370   0.221
   89SOL    HW2  281   0.471   1.411   0.079
   90SOL     OW  282   1.664   1.280   0.657
   90SOL    HW1  283   1.763   1.288   0.671
   90SOL    HW2  284   1.619   1.364   0.688
   91SOL     OW  285   1.390   0.575   0.078
   91SOL    HW1  286   1.336   0.554   0.159
   91SOL    HW2  287   1.481   0.534   0.087
   92SOL     OW  288   0.527   0.256   0.328
   92SOL    HW1  289   0.554   0.197   0.253
   92SOL    HW2  290   0.527   0.351   0.297
   93SOL     OW  291   1.754   1.223   1.588
   93SOL    HW1  292   1.845   1.184   1.575
   93SOL    HW2  293   1.762   1.319   1.612
   94SOL     OW  294   1.592   1.629   1.625
   94SOL    HW1  295   1.619   1.663   1.535
   94SOL    HW2  296   1.671   1.591   1.671
   95SOL     OW  297   1.638   1.099   1.079
   95SOL    HW1  298   1.643   1.180   1.138
   95SOL    HW2  299   1.552   1.101   1.028
   96SOL     OW  300   0.915   0.089   1.402
   96SOL    HW1  301   0.940   0.069   1.307
   96SOL    HW2  302   0.987   0.145   1.444
   97SOL     OW  303   0.980   1.116   1.719
   97SOL    HW1  304   0.881   1.122   1.729
   97SOL    HW2  305   1.003   1.036   1.663
   98SOL     OW  306   0.705   1.050   0.368
   98SOL    HW1  307   0.691   1.057   0.467
   98SOL    HW2  308   0.789   0.999   0.350
   99SOL     OW  309   0.410   0.813   1.251
   99SOL    HW1  310   0.496   0.825   1.301
   99SOL    HW2  311   0.368   0.726   1.278
  100SOL     OW  312   1.274   0.386   1.262
  100SOL    HW1  313   1.295   0.460   1.326
  100SOL    HW2  314   1.185   0.403   1.219
  101SOL     OW  315   0.064   1.564   1.331
  101SOL    HW1  316   0.018   1.646   1.297
  101SOL    HW2  317   0.162   1.583   1.340
  102SOL     OW  318   0.367   1.100   0.501
  102SOL    HW1  319   0.360   1.183   0.445
  102SOL    HW2  320   0.371   1.020   0.441
  103SOL     OW  321   0.566   0.537   0.865
  103SOL    HW1  322   0.578   0.603   0.791
  103SOL    HW2  323   0.612   0.571   0.948
  104SOL     OW  324   1.252   1.348   0.388
  104SOL    HW1  325   1.302   1.425   0.428
  104SOL    HW2  326   1.157   1.350   0.420
  105SOL     OW  327   1.582   0.639   0.472
  105SOL    HW1  328   1.551   0.700   0.545
  105SOL    HW2  329   1.632   0.691   0.403
  106SOL     OW  330   0.354   1.510   1.329
  106SOL    HW1  331   0.333   1.466   1.242
  106SOL    HW2  332   0.451   1.536   1.332
  107SOL     OW  333   0.402   0.751   1.598
  107SOL    HW1  334   0.470   0.806   1.551
  107SOL    HW2  335   0.442   0.663   1.625
  108SOL     OW  336   1.587   0.779   1.670
  108SOL    HW1  337   1.495   0.817   1.665
  108SOL    HW2  338   1.647   0.826   1.605
  109SOL     OW  339   1.013   0.105   1.770
  109SOL    HW1  340   1.019   0.190   1.718
  109SOL    HW2  341   1.045   0.029   1.713
  110SOL     OW  342   0.504   0.050   1.740
  110SOL    HW1  343   0.462  -0.007   1.670
  110SOL    HW2  344   0.438   0.119   1.772
  111SOL     OW  345   0.573   0.870   1.029
  111SOL    HW1  346   0.617   0.959   1.020
  111SOL    HW2  347   0.510   0.870   1.106
  112SOL     OW  348   1.360   0.862   1.045
  112SOL    HW1  349   1.285   0.862   0.979
  112SOL    HW2  350   1.397   0.770   1.054
  113SOL     OW  351   1.209   0.525   0.275
  113SOL    HW1  352   1.222   0.441   0.329
  113SOL    HW2  353   1.180   0.599   0.335
  114SOL     OW  354   0.307   0.213   1.231
  114SOL    HW1  355   0.284   0.250   1.321
  114SOL    HW2  356   0.277   0.118   1.225
  115SOL     OW  357   0.037   1.310   1.282
  115SOL    HW1  358   0.090   1.261   1.350
  115SOL    HW2  359   0.059   1.408   1.287
  116SOL     OW  360   0.732   0.634   1.064
  116SOL    HW1  361   0.791   0.608   0.988
  116SOL    HW2  362   0.704   0.730   1.053
  117SOL     OW  363   1.728   0.935   1.854
  117SOL    HW1  364   1.682   0.928   1.765
  117SOL    HW2  365   1.666   0.979   1.920
  118SOL     OW  366   0.307   0.063   0.618
  118SOL    HW1  367   0.296   0.157   0.651
  118SOL    HW2  368   0.302   0.000   0.695
  119SOL     OW  369   1.622   0.367   0.374
  119SOL    HW1  370   1.624   0.291   0.438
  119SOL    HW2  371   1.574   0.444   0.414
  120SOL     OW  372   1.023   0.766   0.966
  120SOL    HW1  373   1.038   0.787   1.062
  120SOL    HW2  374   0.993   0.671   0.957
  121SOL     OW  375   0.980   1.573   1.700
  121SOL    HW1  376   0.960   1.617   1.612
  121SOL    HW2  377   1.019   1.482   1.684
  122SOL     OW  378   1.859   1.518   1.605
  122SOL    HW1  379   1.873   1.545   1.510
  122SOL    HW2  380   1.942   1.540   1.658
  123SOL     OW  381   0.350   0.898   1.804
  123SOL    HW1  382   0.426   0.942   1.852
  123SOL    HW2  383   0.385   0.851   1.722
  124SOL     OW  384   1.540   0.274   0.125
  124SOL    HW1  385   1.479   0.199   0.148
  124SOL    HW2  386   1.562   0.326   0.208
  125SOL     OW  387   1.303   0.838   0.042
  125SOL    HW1  388   1.337   0.745   0.057
  125SOL    HW2  389   1.321   0.865  -0.053
  126SOL     OW  390   1.068   1.333   0.849
  126SOL    HW1  391   1.075   1.249   0.794
  126SOL    HW2  392   1.130   1.402   0.813
  127SOL     OW  393   0.319   0.810   0.949
  127SOL    HW1  394   0.412   0.846   0.954
  127SOL    HW2  395   0.313   0.725   1.001
  128SOL     OW  396   0.339   0.509   1.006
  128SOL    HW1  397   0.287   0.426   0.989
  128SOL    HW2  398   0.416   0.514   0.942
  129SOL     OW  399   1.138   0.380   1.678
  129SOL    HW1  400   1.093   0.443   1.742
  129SOL    HW2  401   1.231   0.411   1.661
  130SOL     OW  402   1.160   0.207   1.477
  130SOL    HW1  403   1.160   0.271   1.554
  130SOL    HW2  404   1.188   0.255   1.394
  131SOL     OW  405   0.008   1.326   0.200
  131SOL    HW1  406  -0.085   1.347   0.169
  131SOL    HW2  407   0.018   1.227   0.213
  132SOL     OW  408   0.088   1.801   0.927
  132SOL    HW1  409   0.046   1.715   0.900
  132SOL    HW2  410   0.182   1.804   0.893
  133SOL     OW  411   0.504   1.568   0.910
  133SOL    HW1  412   0.570   1.642   0.919
  133SOL    HW2  413   0.548   1.489   0.868
  134SOL     OW  414   1.002   0.796   1.238
  134SOL    HW1  415   1.043   0.764   1.324
  134SOL    HW2  416   0.906   0.769   1.235
  135SOL     OW  417   0.040   0.544   1.114
  135SOL    HW1  418   0.125   0.511   1.073
  135SOL    HW2  419   0.053   0.559   1.212
  136SOL     OW  420   0.189   0.520   1.722
  136SOL    HW1  421   0.248   0.480   1.652
  136SOL    HW2  422   0.131   0.591   1.681
  137SOL     OW  423   1.369   0.950   1.660
  137SOL    HW1  424   1.408   1.039   1.680
  137SOL    HW2  425   1.379   0.930   1.563
  138SOL     OW  426   0.815   0.572   0.325
  138SOL    HW1  427   0.822   0.483   0.279
  138SOL    HW2  428   0.721   0.606   0.317
  139SOL     OW  429   1.657   0.604   1.206
  139SOL    HW1  430   1.619   0.535   1.268
  139SOL    HW2  431   1.739   0.568   1.162
  140SOL     OW  432   0.252   1.564   1.744
  140SOL    HW1  433   0.222   1.621   1.820
  140SOL    HW2  434   0.245   1.467   1.770
  141SOL     OW  435   0.671   0.464   1.269
  141SOL    HW1  436   0.637   0.375   1.239
  141SOL    HW2  437   0.697   0.518   1.189
  142SOL     OW  438   0.930   1.678   1.465
  142SOL    HW1  439   0.906   1.660   1.370
  142SOL    HW2  440   0.960   1.772   1.475
  143SOL     OW  441   0.473   0.500   0.191
  143SOL    HW1  442   0.534   0.580   0.195
  143SOL    HW2  443   0.378   0.531   0.198
  144SOL     OW  444   0.159   1.137   1.466
  144SOL    HW1  445   0.181   1.076   1.542
  144SOL    HW2  446   0.169   1.088   1.380
  145SOL     OW  447   1.347   1.059   1.234
  145SOL    HW1  448   1.371   0.996   1.160
  145SOL    HW2  449   1.257   1.099   1.216
  146SOL     OW  450   1.302   0.855   0.309
  146SOL    HW1  451   1.216   0.824   0.351
  146SOL    HW2  452   1.298   0.841   0.210
  147SOL     OW  453   1.759   1.747   1.154
  147SOL    HW1  454   1.820   1.777   1.081
  147SOL    HW2  455   1.721   1.658   1.132
  148SOL     OW  456   1.252   1.731   1.128
  148SOL    HW1  457   1.336   1.736   1.074
  148SOL    HW2  458   1.229   1.635   1.146
  149SOL     OW  459   0.083   1.258   1.022
  149SOL    HW1  460   0.078   1.257   1.122
  149SOL    HW2  461   0.000   1.217   0.984
  150SOL     OW  462   0.688   1.662   1.716
  150SOL    HW1  463   0.632   1.743   1.725
  150SOL    HW2  464   0.740   1.666   1.630
  151SOL     OW  465   0.903   0.086   0.133
  151SOL    HW1  466   0.954   0.087   0.047
  151SOL    HW2  467   0.959   0.044   0.204
  152SOL     OW  468   1.726   0.135   0.523
  152SOL    HW1  469   1.799   0.118   0.456
  152SOL    HW2  470   1.695   0.048   0.561
  153SOL     OW  471   1.388   1.573   0.477
  153SOL    HW1  472   1.455   1.585   0.403
  153SOL    HW2  473   1.348   1.662   0.500
  154SOL     OW  474   0.130   1.794   1.851
  154SOL    HW1  475   0.089   1.720   1.904
  154SOL    HW2  476   0.194   1.845   1.909
  155SOL     OW  477   1.280   0.927   0.672
  155SOL    HW1  478   1.340   0.846   0.674
  155SOL    HW2  479   1.320   0.996   0.612
  156SOL     OW  480   0.830   1.273   1.422
  156SOL    HW1  481   0.825   1.306   1.517
  156SOL    HW2  482   0.744   1.292   1.376
  157SOL     OW  483   0.672   1.616   0.154
  157SOL    HW1  484   0.681   1.626   0.055
  157SOL    HW2  485   0.632   1.527   0.175
  158SOL     OW  486   1.650   1.720   1.394
  158SOL    HW1  487   1.703   1.730   1.310
  158SOL    HW2  488   1.623   1.810   1.428
  159SOL     OW  489   1.841   0.175   0.963
  159SOL    HW1  490   1.880   0.090   0.927
  159SOL    HW2  491   1.743   0.177   0.944
  160SOL     OW  492   0.263   0.326   0.720
  160SOL    HW1  493   0.184   0.377   0.686
  160SOL    HW2  494   0.254   0.311   0.818
  161SOL     OW  495   1.194   1.612   0.031
  161SOL    HW1  496   1.200   1.519   0.068
  161SOL    HW2  497   1.135   1.612  -0.049
  162SOL     OW  498   0.822   1.002   1.372
  162SOL    HW1  499   0.862   1.001   1.280
  162SOL    HW2  500   0.832   1.094   1.412
  163SOL     OW  501   0.916   0.910   0.291
  163SOL    HW1  502   0.979   0.948   0.223
  163SOL    HW2  503   0.956   0.827   0.330
  164SOL     OW  504   1.504   1.607   0.044
  164SOL    HW1  505   1.412   1.644   0.051
  164SOL    HW2  506   1.542   1.627  -0.046
  165SOL     OW  507   0.372   1.288   1.490
  165SOL    HW1  508   0.359   1.381   1.456
  165SOL    HW2  509   0.288   1.236   1.477
  166SOL     OW  510   1.039   1.098   0.696
  166SOL    HW1  511   0.969   1.051   0.750
  166SOL    HW2  512   1.098   1.030   0.653
  167SOL     OW  513   1.014   0.236   0.971
  167SOL    HW1  514   1.006   0.200   0.878
  167SOL    HW2  515   1.012   0.160   1.036
  168SOL     OW  516   0.590   1.487   0.491
  168SOL    HW1  517   0.632   1.429   0.421
  168SOL    HW2  518   0.546   1.566   0.447
  169SOL     OW  519   1.709   0.385   1.381
  169SOL    HW1  520   1.782   0.454   1.385
  169SOL    HW2  521   1.737   0.310   1.322
  170SOL     OW  522   0.255   1.348   0.290
  170SOL    HW1  523   0.159   1.349   0.263
  170SOL    HW2  524   0.267   1.401   0.374
  171SOL     OW  525   0.105   1.013   1.726
  171SOL    HW1  526   0.028   0.980   1.780
  171SOL    HW2  527   0.190   0.983   1.768
  172SOL     OW  528   0.672   0.203   1.489
  172SOL    HW1  529   0.762   0.187   1.449
  172SOL    HW2  530   0.680   0.208   1.588
  173SOL     OW  531   0.075   0.345   0.033
  173SOL    HW1  532  -0.017   0.317   0.004
  173SOL    HW2  533   0.106   0.422  -0.023
  174SOL     OW  534   1.440   0.856   1.398
  174SOL    HW1  535   1.383   0.908   1.335
  174SOL    HW2  536   1.536   0.868   1.374
  175SOL     OW  537   0.072   0.166   0.318
  175SOL    HW1  538   0.055   0.249   0.264
  175SOL    HW2  539   0.162   0.129   0.296
  176SOL     OW  540   1.183   1.335   0.119
  176SOL    HW1  541   1.084   1.324   0.121
  176SOL    HW2  542   1.217   1.350   0.212
  177SOL     OW  543   0.613   0.842   1.431
  177SOL    HW1  544   0.669   0.923   1.414
  177SOL    HW2  545   0.672   0.762   1.434
  178SOL     OW  546   1.493   1.767   0.959
  178SOL    HW1  547   1.526   1.831   0.890
  178SOL    HW2  548   1.559   1.761   1.034
  179SOL     OW  549   0.716   0.565   1.708
  179SOL    HW1  550   0.735   0.630   1.782
  179SOL    HW2  551   0.776   0.485   1.717
  180SOL     OW  552   1.450   1.220   1.633
  180SOL    HW1  553   1.441   1.210   1.732
  180SOL    HW2  554   1.546   1.213   1.607
  181SOL     OW  555   0.390   1.741   1.560
  181SOL    HW1  556   0.299   1.782   1.558
  181SOL    HW2  557   0.383   1.647   1.592
  182SOL     OW  558   1.674   0.883   1.254
  182SOL    HW1  559   1.647   0.794   1.217
  182SOL    HW2  560   1.675   0.951   1.181
  183SOL     OW  561   1.225   0.325   0.449
  183SOL    HW1  562   1.290   0.251   0.438
  183SOL    HW2  563   1.245   0.375   0.533
  184SOL     OW  564   0.594   0.745   0.652
  184SOL    HW1  565   0.644   0.830   0.633
  184SOL    HW2  566   0.506   0.747   0.604
  185SOL     OW  567   1.777   0.342   1.642
  185SOL    HW1  568   1.760   0.373   1.548
  185SOL    HW2  569   1.693   0.305   1.680
  186SOL     OW  570   1.730   0.934   1.517
  186SOL    HW1  571   1.768   1.025   1.532
  186SOL    HW2  572   1.722   0.917   1.418
  187SOL     OW  573   0.859   1.374   0.016
  187SOL    HW1  574   0.813   1.389   0.104
  187SOL    HW2  575   0.903   1.459  -0.014
  188SOL     OW  576   0.661   1.790   0.953
  188SOL    HW1  577   0.615   1.878   0.940
  188SOL    HW2  578   0.760   1.802   0.946
  189SOL     OW  579   0.859   0.956   0.861
  189SOL    HW1  580   0.913   0.887   0.909
  189SOL    HW2  581   0.827   1.025   0.927
  190SOL     OW  582   1.083   0.984   0.087
  190SOL    HW1  583   1.060   1.037   0.005
  190SOL    HW2  584   1.164   0.928   0.068
  191SOL     OW  585   1.861   1.569   0.851
  191SOL    HW1  586   1.790   1.557   0.781
  191SOL    HW2  587   1.862   1.490   0.911
  192SOL     OW  588   0.221   1.314   1.844
  192SOL    HW1  589   0.156   1.241   1.823
  192SOL    HW2  590   0.225   1.328   1.942
  193SOL     OW  591   0.079   1.240   0.653
  193SOL    HW1  592   0.078   1.193   0.741
  193SOL    HW2  593   0.161   1.212   0.602
  194SOL     OW  594   0.672   1.391   1.624
  194SOL    HW1  595   0.594   1.341   1.662
  194SOL    HW2  596   0.669   1.486   1.655
  195SOL     OW  597   1.824   0.192   1.227
  195SOL    HW1  598   1.820   0.102   1.271
  195SOL    HW2  599   1.827   0.181   1.128
  196SOL     OW  600   0.428   0.424   0.520
  196SOL    HW1  601   0.458   0.352   0.458
  196SOL    HW2  602   0.389   0.384   0.603
  197SOL     OW  603   1.705   1.487   1.104
  197SOL    HW1  604   1.612   1.462   1.077
  197SOL    HW2  605   1.731   1.437   1.186
  198SOL     OW  606   0.317   0.547   1.280
  198SOL    HW1  607   0.355   0.488   1.352
  198SOL    HW2  608   0.357   0.521   1.192
  199SOL     OW  609   0.812   1.586   0.687
  199SOL    HW1  610   0.844   1.596   0.593
  199SOL    HW2  611   0.733   1.524   0.689
  200SOL     OW  612   1.424   0.214   1.112
  200SOL    HW1  613   1.476   0.149   1.167
  200SOL    HW2  614   1.375   0.277   1.173
  201SOL     OW  615   1.001   0.034   1.154
  201SOL    HW1  616   0.938  -0.038   1.123
  201SOL    HW2  617   1.094  -0.002   1.154
  202SOL     OW  618   0.770   1.330   0.301
  202SOL    HW1  619   0.724   1.243   0.318
  202SOL    HW2  620   0.861   1.327   0.342
  203SOL     OW  621   0.618   1.567   1.284
  203SOL    HW1  622   0.613   1.649   1.341
  203SOL    HW2  623   0.707   1.564   1.239
  204SOL     OW  624   1.352   0.052   0.168
  204SOL    HW1  625   1.387   0.011   0.084
  204SOL    HW2  626   1.262   0.014   0.188
  205SOL     OW  627   1.300   0.453   0.691
  205SOL    HW1  628   1.241   0.533   0.695
  205SOL    HW2  629   1.315   0.418   0.784
  206SOL     OW  630   1.593   0.221   0.882
  206SOL    HW1  631   1.509   0.220   0.936
  206SOL    HW2  632   1.595   0.304   0.826
  207SOL     OW  633   0.039   1.077   0.300
  207SOL    HW1  634   0.138   1.066   0.291
  207SOL    HW2  635  -0.001   0.991   0.332
  208SOL     OW  636   0.875   1.646   0.337
  208SOL    HW1  637   0.798   1.611   0.283
  208SOL    HW2  638   0.843   1.717   0.399
  209SOL     OW  639   0.230   0.628   1.975
  209SOL    HW1  640   0.137   0.626   2.012
  209SOL    HW2  641   0.231   0.589   1.883
  210SOL     OW  642   0.225   0.275   2.858
  210SOL    HW1  643   0.260   0.258   2.950
  210SOL    HW2  644   0.137   0.230   2.846
  211SOL     OW  645   0.019   0.368   2.509
  211SOL    HW1  646  -0.063   0.411   2.548
  211SOL    HW2  647  -0.009   0.295   2.446
  212SOL     OW  648   1.755   0.607   2.093
  212SOL    HW1  649   1.743   0.594   1.994
  212SOL    HW2  650   1.725   0.526   2.142
  213SOL     OW  651   0.685   1.012   2.527
  213SOL    HW1  652   0.754   0.996   2.597
  213SOL    HW2  653   0.612   1.069   2.565
  214SOL     OW  654   1.603   0.447   2.599
  214SOL    HW1  655   1.529   0.493   2.549
  214SOL    HW2  656   1.654   0.515   2.652
  215SOL     OW  657   0.231   1.713   2.345
  215SOL    HW1  658   0.265   1.790   2.399
  215SOL    HW2  659   0.275   1.713   2.255
  216SOL     OW  660   0.230   1.434   2.400
  216SOL    HW1  661   0.204   1.530   2.400
  216SOL    HW2  662   0.159   1.380   2.445
  217SOL     OW  663   0.240   1.091   2.748
  217SOL    HW1  664   0.254   1.007   2.800
  217SOL    HW2  665   0.185   1.155   2.803
  218SOL     OW  666   0.606   0.964   1.985
  218SOL    HW1  667   0.613   1.048   1.931
  218SOL    HW2  668   0.652   0.977   2.073
  219SOL     OW  669   0.122   0.643   2.425
  219SOL    HW1  670   0.077   0.555   2.442
  219SOL    HW2  671   0.121   0.697   2.509
  220SOL     OW  672   1.842   1.767   2.221
  220SOL    HW1  673   1.896   1.738   2.301
  220SOL    HW2  674   1.872   1.857   2.192
  221SOL     OW  675   0.027   1.596   1.979
  221SOL    HW1  676   0.008   1.500   2.000
  221SOL    HW2  677  -0.006   1.654   2.054
  222SOL     OW  678   1.689   0.922   2.474
  222SOL    HW1  679   1.784   0.893   2.482
  222SOL    HW2  680   1.681   0.987   2.399
  223SOL     OW  681   1.641   1.108   2.294
  223SOL    HW1  682   1.727   1.110   2.242
  223SOL    HW2  683   1.655   1.155   2.382
  224SOL     OW  684   0.613   1.365   2.588
  224SOL    HW1  685   0.564   1.278   2.597
  224SOL    HW2  686   0.590   1.408   2.501
  225SOL     OW  687   0.809   0.004   2.364
  225SOL    HW1  688   0.849   0.095   2.355
  225SOL    HW2  689   0.709   0.012   2.370
  226SOL     OW  690   1.525   0.999   2.052
  226SOL    HW1  691   1.462   0.923   2.065
  226SOL    HW2  692   1.573   1.017   2.138
  227SOL     OW  693   1.667   1.714   2.434
  227SOL    HW1  694   1.626   1.691   2.346
  227SOL    HW2  695   1.649   1.640   2.499
  228SOL     OW  696   0.598   0.729   2.132
  228SOL    HW1  697   0.622   0.798   2.064
  228SOL    HW2  698   0.520   0.762   2.186
  229SOL     OW  699   1.281   0.345   2.806
  229SOL    HW1  700   1.195   0.295   2.793
  229SOL    HW2  701   1.343   0.291   2.862
  230SOL     OW  702   1.576   1.662   2.169
  230SOL    HW1  703   1.665   1.708   2.172
  230SOL    HW2  704   1.555   1.638   2.074
  231SOL     OW  705   1.041   0.701   2.291
  231SOL    HW1  706   1.067   0.697   2.387
  231SOL    HW2  707   0.956   0.650   2.277
  232SOL     OW  708   0.076   0.811   2.651
  232SOL    HW1  709   0.175   0.799   2.660
  232SOL    HW2  710   0.052   0.906   2.672
  233SOL     OW  711   0.865   0.348   2.057
  233SOL    HW1  712   0.924   0.411   2.008
  233SOL    HW2  713   0.884   0.254   2.028
  234SOL     OW  714   1.362   1.144   2.407
  234SOL    HW1  715   1.445   1.115   2.359
  234SOL    HW2  716   1.313   1.211   2.351
  235SOL     OW  717   1.008   1.456   2.339
  235SOL    HW1  718   0.962   1.528   2.287
  235SOL    HW2  719   1.004   1.476   2.437
  236SOL     OW  720   0.351   1.801   2.715
  236SOL    HW1  721   0.401   1.715   2.721
  236SOL    HW2  722   0.416   1.878   2.712
  237SOL     OW  723   1.795   1.066   2.735
  237SOL    HW1  724   1.733   1.051   2.659
  237SOL    HW2  725   1.743   1.077   2.820
  238SOL     OW  726   0.321   0.943   2.104
  238SOL    HW1  727   0.403   0.982   2.062
  238SOL    HW2  728   0.294   0.861   2.055
  239SOL     OW  729   1.458   0.735   2.590
  239SOL    HW1  730   1.453   0.670   2.665
  239SOL    HW2  731   1.538   0.794   2.603
  240SOL     OW  732   1.111   1.776   2.099
  240SOL    HW1  733   1.051   1.714   2.149
  240SOL    HW2  734   1.142   1.732   2.014
  241SOL     OW  735   1.632   1.377   1.943
  241SOL    HW1  736   1.600   1.471   1.933
  241SOL    HW2  737   1.556   1.314   1.931
  242SOL     OW  738   0.464   1.743   2.185
  242SOL    HW1  739   0.497   1.782   2.271
  242SOL    HW2  740   0.540   1.736   2.120
  243SOL     OW  741   1.400   0.107   2.288
  243SOL    HW1  742   1.376   0.070   2.198
  243SOL    HW2  743   1.499   0.123   2.292
  244SOL     OW  744   0.940   1.698   2.766
  244SOL    HW1  745   1.020   1.641   2.787
  244SOL    HW2  746   0.891   1.658   2.689
  245SOL     OW  747   0.382   0.700   2.342
  245SOL    HW1  748   0.427   0.610   2.339
  245SOL    HW2  749   0.288   0.689   2.375
  246SOL     OW  750   0.614   0.122   1.979
  246SOL    HW1  751   0.712   0.100   1.986
  246SOL    HW2  752   0.583   0.105   1.886
  247SOL     OW  753   0.539   0.064   2.374
  247SOL    HW1  754   0.458   0.065   2.432
  247SOL    HW2  755   0.542   0.147   2.319
  248SOL     OW  756   1.434   1.188   1.903
  248SOL    HW1  757   1.466   1.112   1.960
  248SOL    HW2  758   1.342   1.215   1.933
  249SOL     OW  759   0.297   0.035   2.033
  249SOL    HW1  760   0.346   0.119   2.012
  249SOL    HW2  761   0.359  -0.030   2.078
  250SOL     OW  762   0.935   0.236   2.342
  250SOL    HW1  763   0.887   0.277   2.264
  250SOL    HW2  764   1.034   0.234   2.323
  251SOL     OW  765   0.459   1.152   2.603
  251SOL    HW1  766   0.388   1.125   2.668
  251SOL    HW2  767   0.433   1.124   2.510
  252SOL     OW  768   1.271   1.797   2.453
  252SOL    HW1  769   1.315   1.861   2.389
  252SOL    HW2  770   1.221   1.849   2.523
  253SOL     OW  771   1.032   0.549   1.878
  253SOL    HW1  772   0.991   0.631   1.839
  253SOL    HW2  773   1.096   0.575   1.951
  254SOL     OW  774   0.866   0.454   2.504
  254SOL    HW1  775   0.834   0.526   2.442
  254SOL    HW2  776   0.890   0.373   2.451
  255SOL     OW  777   1.017   0.039   2.615
  255SOL    HW1  778   0.945   0.044   2.546
  255SOL    HW2  779   0.993  -0.030   2.684
  256SOL     OW  780   1.857   0.833   2.239
  256SOL    HW1  781   1.899   0.769   2.303
  256SOL    HW2  782   1.819   0.782   2.161
  257SOL     OW  783   0.488   1.385   2.036
  257SOL    HW1  784   0.401   1.370   2.083
  257SOL    HW2  785   0.471   1.411   1.941
  258SOL     OW  786   1.664   1.280   2.519
  258SOL    HW1  787   1.763   1.288   2.533
  258SOL    HW2  788   1.619   1.364   2.550
  259SOL     OW  789   1.390   0.575   1.940
  259SOL    HW1  790   1.336   0.554   2.021
  259SOL    HW2  791   1.481   0.534   1.949
  260SOL     OW  792   0.527   0.256   2.190
  260SOL    HW1  793   0.554   0.197   2.115
  260SOL    HW2  794   0.527   0.351   2.159
  261SOL     OW  795   0.705   1.050   2.230
  261SOL    HW1  796   0.691   1.057   2.329
  261SOL    HW2  797   0.789   0.999   2.212
  262SOL     OW  798   0.367   1.100   2.363
  262SOL    HW1  799   0.360   1.183   2.307
  262SOL    HW2  800   0.371   1.020   2.303
  263SOL     OW  801   1.252   1.348   2.250
  263SOL    HW1  802   1.302   1.425   2.290
  263SOL    HW2  803   1.157   1.350   2.282
  264SOL     OW  804   1.582   0.639   2.334
  264SOL    HW1  805   1.551   0.700   2.407
  264SOL    HW2  806   1.632   0.691   2.265
  265SOL     OW  807   1.209   0.525   2.137
  265SOL    HW1  808   1.222   0.441   2.191
  265SOL    HW2  809   1.180   0.599   2.197
  266SOL     OW  810   0.307   0.063   2.480
  266SOL    HW1  811   0.296   0.157   2.513
  266SOL    HW2  812   0.302   0.000   2.557
  267SOL     OW  813   1.622   0.367   2.236
  267SOL    HW1  814   1.624   0.291   2.300
  267SOL    HW2  815   1.574   0.444   2.276
  268SOL     OW  816   1.540   0.274   1.987
  268SOL    HW1  817   1.479   0.199   2.010
  268SOL    HW2  818   1.562   0.326   2.070
  269SOL     OW  819   1.303   0.838   1.904
  269SOL    HW1  820   1.337   0.745   1.919
  269SOL    HW2  821   1.321   0.865   1.809
  270SOL     OW  822   0.008   1.326   2.062
  270SOL    HW1  823  -0.085   1.347   2.031
  270SOL    HW2  824   0.018   1.227   2.075
  271SOL     OW  825   0.040   0.544   2.976
  271SOL    HW1  826   0.125   0.511   2.935
  271SOL    HW2  827   0.053   0.559   3.074
  272SOL     OW  828   0.815   0.572   2.187
  272SOL    HW1  829   0.822   0.483   2.141
  272SOL    HW2  830   0.721   0.606   2.179
  273SOL     OW  831   0.473   0.500   2.053
  273SOL    HW1  832   0.534   0.580   2.057
  273SOL    HW2  833   0.378   0.531   2.060
  274SOL     OW  834   1.302   0.855   2.171
  274SOL    HW1  835   1.216   0.824   2.213
  274SOL    HW2  836   1.298   0.841   2.072
  275SOL     OW  837   1.726   0.135   2.385
  275SOL    HW1  838   1.799   0.118   2.318
  275SOL    HW2  839   1.695   0.048   2.423
  276SOL     OW  840   1.388   1.573   2.339
  276SOL    HW1  841   1.455   1.585   2.265
  276SOL    HW2  842   1.348   1.662   2.362
  277SOL     OW  843   0.672   1.616   2.016
  277SOL    HW1  844   0.681   1.626   1.917
  277SOL    HW2  845   0.632   1.527   2.037
  278SOL     OW  846   1.841   0.175   2.825
  278SOL    HW1  847   1.880   0.090   2.789
  278SOL    HW2  848   1.743   0.177   2.806
  279SOL     OW  849   0.263   0.326   2.582
  279SOL    HW1  850   0.184   0.377   2.548
  279SOL    HW2  851   0.254   0.311   2.680
  280SOL     OW  852   1.194   1.612   1.893
  280SOL    HW1  853   1.200   1.519   1.930
  280SOL    HW2  854   1.135   1.612   1.813
  281SOL     OW  855   0.916   0.910   2.153
  281SOL    HW1  856   0.979   0.948   2.085
  281SOL    HW2  857   0.956   0.827   2.192
  282SOL     OW  858   1.504   1.607   1.906
  282SOL    HW1  859   1.412   1.644   1.913
  282SOL    HW2  860   1.542   1.627   1.816
  283SOL     OW  861   1.039   1.098   2.558
  283SOL    HW1  862   0.969   1.051   2.612
  283SOL    HW2  863   1.098   1.030   2.515
  284SOL     OW  864   0.590   1.487   2.353
  284SOL    HW1  865   0.632   1.429   2.283
  284SOL    HW2  866   0.546   1.566   2.309
  285SOL     OW  867   0.255   1.348   2.152
  285SOL    HW1  868   0.159   1.349   2.125
  285SOL    HW2  869   0.267   1.401   2.236
  286SOL     OW  870   0.075   0.345   1.895
  286SOL    HW1  871  -0.017   0.317   1.866
  286SOL    HW2  872   0.106   0.422   1.839
  287SOL     OW  873   0.072   0.166   2.180
  287SOL    HW1  874   0.055   0.249   2.126
  287SOL    HW2  875   0.162   0.129   2.158
  288SOL     OW  876   1.183   1.335   1.981
  288SOL    HW1  877   1.084   1.324   1.983
  288SOL    HW2  878   1.217   1.350   2.074
  289SOL     OW  879   1.225   0.325   2.311
  289SOL    HW1  880   1.290   0.251   2.300
  289SOL    HW2  881   1.245   0.375   2.395
  290SOL     OW  882   0.594   0.745   2.514
  290SOL    HW1  883   0.644   0.830   2.495
  290SOL    HW2  884   0.506   0.747   2.466
  291SOL     OW  885   0.859   1.374   1.878
  291SOL    HW1  886   0.813   1.389   1.966
  291SOL    HW2  887   0.903   1.459   1.848
  292SOL     OW  888   0.661   1.790   2.815
  292SOL    HW1  889   0.615   1.878   2.802
  292SOL    HW2  890   0.760   1.802   2.808
  293SOL     OW  891   0.859   0.956   2.723
  293SOL    HW1  892   0.913   0.887   2.771
  293SOL    HW2  893   0.827   1.025   2.789
  294SOL     OW  894   1.083   0.984   1.949
  294SOL    HW1  895   1.060   1.037   1.867
  294SOL    HW2  896   1.164   0.928   1.930
  295SOL     OW  897   0.079   1.240   2.515
  295SOL    HW1  898   0.078   1.193   2.603
  295SOL    HW2  899   0.161   1.212   2.464
  296SOL     OW  900   0.428   0.424   2.382
  296SOL    HW1  901   0.458   0.352   2.320
  296SOL    HW2  902   0.389   0.384   2.465
  297SOL     OW  903   1.705   1.487   2.966
  297SOL    HW1  904   1.612   1.462   2.939
  297SOL    HW2  905   1.731   1.437   3.048
  298SOL     OW  906   0.812   1.586   2.549
  298SOL    HW1  907   0.844   1.596   2.455
  298SOL    HW2  908   0.733   1.524   2.551
  299SOL     OW  909   0.770   1.330   2.163
  299SOL    HW1  910   0.724   1.243   2.180
  299SOL    HW2  911   0.861   1.327   2.204
  300SOL     OW  912   1.352   0.052   2.030
  300SOL    HW1  913   1.387   0.011   1.946
  300SOL    HW2  914   1.262   0.014   2.050
  301SOL     OW  915   1.300   0.453   2.553
  301SOL    HW1  916   1.241   0.533   2.557
  301SOL    HW2  917   1.315   0.418   2.646
  302SOL     OW  918   0.039   1.077   2.162
  302SOL    HW1  919   0.138   1.066   2.153
  302SOL    HW2  920  -0.001   0.991   2.194
  303SOL     OW  921   0.875   1.646   2.199
  303SOL    HW1  922   0.798   1.611   2.145
  303SOL    HW2  923   0.843   1.717   2.261
  304SOL     OW  924   0.230   2.490   0.113
  304SOL    HW1  925   0.137   2.488   0.150
  304SOL    HW2  926   0.231   2.451   0.021
  305SOL     OW  927   0.225   2.137   0.996
  305SOL    HW1  928   0.260   2.120   1.088
  305SOL    HW2  929   0.137   2.092   0.984
  306SOL     OW  930   0.019   2.230   0.647
  306SOL    HW1  931  -0.063   2.273   0.686
  306SOL    HW2  932  -0.009   2.157   0.584
  307SOL     OW  933   1.755   2.469   0.231
  307SOL    HW1  934   1.743   2.456   0.132
  307SOL    HW2  935   1.725   2.388   0.280
  308SOL     OW  936   0.850   2.660   1.823
  308SOL    HW1  937   0.846   2.736   1.888
  308SOL    HW2  938   0.872   2.696   1.732
  309SOL     OW  939   0.685   2.874   0.665
  309SOL    HW1  940   0.754   2.858   0.735
  309SOL    HW2  941   0.612   2.931   0.703
  310SOL     OW  942   0.438   2.254   1.499
  310SOL    HW1  943   0.520   2.198   1.508
  310SOL    HW2  944   0.357   2.196   1.503
  311SOL     OW  945   1.603   2.309   0.737
  311SOL    HW1  946   1.529   2.355   0.687
  311SOL    HW2  947   1.654   2.377   0.790
  312SOL     OW  948   1.594   1.976   1.480
  312SOL    HW1  949   1.576   2.043   1.408
  312SOL    HW2  950   1.591   2.022   1.569
  313SOL     OW  951   0.122   2.505   0.563
  313SOL    HW1  952   0.077   2.417   0.580
  313SOL    HW2  953   0.121   2.559   0.647
  314SOL     OW  954   0.113   2.599   1.597
  314SOL    HW1  955   0.201   2.586   1.642
  314SOL    HW2  956   0.100   2.696   1.575
  315SOL     OW  957   0.809   1.866   0.502
  315SOL    HW1  958   0.849   1.957   0.493
  315SOL    HW2  959   0.709   1.874   0.508
  316SOL     OW  960   0.317   2.113   1.801
  316SOL    HW1  961   0.388   2.184   1.807
  316SOL    HW2  962   0.229   2.152   1.829
  317SOL     OW  963   0.598   2.591   0.270
  317SOL    HW1  964   0.622   2.660   0.202
  317SOL    HW2  965   0.520   2.624   0.324
  318SOL     OW  966   1.281   2.207   0.944
  318SOL    HW1  967   1.195   2.157   0.931
  318SOL    HW2  968   1.343   2.153   1.000
  319SOL     OW  969   0.807   2.467   1.465
  319SOL    HW1  970   0.760   2.464   1.554
  319SOL    HW2  971   0.756   2.412   1.399
  320SOL     OW  972   1.394   2.331   1.674
  320SOL    HW1  973   1.374   2.374   1.762
  320SOL    HW2  974   1.472   2.269   1.683
  321SOL     OW  975   0.991   2.272   1.242
  321SOL    HW1  976   0.914   2.306   1.296
  321SOL    HW2  977   0.957   2.221   1.163
  322SOL     OW  978   1.041   2.563   0.429
  322SOL    HW1  979   1.067   2.559   0.525
  322SOL    HW2  980   0.956   2.512   0.415
  323SOL     OW  981   0.076   2.673   0.789
  323SOL    HW1  982   0.175   2.661   0.798
  323SOL    HW2  983   0.052   2.768   0.810
  324SOL     OW  984   0.865   2.210   0.195
  324SOL    HW1  985   0.924   2.273   0.146
  324SOL    HW2  986   0.884   2.116   0.166
  325SOL     OW  987   1.719   2.447   1.831
  325SOL    HW1  988   1.693   2.536   1.795
  325SOL    HW2  989   1.717   2.379   1.758
  326SOL     OW  990   0.550   2.058   0.885
  326SOL    HW1  991   0.545   2.053   0.985
  326SOL    HW2  992   0.552   2.154   0.856
  327SOL     OW  993   1.458   2.597   0.728
  327SOL    HW1  994   1.453   2.532   0.803
  327SOL    HW2  995   1.538   2.656   0.741
  328SOL     OW  996   0.202   2.147   1.498
  328SOL    HW1  997   0.122   2.207   1.485
  328SOL    HW2  998   0.192   2.098   1.584
  329SOL     OW  999   1.400   1.969   0.426
  329SOL    HW1 1000   1.376   1.932   0.336
  329SOL    HW2 1001   1.499   1.985   0.430
  330SOL     OW 1002   0.382   2.562   0.480
  330SOL    HW1 1003   0.427   2.472   0.477
  330SOL    HW2 1004   0.288   2.551   0.513
  331SOL     OW 1005   1.547   2.084   1.729
  331SOL    HW1 1006   1.542   2.121   1.821
  331SOL    HW2 1007   1.475   2.015   1.717
  332SOL     OW 1008   0.781   2.126   1.749
  332SOL    HW1 1009   0.848   2.065   1.792
  332SOL    HW2 1010   0.708   2.145   1.814
  333SOL     OW 1011   1.351   2.452   1.433
  333SOL    HW1 1012   1.379   2.409   1.518
  333SOL    HW2 1013   1.376   2.548   1.434
  334SOL     OW 1014   0.922   2.365   0.899
  334SOL    HW1 1015   0.897   2.356   0.803
  334SOL    HW2 1016   0.970   2.283   0.930
  335SOL     OW 1017   0.539   1.926   0.512
  335SOL    HW1 1018   0.458   1.927   0.570
  335SOL    HW2 1019   0.542   2.009   0.457
  336SOL     OW 1020   0.297   1.897   0.171
  336SOL    HW1 1021   0.346   1.981   0.150
  336SOL    HW2 1022   0.359   1.832   0.216
  337SOL     OW 1023   0.935   2.098   0.480
  337SOL    HW1 1024   0.887   2.139   0.402
  337SOL    HW2 1025   1.034   2.096   0.461
  338SOL     OW 1026   1.076   2.545   1.464
  338SOL    HW1 1027   0.996   2.484   1.467
  338SOL    HW2 1028   1.157   2.492   1.440
  339SOL     OW 1029   1.032   2.411   0.016
  339SOL    HW1 1030   0.991   2.493  -0.023
  339SOL    HW2 1031   1.096   2.437   0.089
  340SOL     OW 1032   0.078   2.418   1.386
  340SOL    HW1 1033   0.170   2.417   1.345
  340SOL    HW2 1034   0.072   2.492   1.453
  341SOL     OW 1035   0.561   2.084   1.147
  341SOL    HW1 1036   0.599   2.000   1.184
  341SOL    HW2 1037   0.473   2.103   1.191
  342SOL     OW 1038   0.866   2.316   0.642
  342SOL    HW1 1039   0.834   2.388   0.580
  342SOL    HW2 1040   0.890   2.235   0.589
  343SOL     OW 1041   1.017   1.901   0.753
  343SOL    HW1 1042   0.945   1.906   0.684
  343SOL    HW2 1043   0.993   1.832   0.822
  344SOL     OW 1044   1.466   2.452   0.992
  344SOL    HW1 1045   1.436   2.357   0.999
  344SOL    HW2 1046   1.539   2.468   1.058
  345SOL     OW 1047   1.857   2.695   0.377
  345SOL    HW1 1048   1.899   2.631   0.441
  345SOL    HW2 1049   1.819   2.644   0.299
  346SOL     OW 1050   1.390   2.437   0.078
  346SOL    HW1 1051   1.336   2.416   0.159
  346SOL    HW2 1052   1.481   2.396   0.087
  347SOL     OW 1053   0.527   2.118   0.328
  347SOL    HW1 1054   0.554   2.059   0.253
  347SOL    HW2 1055   0.527   2.213   0.297
  348SOL     OW 1056   0.915   1.951   1.402
  348SOL    HW1 1057   0.940   1.931   1.307
  348SOL    HW2 1058   0.987   2.007   1.444
  349SOL     OW 1059   0.705   2.912   0.368
  349SOL    HW1 1060   0.691   2.919   0.467
  349SOL    HW2 1061   0.789   2.861   0.350
  350SOL     OW 1062   0.410   2.675   1.251
  350SOL    HW1 1063   0.496   2.687   1.301
  350SOL    HW2 1064   0.368   2.588   1.278
  351SOL     OW 1065   1.274   2.248   1.262
  351SOL    HW1 1066   1.295   2.322   1.326
  351SOL    HW2 1067   1.185   2.265   1.219
  352SOL     OW 1068   0.566   2.399   0.865
  352SOL    HW1 1069   0.578   2.465   0.791
  352SOL    HW2 1070   0.612   2.433   0.948
  353SOL     OW 1071   1.582   2.501   0.472
  353SOL    HW1 1072   1.551   2.562   0.545
  353SOL    HW2 1073   1.632   2.553   0.403
  354SOL     OW 1074   1.587   2.641   1.670
  354SOL    HW1 1075   1.495   2.679   1.665
  354SOL    HW2 1076   1.647   2.688   1.605
  355SOL     OW 1077   1.013   1.967   1.770
  355SOL    HW1 1078   1.019   2.052   1.718
  355SOL    HW2 1079   1.045   1.891   1.713
  356SOL     OW 1080   0.504   1.912   1.740
  356SOL    HW1 1081   0.462   1.855   1.670
  356SOL    HW2 1082   0.438   1.981   1.772
  357SOL     OW 1083   1.360   2.724   1.045
  357SOL    HW1 1084   1.285   2.724   0.979
  357SOL    HW2 1085   1.397   2.632   1.054
  358SOL     OW 1086   1.209   2.387   0.275
  358SOL    HW1 1087   1.222   2.303   0.329
  358SOL    HW2 1088   1.180   2.461   0.335
  359SOL     OW 1089   0.307   2.075   1.231
  359SOL    HW1 1090   0.284   2.112   1.321
  359SOL    HW2 1091   0.277   1.980   1.225
  360SOL     OW 1092   0.732   2.496   1.064
  360SOL    HW1 1093   0.791   2.470   0.988
  360SOL    HW2 1094   0.704   2.592   1.053
  361SOL     OW 1095   1.728   2.797   1.854
  361SOL    HW1 1096   1.682   2.790   1.765
  361SOL    HW2 1097   1.666   2.841   1.920
  362SOL     OW 1098   0.307   1.925   0.618
  362SOL    HW1 1099   0.296   2.019   0.651
  362SOL    HW2 1100   0.302   1.862   0.695
  363SOL     OW 1101   1.622   2.229   0.374
  363SOL    HW1 1102   1.624   2.153   0.438
  363SOL    HW2 1103   1.574   2.306   0.414
  364SOL     OW 1104   1.540   2.136   0.125
  364SOL    HW1 1105   1.479   2.061   0.148
  364SOL    HW2 1106   1.562   2.188   0.208
  365SOL     OW 1107   0.319   2.672   0.949
  365SOL    HW1 1108   0.412   2.708   0.954
  365SOL    HW2 1109   0.313   2.587   1.001
  366SOL     OW 1110   0.339   2.371   1.006
  366SOL    HW1 1111   0.287   2.288   0.989
  366SOL    HW2 1112   0.416   2.376   0.942
  367SOL     OW 1113   1.138   2.242   1.678
  367SOL    HW1 1114   1.093   2.305   1.742
  367SOL    HW2 1115   1.231   2.273   1.661
  368SOL     OW 1116   1.160   2.069   1.477
  368SOL    HW1 1117   1.160   2.133   1.554
  368SOL    HW2 1118   1.188   2.117   1.394
  369SOL     OW 1119   0.040   2.406   1.114
  369SOL    HW1 1120   0.125   2.373   1.073
  369SOL    HW2 1121   0.053   2.421   1.212
  370SOL     OW 1122   0.189   2.382   1.722
  370SOL    HW1 1123   0.248   2.342   1.652
  370SOL    HW2 1124   0.131   2.453   1.681
  371SOL     OW 1125   0.815   2.434   0.325
  371SOL    HW1 1126   0.822   2.345   0.279
  371SOL    HW2 1127   0.721   2.468   0.317
  372SOL     OW 1128   1.657   2.466   1.206
  372SOL    HW1 1129   1.619   2.397   1.268
  372SOL    HW2 1130   1.739   2.430   1.162
  373SOL     OW 1131   0.671   2.326   1.269
  373SOL    HW1 1132   0.637   2.237   1.239
  373SOL    HW2 1133   0.697   2.380   1.189
  374SOL     OW 1134   0.473   2.362   0.191
  374SOL    HW1 1135   0.534   2.442   0.195
  374SOL    HW2 1136   0.378   2.393   0.198
  375SOL     OW 1137   0.903   1.948   0.133
  375SOL    HW1 1138   0.954   1.949   0.047
  375SOL    HW2 1139   0.959   1.906   0.204
  376SOL     OW 1140   1.726   1.997   0.523
  376SOL    HW1 1141   1.799   1.980   0.456
  376SOL    HW2 1142   1.695   1.910   0.561
  377SOL     OW 1143   1.280   2.789   0.672
  377SOL    HW1 1144   1.340   2.708   0.674
  377SOL    HW2 1145   1.320   2.858   0.612
  378SOL     OW 1146   1.841   2.037   0.963
  378SOL    HW1 1147   1.880   1.952   0.927
  378SOL    HW2 1148   1.743   2.039   0.944
  379SOL     OW 1149   0.263   2.188   0.720
  379SOL    HW1 1150   0.184   2.239   0.686
  379SOL    HW2 1151   0.254   2.173   0.818
  380SOL     OW 1152   1.014   2.098   0.971
  380SOL    HW1 1153   1.006   2.062   0.878
  380SOL    HW2 1154   1.012   2.022   1.036
  381SOL     OW 1155   1.709   2.247   1.381
  381SOL    HW1 1156   1.782   2.316   1.385
  381SOL    HW2 1157   1.737   2.172   1.322
  382SOL     OW 1158   0.105   2.875   1.726
  382SOL    HW1 1159   0.028   2.842   1.780
  382SOL    HW2 1160   0.190   2.845   1.768
  383SOL     OW 1161   0.672   2.065   1.489
  383SOL    HW1 1162   0.762   2.049   1.449
  383SOL    HW2 1163   0.680   2.070   1.588
  384SOL     OW 1164   0.075   2.207   0.033
  384SOL    HW1 1165  -0.017   2.179   0.004
  384SOL    HW2 1166   0.106   2.284  -0.023
  385SOL     OW 1167   0.072   2.028   0.318
  385SOL    HW1 1168   0.055   2.111   0.264
  385SOL    HW2 1169   0.162   1.991   0.296
  386SOL     OW 1170   0.716   2.427   1.708
  386SOL    HW1 1171   0.735   2.492   1.782
  386SOL    HW2 1172   0.776   2.347   1.717
  387SOL     OW 1173   1.674   2.745   1.254
  387SOL    HW1 1174   1.647   2.656   1.217
  387SOL    HW2 1175   1.675   2.813   1.181
  388SOL     OW 1176   1.225   2.187   0.449
  388SOL    HW1 1177   1.290   2.113   0.438
  388SOL    HW2 1178   1.245   2.237   0.533
  389SOL     OW 1179   0.594   2.607   0.652
  389SOL    HW1 1180   0.644   2.692   0.633
  389SOL    HW2 1181   0.506   2.609   0.604
  390SOL     OW 1182   1.777   2.204   1.642
  390SOL    HW1 1183   1.760   2.235   1.548
  390SOL    HW2 1184   1.693   2.167   1.680
  391SOL     OW 1185   1.824   2.054   1.227
  391SOL    HW1 1186   1.820   1.964   1.271
  391SOL    HW2 1187   1.827   2.043   1.128
  392SOL     OW 1188   0.428   2.286   0.520
  392SOL    HW1 1189   0.458   2.214   0.458
  392SOL    HW2 1190   0.389   2.246   0.603
  393SOL     OW 1191   0.317   2.409   1.280
  393SOL    HW1 1192   0.355   2.350   1.352
  393SOL    HW2 1193   0.357   2.383   1.192
  394SOL     OW 1194   1.424   2.076   1.112
  394SOL    HW1 1195   1.476   2.011   1.167
  394SOL    HW2 1196   1.375   2.139   1.173
  395SOL     OW 1197   1.001   1.896   1.154
  395SOL    HW1 1198   0.938   1.824   1.123
  395SOL    HW2 1199   1.094   1.860   1.154
  396SOL     OW 1200   1.352   1.914   0.168
  396SOL    HW1 1201   1.387   1.873   0.084
  396SOL    HW2 1202   1.262   1.876   0.188
  397SOL     OW 1203   1.300   2.315   0.691
  397SOL    HW1 1204   1.241   2.395   0.695
  397SOL    HW2 1205   1.315   2.280   0.784
  398SOL     OW 1206   1.593   2.083   0.882
  398SOL    HW1 1207   1.509   2.082   0.936
  398SOL    HW2 1208   1.595   2.166   0.826
  399SOL     OW 1209   0.230   2.490   1.975
  399SOL    HW1 1210   0.137   2.488   2.012
  399SOL    HW2 1211   0.231   2.451   1.883
  400SOL     OW 1212   0.225   2.137   2.858
  400SOL    HW1 1213   0.260   2.120   2.950
  400SOL    HW2 1214   0.137   2.092   2.846
  401SOL     OW 1215   0.019   2.230   2.509
  401SOL    HW1 1216  -0.063   2.273   2.548
  401SOL    HW2 1217  -0.009   2.157   2.446
  402SOL     OW 1218   1.755   2.469   2.093
  402SOL    HW1 1219   1.743   2.456   1.994
  402SOL    HW2 1220   1.725   2.388   2.142
  403SOL     OW 1221   0.685   2.874   2.527
  403SOL    HW1 1222   0.754   2.858   2.597
  403SOL    HW2 1223   0.612   2.931   2.565
  404SOL     OW 1224   1.603   2.309   2.599
  404SOL    HW1 1225   1.529   2.355   2.549
  404SOL    HW2 1226   1.654   2.377   2.652
  405SOL     OW 1227   0.122   2.505   2.425
  405SOL    HW1 1228   0.077   2.417   2.442
  405SOL    HW2 1229   0.121   2.559   2.509
  406SOL     OW 1230   0.809   1.866   2.364
  406SOL    HW1 1231   0.849   1.957   2.355
  406SOL    HW2 1232   0.709   1.874   2.370
  407SOL     OW 1233   0.598   2.591   2.132
  407SOL    HW1 1234   0.622   2.660   2.064
  407SOL    HW2 1235   0.520   2.624   2.186
  408SOL     OW 1236   1.281   2.207   2.806
  408SOL    HW1 1237   1.195   2.157   2.793
  408SOL    HW2 1238   1.343   2.153   2.862
  409SOL     OW 1239   1.041   2.563   2.291
  409SOL    HW1 1240   1.067   2.559   2.387
  409SOL    HW2 1241   0.956   2.512   2.277
  410SOL     OW 1242   0.076   2.673   2.651
  410SOL    HW1 1243   0.175   2.661   2.660
  410SOL    HW2 1244   0.052   2.768   2.672
  411SOL     OW 1245   0.865   2.210   2.057
  411SOL    HW1 1246   0.924   2.273   2.008
  411SOL    HW2 1247   0.884   2.116   2.028
  412SOL     OW 1248   1.458   2.597   2.590
  412SOL    HW1 1249   1.453   2.532   2.665
  412SOL    HW2 1250   1.538   2.656   2.603
  413SOL     OW 1251   1.400   1.969   2.288
  413SOL    HW1 1252   1.376   1.932   2.198
  413SOL    HW2 1253   1.499   1.985   2.292
  414SOL     OW 1254   0.382   2.562   2.342
  414SOL    HW1 1255   0.427   2.472   2.339
  414SOL    HW2 1256   0.288   2.551   2.375
  415SOL     OW 1257   0.614   1.984   1.979
  415SOL    HW1 1258   0.712   1.962   1.986
  415SOL    HW2 1259   0.583   1.967   1.886
  416SOL     OW 1260   0.539   1.926   2.374
  416SOL    HW1 1261   0.458   1.927   2.432
  416SOL    HW2 1262   0.542   2.009   2.319
  417SOL     OW 1263   0.297   1.897   2.033
  417SOL    HW1 1264   0.346   1.981   2.012
  417SOL    HW2 1265   0.359   1.832   2.078
  418SOL     OW 1266   0.935   2.098   2.342
  418SOL    HW1 1267   0.887   2.139   2.264
  418SOL    HW2 1268   1.034   2.096   2.323
  419SOL     OW 1269   1.032   2.411   1.878
  419SOL    HW1 1270   0.991   2.493   1.839
  419SOL    HW2 1271   1.096   2.437   1.951
  420SOL     OW 1272   0.866   2.316   2.504
  420SOL    HW1 1273   0.834   2.388   2.442
  420SOL    HW2 1274   0.890   2.235   2.451
  421SOL     OW 1275   1.017   1.901   2.615
  421SOL    HW1 1276   0.945   1.906   2.546
  421SOL    HW2 1277   0.993   1.832   2.684
  422SOL     OW 1278   1.857   2.695   2.239
  422SOL    HW1 1279   1.899   2.631   2.303
  422SOL    HW2 1280   1.819   2.644   2.161
  423SOL     OW 1281   1.390   2.437   1.940
  423SOL    HW1 1282   1.336   2.416   2.021
  423SOL    HW2 1283   1.481   2.396   1.949
  424SOL     OW 1284   0.527   2.118   2.190
  424SOL    HW1 1285   0.554   2.059   2.115
  424SOL    HW2 1286   0.527   2.213   2.159
  425SOL     OW 1287   0.705   2.912   2.230
  425SOL    HW1 1288   0.691   2.919   2.329
  425SOL    HW2 1289   0.789   2.861   2.212
  426SOL     OW 1290   1.582   2.501   2.334
  426SOL    HW1 1291   1.551   2.562   2.407
  426SOL    HW2 1292   1.632   2.553   2.265
  427SOL     OW 1293   1.209   2.387   2.137
  427SOL    HW1 1294   1.222   2.303   2.191
  427SOL    HW2 1295   1.180   2.461   2.197
  428SOL     OW 1296   0.307   1.925   2.480
  428SOL    HW1 1297   0.296   2.019   2.513
  428SOL    HW2 1298   0.302   1.862   2.557
  429SOL     OW 1299   1.622   2.229   2.236
  429SOL    HW1 1300   1.624   2.153   2.300
  429SOL    HW2 1301   1.574   2.306   2.276
  430SOL     OW 1302   1.540   2.136   1.987
  430SOL    HW1 1303   1.479   2.061   2.010
  430SOL    HW2 1304   1.562   2.188   2.070
  431SOL     OW 1305   0.040   2.406   2.976
  431SOL    HW1 1306   0.125   2.373   2.935
  431SOL    HW2 1307   0.053   2.421   3.074
  432SOL     OW 1308   0.815   2.434   2.187
  432SOL    HW1 1309   0.822   2.345   2.141
  432SOL    HW2 1310   0.721   2.468   2.179
  433SOL     OW 1311   0.473   2.362   2.053
  433SOL    HW1 1312   0.534   2.442   2.057
  433SOL    HW2 1313   0.378   2.393   2.060
  434SOL     OW 1314   1.726   1.997   2.385
  434SOL    HW1 1315   1.799   1.980   2.318
  434SOL    HW2 1316   1.695   1.910   2.423
  435SOL     OW 1317   1.280   2.789   2.534
  435SOL    HW1 1318   1.340   2.708   2.536
  435SOL    HW2 1319   1.320   2.858   2.474
  436SOL     OW 1320   1.841   2.037   2.825
  436SOL    HW1 1321   1.880   1.952   2.789
  436SOL    HW2 1322   1.743   2.039   2.806
  437SOL     OW 1323   0.263   2.188   2.582
  437SOL    HW1 1324   0.184   2.239   2.548
  437SOL    HW2 1325   0.254   2.173   2.680
  438SOL     OW 1326   0.916   2.772   2.153
  438SOL    HW1 1327   0.979   2.810   2.085
  438SOL    HW2 1328   0.956   2.689   2.192
  439SOL     OW 1329   1.039   2.960   2.558
  439SOL    HW1 1330   0.969   2.913   2.612
  439SOL    HW2 1331   1.098   2.892   2.515
  440SOL     OW 1332   0.075   2.207   1.895
  440SOL    HW1 1333  -0.017   2.179   1.866
  440SOL    HW2 1334   0.106   2.284   1.839
  441SOL     OW 1335   0.072   2.028   2.180
  441SOL    HW1 1336   0.055   2.111   2.126
  441SOL    HW2 1337   0.162   1.991   2.158
  442SOL     OW 1338   1.225   2.187   2.311
  442SOL    HW1 1339   1.290   2.113   2.300
  442SOL    HW2 1340   1.245   2.237   2.395
  443SOL     OW 1341   0.594   2.607   2.514
  443SOL    HW1 1342   0.644   2.692   2.495
  443SOL    HW2 1343   0.506   2.609   2.466
  444SOL     OW 1344   0.428   2.286   2.382
  444SOL    HW1 1345   0.458   2.214   2.320
  444SOL    HW2 1346   0.389   2.246   2.465
  445SOL     OW 1347   1.352   1.914   2.030
  445SOL    HW1 1348   1.387   1.873   1.946
  445SOL    HW2 1349   1.262   1.876   2.050
  446SOL     OW 1350   1.300   2.315   2.553
  446SOL    HW1 1351   1.241   2.395   2.557
  446SOL    HW2 1352   1.315   2.280   2.646
  447SOL     OW 1353   2.092   0.628   0.113
  447SOL    HW1 1354   1.999   0.626   0.150
  447SOL    HW2 1355   2.093   0.589   0.021
  448SOL     OW 1356   2.087   0.275   0.996
  448SOL    HW1 1357   2.122   0.258   1.088
  448SOL    HW2 1358   1.999   0.230   0.984
  449SOL     OW 1359   1.881   0.368   0.647
  449SOL    HW1 1360   1.799   0.411   0.686
  449SOL    HW2 1361   1.853   0.295   0.584
  450SOL     OW 1362   2.431   1.275   1.165
  450SOL    HW1 1363   2.338   1.268   1.128
  450SOL    HW2 1364   2.442   1.364   1.209
  451SOL     OW 1365   2.712   0.798   1.823
  451SOL    HW1 1366   2.708   0.874   1.888
  451SOL    HW2 1367   2.734   0.834   1.732
  452SOL     OW 1368   2.547   1.012   0.665
  452SOL    HW1 1369   2.616   0.996   0.735
  452SOL    HW2 1370   2.474   1.069   0.703
  453SOL     OW 1371   2.548   1.161   1.803
  453SOL    HW1 1372   2.608   1.240   1.817
  453SOL    HW2 1373   2.462   1.192   1.762
  454SOL     OW 1374   2.197   1.435   1.061
  454SOL    HW1 1375   2.119   1.404   1.008
  454SOL    HW2 1376   2.255   1.493   1.004
  455SOL     OW 1377   2.300   0.392   1.499
  455SOL    HW1 1378   2.382   0.336   1.508
  455SOL    HW2 1379   2.219   0.334   1.503
  456SOL     OW 1380   2.093   1.713   0.483
  456SOL    HW1 1381   2.127   1.790   0.537
  456SOL    HW2 1382   2.137   1.713   0.393
  457SOL     OW 1383   2.092   1.434   0.538
  457SOL    HW1 1384   2.066   1.530   0.538
  457SOL    HW2 1385   2.021   1.380   0.583
  458SOL     OW 1386   2.102   1.091   0.886
  458SOL    HW1 1387   2.116   1.007   0.938
  458SOL    HW2 1388   2.047   1.155   0.941
  459SOL     OW 1389   2.482   1.786   1.439
  459SOL    HW1 1390   2.390   1.769   1.474
  459SOL    HW2 1391   2.510   1.878   1.465
  460SOL     OW 1392   2.468   0.964   0.123
  460SOL    HW1 1393   2.475   1.048   0.069
  460SOL    HW2 1394   2.514   0.977   0.211
  461SOL     OW 1395   1.984   0.643   0.563
  461SOL    HW1 1396   1.939   0.555   0.580
  461SOL    HW2 1397   1.983   0.697   0.647
  462SOL     OW 1398   1.889   1.596   0.117
  462SOL    HW1 1399   1.870   1.500   0.138
  462SOL    HW2 1400   1.856   1.654   0.192
  463SOL     OW 1401   1.975   0.737   1.597
  463SOL    HW1 1402   2.063   0.724   1.642
  463SOL    HW2 1403   1.962   0.834   1.575
  464SOL     OW 1404   2.475   1.365   0.726
  464SOL    HW1 1405   2.426   1.278   0.735
  464SOL    HW2 1406   2.452   1.408   0.639
  465SOL     OW 1407   2.671   0.004   0.502
  465SOL    HW1 1408   2.711   0.095   0.493
  465SOL    HW2 1409   2.571   0.012   0.508
  466SOL     OW 1410   2.059   0.976   1.264
  466SOL    HW1 1411   2.148   0.931   1.250
  466SOL    HW2 1412   1.986   0.911   1.245
  467SOL     OW 1413   2.179   0.251   1.801
  467SOL    HW1 1414   2.250   0.322   1.807
  467SOL    HW2 1415   2.091   0.290   1.829
  468SOL     OW 1416   2.460   0.729   0.270
  468SOL    HW1 1417   2.484   0.798   0.202
  468SOL    HW2 1418   2.382   0.762   0.324
  469SOL     OW 1419   1.938   0.811   0.789
  469SOL    HW1 1420   2.037   0.799   0.798
  469SOL    HW2 1421   1.914   0.906   0.810
  470SOL     OW 1422   1.992   1.821   1.571
  470SOL    HW1 1423   1.982   1.806   1.670
  470SOL    HW2 1424   1.906   1.857   1.535
  471SOL     OW 1425   2.412   0.196   0.885
  471SOL    HW1 1426   2.407   0.191   0.985
  471SOL    HW2 1427   2.414   0.292   0.856
  472SOL     OW 1428   2.213   1.801   0.853
  472SOL    HW1 1429   2.263   1.715   0.859
  472SOL    HW2 1430   2.278   1.878   0.850
  473SOL     OW 1431   2.183   0.943   0.242
  473SOL    HW1 1432   2.265   0.982   0.200
  473SOL    HW2 1433   2.156   0.861   0.193
  474SOL     OW 1434   2.323   1.266   1.727
  474SOL    HW1 1435   2.273   1.267   1.641
  474SOL    HW2 1436   2.260   1.248   1.803
  475SOL     OW 1437   2.064   0.285   1.498
  475SOL    HW1 1438   1.984   0.345   1.485
  475SOL    HW2 1439   2.054   0.236   1.584
  476SOL     OW 1440   2.326   1.743   0.323
  476SOL    HW1 1441   2.359   1.782   0.409
  476SOL    HW2 1442   2.402   1.736   0.258
  477SOL     OW 1443   2.111   1.785   1.241
  477SOL    HW1 1444   2.168   1.720   1.291
  477SOL    HW2 1445   2.095   1.752   1.148
  478SOL     OW 1446   2.244   0.700   0.480
  478SOL    HW1 1447   2.289   0.610   0.477
  478SOL    HW2 1448   2.150   0.689   0.513
  479SOL     OW 1449   2.476   0.122   0.117
  479SOL    HW1 1450   2.574   0.100   0.124
  479SOL    HW2 1451   2.445   0.105   0.024
  480SOL     OW 1452   2.665   1.402   0.924
  480SOL    HW1 1453   2.755   1.416   0.882
  480SOL    HW2 1454   2.594   1.404   0.853
  481SOL     OW 1455   2.784   0.503   0.899
  481SOL    HW1 1456   2.759   0.494   0.803
  481SOL    HW2 1457   2.832   0.421   0.930
  482SOL     OW 1458   2.401   0.064   0.512
  482SOL    HW1 1459   2.320   0.065   0.570
  482SOL    HW2 1460   2.404   0.147   0.457
  483SOL     OW 1461   2.159   0.035   0.171
  483SOL    HW1 1462   2.208   0.119   0.150
  483SOL    HW2 1463   2.221  -0.030   0.216
  484SOL     OW 1464   2.321   1.152   0.741
  484SOL    HW1 1465   2.250   1.125   0.806
  484SOL    HW2 1466   2.295   1.124   0.648
  485SOL     OW 1467   1.940   0.556   1.386
  485SOL    HW1 1468   2.032   0.555   1.345
  485SOL    HW2 1469   1.934   0.630   1.453
  486SOL     OW 1470   2.423   0.222   1.147
  486SOL    HW1 1471   2.461   0.138   1.184
  486SOL    HW2 1472   2.335   0.241   1.191
  487SOL     OW 1473   2.350   1.385   0.174
  487SOL    HW1 1474   2.263   1.370   0.221
  487SOL    HW2 1475   2.333   1.411   0.079
  488SOL     OW 1476   2.389   0.256   0.328
  488SOL    HW1 1477   2.416   0.197   0.253
  488SOL    HW2 1478   2.389   0.351   0.297
  489SOL     OW 1479   2.777   0.089   1.402
  489SOL    HW1 1480   2.802   0.069   1.307
  489SOL    HW2 1481   2.849   0.145   1.444
  490SOL     OW 1482   2.272   0.813   1.251
  490SOL    HW1 1483   2.358   0.825   1.301
  490SOL    HW2 1484   2.230   0.726   1.278
  491SOL     OW 1485   1.926   1.564   1.331
  491SOL    HW1 1486   1.880   1.646   1.297
  491SOL    HW2 1487   2.024   1.583   1.340
  492SOL     OW 1488   2.229   1.100   0.501
  492SOL    HW1 1489   2.222   1.183   0.445
  492SOL    HW2 1490   2.233   1.020   0.441
  493SOL     OW 1491   2.428   0.537   0.865
  493SOL    HW1 1492   2.440   0.603   0.791
  493SOL    HW2 1493   2.474   0.571   0.948
  494SOL     OW 1494   2.216   1.510   1.329
  494SOL    HW1 1495   2.195   1.466   1.242
  494SOL    HW2 1496   2.313   1.536   1.332
  495SOL     OW 1497   2.264   0.751   1.598
  495SOL    HW1 1498   2.332   0.806   1.551
  495SOL    HW2 1499   2.304   0.663   1.625
  496SOL     OW 1500   2.366   0.050   1.740
  496SOL    HW1 1501   2.324  -0.007   1.670
  496SOL    HW2 1502   2.300   0.119   1.772
  497SOL     OW 1503   2.435   0.870   1.029
  497SOL    HW1 1504   2.479   0.959   1.020
  497SOL    HW2 1505   2.372   0.870   1.106
  498SOL     OW 1506   2.169   0.213   1.231
  498SOL    HW1 1507   2.146   0.250   1.321
  498SOL    HW2 1508   2.139   0.118   1.225
  499SOL     OW 1509   1.899   1.310   1.282
  499SOL    HW1 1510   1.952   1.261   1.350
  499SOL    HW2 1511   1.921   1.408   1.287
  500SOL     OW 1512   2.594   0.634   1.064
  500SOL    HW1 1513   2.653   0.608   0.988
  500SOL    HW2 1514   2.566   0.730   1.053
  501SOL     OW 1515   2.169   0.063   0.618
  501SOL    HW1 1516   2.158   0.157   0.651
  501SOL    HW2 1517   2.164   0.000   0.695
  502SOL     OW 1518   2.212   0.898   1.804
  502SOL    HW1 1519   2.288   0.942   1.852
  502SOL    HW2 1520   2.247   0.851   1.722
  503SOL     OW 1521   2.930   1.333   0.849
  503SOL    HW1 1522   2.937   1.249   0.794
  503SOL    HW2 1523   2.992   1.402   0.813
  504SOL     OW 1524   2.181   0.810   0.949
  504SOL    HW1 1525   2.274   0.846   0.954
  504SOL    HW2 1526   2.175   0.725   1.001
  505SOL     OW 1527   2.201   0.509   1.006
  505SOL    HW1 1528   2.149   0.426   0.989
  505SOL    HW2 1529   2.278   0.514   0.942
  506SOL     OW 1530   1.870   1.326   0.200
  506SOL    HW1 1531   1.777   1.347   0.169
  506SOL    HW2 1532   1.880   1.227   0.213
  507SOL     OW 1533   1.950   1.801   0.927
  507SOL    HW1 1534   1.908   1.715   0.900
  507SOL    HW2 1535   2.044   1.804   0.893
  508SOL     OW 1536   2.366   1.568   0.910
  508SOL    HW1 1537   2.432   1.642   0.919
  508SOL    HW2 1538   2.410   1.489   0.868
  509SOL     OW 1539   1.902   0.544   1.114
  509SOL    HW1 1540   1.987   0.511   1.073
  509SOL    HW2 1541   1.915   0.559   1.212
  510SOL     OW 1542   2.051   0.520   1.722
  510SOL    HW1 1543   2.110   0.480   1.652
  510SOL    HW2 1544   1.993   0.591   1.681
  511SOL     OW 1545   2.114   1.564   1.744
  511SOL    HW1 1546   2.084   1.621   1.820
  511SOL    HW2 1547   2.107   1.467   1.770
  512SOL     OW 1548   2.533   0.464   1.269
  512SOL    HW1 1549   2.499   0.375   1.239
  512SOL    HW2 1550   2.559   0.518   1.189
  513SOL     OW 1551   2.335   0.500   0.191
  513SOL    HW1 1552   2.396   0.580   0.195
  513SOL    HW2 1553   2.240   0.531   0.198
  514SOL     OW 1554   2.021   1.137   1.466
  514SOL    HW1 1555   2.043   1.076   1.542
  514SOL    HW2 1556   2.031   1.088   1.380
  515SOL     OW 1557   1.945   1.258   1.022
  515SOL    HW1 1558   1.940   1.257   1.122
  515SOL    HW2 1559   1.862   1.217   0.984
  516SOL     OW 1560   2.550   1.662   1.716
  516SOL    HW1 1561   2.494   1.743   1.725
  516SOL    HW2 1562   2.602   1.666   1.630
  517SOL     OW 1563   1.992   1.794   1.851
  517SOL    HW1 1564   1.951   1.720   1.904
  517SOL    HW2 1565   2.056   1.845   1.909
  518SOL     OW 1566   2.534   1.616   0.154
  518SOL    HW1 1567   2.543   1.626   0.055
  518SOL    HW2 1568   2.494   1.527   0.175
  519SOL     OW 1569   2.125   0.326   0.720
  519SOL    HW1 1570   2.046   0.377   0.686
  519SOL    HW2 1571   2.116   0.311   0.818
  520SOL     OW 1572   2.684   1.002   1.372
  520SOL    HW1 1573   2.724   1.001   1.280
  520SOL    HW2 1574   2.694   1.094   1.412
  521SOL     OW 1575   2.234   1.288   1.490
  521SOL    HW1 1576   2.221   1.381   1.456
  521SOL    HW2 1577   2.150   1.236   1.477
  522SOL     OW 1578   2.452   1.487   0.491
  522SOL    HW1 1579   2.494   1.429   0.421
  522SOL    HW2 1580   2.408   1.566   0.447
  523SOL     OW 1581   2.117   1.348   0.290
  523SOL    HW1 1582   2.021   1.349   0.263
  523SOL    HW2 1583   2.129   1.401   0.374
  524SOL     OW 1584   1.967   1.013   1.726
  524SOL    HW1 1585   1.890   0.980   1.780
  524SOL    HW2 1586   2.052   0.983   1.768
  525SOL     OW 1587   2.534   0.203   1.489
  525SOL    HW1 1588   2.624   0.187   1.449
  525SOL    HW2 1589   2.542   0.208   1.588
  526SOL     OW 1590   1.937   0.345   0.033
  526SOL    HW1 1591   1.845   0.317   0.004
  526SOL    HW2 1592   1.968   0.422  -0.023
  527SOL     OW 1593   1.934   0.166   0.318
  527SOL    HW1 1594   1.917   0.249   0.264
  527SOL    HW2 1595   2.024   0.129   0.296
  528SOL     OW 1596   2.475   0.842   1.431
  528SOL    HW1 1597   2.531   0.923   1.414
  528SOL    HW2 1598   2.534   0.762   1.434
  529SOL     OW 1599   2.578   0.565   1.708
  529SOL    HW1 1600   2.597   0.630   1.782
  529SOL    HW2 1601   2.638   0.485   1.717
  530SOL     OW 1602   2.252   1.741   1.560
  530SOL    HW1 1603   2.161   1.782   1.558
  530SOL    HW2 1604   2.245   1.647   1.592
  531SOL     OW 1605   2.456   0.745   0.652
  531SOL    HW1 1606   2.506   0.830   0.633
  531SOL    HW2 1607   2.368   0.747   0.604
  532SOL     OW 1608   2.523   1.790   0.953
  532SOL    HW1 1609   2.477   1.878   0.940
  532SOL    HW2 1610   2.622   1.802   0.946
  533SOL     OW 1611   2.083   1.314   1.844
  533SOL    HW1 1612   2.018   1.241   1.823
  533SOL    HW2 1613   2.087   1.328   1.942
  534SOL     OW 1614   1.941   1.240   0.653
  534SOL    HW1 1615   1.940   1.193   0.741
  534SOL    HW2 1616   2.023   1.212   0.602
  535SOL     OW 1617   2.534   1.391   1.624
  535SOL    HW1 1618   2.456   1.341   1.662
  535SOL    HW2 1619   2.531   1.486   1.655
  536SOL     OW 1620   2.290   0.424   0.520
  536SOL    HW1 1621   2.320   0.352   0.458
  536SOL    HW2 1622   2.251   0.384   0.603
  537SOL     OW 1623   2.179   0.547   1.280
  537SOL    HW1 1624   2.217   0.488   1.352
  537SOL    HW2 1625   2.219   0.521   1.192
  538SOL     OW 1626   2.674   1.586   0.687
  538SOL    HW1 1627   2.706   1.596   0.593
  538SOL    HW2 1628   2.595   1.524   0.689
  539SOL     OW 1629   2.863   0.034   1.154
  539SOL    HW1 1630   2.800  -0.038   1.123
  539SOL    HW2 1631   2.956  -0.002   1.154
  540SOL     OW 1632   2.480   1.567   1.284
  540SOL    HW1 1633   2.475   1.649   1.341
  540SOL    HW2 1634   2.569   1.564   1.239
  541SOL     OW 1635   1.901   1.077   0.300
  541SOL    HW1 1636   2.000   1.066   0.291
  541SOL    HW2 1637   1.861   0.991   0.332
  542SOL     OW 1638   2.092   0.628   1.975
  542SOL    HW1 1639   1.999   0.626   2.012
  542SOL    HW2 1640   2.093   0.589   1.883
  543SOL     OW 1641   2.087   0.275   2.858
  543SOL    HW1 1642   2.122   0.258   2.950
  543SOL    HW2 1643   1.999   0.230   2.846
  544SOL     OW 1644   1.881   0.368   2.509
  544SOL    HW1 1645   1.799   0.411   2.548
  544SOL    HW2 1646   1.853   0.295   2.446
  545SOL     OW 1647   2.547   1.012   2.527
  545SOL    HW1 1648   2.616   0.996   2.597
  545SOL    HW2 1649   2.474   1.069   2.565
  546SOL     OW 1650   2.093   1.713   2.345
  546SOL    HW1 1651   2.127   1.790   2.399
  546SOL    HW2 1652   2.137   1.713   2.255
  547SOL     OW 1653   2.092   1.434   2.400
  547SOL    HW1 1654   2.066   1.530   2.400
  547SOL    HW2 1655   2.021   1.380   2.445
  548SOL     OW 1656   2.102   1.091   2.748
  548SOL    HW1 1657   2.116   1.007   2.800
  548SOL    HW2 1658   2.047   1.155   2.803
  549SOL     OW 1659   2.468   0.964   1.985
  549SOL    HW1 1660   2.475   1.048   1.931
  549SOL    HW2 1661   2.514   0.977   2.073
  550SOL     OW 1662   1.984   0.643   2.425
  550SOL    HW1 1663   1.939   0.555   2.442
  550SOL    HW2 1664   1.983   0.697   2.509
  551SOL     OW 1665   1.889   1.596   1.979
  551SOL    HW1 1666   1.870   1.500   2.000
  551SOL    HW2 1667   1.856   1.654   2.054
  552SOL     OW 1668   2.475   1.365   2.588
  552SOL    HW1 1669   2.426   1.278   2.597
  552SOL    HW2 1670   2.452   1.408   2.501
  553SOL     OW 1671   2.671   0.004   2.364
  553SOL    HW1 1672   2.711   0.095   2.355
  553SOL    HW2 1673   2.571   0.012   2.370
  554SOL     OW 1674   2.460   0.729   2.132
  554SOL    HW1 1675   2.484   0.798   2.064
  554SOL    HW2 1676   2.382   0.762   2.186
  555SOL     OW 1677   1.938   0.811   2.651
  555SOL    HW1 1678   2.037   0.799   2.660
  555SOL    HW2 1679   1.914   0.906   2.672
  556SOL     OW 1680   2.213   1.801   2.715
  556SOL    HW1 1681   2.263   1.715   2.721
  556SOL    HW2 1682   2.278   1.878   2.712
  557SOL     OW 1683   2.183   0.943   2.104
  557SOL    HW1 1684   2.265   0.982   2.062
  557SOL    HW2 1685   2.156   0.861   2.055
  558SOL     OW 1686   2.326   1.743   2.185
  558SOL    HW1 1687   2.359   1.782   2.271
  558SOL    HW2 1688   2.402   1.736   2.120
  559SOL     OW 1689   2.244   0.700   2.342
  559SOL    HW1 1690   2.289   0.610   2.339
  559SOL    HW2 1691   2.150   0.689   2.375
  560SOL     OW 1692   2.476   0.122   1.979
  560SOL    HW1 1693   2.574   0.100   1.986
  560SOL    HW2 1694   2.445   0.105   1.886
  561SOL     OW 1695   2.401   0.064   2.374
  561SOL    HW1 1696   2.320   0.065   2.432
  561SOL    HW2 1697   2.404   0.147   2.319
  562SOL     OW 1698   2.159   0.035   2.033
  562SOL    HW1 1699   2.208   0.119   2.012
  562SOL    HW2 1700   2.221  -0.030   2.078
  563SOL     OW 1701   2.321   1.152   2.603
  563SOL    HW1 1702   2.250   1.125   2.668
  563SOL    HW2 1703   2.295   1.124   2.510
  564SOL     OW 1704   2.350   1.385   2.036
  564SOL    HW1 1705   2.263   1.370   2.083
  564SOL    HW2 1706   2.333   1.411   1.941
  565SOL     OW 1707   2.389   0.256   2.190
  565SOL    HW1 1708   2.416   0.197   2.115
  565SOL    HW2 1709   2.389   0.351   2.159
  566SOL     OW 1710   2.229   1.100   2.363
  566SOL    HW1 1711   2.222   1.183   2.307
  566SOL    HW2 1712   2.233   1.020   2.303
  567SOL     OW 1713   2.169   0.063   2.480
  567SOL    HW1 1714   2.158   0.157   2.513
  567SOL    HW2 1715   2.164   0.000   2.557
  568SOL     OW 1716   2.930   1.333   2.711
  568SOL    HW1 1717   2.937   1.249   2.656
  568SOL    HW2 1718   2.992   1.402   2.675
  569SOL     OW 1719   1.870   1.326   2.062
  569SOL    HW1 1720   1.777   1.347   2.031
  569SOL    HW2 1721   1.880   1.227   2.075
  570SOL     OW 1722   2.677   0.572   2.187
  570SOL    HW1 1723   2.684   0.483   2.141
  570SOL    HW2 1724   2.583   0.606   2.179
  571SOL     OW 1725   2.335   0.500   2.053
  571SOL    HW1 1726   2.396   0.580   2.057
  571SOL    HW2 1727   2.240   0.531   2.060
  572SOL     OW 1728   2.534   1.616   2.016
  572SOL    HW1 1729   2.543   1.626   1.917
  572SOL    HW2 1730   2.494   1.527   2.037
  573SOL     OW 1731   2.125   0.326   2.582
  573SOL    HW1 1732   2.046   0.377   2.548
  573SOL    HW2 1733   2.116   0.311   2.680
  574SOL     OW 1734   2.452   1.487   2.353
  574SOL    HW1 1735   2.494   1.429   2.283
  574SOL    HW2 1736   2.408   1.566   2.309
  575SOL     OW 1737   2.117   1.348   2.152
  575SOL    HW1 1738   2.021   1.349   2.125
  575SOL    HW2 1739   2.129   1.401   2.236
  576SOL     OW 1740   1.937   0.345   1.895
  576SOL    HW1 1741   1.845   0.317   1.866
  576SOL    HW2 1742   1.968   0.422   1.839
  577SOL     OW 1743   1.934   0.166   2.180
  577SOL    HW1 1744   1.917   0.249   2.126
  577SOL    HW2 1745   2.024   0.129   2.158
  578SOL     OW 1746   2.456   0.745   2.514
  578SOL    HW1 1747   2.506   0.830   2.495
  578SOL    HW2 1748   2.368   0.747   2.466
  579SOL     OW 1749   2.523   1.790   2.815
  579SOL    HW1 1750   2.477   1.878   2.802
  579SOL    HW2 1751   2.622   1.802   2.808
  580SOL     OW 1752   1.941   1.240   2.515
  580SOL    HW1 1753   1.940   1.193   2.603
  580SOL    HW2 1754   2.023   1.212   2.464
  581SOL     OW 1755   2.290   0.424   2.382
  581SOL    HW1 1756   2.320   0.352   2.320
  581SOL    HW2 1757   2.251   0.384   2.465
  582SOL     OW 1758   2.674   1.586   2.549
  582SOL    HW1 1759   2.706   1.596   2.455
  582SOL    HW2 1760   2.595   1.524   2.551
  583SOL     OW 1761   1.901   1.077   2.162
  583SOL    HW1 1762   2.000   1.066   2.153
  583SOL    HW2 1763   1.861   0.991   2.194
  584SOL     OW 1764   2.092   2.490   0.113
  584SOL    HW1 1765   1.999   2.488   0.150
  584SOL    HW2 1766   2.093   2.451   0.021
  585SOL     OW 1767   2.087   2.137   0.996
  585SOL    HW1 1768   2.122   2.120   1.088
  585SOL    HW2 1769   1.999   2.092   0.984
  586SOL     OW 1770   1.881   2.230   0.647
  586SOL    HW1 1771   1.799   2.273   0.686
  586SOL    HW2 1772   1.853   2.157   0.584
  587SOL     OW 1773   2.712   2.660   1.823
  587SOL    HW1 1774   2.708   2.736   1.888
  587SOL    HW2 1775   2.734   2.696   1.732
  588SOL     OW 1776   2.547   2.874   0.665
  588SOL    HW1 1777   2.616   2.858   0.735
  588SOL    HW2 1778   2.474   2.931   0.703
  589SOL     OW 1779   2.300   2.254   1.499
  589SOL    HW1 1780   2.382   2.198   1.508
  589SOL    HW2 1781   2.219   2.196   1.503
  590SOL     OW 1782   1.984   2.505   0.563
  590SOL    HW1 1783   1.939   2.417   0.580
  590SOL    HW2 1784   1.983   2.559   0.647
  591SOL     OW 1785   1.975   2.599   1.597
  591SOL    HW1 1786   2.063   2.586   1.642
  591SOL    HW2 1787   1.962   2.696   1.575
  592SOL     OW 1788   2.671   1.866   0.502
  592SOL    HW1 1789   2.711   1.957   0.493
  592SOL    HW2 1790   2.571   1.874   0.508
  593SOL     OW 1791   2.179   2.113   1.801
  593SOL    HW1 1792   2.250   2.184   1.807
  593SOL    HW2 1793   2.091   2.152   1.829
  594SOL     OW 1794   2.460   2.591   0.270
  594SOL    HW1 1795   2.484   2.660   0.202
  594SOL    HW2 1796   2.382   2.624   0.324
  595SOL     OW 1797   2.412   2.058   0.885
  595SOL    HW1 1798   2.407   2.053   0.985
  595SOL    HW2 1799   2.414   2.154   0.856
  596SOL     OW 1800   2.064   2.147   1.498
  596SOL    HW1 1801   1.984   2.207   1.485
  596SOL    HW2 1802   2.054   2.098   1.584
  597SOL     OW 1803   2.244   2.562   0.480
  597SOL    HW1 1804   2.289   2.472   0.477
  597SOL    HW2 1805   2.150   2.551   0.513
  598SOL     OW 1806   2.784   2.365   0.899
  598SOL    HW1 1807   2.759   2.356   0.803
  598SOL    HW2 1808   2.832   2.283   0.930
  599SOL     OW 1809   2.401   1.926   0.512
  599SOL    HW1 1810   2.320   1.927   0.570
  599SOL    HW2 1811   2.404   2.009   0.457
  600SOL     OW 1812   2.159   1.897   0.171
  600SOL    HW1 1813   2.208   1.981   0.150
  600SOL    HW2 1814   2.221   1.832   0.216
  601SOL     OW 1815   1.940   2.418   1.386
  601SOL    HW1 1816   2.032   2.417   1.345
  601SOL    HW2 1817   1.934   2.492   1.453
  602SOL     OW 1818   2.423   2.084   1.147
  602SOL    HW1 1819   2.461   2.000   1.184
  602SOL    HW2 1820   2.335   2.103   1.191
  603SOL     OW 1821   2.389   2.118   0.328
  603SOL    HW1 1822   2.416   2.059   0.253
  603SOL    HW2 1823   2.389   2.213   0.297
  604SOL     OW 1824   2.777   1.951   1.402
  604SOL    HW1 1825   2.802   1.931   1.307
  604SOL    HW2 1826   2.849   2.007   1.444
  605SOL     OW 1827   2.272   2.675   1.251
  605SOL    HW1 1828   2.358   2.687   1.301
  605SOL    HW2 1829   2.230   2.588   1.278
  606SOL     OW 1830   2.428   2.399   0.865
  606SOL    HW1 1831   2.440   2.465   0.791
  606SOL    HW2 1832   2.474   2.433   0.948
  607SOL     OW 1833   2.366   1.912   1.740
  607SOL    HW1 1834   2.324   1.855   1.670
  607SOL    HW2 1835   2.300   1.981   1.772
  608SOL     OW 1836   2.169   2.075   1.231
  608SOL    HW1 1837   2.146   2.112   1.321
  608SOL    HW2 1838   2.139   1.980   1.225
  609SOL     OW 1839   2.594   2.496   1.064
  609SOL    HW1 1840   2.653   2.470   0.988
  609SOL    HW2 1841   2.566   2.592   1.053
  610SOL     OW 1842   2.169   1.925   0.618
  610SOL    HW1 1843   2.158   2.019   0.651
  610SOL    HW2 1844   2.164   1.862   0.695
  611SOL     OW 1845   2.181   2.672   0.949
  611SOL    HW1 1846   2.274   2.708   0.954
  611SOL    HW2 1847   2.175   2.587   1.001
  612SOL     OW 1848   2.201   2.371   1.006
  612SOL    HW1 1849   2.149   2.288   0.989
  612SOL    HW2 1850   2.278   2.376   0.942
  613SOL     OW 1851   1.902   2.406   1.114
  613SOL    HW1 1852   1.987   2.373   1.073
  613SOL    HW2 1853   1.915   2.421   1.212
  614SOL     OW 1854   2.051   2.382   1.722
  614SOL    HW1 1855   2.110   2.342   1.652
  614SOL    HW2 1856   1.993   2.453   1.681
  615SOL     OW 1857   2.533   2.326   1.269
  615SOL    HW1 1858   2.499   2.237   1.239
  615SOL    HW2 1859   2.559   2.380   1.189
  616SOL     OW 1860   2.335   2.362   0.191
  616SOL    HW1 1861   2.396   2.442   0.195
  616SOL    HW2 1862   2.240   2.393   0.198
  617SOL     OW 1863   2.125   2.188   0.720
  617SOL    HW1 1864   2.046   2.239   0.686
  617SOL    HW2 1865   2.116   2.173   0.818
  618SOL     OW 1866   1.967   2.875   1.726
  618SOL    HW1 1867   1.890   2.842   1.780
  618SOL    HW2 1868   2.052   2.845   1.768
  619SOL     OW 1869   2.534   2.065   1.489
  619SOL    HW1 1870   2.624   2.049   1.449
  619SOL    HW2 1871   2.542   2.070   1.588
  620SOL     OW 1872   1.937   2.207   0.033
  620SOL    HW1 1873   1.845   2.179   0.004
  620SOL    HW2 1874   1.968   2.284  -0.023
  621SOL     OW 1875   1.934   2.028   0.318
  621SOL    HW1 1876   1.917   2.111   0.264
  621SOL    HW2 1877   2.024   1.991   0.296
  622SOL     OW 1878   2.578   2.427   1.708
  622SOL    HW1 1879   2.597   2.492   1.782
  622SOL    HW2 1880   2.638   2.347   1.717
  623SOL     OW 1881   2.456   2.607   0.652
  623SOL    HW1 1882   2.506   2.692   0.633
  623SOL    HW2 1883   2.368   2.609   0.604
  624SOL     OW 1884   2.290   2.286   0.520
  624SOL    HW1 1885   2.320   2.214   0.458
  624SOL    HW2 1886   2.251   2.246   0.603
  625SOL     OW 1887   2.179   2.409   1.280
  625SOL    HW1 1888   2.217   2.350   1.352
  625SOL    HW2 1889   2.219   2.383   1.192
  626SOL     OW 1890   2.092   2.490   1.975
  626SOL    HW1 1891   1.999   2.488   2.012
  626SOL    HW2 1892   2.093   2.451   1.883
  627SOL     OW 1893   2.087   2.137   2.858
  627SOL    HW1 1894   2.122   2.120   2.950
  627SOL    HW2 1895   1.999   2.092   2.846
  628SOL     OW 1896   1.881   2.230   2.509
  628SOL    HW1 1897   1.799   2.273   2.548
  628SOL    HW2 1898   1.853   2.157   2.446
  629SOL     OW 1899   2.547   2.874   2.527
  629SOL    HW1 1900   2.616   2.858   2.597
  629SOL    HW2 1901   2.474   2.931   2.565
  630SOL     OW 1902   1.984   2.505   2.425
  630SOL    HW1 1903   1.939   2.417   2.442
  630SOL    HW2 1904   1.983   2.559   2.509
  631SOL     OW 1905   2.671   1.866   2.364
  631SOL    HW1 1906   2.711   1.957   2.355
  631SOL    HW2 1907   2.571   1.874   2.370
  632SOL     OW 1908   2.460   2.591   2.132
  632SOL    HW1 1909   2.484   2.660   2.064
  632SOL    HW2 1910   2.382   2.624   2.186
  633SOL     OW 1911   2.244   2.562   2.342
  633SOL    HW1 1912   2.289   2.472   2.339
  633SOL    HW2 1913   2.150   2.551   2.375
  634SOL     OW 1914   2.476   1.984   1.979
  634SOL    HW1 1915   2.574   1.962   1.986
  634SOL    HW2 1916   2.445   1.967   1.886
  635SOL     OW 1917   2.401   1.926   2.374
  635SOL    HW1 1918   2.320   1.927   2.432
  635SOL    HW2 1919   2.404   2.009   2.319
  636SOL     OW 1920   2.159   1.897   2.033
  636SOL    HW1 1921   2.208   1.981   2.012
  636SOL    HW2 1922   2.221   1.832   2.078
  637SOL     OW 1923   2.389   2.118   2.190
  637SOL    HW1 1924   2.416   2.059   2.115
  637SOL    HW2 1925   2.389   2.213   2.159
  638SOL     OW 1926   2.169   1.925   2.480
  638SOL    HW1 1927   2.158   2.019   2.513
  638SOL    HW2 1928   2.164   1.862   2.557
  639SOL     OW 1929   2.677   2.434   2.187
  639SOL    HW1 1930   2.684   2.345   2.141
  639SOL    HW2 1931   2.583   2.468   2.179
  640SOL     OW 1932   2.335   2.362   2.053
  640SOL    HW1 1933   2.396   2.442   2.057
  640SOL    HW2 1934   2.240   2.393   2.060
  641SOL     OW 1935   2.125   2.188   2.582
  641SOL    HW1 1936   2.046   2.239   2.548
  641SOL    HW2 1937   2.116   2.173   2.680
  642SOL     OW 1938   1.937   2.207   1.895
  642SOL    HW1 1939   1.845   2.179   1.866
  642SOL    HW2 1940   1.968   2.284   1.839
  643SOL     OW 1941   1.934   2.028   2.180
  643SOL    HW1 1942   1.917   2.111   2.126
  643SOL    HW2 1943   2.024   1.991   2.158
  644SOL     OW 1944   2.456   2.607   2.514
  644SOL    HW1 1945   2.506   2.692   2.495
  644SOL    HW2 1946   2.368   2.609   2.466
  645SOL     OW 1947   2.290   2.286   2.382
  645SOL    HW1 1948   2.320   2.214   2.320
  645SOL    HW2 1949   2.251   2.246   2.465
   2.71135   2.71135   2.71135
