mobley_8207196_GMX.gro created by acpype (v: 2023.10.27) on Thu May 14 13:49:09 2026
 2476
    1MOL     C1    1   1.333   1.422   1.539
    1MOL     C2    2   1.411   1.414   1.327
    1MOL     C3    3   1.210   1.336   1.377
    1MOL     C4    4   1.480   1.480   1.874
    1MOL     C5    5   1.688   1.571   1.137
    1MOL     C6    6   1.482   1.447   1.726
    1MOL     C7    7   1.589   1.555   1.252
    1MOL     N1    8   1.431   1.448   1.453
    1MOL     N2    9   1.219   1.365   1.506
    1MOL     N3   10   1.300   1.357   1.282
    1MOL     N4   11   1.346   1.457   1.673
    1MOL     N5   12   1.509   1.436   1.231
    1MOL    CL1   13   1.064   1.262   1.327
    1MOL     H1   14   1.442   1.581   1.892
    1MOL     H2   15   1.416   1.411   1.930
    1MOL     H3   16   1.581   1.474   1.915
    1MOL     H4   17   1.754   1.484   1.130
    1MOL     H5   18   1.635   1.580   1.042
    1MOL     H6   19   1.749   1.660   1.152
    1MOL     H7   20   1.521   1.346   1.712
    1MOL     H8   21   1.548   1.518   1.675
    1MOL     H9   22   1.525   1.644   1.257
    1MOL    H10   23   1.646   1.547   1.346
    1MOL    H11   24   1.276   1.404   1.724
    1MOL    H12   25   1.464   1.429   1.141
    2SOL     OW   26   0.230   0.628   0.113
    2SOL    HW1   27   0.137   0.626   0.150
    2SOL    HW2   28   0.231   0.589   0.021
    3SOL     OW   29   0.225   0.275   0.996
    3SOL    HW1   30   0.260   0.258   1.088
    3SOL    HW2   31   0.137   0.230   0.984
    4SOL     OW   32   0.019   0.368   0.647
    4SOL    HW1   33  -0.063   0.411   0.686
    4SOL    HW2   34  -0.009   0.295   0.584
    5SOL     OW   35   0.569   1.275   1.165
    5SOL    HW1   36   0.476   1.268   1.128
    5SOL    HW2   37   0.580   1.364   1.209
    6SOL     OW   38   1.555   1.511   0.703
    6SOL    HW1   39   1.498   1.495   0.784
    6SOL    HW2   40   1.496   1.521   0.623
    7SOL     OW   41   1.135   0.703   0.717
    7SOL    HW1   42   1.192   0.781   0.692
    7SOL    HW2   43   1.075   0.729   0.793
    8SOL     OW   44   1.755   0.607   0.231
    8SOL    HW1   45   1.743   0.594   0.132
    8SOL    HW2   46   1.725   0.526   0.280
    9SOL     OW   47   0.768   1.144   1.023
    9SOL    HW1   48   0.690   1.161   1.083
    9SOL    HW2   49   0.802   1.231   0.987
   10SOL     OW   50   0.850   0.798   1.823
   10SOL    HW1   51   0.846   0.874   1.888
   10SOL    HW2   52   0.872   0.834   1.732
   11SOL     OW   53   0.685   1.012   0.665
   11SOL    HW1   54   0.754   0.996   0.735
   11SOL    HW2   55   0.612   1.069   0.703
   12SOL     OW   56   0.686   1.161   1.803
   12SOL    HW1   57   0.746   1.240   1.817
   12SOL    HW2   58   0.600   1.192   1.762
   13SOL     OW   59   0.335   1.435   1.061
   13SOL    HW1   60   0.257   1.404   1.008
   13SOL    HW2   61   0.393   1.493   1.004
   14SOL     OW   62   0.438   0.392   1.499
   14SOL    HW1   63   0.520   0.336   1.508
   14SOL    HW2   64   0.357   0.334   1.503
   15SOL     OW   65   1.603   0.447   0.737
   15SOL    HW1   66   1.529   0.493   0.687
   15SOL    HW2   67   1.654   0.515   0.790
   16SOL     OW   68   0.231   1.713   0.483
   16SOL    HW1   69   0.265   1.790   0.537
   16SOL    HW2   70   0.275   1.713   0.393
   17SOL     OW   71   0.230   1.434   0.538
   17SOL    HW1   72   0.204   1.530   0.538
   17SOL    HW2   73   0.159   1.380   0.583
   18SOL     OW   74   0.240   1.091   0.886
   18SOL    HW1   75   0.254   1.007   0.938
   18SOL    HW2   76   0.185   1.155   0.941
   19SOL     OW   77   0.620   1.786   1.439
   19SOL    HW1   78   0.528   1.769   1.474
   19SOL    HW2   79   0.648   1.878   1.465
   20SOL     OW   80   0.606   0.964   0.123
   20SOL    HW1   81   0.613   1.048   0.069
   20SOL    HW2   82   0.652   0.977   0.211
   21SOL     OW   83   1.594   0.114   1.480
   21SOL    HW1   84   1.576   0.181   1.408
   21SOL    HW2   85   1.591   0.160   1.569
   22SOL     OW   86   0.122   0.643   0.563
   22SOL    HW1   87   0.077   0.555   0.580
   22SOL    HW2   88   0.121   0.697   0.647
   23SOL     OW   89   1.842   1.767   0.359
   23SOL    HW1   90   1.896   1.738   0.439
   23SOL    HW2   91   1.872   1.857   0.330
   24SOL     OW   92   0.027   1.596   0.117
   24SOL    HW1   93   0.008   1.500   0.138
   24SOL    HW2   94  -0.006   1.654   0.192
   25SOL     OW   95   1.689   0.922   0.612
   25SOL    HW1   96   1.784   0.893   0.620
   25SOL    HW2   97   1.681   0.987   0.537
   26SOL     OW   98   1.641   1.108   0.432
   26SOL    HW1   99   1.727   1.110   0.380
   26SOL    HW2  100   1.655   1.155   0.520
   27SOL     OW  101   0.113   0.737   1.597
   27SOL    HW1  102   0.201   0.724   1.642
   27SOL    HW2  103   0.100   0.834   1.575
   28SOL     OW  104   0.613   1.365   0.726
   28SOL    HW1  105   0.564   1.278   0.735
   28SOL    HW2  106   0.590   1.408   0.639
   29SOL     OW  107   0.809   0.004   0.502
   29SOL    HW1  108   0.849   0.095   0.493
   29SOL    HW2  109   0.709   0.012   0.508
   30SOL     OW  110   0.197   0.976   1.264
   30SOL    HW1  111   0.286   0.931   1.250
   30SOL    HW2  112   0.124   0.911   1.245
   31SOL     OW  113   1.525   0.999   0.190
   31SOL    HW1  114   1.462   0.923   0.203
   31SOL    HW2  115   1.573   1.017   0.276
   32SOL     OW  116   1.187   1.792   1.616
   32SOL    HW1  117   1.211   1.852   1.540
   32SOL    HW2  118   1.194   1.697   1.586
   33SOL     OW  119   0.317   0.251   1.801
   33SOL    HW1  120   0.388   0.322   1.807
   33SOL    HW2  121   0.229   0.290   1.829
   34SOL     OW  122   1.667   1.714   0.572
   34SOL    HW1  123   1.626   1.691   0.484
   34SOL    HW2  124   1.649   1.640   0.637
   35SOL     OW  125   0.598   0.729   0.270
   35SOL    HW1  126   0.622   0.798   0.202
   35SOL    HW2  127   0.520   0.762   0.324
   36SOL     OW  128   1.281   0.345   0.944
   36SOL    HW1  129   1.195   0.295   0.931
   36SOL    HW2  130   1.343   0.291   1.000
   37SOL     OW  131   1.576   1.662   0.307
   37SOL    HW1  132   1.665   1.708   0.310
   37SOL    HW2  133   1.555   1.638   0.212
   38SOL     OW  134   0.807   0.605   1.465
   38SOL    HW1  135   0.760   0.602   1.554
   38SOL    HW2  136   0.756   0.550   1.399
   39SOL     OW  137   1.394   0.469   1.674
   39SOL    HW1  138   1.374   0.512   1.762
   39SOL    HW2  139   1.472   0.407   1.683
   40SOL     OW  140   0.973   0.890   1.572
   40SOL    HW1  141   1.019   0.806   1.543
   40SOL    HW2  142   0.917   0.924   1.497
   41SOL     OW  143   0.991   0.410   1.242
   41SOL    HW1  144   0.914   0.444   1.296
   41SOL    HW2  145   0.957   0.359   1.163
   42SOL     OW  146   1.041   0.701   0.429
   42SOL    HW1  147   1.067   0.697   0.525
   42SOL    HW2  148   0.956   0.650   0.415
   43SOL     OW  149   0.076   0.811   0.789
   43SOL    HW1  150   0.175   0.799   0.798
   43SOL    HW2  151   0.052   0.906   0.810
   44SOL     OW  152   0.130   1.821   1.571
   44SOL    HW1  153   0.120   1.806   1.670
   44SOL    HW2  154   0.044   1.857   1.535
   45SOL     OW  155   0.865   0.348   0.195
   45SOL    HW1  156   0.924   0.411   0.146
   45SOL    HW2  157   0.884   0.254   0.166
   46SOL     OW  158   1.719   0.585   1.831
   46SOL    HW1  159   1.693   0.674   1.795
   46SOL    HW2  160   1.717   0.517   1.758
   47SOL     OW  161   1.362   1.144   0.545
   47SOL    HW1  162   1.445   1.115   0.497
   47SOL    HW2  163   1.313   1.211   0.489
   48SOL     OW  164   0.550   0.196   0.885
   48SOL    HW1  165   0.545   0.191   0.985
   48SOL    HW2  166   0.552   0.292   0.856
   49SOL     OW  167   1.008   1.456   0.477
   49SOL    HW1  168   0.962   1.528   0.425
   49SOL    HW2  169   1.004   1.476   0.575
   50SOL     OW  170   0.351   1.801   0.853
   50SOL    HW1  171   0.401   1.715   0.859
   50SOL    HW2  172   0.416   1.878   0.850
   51SOL     OW  173   1.795   1.066   0.873
   51SOL    HW1  174   1.733   1.051   0.797
   51SOL    HW2  175   1.743   1.077   0.958
   52SOL     OW  176   0.321   0.943   0.242
   52SOL    HW1  177   0.403   0.982   0.200
   52SOL    HW2  178   0.294   0.861   0.193
   53SOL     OW  179   1.458   0.735   0.728
   53SOL    HW1  180   1.453   0.670   0.803
   53SOL    HW2  181   1.538   0.794   0.741
   54SOL     OW  182   0.461   1.266   1.727
   54SOL    HW1  183   0.411   1.267   1.641
   54SOL    HW2  184   0.398   1.248   1.803
   55SOL     OW  185   1.111   1.776   0.237
   55SOL    HW1  186   1.051   1.714   0.287
   55SOL    HW2  187   1.142   1.732   0.152
   56SOL     OW  188   0.202   0.285   1.498
   56SOL    HW1  189   0.122   0.345   1.485
   56SOL    HW2  190   0.192   0.236   1.584
   57SOL     OW  191   1.632   1.377   0.081
   57SOL    HW1  192   1.600   1.471   0.071
   57SOL    HW2  193   1.556   1.314   0.069
   58SOL     OW  194   0.464   1.743   0.323
   58SOL    HW1  195   0.497   1.782   0.409
   58SOL    HW2  196   0.540   1.736   0.258
   59SOL     OW  197   1.400   0.107   0.426
   59SOL    HW1  198   1.376   0.070   0.336
   59SOL    HW2  199   1.499   0.123   0.430
   60SOL     OW  200   0.249   1.785   1.241
   60SOL    HW1  201   0.306   1.720   1.291
   60SOL    HW2  202   0.233   1.752   1.148
   61SOL     OW  203   0.940   1.698   0.904
   61SOL    HW1  204   1.020   1.641   0.925
   61SOL    HW2  205   0.891   1.658   0.827
   62SOL     OW  206   0.382   0.700   0.480
   62SOL    HW1  207   0.427   0.610   0.477
   62SOL    HW2  208   0.288   0.689   0.513
   63SOL     OW  209   1.547   0.222   1.729
   63SOL    HW1  210   1.542   0.259   1.821
   63SOL    HW2  211   1.475   0.153   1.717
   64SOL     OW  212   0.614   0.122   0.117
   64SOL    HW1  213   0.712   0.100   0.124
   64SOL    HW2  214   0.583   0.105   0.024
   65SOL     OW  215   0.781   0.264   1.749
   65SOL    HW1  216   0.848   0.203   1.792
   65SOL    HW2  217   0.708   0.283   1.814
   66SOL     OW  218   0.888   1.514   1.195
   66SOL    HW1  219   0.865   1.489   1.101
   66SOL    HW2  220   0.949   1.445   1.234
   67SOL     OW  221   1.351   0.590   1.433
   67SOL    HW1  222   1.379   0.547   1.518
   67SOL    HW2  223   1.376   0.686   1.434
   68SOL     OW  224   0.803   1.402   0.924
   68SOL    HW1  225   0.893   1.416   0.882
   68SOL    HW2  226   0.732   1.404   0.853
   69SOL     OW  227   0.922   0.503   0.899
   69SOL    HW1  228   0.897   0.494   0.803
   69SOL    HW2  229   0.970   0.421   0.930
   70SOL     OW  230   0.539   0.064   0.512
   70SOL    HW1  231   0.458   0.065   0.570
   70SOL    HW2  232   0.542   0.147   0.457
   71SOL     OW  233   1.434   1.188   0.041
   71SOL    HW1  234   1.466   1.112   0.098
   71SOL    HW2  235   1.342   1.215   0.071
   72SOL     OW  236   0.297   0.035   0.171
   72SOL    HW1  237   0.346   0.119   0.150
   72SOL    HW2  238   0.359  -0.030   0.216
   73SOL     OW  239   0.935   0.236   0.480
   73SOL    HW1  240   0.887   0.277   0.402
   73SOL    HW2  241   1.034   0.234   0.461
   74SOL     OW  242   1.076   0.683   1.464
   74SOL    HW1  243   0.996   0.622   1.467
   74SOL    HW2  244   1.157   0.630   1.440
   75SOL     OW  245   1.227   1.570   0.793
   75SOL    HW1  246   1.248   1.644   0.728
   75SOL    HW2  247   1.295   1.570   0.866
   76SOL     OW  248   0.459   1.152   0.741
   76SOL    HW1  249   0.388   1.125   0.806
   76SOL    HW2  250   0.433   1.124   0.648
   77SOL     OW  251   1.271   1.797   0.591
   77SOL    HW1  252   1.315   1.861   0.527
   77SOL    HW2  253   1.221   1.849   0.661
   78SOL     OW  254   1.032   0.549   0.016
   78SOL    HW1  255   0.991   0.631  -0.023
   78SOL    HW2  256   1.096   0.575   0.089
   79SOL     OW  257   0.078   0.556   1.386
   79SOL    HW1  258   0.170   0.555   1.345
   79SOL    HW2  259   0.072   0.630   1.453
   80SOL     OW  260   0.561   0.222   1.147
   80SOL    HW1  261   0.599   0.138   1.184
   80SOL    HW2  262   0.473   0.241   1.191
   81SOL     OW  263   0.866   0.454   0.642
   81SOL    HW1  264   0.834   0.526   0.580
   81SOL    HW2  265   0.890   0.373   0.589
   82SOL     OW  266   1.017   0.039   0.753
   82SOL    HW1  267   0.945   0.044   0.684
   82SOL    HW2  268   0.993  -0.030   0.822
   83SOL     OW  269   1.429   1.173   0.867
   83SOL    HW1  270   1.374   1.089   0.860
   83SOL    HW2  271   1.455   1.202   0.775
   84SOL     OW  272   1.466   0.590   0.992
   84SOL    HW1  273   1.436   0.495   0.999
   84SOL    HW2  274   1.539   0.606   1.058
   85SOL     OW  275   1.857   0.833   0.377
   85SOL    HW1  276   1.899   0.769   0.441
   85SOL    HW2  277   1.819   0.782   0.299
   86SOL     OW  278   0.488   1.385   0.174
   86SOL    HW1  279   0.401   1.370   0.221
   86SOL    HW2  280   0.471   1.411   0.079
   87SOL     OW  281   1.664   1.280   0.657
   87SOL    HW1  282   1.763   1.288   0.671
   87SOL    HW2  283   1.619   1.364   0.688
   88SOL     OW  284   1.390   0.575   0.078
   88SOL    HW1  285   1.336   0.554   0.159
   88SOL    HW2  286   1.481   0.534   0.087
   89SOL     OW  287   0.527   0.256   0.328
   89SOL    HW1  288   0.554   0.197   0.253
   89SOL    HW2  289   0.527   0.351   0.297
   90SOL     OW  290   1.754   1.223   1.588
   90SOL    HW1  291   1.845   1.184   1.575
   90SOL    HW2  292   1.762   1.319   1.612
   91SOL     OW  293   1.638   1.099   1.079
   91SOL    HW1  294   1.643   1.180   1.138
   91SOL    HW2  295   1.552   1.101   1.028
   92SOL     OW  296   0.915   0.089   1.402
   92SOL    HW1  297   0.940   0.069   1.307
   92SOL    HW2  298   0.987   0.145   1.444
   93SOL     OW  299   0.980   1.116   1.719
   93SOL    HW1  300   0.881   1.122   1.729
   93SOL    HW2  301   1.003   1.036   1.663
   94SOL     OW  302   0.705   1.050   0.368
   94SOL    HW1  303   0.691   1.057   0.467
   94SOL    HW2  304   0.789   0.999   0.350
   95SOL     OW  305   0.410   0.813   1.251
   95SOL    HW1  306   0.496   0.825   1.301
   95SOL    HW2  307   0.368   0.726   1.278
   96SOL     OW  308   1.274   0.386   1.262
   96SOL    HW1  309   1.295   0.460   1.326
   96SOL    HW2  310   1.185   0.403   1.219
   97SOL     OW  311   0.064   1.564   1.331
   97SOL    HW1  312   0.018   1.646   1.297
   97SOL    HW2  313   0.162   1.583   1.340
   98SOL     OW  314   0.367   1.100   0.501
   98SOL    HW1  315   0.360   1.183   0.445
   98SOL    HW2  316   0.371   1.020   0.441
   99SOL     OW  317   0.566   0.537   0.865
   99SOL    HW1  318   0.578   0.603   0.791
   99SOL    HW2  319   0.612   0.571   0.948
  100SOL     OW  320   1.252   1.348   0.388
  100SOL    HW1  321   1.302   1.425   0.428
  100SOL    HW2  322   1.157   1.350   0.420
  101SOL     OW  323   1.582   0.639   0.472
  101SOL    HW1  324   1.551   0.700   0.545
  101SOL    HW2  325   1.632   0.691   0.403
  102SOL     OW  326   0.354   1.510   1.329
  102SOL    HW1  327   0.333   1.466   1.242
  102SOL    HW2  328   0.451   1.536   1.332
  103SOL     OW  329   0.402   0.751   1.598
  103SOL    HW1  330   0.470   0.806   1.551
  103SOL    HW2  331   0.442   0.663   1.625
  104SOL     OW  332   1.587   0.779   1.670
  104SOL    HW1  333   1.495   0.817   1.665
  104SOL    HW2  334   1.647   0.826   1.605
  105SOL     OW  335   1.013   0.105   1.770
  105SOL    HW1  336   1.019   0.190   1.718
  105SOL    HW2  337   1.045   0.029   1.713
  106SOL     OW  338   0.504   0.050   1.740
  106SOL    HW1  339   0.462  -0.007   1.670
  106SOL    HW2  340   0.438   0.119   1.772
  107SOL     OW  341   0.573   0.870   1.029
  107SOL    HW1  342   0.617   0.959   1.020
  107SOL    HW2  343   0.510   0.870   1.106
  108SOL     OW  344   1.360   0.862   1.045
  108SOL    HW1  345   1.285   0.862   0.979
  108SOL    HW2  346   1.397   0.770   1.054
  109SOL     OW  347   1.209   0.525   0.275
  109SOL    HW1  348   1.222   0.441   0.329
  109SOL    HW2  349   1.180   0.599   0.335
  110SOL     OW  350   0.307   0.213   1.231
  110SOL    HW1  351   0.284   0.250   1.321
  110SOL    HW2  352   0.277   0.118   1.225
  111SOL     OW  353   0.037   1.310   1.282
  111SOL    HW1  354   0.090   1.261   1.350
  111SOL    HW2  355   0.059   1.408   1.287
  112SOL     OW  356   0.732   0.634   1.064
  112SOL    HW1  357   0.791   0.608   0.988
  112SOL    HW2  358   0.704   0.730   1.053
  113SOL     OW  359   1.728   0.935   1.854
  113SOL    HW1  360   1.682   0.928   1.765
  113SOL    HW2  361   1.666   0.979   1.920
  114SOL     OW  362   0.307   0.063   0.618
  114SOL    HW1  363   0.296   0.157   0.651
  114SOL    HW2  364   0.302   0.000   0.695
  115SOL     OW  365   1.622   0.367   0.374
  115SOL    HW1  366   1.624   0.291   0.438
  115SOL    HW2  367   1.574   0.444   0.414
  116SOL     OW  368   1.023   0.766   0.966
  116SOL    HW1  369   1.038   0.787   1.062
  116SOL    HW2  370   0.993   0.671   0.957
  117SOL     OW  371   0.980   1.573   1.700
  117SOL    HW1  372   0.960   1.617   1.612
  117SOL    HW2  373   1.019   1.482   1.684
  118SOL     OW  374   1.859   1.518   1.605
  118SOL    HW1  375   1.873   1.545   1.510
  118SOL    HW2  376   1.942   1.540   1.658
  119SOL     OW  377   0.350   0.898   1.804
  119SOL    HW1  378   0.426   0.942   1.852
  119SOL    HW2  379   0.385   0.851   1.722
  120SOL     OW  380   1.540   0.274   0.125
  120SOL    HW1  381   1.479   0.199   0.148
  120SOL    HW2  382   1.562   0.326   0.208
  121SOL     OW  383   1.303   0.838   0.042
  121SOL    HW1  384   1.337   0.745   0.057
  121SOL    HW2  385   1.321   0.865  -0.053
  122SOL     OW  386   1.068   1.333   0.849
  122SOL    HW1  387   1.075   1.249   0.794
  122SOL    HW2  388   1.130   1.402   0.813
  123SOL     OW  389   0.319   0.810   0.949
  123SOL    HW1  390   0.412   0.846   0.954
  123SOL    HW2  391   0.313   0.725   1.001
  124SOL     OW  392   0.339   0.509   1.006
  124SOL    HW1  393   0.287   0.426   0.989
  124SOL    HW2  394   0.416   0.514   0.942
  125SOL     OW  395   1.138   0.380   1.678
  125SOL    HW1  396   1.093   0.443   1.742
  125SOL    HW2  397   1.231   0.411   1.661
  126SOL     OW  398   1.160   0.207   1.477
  126SOL    HW1  399   1.160   0.271   1.554
  126SOL    HW2  400   1.188   0.255   1.394
  127SOL     OW  401   0.008   1.326   0.200
  127SOL    HW1  402  -0.085   1.347   0.169
  127SOL    HW2  403   0.018   1.227   0.213
  128SOL     OW  404   0.088   1.801   0.927
  128SOL    HW1  405   0.046   1.715   0.900
  128SOL    HW2  406   0.182   1.804   0.893
  129SOL     OW  407   0.504   1.568   0.910
  129SOL    HW1  408   0.570   1.642   0.919
  129SOL    HW2  409   0.548   1.489   0.868
  130SOL     OW  410   1.002   0.796   1.238
  130SOL    HW1  411   1.043   0.764   1.324
  130SOL    HW2  412   0.906   0.769   1.235
  131SOL     OW  413   0.040   0.544   1.114
  131SOL    HW1  414   0.125   0.511   1.073
  131SOL    HW2  415   0.053   0.559   1.212
  132SOL     OW  416   0.189   0.520   1.722
  132SOL    HW1  417   0.248   0.480   1.652
  132SOL    HW2  418   0.131   0.591   1.681
  133SOL     OW  419   1.369   0.950   1.660
  133SOL    HW1  420   1.408   1.039   1.680
  133SOL    HW2  421   1.379   0.930   1.563
  134SOL     OW  422   0.815   0.572   0.325
  134SOL    HW1  423   0.822   0.483   0.279
  134SOL    HW2  424   0.721   0.606   0.317
  135SOL     OW  425   1.657   0.604   1.206
  135SOL    HW1  426   1.619   0.535   1.268
  135SOL    HW2  427   1.739   0.568   1.162
  136SOL     OW  428   0.252   1.564   1.744
  136SOL    HW1  429   0.222   1.621   1.820
  136SOL    HW2  430   0.245   1.467   1.770
  137SOL     OW  431   0.671   0.464   1.269
  137SOL    HW1  432   0.637   0.375   1.239
  137SOL    HW2  433   0.697   0.518   1.189
  138SOL     OW  434   0.930   1.678   1.465
  138SOL    HW1  435   0.906   1.660   1.370
  138SOL    HW2  436   0.960   1.772   1.475
  139SOL     OW  437   0.473   0.500   0.191
  139SOL    HW1  438   0.534   0.580   0.195
  139SOL    HW2  439   0.378   0.531   0.198
  140SOL     OW  440   0.159   1.137   1.466
  140SOL    HW1  441   0.181   1.076   1.542
  140SOL    HW2  442   0.169   1.088   1.380
  141SOL     OW  443   1.347   1.059   1.234
  141SOL    HW1  444   1.371   0.996   1.160
  141SOL    HW2  445   1.257   1.099   1.216
  142SOL     OW  446   1.302   0.855   0.309
  142SOL    HW1  447   1.216   0.824   0.351
  142SOL    HW2  448   1.298   0.841   0.210
  143SOL     OW  449   1.252   1.731   1.128
  143SOL    HW1  450   1.336   1.736   1.074
  143SOL    HW2  451   1.229   1.635   1.146
  144SOL     OW  452   0.083   1.258   1.022
  144SOL    HW1  453   0.078   1.257   1.122
  144SOL    HW2  454   0.000   1.217   0.984
  145SOL     OW  455   0.688   1.662   1.716
  145SOL    HW1  456   0.632   1.743   1.725
  145SOL    HW2  457   0.740   1.666   1.630
  146SOL     OW  458   0.903   0.086   0.133
  146SOL    HW1  459   0.954   0.087   0.047
  146SOL    HW2  460   0.959   0.044   0.204
  147SOL     OW  461   1.726   0.135   0.523
  147SOL    HW1  462   1.799   0.118   0.456
  147SOL    HW2  463   1.695   0.048   0.561
  148SOL     OW  464   1.388   1.573   0.477
  148SOL    HW1  465   1.455   1.585   0.403
  148SOL    HW2  466   1.348   1.662   0.500
  149SOL     OW  467   0.130   1.794   1.851
  149SOL    HW1  468   0.089   1.720   1.904
  149SOL    HW2  469   0.194   1.845   1.909
  150SOL     OW  470   1.280   0.927   0.672
  150SOL    HW1  471   1.340   0.846   0.674
  150SOL    HW2  472   1.320   0.996   0.612
  151SOL     OW  473   0.830   1.273   1.422
  151SOL    HW1  474   0.825   1.306   1.517
  151SOL    HW2  475   0.744   1.292   1.376
  152SOL     OW  476   0.672   1.616   0.154
  152SOL    HW1  477   0.681   1.626   0.055
  152SOL    HW2  478   0.632   1.527   0.175
  153SOL     OW  479   1.650   1.720   1.394
  153SOL    HW1  480   1.703   1.730   1.310
  153SOL    HW2  481   1.623   1.810   1.428
  154SOL     OW  482   1.841   0.175   0.963
  154SOL    HW1  483   1.880   0.090   0.927
  154SOL    HW2  484   1.743   0.177   0.944
  155SOL     OW  485   0.263   0.326   0.720
  155SOL    HW1  486   0.184   0.377   0.686
  155SOL    HW2  487   0.254   0.311   0.818
  156SOL     OW  488   1.194   1.612   0.031
  156SOL    HW1  489   1.200   1.519   0.068
  156SOL    HW2  490   1.135   1.612  -0.049
  157SOL     OW  491   0.822   1.002   1.372
  157SOL    HW1  492   0.862   1.001   1.280
  157SOL    HW2  493   0.832   1.094   1.412
  158SOL     OW  494   0.916   0.910   0.291
  158SOL    HW1  495   0.979   0.948   0.223
  158SOL    HW2  496   0.956   0.827   0.330
  159SOL     OW  497   1.504   1.607   0.044
  159SOL    HW1  498   1.412   1.644   0.051
  159SOL    HW2  499   1.542   1.627  -0.046
  160SOL     OW  500   0.372   1.288   1.490
  160SOL    HW1  501   0.359   1.381   1.456
  160SOL    HW2  502   0.288   1.236   1.477
  161SOL     OW  503   1.039   1.098   0.696
  161SOL    HW1  504   0.969   1.051   0.750
  161SOL    HW2  505   1.098   1.030   0.653
  162SOL     OW  506   1.014   0.236   0.971
  162SOL    HW1  507   1.006   0.200   0.878
  162SOL    HW2  508   1.012   0.160   1.036
  163SOL     OW  509   0.590   1.487   0.491
  163SOL    HW1  510   0.632   1.429   0.421
  163SOL    HW2  511   0.546   1.566   0.447
  164SOL     OW  512   1.709   0.385   1.381
  164SOL    HW1  513   1.782   0.454   1.385
  164SOL    HW2  514   1.737   0.310   1.322
  165SOL     OW  515   0.255   1.348   0.290
  165SOL    HW1  516   0.159   1.349   0.263
  165SOL    HW2  517   0.267   1.401   0.374
  166SOL     OW  518   0.105   1.013   1.726
  166SOL    HW1  519   0.028   0.980   1.780
  166SOL    HW2  520   0.190   0.983   1.768
  167SOL     OW  521   0.672   0.203   1.489
  167SOL    HW1  522   0.762   0.187   1.449
  167SOL    HW2  523   0.680   0.208   1.588
  168SOL     OW  524   0.075   0.345   0.033
  168SOL    HW1  525  -0.017   0.317   0.004
  168SOL    HW2  526   0.106   0.422  -0.023
  169SOL     OW  527   1.440   0.856   1.398
  169SOL    HW1  528   1.383   0.908   1.335
  169SOL    HW2  529   1.536   0.868   1.374
  170SOL     OW  530   0.072   0.166   0.318
  170SOL    HW1  531   0.055   0.249   0.264
  170SOL    HW2  532   0.162   0.129   0.296
  171SOL     OW  533   1.183   1.335   0.119
  171SOL    HW1  534   1.084   1.324   0.121
  171SOL    HW2  535   1.217   1.350   0.212
  172SOL     OW  536   0.613   0.842   1.431
  172SOL    HW1  537   0.669   0.923   1.414
  172SOL    HW2  538   0.672   0.762   1.434
  173SOL     OW  539   1.493   1.767   0.959
  173SOL    HW1  540   1.526   1.831   0.890
  173SOL    HW2  541   1.559   1.761   1.034
  174SOL     OW  542   0.716   0.565   1.708
  174SOL    HW1  543   0.735   0.630   1.782
  174SOL    HW2  544   0.776   0.485   1.717
  175SOL     OW  545   1.450   1.220   1.633
  175SOL    HW1  546   1.441   1.210   1.732
  175SOL    HW2  547   1.546   1.213   1.607
  176SOL     OW  548   0.390   1.741   1.560
  176SOL    HW1  549   0.299   1.782   1.558
  176SOL    HW2  550   0.383   1.647   1.592
  177SOL     OW  551   1.674   0.883   1.254
  177SOL    HW1  552   1.647   0.794   1.217
  177SOL    HW2  553   1.675   0.951   1.181
  178SOL     OW  554   1.225   0.325   0.449
  178SOL    HW1  555   1.290   0.251   0.438
  178SOL    HW2  556   1.245   0.375   0.533
  179SOL     OW  557   0.594   0.745   0.652
  179SOL    HW1  558   0.644   0.830   0.633
  179SOL    HW2  559   0.506   0.747   0.604
  180SOL     OW  560   1.777   0.342   1.642
  180SOL    HW1  561   1.760   0.373   1.548
  180SOL    HW2  562   1.693   0.305   1.680
  181SOL     OW  563   1.730   0.934   1.517
  181SOL    HW1  564   1.768   1.025   1.532
  181SOL    HW2  565   1.722   0.917   1.418
  182SOL     OW  566   0.859   1.374   0.016
  182SOL    HW1  567   0.813   1.389   0.104
  182SOL    HW2  568   0.903   1.459  -0.014
  183SOL     OW  569   0.661   1.790   0.953
  183SOL    HW1  570   0.615   1.878   0.940
  183SOL    HW2  571   0.760   1.802   0.946
  184SOL     OW  572   0.859   0.956   0.861
  184SOL    HW1  573   0.913   0.887   0.909
  184SOL    HW2  574   0.827   1.025   0.927
  185SOL     OW  575   1.083   0.984   0.087
  185SOL    HW1  576   1.060   1.037   0.005
  185SOL    HW2  577   1.164   0.928   0.068
  186SOL     OW  578   1.861   1.569   0.851
  186SOL    HW1  579   1.790   1.557   0.781
  186SOL    HW2  580   1.862   1.490   0.911
  187SOL     OW  581   0.221   1.314   1.844
  187SOL    HW1  582   0.156   1.241   1.823
  187SOL    HW2  583   0.225   1.328   1.942
  188SOL     OW  584   0.079   1.240   0.653
  188SOL    HW1  585   0.078   1.193   0.741
  188SOL    HW2  586   0.161   1.212   0.602
  189SOL     OW  587   0.672   1.391   1.624
  189SOL    HW1  588   0.594   1.341   1.662
  189SOL    HW2  589   0.669   1.486   1.655
  190SOL     OW  590   1.824   0.192   1.227
  190SOL    HW1  591   1.820   0.102   1.271
  190SOL    HW2  592   1.827   0.181   1.128
  191SOL     OW  593   0.428   0.424   0.520
  191SOL    HW1  594   0.458   0.352   0.458
  191SOL    HW2  595   0.389   0.384   0.603
  192SOL     OW  596   0.317   0.547   1.280
  192SOL    HW1  597   0.355   0.488   1.352
  192SOL    HW2  598   0.357   0.521   1.192
  193SOL     OW  599   0.812   1.586   0.687
  193SOL    HW1  600   0.844   1.596   0.593
  193SOL    HW2  601   0.733   1.524   0.689
  194SOL     OW  602   1.424   0.214   1.112
  194SOL    HW1  603   1.476   0.149   1.167
  194SOL    HW2  604   1.375   0.277   1.173
  195SOL     OW  605   1.001   0.034   1.154
  195SOL    HW1  606   0.938  -0.038   1.123
  195SOL    HW2  607   1.094  -0.002   1.154
  196SOL     OW  608   0.770   1.330   0.301
  196SOL    HW1  609   0.724   1.243   0.318
  196SOL    HW2  610   0.861   1.327   0.342
  197SOL     OW  611   0.618   1.567   1.284
  197SOL    HW1  612   0.613   1.649   1.341
  197SOL    HW2  613   0.707   1.564   1.239
  198SOL     OW  614   1.352   0.052   0.168
  198SOL    HW1  615   1.387   0.011   0.084
  198SOL    HW2  616   1.262   0.014   0.188
  199SOL     OW  617   1.300   0.453   0.691
  199SOL    HW1  618   1.241   0.533   0.695
  199SOL    HW2  619   1.315   0.418   0.784
  200SOL     OW  620   1.593   0.221   0.882
  200SOL    HW1  621   1.509   0.220   0.936
  200SOL    HW2  622   1.595   0.304   0.826
  201SOL     OW  623   0.039   1.077   0.300
  201SOL    HW1  624   0.138   1.066   0.291
  201SOL    HW2  625  -0.001   0.991   0.332
  202SOL     OW  626   0.875   1.646   0.337
  202SOL    HW1  627   0.798   1.611   0.283
  202SOL    HW2  628   0.843   1.717   0.399
  203SOL     OW  629   0.230   0.628   1.975
  203SOL    HW1  630   0.137   0.626   2.012
  203SOL    HW2  631   0.231   0.589   1.883
  204SOL     OW  632   0.225   0.275   2.858
  204SOL    HW1  633   0.260   0.258   2.950
  204SOL    HW2  634   0.137   0.230   2.846
  205SOL     OW  635   0.019   0.368   2.509
  205SOL    HW1  636  -0.063   0.411   2.548
  205SOL    HW2  637  -0.009   0.295   2.446
  206SOL     OW  638   1.555   1.511   2.565
  206SOL    HW1  639   1.498   1.495   2.646
  206SOL    HW2  640   1.496   1.521   2.485
  207SOL     OW  641   1.135   0.703   2.579
  207SOL    HW1  642   1.192   0.781   2.554
  207SOL    HW2  643   1.075   0.729   2.655
  208SOL     OW  644   1.755   0.607   2.093
  208SOL    HW1  645   1.743   0.594   1.994
  208SOL    HW2  646   1.725   0.526   2.142
  209SOL     OW  647   0.768   1.144   2.885
  209SOL    HW1  648   0.690   1.161   2.945
  209SOL    HW2  649   0.802   1.231   2.849
  210SOL     OW  650   0.685   1.012   2.527
  210SOL    HW1  651   0.754   0.996   2.597
  210SOL    HW2  652   0.612   1.069   2.565
  211SOL     OW  653   0.335   1.435   2.923
  211SOL    HW1  654   0.257   1.404   2.870
  211SOL    HW2  655   0.393   1.493   2.866
  212SOL     OW  656   1.603   0.447   2.599
  212SOL    HW1  657   1.529   0.493   2.549
  212SOL    HW2  658   1.654   0.515   2.652
  213SOL     OW  659   0.231   1.713   2.345
  213SOL    HW1  660   0.265   1.790   2.399
  213SOL    HW2  661   0.275   1.713   2.255
  214SOL     OW  662   0.230   1.434   2.400
  214SOL    HW1  663   0.204   1.530   2.400
  214SOL    HW2  664   0.159   1.380   2.445
  215SOL     OW  665   0.240   1.091   2.748
  215SOL    HW1  666   0.254   1.007   2.800
  215SOL    HW2  667   0.185   1.155   2.803
  216SOL     OW  668   0.606   0.964   1.985
  216SOL    HW1  669   0.613   1.048   1.931
  216SOL    HW2  670   0.652   0.977   2.073
  217SOL     OW  671   0.122   0.643   2.425
  217SOL    HW1  672   0.077   0.555   2.442
  217SOL    HW2  673   0.121   0.697   2.509
  218SOL     OW  674   1.842   1.767   2.221
  218SOL    HW1  675   1.896   1.738   2.301
  218SOL    HW2  676   1.872   1.857   2.192
  219SOL     OW  677   0.027   1.596   1.979
  219SOL    HW1  678   0.008   1.500   2.000
  219SOL    HW2  679  -0.006   1.654   2.054
  220SOL     OW  680   1.689   0.922   2.474
  220SOL    HW1  681   1.784   0.893   2.482
  220SOL    HW2  682   1.681   0.987   2.399
  221SOL     OW  683   1.641   1.108   2.294
  221SOL    HW1  684   1.727   1.110   2.242
  221SOL    HW2  685   1.655   1.155   2.382
  222SOL     OW  686   0.613   1.365   2.588
  222SOL    HW1  687   0.564   1.278   2.597
  222SOL    HW2  688   0.590   1.408   2.501
  223SOL     OW  689   0.809   0.004   2.364
  223SOL    HW1  690   0.849   0.095   2.355
  223SOL    HW2  691   0.709   0.012   2.370
  224SOL     OW  692   1.525   0.999   2.052
  224SOL    HW1  693   1.462   0.923   2.065
  224SOL    HW2  694   1.573   1.017   2.138
  225SOL     OW  695   1.466   1.417   2.815
  225SOL    HW1  696   1.407   1.423   2.895
  225SOL    HW2  697   1.451   1.329   2.769
  226SOL     OW  698   1.667   1.714   2.434
  226SOL    HW1  699   1.626   1.691   2.346
  226SOL    HW2  700   1.649   1.640   2.499
  227SOL     OW  701   0.598   0.729   2.132
  227SOL    HW1  702   0.622   0.798   2.064
  227SOL    HW2  703   0.520   0.762   2.186
  228SOL     OW  704   1.281   0.345   2.806
  228SOL    HW1  705   1.195   0.295   2.793
  228SOL    HW2  706   1.343   0.291   2.862
  229SOL     OW  707   1.576   1.662   2.169
  229SOL    HW1  708   1.665   1.708   2.172
  229SOL    HW2  709   1.555   1.638   2.074
  230SOL     OW  710   1.041   0.701   2.291
  230SOL    HW1  711   1.067   0.697   2.387
  230SOL    HW2  712   0.956   0.650   2.277
  231SOL     OW  713   0.076   0.811   2.651
  231SOL    HW1  714   0.175   0.799   2.660
  231SOL    HW2  715   0.052   0.906   2.672
  232SOL     OW  716   0.865   0.348   2.057
  232SOL    HW1  717   0.924   0.411   2.008
  232SOL    HW2  718   0.884   0.254   2.028
  233SOL     OW  719   1.362   1.144   2.407
  233SOL    HW1  720   1.445   1.115   2.359
  233SOL    HW2  721   1.313   1.211   2.351
  234SOL     OW  722   0.550   0.196   2.747
  234SOL    HW1  723   0.545   0.191   2.847
  234SOL    HW2  724   0.552   0.292   2.718
  235SOL     OW  725   1.008   1.456   2.339
  235SOL    HW1  726   0.962   1.528   2.287
  235SOL    HW2  727   1.004   1.476   2.437
  236SOL     OW  728   0.351   1.801   2.715
  236SOL    HW1  729   0.401   1.715   2.721
  236SOL    HW2  730   0.416   1.878   2.712
  237SOL     OW  731   1.795   1.066   2.735
  237SOL    HW1  732   1.733   1.051   2.659
  237SOL    HW2  733   1.743   1.077   2.820
  238SOL     OW  734   0.321   0.943   2.104
  238SOL    HW1  735   0.403   0.982   2.062
  238SOL    HW2  736   0.294   0.861   2.055
  239SOL     OW  737   1.458   0.735   2.590
  239SOL    HW1  738   1.453   0.670   2.665
  239SOL    HW2  739   1.538   0.794   2.603
  240SOL     OW  740   1.111   1.776   2.099
  240SOL    HW1  741   1.051   1.714   2.149
  240SOL    HW2  742   1.142   1.732   2.014
  241SOL     OW  743   0.464   1.743   2.185
  241SOL    HW1  744   0.497   1.782   2.271
  241SOL    HW2  745   0.540   1.736   2.120
  242SOL     OW  746   1.400   0.107   2.288
  242SOL    HW1  747   1.376   0.070   2.198
  242SOL    HW2  748   1.499   0.123   2.292
  243SOL     OW  749   0.249   1.785   3.103
  243SOL    HW1  750   0.306   1.720   3.153
  243SOL    HW2  751   0.233   1.752   3.010
  244SOL     OW  752   0.940   1.698   2.766
  244SOL    HW1  753   1.020   1.641   2.787
  244SOL    HW2  754   0.891   1.658   2.689
  245SOL     OW  755   0.382   0.700   2.342
  245SOL    HW1  756   0.427   0.610   2.339
  245SOL    HW2  757   0.288   0.689   2.375
  246SOL     OW  758   0.614   0.122   1.979
  246SOL    HW1  759   0.712   0.100   1.986
  246SOL    HW2  760   0.583   0.105   1.886
  247SOL     OW  761   0.922   0.503   2.761
  247SOL    HW1  762   0.897   0.494   2.665
  247SOL    HW2  763   0.970   0.421   2.792
  248SOL     OW  764   0.539   0.064   2.374
  248SOL    HW1  765   0.458   0.065   2.432
  248SOL    HW2  766   0.542   0.147   2.319
  249SOL     OW  767   1.434   1.188   1.903
  249SOL    HW1  768   1.466   1.112   1.960
  249SOL    HW2  769   1.342   1.215   1.933
  250SOL     OW  770   0.297   0.035   2.033
  250SOL    HW1  771   0.346   0.119   2.012
  250SOL    HW2  772   0.359  -0.030   2.078
  251SOL     OW  773   0.935   0.236   2.342
  251SOL    HW1  774   0.887   0.277   2.264
  251SOL    HW2  775   1.034   0.234   2.323
  252SOL     OW  776   1.227   1.570   2.655
  252SOL    HW1  777   1.248   1.644   2.590
  252SOL    HW2  778   1.295   1.570   2.728
  253SOL     OW  779   0.459   1.152   2.603
  253SOL    HW1  780   0.388   1.125   2.668
  253SOL    HW2  781   0.433   1.124   2.510
  254SOL     OW  782   1.271   1.797   2.453
  254SOL    HW1  783   1.315   1.861   2.389
  254SOL    HW2  784   1.221   1.849   2.523
  255SOL     OW  785   1.032   0.549   1.878
  255SOL    HW1  786   0.991   0.631   1.839
  255SOL    HW2  787   1.096   0.575   1.951
  256SOL     OW  788   0.866   0.454   2.504
  256SOL    HW1  789   0.834   0.526   2.442
  256SOL    HW2  790   0.890   0.373   2.451
  257SOL     OW  791   1.017   0.039   2.615
  257SOL    HW1  792   0.945   0.044   2.546
  257SOL    HW2  793   0.993  -0.030   2.684
  258SOL     OW  794   1.429   1.173   2.729
  258SOL    HW1  795   1.374   1.089   2.722
  258SOL    HW2  796   1.455   1.202   2.637
  259SOL     OW  797   1.857   0.833   2.239
  259SOL    HW1  798   1.899   0.769   2.303
  259SOL    HW2  799   1.819   0.782   2.161
  260SOL     OW  800   0.488   1.385   2.036
  260SOL    HW1  801   0.401   1.370   2.083
  260SOL    HW2  802   0.471   1.411   1.941
  261SOL     OW  803   1.664   1.280   2.519
  261SOL    HW1  804   1.763   1.288   2.533
  261SOL    HW2  805   1.619   1.364   2.550
  262SOL     OW  806   1.390   0.575   1.940
  262SOL    HW1  807   1.336   0.554   2.021
  262SOL    HW2  808   1.481   0.534   1.949
  263SOL     OW  809   0.527   0.256   2.190
  263SOL    HW1  810   0.554   0.197   2.115
  263SOL    HW2  811   0.527   0.351   2.159
  264SOL     OW  812   1.638   1.099   2.941
  264SOL    HW1  813   1.643   1.180   3.000
  264SOL    HW2  814   1.552   1.101   2.890
  265SOL     OW  815   0.705   1.050   2.230
  265SOL    HW1  816   0.691   1.057   2.329
  265SOL    HW2  817   0.789   0.999   2.212
  266SOL     OW  818   0.367   1.100   2.363
  266SOL    HW1  819   0.360   1.183   2.307
  266SOL    HW2  820   0.371   1.020   2.303
  267SOL     OW  821   0.566   0.537   2.727
  267SOL    HW1  822   0.578   0.603   2.653
  267SOL    HW2  823   0.612   0.571   2.810
  268SOL     OW  824   1.252   1.348   2.250
  268SOL    HW1  825   1.302   1.425   2.290
  268SOL    HW2  826   1.157   1.350   2.282
  269SOL     OW  827   1.582   0.639   2.334
  269SOL    HW1  828   1.551   0.700   2.407
  269SOL    HW2  829   1.632   0.691   2.265
  270SOL     OW  830   0.573   0.870   2.891
  270SOL    HW1  831   0.617   0.959   2.882
  270SOL    HW2  832   0.510   0.870   2.968
  271SOL     OW  833   1.209   0.525   2.137
  271SOL    HW1  834   1.222   0.441   2.191
  271SOL    HW2  835   1.180   0.599   2.197
  272SOL     OW  836   0.732   0.634   2.926
  272SOL    HW1  837   0.791   0.608   2.850
  272SOL    HW2  838   0.704   0.730   2.915
  273SOL     OW  839   0.307   0.063   2.480
  273SOL    HW1  840   0.296   0.157   2.513
  273SOL    HW2  841   0.302   0.000   2.557
  274SOL     OW  842   1.622   0.367   2.236
  274SOL    HW1  843   1.624   0.291   2.300
  274SOL    HW2  844   1.574   0.444   2.276
  275SOL     OW  845   1.540   0.274   1.987
  275SOL    HW1  846   1.479   0.199   2.010
  275SOL    HW2  847   1.562   0.326   2.070
  276SOL     OW  848   1.303   0.838   1.904
  276SOL    HW1  849   1.337   0.745   1.919
  276SOL    HW2  850   1.321   0.865   1.809
  277SOL     OW  851   1.068   1.333   2.711
  277SOL    HW1  852   1.075   1.249   2.656
  277SOL    HW2  853   1.130   1.402   2.675
  278SOL     OW  854   0.319   0.810   2.811
  278SOL    HW1  855   0.412   0.846   2.816
  278SOL    HW2  856   0.313   0.725   2.863
  279SOL     OW  857   0.339   0.509   2.868
  279SOL    HW1  858   0.287   0.426   2.851
  279SOL    HW2  859   0.416   0.514   2.804
  280SOL     OW  860   0.008   1.326   2.062
  280SOL    HW1  861  -0.085   1.347   2.031
  280SOL    HW2  862   0.018   1.227   2.075
  281SOL     OW  863   0.088   1.801   2.789
  281SOL    HW1  864   0.046   1.715   2.762
  281SOL    HW2  865   0.182   1.804   2.755
  282SOL     OW  866   0.504   1.568   2.772
  282SOL    HW1  867   0.570   1.642   2.781
  282SOL    HW2  868   0.548   1.489   2.730
  283SOL     OW  869   0.815   0.572   2.187
  283SOL    HW1  870   0.822   0.483   2.141
  283SOL    HW2  871   0.721   0.606   2.179
  284SOL     OW  872   0.671   0.464   3.131
  284SOL    HW1  873   0.637   0.375   3.101
  284SOL    HW2  874   0.697   0.518   3.051
  285SOL     OW  875   0.473   0.500   2.053
  285SOL    HW1  876   0.534   0.580   2.057
  285SOL    HW2  877   0.378   0.531   2.060
  286SOL     OW  878   1.302   0.855   2.171
  286SOL    HW1  879   1.216   0.824   2.213
  286SOL    HW2  880   1.298   0.841   2.072
  287SOL     OW  881   1.759   1.747   3.016
  287SOL    HW1  882   1.820   1.777   2.943
  287SOL    HW2  883   1.721   1.658   2.994
  288SOL     OW  884   0.083   1.258   2.884
  288SOL    HW1  885   0.078   1.257   2.984
  288SOL    HW2  886   0.000   1.217   2.846
  289SOL     OW  887   1.726   0.135   2.385
  289SOL    HW1  888   1.799   0.118   2.318
  289SOL    HW2  889   1.695   0.048   2.423
  290SOL     OW  890   1.388   1.573   2.339
  290SOL    HW1  891   1.455   1.585   2.265
  290SOL    HW2  892   1.348   1.662   2.362
  291SOL     OW  893   1.280   0.927   2.534
  291SOL    HW1  894   1.340   0.846   2.536
  291SOL    HW2  895   1.320   0.996   2.474
  292SOL     OW  896   0.672   1.616   2.016
  292SOL    HW1  897   0.681   1.626   1.917
  292SOL    HW2  898   0.632   1.527   2.037
  293SOL     OW  899   1.841   0.175   2.825
  293SOL    HW1  900   1.880   0.090   2.789
  293SOL    HW2  901   1.743   0.177   2.806
  294SOL     OW  902   0.263   0.326   2.582
  294SOL    HW1  903   0.184   0.377   2.548
  294SOL    HW2  904   0.254   0.311   2.680
  295SOL     OW  905   1.194   1.612   1.893
  295SOL    HW1  906   1.200   1.519   1.930
  295SOL    HW2  907   1.135   1.612   1.813
  296SOL     OW  908   0.916   0.910   2.153
  296SOL    HW1  909   0.979   0.948   2.085
  296SOL    HW2  910   0.956   0.827   2.192
  297SOL     OW  911   1.039   1.098   2.558
  297SOL    HW1  912   0.969   1.051   2.612
  297SOL    HW2  913   1.098   1.030   2.515
  298SOL     OW  914   0.590   1.487   2.353
  298SOL    HW1  915   0.632   1.429   2.283
  298SOL    HW2  916   0.546   1.566   2.309
  299SOL     OW  917   0.255   1.348   2.152
  299SOL    HW1  918   0.159   1.349   2.125
  299SOL    HW2  919   0.267   1.401   2.236
  300SOL     OW  920   0.075   0.345   1.895
  300SOL    HW1  921  -0.017   0.317   1.866
  300SOL    HW2  922   0.106   0.422   1.839
  301SOL     OW  923   0.072   0.166   2.180
  301SOL    HW1  924   0.055   0.249   2.126
  301SOL    HW2  925   0.162   0.129   2.158
  302SOL     OW  926   1.183   1.335   1.981
  302SOL    HW1  927   1.084   1.324   1.983
  302SOL    HW2  928   1.217   1.350   2.074
  303SOL     OW  929   1.674   0.883   3.116
  303SOL    HW1  930   1.647   0.794   3.079
  303SOL    HW2  931   1.675   0.951   3.043
  304SOL     OW  932   1.225   0.325   2.311
  304SOL    HW1  933   1.290   0.251   2.300
  304SOL    HW2  934   1.245   0.375   2.395
  305SOL     OW  935   0.594   0.745   2.514
  305SOL    HW1  936   0.644   0.830   2.495
  305SOL    HW2  937   0.506   0.747   2.466
  306SOL     OW  938   0.859   1.374   1.878
  306SOL    HW1  939   0.813   1.389   1.966
  306SOL    HW2  940   0.903   1.459   1.848
  307SOL     OW  941   0.661   1.790   2.815
  307SOL    HW1  942   0.615   1.878   2.802
  307SOL    HW2  943   0.760   1.802   2.808
  308SOL     OW  944   0.859   0.956   2.723
  308SOL    HW1  945   0.913   0.887   2.771
  308SOL    HW2  946   0.827   1.025   2.789
  309SOL     OW  947   1.083   0.984   1.949
  309SOL    HW1  948   1.060   1.037   1.867
  309SOL    HW2  949   1.164   0.928   1.930
  310SOL     OW  950   1.861   1.569   2.713
  310SOL    HW1  951   1.790   1.557   2.643
  310SOL    HW2  952   1.862   1.490   2.773
  311SOL     OW  953   0.079   1.240   2.515
  311SOL    HW1  954   0.078   1.193   2.603
  311SOL    HW2  955   0.161   1.212   2.464
  312SOL     OW  956   1.824   0.192   3.089
  312SOL    HW1  957   1.820   0.102   3.133
  312SOL    HW2  958   1.827   0.181   2.990
  313SOL     OW  959   0.428   0.424   2.382
  313SOL    HW1  960   0.458   0.352   2.320
  313SOL    HW2  961   0.389   0.384   2.465
  314SOL     OW  962   0.812   1.586   2.549
  314SOL    HW1  963   0.844   1.596   2.455
  314SOL    HW2  964   0.733   1.524   2.551
  315SOL     OW  965   0.770   1.330   2.163
  315SOL    HW1  966   0.724   1.243   2.180
  315SOL    HW2  967   0.861   1.327   2.204
  316SOL     OW  968   1.352   0.052   2.030
  316SOL    HW1  969   1.387   0.011   1.946
  316SOL    HW2  970   1.262   0.014   2.050
  317SOL     OW  971   1.300   0.453   2.553
  317SOL    HW1  972   1.241   0.533   2.557
  317SOL    HW2  973   1.315   0.418   2.646
  318SOL     OW  974   1.593   0.221   2.744
  318SOL    HW1  975   1.509   0.220   2.798
  318SOL    HW2  976   1.595   0.304   2.688
  319SOL     OW  977   0.039   1.077   2.162
  319SOL    HW1  978   0.138   1.066   2.153
  319SOL    HW2  979  -0.001   0.991   2.194
  320SOL     OW  980   0.875   1.646   2.199
  320SOL    HW1  981   0.798   1.611   2.145
  320SOL    HW2  982   0.843   1.717   2.261
  321SOL     OW  983   0.230   2.490   0.113
  321SOL    HW1  984   0.137   2.488   0.150
  321SOL    HW2  985   0.231   2.451   0.021
  322SOL     OW  986   0.225   2.137   0.996
  322SOL    HW1  987   0.260   2.120   1.088
  322SOL    HW2  988   0.137   2.092   0.984
  323SOL     OW  989   0.019   2.230   0.647
  323SOL    HW1  990  -0.063   2.273   0.686
  323SOL    HW2  991  -0.009   2.157   0.584
  324SOL     OW  992   1.135   2.565   0.717
  324SOL    HW1  993   1.192   2.643   0.692
  324SOL    HW2  994   1.075   2.591   0.793
  325SOL     OW  995   1.755   2.469   0.231
  325SOL    HW1  996   1.743   2.456   0.132
  325SOL    HW2  997   1.725   2.388   0.280
  326SOL     OW  998   0.768   3.006   1.023
  326SOL    HW1  999   0.690   3.023   1.083
  326SOL    HW2 1000   0.802   3.093   0.987
  327SOL     OW 1001   0.850   2.660   1.823
  327SOL    HW1 1002   0.846   2.736   1.888
  327SOL    HW2 1003   0.872   2.696   1.732
  328SOL     OW 1004   0.685   2.874   0.665
  328SOL    HW1 1005   0.754   2.858   0.735
  328SOL    HW2 1006   0.612   2.931   0.703
  329SOL     OW 1007   0.438   2.254   1.499
  329SOL    HW1 1008   0.520   2.198   1.508
  329SOL    HW2 1009   0.357   2.196   1.503
  330SOL     OW 1010   1.603   2.309   0.737
  330SOL    HW1 1011   1.529   2.355   0.687
  330SOL    HW2 1012   1.654   2.377   0.790
  331SOL     OW 1013   0.240   2.953   0.886
  331SOL    HW1 1014   0.254   2.869   0.938
  331SOL    HW2 1015   0.185   3.017   0.941
  332SOL     OW 1016   1.594   1.976   1.480
  332SOL    HW1 1017   1.576   2.043   1.408
  332SOL    HW2 1018   1.591   2.022   1.569
  333SOL     OW 1019   0.122   2.505   0.563
  333SOL    HW1 1020   0.077   2.417   0.580
  333SOL    HW2 1021   0.121   2.559   0.647
  334SOL     OW 1022   0.113   2.599   1.597
  334SOL    HW1 1023   0.201   2.586   1.642
  334SOL    HW2 1024   0.100   2.696   1.575
  335SOL     OW 1025   0.809   1.866   0.502
  335SOL    HW1 1026   0.849   1.957   0.493
  335SOL    HW2 1027   0.709   1.874   0.508
  336SOL     OW 1028   0.197   2.838   1.264
  336SOL    HW1 1029   0.286   2.793   1.250
  336SOL    HW2 1030   0.124   2.773   1.245
  337SOL     OW 1031   1.525   2.861   0.190
  337SOL    HW1 1032   1.462   2.785   0.203
  337SOL    HW2 1033   1.573   2.879   0.276
  338SOL     OW 1034   0.317   2.113   1.801
  338SOL    HW1 1035   0.388   2.184   1.807
  338SOL    HW2 1036   0.229   2.152   1.829
  339SOL     OW 1037   0.598   2.591   0.270
  339SOL    HW1 1038   0.622   2.660   0.202
  339SOL    HW2 1039   0.520   2.624   0.324
  340SOL     OW 1040   1.281   2.207   0.944
  340SOL    HW1 1041   1.195   2.157   0.931
  340SOL    HW2 1042   1.343   2.153   1.000
  341SOL     OW 1043   0.807   2.467   1.465
  341SOL    HW1 1044   0.760   2.464   1.554
  341SOL    HW2 1045   0.756   2.412   1.399
  342SOL     OW 1046   1.394   2.331   1.674
  342SOL    HW1 1047   1.374   2.374   1.762
  342SOL    HW2 1048   1.472   2.269   1.683
  343SOL     OW 1049   0.973   2.752   1.572
  343SOL    HW1 1050   1.019   2.668   1.543
  343SOL    HW2 1051   0.917   2.786   1.497
  344SOL     OW 1052   0.991   2.272   1.242
  344SOL    HW1 1053   0.914   2.306   1.296
  344SOL    HW2 1054   0.957   2.221   1.163
  345SOL     OW 1055   1.041   2.563   0.429
  345SOL    HW1 1056   1.067   2.559   0.525
  345SOL    HW2 1057   0.956   2.512   0.415
  346SOL     OW 1058   0.076   2.673   0.789
  346SOL    HW1 1059   0.175   2.661   0.798
  346SOL    HW2 1060   0.052   2.768   0.810
  347SOL     OW 1061   0.865   2.210   0.195
  347SOL    HW1 1062   0.924   2.273   0.146
  347SOL    HW2 1063   0.884   2.116   0.166
  348SOL     OW 1064   1.719   2.447   1.831
  348SOL    HW1 1065   1.693   2.536   1.795
  348SOL    HW2 1066   1.717   2.379   1.758
  349SOL     OW 1067   0.550   2.058   0.885
  349SOL    HW1 1068   0.545   2.053   0.985
  349SOL    HW2 1069   0.552   2.154   0.856
  350SOL     OW 1070   1.458   2.597   0.728
  350SOL    HW1 1071   1.453   2.532   0.803
  350SOL    HW2 1072   1.538   2.656   0.741
  351SOL     OW 1073   0.202   2.147   1.498
  351SOL    HW1 1074   0.122   2.207   1.485
  351SOL    HW2 1075   0.192   2.098   1.584
  352SOL     OW 1076   1.400   1.969   0.426
  352SOL    HW1 1077   1.376   1.932   0.336
  352SOL    HW2 1078   1.499   1.985   0.430
  353SOL     OW 1079   0.382   2.562   0.480
  353SOL    HW1 1080   0.427   2.472   0.477
  353SOL    HW2 1081   0.288   2.551   0.513
  354SOL     OW 1082   1.547   2.084   1.729
  354SOL    HW1 1083   1.542   2.121   1.821
  354SOL    HW2 1084   1.475   2.015   1.717
  355SOL     OW 1085   0.614   1.984   0.117
  355SOL    HW1 1086   0.712   1.962   0.124
  355SOL    HW2 1087   0.583   1.967   0.024
  356SOL     OW 1088   0.781   2.126   1.749
  356SOL    HW1 1089   0.848   2.065   1.792
  356SOL    HW2 1090   0.708   2.145   1.814
  357SOL     OW 1091   1.351   2.452   1.433
  357SOL    HW1 1092   1.379   2.409   1.518
  357SOL    HW2 1093   1.376   2.548   1.434
  358SOL     OW 1094   0.922   2.365   0.899
  358SOL    HW1 1095   0.897   2.356   0.803
  358SOL    HW2 1096   0.970   2.283   0.930
  359SOL     OW 1097   0.539   1.926   0.512
  359SOL    HW1 1098   0.458   1.927   0.570
  359SOL    HW2 1099   0.542   2.009   0.457
  360SOL     OW 1100   0.935   2.098   0.480
  360SOL    HW1 1101   0.887   2.139   0.402
  360SOL    HW2 1102   1.034   2.096   0.461
  361SOL     OW 1103   1.076   2.545   1.464
  361SOL    HW1 1104   0.996   2.484   1.467
  361SOL    HW2 1105   1.157   2.492   1.440
  362SOL     OW 1106   1.032   2.411   0.016
  362SOL    HW1 1107   0.991   2.493  -0.023
  362SOL    HW2 1108   1.096   2.437   0.089
  363SOL     OW 1109   0.078   2.418   1.386
  363SOL    HW1 1110   0.170   2.417   1.345
  363SOL    HW2 1111   0.072   2.492   1.453
  364SOL     OW 1112   0.561   2.084   1.147
  364SOL    HW1 1113   0.599   2.000   1.184
  364SOL    HW2 1114   0.473   2.103   1.191
  365SOL     OW 1115   0.866   2.316   0.642
  365SOL    HW1 1116   0.834   2.388   0.580
  365SOL    HW2 1117   0.890   2.235   0.589
  366SOL     OW 1118   1.017   1.901   0.753
  366SOL    HW1 1119   0.945   1.906   0.684
  366SOL    HW2 1120   0.993   1.832   0.822
  367SOL     OW 1121   1.429   3.035   0.867
  367SOL    HW1 1122   1.374   2.951   0.860
  367SOL    HW2 1123   1.455   3.064   0.775
  368SOL     OW 1124   1.466   2.452   0.992
  368SOL    HW1 1125   1.436   2.357   0.999
  368SOL    HW2 1126   1.539   2.468   1.058
  369SOL     OW 1127   1.857   2.695   0.377
  369SOL    HW1 1128   1.899   2.631   0.441
  369SOL    HW2 1129   1.819   2.644   0.299
  370SOL     OW 1130   1.390   2.437   0.078
  370SOL    HW1 1131   1.336   2.416   0.159
  370SOL    HW2 1132   1.481   2.396   0.087
  371SOL     OW 1133   0.527   2.118   0.328
  371SOL    HW1 1134   0.554   2.059   0.253
  371SOL    HW2 1135   0.527   2.213   0.297
  372SOL     OW 1136   1.638   2.961   1.079
  372SOL    HW1 1137   1.643   3.042   1.138
  372SOL    HW2 1138   1.552   2.963   1.028
  373SOL     OW 1139   0.915   1.951   1.402
  373SOL    HW1 1140   0.940   1.931   1.307
  373SOL    HW2 1141   0.987   2.007   1.444
  374SOL     OW 1142   0.410   2.675   1.251
  374SOL    HW1 1143   0.496   2.687   1.301
  374SOL    HW2 1144   0.368   2.588   1.278
  375SOL     OW 1145   1.274   2.248   1.262
  375SOL    HW1 1146   1.295   2.322   1.326
  375SOL    HW2 1147   1.185   2.265   1.219
  376SOL     OW 1148   0.566   2.399   0.865
  376SOL    HW1 1149   0.578   2.465   0.791
  376SOL    HW2 1150   0.612   2.433   0.948
  377SOL     OW 1151   1.582   2.501   0.472
  377SOL    HW1 1152   1.551   2.562   0.545
  377SOL    HW2 1153   1.632   2.553   0.403
  378SOL     OW 1154   0.402   2.613   1.598
  378SOL    HW1 1155   0.470   2.668   1.551
  378SOL    HW2 1156   0.442   2.525   1.625
  379SOL     OW 1157   1.587   2.641   1.670
  379SOL    HW1 1158   1.495   2.679   1.665
  379SOL    HW2 1159   1.647   2.688   1.605
  380SOL     OW 1160   1.013   1.967   1.770
  380SOL    HW1 1161   1.019   2.052   1.718
  380SOL    HW2 1162   1.045   1.891   1.713
  381SOL     OW 1163   0.504   1.912   1.740
  381SOL    HW1 1164   0.462   1.855   1.670
  381SOL    HW2 1165   0.438   1.981   1.772
  382SOL     OW 1166   0.573   2.732   1.029
  382SOL    HW1 1167   0.617   2.821   1.020
  382SOL    HW2 1168   0.510   2.732   1.106
  383SOL     OW 1169   1.360   2.724   1.045
  383SOL    HW1 1170   1.285   2.724   0.979
  383SOL    HW2 1171   1.397   2.632   1.054
  384SOL     OW 1172   1.209   2.387   0.275
  384SOL    HW1 1173   1.222   2.303   0.329
  384SOL    HW2 1174   1.180   2.461   0.335
  385SOL     OW 1175   0.307   2.075   1.231
  385SOL    HW1 1176   0.284   2.112   1.321
  385SOL    HW2 1177   0.277   1.980   1.225
  386SOL     OW 1178   0.037   3.172   1.282
  386SOL    HW1 1179   0.090   3.123   1.350
  386SOL    HW2 1180   0.059   3.270   1.287
  387SOL     OW 1181   0.732   2.496   1.064
  387SOL    HW1 1182   0.791   2.470   0.988
  387SOL    HW2 1183   0.704   2.592   1.053
  388SOL     OW 1184   1.728   2.797   1.854
  388SOL    HW1 1185   1.682   2.790   1.765
  388SOL    HW2 1186   1.666   2.841   1.920
  389SOL     OW 1187   0.307   1.925   0.618
  389SOL    HW1 1188   0.296   2.019   0.651
  389SOL    HW2 1189   0.302   1.862   0.695
  390SOL     OW 1190   1.622   2.229   0.374
  390SOL    HW1 1191   1.624   2.153   0.438
  390SOL    HW2 1192   1.574   2.306   0.414
  391SOL     OW 1193   1.023   2.628   0.966
  391SOL    HW1 1194   1.038   2.649   1.062
  391SOL    HW2 1195   0.993   2.533   0.957
  392SOL     OW 1196   0.350   2.760   1.804
  392SOL    HW1 1197   0.426   2.804   1.852
  392SOL    HW2 1198   0.385   2.713   1.722
  393SOL     OW 1199   1.540   2.136   0.125
  393SOL    HW1 1200   1.479   2.061   0.148
  393SOL    HW2 1201   1.562   2.188   0.208
  394SOL     OW 1202   1.303   2.700   0.042
  394SOL    HW1 1203   1.337   2.607   0.057
  394SOL    HW2 1204   1.321   2.727  -0.053
  395SOL     OW 1205   0.319   2.672   0.949
  395SOL    HW1 1206   0.412   2.708   0.954
  395SOL    HW2 1207   0.313   2.587   1.001
  396SOL     OW 1208   0.339   2.371   1.006
  396SOL    HW1 1209   0.287   2.288   0.989
  396SOL    HW2 1210   0.416   2.376   0.942
  397SOL     OW 1211   1.138   2.242   1.678
  397SOL    HW1 1212   1.093   2.305   1.742
  397SOL    HW2 1213   1.231   2.273   1.661
  398SOL     OW 1214   1.160   2.069   1.477
  398SOL    HW1 1215   1.160   2.133   1.554
  398SOL    HW2 1216   1.188   2.117   1.394
  399SOL     OW 1217   1.002   2.658   1.238
  399SOL    HW1 1218   1.043   2.626   1.324
  399SOL    HW2 1219   0.906   2.631   1.235
  400SOL     OW 1220   0.040   2.406   1.114
  400SOL    HW1 1221   0.125   2.373   1.073
  400SOL    HW2 1222   0.053   2.421   1.212
  401SOL     OW 1223   0.189   2.382   1.722
  401SOL    HW1 1224   0.248   2.342   1.652
  401SOL    HW2 1225   0.131   2.453   1.681
  402SOL     OW 1226   1.369   2.812   1.660
  402SOL    HW1 1227   1.408   2.901   1.680
  402SOL    HW2 1228   1.379   2.792   1.563
  403SOL     OW 1229   0.815   2.434   0.325
  403SOL    HW1 1230   0.822   2.345   0.279
  403SOL    HW2 1231   0.721   2.468   0.317
  404SOL     OW 1232   1.657   2.466   1.206
  404SOL    HW1 1233   1.619   2.397   1.268
  404SOL    HW2 1234   1.739   2.430   1.162
  405SOL     OW 1235   0.671   2.326   1.269
  405SOL    HW1 1236   0.637   2.237   1.239
  405SOL    HW2 1237   0.697   2.380   1.189
  406SOL     OW 1238   0.473   2.362   0.191
  406SOL    HW1 1239   0.534   2.442   0.195
  406SOL    HW2 1240   0.378   2.393   0.198
  407SOL     OW 1241   0.159   2.999   1.466
  407SOL    HW1 1242   0.181   2.938   1.542
  407SOL    HW2 1243   0.169   2.950   1.380
  408SOL     OW 1244   1.347   2.921   1.234
  408SOL    HW1 1245   1.371   2.858   1.160
  408SOL    HW2 1246   1.257   2.961   1.216
  409SOL     OW 1247   1.302   2.717   0.309
  409SOL    HW1 1248   1.216   2.686   0.351
  409SOL    HW2 1249   1.298   2.703   0.210
  410SOL     OW 1250   0.903   1.948   0.133
  410SOL    HW1 1251   0.954   1.949   0.047
  410SOL    HW2 1252   0.959   1.906   0.204
  411SOL     OW 1253   1.726   1.997   0.523
  411SOL    HW1 1254   1.799   1.980   0.456
  411SOL    HW2 1255   1.695   1.910   0.561
  412SOL     OW 1256   1.280   2.789   0.672
  412SOL    HW1 1257   1.340   2.708   0.674
  412SOL    HW2 1258   1.320   2.858   0.612
  413SOL     OW 1259   1.841   2.037   0.963
  413SOL    HW1 1260   1.880   1.952   0.927
  413SOL    HW2 1261   1.743   2.039   0.944
  414SOL     OW 1262   0.263   2.188   0.720
  414SOL    HW1 1263   0.184   2.239   0.686
  414SOL    HW2 1264   0.254   2.173   0.818
  415SOL     OW 1265   0.916   2.772   0.291
  415SOL    HW1 1266   0.979   2.810   0.223
  415SOL    HW2 1267   0.956   2.689   0.330
  416SOL     OW 1268   1.014   2.098   0.971
  416SOL    HW1 1269   1.006   2.062   0.878
  416SOL    HW2 1270   1.012   2.022   1.036
  417SOL     OW 1271   1.709   2.247   1.381
  417SOL    HW1 1272   1.782   2.316   1.385
  417SOL    HW2 1273   1.737   2.172   1.322
  418SOL     OW 1274   0.105   2.875   1.726
  418SOL    HW1 1275   0.028   2.842   1.780
  418SOL    HW2 1276   0.190   2.845   1.768
  419SOL     OW 1277   0.672   2.065   1.489
  419SOL    HW1 1278   0.762   2.049   1.449
  419SOL    HW2 1279   0.680   2.070   1.588
  420SOL     OW 1280   0.075   2.207   0.033
  420SOL    HW1 1281  -0.017   2.179   0.004
  420SOL    HW2 1282   0.106   2.284  -0.023
  421SOL     OW 1283   1.440   2.718   1.398
  421SOL    HW1 1284   1.383   2.770   1.335
  421SOL    HW2 1285   1.536   2.730   1.374
  422SOL     OW 1286   0.072   2.028   0.318
  422SOL    HW1 1287   0.055   2.111   0.264
  422SOL    HW2 1288   0.162   1.991   0.296
  423SOL     OW 1289   1.183   3.197   0.119
  423SOL    HW1 1290   1.084   3.186   0.121
  423SOL    HW2 1291   1.217   3.212   0.212
  424SOL     OW 1292   0.613   2.704   1.431
  424SOL    HW1 1293   0.669   2.785   1.414
  424SOL    HW2 1294   0.672   2.624   1.434
  425SOL     OW 1295   0.716   2.427   1.708
  425SOL    HW1 1296   0.735   2.492   1.782
  425SOL    HW2 1297   0.776   2.347   1.717
  426SOL     OW 1298   1.674   2.745   1.254
  426SOL    HW1 1299   1.647   2.656   1.217
  426SOL    HW2 1300   1.675   2.813   1.181
  427SOL     OW 1301   1.225   2.187   0.449
  427SOL    HW1 1302   1.290   2.113   0.438
  427SOL    HW2 1303   1.245   2.237   0.533
  428SOL     OW 1304   0.594   2.607   0.652
  428SOL    HW1 1305   0.644   2.692   0.633
  428SOL    HW2 1306   0.506   2.609   0.604
  429SOL     OW 1307   1.777   2.204   1.642
  429SOL    HW1 1308   1.760   2.235   1.548
  429SOL    HW2 1309   1.693   2.167   1.680
  430SOL     OW 1310   1.730   2.796   1.517
  430SOL    HW1 1311   1.768   2.887   1.532
  430SOL    HW2 1312   1.722   2.779   1.418
  431SOL     OW 1313   0.859   2.818   0.861
  431SOL    HW1 1314   0.913   2.749   0.909
  431SOL    HW2 1315   0.827   2.887   0.927
  432SOL     OW 1316   1.083   2.846   0.087
  432SOL    HW1 1317   1.060   2.899   0.005
  432SOL    HW2 1318   1.164   2.790   0.068
  433SOL     OW 1319   0.079   3.102   0.653
  433SOL    HW1 1320   0.078   3.055   0.741
  433SOL    HW2 1321   0.161   3.074   0.602
  434SOL     OW 1322   1.824   2.054   1.227
  434SOL    HW1 1323   1.820   1.964   1.271
  434SOL    HW2 1324   1.827   2.043   1.128
  435SOL     OW 1325   0.428   2.286   0.520
  435SOL    HW1 1326   0.458   2.214   0.458
  435SOL    HW2 1327   0.389   2.246   0.603
  436SOL     OW 1328   0.317   2.409   1.280
  436SOL    HW1 1329   0.355   2.350   1.352
  436SOL    HW2 1330   0.357   2.383   1.192
  437SOL     OW 1331   1.424   2.076   1.112
  437SOL    HW1 1332   1.476   2.011   1.167
  437SOL    HW2 1333   1.375   2.139   1.173
  438SOL     OW 1334   1.001   1.896   1.154
  438SOL    HW1 1335   0.938   1.824   1.123
  438SOL    HW2 1336   1.094   1.860   1.154
  439SOL     OW 1337   1.352   1.914   0.168
  439SOL    HW1 1338   1.387   1.873   0.084
  439SOL    HW2 1339   1.262   1.876   0.188
  440SOL     OW 1340   1.300   2.315   0.691
  440SOL    HW1 1341   1.241   2.395   0.695
  440SOL    HW2 1342   1.315   2.280   0.784
  441SOL     OW 1343   1.593   2.083   0.882
  441SOL    HW1 1344   1.509   2.082   0.936
  441SOL    HW2 1345   1.595   2.166   0.826
  442SOL     OW 1346   0.230   2.490   1.975
  442SOL    HW1 1347   0.137   2.488   2.012
  442SOL    HW2 1348   0.231   2.451   1.883
  443SOL     OW 1349   0.225   2.137   2.858
  443SOL    HW1 1350   0.260   2.120   2.950
  443SOL    HW2 1351   0.137   2.092   2.846
  444SOL     OW 1352   0.019   2.230   2.509
  444SOL    HW1 1353  -0.063   2.273   2.548
  444SOL    HW2 1354  -0.009   2.157   2.446
  445SOL     OW 1355   1.135   2.565   2.579
  445SOL    HW1 1356   1.192   2.643   2.554
  445SOL    HW2 1357   1.075   2.591   2.655
  446SOL     OW 1358   1.755   2.469   2.093
  446SOL    HW1 1359   1.743   2.456   1.994
  446SOL    HW2 1360   1.725   2.388   2.142
  447SOL     OW 1361   0.685   2.874   2.527
  447SOL    HW1 1362   0.754   2.858   2.597
  447SOL    HW2 1363   0.612   2.931   2.565
  448SOL     OW 1364   1.603   2.309   2.599
  448SOL    HW1 1365   1.529   2.355   2.549
  448SOL    HW2 1366   1.654   2.377   2.652
  449SOL     OW 1367   0.240   2.953   2.748
  449SOL    HW1 1368   0.254   2.869   2.800
  449SOL    HW2 1369   0.185   3.017   2.803
  450SOL     OW 1370   0.122   2.505   2.425
  450SOL    HW1 1371   0.077   2.417   2.442
  450SOL    HW2 1372   0.121   2.559   2.509
  451SOL     OW 1373   0.809   1.866   2.364
  451SOL    HW1 1374   0.849   1.957   2.355
  451SOL    HW2 1375   0.709   1.874   2.370
  452SOL     OW 1376   1.525   2.861   2.052
  452SOL    HW1 1377   1.462   2.785   2.065
  452SOL    HW2 1378   1.573   2.879   2.138
  453SOL     OW 1379   0.598   2.591   2.132
  453SOL    HW1 1380   0.622   2.660   2.064
  453SOL    HW2 1381   0.520   2.624   2.186
  454SOL     OW 1382   1.281   2.207   2.806
  454SOL    HW1 1383   1.195   2.157   2.793
  454SOL    HW2 1384   1.343   2.153   2.862
  455SOL     OW 1385   1.041   2.563   2.291
  455SOL    HW1 1386   1.067   2.559   2.387
  455SOL    HW2 1387   0.956   2.512   2.277
  456SOL     OW 1388   0.076   2.673   2.651
  456SOL    HW1 1389   0.175   2.661   2.660
  456SOL    HW2 1390   0.052   2.768   2.672
  457SOL     OW 1391   0.865   2.210   2.057
  457SOL    HW1 1392   0.924   2.273   2.008
  457SOL    HW2 1393   0.884   2.116   2.028
  458SOL     OW 1394   0.550   2.058   2.747
  458SOL    HW1 1395   0.545   2.053   2.847
  458SOL    HW2 1396   0.552   2.154   2.718
  459SOL     OW 1397   1.458   2.597   2.590
  459SOL    HW1 1398   1.453   2.532   2.665
  459SOL    HW2 1399   1.538   2.656   2.603
  460SOL     OW 1400   1.400   1.969   2.288
  460SOL    HW1 1401   1.376   1.932   2.198
  460SOL    HW2 1402   1.499   1.985   2.292
  461SOL     OW 1403   0.382   2.562   2.342
  461SOL    HW1 1404   0.427   2.472   2.339
  461SOL    HW2 1405   0.288   2.551   2.375
  462SOL     OW 1406   0.614   1.984   1.979
  462SOL    HW1 1407   0.712   1.962   1.986
  462SOL    HW2 1408   0.583   1.967   1.886
  463SOL     OW 1409   0.922   2.365   2.761
  463SOL    HW1 1410   0.897   2.356   2.665
  463SOL    HW2 1411   0.970   2.283   2.792
  464SOL     OW 1412   0.539   1.926   2.374
  464SOL    HW1 1413   0.458   1.927   2.432
  464SOL    HW2 1414   0.542   2.009   2.319
  465SOL     OW 1415   0.297   1.897   2.033
  465SOL    HW1 1416   0.346   1.981   2.012
  465SOL    HW2 1417   0.359   1.832   2.078
  466SOL     OW 1418   0.935   2.098   2.342
  466SOL    HW1 1419   0.887   2.139   2.264
  466SOL    HW2 1420   1.034   2.096   2.323
  467SOL     OW 1421   1.032   2.411   1.878
  467SOL    HW1 1422   0.991   2.493   1.839
  467SOL    HW2 1423   1.096   2.437   1.951
  468SOL     OW 1424   0.866   2.316   2.504
  468SOL    HW1 1425   0.834   2.388   2.442
  468SOL    HW2 1426   0.890   2.235   2.451
  469SOL     OW 1427   1.017   1.901   2.615
  469SOL    HW1 1428   0.945   1.906   2.546
  469SOL    HW2 1429   0.993   1.832   2.684
  470SOL     OW 1430   1.429   3.035   2.729
  470SOL    HW1 1431   1.374   2.951   2.722
  470SOL    HW2 1432   1.455   3.064   2.637
  471SOL     OW 1433   1.857   2.695   2.239
  471SOL    HW1 1434   1.899   2.631   2.303
  471SOL    HW2 1435   1.819   2.644   2.161
  472SOL     OW 1436   1.390   2.437   1.940
  472SOL    HW1 1437   1.336   2.416   2.021
  472SOL    HW2 1438   1.481   2.396   1.949
  473SOL     OW 1439   0.527   2.118   2.190
  473SOL    HW1 1440   0.554   2.059   2.115
  473SOL    HW2 1441   0.527   2.213   2.159
  474SOL     OW 1442   1.638   2.961   2.941
  474SOL    HW1 1443   1.643   3.042   3.000
  474SOL    HW2 1444   1.552   2.963   2.890
  475SOL     OW 1445   0.566   2.399   2.727
  475SOL    HW1 1446   0.578   2.465   2.653
  475SOL    HW2 1447   0.612   2.433   2.810
  476SOL     OW 1448   1.582   2.501   2.334
  476SOL    HW1 1449   1.551   2.562   2.407
  476SOL    HW2 1450   1.632   2.553   2.265
  477SOL     OW 1451   0.573   2.732   2.891
  477SOL    HW1 1452   0.617   2.821   2.882
  477SOL    HW2 1453   0.510   2.732   2.968
  478SOL     OW 1454   1.209   2.387   2.137
  478SOL    HW1 1455   1.222   2.303   2.191
  478SOL    HW2 1456   1.180   2.461   2.197
  479SOL     OW 1457   0.307   2.075   3.093
  479SOL    HW1 1458   0.284   2.112   3.183
  479SOL    HW2 1459   0.277   1.980   3.087
  480SOL     OW 1460   0.732   2.496   2.926
  480SOL    HW1 1461   0.791   2.470   2.850
  480SOL    HW2 1462   0.704   2.592   2.915
  481SOL     OW 1463   0.307   1.925   2.480
  481SOL    HW1 1464   0.296   2.019   2.513
  481SOL    HW2 1465   0.302   1.862   2.557
  482SOL     OW 1466   1.622   2.229   2.236
  482SOL    HW1 1467   1.624   2.153   2.300
  482SOL    HW2 1468   1.574   2.306   2.276
  483SOL     OW 1469   1.540   2.136   1.987
  483SOL    HW1 1470   1.479   2.061   2.010
  483SOL    HW2 1471   1.562   2.188   2.070
  484SOL     OW 1472   1.303   2.700   1.904
  484SOL    HW1 1473   1.337   2.607   1.919
  484SOL    HW2 1474   1.321   2.727   1.809
  485SOL     OW 1475   0.319   2.672   2.811
  485SOL    HW1 1476   0.412   2.708   2.816
  485SOL    HW2 1477   0.313   2.587   2.863
  486SOL     OW 1478   0.339   2.371   2.868
  486SOL    HW1 1479   0.287   2.288   2.851
  486SOL    HW2 1480   0.416   2.376   2.804
  487SOL     OW 1481   0.815   2.434   2.187
  487SOL    HW1 1482   0.822   2.345   2.141
  487SOL    HW2 1483   0.721   2.468   2.179
  488SOL     OW 1484   0.671   2.326   3.131
  488SOL    HW1 1485   0.637   2.237   3.101
  488SOL    HW2 1486   0.697   2.380   3.051
  489SOL     OW 1487   0.473   2.362   2.053
  489SOL    HW1 1488   0.534   2.442   2.057
  489SOL    HW2 1489   0.378   2.393   2.060
  490SOL     OW 1490   1.302   2.717   2.171
  490SOL    HW1 1491   1.216   2.686   2.213
  490SOL    HW2 1492   1.298   2.703   2.072
  491SOL     OW 1493   1.726   1.997   2.385
  491SOL    HW1 1494   1.799   1.980   2.318
  491SOL    HW2 1495   1.695   1.910   2.423
  492SOL     OW 1496   1.280   2.789   2.534
  492SOL    HW1 1497   1.340   2.708   2.536
  492SOL    HW2 1498   1.320   2.858   2.474
  493SOL     OW 1499   1.841   2.037   2.825
  493SOL    HW1 1500   1.880   1.952   2.789
  493SOL    HW2 1501   1.743   2.039   2.806
  494SOL     OW 1502   0.263   2.188   2.582
  494SOL    HW1 1503   0.184   2.239   2.548
  494SOL    HW2 1504   0.254   2.173   2.680
  495SOL     OW 1505   0.916   2.772   2.153
  495SOL    HW1 1506   0.979   2.810   2.085
  495SOL    HW2 1507   0.956   2.689   2.192
  496SOL     OW 1508   0.075   2.207   1.895
  496SOL    HW1 1509  -0.017   2.179   1.866
  496SOL    HW2 1510   0.106   2.284   1.839
  497SOL     OW 1511   0.072   2.028   2.180
  497SOL    HW1 1512   0.055   2.111   2.126
  497SOL    HW2 1513   0.162   1.991   2.158
  498SOL     OW 1514   1.183   3.197   1.981
  498SOL    HW1 1515   1.084   3.186   1.983
  498SOL    HW2 1516   1.217   3.212   2.074
  499SOL     OW 1517   1.674   2.745   3.116
  499SOL    HW1 1518   1.647   2.656   3.079
  499SOL    HW2 1519   1.675   2.813   3.043
  500SOL     OW 1520   1.225   2.187   2.311
  500SOL    HW1 1521   1.290   2.113   2.300
  500SOL    HW2 1522   1.245   2.237   2.395
  501SOL     OW 1523   0.594   2.607   2.514
  501SOL    HW1 1524   0.644   2.692   2.495
  501SOL    HW2 1525   0.506   2.609   2.466
  502SOL     OW 1526   0.859   2.818   2.723
  502SOL    HW1 1527   0.913   2.749   2.771
  502SOL    HW2 1528   0.827   2.887   2.789
  503SOL     OW 1529   1.083   2.846   1.949
  503SOL    HW1 1530   1.060   2.899   1.867
  503SOL    HW2 1531   1.164   2.790   1.930
  504SOL     OW 1532   0.079   3.102   2.515
  504SOL    HW1 1533   0.078   3.055   2.603
  504SOL    HW2 1534   0.161   3.074   2.464
  505SOL     OW 1535   1.824   2.054   3.089
  505SOL    HW1 1536   1.820   1.964   3.133
  505SOL    HW2 1537   1.827   2.043   2.990
  506SOL     OW 1538   0.428   2.286   2.382
  506SOL    HW1 1539   0.458   2.214   2.320
  506SOL    HW2 1540   0.389   2.246   2.465
  507SOL     OW 1541   1.352   1.914   2.030
  507SOL    HW1 1542   1.387   1.873   1.946
  507SOL    HW2 1543   1.262   1.876   2.050
  508SOL     OW 1544   1.300   2.315   2.553
  508SOL    HW1 1545   1.241   2.395   2.557
  508SOL    HW2 1546   1.315   2.280   2.646
  509SOL     OW 1547   1.593   2.083   2.744
  509SOL    HW1 1548   1.509   2.082   2.798
  509SOL    HW2 1549   1.595   2.166   2.688
  510SOL     OW 1550   2.092   0.628   0.113
  510SOL    HW1 1551   1.999   0.626   0.150
  510SOL    HW2 1552   2.093   0.589   0.021
  511SOL     OW 1553   2.087   0.275   0.996
  511SOL    HW1 1554   2.122   0.258   1.088
  511SOL    HW2 1555   1.999   0.230   0.984
  512SOL     OW 1556   1.881   0.368   0.647
  512SOL    HW1 1557   1.799   0.411   0.686
  512SOL    HW2 1558   1.853   0.295   0.584
  513SOL     OW 1559   2.431   1.275   1.165
  513SOL    HW1 1560   2.338   1.268   1.128
  513SOL    HW2 1561   2.442   1.364   1.209
  514SOL     OW 1562   2.630   1.144   1.023
  514SOL    HW1 1563   2.552   1.161   1.083
  514SOL    HW2 1564   2.664   1.231   0.987
  515SOL     OW 1565   2.712   0.798   1.823
  515SOL    HW1 1566   2.708   0.874   1.888
  515SOL    HW2 1567   2.734   0.834   1.732
  516SOL     OW 1568   2.547   1.012   0.665
  516SOL    HW1 1569   2.616   0.996   0.735
  516SOL    HW2 1570   2.474   1.069   0.703
  517SOL     OW 1571   2.548   1.161   1.803
  517SOL    HW1 1572   2.608   1.240   1.817
  517SOL    HW2 1573   2.462   1.192   1.762
  518SOL     OW 1574   2.197   1.435   1.061
  518SOL    HW1 1575   2.119   1.404   1.008
  518SOL    HW2 1576   2.255   1.493   1.004
  519SOL     OW 1577   2.300   0.392   1.499
  519SOL    HW1 1578   2.382   0.336   1.508
  519SOL    HW2 1579   2.219   0.334   1.503
  520SOL     OW 1580   2.093   1.713   0.483
  520SOL    HW1 1581   2.127   1.790   0.537
  520SOL    HW2 1582   2.137   1.713   0.393
  521SOL     OW 1583   2.092   1.434   0.538
  521SOL    HW1 1584   2.066   1.530   0.538
  521SOL    HW2 1585   2.021   1.380   0.583
  522SOL     OW 1586   2.102   1.091   0.886
  522SOL    HW1 1587   2.116   1.007   0.938
  522SOL    HW2 1588   2.047   1.155   0.941
  523SOL     OW 1589   2.482   1.786   1.439
  523SOL    HW1 1590   2.390   1.769   1.474
  523SOL    HW2 1591   2.510   1.878   1.465
  524SOL     OW 1592   2.468   0.964   0.123
  524SOL    HW1 1593   2.475   1.048   0.069
  524SOL    HW2 1594   2.514   0.977   0.211
  525SOL     OW 1595   1.984   0.643   0.563
  525SOL    HW1 1596   1.939   0.555   0.580
  525SOL    HW2 1597   1.983   0.697   0.647
  526SOL     OW 1598   1.889   1.596   0.117
  526SOL    HW1 1599   1.870   1.500   0.138
  526SOL    HW2 1600   1.856   1.654   0.192
  527SOL     OW 1601   1.975   0.737   1.597
  527SOL    HW1 1602   2.063   0.724   1.642
  527SOL    HW2 1603   1.962   0.834   1.575
  528SOL     OW 1604   2.475   1.365   0.726
  528SOL    HW1 1605   2.426   1.278   0.735
  528SOL    HW2 1606   2.452   1.408   0.639
  529SOL     OW 1607   2.671   0.004   0.502
  529SOL    HW1 1608   2.711   0.095   0.493
  529SOL    HW2 1609   2.571   0.012   0.508
  530SOL     OW 1610   2.059   0.976   1.264
  530SOL    HW1 1611   2.148   0.931   1.250
  530SOL    HW2 1612   1.986   0.911   1.245
  531SOL     OW 1613   2.179   0.251   1.801
  531SOL    HW1 1614   2.250   0.322   1.807
  531SOL    HW2 1615   2.091   0.290   1.829
  532SOL     OW 1616   2.460   0.729   0.270
  532SOL    HW1 1617   2.484   0.798   0.202
  532SOL    HW2 1618   2.382   0.762   0.324
  533SOL     OW 1619   2.669   0.605   1.465
  533SOL    HW1 1620   2.622   0.602   1.554
  533SOL    HW2 1621   2.618   0.550   1.399
  534SOL     OW 1622   2.835   0.890   1.572
  534SOL    HW1 1623   2.881   0.806   1.543
  534SOL    HW2 1624   2.779   0.924   1.497
  535SOL     OW 1625   2.853   0.410   1.242
  535SOL    HW1 1626   2.776   0.444   1.296
  535SOL    HW2 1627   2.819   0.359   1.163
  536SOL     OW 1628   1.938   0.811   0.789
  536SOL    HW1 1629   2.037   0.799   0.798
  536SOL    HW2 1630   1.914   0.906   0.810
  537SOL     OW 1631   1.992   1.821   1.571
  537SOL    HW1 1632   1.982   1.806   1.670
  537SOL    HW2 1633   1.906   1.857   1.535
  538SOL     OW 1634   2.727   0.348   0.195
  538SOL    HW1 1635   2.786   0.411   0.146
  538SOL    HW2 1636   2.746   0.254   0.166
  539SOL     OW 1637   2.412   0.196   0.885
  539SOL    HW1 1638   2.407   0.191   0.985
  539SOL    HW2 1639   2.414   0.292   0.856
  540SOL     OW 1640   2.870   1.456   0.477
  540SOL    HW1 1641   2.824   1.528   0.425
  540SOL    HW2 1642   2.866   1.476   0.575
  541SOL     OW 1643   2.213   1.801   0.853
  541SOL    HW1 1644   2.263   1.715   0.859
  541SOL    HW2 1645   2.278   1.878   0.850
  542SOL     OW 1646   2.183   0.943   0.242
  542SOL    HW1 1647   2.265   0.982   0.200
  542SOL    HW2 1648   2.156   0.861   0.193
  543SOL     OW 1649   2.323   1.266   1.727
  543SOL    HW1 1650   2.273   1.267   1.641
  543SOL    HW2 1651   2.260   1.248   1.803
  544SOL     OW 1652   2.064   0.285   1.498
  544SOL    HW1 1653   1.984   0.345   1.485
  544SOL    HW2 1654   2.054   0.236   1.584
  545SOL     OW 1655   2.326   1.743   0.323
  545SOL    HW1 1656   2.359   1.782   0.409
  545SOL    HW2 1657   2.402   1.736   0.258
  546SOL     OW 1658   2.111   1.785   1.241
  546SOL    HW1 1659   2.168   1.720   1.291
  546SOL    HW2 1660   2.095   1.752   1.148
  547SOL     OW 1661   2.244   0.700   0.480
  547SOL    HW1 1662   2.289   0.610   0.477
  547SOL    HW2 1663   2.150   0.689   0.513
  548SOL     OW 1664   2.476   0.122   0.117
  548SOL    HW1 1665   2.574   0.100   0.124
  548SOL    HW2 1666   2.445   0.105   0.024
  549SOL     OW 1667   2.643   0.264   1.749
  549SOL    HW1 1668   2.710   0.203   1.792
  549SOL    HW2 1669   2.570   0.283   1.814
  550SOL     OW 1670   2.750   1.514   1.195
  550SOL    HW1 1671   2.727   1.489   1.101
  550SOL    HW2 1672   2.811   1.445   1.234
  551SOL     OW 1673   2.665   1.402   0.924
  551SOL    HW1 1674   2.755   1.416   0.882
  551SOL    HW2 1675   2.594   1.404   0.853
  552SOL     OW 1676   2.784   0.503   0.899
  552SOL    HW1 1677   2.759   0.494   0.803
  552SOL    HW2 1678   2.832   0.421   0.930
  553SOL     OW 1679   2.401   0.064   0.512
  553SOL    HW1 1680   2.320   0.065   0.570
  553SOL    HW2 1681   2.404   0.147   0.457
  554SOL     OW 1682   2.159   0.035   0.171
  554SOL    HW1 1683   2.208   0.119   0.150
  554SOL    HW2 1684   2.221  -0.030   0.216
  555SOL     OW 1685   2.797   0.236   0.480
  555SOL    HW1 1686   2.749   0.277   0.402
  555SOL    HW2 1687   2.896   0.234   0.461
  556SOL     OW 1688   3.089   1.570   0.793
  556SOL    HW1 1689   3.110   1.644   0.728
  556SOL    HW2 1690   3.157   1.570   0.866
  557SOL     OW 1691   2.321   1.152   0.741
  557SOL    HW1 1692   2.250   1.125   0.806
  557SOL    HW2 1693   2.295   1.124   0.648
  558SOL     OW 1694   1.940   0.556   1.386
  558SOL    HW1 1695   2.032   0.555   1.345
  558SOL    HW2 1696   1.934   0.630   1.453
  559SOL     OW 1697   2.423   0.222   1.147
  559SOL    HW1 1698   2.461   0.138   1.184
  559SOL    HW2 1699   2.335   0.241   1.191
  560SOL     OW 1700   2.879   0.039   0.753
  560SOL    HW1 1701   2.807   0.044   0.684
  560SOL    HW2 1702   2.855  -0.030   0.822
  561SOL     OW 1703   2.350   1.385   0.174
  561SOL    HW1 1704   2.263   1.370   0.221
  561SOL    HW2 1705   2.333   1.411   0.079
  562SOL     OW 1706   2.389   0.256   0.328
  562SOL    HW1 1707   2.416   0.197   0.253
  562SOL    HW2 1708   2.389   0.351   0.297
  563SOL     OW 1709   2.777   0.089   1.402
  563SOL    HW1 1710   2.802   0.069   1.307
  563SOL    HW2 1711   2.849   0.145   1.444
  564SOL     OW 1712   2.842   1.116   1.719
  564SOL    HW1 1713   2.743   1.122   1.729
  564SOL    HW2 1714   2.865   1.036   1.663
  565SOL     OW 1715   2.567   1.050   0.368
  565SOL    HW1 1716   2.553   1.057   0.467
  565SOL    HW2 1717   2.651   0.999   0.350
  566SOL     OW 1718   2.272   0.813   1.251
  566SOL    HW1 1719   2.358   0.825   1.301
  566SOL    HW2 1720   2.230   0.726   1.278
  567SOL     OW 1721   1.926   1.564   1.331
  567SOL    HW1 1722   1.880   1.646   1.297
  567SOL    HW2 1723   2.024   1.583   1.340
  568SOL     OW 1724   2.229   1.100   0.501
  568SOL    HW1 1725   2.222   1.183   0.445
  568SOL    HW2 1726   2.233   1.020   0.441
  569SOL     OW 1727   2.428   0.537   0.865
  569SOL    HW1 1728   2.440   0.603   0.791
  569SOL    HW2 1729   2.474   0.571   0.948
  570SOL     OW 1730   2.216   1.510   1.329
  570SOL    HW1 1731   2.195   1.466   1.242
  570SOL    HW2 1732   2.313   1.536   1.332
  571SOL     OW 1733   2.264   0.751   1.598
  571SOL    HW1 1734   2.332   0.806   1.551
  571SOL    HW2 1735   2.304   0.663   1.625
  572SOL     OW 1736   2.366   0.050   1.740
  572SOL    HW1 1737   2.324  -0.007   1.670
  572SOL    HW2 1738   2.300   0.119   1.772
  573SOL     OW 1739   2.435   0.870   1.029
  573SOL    HW1 1740   2.479   0.959   1.020
  573SOL    HW2 1741   2.372   0.870   1.106
  574SOL     OW 1742   3.071   0.525   0.275
  574SOL    HW1 1743   3.084   0.441   0.329
  574SOL    HW2 1744   3.042   0.599   0.335
  575SOL     OW 1745   2.169   0.213   1.231
  575SOL    HW1 1746   2.146   0.250   1.321
  575SOL    HW2 1747   2.139   0.118   1.225
  576SOL     OW 1748   1.899   1.310   1.282
  576SOL    HW1 1749   1.952   1.261   1.350
  576SOL    HW2 1750   1.921   1.408   1.287
  577SOL     OW 1751   2.594   0.634   1.064
  577SOL    HW1 1752   2.653   0.608   0.988
  577SOL    HW2 1753   2.566   0.730   1.053
  578SOL     OW 1754   2.169   0.063   0.618
  578SOL    HW1 1755   2.158   0.157   0.651
  578SOL    HW2 1756   2.164   0.000   0.695
  579SOL     OW 1757   2.885   0.766   0.966
  579SOL    HW1 1758   2.900   0.787   1.062
  579SOL    HW2 1759   2.855   0.671   0.957
  580SOL     OW 1760   2.842   1.573   1.700
  580SOL    HW1 1761   2.822   1.617   1.612
  580SOL    HW2 1762   2.881   1.482   1.684
  581SOL     OW 1763   2.212   0.898   1.804
  581SOL    HW1 1764   2.288   0.942   1.852
  581SOL    HW2 1765   2.247   0.851   1.722
  582SOL     OW 1766   2.181   0.810   0.949
  582SOL    HW1 1767   2.274   0.846   0.954
  582SOL    HW2 1768   2.175   0.725   1.001
  583SOL     OW 1769   2.201   0.509   1.006
  583SOL    HW1 1770   2.149   0.426   0.989
  583SOL    HW2 1771   2.278   0.514   0.942
  584SOL     OW 1772   1.870   1.326   0.200
  584SOL    HW1 1773   1.777   1.347   0.169
  584SOL    HW2 1774   1.880   1.227   0.213
  585SOL     OW 1775   1.950   1.801   0.927
  585SOL    HW1 1776   1.908   1.715   0.900
  585SOL    HW2 1777   2.044   1.804   0.893
  586SOL     OW 1778   2.366   1.568   0.910
  586SOL    HW1 1779   2.432   1.642   0.919
  586SOL    HW2 1780   2.410   1.489   0.868
  587SOL     OW 1781   2.864   0.796   1.238
  587SOL    HW1 1782   2.905   0.764   1.324
  587SOL    HW2 1783   2.768   0.769   1.235
  588SOL     OW 1784   1.902   0.544   1.114
  588SOL    HW1 1785   1.987   0.511   1.073
  588SOL    HW2 1786   1.915   0.559   1.212
  589SOL     OW 1787   2.051   0.520   1.722
  589SOL    HW1 1788   2.110   0.480   1.652
  589SOL    HW2 1789   1.993   0.591   1.681
  590SOL     OW 1790   2.677   0.572   0.325
  590SOL    HW1 1791   2.684   0.483   0.279
  590SOL    HW2 1792   2.583   0.606   0.317
  591SOL     OW 1793   2.114   1.564   1.744
  591SOL    HW1 1794   2.084   1.621   1.820
  591SOL    HW2 1795   2.107   1.467   1.770
  592SOL     OW 1796   2.533   0.464   1.269
  592SOL    HW1 1797   2.499   0.375   1.239
  592SOL    HW2 1798   2.559   0.518   1.189
  593SOL     OW 1799   2.792   1.678   1.465
  593SOL    HW1 1800   2.768   1.660   1.370
  593SOL    HW2 1801   2.822   1.772   1.475
  594SOL     OW 1802   2.335   0.500   0.191
  594SOL    HW1 1803   2.396   0.580   0.195
  594SOL    HW2 1804   2.240   0.531   0.198
  595SOL     OW 1805   2.021   1.137   1.466
  595SOL    HW1 1806   2.043   1.076   1.542
  595SOL    HW2 1807   2.031   1.088   1.380
  596SOL     OW 1808   1.945   1.258   1.022
  596SOL    HW1 1809   1.940   1.257   1.122
  596SOL    HW2 1810   1.862   1.217   0.984
  597SOL     OW 1811   2.550   1.662   1.716
  597SOL    HW1 1812   2.494   1.743   1.725
  597SOL    HW2 1813   2.602   1.666   1.630
  598SOL     OW 1814   2.765   0.086   0.133
  598SOL    HW1 1815   2.816   0.087   0.047
  598SOL    HW2 1816   2.821   0.044   0.204
  599SOL     OW 1817   1.992   1.794   1.851
  599SOL    HW1 1818   1.951   1.720   1.904
  599SOL    HW2 1819   2.056   1.845   1.909
  600SOL     OW 1820   3.142   0.927   0.672
  600SOL    HW1 1821   3.202   0.846   0.674
  600SOL    HW2 1822   3.182   0.996   0.612
  601SOL     OW 1823   2.692   1.273   1.422
  601SOL    HW1 1824   2.687   1.306   1.517
  601SOL    HW2 1825   2.606   1.292   1.376
  602SOL     OW 1826   2.534   1.616   0.154
  602SOL    HW1 1827   2.543   1.626   0.055
  602SOL    HW2 1828   2.494   1.527   0.175
  603SOL     OW 1829   2.125   0.326   0.720
  603SOL    HW1 1830   2.046   0.377   0.686
  603SOL    HW2 1831   2.116   0.311   0.818
  604SOL     OW 1832   2.684   1.002   1.372
  604SOL    HW1 1833   2.724   1.001   1.280
  604SOL    HW2 1834   2.694   1.094   1.412
  605SOL     OW 1835   2.778   0.910   0.291
  605SOL    HW1 1836   2.841   0.948   0.223
  605SOL    HW2 1837   2.818   0.827   0.330
  606SOL     OW 1838   2.234   1.288   1.490
  606SOL    HW1 1839   2.221   1.381   1.456
  606SOL    HW2 1840   2.150   1.236   1.477
  607SOL     OW 1841   2.876   0.236   0.971
  607SOL    HW1 1842   2.868   0.200   0.878
  607SOL    HW2 1843   2.874   0.160   1.036
  608SOL     OW 1844   2.452   1.487   0.491
  608SOL    HW1 1845   2.494   1.429   0.421
  608SOL    HW2 1846   2.408   1.566   0.447
  609SOL     OW 1847   2.117   1.348   0.290
  609SOL    HW1 1848   2.021   1.349   0.263
  609SOL    HW2 1849   2.129   1.401   0.374
  610SOL     OW 1850   1.967   1.013   1.726
  610SOL    HW1 1851   1.890   0.980   1.780
  610SOL    HW2 1852   2.052   0.983   1.768
  611SOL     OW 1853   2.534   0.203   1.489
  611SOL    HW1 1854   2.624   0.187   1.449
  611SOL    HW2 1855   2.542   0.208   1.588
  612SOL     OW 1856   1.937   0.345   0.033
  612SOL    HW1 1857   1.845   0.317   0.004
  612SOL    HW2 1858   1.968   0.422  -0.023
  613SOL     OW 1859   2.475   0.842   1.431
  613SOL    HW1 1860   2.531   0.923   1.414
  613SOL    HW2 1861   2.534   0.762   1.434
  614SOL     OW 1862   2.578   0.565   1.708
  614SOL    HW1 1863   2.597   0.630   1.782
  614SOL    HW2 1864   2.638   0.485   1.717
  615SOL     OW 1865   2.252   1.741   1.560
  615SOL    HW1 1866   2.161   1.782   1.558
  615SOL    HW2 1867   2.245   1.647   1.592
  616SOL     OW 1868   3.087   0.325   0.449
  616SOL    HW1 1869   3.152   0.251   0.438
  616SOL    HW2 1870   3.107   0.375   0.533
  617SOL     OW 1871   2.456   0.745   0.652
  617SOL    HW1 1872   2.506   0.830   0.633
  617SOL    HW2 1873   2.368   0.747   0.604
  618SOL     OW 1874   2.721   1.374   0.016
  618SOL    HW1 1875   2.675   1.389   0.104
  618SOL    HW2 1876   2.765   1.459  -0.014
  619SOL     OW 1877   2.523   1.790   0.953
  619SOL    HW1 1878   2.477   1.878   0.940
  619SOL    HW2 1879   2.622   1.802   0.946
  620SOL     OW 1880   2.721   0.956   0.861
  620SOL    HW1 1881   2.775   0.887   0.909
  620SOL    HW2 1882   2.689   1.025   0.927
  621SOL     OW 1883   2.945   0.984   0.087
  621SOL    HW1 1884   2.922   1.037   0.005
  621SOL    HW2 1885   3.026   0.928   0.068
  622SOL     OW 1886   2.083   1.314   1.844
  622SOL    HW1 1887   2.018   1.241   1.823
  622SOL    HW2 1888   2.087   1.328   1.942
  623SOL     OW 1889   1.941   1.240   0.653
  623SOL    HW1 1890   1.940   1.193   0.741
  623SOL    HW2 1891   2.023   1.212   0.602
  624SOL     OW 1892   2.534   1.391   1.624
  624SOL    HW1 1893   2.456   1.341   1.662
  624SOL    HW2 1894   2.531   1.486   1.655
  625SOL     OW 1895   2.290   0.424   0.520
  625SOL    HW1 1896   2.320   0.352   0.458
  625SOL    HW2 1897   2.251   0.384   0.603
  626SOL     OW 1898   2.179   0.547   1.280
  626SOL    HW1 1899   2.217   0.488   1.352
  626SOL    HW2 1900   2.219   0.521   1.192
  627SOL     OW 1901   2.674   1.586   0.687
  627SOL    HW1 1902   2.706   1.596   0.593
  627SOL    HW2 1903   2.595   1.524   0.689
  628SOL     OW 1904   2.863   0.034   1.154
  628SOL    HW1 1905   2.800  -0.038   1.123
  628SOL    HW2 1906   2.956  -0.002   1.154
  629SOL     OW 1907   2.632   1.330   0.301
  629SOL    HW1 1908   2.586   1.243   0.318
  629SOL    HW2 1909   2.723   1.327   0.342
  630SOL     OW 1910   2.480   1.567   1.284
  630SOL    HW1 1911   2.475   1.649   1.341
  630SOL    HW2 1912   2.569   1.564   1.239
  631SOL     OW 1913   1.901   1.077   0.300
  631SOL    HW1 1914   2.000   1.066   0.291
  631SOL    HW2 1915   1.861   0.991   0.332
  632SOL     OW 1916   2.737   1.646   0.337
  632SOL    HW1 1917   2.660   1.611   0.283
  632SOL    HW2 1918   2.705   1.717   0.399
  633SOL     OW 1919   2.092   0.628   1.975
  633SOL    HW1 1920   1.999   0.626   2.012
  633SOL    HW2 1921   2.093   0.589   1.883
  634SOL     OW 1922   2.087   0.275   2.858
  634SOL    HW1 1923   2.122   0.258   2.950
  634SOL    HW2 1924   1.999   0.230   2.846
  635SOL     OW 1925   1.881   0.368   2.509
  635SOL    HW1 1926   1.799   0.411   2.548
  635SOL    HW2 1927   1.853   0.295   2.446
  636SOL     OW 1928   2.630   1.144   2.885
  636SOL    HW1 1929   2.552   1.161   2.945
  636SOL    HW2 1930   2.664   1.231   2.849
  637SOL     OW 1931   2.547   1.012   2.527
  637SOL    HW1 1932   2.616   0.996   2.597
  637SOL    HW2 1933   2.474   1.069   2.565
  638SOL     OW 1934   2.197   1.435   2.923
  638SOL    HW1 1935   2.119   1.404   2.870
  638SOL    HW2 1936   2.255   1.493   2.866
  639SOL     OW 1937   2.093   1.713   2.345
  639SOL    HW1 1938   2.127   1.790   2.399
  639SOL    HW2 1939   2.137   1.713   2.255
  640SOL     OW 1940   2.092   1.434   2.400
  640SOL    HW1 1941   2.066   1.530   2.400
  640SOL    HW2 1942   2.021   1.380   2.445
  641SOL     OW 1943   2.102   1.091   2.748
  641SOL    HW1 1944   2.116   1.007   2.800
  641SOL    HW2 1945   2.047   1.155   2.803
  642SOL     OW 1946   2.468   0.964   1.985
  642SOL    HW1 1947   2.475   1.048   1.931
  642SOL    HW2 1948   2.514   0.977   2.073
  643SOL     OW 1949   1.984   0.643   2.425
  643SOL    HW1 1950   1.939   0.555   2.442
  643SOL    HW2 1951   1.983   0.697   2.509
  644SOL     OW 1952   1.889   1.596   1.979
  644SOL    HW1 1953   1.870   1.500   2.000
  644SOL    HW2 1954   1.856   1.654   2.054
  645SOL     OW 1955   2.475   1.365   2.588
  645SOL    HW1 1956   2.426   1.278   2.597
  645SOL    HW2 1957   2.452   1.408   2.501
  646SOL     OW 1958   2.671   0.004   2.364
  646SOL    HW1 1959   2.711   0.095   2.355
  646SOL    HW2 1960   2.571   0.012   2.370
  647SOL     OW 1961   2.460   0.729   2.132
  647SOL    HW1 1962   2.484   0.798   2.064
  647SOL    HW2 1963   2.382   0.762   2.186
  648SOL     OW 1964   1.938   0.811   2.651
  648SOL    HW1 1965   2.037   0.799   2.660
  648SOL    HW2 1966   1.914   0.906   2.672
  649SOL     OW 1967   2.727   0.348   2.057
  649SOL    HW1 1968   2.786   0.411   2.008
  649SOL    HW2 1969   2.746   0.254   2.028
  650SOL     OW 1970   2.412   0.196   2.747
  650SOL    HW1 1971   2.407   0.191   2.847
  650SOL    HW2 1972   2.414   0.292   2.718
  651SOL     OW 1973   2.870   1.456   2.339
  651SOL    HW1 1974   2.824   1.528   2.287
  651SOL    HW2 1975   2.866   1.476   2.437
  652SOL     OW 1976   2.213   1.801   2.715
  652SOL    HW1 1977   2.263   1.715   2.721
  652SOL    HW2 1978   2.278   1.878   2.712
  653SOL     OW 1979   2.183   0.943   2.104
  653SOL    HW1 1980   2.265   0.982   2.062
  653SOL    HW2 1981   2.156   0.861   2.055
  654SOL     OW 1982   2.326   1.743   2.185
  654SOL    HW1 1983   2.359   1.782   2.271
  654SOL    HW2 1984   2.402   1.736   2.120
  655SOL     OW 1985   2.111   1.785   3.103
  655SOL    HW1 1986   2.168   1.720   3.153
  655SOL    HW2 1987   2.095   1.752   3.010
  656SOL     OW 1988   2.244   0.700   2.342
  656SOL    HW1 1989   2.289   0.610   2.339
  656SOL    HW2 1990   2.150   0.689   2.375
  657SOL     OW 1991   2.476   0.122   1.979
  657SOL    HW1 1992   2.574   0.100   1.986
  657SOL    HW2 1993   2.445   0.105   1.886
  658SOL     OW 1994   2.784   0.503   2.761
  658SOL    HW1 1995   2.759   0.494   2.665
  658SOL    HW2 1996   2.832   0.421   2.792
  659SOL     OW 1997   2.401   0.064   2.374
  659SOL    HW1 1998   2.320   0.065   2.432
  659SOL    HW2 1999   2.404   0.147   2.319
  660SOL     OW 2000   2.159   0.035   2.033
  660SOL    HW1 2001   2.208   0.119   2.012
  660SOL    HW2 2002   2.221  -0.030   2.078
  661SOL     OW 2003   2.797   0.236   2.342
  661SOL    HW1 2004   2.749   0.277   2.264
  661SOL    HW2 2005   2.896   0.234   2.323
  662SOL     OW 2006   3.089   1.570   2.655
  662SOL    HW1 2007   3.110   1.644   2.590
  662SOL    HW2 2008   3.157   1.570   2.728
  663SOL     OW 2009   2.321   1.152   2.603
  663SOL    HW1 2010   2.250   1.125   2.668
  663SOL    HW2 2011   2.295   1.124   2.510
  664SOL     OW 2012   2.879   0.039   2.615
  664SOL    HW1 2013   2.807   0.044   2.546
  664SOL    HW2 2014   2.855  -0.030   2.684
  665SOL     OW 2015   2.350   1.385   2.036
  665SOL    HW1 2016   2.263   1.370   2.083
  665SOL    HW2 2017   2.333   1.411   1.941
  666SOL     OW 2018   2.389   0.256   2.190
  666SOL    HW1 2019   2.416   0.197   2.115
  666SOL    HW2 2020   2.389   0.351   2.159
  667SOL     OW 2021   2.567   1.050   2.230
  667SOL    HW1 2022   2.553   1.057   2.329
  667SOL    HW2 2023   2.651   0.999   2.212
  668SOL     OW 2024   2.229   1.100   2.363
  668SOL    HW1 2025   2.222   1.183   2.307
  668SOL    HW2 2026   2.233   1.020   2.303
  669SOL     OW 2027   2.428   0.537   2.727
  669SOL    HW1 2028   2.440   0.603   2.653
  669SOL    HW2 2029   2.474   0.571   2.810
  670SOL     OW 2030   2.435   0.870   2.891
  670SOL    HW1 2031   2.479   0.959   2.882
  670SOL    HW2 2032   2.372   0.870   2.968
  671SOL     OW 2033   3.071   0.525   2.137
  671SOL    HW1 2034   3.084   0.441   2.191
  671SOL    HW2 2035   3.042   0.599   2.197
  672SOL     OW 2036   2.594   0.634   2.926
  672SOL    HW1 2037   2.653   0.608   2.850
  672SOL    HW2 2038   2.566   0.730   2.915
  673SOL     OW 2039   2.169   0.063   2.480
  673SOL    HW1 2040   2.158   0.157   2.513
  673SOL    HW2 2041   2.164   0.000   2.557
  674SOL     OW 2042   2.885   0.766   2.828
  674SOL    HW1 2043   2.900   0.787   2.924
  674SOL    HW2 2044   2.855   0.671   2.819
  675SOL     OW 2045   2.181   0.810   2.811
  675SOL    HW1 2046   2.274   0.846   2.816
  675SOL    HW2 2047   2.175   0.725   2.863
  676SOL     OW 2048   2.201   0.509   2.868
  676SOL    HW1 2049   2.149   0.426   2.851
  676SOL    HW2 2050   2.278   0.514   2.804
  677SOL     OW 2051   1.870   1.326   2.062
  677SOL    HW1 2052   1.777   1.347   2.031
  677SOL    HW2 2053   1.880   1.227   2.075
  678SOL     OW 2054   1.950   1.801   2.789
  678SOL    HW1 2055   1.908   1.715   2.762
  678SOL    HW2 2056   2.044   1.804   2.755
  679SOL     OW 2057   2.366   1.568   2.772
  679SOL    HW1 2058   2.432   1.642   2.781
  679SOL    HW2 2059   2.410   1.489   2.730
  680SOL     OW 2060   2.677   0.572   2.187
  680SOL    HW1 2061   2.684   0.483   2.141
  680SOL    HW2 2062   2.583   0.606   2.179
  681SOL     OW 2063   2.533   0.464   3.131
  681SOL    HW1 2064   2.499   0.375   3.101
  681SOL    HW2 2065   2.559   0.518   3.051
  682SOL     OW 2066   2.335   0.500   2.053
  682SOL    HW1 2067   2.396   0.580   2.057
  682SOL    HW2 2068   2.240   0.531   2.060
  683SOL     OW 2069   1.945   1.258   2.884
  683SOL    HW1 2070   1.940   1.257   2.984
  683SOL    HW2 2071   1.862   1.217   2.846
  684SOL     OW 2072   2.765   0.086   1.995
  684SOL    HW1 2073   2.816   0.087   1.909
  684SOL    HW2 2074   2.821   0.044   2.066
  685SOL     OW 2075   3.142   0.927   2.534
  685SOL    HW1 2076   3.202   0.846   2.536
  685SOL    HW2 2077   3.182   0.996   2.474
  686SOL     OW 2078   2.534   1.616   2.016
  686SOL    HW1 2079   2.543   1.626   1.917
  686SOL    HW2 2080   2.494   1.527   2.037
  687SOL     OW 2081   2.125   0.326   2.582
  687SOL    HW1 2082   2.046   0.377   2.548
  687SOL    HW2 2083   2.116   0.311   2.680
  688SOL     OW 2084   2.778   0.910   2.153
  688SOL    HW1 2085   2.841   0.948   2.085
  688SOL    HW2 2086   2.818   0.827   2.192
  689SOL     OW 2087   2.452   1.487   2.353
  689SOL    HW1 2088   2.494   1.429   2.283
  689SOL    HW2 2089   2.408   1.566   2.309
  690SOL     OW 2090   2.117   1.348   2.152
  690SOL    HW1 2091   2.021   1.349   2.125
  690SOL    HW2 2092   2.129   1.401   2.236
  691SOL     OW 2093   1.937   0.345   1.895
  691SOL    HW1 2094   1.845   0.317   1.866
  691SOL    HW2 2095   1.968   0.422   1.839
  692SOL     OW 2096   1.934   0.166   2.180
  692SOL    HW1 2097   1.917   0.249   2.126
  692SOL    HW2 2098   2.024   0.129   2.158
  693SOL     OW 2099   3.087   0.325   2.311
  693SOL    HW1 2100   3.152   0.251   2.300
  693SOL    HW2 2101   3.107   0.375   2.395
  694SOL     OW 2102   2.456   0.745   2.514
  694SOL    HW1 2103   2.506   0.830   2.495
  694SOL    HW2 2104   2.368   0.747   2.466
  695SOL     OW 2105   2.721   1.374   1.878
  695SOL    HW1 2106   2.675   1.389   1.966
  695SOL    HW2 2107   2.765   1.459   1.848
  696SOL     OW 2108   2.523   1.790   2.815
  696SOL    HW1 2109   2.477   1.878   2.802
  696SOL    HW2 2110   2.622   1.802   2.808
  697SOL     OW 2111   2.721   0.956   2.723
  697SOL    HW1 2112   2.775   0.887   2.771
  697SOL    HW2 2113   2.689   1.025   2.789
  698SOL     OW 2114   1.941   1.240   2.515
  698SOL    HW1 2115   1.940   1.193   2.603
  698SOL    HW2 2116   2.023   1.212   2.464
  699SOL     OW 2117   2.290   0.424   2.382
  699SOL    HW1 2118   2.320   0.352   2.320
  699SOL    HW2 2119   2.251   0.384   2.465
  700SOL     OW 2120   2.674   1.586   2.549
  700SOL    HW1 2121   2.706   1.596   2.455
  700SOL    HW2 2122   2.595   1.524   2.551
  701SOL     OW 2123   2.632   1.330   2.163
  701SOL    HW1 2124   2.586   1.243   2.180
  701SOL    HW2 2125   2.723   1.327   2.204
  702SOL     OW 2126   1.901   1.077   2.162
  702SOL    HW1 2127   2.000   1.066   2.153
  702SOL    HW2 2128   1.861   0.991   2.194
  703SOL     OW 2129   2.737   1.646   2.199
  703SOL    HW1 2130   2.660   1.611   2.145
  703SOL    HW2 2131   2.705   1.717   2.261
  704SOL     OW 2132   2.092   2.490   0.113
  704SOL    HW1 2133   1.999   2.488   0.150
  704SOL    HW2 2134   2.093   2.451   0.021
  705SOL     OW 2135   2.087   2.137   0.996
  705SOL    HW1 2136   2.122   2.120   1.088
  705SOL    HW2 2137   1.999   2.092   0.984
  706SOL     OW 2138   1.881   2.230   0.647
  706SOL    HW1 2139   1.799   2.273   0.686
  706SOL    HW2 2140   1.853   2.157   0.584
  707SOL     OW 2141   2.630   3.006   1.023
  707SOL    HW1 2142   2.552   3.023   1.083
  707SOL    HW2 2143   2.664   3.093   0.987
  708SOL     OW 2144   2.712   2.660   1.823
  708SOL    HW1 2145   2.708   2.736   1.888
  708SOL    HW2 2146   2.734   2.696   1.732
  709SOL     OW 2147   2.547   2.874   0.665
  709SOL    HW1 2148   2.616   2.858   0.735
  709SOL    HW2 2149   2.474   2.931   0.703
  710SOL     OW 2150   2.300   2.254   1.499
  710SOL    HW1 2151   2.382   2.198   1.508
  710SOL    HW2 2152   2.219   2.196   1.503
  711SOL     OW 2153   2.102   2.953   0.886
  711SOL    HW1 2154   2.116   2.869   0.938
  711SOL    HW2 2155   2.047   3.017   0.941
  712SOL     OW 2156   1.984   2.505   0.563
  712SOL    HW1 2157   1.939   2.417   0.580
  712SOL    HW2 2158   1.983   2.559   0.647
  713SOL     OW 2159   1.975   2.599   1.597
  713SOL    HW1 2160   2.063   2.586   1.642
  713SOL    HW2 2161   1.962   2.696   1.575
  714SOL     OW 2162   2.671   1.866   0.502
  714SOL    HW1 2163   2.711   1.957   0.493
  714SOL    HW2 2164   2.571   1.874   0.508
  715SOL     OW 2165   2.059   2.838   1.264
  715SOL    HW1 2166   2.148   2.793   1.250
  715SOL    HW2 2167   1.986   2.773   1.245
  716SOL     OW 2168   2.179   2.113   1.801
  716SOL    HW1 2169   2.250   2.184   1.807
  716SOL    HW2 2170   2.091   2.152   1.829
  717SOL     OW 2171   2.460   2.591   0.270
  717SOL    HW1 2172   2.484   2.660   0.202
  717SOL    HW2 2173   2.382   2.624   0.324
  718SOL     OW 2174   2.669   2.467   1.465
  718SOL    HW1 2175   2.622   2.464   1.554
  718SOL    HW2 2176   2.618   2.412   1.399
  719SOL     OW 2177   2.835   2.752   1.572
  719SOL    HW1 2178   2.881   2.668   1.543
  719SOL    HW2 2179   2.779   2.786   1.497
  720SOL     OW 2180   2.853   2.272   1.242
  720SOL    HW1 2181   2.776   2.306   1.296
  720SOL    HW2 2182   2.819   2.221   1.163
  721SOL     OW 2183   1.938   2.673   0.789
  721SOL    HW1 2184   2.037   2.661   0.798
  721SOL    HW2 2185   1.914   2.768   0.810
  722SOL     OW 2186   2.727   2.210   0.195
  722SOL    HW1 2187   2.786   2.273   0.146
  722SOL    HW2 2188   2.746   2.116   0.166
  723SOL     OW 2189   2.412   2.058   0.885
  723SOL    HW1 2190   2.407   2.053   0.985
  723SOL    HW2 2191   2.414   2.154   0.856
  724SOL     OW 2192   2.064   2.147   1.498
  724SOL    HW1 2193   1.984   2.207   1.485
  724SOL    HW2 2194   2.054   2.098   1.584
  725SOL     OW 2195   2.244   2.562   0.480
  725SOL    HW1 2196   2.289   2.472   0.477
  725SOL    HW2 2197   2.150   2.551   0.513
  726SOL     OW 2198   2.476   1.984   0.117
  726SOL    HW1 2199   2.574   1.962   0.124
  726SOL    HW2 2200   2.445   1.967   0.024
  727SOL     OW 2201   2.643   2.126   1.749
  727SOL    HW1 2202   2.710   2.065   1.792
  727SOL    HW2 2203   2.570   2.145   1.814
  728SOL     OW 2204   2.784   2.365   0.899
  728SOL    HW1 2205   2.759   2.356   0.803
  728SOL    HW2 2206   2.832   2.283   0.930
  729SOL     OW 2207   2.401   1.926   0.512
  729SOL    HW1 2208   2.320   1.927   0.570
  729SOL    HW2 2209   2.404   2.009   0.457
  730SOL     OW 2210   2.797   2.098   0.480
  730SOL    HW1 2211   2.749   2.139   0.402
  730SOL    HW2 2212   2.896   2.096   0.461
  731SOL     OW 2213   1.940   2.418   1.386
  731SOL    HW1 2214   2.032   2.417   1.345
  731SOL    HW2 2215   1.934   2.492   1.453
  732SOL     OW 2216   2.423   2.084   1.147
  732SOL    HW1 2217   2.461   2.000   1.184
  732SOL    HW2 2218   2.335   2.103   1.191
  733SOL     OW 2219   2.879   1.901   0.753
  733SOL    HW1 2220   2.807   1.906   0.684
  733SOL    HW2 2221   2.855   1.832   0.822
  734SOL     OW 2222   2.389   2.118   0.328
  734SOL    HW1 2223   2.416   2.059   0.253
  734SOL    HW2 2224   2.389   2.213   0.297
  735SOL     OW 2225   2.777   1.951   1.402
  735SOL    HW1 2226   2.802   1.931   1.307
  735SOL    HW2 2227   2.849   2.007   1.444
  736SOL     OW 2228   2.842   2.978   1.719
  736SOL    HW1 2229   2.743   2.984   1.729
  736SOL    HW2 2230   2.865   2.898   1.663
  737SOL     OW 2231   2.272   2.675   1.251
  737SOL    HW1 2232   2.358   2.687   1.301
  737SOL    HW2 2233   2.230   2.588   1.278
  738SOL     OW 2234   2.428   2.399   0.865
  738SOL    HW1 2235   2.440   2.465   0.791
  738SOL    HW2 2236   2.474   2.433   0.948
  739SOL     OW 2237   2.264   2.613   1.598
  739SOL    HW1 2238   2.332   2.668   1.551
  739SOL    HW2 2239   2.304   2.525   1.625
  740SOL     OW 2240   2.875   1.967   1.770
  740SOL    HW1 2241   2.881   2.052   1.718
  740SOL    HW2 2242   2.907   1.891   1.713
  741SOL     OW 2243   2.366   1.912   1.740
  741SOL    HW1 2244   2.324   1.855   1.670
  741SOL    HW2 2245   2.300   1.981   1.772
  742SOL     OW 2246   2.435   2.732   1.029
  742SOL    HW1 2247   2.479   2.821   1.020
  742SOL    HW2 2248   2.372   2.732   1.106
  743SOL     OW 2249   3.071   2.387   0.275
  743SOL    HW1 2250   3.084   2.303   0.329
  743SOL    HW2 2251   3.042   2.461   0.335
  744SOL     OW 2252   2.169   2.075   1.231
  744SOL    HW1 2253   2.146   2.112   1.321
  744SOL    HW2 2254   2.139   1.980   1.225
  745SOL     OW 2255   2.594   2.496   1.064
  745SOL    HW1 2256   2.653   2.470   0.988
  745SOL    HW2 2257   2.566   2.592   1.053
  746SOL     OW 2258   2.169   1.925   0.618
  746SOL    HW1 2259   2.158   2.019   0.651
  746SOL    HW2 2260   2.164   1.862   0.695
  747SOL     OW 2261   2.885   2.628   0.966
  747SOL    HW1 2262   2.900   2.649   1.062
  747SOL    HW2 2263   2.855   2.533   0.957
  748SOL     OW 2264   2.212   2.760   1.804
  748SOL    HW1 2265   2.288   2.804   1.852
  748SOL    HW2 2266   2.247   2.713   1.722
  749SOL     OW 2267   2.181   2.672   0.949
  749SOL    HW1 2268   2.274   2.708   0.954
  749SOL    HW2 2269   2.175   2.587   1.001
  750SOL     OW 2270   2.201   2.371   1.006
  750SOL    HW1 2271   2.149   2.288   0.989
  750SOL    HW2 2272   2.278   2.376   0.942
  751SOL     OW 2273   2.864   2.658   1.238
  751SOL    HW1 2274   2.905   2.626   1.324
  751SOL    HW2 2275   2.768   2.631   1.235
  752SOL     OW 2276   1.902   2.406   1.114
  752SOL    HW1 2277   1.987   2.373   1.073
  752SOL    HW2 2278   1.915   2.421   1.212
  753SOL     OW 2279   2.051   2.382   1.722
  753SOL    HW1 2280   2.110   2.342   1.652
  753SOL    HW2 2281   1.993   2.453   1.681
  754SOL     OW 2282   2.677   2.434   0.325
  754SOL    HW1 2283   2.684   2.345   0.279
  754SOL    HW2 2284   2.583   2.468   0.317
  755SOL     OW 2285   2.533   2.326   1.269
  755SOL    HW1 2286   2.499   2.237   1.239
  755SOL    HW2 2287   2.559   2.380   1.189
  756SOL     OW 2288   2.335   2.362   0.191
  756SOL    HW1 2289   2.396   2.442   0.195
  756SOL    HW2 2290   2.240   2.393   0.198
  757SOL     OW 2291   2.021   2.999   1.466
  757SOL    HW1 2292   2.043   2.938   1.542
  757SOL    HW2 2293   2.031   2.950   1.380
  758SOL     OW 2294   3.164   2.717   0.309
  758SOL    HW1 2295   3.078   2.686   0.351
  758SOL    HW2 2296   3.160   2.703   0.210
  759SOL     OW 2297   2.765   1.948   0.133
  759SOL    HW1 2298   2.816   1.949   0.047
  759SOL    HW2 2299   2.821   1.906   0.204
  760SOL     OW 2300   2.125   2.188   0.720
  760SOL    HW1 2301   2.046   2.239   0.686
  760SOL    HW2 2302   2.116   2.173   0.818
  761SOL     OW 2303   2.778   2.772   0.291
  761SOL    HW1 2304   2.841   2.810   0.223
  761SOL    HW2 2305   2.818   2.689   0.330
  762SOL     OW 2306   2.876   2.098   0.971
  762SOL    HW1 2307   2.868   2.062   0.878
  762SOL    HW2 2308   2.874   2.022   1.036
  763SOL     OW 2309   1.967   2.875   1.726
  763SOL    HW1 2310   1.890   2.842   1.780
  763SOL    HW2 2311   2.052   2.845   1.768
  764SOL     OW 2312   2.534   2.065   1.489
  764SOL    HW1 2313   2.624   2.049   1.449
  764SOL    HW2 2314   2.542   2.070   1.588
  765SOL     OW 2315   1.937   2.207   0.033
  765SOL    HW1 2316   1.845   2.179   0.004
  765SOL    HW2 2317   1.968   2.284  -0.023
  766SOL     OW 2318   2.475   2.704   1.431
  766SOL    HW1 2319   2.531   2.785   1.414
  766SOL    HW2 2320   2.534   2.624   1.434
  767SOL     OW 2321   2.578   2.427   1.708
  767SOL    HW1 2322   2.597   2.492   1.782
  767SOL    HW2 2323   2.638   2.347   1.717
  768SOL     OW 2324   3.087   2.187   0.449
  768SOL    HW1 2325   3.152   2.113   0.438
  768SOL    HW2 2326   3.107   2.237   0.533
  769SOL     OW 2327   2.456   2.607   0.652
  769SOL    HW1 2328   2.506   2.692   0.633
  769SOL    HW2 2329   2.368   2.609   0.604
  770SOL     OW 2330   2.721   2.818   0.861
  770SOL    HW1 2331   2.775   2.749   0.909
  770SOL    HW2 2332   2.689   2.887   0.927
  771SOL     OW 2333   2.945   2.846   0.087
  771SOL    HW1 2334   2.922   2.899   0.005
  771SOL    HW2 2335   3.026   2.790   0.068
  772SOL     OW 2336   1.941   3.102   0.653
  772SOL    HW1 2337   1.940   3.055   0.741
  772SOL    HW2 2338   2.023   3.074   0.602
  773SOL     OW 2339   2.290   2.286   0.520
  773SOL    HW1 2340   2.320   2.214   0.458
  773SOL    HW2 2341   2.251   2.246   0.603
  774SOL     OW 2342   2.179   2.409   1.280
  774SOL    HW1 2343   2.217   2.350   1.352
  774SOL    HW2 2344   2.219   2.383   1.192
  775SOL     OW 2345   2.863   1.896   1.154
  775SOL    HW1 2346   2.800   1.824   1.123
  775SOL    HW2 2347   2.956   1.860   1.154
  776SOL     OW 2348   1.901   2.939   0.300
  776SOL    HW1 2349   2.000   2.928   0.291
  776SOL    HW2 2350   1.861   2.853   0.332
  777SOL     OW 2351   2.092   2.490   1.975
  777SOL    HW1 2352   1.999   2.488   2.012
  777SOL    HW2 2353   2.093   2.451   1.883
  778SOL     OW 2354   2.087   2.137   2.858
  778SOL    HW1 2355   2.122   2.120   2.950
  778SOL    HW2 2356   1.999   2.092   2.846
  779SOL     OW 2357   1.881   2.230   2.509
  779SOL    HW1 2358   1.799   2.273   2.548
  779SOL    HW2 2359   1.853   2.157   2.446
  780SOL     OW 2360   2.547   2.874   2.527
  780SOL    HW1 2361   2.616   2.858   2.597
  780SOL    HW2 2362   2.474   2.931   2.565
  781SOL     OW 2363   2.102   2.953   2.748
  781SOL    HW1 2364   2.116   2.869   2.800
  781SOL    HW2 2365   2.047   3.017   2.803
  782SOL     OW 2366   1.984   2.505   2.425
  782SOL    HW1 2367   1.939   2.417   2.442
  782SOL    HW2 2368   1.983   2.559   2.509
  783SOL     OW 2369   2.671   1.866   2.364
  783SOL    HW1 2370   2.711   1.957   2.355
  783SOL    HW2 2371   2.571   1.874   2.370
  784SOL     OW 2372   2.460   2.591   2.132
  784SOL    HW1 2373   2.484   2.660   2.064
  784SOL    HW2 2374   2.382   2.624   2.186
  785SOL     OW 2375   1.938   2.673   2.651
  785SOL    HW1 2376   2.037   2.661   2.660
  785SOL    HW2 2377   1.914   2.768   2.672
  786SOL     OW 2378   2.727   2.210   2.057
  786SOL    HW1 2379   2.786   2.273   2.008
  786SOL    HW2 2380   2.746   2.116   2.028
  787SOL     OW 2381   2.412   2.058   2.747
  787SOL    HW1 2382   2.407   2.053   2.847
  787SOL    HW2 2383   2.414   2.154   2.718
  788SOL     OW 2384   2.244   2.562   2.342
  788SOL    HW1 2385   2.289   2.472   2.339
  788SOL    HW2 2386   2.150   2.551   2.375
  789SOL     OW 2387   2.476   1.984   1.979
  789SOL    HW1 2388   2.574   1.962   1.986
  789SOL    HW2 2389   2.445   1.967   1.886
  790SOL     OW 2390   2.784   2.365   2.761
  790SOL    HW1 2391   2.759   2.356   2.665
  790SOL    HW2 2392   2.832   2.283   2.792
  791SOL     OW 2393   2.401   1.926   2.374
  791SOL    HW1 2394   2.320   1.927   2.432
  791SOL    HW2 2395   2.404   2.009   2.319
  792SOL     OW 2396   2.159   1.897   2.033
  792SOL    HW1 2397   2.208   1.981   2.012
  792SOL    HW2 2398   2.221   1.832   2.078
  793SOL     OW 2399   2.797   2.098   2.342
  793SOL    HW1 2400   2.749   2.139   2.264
  793SOL    HW2 2401   2.896   2.096   2.323
  794SOL     OW 2402   2.879   1.901   2.615
  794SOL    HW1 2403   2.807   1.906   2.546
  794SOL    HW2 2404   2.855   1.832   2.684
  795SOL     OW 2405   2.389   2.118   2.190
  795SOL    HW1 2406   2.416   2.059   2.115
  795SOL    HW2 2407   2.389   2.213   2.159
  796SOL     OW 2408   2.973   3.057   2.962
  796SOL    HW1 2409   2.933   3.101   3.043
  796SOL    HW2 2410   2.932   3.094   2.879
  797SOL     OW 2411   2.428   2.399   2.727
  797SOL    HW1 2412   2.440   2.465   2.653
  797SOL    HW2 2413   2.474   2.433   2.810
  798SOL     OW 2414   2.435   2.732   2.891
  798SOL    HW1 2415   2.479   2.821   2.882
  798SOL    HW2 2416   2.372   2.732   2.968
  799SOL     OW 2417   3.071   2.387   2.137
  799SOL    HW1 2418   3.084   2.303   2.191
  799SOL    HW2 2419   3.042   2.461   2.197
  800SOL     OW 2420   2.169   2.075   3.093
  800SOL    HW1 2421   2.146   2.112   3.183
  800SOL    HW2 2422   2.139   1.980   3.087
  801SOL     OW 2423   2.594   2.496   2.926
  801SOL    HW1 2424   2.653   2.470   2.850
  801SOL    HW2 2425   2.566   2.592   2.915
  802SOL     OW 2426   2.169   1.925   2.480
  802SOL    HW1 2427   2.158   2.019   2.513
  802SOL    HW2 2428   2.164   1.862   2.557
  803SOL     OW 2429   2.885   2.628   2.828
  803SOL    HW1 2430   2.900   2.649   2.924
  803SOL    HW2 2431   2.855   2.533   2.819
  804SOL     OW 2432   2.181   2.672   2.811
  804SOL    HW1 2433   2.274   2.708   2.816
  804SOL    HW2 2434   2.175   2.587   2.863
  805SOL     OW 2435   2.201   2.371   2.868
  805SOL    HW1 2436   2.149   2.288   2.851
  805SOL    HW2 2437   2.278   2.376   2.804
  806SOL     OW 2438   2.677   2.434   2.187
  806SOL    HW1 2439   2.684   2.345   2.141
  806SOL    HW2 2440   2.583   2.468   2.179
  807SOL     OW 2441   2.533   2.326   3.131
  807SOL    HW1 2442   2.499   2.237   3.101
  807SOL    HW2 2443   2.559   2.380   3.051
  808SOL     OW 2444   2.335   2.362   2.053
  808SOL    HW1 2445   2.396   2.442   2.057
  808SOL    HW2 2446   2.240   2.393   2.060
  809SOL     OW 2447   3.164   2.717   2.171
  809SOL    HW1 2448   3.078   2.686   2.213
  809SOL    HW2 2449   3.160   2.703   2.072
  810SOL     OW 2450   2.125   2.188   2.582
  810SOL    HW1 2451   2.046   2.239   2.548
  810SOL    HW2 2452   2.116   2.173   2.680
  811SOL     OW 2453   2.778   2.772   2.153
  811SOL    HW1 2454   2.841   2.810   2.085
  811SOL    HW2 2455   2.818   2.689   2.192
  812SOL     OW 2456   1.937   2.207   1.895
  812SOL    HW1 2457   1.845   2.179   1.866
  812SOL    HW2 2458   1.968   2.284   1.839
  813SOL     OW 2459   1.934   2.028   2.180
  813SOL    HW1 2460   1.917   2.111   2.126
  813SOL    HW2 2461   2.024   1.991   2.158
  814SOL     OW 2462   3.087   2.187   2.311
  814SOL    HW1 2463   3.152   2.113   2.300
  814SOL    HW2 2464   3.107   2.237   2.395
  815SOL     OW 2465   2.456   2.607   2.514
  815SOL    HW1 2466   2.506   2.692   2.495
  815SOL    HW2 2467   2.368   2.609   2.466
  816SOL     OW 2468   2.721   2.818   2.723
  816SOL    HW1 2469   2.775   2.749   2.771
  816SOL    HW2 2470   2.689   2.887   2.789
  817SOL     OW 2471   1.941   3.102   2.515
  817SOL    HW1 2472   1.940   3.055   2.603
  817SOL    HW2 2473   2.023   3.074   2.464
  818SOL     OW 2474   2.290   2.286   2.382
  818SOL    HW1 2475   2.320   2.214   2.320
  818SOL    HW2 2476   2.251   2.246   2.465
   2.93009   2.93009   2.93009
