; mobley_4936555_GMX.itp created by acpype (v: 2023.10.27) on Thu May 14 13:53:55 2026

[ atomtypes ]
;name   bond_type     mass     charge   ptype   sigma         epsilon       Amb
 ca       ca          0.00000  0.00000   A     3.31521e-01   4.13379e-01 ; 1.86  0.0988
 c        c           0.00000  0.00000   A     3.31521e-01   4.13379e-01 ; 1.86  0.0988
 c3       c3          0.00000  0.00000   A     3.39771e-01   4.51035e-01 ; 1.91  0.1078
 nu       nu          0.00000  0.00000   A     3.27904e-01   6.46428e-01 ; 1.84  0.1545
 o        o           0.00000  0.00000   A     3.04812e-01   6.12119e-01 ; 1.71  0.1463
 oh       oh          0.00000  0.00000   A     3.24287e-01   3.89112e-01 ; 1.82  0.0930
 ha       ha          0.00000  0.00000   A     2.62548e-01   6.73624e-02 ; 1.47  0.0161
 hc       hc          0.00000  0.00000   A     2.60018e-01   8.70272e-02 ; 1.46  0.0208
 hn       hn          0.00000  0.00000   A     1.10650e-01   4.18400e-02 ; 0.62  0.0100
 ho       ho          0.00000  0.00000   A     5.37925e-02   1.96648e-02 ; 0.30  0.0047

[ moleculetype ]
;name            nrexcl
 mobley_4936555   3

[ atoms ]
;   nr  type  resi  res  atom  cgnr     charge      mass       ; qtot   bond_type
     1   ca     1   MOL    C1    1    -0.204000     12.01000 ; qtot -0.204
     2   ca     1   MOL    C2    2    -0.050000     12.01000 ; qtot -0.254
     3   ca     1   MOL    C3    3    -0.113000     12.01000 ; qtot -0.367
     4   ca     1   MOL    C4    4    -0.028000     12.01000 ; qtot -0.395
     5   ca     1   MOL    C5    5    -0.144000     12.01000 ; qtot -0.539
     6   ca     1   MOL    C6    6    -0.222000     12.01000 ; qtot -0.761
     7   ca     1   MOL    C7    7    -0.159000     12.01000 ; qtot -0.920
     8   ca     1   MOL    C8    8    -0.227600     12.01000 ; qtot -1.148
     9   ca     1   MOL    C9    9    -0.055300     12.01000 ; qtot -1.203
    10   ca     1   MOL   C10   10    -0.100300     12.01000 ; qtot -1.303
    11   ca     1   MOL   C11   11     0.263600     12.01000 ; qtot -1.040
    12   ca     1   MOL   C12   12     0.146600     12.01000 ; qtot -0.893
    13    c     1   MOL   C13   13     0.666700     12.01000 ; qtot -0.226
    14   c3     1   MOL   C14   14    -0.054800     12.01000 ; qtot -0.281
    15   c3     1   MOL   C15   15    -0.059800     12.01000 ; qtot -0.341
    16   nu     1   MOL    N1   16    -0.654000     14.01000 ; qtot -0.995
    17    o     1   MOL    O1   17    -0.592000     16.00000 ; qtot -1.587
    18   oh     1   MOL    O2   18    -0.607100     16.00000 ; qtot -2.194
    19   ha     1   MOL    H1   19     0.139000      1.00800 ; qtot -2.055
    20   ha     1   MOL    H2   20     0.135000      1.00800 ; qtot -1.920
    21   ha     1   MOL    H3   21     0.134000      1.00800 ; qtot -1.786
    22   ha     1   MOL    H4   22     0.153000      1.00800 ; qtot -1.633
    23   ha     1   MOL    H5   23     0.133000      1.00800 ; qtot -1.500
    24   ha     1   MOL    H6   24     0.150000      1.00800 ; qtot -1.350
    25   ha     1   MOL    H7   25     0.143000      1.00800 ; qtot -1.207
    26   hc     1   MOL    H8   26     0.046033      1.00800 ; qtot -1.161
    27   hc     1   MOL    H9   27     0.046033      1.00800 ; qtot -1.115
    28   hc     1   MOL   H10   28     0.046033      1.00800 ; qtot -1.069
    29   hc     1   MOL   H11   29     0.049367      1.00800 ; qtot -1.020
    30   hc     1   MOL   H12   30     0.049367      1.00800 ; qtot -0.970
    31   hc     1   MOL   H13   31     0.049367      1.00800 ; qtot -0.921
    32   hn     1   MOL   H14   32     0.474800      1.00800 ; qtot -0.446
    33   ho     1   MOL   H15   33     0.446000      1.00800 ; qtot 0.000

[ bonds ]
;   ai     aj funct   r             k
     1      2   1    1.3986e-01    2.9644e+05 ;     C1 - C2    
     1      4   1    1.3986e-01    2.9644e+05 ;     C1 - C4    
     1     19   1    1.0860e-01    3.0183e+05 ;     C1 - H1    
     2      6   1    1.3986e-01    2.9644e+05 ;     C2 - C6    
     2     20   1    1.0860e-01    3.0183e+05 ;     C2 - H2    
     3      5   1    1.3986e-01    2.9644e+05 ;     C3 - C5    
     3      7   1    1.3986e-01    2.9644e+05 ;     C3 - C7    
     3     21   1    1.0860e-01    3.0183e+05 ;     C3 - H3    
     4      8   1    1.3986e-01    2.9644e+05 ;     C4 - C8    
     4     22   1    1.0860e-01    3.0183e+05 ;     C4 - H4    
     5      9   1    1.3986e-01    2.9644e+05 ;     C5 - C9    
     5     23   1    1.0860e-01    3.0183e+05 ;     C5 - H5    
     6     11   1    1.3986e-01    2.9644e+05 ;     C6 - C11   
     6     24   1    1.0860e-01    3.0183e+05 ;     C6 - H6    
     7     12   1    1.3986e-01    2.9644e+05 ;     C7 - C12   
     7     25   1    1.0860e-01    3.0183e+05 ;     C7 - H7    
     8     11   1    1.3986e-01    2.9644e+05 ;     C8 - C11   
     8     13   1    1.4907e-01    2.1994e+05 ;     C8 - C13   
     9     10   1    1.3986e-01    2.9644e+05 ;     C9 - C10   
     9     14   1    1.5147e-01    2.0410e+05 ;     C9 - C14   
    10     12   1    1.3986e-01    2.9644e+05 ;    C10 - C12   
    10     15   1    1.5147e-01    2.0410e+05 ;    C10 - C15   
    11     16   1    1.3944e-01    2.6771e+05 ;    C11 - N1    
    12     16   1    1.3944e-01    2.6771e+05 ;    C12 - N1    
    13     17   1    1.2190e-01    4.9421e+05 ;    C13 - O1    
    13     18   1    1.3556e-01    3.0064e+05 ;    C13 - O2    
    14     26   1    1.0962e-01    2.8891e+05 ;    C14 - H8    
    14     27   1    1.0962e-01    2.8891e+05 ;    C14 - H9    
    14     28   1    1.0962e-01    2.8891e+05 ;    C14 - H10   
    15     29   1    1.0962e-01    2.8891e+05 ;    C15 - H11   
    15     30   1    1.0962e-01    2.8891e+05 ;    C15 - H12   
    15     31   1    1.0962e-01    2.8891e+05 ;    C15 - H13   
    16     32   1    1.0137e-01    3.9538e+05 ;     N1 - H14   
    18     33   1    9.7250e-02    4.4811e+05 ;     O2 - H15   

[ pairs ]
;   ai     aj    funct
     1     11      1 ;     C1 - C11   
     1     13      1 ;     C1 - C13   
     1     24      1 ;     C1 - H6    
     2      8      1 ;     C2 - C8    
     2     16      1 ;     C2 - N1    
     2     22      1 ;     C2 - H4    
     3     10      1 ;     C3 - C10   
     3     14      1 ;     C3 - C14   
     3     16      1 ;     C3 - N1    
     4      6      1 ;     C4 - C6    
     4     16      1 ;     C4 - N1    
     4     17      1 ;     C4 - O1    
     4     18      1 ;     C4 - O2    
     4     20      1 ;     C4 - H2    
     5     12      1 ;     C5 - C12   
     5     15      1 ;     C5 - C15   
     5     25      1 ;     C5 - H7    
     5     26      1 ;     C5 - H8    
     5     27      1 ;     C5 - H9    
     5     28      1 ;     C5 - H10   
     6     12      1 ;     C6 - C12   
     6     13      1 ;     C6 - C13   
     6     32      1 ;     C6 - H14   
     7      9      1 ;     C7 - C9    
     7     11      1 ;     C7 - C11   
     7     15      1 ;     C7 - C15   
     7     23      1 ;     C7 - H5    
     7     32      1 ;     C7 - H14   
     8     12      1 ;     C8 - C12   
     8     24      1 ;     C8 - H6    
     8     32      1 ;     C8 - H14   
     8     33      1 ;     C8 - H15   
     9     16      1 ;     C9 - N1    
     9     21      1 ;     C9 - H3    
     9     29      1 ;     C9 - H11   
     9     30      1 ;     C9 - H12   
     9     31      1 ;     C9 - H13   
    10     11      1 ;    C10 - C11   
    10     23      1 ;    C10 - H5    
    10     25      1 ;    C10 - H7    
    10     26      1 ;    C10 - H8    
    10     27      1 ;    C10 - H9    
    10     28      1 ;    C10 - H10   
    10     32      1 ;    C10 - H14   
    11     17      1 ;    C11 - O1    
    11     18      1 ;    C11 - O2    
    11     20      1 ;    C11 - H2    
    11     22      1 ;    C11 - H4    
    12     14      1 ;    C12 - C14   
    12     21      1 ;    C12 - H3    
    12     29      1 ;    C12 - H11   
    12     30      1 ;    C12 - H12   
    12     31      1 ;    C12 - H13   
    13     16      1 ;    C13 - N1    
    13     22      1 ;    C13 - H4    
    14     15      1 ;    C14 - C15   
    14     23      1 ;    C14 - H5    
    15     16      1 ;    C15 - N1    
    16     24      1 ;     N1 - H6    
    16     25      1 ;     N1 - H7    
    17     33      1 ;     O1 - H15   
    19      6      1 ;     H1 - C6    
    19      8      1 ;     H1 - C8    
    19     20      1 ;     H1 - H2    
    19     22      1 ;     H1 - H4    
    20     24      1 ;     H2 - H6    
    21     23      1 ;     H3 - H5    
    21     25      1 ;     H3 - H7    

[ angles ]
;   ai     aj     ak    funct   theta         cth
     1      2      6      1    1.2002e+02    5.3279e+02 ;     C1 - C2     - C6    
     1      2     20      1    1.1988e+02    3.7572e+02 ;     C1 - C2     - H2    
     1      4      8      1    1.2002e+02    5.3279e+02 ;     C1 - C4     - C8    
     1      4     22      1    1.1988e+02    3.7572e+02 ;     C1 - C4     - H4    
     2      1      4      1    1.2002e+02    5.3279e+02 ;     C2 - C1     - C4    
     2      1     19      1    1.1988e+02    3.7572e+02 ;     C2 - C1     - H1    
     2      6     11      1    1.2002e+02    5.3279e+02 ;     C2 - C6     - C11   
     2      6     24      1    1.1988e+02    3.7572e+02 ;     C2 - C6     - H6    
     3      5      9      1    1.2002e+02    5.3279e+02 ;     C3 - C5     - C9    
     3      5     23      1    1.1988e+02    3.7572e+02 ;     C3 - C5     - H5    
     3      7     12      1    1.2002e+02    5.3279e+02 ;     C3 - C7     - C12   
     3      7     25      1    1.1988e+02    3.7572e+02 ;     C3 - C7     - H7    
     4      1     19      1    1.1988e+02    3.7572e+02 ;     C4 - C1     - H1    
     4      8     11      1    1.2002e+02    5.3279e+02 ;     C4 - C8     - C11   
     4      8     13      1    1.2033e+02    5.1413e+02 ;     C4 - C8     - C13   
     5      3      7      1    1.2002e+02    5.3279e+02 ;     C5 - C3     - C7    
     5      3     21      1    1.1988e+02    3.7572e+02 ;     C5 - C3     - H3    
     5      9     10      1    1.2002e+02    5.3279e+02 ;     C5 - C9     - C10   
     5      9     14      1    1.2083e+02    5.0827e+02 ;     C5 - C9     - C14   
     6      2     20      1    1.1988e+02    3.7572e+02 ;     C6 - C2     - H2    
     6     11      8      1    1.2002e+02    5.3279e+02 ;     C6 - C11    - C8    
     6     11     16      1    1.2074e+02    5.6476e+02 ;     C6 - C11    - N1    
     7      3     21      1    1.1988e+02    3.7572e+02 ;     C7 - C3     - H3    
     7     12     10      1    1.2002e+02    5.3279e+02 ;     C7 - C12    - C10   
     7     12     16      1    1.2074e+02    5.6476e+02 ;     C7 - C12    - N1    
     8      4     22      1    1.1988e+02    3.7572e+02 ;     C8 - C4     - H4    
     8     11     16      1    1.2074e+02    5.6476e+02 ;     C8 - C11    - N1    
     8     13     17      1    1.2260e+02    6.5237e+02 ;     C8 - C13    - O1    
     8     13     18      1    1.1345e+02    6.5580e+02 ;     C8 - C13    - O2    
     9      5     23      1    1.1988e+02    3.7572e+02 ;     C9 - C5     - H5    
     9     10     12      1    1.2002e+02    5.3279e+02 ;     C9 - C10    - C12   
     9     10     15      1    1.2083e+02    5.0827e+02 ;     C9 - C10    - C15   
     9     14     26      1    1.1063e+02    3.6493e+02 ;     C9 - C14    - H8    
     9     14     27      1    1.1063e+02    3.6493e+02 ;     C9 - C14    - H9    
     9     14     28      1    1.1063e+02    3.6493e+02 ;     C9 - C14    - H10   
    10      9     14      1    1.2083e+02    5.0827e+02 ;    C10 - C9     - C14   
    10     12     16      1    1.2074e+02    5.6476e+02 ;    C10 - C12    - N1    
    10     15     29      1    1.1063e+02    3.6493e+02 ;    C10 - C15    - H11   
    10     15     30      1    1.1063e+02    3.6493e+02 ;    C10 - C15    - H12   
    10     15     31      1    1.1063e+02    3.6493e+02 ;    C10 - C15    - H13   
    11      6     24      1    1.1988e+02    3.7572e+02 ;    C11 - C6     - H6    
    11      8     13      1    1.2033e+02    5.1413e+02 ;    C11 - C8     - C13   
    11     16     12      1    1.3028e+02    6.3396e+02 ;    C11 - N1     - C12   
    11     16     32      1    1.1473e+02    4.8083e+02 ;    C11 - N1     - H14   
    12      7     25      1    1.1988e+02    3.7572e+02 ;    C12 - C7     - H7    
    12     10     15      1    1.2083e+02    5.0827e+02 ;    C12 - C10    - C15   
    12     16     32      1    1.1473e+02    4.8083e+02 ;    C12 - N1     - H14   
    13     18     33      1    1.0654e+02    5.7287e+02 ;    C13 - O2     - H15   
    17     13     18      1    1.2209e+02    8.5379e+02 ;     O1 - C13    - O2    
    26     14     27      1    1.0773e+02    2.9957e+02 ;     H8 - C14    - H9    
    26     14     28      1    1.0773e+02    2.9957e+02 ;     H8 - C14    - H10   
    27     14     28      1    1.0773e+02    2.9957e+02 ;     H9 - C14    - H10   
    29     15     30      1    1.0773e+02    2.9957e+02 ;    H11 - C15    - H12   
    29     15     31      1    1.0773e+02    2.9957e+02 ;    H11 - C15    - H13   
    30     15     31      1    1.0773e+02    2.9957e+02 ;    H12 - C15    - H13   

[ dihedrals ] ; propers
; for gromacs 4.5 or higher, using funct 9
;    i      j      k      l   func   phase     kd      pn
     1      2      6     11      9   180.00  15.16700   2 ;     C1-    C2-    C6-   C11
     1      2      6     24      9   180.00  15.16700   2 ;     C1-    C2-    C6-    H6
     1      4      8     11      9   180.00  15.16700   2 ;     C1-    C4-    C8-   C11
     1      4      8     13      9   180.00  15.16700   2 ;     C1-    C4-    C8-   C13
     2      1      4      8      9   180.00  15.16700   2 ;     C2-    C1-    C4-    C8
     2      1      4     22      9   180.00  15.16700   2 ;     C2-    C1-    C4-    H4
     2      6     11      8      9   180.00  15.16700   2 ;     C2-    C6-   C11-    C8
     2      6     11     16      9   180.00  15.16700   2 ;     C2-    C6-   C11-    N1
     3      5      9     10      9   180.00  15.16700   2 ;     C3-    C5-    C9-   C10
     3      5      9     14      9   180.00  15.16700   2 ;     C3-    C5-    C9-   C14
     3      7     12     10      9   180.00  15.16700   2 ;     C3-    C7-   C12-   C10
     3      7     12     16      9   180.00  15.16700   2 ;     C3-    C7-   C12-    N1
     4      1      2      6      9   180.00  15.16700   2 ;     C4-    C1-    C2-    C6
     4      1      2     20      9   180.00  15.16700   2 ;     C4-    C1-    C2-    H2
     4      8     11      6      9   180.00  15.16700   2 ;     C4-    C8-   C11-    C6
     4      8     11     16      9   180.00  15.16700   2 ;     C4-    C8-   C11-    N1
     4      8     13     17      9   180.00   2.42672   2 ;     C4-    C8-   C13-    O1
     4      8     13     18      9   180.00   4.18400   2 ;     C4-    C8-   C13-    O2
     5      3      7     12      9   180.00  15.16700   2 ;     C5-    C3-    C7-   C12
     5      3      7     25      9   180.00  15.16700   2 ;     C5-    C3-    C7-    H7
     5      9     10     12      9   180.00  15.16700   2 ;     C5-    C9-   C10-   C12
     5      9     10     15      9   180.00  15.16700   2 ;     C5-    C9-   C10-   C15
     5      9     14     26      9     0.00   0.00000   0 ;     C5-    C9-   C14-    H8
     5      9     14     27      9     0.00   0.00000   0 ;     C5-    C9-   C14-    H9
     5      9     14     28      9     0.00   0.00000   0 ;     C5-    C9-   C14-   H10
     6     11      8     13      9   180.00  15.16700   2 ;     C6-   C11-    C8-   C13
     6     11     16     12      9   180.00   3.34720   2 ;     C6-   C11-    N1-   C12
     6     11     16     32      9   180.00   4.39320   2 ;     C6-   C11-    N1-   H14
     7      3      5      9      9   180.00  15.16700   2 ;     C7-    C3-    C5-    C9
     7      3      5     23      9   180.00  15.16700   2 ;     C7-    C3-    C5-    H5
     7     12     10      9      9   180.00  15.16700   2 ;     C7-   C12-   C10-    C9
     7     12     10     15      9   180.00  15.16700   2 ;     C7-   C12-   C10-   C15
     7     12     16     11      9   180.00   3.34720   2 ;     C7-   C12-    N1-   C11
     7     12     16     32      9   180.00   4.39320   2 ;     C7-   C12-    N1-   H14
     8     11      6     24      9   180.00  15.16700   2 ;     C8-   C11-    C6-    H6
     8     11     16     12      9   180.00   3.34720   2 ;     C8-   C11-    N1-   C12
     8     11     16     32      9   180.00   4.39320   2 ;     C8-   C11-    N1-   H14
     8     13     18     33      9   180.00   9.62320   2 ;     C8-   C13-    O2-   H15
     9      5      3     21      9   180.00  15.16700   2 ;     C9-    C5-    C3-    H3
     9     10     12     16      9   180.00  15.16700   2 ;     C9-   C10-   C12-    N1
     9     10     15     29      9     0.00   0.00000   0 ;     C9-   C10-   C15-   H11
     9     10     15     30      9     0.00   0.00000   0 ;     C9-   C10-   C15-   H12
     9     10     15     31      9     0.00   0.00000   0 ;     C9-   C10-   C15-   H13
    10      9      5     23      9   180.00  15.16700   2 ;    C10-    C9-    C5-    H5
    10      9     14     26      9     0.00   0.00000   0 ;    C10-    C9-   C14-    H8
    10      9     14     27      9     0.00   0.00000   0 ;    C10-    C9-   C14-    H9
    10      9     14     28      9     0.00   0.00000   0 ;    C10-    C9-   C14-   H10
    10     12      7     25      9   180.00  15.16700   2 ;    C10-   C12-    C7-    H7
    10     12     16     11      9   180.00   3.34720   2 ;    C10-   C12-    N1-   C11
    10     12     16     32      9   180.00   4.39320   2 ;    C10-   C12-    N1-   H14
    11      6      2     20      9   180.00  15.16700   2 ;    C11-    C6-    C2-    H2
    11      8      4     22      9   180.00  15.16700   2 ;    C11-    C8-    C4-    H4
    11      8     13     17      9   180.00   2.42672   2 ;    C11-    C8-   C13-    O1
    11      8     13     18      9   180.00   4.18400   2 ;    C11-    C8-   C13-    O2
    12      7      3     21      9   180.00  15.16700   2 ;    C12-    C7-    C3-    H3
    12     10      9     14      9   180.00  15.16700   2 ;    C12-   C10-    C9-   C14
    12     10     15     29      9     0.00   0.00000   0 ;    C12-   C10-   C15-   H11
    12     10     15     30      9     0.00   0.00000   0 ;    C12-   C10-   C15-   H12
    12     10     15     31      9     0.00   0.00000   0 ;    C12-   C10-   C15-   H13
    13      8      4     22      9   180.00  15.16700   2 ;    C13-    C8-    C4-    H4
    13      8     11     16      9   180.00  15.16700   2 ;    C13-    C8-   C11-    N1
    14      9      5     23      9   180.00  15.16700   2 ;    C14-    C9-    C5-    H5
    14      9     10     15      9   180.00  15.16700   2 ;    C14-    C9-   C10-   C15
    15     10     12     16      9   180.00  15.16700   2 ;    C15-   C10-   C12-    N1
    16     11      6     24      9   180.00  15.16700   2 ;     N1-   C11-    C6-    H6
    16     12      7     25      9   180.00  15.16700   2 ;     N1-   C12-    C7-    H7
    17     13     18     33      9     0.00   7.94960   1 ;     O1-   C13-    O2-   H15
    17     13     18     33      9   180.00   9.62320   2 ;     O1-   C13-    O2-   H15
    19      1      2      6      9   180.00  15.16700   2 ;     H1-    C1-    C2-    C6
    19      1      2     20      9   180.00  15.16700   2 ;     H1-    C1-    C2-    H2
    19      1      4      8      9   180.00  15.16700   2 ;     H1-    C1-    C4-    C8
    19      1      4     22      9   180.00  15.16700   2 ;     H1-    C1-    C4-    H4
    20      2      6     24      9   180.00  15.16700   2 ;     H2-    C2-    C6-    H6
    21      3      5     23      9   180.00  15.16700   2 ;     H3-    C3-    C5-    H5
    21      3      7     25      9   180.00  15.16700   2 ;     H3-    C3-    C7-    H7

[ dihedrals ] ; impropers
; treated as propers in GROMACS to use correct AMBER analytical function
;    i      j      k      l   func   phase     kd      pn
     1      6      2     20      4   180.00   4.60240   2 ;     C1-    C6-    C2-    H2
     1      8      4     22      4   180.00   4.60240   2 ;     C1-    C8-    C4-    H4
     2     11      6     24      4   180.00   4.60240   2 ;     C2-   C11-    C6-    H6
     3      9      5     23      4   180.00   4.60240   2 ;     C3-    C9-    C5-    H5
     3     12      7     25      4   180.00   4.60240   2 ;     C3-   C12-    C7-    H7
     5      7      3     21      4   180.00   4.60240   2 ;     C5-    C7-    C3-    H3
     5     10      9     14      4   180.00   4.60240   2 ;     C5-   C10-    C9-   C14
     6      8     11     16      4   180.00   4.60240   2 ;     C6-    C8-   C11-    N1
     7     10     12     16      4   180.00   4.60240   2 ;     C7-   C10-   C12-    N1
     8     17     13     18      4   180.00   4.60240   2 ;     C8-    O1-   C13-    O2
    11     12     16     32      4   180.00   4.60240   2 ;    C11-   C12-    N1-   H14
    13      4      8     11      4   180.00   4.60240   2 ;    C13-    C4-    C8-   C11
    15      9     10     12      4   180.00   4.60240   2 ;    C15-    C9-   C10-   C12
    19      1      4      2      4   180.00   4.60240   2 ;     H1-    C1-    C4-    C2
