; mobley_6981465_GMX.itp created by acpype (v: 2023.10.27) on Thu May 14 13:17:17 2026

[ atomtypes ]
;name   bond_type     mass     charge   ptype   sigma         epsilon       Amb
 c        c           0.00000  0.00000   A     3.31521e-01   4.13379e-01 ; 1.86  0.0988
 c3       c3          0.00000  0.00000   A     3.39771e-01   4.51035e-01 ; 1.91  0.1078
 o        o           0.00000  0.00000   A     3.04812e-01   6.12119e-01 ; 1.71  0.1463
 os       os          0.00000  0.00000   A     3.15610e-01   3.03758e-01 ; 1.77  0.0726
 hc       hc          0.00000  0.00000   A     2.60018e-01   8.70272e-02 ; 1.46  0.0208
 h1       h1          0.00000  0.00000   A     2.42200e-01   8.70272e-02 ; 1.36  0.0208

[ moleculetype ]
;name            nrexcl
 mobley_6981465   3

[ atoms ]
;   nr  type  resi  res  atom  cgnr     charge      mass       ; qtot   bond_type
     1    c     1   MOL    C1    1     0.631099     12.01000 ; qtot 0.631
     2   c3     1   MOL    C2    2    -0.151100     12.01000 ; qtot 0.480
     3   c3     1   MOL    C3    3    -0.108100     12.01000 ; qtot 0.372
     4   c3     1   MOL    C4    4    -0.108100     12.01000 ; qtot 0.264
     5   c3     1   MOL    C5    5     0.148100     12.01000 ; qtot 0.412
     6    o     1   MOL    O1    6    -0.549000     16.00000 ; qtot -0.137
     7   os     1   MOL    O2    7    -0.444900     16.00000 ; qtot -0.582
     8   hc     1   MOL    H1    8     0.075033      1.00800 ; qtot -0.507
     9   hc     1   MOL    H2    9     0.075033      1.00800 ; qtot -0.432
    10   hc     1   MOL    H3   10     0.075033      1.00800 ; qtot -0.357
    11   hc     1   MOL    H4   11     0.047867      1.00800 ; qtot -0.309
    12   hc     1   MOL    H5   12     0.047867      1.00800 ; qtot -0.261
    13   hc     1   MOL    H6   13     0.047867      1.00800 ; qtot -0.213
    14   hc     1   MOL    H7   14     0.047867      1.00800 ; qtot -0.165
    15   hc     1   MOL    H8   15     0.047867      1.00800 ; qtot -0.118
    16   hc     1   MOL    H9   16     0.047867      1.00800 ; qtot -0.070
    17   h1     1   MOL   H10   17     0.069700      1.00800 ; qtot 0.000

[ bonds ]
;   ai     aj funct   r             k
     1      2   1    1.5270e-01    1.9652e+05 ;     C1 - C2    
     1      6   1    1.2190e-01    4.9421e+05 ;     C1 - O1    
     1      7   1    1.3621e-01    2.9398e+05 ;     C1 - O2    
     2      8   1    1.0962e-01    2.8891e+05 ;     C2 - H1    
     2      9   1    1.0962e-01    2.8891e+05 ;     C2 - H2    
     2     10   1    1.0962e-01    2.8891e+05 ;     C2 - H3    
     3      5   1    1.5354e-01    1.9154e+05 ;     C3 - C5    
     3     11   1    1.0962e-01    2.8891e+05 ;     C3 - H4    
     3     12   1    1.0962e-01    2.8891e+05 ;     C3 - H5    
     3     13   1    1.0962e-01    2.8891e+05 ;     C3 - H6    
     4      5   1    1.5354e-01    1.9154e+05 ;     C4 - C5    
     4     14   1    1.0962e-01    2.8891e+05 ;     C4 - H7    
     4     15   1    1.0962e-01    2.8891e+05 ;     C4 - H8    
     4     16   1    1.0962e-01    2.8891e+05 ;     C4 - H9    
     5      7   1    1.4273e-01    2.3620e+05 ;     C5 - O2    
     5     17   1    1.0969e-01    2.8804e+05 ;     C5 - H10   

[ pairs ]
;   ai     aj    funct
     1      3      1 ;     C1 - C3    
     1      4      1 ;     C1 - C4    
     1     17      1 ;     C1 - H10   
     2      5      1 ;     C2 - C5    
     3     14      1 ;     C3 - H7    
     3     15      1 ;     C3 - H8    
     3     16      1 ;     C3 - H9    
     4     11      1 ;     C4 - H4    
     4     12      1 ;     C4 - H5    
     4     13      1 ;     C4 - H6    
     6      5      1 ;     O1 - C5    
     6      8      1 ;     O1 - H1    
     6      9      1 ;     O1 - H2    
     6     10      1 ;     O1 - H3    
     7      8      1 ;     O2 - H1    
     7      9      1 ;     O2 - H2    
     7     10      1 ;     O2 - H3    
     7     11      1 ;     O2 - H4    
     7     12      1 ;     O2 - H5    
     7     13      1 ;     O2 - H6    
     7     14      1 ;     O2 - H7    
     7     15      1 ;     O2 - H8    
     7     16      1 ;     O2 - H9    
    11     17      1 ;     H4 - H10   
    12     17      1 ;     H5 - H10   
    13     17      1 ;     H6 - H10   
    14     17      1 ;     H7 - H10   
    15     17      1 ;     H8 - H10   
    16     17      1 ;     H9 - H10   

[ angles ]
;   ai     aj     ak    funct   theta         cth
     1      2      8      1    1.0895e+02    3.6510e+02 ;     C1 - C2     - H1    
     1      2      9      1    1.0895e+02    3.6510e+02 ;     C1 - C2     - H2    
     1      2     10      1    1.0895e+02    3.6510e+02 ;     C1 - C2     - H3    
     1      7      5      1    1.1582e+02    7.4835e+02 ;     C1 - O2     - C5    
     2      1      6      1    1.2290e+02    6.3973e+02 ;     C2 - C1     - O1    
     2      1      7      1    1.1080e+02    6.5245e+02 ;     C2 - C1     - O2    
     3      5      4      1    1.1263e+02    5.0099e+02 ;     C3 - C5     - C4    
     3      5      7      1    1.0762e+02    6.4802e+02 ;     C3 - C5     - O2    
     3      5     17      1    1.0959e+02    3.6217e+02 ;     C3 - C5     - H10   
     4      5      7      1    1.0762e+02    6.4802e+02 ;     C4 - C5     - O2    
     4      5     17      1    1.0959e+02    3.6217e+02 ;     C4 - C5     - H10   
     5      3     11      1    1.0968e+02    3.6208e+02 ;     C5 - C3     - H4    
     5      3     12      1    1.0968e+02    3.6208e+02 ;     C5 - C3     - H5    
     5      3     13      1    1.0968e+02    3.6208e+02 ;     C5 - C3     - H6    
     5      4     14      1    1.0968e+02    3.6208e+02 ;     C5 - C4     - H7    
     5      4     15      1    1.0968e+02    3.6208e+02 ;     C5 - C4     - H8    
     5      4     16      1    1.0968e+02    3.6208e+02 ;     C5 - C4     - H9    
     6      1      7      1    1.2320e+02    8.4734e+02 ;     O1 - C1     - O2    
     7      5     17      1    1.1034e+02    4.7028e+02 ;     O2 - C5     - H10   
     8      2      9      1    1.0773e+02    2.9957e+02 ;     H1 - C2     - H2    
     8      2     10      1    1.0773e+02    2.9957e+02 ;     H1 - C2     - H3    
     9      2     10      1    1.0773e+02    2.9957e+02 ;     H2 - C2     - H3    
    11      3     12      1    1.0773e+02    2.9957e+02 ;     H4 - C3     - H5    
    11      3     13      1    1.0773e+02    2.9957e+02 ;     H4 - C3     - H6    
    12      3     13      1    1.0773e+02    2.9957e+02 ;     H5 - C3     - H6    
    14      4     15      1    1.0773e+02    2.9957e+02 ;     H7 - C4     - H8    
    14      4     16      1    1.0773e+02    2.9957e+02 ;     H7 - C4     - H9    
    15      4     16      1    1.0773e+02    2.9957e+02 ;     H8 - C4     - H9    

[ dihedrals ] ; propers
; for gromacs 4.5 or higher, using funct 9
;    i      j      k      l   func   phase     kd      pn
     1      7      5      3      9     0.00   1.60247   3 ;     C1-    O2-    C5-    C3
     1      7      5      3      9   180.00   3.34720   1 ;     C1-    O2-    C5-    C3
     1      7      5      4      9     0.00   1.60247   3 ;     C1-    O2-    C5-    C4
     1      7      5      4      9   180.00   3.34720   1 ;     C1-    O2-    C5-    C4
     1      7      5     17      9     0.00   1.60387   3 ;     C1-    O2-    C5-   H10
     2      1      7      5      9     0.00   3.13800   3 ;     C2-    C1-    O2-    C5
     2      1      7      5      9   180.00   7.90776   1 ;     C2-    C1-    O2-    C5
     2      1      7      5      9   180.00  13.76536   2 ;     C2-    C1-    O2-    C5
     3      5      4     14      9     0.00   0.54392   3 ;     C3-    C5-    C4-    H7
     3      5      4     15      9     0.00   0.54392   3 ;     C3-    C5-    C4-    H8
     3      5      4     16      9     0.00   0.54392   3 ;     C3-    C5-    C4-    H9
     4      5      3     11      9     0.00   0.54392   3 ;     C4-    C5-    C3-    H4
     4      5      3     12      9     0.00   0.54392   3 ;     C4-    C5-    C3-    H5
     4      5      3     13      9     0.00   0.54392   3 ;     C4-    C5-    C3-    H6
     6      1      2      8      9     0.00  16.86152   1 ;     O1-    C1-    C2-    H1
     6      1      2      8      9   180.00  15.31344   2 ;     O1-    C1-    C2-    H1
     6      1      2      9      9     0.00  16.86152   1 ;     O1-    C1-    C2-    H2
     6      1      2      9      9   180.00  15.31344   2 ;     O1-    C1-    C2-    H2
     6      1      2     10      9     0.00  16.86152   1 ;     O1-    C1-    C2-    H3
     6      1      2     10      9   180.00  15.31344   2 ;     O1-    C1-    C2-    H3
     6      1      7      5      9   180.00   5.85760   1 ;     O1-    C1-    O2-    C5
     6      1      7      5      9   180.00  11.29680   2 ;     O1-    C1-    O2-    C5
     7      1      2      8      9   180.00   0.00000   2 ;     O2-    C1-    C2-    H1
     7      1      2      9      9   180.00   0.00000   2 ;     O2-    C1-    C2-    H2
     7      1      2     10      9   180.00   0.00000   2 ;     O2-    C1-    C2-    H3
     7      5      3     11      9     0.00   0.00000   0 ;     O2-    C5-    C3-    H4
     7      5      3     11      9     0.00   1.04600   1 ;     O2-    C5-    C3-    H4
     7      5      3     12      9     0.00   0.00000   0 ;     O2-    C5-    C3-    H5
     7      5      3     12      9     0.00   1.04600   1 ;     O2-    C5-    C3-    H5
     7      5      3     13      9     0.00   0.00000   0 ;     O2-    C5-    C3-    H6
     7      5      3     13      9     0.00   1.04600   1 ;     O2-    C5-    C3-    H6
     7      5      4     14      9     0.00   0.00000   0 ;     O2-    C5-    C4-    H7
     7      5      4     14      9     0.00   1.04600   1 ;     O2-    C5-    C4-    H7
     7      5      4     15      9     0.00   0.00000   0 ;     O2-    C5-    C4-    H8
     7      5      4     15      9     0.00   1.04600   1 ;     O2-    C5-    C4-    H8
     7      5      4     16      9     0.00   0.00000   0 ;     O2-    C5-    C4-    H9
     7      5      4     16      9     0.00   1.04600   1 ;     O2-    C5-    C4-    H9
    11      3      5     17      9     0.00   0.65084   3 ;     H4-    C3-    C5-   H10
    12      3      5     17      9     0.00   0.65084   3 ;     H5-    C3-    C5-   H10
    13      3      5     17      9     0.00   0.65084   3 ;     H6-    C3-    C5-   H10
    14      4      5     17      9     0.00   0.65084   3 ;     H7-    C4-    C5-   H10
    15      4      5     17      9     0.00   0.65084   3 ;     H8-    C4-    C5-   H10
    16      4      5     17      9     0.00   0.65084   3 ;     H9-    C4-    C5-   H10

[ dihedrals ] ; impropers
; treated as propers in GROMACS to use correct AMBER analytical function
;    i      j      k      l   func   phase     kd      pn
     7      1      6      2      4   180.00   4.60240   2 ;     O2-    C1-    O1-    C2
