mobley_7913234_GMX.gro created by acpype (v: 2023.10.27) on Thu May 14 13:19:34 2026
 2773
    1MOL     C1    1   1.376   1.881   1.308
    1MOL     C2    2   1.651   1.168   1.713
    1MOL     C3    3   1.407   1.809   1.438
    1MOL     C4    4   1.453   1.665   1.413
    1MOL     C5    5   1.489   1.594   1.543
    1MOL     C6    6   1.567   1.390   1.630
    1MOL     C7    7   1.615   1.251   1.591
    1MOL     O1    8   1.731   1.265   1.508
    1MOL     O2    9   1.532   1.462   1.513
    1MOL     H1   10   1.298   1.828   1.252
    1MOL     H2   11   1.341   1.983   1.327
    1MOL     H3   12   1.465   1.886   1.246
    1MOL     H4   13   1.728   1.219   1.773
    1MOL     H5   14   1.564   1.151   1.776
    1MOL     H6   15   1.693   1.071   1.684
    1MOL     H7   16   1.485   1.864   1.492
    1MOL     H8   17   1.318   1.808   1.502
    1MOL     H9   18   1.375   1.609   1.361
    1MOL    H10   19   1.540   1.665   1.346
    1MOL    H11   20   1.570   1.646   1.595
    1MOL    H12   21   1.402   1.588   1.609
    1MOL    H13   22   1.478   1.385   1.694
    1MOL    H14   23   1.646   1.446   1.682
    1MOL    H15   24   1.538   1.201   1.531
    1MOL    H16   25   1.757   1.175   1.483
    2SOL     OW   26   0.230   0.628   0.113
    2SOL    HW1   27   0.137   0.626   0.150
    2SOL    HW2   28   0.231   0.589   0.021
    3SOL     OW   29   0.225   0.275   0.996
    3SOL    HW1   30   0.260   0.258   1.088
    3SOL    HW2   31   0.137   0.230   0.984
    4SOL     OW   32   0.019   0.368   0.647
    4SOL    HW1   33  -0.063   0.411   0.686
    4SOL    HW2   34  -0.009   0.295   0.584
    5SOL     OW   35   0.569   1.275   1.165
    5SOL    HW1   36   0.476   1.268   1.128
    5SOL    HW2   37   0.580   1.364   1.209
    6SOL     OW   38   1.555   1.511   0.703
    6SOL    HW1   39   1.498   1.495   0.784
    6SOL    HW2   40   1.496   1.521   0.623
    7SOL     OW   41   1.135   0.703   0.717
    7SOL    HW1   42   1.192   0.781   0.692
    7SOL    HW2   43   1.075   0.729   0.793
    8SOL     OW   44   1.755   0.607   0.231
    8SOL    HW1   45   1.743   0.594   0.132
    8SOL    HW2   46   1.725   0.526   0.280
    9SOL     OW   47   0.768   1.144   1.023
    9SOL    HW1   48   0.690   1.161   1.083
    9SOL    HW2   49   0.802   1.231   0.987
   10SOL     OW   50   0.850   0.798   1.823
   10SOL    HW1   51   0.846   0.874   1.888
   10SOL    HW2   52   0.872   0.834   1.732
   11SOL     OW   53   0.685   1.012   0.665
   11SOL    HW1   54   0.754   0.996   0.735
   11SOL    HW2   55   0.612   1.069   0.703
   12SOL     OW   56   0.686   1.161   1.803
   12SOL    HW1   57   0.746   1.240   1.817
   12SOL    HW2   58   0.600   1.192   1.762
   13SOL     OW   59   0.335   1.435   1.061
   13SOL    HW1   60   0.257   1.404   1.008
   13SOL    HW2   61   0.393   1.493   1.004
   14SOL     OW   62   0.438   0.392   1.499
   14SOL    HW1   63   0.520   0.336   1.508
   14SOL    HW2   64   0.357   0.334   1.503
   15SOL     OW   65   1.603   0.447   0.737
   15SOL    HW1   66   1.529   0.493   0.687
   15SOL    HW2   67   1.654   0.515   0.790
   16SOL     OW   68   0.231   1.713   0.483
   16SOL    HW1   69   0.265   1.790   0.537
   16SOL    HW2   70   0.275   1.713   0.393
   17SOL     OW   71   1.127   1.341   1.690
   17SOL    HW1   72   1.174   1.341   1.778
   17SOL    HW2   73   1.079   1.254   1.679
   18SOL     OW   74   0.230   1.434   0.538
   18SOL    HW1   75   0.204   1.530   0.538
   18SOL    HW2   76   0.159   1.380   0.583
   19SOL     OW   77   0.240   1.091   0.886
   19SOL    HW1   78   0.254   1.007   0.938
   19SOL    HW2   79   0.185   1.155   0.941
   20SOL     OW   80   0.620   1.786   1.439
   20SOL    HW1   81   0.528   1.769   1.474
   20SOL    HW2   82   0.648   1.878   1.465
   21SOL     OW   83   0.606   0.964   0.123
   21SOL    HW1   84   0.613   1.048   0.069
   21SOL    HW2   85   0.652   0.977   0.211
   22SOL     OW   86   1.594   0.114   1.480
   22SOL    HW1   87   1.576   0.181   1.408
   22SOL    HW2   88   1.591   0.160   1.569
   23SOL     OW   89   0.122   0.643   0.563
   23SOL    HW1   90   0.077   0.555   0.580
   23SOL    HW2   91   0.121   0.697   0.647
   24SOL     OW   92   1.842   1.767   0.359
   24SOL    HW1   93   1.896   1.738   0.439
   24SOL    HW2   94   1.872   1.857   0.330
   25SOL     OW   95   0.027   1.596   0.117
   25SOL    HW1   96   0.008   1.500   0.138
   25SOL    HW2   97  -0.006   1.654   0.192
   26SOL     OW   98   1.689   0.922   0.612
   26SOL    HW1   99   1.784   0.893   0.620
   26SOL    HW2  100   1.681   0.987   0.537
   27SOL     OW  101   1.641   1.108   0.432
   27SOL    HW1  102   1.727   1.110   0.380
   27SOL    HW2  103   1.655   1.155   0.520
   28SOL     OW  104   0.113   0.737   1.597
   28SOL    HW1  105   0.201   0.724   1.642
   28SOL    HW2  106   0.100   0.834   1.575
   29SOL     OW  107   0.613   1.365   0.726
   29SOL    HW1  108   0.564   1.278   0.735
   29SOL    HW2  109   0.590   1.408   0.639
   30SOL     OW  110   1.293   1.228   1.423
   30SOL    HW1  111   1.330   1.155   1.365
   30SOL    HW2  112   1.345   1.233   1.508
   31SOL     OW  113   0.809   0.004   0.502
   31SOL    HW1  114   0.849   0.095   0.493
   31SOL    HW2  115   0.709   0.012   0.508
   32SOL     OW  116   0.197   0.976   1.264
   32SOL    HW1  117   0.286   0.931   1.250
   32SOL    HW2  118   0.124   0.911   1.245
   33SOL     OW  119   1.525   0.999   0.190
   33SOL    HW1  120   1.462   0.923   0.203
   33SOL    HW2  121   1.573   1.017   0.276
   34SOL     OW  122   0.317   0.251   1.801
   34SOL    HW1  123   0.388   0.322   1.807
   34SOL    HW2  124   0.229   0.290   1.829
   35SOL     OW  125   1.466   1.417   0.953
   35SOL    HW1  126   1.407   1.423   1.033
   35SOL    HW2  127   1.451   1.329   0.907
   36SOL     OW  128   1.667   1.714   0.572
   36SOL    HW1  129   1.626   1.691   0.484
   36SOL    HW2  130   1.649   1.640   0.637
   37SOL     OW  131   0.598   0.729   0.270
   37SOL    HW1  132   0.622   0.798   0.202
   37SOL    HW2  133   0.520   0.762   0.324
   38SOL     OW  134   1.281   0.345   0.944
   38SOL    HW1  135   1.195   0.295   0.931
   38SOL    HW2  136   1.343   0.291   1.000
   39SOL     OW  137   1.576   1.662   0.307
   39SOL    HW1  138   1.665   1.708   0.310
   39SOL    HW2  139   1.555   1.638   0.212
   40SOL     OW  140   0.807   0.605   1.465
   40SOL    HW1  141   0.760   0.602   1.554
   40SOL    HW2  142   0.756   0.550   1.399
   41SOL     OW  143   1.394   0.469   1.674
   41SOL    HW1  144   1.374   0.512   1.762
   41SOL    HW2  145   1.472   0.407   1.683
   42SOL     OW  146   0.973   0.890   1.572
   42SOL    HW1  147   1.019   0.806   1.543
   42SOL    HW2  148   0.917   0.924   1.497
   43SOL     OW  149   0.991   0.410   1.242
   43SOL    HW1  150   0.914   0.444   1.296
   43SOL    HW2  151   0.957   0.359   1.163
   44SOL     OW  152   1.041   0.701   0.429
   44SOL    HW1  153   1.067   0.697   0.525
   44SOL    HW2  154   0.956   0.650   0.415
   45SOL     OW  155   0.076   0.811   0.789
   45SOL    HW1  156   0.175   0.799   0.798
   45SOL    HW2  157   0.052   0.906   0.810
   46SOL     OW  158   0.130   1.821   1.571
   46SOL    HW1  159   0.120   1.806   1.670
   46SOL    HW2  160   0.044   1.857   1.535
   47SOL     OW  161   0.865   0.348   0.195
   47SOL    HW1  162   0.924   0.411   0.146
   47SOL    HW2  163   0.884   0.254   0.166
   48SOL     OW  164   1.719   0.585   1.831
   48SOL    HW1  165   1.693   0.674   1.795
   48SOL    HW2  166   1.717   0.517   1.758
   49SOL     OW  167   1.362   1.144   0.545
   49SOL    HW1  168   1.445   1.115   0.497
   49SOL    HW2  169   1.313   1.211   0.489
   50SOL     OW  170   0.550   0.196   0.885
   50SOL    HW1  171   0.545   0.191   0.985
   50SOL    HW2  172   0.552   0.292   0.856
   51SOL     OW  173   1.008   1.456   0.477
   51SOL    HW1  174   0.962   1.528   0.425
   51SOL    HW2  175   1.004   1.476   0.575
   52SOL     OW  176   0.351   1.801   0.853
   52SOL    HW1  177   0.401   1.715   0.859
   52SOL    HW2  178   0.416   1.878   0.850
   53SOL     OW  179   1.795   1.066   0.873
   53SOL    HW1  180   1.733   1.051   0.797
   53SOL    HW2  181   1.743   1.077   0.958
   54SOL     OW  182   1.227   1.550   1.506
   54SOL    HW1  183   1.233   1.473   1.570
   54SOL    HW2  184   1.175   1.524   1.426
   55SOL     OW  185   0.321   0.943   0.242
   55SOL    HW1  186   0.403   0.982   0.200
   55SOL    HW2  187   0.294   0.861   0.193
   56SOL     OW  188   1.458   0.735   0.728
   56SOL    HW1  189   1.453   0.670   0.803
   56SOL    HW2  190   1.538   0.794   0.741
   57SOL     OW  191   0.461   1.266   1.727
   57SOL    HW1  192   0.411   1.267   1.641
   57SOL    HW2  193   0.398   1.248   1.803
   58SOL     OW  194   1.111   1.776   0.237
   58SOL    HW1  195   1.051   1.714   0.287
   58SOL    HW2  196   1.142   1.732   0.152
   59SOL     OW  197   0.202   0.285   1.498
   59SOL    HW1  198   0.122   0.345   1.485
   59SOL    HW2  199   0.192   0.236   1.584
   60SOL     OW  200   1.632   1.377   0.081
   60SOL    HW1  201   1.600   1.471   0.071
   60SOL    HW2  202   1.556   1.314   0.069
   61SOL     OW  203   0.464   1.743   0.323
   61SOL    HW1  204   0.497   1.782   0.409
   61SOL    HW2  205   0.540   1.736   0.258
   62SOL     OW  206   1.400   0.107   0.426
   62SOL    HW1  207   1.376   0.070   0.336
   62SOL    HW2  208   1.499   0.123   0.430
   63SOL     OW  209   0.249   1.785   1.241
   63SOL    HW1  210   0.306   1.720   1.291
   63SOL    HW2  211   0.233   1.752   1.148
   64SOL     OW  212   0.940   1.698   0.904
   64SOL    HW1  213   1.020   1.641   0.925
   64SOL    HW2  214   0.891   1.658   0.827
   65SOL     OW  215   0.382   0.700   0.480
   65SOL    HW1  216   0.427   0.610   0.477
   65SOL    HW2  217   0.288   0.689   0.513
   66SOL     OW  218   1.547   0.222   1.729
   66SOL    HW1  219   1.542   0.259   1.821
   66SOL    HW2  220   1.475   0.153   1.717
   67SOL     OW  221   0.614   0.122   0.117
   67SOL    HW1  222   0.712   0.100   0.124
   67SOL    HW2  223   0.583   0.105   0.024
   68SOL     OW  224   0.781   0.264   1.749
   68SOL    HW1  225   0.848   0.203   1.792
   68SOL    HW2  226   0.708   0.283   1.814
   69SOL     OW  227   0.888   1.514   1.195
   69SOL    HW1  228   0.865   1.489   1.101
   69SOL    HW2  229   0.949   1.445   1.234
   70SOL     OW  230   1.351   0.590   1.433
   70SOL    HW1  231   1.379   0.547   1.518
   70SOL    HW2  232   1.376   0.686   1.434
   71SOL     OW  233   0.803   1.402   0.924
   71SOL    HW1  234   0.893   1.416   0.882
   71SOL    HW2  235   0.732   1.404   0.853
   72SOL     OW  236   0.922   0.503   0.899
   72SOL    HW1  237   0.897   0.494   0.803
   72SOL    HW2  238   0.970   0.421   0.930
   73SOL     OW  239   0.539   0.064   0.512
   73SOL    HW1  240   0.458   0.065   0.570
   73SOL    HW2  241   0.542   0.147   0.457
   74SOL     OW  242   1.434   1.188   0.041
   74SOL    HW1  243   1.466   1.112   0.098
   74SOL    HW2  244   1.342   1.215   0.071
   75SOL     OW  245   0.297   0.035   0.171
   75SOL    HW1  246   0.346   0.119   0.150
   75SOL    HW2  247   0.359  -0.030   0.216
   76SOL     OW  248   0.935   0.236   0.480
   76SOL    HW1  249   0.887   0.277   0.402
   76SOL    HW2  250   1.034   0.234   0.461
   77SOL     OW  251   1.076   0.683   1.464
   77SOL    HW1  252   0.996   0.622   1.467
   77SOL    HW2  253   1.157   0.630   1.440
   78SOL     OW  254   1.227   1.570   0.793
   78SOL    HW1  255   1.248   1.644   0.728
   78SOL    HW2  256   1.295   1.570   0.866
   79SOL     OW  257   0.459   1.152   0.741
   79SOL    HW1  258   0.388   1.125   0.806
   79SOL    HW2  259   0.433   1.124   0.648
   80SOL     OW  260   1.271   1.797   0.591
   80SOL    HW1  261   1.315   1.861   0.527
   80SOL    HW2  262   1.221   1.849   0.661
   81SOL     OW  263   1.032   0.549   0.016
   81SOL    HW1  264   0.991   0.631  -0.023
   81SOL    HW2  265   1.096   0.575   0.089
   82SOL     OW  266   0.078   0.556   1.386
   82SOL    HW1  267   0.170   0.555   1.345
   82SOL    HW2  268   0.072   0.630   1.453
   83SOL     OW  269   0.561   0.222   1.147
   83SOL    HW1  270   0.599   0.138   1.184
   83SOL    HW2  271   0.473   0.241   1.191
   84SOL     OW  272   0.866   0.454   0.642
   84SOL    HW1  273   0.834   0.526   0.580
   84SOL    HW2  274   0.890   0.373   0.589
   85SOL     OW  275   1.017   0.039   0.753
   85SOL    HW1  276   0.945   0.044   0.684
   85SOL    HW2  277   0.993  -0.030   0.822
   86SOL     OW  278   1.429   1.173   0.867
   86SOL    HW1  279   1.374   1.089   0.860
   86SOL    HW2  280   1.455   1.202   0.775
   87SOL     OW  281   1.466   0.590   0.992
   87SOL    HW1  282   1.436   0.495   0.999
   87SOL    HW2  283   1.539   0.606   1.058
   88SOL     OW  284   1.857   0.833   0.377
   88SOL    HW1  285   1.899   0.769   0.441
   88SOL    HW2  286   1.819   0.782   0.299
   89SOL     OW  287   0.488   1.385   0.174
   89SOL    HW1  288   0.401   1.370   0.221
   89SOL    HW2  289   0.471   1.411   0.079
   90SOL     OW  290   1.664   1.280   0.657
   90SOL    HW1  291   1.763   1.288   0.671
   90SOL    HW2  292   1.619   1.364   0.688
   91SOL     OW  293   1.390   0.575   0.078
   91SOL    HW1  294   1.336   0.554   0.159
   91SOL    HW2  295   1.481   0.534   0.087
   92SOL     OW  296   0.527   0.256   0.328
   92SOL    HW1  297   0.554   0.197   0.253
   92SOL    HW2  298   0.527   0.351   0.297
   93SOL     OW  299   1.064   1.347   1.340
   93SOL    HW1  300   0.984   1.324   1.395
   93SOL    HW2  301   1.147   1.321   1.389
   94SOL     OW  302   1.111   1.195   1.100
   94SOL    HW1  303   1.071   1.239   1.181
   94SOL    HW2  304   1.070   1.232   1.017
   95SOL     OW  305   1.638   1.099   1.079
   95SOL    HW1  306   1.643   1.180   1.138
   95SOL    HW2  307   1.552   1.101   1.028
   96SOL     OW  308   0.915   0.089   1.402
   96SOL    HW1  309   0.940   0.069   1.307
   96SOL    HW2  310   0.987   0.145   1.444
   97SOL     OW  311   0.980   1.116   1.719
   97SOL    HW1  312   0.881   1.122   1.729
   97SOL    HW2  313   1.003   1.036   1.663
   98SOL     OW  314   0.705   1.050   0.368
   98SOL    HW1  315   0.691   1.057   0.467
   98SOL    HW2  316   0.789   0.999   0.350
   99SOL     OW  317   0.410   0.813   1.251
   99SOL    HW1  318   0.496   0.825   1.301
   99SOL    HW2  319   0.368   0.726   1.278
  100SOL     OW  320   1.274   0.386   1.262
  100SOL    HW1  321   1.295   0.460   1.326
  100SOL    HW2  322   1.185   0.403   1.219
  101SOL     OW  323   0.064   1.564   1.331
  101SOL    HW1  324   0.018   1.646   1.297
  101SOL    HW2  325   0.162   1.583   1.340
  102SOL     OW  326   0.367   1.100   0.501
  102SOL    HW1  327   0.360   1.183   0.445
  102SOL    HW2  328   0.371   1.020   0.441
  103SOL     OW  329   0.566   0.537   0.865
  103SOL    HW1  330   0.578   0.603   0.791
  103SOL    HW2  331   0.612   0.571   0.948
  104SOL     OW  332   1.252   1.348   0.388
  104SOL    HW1  333   1.302   1.425   0.428
  104SOL    HW2  334   1.157   1.350   0.420
  105SOL     OW  335   1.272   1.445   1.142
  105SOL    HW1  336   1.319   1.458   1.229
  105SOL    HW2  337   1.206   1.371   1.151
  106SOL     OW  338   1.582   0.639   0.472
  106SOL    HW1  339   1.551   0.700   0.545
  106SOL    HW2  340   1.632   0.691   0.403
  107SOL     OW  341   0.354   1.510   1.329
  107SOL    HW1  342   0.333   1.466   1.242
  107SOL    HW2  343   0.451   1.536   1.332
  108SOL     OW  344   0.402   0.751   1.598
  108SOL    HW1  345   0.470   0.806   1.551
  108SOL    HW2  346   0.442   0.663   1.625
  109SOL     OW  347   1.587   0.779   1.670
  109SOL    HW1  348   1.495   0.817   1.665
  109SOL    HW2  349   1.647   0.826   1.605
  110SOL     OW  350   1.013   0.105   1.770
  110SOL    HW1  351   1.019   0.190   1.718
  110SOL    HW2  352   1.045   0.029   1.713
  111SOL     OW  353   0.504   0.050   1.740
  111SOL    HW1  354   0.462  -0.007   1.670
  111SOL    HW2  355   0.438   0.119   1.772
  112SOL     OW  356   0.573   0.870   1.029
  112SOL    HW1  357   0.617   0.959   1.020
  112SOL    HW2  358   0.510   0.870   1.106
  113SOL     OW  359   1.360   0.862   1.045
  113SOL    HW1  360   1.285   0.862   0.979
  113SOL    HW2  361   1.397   0.770   1.054
  114SOL     OW  362   1.209   0.525   0.275
  114SOL    HW1  363   1.222   0.441   0.329
  114SOL    HW2  364   1.180   0.599   0.335
  115SOL     OW  365   0.307   0.213   1.231
  115SOL    HW1  366   0.284   0.250   1.321
  115SOL    HW2  367   0.277   0.118   1.225
  116SOL     OW  368   0.037   1.310   1.282
  116SOL    HW1  369   0.090   1.261   1.350
  116SOL    HW2  370   0.059   1.408   1.287
  117SOL     OW  371   0.732   0.634   1.064
  117SOL    HW1  372   0.791   0.608   0.988
  117SOL    HW2  373   0.704   0.730   1.053
  118SOL     OW  374   1.728   0.935   1.854
  118SOL    HW1  375   1.682   0.928   1.765
  118SOL    HW2  376   1.666   0.979   1.920
  119SOL     OW  377   0.307   0.063   0.618
  119SOL    HW1  378   0.296   0.157   0.651
  119SOL    HW2  379   0.302   0.000   0.695
  120SOL     OW  380   1.622   0.367   0.374
  120SOL    HW1  381   1.624   0.291   0.438
  120SOL    HW2  382   1.574   0.444   0.414
  121SOL     OW  383   1.023   0.766   0.966
  121SOL    HW1  384   1.038   0.787   1.062
  121SOL    HW2  385   0.993   0.671   0.957
  122SOL     OW  386   0.980   1.573   1.700
  122SOL    HW1  387   0.960   1.617   1.612
  122SOL    HW2  388   1.019   1.482   1.684
  123SOL     OW  389   1.859   1.518   1.605
  123SOL    HW1  390   1.873   1.545   1.510
  123SOL    HW2  391   1.942   1.540   1.658
  124SOL     OW  392   0.350   0.898   1.804
  124SOL    HW1  393   0.426   0.942   1.852
  124SOL    HW2  394   0.385   0.851   1.722
  125SOL     OW  395   1.540   0.274   0.125
  125SOL    HW1  396   1.479   0.199   0.148
  125SOL    HW2  397   1.562   0.326   0.208
  126SOL     OW  398   1.303   0.838   0.042
  126SOL    HW1  399   1.337   0.745   0.057
  126SOL    HW2  400   1.321   0.865  -0.053
  127SOL     OW  401   1.068   1.333   0.849
  127SOL    HW1  402   1.075   1.249   0.794
  127SOL    HW2  403   1.130   1.402   0.813
  128SOL     OW  404   0.319   0.810   0.949
  128SOL    HW1  405   0.412   0.846   0.954
  128SOL    HW2  406   0.313   0.725   1.001
  129SOL     OW  407   0.339   0.509   1.006
  129SOL    HW1  408   0.287   0.426   0.989
  129SOL    HW2  409   0.416   0.514   0.942
  130SOL     OW  410   1.138   0.380   1.678
  130SOL    HW1  411   1.093   0.443   1.742
  130SOL    HW2  412   1.231   0.411   1.661
  131SOL     OW  413   1.160   0.207   1.477
  131SOL    HW1  414   1.160   0.271   1.554
  131SOL    HW2  415   1.188   0.255   1.394
  132SOL     OW  416   0.008   1.326   0.200
  132SOL    HW1  417  -0.085   1.347   0.169
  132SOL    HW2  418   0.018   1.227   0.213
  133SOL     OW  419   0.088   1.801   0.927
  133SOL    HW1  420   0.046   1.715   0.900
  133SOL    HW2  421   0.182   1.804   0.893
  134SOL     OW  422   0.504   1.568   0.910
  134SOL    HW1  423   0.570   1.642   0.919
  134SOL    HW2  424   0.548   1.489   0.868
  135SOL     OW  425   1.002   0.796   1.238
  135SOL    HW1  426   1.043   0.764   1.324
  135SOL    HW2  427   0.906   0.769   1.235
  136SOL     OW  428   0.040   0.544   1.114
  136SOL    HW1  429   0.125   0.511   1.073
  136SOL    HW2  430   0.053   0.559   1.212
  137SOL     OW  431   0.189   0.520   1.722
  137SOL    HW1  432   0.248   0.480   1.652
  137SOL    HW2  433   0.131   0.591   1.681
  138SOL     OW  434   1.369   0.950   1.660
  138SOL    HW1  435   1.408   1.039   1.680
  138SOL    HW2  436   1.379   0.930   1.563
  139SOL     OW  437   0.815   0.572   0.325
  139SOL    HW1  438   0.822   0.483   0.279
  139SOL    HW2  439   0.721   0.606   0.317
  140SOL     OW  440   1.657   0.604   1.206
  140SOL    HW1  441   1.619   0.535   1.268
  140SOL    HW2  442   1.739   0.568   1.162
  141SOL     OW  443   0.252   1.564   1.744
  141SOL    HW1  444   0.222   1.621   1.820
  141SOL    HW2  445   0.245   1.467   1.770
  142SOL     OW  446   0.671   0.464   1.269
  142SOL    HW1  447   0.637   0.375   1.239
  142SOL    HW2  448   0.697   0.518   1.189
  143SOL     OW  449   0.930   1.678   1.465
  143SOL    HW1  450   0.906   1.660   1.370
  143SOL    HW2  451   0.960   1.772   1.475
  144SOL     OW  452   0.473   0.500   0.191
  144SOL    HW1  453   0.534   0.580   0.195
  144SOL    HW2  454   0.378   0.531   0.198
  145SOL     OW  455   0.159   1.137   1.466
  145SOL    HW1  456   0.181   1.076   1.542
  145SOL    HW2  457   0.169   1.088   1.380
  146SOL     OW  458   1.347   1.059   1.234
  146SOL    HW1  459   1.371   0.996   1.160
  146SOL    HW2  460   1.257   1.099   1.216
  147SOL     OW  461   1.302   0.855   0.309
  147SOL    HW1  462   1.216   0.824   0.351
  147SOL    HW2  463   1.298   0.841   0.210
  148SOL     OW  464   1.759   1.747   1.154
  148SOL    HW1  465   1.820   1.777   1.081
  148SOL    HW2  466   1.721   1.658   1.132
  149SOL     OW  467   1.252   1.731   1.128
  149SOL    HW1  468   1.336   1.736   1.074
  149SOL    HW2  469   1.229   1.635   1.146
  150SOL     OW  470   0.083   1.258   1.022
  150SOL    HW1  471   0.078   1.257   1.122
  150SOL    HW2  472   0.000   1.217   0.984
  151SOL     OW  473   0.688   1.662   1.716
  151SOL    HW1  474   0.632   1.743   1.725
  151SOL    HW2  475   0.740   1.666   1.630
  152SOL     OW  476   0.903   0.086   0.133
  152SOL    HW1  477   0.954   0.087   0.047
  152SOL    HW2  478   0.959   0.044   0.204
  153SOL     OW  479   1.726   0.135   0.523
  153SOL    HW1  480   1.799   0.118   0.456
  153SOL    HW2  481   1.695   0.048   0.561
  154SOL     OW  482   1.388   1.573   0.477
  154SOL    HW1  483   1.455   1.585   0.403
  154SOL    HW2  484   1.348   1.662   0.500
  155SOL     OW  485   0.130   1.794   1.851
  155SOL    HW1  486   0.089   1.720   1.904
  155SOL    HW2  487   0.194   1.845   1.909
  156SOL     OW  488   1.280   0.927   0.672
  156SOL    HW1  489   1.340   0.846   0.674
  156SOL    HW2  490   1.320   0.996   0.612
  157SOL     OW  491   0.830   1.273   1.422
  157SOL    HW1  492   0.825   1.306   1.517
  157SOL    HW2  493   0.744   1.292   1.376
  158SOL     OW  494   0.672   1.616   0.154
  158SOL    HW1  495   0.681   1.626   0.055
  158SOL    HW2  496   0.632   1.527   0.175
  159SOL     OW  497   1.841   0.175   0.963
  159SOL    HW1  498   1.880   0.090   0.927
  159SOL    HW2  499   1.743   0.177   0.944
  160SOL     OW  500   0.263   0.326   0.720
  160SOL    HW1  501   0.184   0.377   0.686
  160SOL    HW2  502   0.254   0.311   0.818
  161SOL     OW  503   1.194   1.612   0.031
  161SOL    HW1  504   1.200   1.519   0.068
  161SOL    HW2  505   1.135   1.612  -0.049
  162SOL     OW  506   0.822   1.002   1.372
  162SOL    HW1  507   0.862   1.001   1.280
  162SOL    HW2  508   0.832   1.094   1.412
  163SOL     OW  509   0.916   0.910   0.291
  163SOL    HW1  510   0.979   0.948   0.223
  163SOL    HW2  511   0.956   0.827   0.330
  164SOL     OW  512   1.504   1.607   0.044
  164SOL    HW1  513   1.412   1.644   0.051
  164SOL    HW2  514   1.542   1.627  -0.046
  165SOL     OW  515   0.372   1.288   1.490
  165SOL    HW1  516   0.359   1.381   1.456
  165SOL    HW2  517   0.288   1.236   1.477
  166SOL     OW  518   1.039   1.098   0.696
  166SOL    HW1  519   0.969   1.051   0.750
  166SOL    HW2  520   1.098   1.030   0.653
  167SOL     OW  521   1.014   0.236   0.971
  167SOL    HW1  522   1.006   0.200   0.878
  167SOL    HW2  523   1.012   0.160   1.036
  168SOL     OW  524   0.590   1.487   0.491
  168SOL    HW1  525   0.632   1.429   0.421
  168SOL    HW2  526   0.546   1.566   0.447
  169SOL     OW  527   1.709   0.385   1.381
  169SOL    HW1  528   1.782   0.454   1.385
  169SOL    HW2  529   1.737   0.310   1.322
  170SOL     OW  530   0.255   1.348   0.290
  170SOL    HW1  531   0.159   1.349   0.263
  170SOL    HW2  532   0.267   1.401   0.374
  171SOL     OW  533   0.105   1.013   1.726
  171SOL    HW1  534   0.028   0.980   1.780
  171SOL    HW2  535   0.190   0.983   1.768
  172SOL     OW  536   0.672   0.203   1.489
  172SOL    HW1  537   0.762   0.187   1.449
  172SOL    HW2  538   0.680   0.208   1.588
  173SOL     OW  539   0.075   0.345   0.033
  173SOL    HW1  540  -0.017   0.317   0.004
  173SOL    HW2  541   0.106   0.422  -0.023
  174SOL     OW  542   1.440   0.856   1.398
  174SOL    HW1  543   1.383   0.908   1.335
  174SOL    HW2  544   1.536   0.868   1.374
  175SOL     OW  545   0.072   0.166   0.318
  175SOL    HW1  546   0.055   0.249   0.264
  175SOL    HW2  547   0.162   0.129   0.296
  176SOL     OW  548   1.183   1.335   0.119
  176SOL    HW1  549   1.084   1.324   0.121
  176SOL    HW2  550   1.217   1.350   0.212
  177SOL     OW  551   0.613   0.842   1.431
  177SOL    HW1  552   0.669   0.923   1.414
  177SOL    HW2  553   0.672   0.762   1.434
  178SOL     OW  554   1.493   1.767   0.959
  178SOL    HW1  555   1.526   1.831   0.890
  178SOL    HW2  556   1.559   1.761   1.034
  179SOL     OW  557   0.716   0.565   1.708
  179SOL    HW1  558   0.735   0.630   1.782
  179SOL    HW2  559   0.776   0.485   1.717
  180SOL     OW  560   0.390   1.741   1.560
  180SOL    HW1  561   0.299   1.782   1.558
  180SOL    HW2  562   0.383   1.647   1.592
  181SOL     OW  563   1.674   0.883   1.254
  181SOL    HW1  564   1.647   0.794   1.217
  181SOL    HW2  565   1.675   0.951   1.181
  182SOL     OW  566   1.225   0.325   0.449
  182SOL    HW1  567   1.290   0.251   0.438
  182SOL    HW2  568   1.245   0.375   0.533
  183SOL     OW  569   0.594   0.745   0.652
  183SOL    HW1  570   0.644   0.830   0.633
  183SOL    HW2  571   0.506   0.747   0.604
  184SOL     OW  572   1.777   0.342   1.642
  184SOL    HW1  573   1.760   0.373   1.548
  184SOL    HW2  574   1.693   0.305   1.680
  185SOL     OW  575   1.730   0.934   1.517
  185SOL    HW1  576   1.768   1.025   1.532
  185SOL    HW2  577   1.722   0.917   1.418
  186SOL     OW  578   0.859   1.374   0.016
  186SOL    HW1  579   0.813   1.389   0.104
  186SOL    HW2  580   0.903   1.459  -0.014
  187SOL     OW  581   0.661   1.790   0.953
  187SOL    HW1  582   0.615   1.878   0.940
  187SOL    HW2  583   0.760   1.802   0.946
  188SOL     OW  584   0.859   0.956   0.861
  188SOL    HW1  585   0.913   0.887   0.909
  188SOL    HW2  586   0.827   1.025   0.927
  189SOL     OW  587   1.083   0.984   0.087
  189SOL    HW1  588   1.060   1.037   0.005
  189SOL    HW2  589   1.164   0.928   0.068
  190SOL     OW  590   1.861   1.569   0.851
  190SOL    HW1  591   1.790   1.557   0.781
  190SOL    HW2  592   1.862   1.490   0.911
  191SOL     OW  593   0.221   1.314   1.844
  191SOL    HW1  594   0.156   1.241   1.823
  191SOL    HW2  595   0.225   1.328   1.942
  192SOL     OW  596   0.079   1.240   0.653
  192SOL    HW1  597   0.078   1.193   0.741
  192SOL    HW2  598   0.161   1.212   0.602
  193SOL     OW  599   0.672   1.391   1.624
  193SOL    HW1  600   0.594   1.341   1.662
  193SOL    HW2  601   0.669   1.486   1.655
  194SOL     OW  602   1.824   0.192   1.227
  194SOL    HW1  603   1.820   0.102   1.271
  194SOL    HW2  604   1.827   0.181   1.128
  195SOL     OW  605   0.428   0.424   0.520
  195SOL    HW1  606   0.458   0.352   0.458
  195SOL    HW2  607   0.389   0.384   0.603
  196SOL     OW  608   1.705   1.487   1.104
  196SOL    HW1  609   1.612   1.462   1.077
  196SOL    HW2  610   1.731   1.437   1.186
  197SOL     OW  611   0.317   0.547   1.280
  197SOL    HW1  612   0.355   0.488   1.352
  197SOL    HW2  613   0.357   0.521   1.192
  198SOL     OW  614   0.812   1.586   0.687
  198SOL    HW1  615   0.844   1.596   0.593
  198SOL    HW2  616   0.733   1.524   0.689
  199SOL     OW  617   1.424   0.214   1.112
  199SOL    HW1  618   1.476   0.149   1.167
  199SOL    HW2  619   1.375   0.277   1.173
  200SOL     OW  620   1.001   0.034   1.154
  200SOL    HW1  621   0.938  -0.038   1.123
  200SOL    HW2  622   1.094  -0.002   1.154
  201SOL     OW  623   0.770   1.330   0.301
  201SOL    HW1  624   0.724   1.243   0.318
  201SOL    HW2  625   0.861   1.327   0.342
  202SOL     OW  626   0.618   1.567   1.284
  202SOL    HW1  627   0.613   1.649   1.341
  202SOL    HW2  628   0.707   1.564   1.239
  203SOL     OW  629   1.352   0.052   0.168
  203SOL    HW1  630   1.387   0.011   0.084
  203SOL    HW2  631   1.262   0.014   0.188
  204SOL     OW  632   1.300   0.453   0.691
  204SOL    HW1  633   1.241   0.533   0.695
  204SOL    HW2  634   1.315   0.418   0.784
  205SOL     OW  635   1.593   0.221   0.882
  205SOL    HW1  636   1.509   0.220   0.936
  205SOL    HW2  637   1.595   0.304   0.826
  206SOL     OW  638   0.039   1.077   0.300
  206SOL    HW1  639   0.138   1.066   0.291
  206SOL    HW2  640  -0.001   0.991   0.332
  207SOL     OW  641   0.875   1.646   0.337
  207SOL    HW1  642   0.798   1.611   0.283
  207SOL    HW2  643   0.843   1.717   0.399
  208SOL     OW  644   0.230   0.628   1.975
  208SOL    HW1  645   0.137   0.626   2.012
  208SOL    HW2  646   0.231   0.589   1.883
  209SOL     OW  647   0.225   0.275   2.858
  209SOL    HW1  648   0.260   0.258   2.950
  209SOL    HW2  649   0.137   0.230   2.846
  210SOL     OW  650   0.019   0.368   2.509
  210SOL    HW1  651  -0.063   0.411   2.548
  210SOL    HW2  652  -0.009   0.295   2.446
  211SOL     OW  653   1.555   1.511   2.565
  211SOL    HW1  654   1.498   1.495   2.646
  211SOL    HW2  655   1.496   1.521   2.485
  212SOL     OW  656   1.135   0.703   2.579
  212SOL    HW1  657   1.192   0.781   2.554
  212SOL    HW2  658   1.075   0.729   2.655
  213SOL     OW  659   1.755   0.607   2.093
  213SOL    HW1  660   1.743   0.594   1.994
  213SOL    HW2  661   1.725   0.526   2.142
  214SOL     OW  662   0.768   1.144   2.885
  214SOL    HW1  663   0.690   1.161   2.945
  214SOL    HW2  664   0.802   1.231   2.849
  215SOL     OW  665   0.685   1.012   2.527
  215SOL    HW1  666   0.754   0.996   2.597
  215SOL    HW2  667   0.612   1.069   2.565
  216SOL     OW  668   0.335   1.435   2.923
  216SOL    HW1  669   0.257   1.404   2.870
  216SOL    HW2  670   0.393   1.493   2.866
  217SOL     OW  671   1.603   0.447   2.599
  217SOL    HW1  672   1.529   0.493   2.549
  217SOL    HW2  673   1.654   0.515   2.652
  218SOL     OW  674   0.231   1.713   2.345
  218SOL    HW1  675   0.265   1.790   2.399
  218SOL    HW2  676   0.275   1.713   2.255
  219SOL     OW  677   0.230   1.434   2.400
  219SOL    HW1  678   0.204   1.530   2.400
  219SOL    HW2  679   0.159   1.380   2.445
  220SOL     OW  680   0.240   1.091   2.748
  220SOL    HW1  681   0.254   1.007   2.800
  220SOL    HW2  682   0.185   1.155   2.803
  221SOL     OW  683   0.606   0.964   1.985
  221SOL    HW1  684   0.613   1.048   1.931
  221SOL    HW2  685   0.652   0.977   2.073
  222SOL     OW  686   0.122   0.643   2.425
  222SOL    HW1  687   0.077   0.555   2.442
  222SOL    HW2  688   0.121   0.697   2.509
  223SOL     OW  689   1.842   1.767   2.221
  223SOL    HW1  690   1.896   1.738   2.301
  223SOL    HW2  691   1.872   1.857   2.192
  224SOL     OW  692   0.027   1.596   1.979
  224SOL    HW1  693   0.008   1.500   2.000
  224SOL    HW2  694  -0.006   1.654   2.054
  225SOL     OW  695   1.689   0.922   2.474
  225SOL    HW1  696   1.784   0.893   2.482
  225SOL    HW2  697   1.681   0.987   2.399
  226SOL     OW  698   1.641   1.108   2.294
  226SOL    HW1  699   1.727   1.110   2.242
  226SOL    HW2  700   1.655   1.155   2.382
  227SOL     OW  701   0.613   1.365   2.588
  227SOL    HW1  702   0.564   1.278   2.597
  227SOL    HW2  703   0.590   1.408   2.501
  228SOL     OW  704   0.809   0.004   2.364
  228SOL    HW1  705   0.849   0.095   2.355
  228SOL    HW2  706   0.709   0.012   2.370
  229SOL     OW  707   0.197   0.976   3.126
  229SOL    HW1  708   0.286   0.931   3.112
  229SOL    HW2  709   0.124   0.911   3.107
  230SOL     OW  710   1.525   0.999   2.052
  230SOL    HW1  711   1.462   0.923   2.065
  230SOL    HW2  712   1.573   1.017   2.138
  231SOL     OW  713   1.466   1.417   2.815
  231SOL    HW1  714   1.407   1.423   2.895
  231SOL    HW2  715   1.451   1.329   2.769
  232SOL     OW  716   1.667   1.714   2.434
  232SOL    HW1  717   1.626   1.691   2.346
  232SOL    HW2  718   1.649   1.640   2.499
  233SOL     OW  719   0.598   0.729   2.132
  233SOL    HW1  720   0.622   0.798   2.064
  233SOL    HW2  721   0.520   0.762   2.186
  234SOL     OW  722   1.281   0.345   2.806
  234SOL    HW1  723   1.195   0.295   2.793
  234SOL    HW2  724   1.343   0.291   2.862
  235SOL     OW  725   1.576   1.662   2.169
  235SOL    HW1  726   1.665   1.708   2.172
  235SOL    HW2  727   1.555   1.638   2.074
  236SOL     OW  728   1.041   0.701   2.291
  236SOL    HW1  729   1.067   0.697   2.387
  236SOL    HW2  730   0.956   0.650   2.277
  237SOL     OW  731   0.076   0.811   2.651
  237SOL    HW1  732   0.175   0.799   2.660
  237SOL    HW2  733   0.052   0.906   2.672
  238SOL     OW  734   0.865   0.348   2.057
  238SOL    HW1  735   0.924   0.411   2.008
  238SOL    HW2  736   0.884   0.254   2.028
  239SOL     OW  737   1.362   1.144   2.407
  239SOL    HW1  738   1.445   1.115   2.359
  239SOL    HW2  739   1.313   1.211   2.351
  240SOL     OW  740   0.550   0.196   2.747
  240SOL    HW1  741   0.545   0.191   2.847
  240SOL    HW2  742   0.552   0.292   2.718
  241SOL     OW  743   1.008   1.456   2.339
  241SOL    HW1  744   0.962   1.528   2.287
  241SOL    HW2  745   1.004   1.476   2.437
  242SOL     OW  746   0.351   1.801   2.715
  242SOL    HW1  747   0.401   1.715   2.721
  242SOL    HW2  748   0.416   1.878   2.712
  243SOL     OW  749   1.795   1.066   2.735
  243SOL    HW1  750   1.733   1.051   2.659
  243SOL    HW2  751   1.743   1.077   2.820
  244SOL     OW  752   0.321   0.943   2.104
  244SOL    HW1  753   0.403   0.982   2.062
  244SOL    HW2  754   0.294   0.861   2.055
  245SOL     OW  755   1.458   0.735   2.590
  245SOL    HW1  756   1.453   0.670   2.665
  245SOL    HW2  757   1.538   0.794   2.603
  246SOL     OW  758   1.111   1.776   2.099
  246SOL    HW1  759   1.051   1.714   2.149
  246SOL    HW2  760   1.142   1.732   2.014
  247SOL     OW  761   1.632   1.377   1.943
  247SOL    HW1  762   1.600   1.471   1.933
  247SOL    HW2  763   1.556   1.314   1.931
  248SOL     OW  764   0.464   1.743   2.185
  248SOL    HW1  765   0.497   1.782   2.271
  248SOL    HW2  766   0.540   1.736   2.120
  249SOL     OW  767   1.400   0.107   2.288
  249SOL    HW1  768   1.376   0.070   2.198
  249SOL    HW2  769   1.499   0.123   2.292
  250SOL     OW  770   0.249   1.785   3.103
  250SOL    HW1  771   0.306   1.720   3.153
  250SOL    HW2  772   0.233   1.752   3.010
  251SOL     OW  773   0.940   1.698   2.766
  251SOL    HW1  774   1.020   1.641   2.787
  251SOL    HW2  775   0.891   1.658   2.689
  252SOL     OW  776   0.382   0.700   2.342
  252SOL    HW1  777   0.427   0.610   2.339
  252SOL    HW2  778   0.288   0.689   2.375
  253SOL     OW  779   0.614   0.122   1.979
  253SOL    HW1  780   0.712   0.100   1.986
  253SOL    HW2  781   0.583   0.105   1.886
  254SOL     OW  782   0.803   1.402   2.786
  254SOL    HW1  783   0.893   1.416   2.744
  254SOL    HW2  784   0.732   1.404   2.715
  255SOL     OW  785   0.922   0.503   2.761
  255SOL    HW1  786   0.897   0.494   2.665
  255SOL    HW2  787   0.970   0.421   2.792
  256SOL     OW  788   0.539   0.064   2.374
  256SOL    HW1  789   0.458   0.065   2.432
  256SOL    HW2  790   0.542   0.147   2.319
  257SOL     OW  791   1.434   1.188   1.903
  257SOL    HW1  792   1.466   1.112   1.960
  257SOL    HW2  793   1.342   1.215   1.933
  258SOL     OW  794   0.297   0.035   2.033
  258SOL    HW1  795   0.346   0.119   2.012
  258SOL    HW2  796   0.359  -0.030   2.078
  259SOL     OW  797   0.935   0.236   2.342
  259SOL    HW1  798   0.887   0.277   2.264
  259SOL    HW2  799   1.034   0.234   2.323
  260SOL     OW  800   1.227   1.570   2.655
  260SOL    HW1  801   1.248   1.644   2.590
  260SOL    HW2  802   1.295   1.570   2.728
  261SOL     OW  803   0.459   1.152   2.603
  261SOL    HW1  804   0.388   1.125   2.668
  261SOL    HW2  805   0.433   1.124   2.510
  262SOL     OW  806   1.271   1.797   2.453
  262SOL    HW1  807   1.315   1.861   2.389
  262SOL    HW2  808   1.221   1.849   2.523
  263SOL     OW  809   1.032   0.549   1.878
  263SOL    HW1  810   0.991   0.631   1.839
  263SOL    HW2  811   1.096   0.575   1.951
  264SOL     OW  812   0.866   0.454   2.504
  264SOL    HW1  813   0.834   0.526   2.442
  264SOL    HW2  814   0.890   0.373   2.451
  265SOL     OW  815   1.017   0.039   2.615
  265SOL    HW1  816   0.945   0.044   2.546
  265SOL    HW2  817   0.993  -0.030   2.684
  266SOL     OW  818   1.429   1.173   2.729
  266SOL    HW1  819   1.374   1.089   2.722
  266SOL    HW2  820   1.455   1.202   2.637
  267SOL     OW  821   1.466   0.590   2.854
  267SOL    HW1  822   1.436   0.495   2.861
  267SOL    HW2  823   1.539   0.606   2.920
  268SOL     OW  824   1.857   0.833   2.239
  268SOL    HW1  825   1.899   0.769   2.303
  268SOL    HW2  826   1.819   0.782   2.161
  269SOL     OW  827   0.488   1.385   2.036
  269SOL    HW1  828   0.401   1.370   2.083
  269SOL    HW2  829   0.471   1.411   1.941
  270SOL     OW  830   1.664   1.280   2.519
  270SOL    HW1  831   1.763   1.288   2.533
  270SOL    HW2  832   1.619   1.364   2.550
  271SOL     OW  833   1.390   0.575   1.940
  271SOL    HW1  834   1.336   0.554   2.021
  271SOL    HW2  835   1.481   0.534   1.949
  272SOL     OW  836   0.527   0.256   2.190
  272SOL    HW1  837   0.554   0.197   2.115
  272SOL    HW2  838   0.527   0.351   2.159
  273SOL     OW  839   1.111   1.195   2.962
  273SOL    HW1  840   1.071   1.239   3.043
  273SOL    HW2  841   1.070   1.232   2.879
  274SOL     OW  842   1.638   1.099   2.941
  274SOL    HW1  843   1.643   1.180   3.000
  274SOL    HW2  844   1.552   1.101   2.890
  275SOL     OW  845   0.705   1.050   2.230
  275SOL    HW1  846   0.691   1.057   2.329
  275SOL    HW2  847   0.789   0.999   2.212
  276SOL     OW  848   0.410   0.813   3.113
  276SOL    HW1  849   0.496   0.825   3.163
  276SOL    HW2  850   0.368   0.726   3.140
  277SOL     OW  851   0.367   1.100   2.363
  277SOL    HW1  852   0.360   1.183   2.307
  277SOL    HW2  853   0.371   1.020   2.303
  278SOL     OW  854   0.566   0.537   2.727
  278SOL    HW1  855   0.578   0.603   2.653
  278SOL    HW2  856   0.612   0.571   2.810
  279SOL     OW  857   1.252   1.348   2.250
  279SOL    HW1  858   1.302   1.425   2.290
  279SOL    HW2  859   1.157   1.350   2.282
  280SOL     OW  860   1.582   0.639   2.334
  280SOL    HW1  861   1.551   0.700   2.407
  280SOL    HW2  862   1.632   0.691   2.265
  281SOL     OW  863   0.354   1.510   3.191
  281SOL    HW1  864   0.333   1.466   3.104
  281SOL    HW2  865   0.451   1.536   3.194
  282SOL     OW  866   0.573   0.870   2.891
  282SOL    HW1  867   0.617   0.959   2.882
  282SOL    HW2  868   0.510   0.870   2.968
  283SOL     OW  869   1.209   0.525   2.137
  283SOL    HW1  870   1.222   0.441   2.191
  283SOL    HW2  871   1.180   0.599   2.197
  284SOL     OW  872   0.732   0.634   2.926
  284SOL    HW1  873   0.791   0.608   2.850
  284SOL    HW2  874   0.704   0.730   2.915
  285SOL     OW  875   0.307   0.063   2.480
  285SOL    HW1  876   0.296   0.157   2.513
  285SOL    HW2  877   0.302   0.000   2.557
  286SOL     OW  878   1.622   0.367   2.236
  286SOL    HW1  879   1.624   0.291   2.300
  286SOL    HW2  880   1.574   0.444   2.276
  287SOL     OW  881   1.023   0.766   2.828
  287SOL    HW1  882   1.038   0.787   2.924
  287SOL    HW2  883   0.993   0.671   2.819
  288SOL     OW  884   1.540   0.274   1.987
  288SOL    HW1  885   1.479   0.199   2.010
  288SOL    HW2  886   1.562   0.326   2.070
  289SOL     OW  887   1.303   0.838   1.904
  289SOL    HW1  888   1.337   0.745   1.919
  289SOL    HW2  889   1.321   0.865   1.809
  290SOL     OW  890   1.068   1.333   2.711
  290SOL    HW1  891   1.075   1.249   2.656
  290SOL    HW2  892   1.130   1.402   2.675
  291SOL     OW  893   0.319   0.810   2.811
  291SOL    HW1  894   0.412   0.846   2.816
  291SOL    HW2  895   0.313   0.725   2.863
  292SOL     OW  896   0.339   0.509   2.868
  292SOL    HW1  897   0.287   0.426   2.851
  292SOL    HW2  898   0.416   0.514   2.804
  293SOL     OW  899   0.008   1.326   2.062
  293SOL    HW1  900  -0.085   1.347   2.031
  293SOL    HW2  901   0.018   1.227   2.075
  294SOL     OW  902   0.088   1.801   2.789
  294SOL    HW1  903   0.046   1.715   2.762
  294SOL    HW2  904   0.182   1.804   2.755
  295SOL     OW  905   0.504   1.568   2.772
  295SOL    HW1  906   0.570   1.642   2.781
  295SOL    HW2  907   0.548   1.489   2.730
  296SOL     OW  908   1.002   0.796   3.100
  296SOL    HW1  909   1.043   0.764   3.186
  296SOL    HW2  910   0.906   0.769   3.097
  297SOL     OW  911   0.815   0.572   2.187
  297SOL    HW1  912   0.822   0.483   2.141
  297SOL    HW2  913   0.721   0.606   2.179
  298SOL     OW  914   0.671   0.464   3.131
  298SOL    HW1  915   0.637   0.375   3.101
  298SOL    HW2  916   0.697   0.518   3.051
  299SOL     OW  917   0.473   0.500   2.053
  299SOL    HW1  918   0.534   0.580   2.057
  299SOL    HW2  919   0.378   0.531   2.060
  300SOL     OW  920   1.302   0.855   2.171
  300SOL    HW1  921   1.216   0.824   2.213
  300SOL    HW2  922   1.298   0.841   2.072
  301SOL     OW  923   1.759   1.747   3.016
  301SOL    HW1  924   1.820   1.777   2.943
  301SOL    HW2  925   1.721   1.658   2.994
  302SOL     OW  926   0.083   1.258   2.884
  302SOL    HW1  927   0.078   1.257   2.984
  302SOL    HW2  928   0.000   1.217   2.846
  303SOL     OW  929   1.726   0.135   2.385
  303SOL    HW1  930   1.799   0.118   2.318
  303SOL    HW2  931   1.695   0.048   2.423
  304SOL     OW  932   1.388   1.573   2.339
  304SOL    HW1  933   1.455   1.585   2.265
  304SOL    HW2  934   1.348   1.662   2.362
  305SOL     OW  935   1.280   0.927   2.534
  305SOL    HW1  936   1.340   0.846   2.536
  305SOL    HW2  937   1.320   0.996   2.474
  306SOL     OW  938   0.672   1.616   2.016
  306SOL    HW1  939   0.681   1.626   1.917
  306SOL    HW2  940   0.632   1.527   2.037
  307SOL     OW  941   1.841   0.175   2.825
  307SOL    HW1  942   1.880   0.090   2.789
  307SOL    HW2  943   1.743   0.177   2.806
  308SOL     OW  944   0.263   0.326   2.582
  308SOL    HW1  945   0.184   0.377   2.548
  308SOL    HW2  946   0.254   0.311   2.680
  309SOL     OW  947   1.194   1.612   1.893
  309SOL    HW1  948   1.200   1.519   1.930
  309SOL    HW2  949   1.135   1.612   1.813
  310SOL     OW  950   0.916   0.910   2.153
  310SOL    HW1  951   0.979   0.948   2.085
  310SOL    HW2  952   0.956   0.827   2.192
  311SOL     OW  953   1.504   1.607   1.906
  311SOL    HW1  954   1.412   1.644   1.913
  311SOL    HW2  955   1.542   1.627   1.816
  312SOL     OW  956   1.039   1.098   2.558
  312SOL    HW1  957   0.969   1.051   2.612
  312SOL    HW2  958   1.098   1.030   2.515
  313SOL     OW  959   1.014   0.236   2.833
  313SOL    HW1  960   1.006   0.200   2.740
  313SOL    HW2  961   1.012   0.160   2.898
  314SOL     OW  962   0.590   1.487   2.353
  314SOL    HW1  963   0.632   1.429   2.283
  314SOL    HW2  964   0.546   1.566   2.309
  315SOL     OW  965   0.255   1.348   2.152
  315SOL    HW1  966   0.159   1.349   2.125
  315SOL    HW2  967   0.267   1.401   2.236
  316SOL     OW  968   0.075   0.345   1.895
  316SOL    HW1  969  -0.017   0.317   1.866
  316SOL    HW2  970   0.106   0.422   1.839
  317SOL     OW  971   0.072   0.166   2.180
  317SOL    HW1  972   0.055   0.249   2.126
  317SOL    HW2  973   0.162   0.129   2.158
  318SOL     OW  974   1.183   1.335   1.981
  318SOL    HW1  975   1.084   1.324   1.983
  318SOL    HW2  976   1.217   1.350   2.074
  319SOL     OW  977   1.493   1.767   2.821
  319SOL    HW1  978   1.526   1.831   2.752
  319SOL    HW2  979   1.559   1.761   2.896
  320SOL     OW  980   1.674   0.883   3.116
  320SOL    HW1  981   1.647   0.794   3.079
  320SOL    HW2  982   1.675   0.951   3.043
  321SOL     OW  983   1.225   0.325   2.311
  321SOL    HW1  984   1.290   0.251   2.300
  321SOL    HW2  985   1.245   0.375   2.395
  322SOL     OW  986   0.594   0.745   2.514
  322SOL    HW1  987   0.644   0.830   2.495
  322SOL    HW2  988   0.506   0.747   2.466
  323SOL     OW  989   0.859   1.374   1.878
  323SOL    HW1  990   0.813   1.389   1.966
  323SOL    HW2  991   0.903   1.459   1.848
  324SOL     OW  992   0.661   1.790   2.815
  324SOL    HW1  993   0.615   1.878   2.802
  324SOL    HW2  994   0.760   1.802   2.808
  325SOL     OW  995   0.859   0.956   2.723
  325SOL    HW1  996   0.913   0.887   2.771
  325SOL    HW2  997   0.827   1.025   2.789
  326SOL     OW  998   1.083   0.984   1.949
  326SOL    HW1  999   1.060   1.037   1.867
  326SOL    HW2 1000   1.164   0.928   1.930
  327SOL     OW 1001   1.861   1.569   2.713
  327SOL    HW1 1002   1.790   1.557   2.643
  327SOL    HW2 1003   1.862   1.490   2.773
  328SOL     OW 1004   0.079   1.240   2.515
  328SOL    HW1 1005   0.078   1.193   2.603
  328SOL    HW2 1006   0.161   1.212   2.464
  329SOL     OW 1007   1.824   0.192   3.089
  329SOL    HW1 1008   1.820   0.102   3.133
  329SOL    HW2 1009   1.827   0.181   2.990
  330SOL     OW 1010   0.428   0.424   2.382
  330SOL    HW1 1011   0.458   0.352   2.320
  330SOL    HW2 1012   0.389   0.384   2.465
  331SOL     OW 1013   0.812   1.586   2.549
  331SOL    HW1 1014   0.844   1.596   2.455
  331SOL    HW2 1015   0.733   1.524   2.551
  332SOL     OW 1016   1.424   0.214   2.974
  332SOL    HW1 1017   1.476   0.149   3.029
  332SOL    HW2 1018   1.375   0.277   3.035
  333SOL     OW 1019   0.770   1.330   2.163
  333SOL    HW1 1020   0.724   1.243   2.180
  333SOL    HW2 1021   0.861   1.327   2.204
  334SOL     OW 1022   1.352   0.052   2.030
  334SOL    HW1 1023   1.387   0.011   1.946
  334SOL    HW2 1024   1.262   0.014   2.050
  335SOL     OW 1025   1.300   0.453   2.553
  335SOL    HW1 1026   1.241   0.533   2.557
  335SOL    HW2 1027   1.315   0.418   2.646
  336SOL     OW 1028   1.593   0.221   2.744
  336SOL    HW1 1029   1.509   0.220   2.798
  336SOL    HW2 1030   1.595   0.304   2.688
  337SOL     OW 1031   0.039   1.077   2.162
  337SOL    HW1 1032   0.138   1.066   2.153
  337SOL    HW2 1033  -0.001   0.991   2.194
  338SOL     OW 1034   0.875   1.646   2.199
  338SOL    HW1 1035   0.798   1.611   2.145
  338SOL    HW2 1036   0.843   1.717   2.261
  339SOL     OW 1037   0.230   2.490   0.113
  339SOL    HW1 1038   0.137   2.488   0.150
  339SOL    HW2 1039   0.231   2.451   0.021
  340SOL     OW 1040   0.225   2.137   0.996
  340SOL    HW1 1041   0.260   2.120   1.088
  340SOL    HW2 1042   0.137   2.092   0.984
  341SOL     OW 1043   0.019   2.230   0.647
  341SOL    HW1 1044  -0.063   2.273   0.686
  341SOL    HW2 1045  -0.009   2.157   0.584
  342SOL     OW 1046   1.135   2.565   0.717
  342SOL    HW1 1047   1.192   2.643   0.692
  342SOL    HW2 1048   1.075   2.591   0.793
  343SOL     OW 1049   1.755   2.469   0.231
  343SOL    HW1 1050   1.743   2.456   0.132
  343SOL    HW2 1051   1.725   2.388   0.280
  344SOL     OW 1052   0.768   3.006   1.023
  344SOL    HW1 1053   0.690   3.023   1.083
  344SOL    HW2 1054   0.802   3.093   0.987
  345SOL     OW 1055   0.850   2.660   1.823
  345SOL    HW1 1056   0.846   2.736   1.888
  345SOL    HW2 1057   0.872   2.696   1.732
  346SOL     OW 1058   0.685   2.874   0.665
  346SOL    HW1 1059   0.754   2.858   0.735
  346SOL    HW2 1060   0.612   2.931   0.703
  347SOL     OW 1061   0.438   2.254   1.499
  347SOL    HW1 1062   0.520   2.198   1.508
  347SOL    HW2 1063   0.357   2.196   1.503
  348SOL     OW 1064   1.603   2.309   0.737
  348SOL    HW1 1065   1.529   2.355   0.687
  348SOL    HW2 1066   1.654   2.377   0.790
  349SOL     OW 1067   0.230   3.296   0.538
  349SOL    HW1 1068   0.204   3.392   0.538
  349SOL    HW2 1069   0.159   3.242   0.583
  350SOL     OW 1070   0.240   2.953   0.886
  350SOL    HW1 1071   0.254   2.869   0.938
  350SOL    HW2 1072   0.185   3.017   0.941
  351SOL     OW 1073   0.606   2.826   0.123
  351SOL    HW1 1074   0.613   2.910   0.069
  351SOL    HW2 1075   0.652   2.839   0.211
  352SOL     OW 1076   1.594   1.976   1.480
  352SOL    HW1 1077   1.576   2.043   1.408
  352SOL    HW2 1078   1.591   2.022   1.569
  353SOL     OW 1079   0.122   2.505   0.563
  353SOL    HW1 1080   0.077   2.417   0.580
  353SOL    HW2 1081   0.121   2.559   0.647
  354SOL     OW 1082   1.689   2.784   0.612
  354SOL    HW1 1083   1.784   2.755   0.620
  354SOL    HW2 1084   1.681   2.849   0.537
  355SOL     OW 1085   0.113   2.599   1.597
  355SOL    HW1 1086   0.201   2.586   1.642
  355SOL    HW2 1087   0.100   2.696   1.575
  356SOL     OW 1088   1.293   3.090   1.423
  356SOL    HW1 1089   1.330   3.017   1.365
  356SOL    HW2 1090   1.345   3.095   1.508
  357SOL     OW 1091   0.809   1.866   0.502
  357SOL    HW1 1092   0.849   1.957   0.493
  357SOL    HW2 1093   0.709   1.874   0.508
  358SOL     OW 1094   0.197   2.838   1.264
  358SOL    HW1 1095   0.286   2.793   1.250
  358SOL    HW2 1096   0.124   2.773   1.245
  359SOL     OW 1097   1.525   2.861   0.190
  359SOL    HW1 1098   1.462   2.785   0.203
  359SOL    HW2 1099   1.573   2.879   0.276
  360SOL     OW 1100   0.317   2.113   1.801
  360SOL    HW1 1101   0.388   2.184   1.807
  360SOL    HW2 1102   0.229   2.152   1.829
  361SOL     OW 1103   0.598   2.591   0.270
  361SOL    HW1 1104   0.622   2.660   0.202
  361SOL    HW2 1105   0.520   2.624   0.324
  362SOL     OW 1106   1.281   2.207   0.944
  362SOL    HW1 1107   1.195   2.157   0.931
  362SOL    HW2 1108   1.343   2.153   1.000
  363SOL     OW 1109   0.807   2.467   1.465
  363SOL    HW1 1110   0.760   2.464   1.554
  363SOL    HW2 1111   0.756   2.412   1.399
  364SOL     OW 1112   1.394   2.331   1.674
  364SOL    HW1 1113   1.374   2.374   1.762
  364SOL    HW2 1114   1.472   2.269   1.683
  365SOL     OW 1115   0.973   2.752   1.572
  365SOL    HW1 1116   1.019   2.668   1.543
  365SOL    HW2 1117   0.917   2.786   1.497
  366SOL     OW 1118   0.991   2.272   1.242
  366SOL    HW1 1119   0.914   2.306   1.296
  366SOL    HW2 1120   0.957   2.221   1.163
  367SOL     OW 1121   1.041   2.563   0.429
  367SOL    HW1 1122   1.067   2.559   0.525
  367SOL    HW2 1123   0.956   2.512   0.415
  368SOL     OW 1124   0.076   2.673   0.789
  368SOL    HW1 1125   0.175   2.661   0.798
  368SOL    HW2 1126   0.052   2.768   0.810
  369SOL     OW 1127   0.865   2.210   0.195
  369SOL    HW1 1128   0.924   2.273   0.146
  369SOL    HW2 1129   0.884   2.116   0.166
  370SOL     OW 1130   1.719   2.447   1.831
  370SOL    HW1 1131   1.693   2.536   1.795
  370SOL    HW2 1132   1.717   2.379   1.758
  371SOL     OW 1133   0.550   2.058   0.885
  371SOL    HW1 1134   0.545   2.053   0.985
  371SOL    HW2 1135   0.552   2.154   0.856
  372SOL     OW 1136   1.795   2.928   0.873
  372SOL    HW1 1137   1.733   2.913   0.797
  372SOL    HW2 1138   1.743   2.939   0.958
  373SOL     OW 1139   0.321   2.805   0.242
  373SOL    HW1 1140   0.403   2.844   0.200
  373SOL    HW2 1141   0.294   2.723   0.193
  374SOL     OW 1142   1.458   2.597   0.728
  374SOL    HW1 1143   1.453   2.532   0.803
  374SOL    HW2 1144   1.538   2.656   0.741
  375SOL     OW 1145   0.202   2.147   1.498
  375SOL    HW1 1146   0.122   2.207   1.485
  375SOL    HW2 1147   0.192   2.098   1.584
  376SOL     OW 1148   1.400   1.969   0.426
  376SOL    HW1 1149   1.376   1.932   0.336
  376SOL    HW2 1150   1.499   1.985   0.430
  377SOL     OW 1151   0.382   2.562   0.480
  377SOL    HW1 1152   0.427   2.472   0.477
  377SOL    HW2 1153   0.288   2.551   0.513
  378SOL     OW 1154   1.547   2.084   1.729
  378SOL    HW1 1155   1.542   2.121   1.821
  378SOL    HW2 1156   1.475   2.015   1.717
  379SOL     OW 1157   0.614   1.984   0.117
  379SOL    HW1 1158   0.712   1.962   0.124
  379SOL    HW2 1159   0.583   1.967   0.024
  380SOL     OW 1160   0.781   2.126   1.749
  380SOL    HW1 1161   0.848   2.065   1.792
  380SOL    HW2 1162   0.708   2.145   1.814
  381SOL     OW 1163   1.351   2.452   1.433
  381SOL    HW1 1164   1.379   2.409   1.518
  381SOL    HW2 1165   1.376   2.548   1.434
  382SOL     OW 1166   0.922   2.365   0.899
  382SOL    HW1 1167   0.897   2.356   0.803
  382SOL    HW2 1168   0.970   2.283   0.930
  383SOL     OW 1169   0.539   1.926   0.512
  383SOL    HW1 1170   0.458   1.927   0.570
  383SOL    HW2 1171   0.542   2.009   0.457
  384SOL     OW 1172   0.935   2.098   0.480
  384SOL    HW1 1173   0.887   2.139   0.402
  384SOL    HW2 1174   1.034   2.096   0.461
  385SOL     OW 1175   1.076   2.545   1.464
  385SOL    HW1 1176   0.996   2.484   1.467
  385SOL    HW2 1177   1.157   2.492   1.440
  386SOL     OW 1178   0.459   3.014   0.741
  386SOL    HW1 1179   0.388   2.987   0.806
  386SOL    HW2 1180   0.433   2.986   0.648
  387SOL     OW 1181   1.032   2.411   0.016
  387SOL    HW1 1182   0.991   2.493  -0.023
  387SOL    HW2 1183   1.096   2.437   0.089
  388SOL     OW 1184   0.078   2.418   1.386
  388SOL    HW1 1185   0.170   2.417   1.345
  388SOL    HW2 1186   0.072   2.492   1.453
  389SOL     OW 1187   0.561   2.084   1.147
  389SOL    HW1 1188   0.599   2.000   1.184
  389SOL    HW2 1189   0.473   2.103   1.191
  390SOL     OW 1190   0.866   2.316   0.642
  390SOL    HW1 1191   0.834   2.388   0.580
  390SOL    HW2 1192   0.890   2.235   0.589
  391SOL     OW 1193   1.017   1.901   0.753
  391SOL    HW1 1194   0.945   1.906   0.684
  391SOL    HW2 1195   0.993   1.832   0.822
  392SOL     OW 1196   1.429   3.035   0.867
  392SOL    HW1 1197   1.374   2.951   0.860
  392SOL    HW2 1198   1.455   3.064   0.775
  393SOL     OW 1199   1.466   2.452   0.992
  393SOL    HW1 1200   1.436   2.357   0.999
  393SOL    HW2 1201   1.539   2.468   1.058
  394SOL     OW 1202   1.857   2.695   0.377
  394SOL    HW1 1203   1.899   2.631   0.441
  394SOL    HW2 1204   1.819   2.644   0.299
  395SOL     OW 1205   1.390   2.437   0.078
  395SOL    HW1 1206   1.336   2.416   0.159
  395SOL    HW2 1207   1.481   2.396   0.087
  396SOL     OW 1208   0.527   2.118   0.328
  396SOL    HW1 1209   0.554   2.059   0.253
  396SOL    HW2 1210   0.527   2.213   0.297
  397SOL     OW 1211   1.754   3.085   1.588
  397SOL    HW1 1212   1.845   3.046   1.575
  397SOL    HW2 1213   1.762   3.181   1.612
  398SOL     OW 1214   1.638   2.961   1.079
  398SOL    HW1 1215   1.643   3.042   1.138
  398SOL    HW2 1216   1.552   2.963   1.028
  399SOL     OW 1217   0.915   1.951   1.402
  399SOL    HW1 1218   0.940   1.931   1.307
  399SOL    HW2 1219   0.987   2.007   1.444
  400SOL     OW 1220   0.705   2.912   0.368
  400SOL    HW1 1221   0.691   2.919   0.467
  400SOL    HW2 1222   0.789   2.861   0.350
  401SOL     OW 1223   0.410   2.675   1.251
  401SOL    HW1 1224   0.496   2.687   1.301
  401SOL    HW2 1225   0.368   2.588   1.278
  402SOL     OW 1226   1.274   2.248   1.262
  402SOL    HW1 1227   1.295   2.322   1.326
  402SOL    HW2 1228   1.185   2.265   1.219
  403SOL     OW 1229   0.367   2.962   0.501
  403SOL    HW1 1230   0.360   3.045   0.445
  403SOL    HW2 1231   0.371   2.882   0.441
  404SOL     OW 1232   0.566   2.399   0.865
  404SOL    HW1 1233   0.578   2.465   0.791
  404SOL    HW2 1234   0.612   2.433   0.948
  405SOL     OW 1235   1.582   2.501   0.472
  405SOL    HW1 1236   1.551   2.562   0.545
  405SOL    HW2 1237   1.632   2.553   0.403
  406SOL     OW 1238   0.402   2.613   1.598
  406SOL    HW1 1239   0.470   2.668   1.551
  406SOL    HW2 1240   0.442   2.525   1.625
  407SOL     OW 1241   1.587   2.641   1.670
  407SOL    HW1 1242   1.495   2.679   1.665
  407SOL    HW2 1243   1.647   2.688   1.605
  408SOL     OW 1244   1.013   1.967   1.770
  408SOL    HW1 1245   1.019   2.052   1.718
  408SOL    HW2 1246   1.045   1.891   1.713
  409SOL     OW 1247   0.504   1.912   1.740
  409SOL    HW1 1248   0.462   1.855   1.670
  409SOL    HW2 1249   0.438   1.981   1.772
  410SOL     OW 1250   0.573   2.732   1.029
  410SOL    HW1 1251   0.617   2.821   1.020
  410SOL    HW2 1252   0.510   2.732   1.106
  411SOL     OW 1253   1.360   2.724   1.045
  411SOL    HW1 1254   1.285   2.724   0.979
  411SOL    HW2 1255   1.397   2.632   1.054
  412SOL     OW 1256   1.209   2.387   0.275
  412SOL    HW1 1257   1.222   2.303   0.329
  412SOL    HW2 1258   1.180   2.461   0.335
  413SOL     OW 1259   0.307   2.075   1.231
  413SOL    HW1 1260   0.284   2.112   1.321
  413SOL    HW2 1261   0.277   1.980   1.225
  414SOL     OW 1262   0.037   3.172   1.282
  414SOL    HW1 1263   0.090   3.123   1.350
  414SOL    HW2 1264   0.059   3.270   1.287
  415SOL     OW 1265   0.732   2.496   1.064
  415SOL    HW1 1266   0.791   2.470   0.988
  415SOL    HW2 1267   0.704   2.592   1.053
  416SOL     OW 1268   1.728   2.797   1.854
  416SOL    HW1 1269   1.682   2.790   1.765
  416SOL    HW2 1270   1.666   2.841   1.920
  417SOL     OW 1271   0.307   1.925   0.618
  417SOL    HW1 1272   0.296   2.019   0.651
  417SOL    HW2 1273   0.302   1.862   0.695
  418SOL     OW 1274   1.622   2.229   0.374
  418SOL    HW1 1275   1.624   2.153   0.438
  418SOL    HW2 1276   1.574   2.306   0.414
  419SOL     OW 1277   1.023   2.628   0.966
  419SOL    HW1 1278   1.038   2.649   1.062
  419SOL    HW2 1279   0.993   2.533   0.957
  420SOL     OW 1280   0.350   2.760   1.804
  420SOL    HW1 1281   0.426   2.804   1.852
  420SOL    HW2 1282   0.385   2.713   1.722
  421SOL     OW 1283   1.540   2.136   0.125
  421SOL    HW1 1284   1.479   2.061   0.148
  421SOL    HW2 1285   1.562   2.188   0.208
  422SOL     OW 1286   1.303   2.700   0.042
  422SOL    HW1 1287   1.337   2.607   0.057
  422SOL    HW2 1288   1.321   2.727  -0.053
  423SOL     OW 1289   0.319   2.672   0.949
  423SOL    HW1 1290   0.412   2.708   0.954
  423SOL    HW2 1291   0.313   2.587   1.001
  424SOL     OW 1292   0.339   2.371   1.006
  424SOL    HW1 1293   0.287   2.288   0.989
  424SOL    HW2 1294   0.416   2.376   0.942
  425SOL     OW 1295   1.138   2.242   1.678
  425SOL    HW1 1296   1.093   2.305   1.742
  425SOL    HW2 1297   1.231   2.273   1.661
  426SOL     OW 1298   1.160   2.069   1.477
  426SOL    HW1 1299   1.160   2.133   1.554
  426SOL    HW2 1300   1.188   2.117   1.394
  427SOL     OW 1301   1.002   2.658   1.238
  427SOL    HW1 1302   1.043   2.626   1.324
  427SOL    HW2 1303   0.906   2.631   1.235
  428SOL     OW 1304   0.040   2.406   1.114
  428SOL    HW1 1305   0.125   2.373   1.073
  428SOL    HW2 1306   0.053   2.421   1.212
  429SOL     OW 1307   0.189   2.382   1.722
  429SOL    HW1 1308   0.248   2.342   1.652
  429SOL    HW2 1309   0.131   2.453   1.681
  430SOL     OW 1310   1.369   2.812   1.660
  430SOL    HW1 1311   1.408   2.901   1.680
  430SOL    HW2 1312   1.379   2.792   1.563
  431SOL     OW 1313   0.815   2.434   0.325
  431SOL    HW1 1314   0.822   2.345   0.279
  431SOL    HW2 1315   0.721   2.468   0.317
  432SOL     OW 1316   1.657   2.466   1.206
  432SOL    HW1 1317   1.619   2.397   1.268
  432SOL    HW2 1318   1.739   2.430   1.162
  433SOL     OW 1319   0.671   2.326   1.269
  433SOL    HW1 1320   0.637   2.237   1.239
  433SOL    HW2 1321   0.697   2.380   1.189
  434SOL     OW 1322   0.473   2.362   0.191
  434SOL    HW1 1323   0.534   2.442   0.195
  434SOL    HW2 1324   0.378   2.393   0.198
  435SOL     OW 1325   0.159   2.999   1.466
  435SOL    HW1 1326   0.181   2.938   1.542
  435SOL    HW2 1327   0.169   2.950   1.380
  436SOL     OW 1328   1.347   2.921   1.234
  436SOL    HW1 1329   1.371   2.858   1.160
  436SOL    HW2 1330   1.257   2.961   1.216
  437SOL     OW 1331   1.302   2.717   0.309
  437SOL    HW1 1332   1.216   2.686   0.351
  437SOL    HW2 1333   1.298   2.703   0.210
  438SOL     OW 1334   0.083   3.120   1.022
  438SOL    HW1 1335   0.078   3.119   1.122
  438SOL    HW2 1336   0.000   3.079   0.984
  439SOL     OW 1337   0.903   1.948   0.133
  439SOL    HW1 1338   0.954   1.949   0.047
  439SOL    HW2 1339   0.959   1.906   0.204
  440SOL     OW 1340   1.726   1.997   0.523
  440SOL    HW1 1341   1.799   1.980   0.456
  440SOL    HW2 1342   1.695   1.910   0.561
  441SOL     OW 1343   1.280   2.789   0.672
  441SOL    HW1 1344   1.340   2.708   0.674
  441SOL    HW2 1345   1.320   2.858   0.612
  442SOL     OW 1346   1.841   2.037   0.963
  442SOL    HW1 1347   1.880   1.952   0.927
  442SOL    HW2 1348   1.743   2.039   0.944
  443SOL     OW 1349   0.263   2.188   0.720
  443SOL    HW1 1350   0.184   2.239   0.686
  443SOL    HW2 1351   0.254   2.173   0.818
  444SOL     OW 1352   0.822   2.864   1.372
  444SOL    HW1 1353   0.862   2.863   1.280
  444SOL    HW2 1354   0.832   2.956   1.412
  445SOL     OW 1355   0.916   2.772   0.291
  445SOL    HW1 1356   0.979   2.810   0.223
  445SOL    HW2 1357   0.956   2.689   0.330
  446SOL     OW 1358   0.372   3.150   1.490
  446SOL    HW1 1359   0.359   3.243   1.456
  446SOL    HW2 1360   0.288   3.098   1.477
  447SOL     OW 1361   1.014   2.098   0.971
  447SOL    HW1 1362   1.006   2.062   0.878
  447SOL    HW2 1363   1.012   2.022   1.036
  448SOL     OW 1364   1.709   2.247   1.381
  448SOL    HW1 1365   1.782   2.316   1.385
  448SOL    HW2 1366   1.737   2.172   1.322
  449SOL     OW 1367   0.105   2.875   1.726
  449SOL    HW1 1368   0.028   2.842   1.780
  449SOL    HW2 1369   0.190   2.845   1.768
  450SOL     OW 1370   0.672   2.065   1.489
  450SOL    HW1 1371   0.762   2.049   1.449
  450SOL    HW2 1372   0.680   2.070   1.588
  451SOL     OW 1373   0.075   2.207   0.033
  451SOL    HW1 1374  -0.017   2.179   0.004
  451SOL    HW2 1375   0.106   2.284  -0.023
  452SOL     OW 1376   1.440   2.718   1.398
  452SOL    HW1 1377   1.383   2.770   1.335
  452SOL    HW2 1378   1.536   2.730   1.374
  453SOL     OW 1379   0.072   2.028   0.318
  453SOL    HW1 1380   0.055   2.111   0.264
  453SOL    HW2 1381   0.162   1.991   0.296
  454SOL     OW 1382   1.183   3.197   0.119
  454SOL    HW1 1383   1.084   3.186   0.121
  454SOL    HW2 1384   1.217   3.212   0.212
  455SOL     OW 1385   0.613   2.704   1.431
  455SOL    HW1 1386   0.669   2.785   1.414
  455SOL    HW2 1387   0.672   2.624   1.434
  456SOL     OW 1388   0.716   2.427   1.708
  456SOL    HW1 1389   0.735   2.492   1.782
  456SOL    HW2 1390   0.776   2.347   1.717
  457SOL     OW 1391   1.674   2.745   1.254
  457SOL    HW1 1392   1.647   2.656   1.217
  457SOL    HW2 1393   1.675   2.813   1.181
  458SOL     OW 1394   1.225   2.187   0.449
  458SOL    HW1 1395   1.290   2.113   0.438
  458SOL    HW2 1396   1.245   2.237   0.533
  459SOL     OW 1397   0.594   2.607   0.652
  459SOL    HW1 1398   0.644   2.692   0.633
  459SOL    HW2 1399   0.506   2.609   0.604
  460SOL     OW 1400   1.777   2.204   1.642
  460SOL    HW1 1401   1.760   2.235   1.548
  460SOL    HW2 1402   1.693   2.167   1.680
  461SOL     OW 1403   1.730   2.796   1.517
  461SOL    HW1 1404   1.768   2.887   1.532
  461SOL    HW2 1405   1.722   2.779   1.418
  462SOL     OW 1406   0.859   2.818   0.861
  462SOL    HW1 1407   0.913   2.749   0.909
  462SOL    HW2 1408   0.827   2.887   0.927
  463SOL     OW 1409   1.083   2.846   0.087
  463SOL    HW1 1410   1.060   2.899   0.005
  463SOL    HW2 1411   1.164   2.790   0.068
  464SOL     OW 1412   1.824   2.054   1.227
  464SOL    HW1 1413   1.820   1.964   1.271
  464SOL    HW2 1414   1.827   2.043   1.128
  465SOL     OW 1415   0.428   2.286   0.520
  465SOL    HW1 1416   0.458   2.214   0.458
  465SOL    HW2 1417   0.389   2.246   0.603
  466SOL     OW 1418   0.317   2.409   1.280
  466SOL    HW1 1419   0.355   2.350   1.352
  466SOL    HW2 1420   0.357   2.383   1.192
  467SOL     OW 1421   1.424   2.076   1.112
  467SOL    HW1 1422   1.476   2.011   1.167
  467SOL    HW2 1423   1.375   2.139   1.173
  468SOL     OW 1424   1.001   1.896   1.154
  468SOL    HW1 1425   0.938   1.824   1.123
  468SOL    HW2 1426   1.094   1.860   1.154
  469SOL     OW 1427   0.770   3.192   0.301
  469SOL    HW1 1428   0.724   3.105   0.318
  469SOL    HW2 1429   0.861   3.189   0.342
  470SOL     OW 1430   1.352   1.914   0.168
  470SOL    HW1 1431   1.387   1.873   0.084
  470SOL    HW2 1432   1.262   1.876   0.188
  471SOL     OW 1433   1.300   2.315   0.691
  471SOL    HW1 1434   1.241   2.395   0.695
  471SOL    HW2 1435   1.315   2.280   0.784
  472SOL     OW 1436   1.593   2.083   0.882
  472SOL    HW1 1437   1.509   2.082   0.936
  472SOL    HW2 1438   1.595   2.166   0.826
  473SOL     OW 1439   0.039   2.939   0.300
  473SOL    HW1 1440   0.138   2.928   0.291
  473SOL    HW2 1441  -0.001   2.853   0.332
  474SOL     OW 1442   0.230   2.490   1.975
  474SOL    HW1 1443   0.137   2.488   2.012
  474SOL    HW2 1444   0.231   2.451   1.883
  475SOL     OW 1445   0.225   2.137   2.858
  475SOL    HW1 1446   0.260   2.120   2.950
  475SOL    HW2 1447   0.137   2.092   2.846
  476SOL     OW 1448   0.019   2.230   2.509
  476SOL    HW1 1449  -0.063   2.273   2.548
  476SOL    HW2 1450  -0.009   2.157   2.446
  477SOL     OW 1451   1.135   2.565   2.579
  477SOL    HW1 1452   1.192   2.643   2.554
  477SOL    HW2 1453   1.075   2.591   2.655
  478SOL     OW 1454   1.755   2.469   2.093
  478SOL    HW1 1455   1.743   2.456   1.994
  478SOL    HW2 1456   1.725   2.388   2.142
  479SOL     OW 1457   0.768   3.006   2.885
  479SOL    HW1 1458   0.690   3.023   2.945
  479SOL    HW2 1459   0.802   3.093   2.849
  480SOL     OW 1460   0.685   2.874   2.527
  480SOL    HW1 1461   0.754   2.858   2.597
  480SOL    HW2 1462   0.612   2.931   2.565
  481SOL     OW 1463   1.603   2.309   2.599
  481SOL    HW1 1464   1.529   2.355   2.549
  481SOL    HW2 1465   1.654   2.377   2.652
  482SOL     OW 1466   0.230   3.296   2.400
  482SOL    HW1 1467   0.204   3.392   2.400
  482SOL    HW2 1468   0.159   3.242   2.445
  483SOL     OW 1469   0.240   2.953   2.748
  483SOL    HW1 1470   0.254   2.869   2.800
  483SOL    HW2 1471   0.185   3.017   2.803
  484SOL     OW 1472   0.606   2.826   1.985
  484SOL    HW1 1473   0.613   2.910   1.931
  484SOL    HW2 1474   0.652   2.839   2.073
  485SOL     OW 1475   0.122   2.505   2.425
  485SOL    HW1 1476   0.077   2.417   2.442
  485SOL    HW2 1477   0.121   2.559   2.509
  486SOL     OW 1478   1.689   2.784   2.474
  486SOL    HW1 1479   1.784   2.755   2.482
  486SOL    HW2 1480   1.681   2.849   2.399
  487SOL     OW 1481   0.809   1.866   2.364
  487SOL    HW1 1482   0.849   1.957   2.355
  487SOL    HW2 1483   0.709   1.874   2.370
  488SOL     OW 1484   0.197   2.838   3.126
  488SOL    HW1 1485   0.286   2.793   3.112
  488SOL    HW2 1486   0.124   2.773   3.107
  489SOL     OW 1487   1.525   2.861   2.052
  489SOL    HW1 1488   1.462   2.785   2.065
  489SOL    HW2 1489   1.573   2.879   2.138
  490SOL     OW 1490   0.598   2.591   2.132
  490SOL    HW1 1491   0.622   2.660   2.064
  490SOL    HW2 1492   0.520   2.624   2.186
  491SOL     OW 1493   1.281   2.207   2.806
  491SOL    HW1 1494   1.195   2.157   2.793
  491SOL    HW2 1495   1.343   2.153   2.862
  492SOL     OW 1496   1.041   2.563   2.291
  492SOL    HW1 1497   1.067   2.559   2.387
  492SOL    HW2 1498   0.956   2.512   2.277
  493SOL     OW 1499   0.076   2.673   2.651
  493SOL    HW1 1500   0.175   2.661   2.660
  493SOL    HW2 1501   0.052   2.768   2.672
  494SOL     OW 1502   0.865   2.210   2.057
  494SOL    HW1 1503   0.924   2.273   2.008
  494SOL    HW2 1504   0.884   2.116   2.028
  495SOL     OW 1505   0.550   2.058   2.747
  495SOL    HW1 1506   0.545   2.053   2.847
  495SOL    HW2 1507   0.552   2.154   2.718
  496SOL     OW 1508   1.795   2.928   2.735
  496SOL    HW1 1509   1.733   2.913   2.659
  496SOL    HW2 1510   1.743   2.939   2.820
  497SOL     OW 1511   0.321   2.805   2.104
  497SOL    HW1 1512   0.403   2.844   2.062
  497SOL    HW2 1513   0.294   2.723   2.055
  498SOL     OW 1514   1.458   2.597   2.590
  498SOL    HW1 1515   1.453   2.532   2.665
  498SOL    HW2 1516   1.538   2.656   2.603
  499SOL     OW 1517   1.400   1.969   2.288
  499SOL    HW1 1518   1.376   1.932   2.198
  499SOL    HW2 1519   1.499   1.985   2.292
  500SOL     OW 1520   0.382   2.562   2.342
  500SOL    HW1 1521   0.427   2.472   2.339
  500SOL    HW2 1522   0.288   2.551   2.375
  501SOL     OW 1523   0.614   1.984   1.979
  501SOL    HW1 1524   0.712   1.962   1.986
  501SOL    HW2 1525   0.583   1.967   1.886
  502SOL     OW 1526   0.922   2.365   2.761
  502SOL    HW1 1527   0.897   2.356   2.665
  502SOL    HW2 1528   0.970   2.283   2.792
  503SOL     OW 1529   0.539   1.926   2.374
  503SOL    HW1 1530   0.458   1.927   2.432
  503SOL    HW2 1531   0.542   2.009   2.319
  504SOL     OW 1532   0.297   1.897   2.033
  504SOL    HW1 1533   0.346   1.981   2.012
  504SOL    HW2 1534   0.359   1.832   2.078
  505SOL     OW 1535   0.935   2.098   2.342
  505SOL    HW1 1536   0.887   2.139   2.264
  505SOL    HW2 1537   1.034   2.096   2.323
  506SOL     OW 1538   0.459   3.014   2.603
  506SOL    HW1 1539   0.388   2.987   2.668
  506SOL    HW2 1540   0.433   2.986   2.510
  507SOL     OW 1541   1.032   2.411   1.878
  507SOL    HW1 1542   0.991   2.493   1.839
  507SOL    HW2 1543   1.096   2.437   1.951
  508SOL     OW 1544   0.866   2.316   2.504
  508SOL    HW1 1545   0.834   2.388   2.442
  508SOL    HW2 1546   0.890   2.235   2.451
  509SOL     OW 1547   1.017   1.901   2.615
  509SOL    HW1 1548   0.945   1.906   2.546
  509SOL    HW2 1549   0.993   1.832   2.684
  510SOL     OW 1550   1.429   3.035   2.729
  510SOL    HW1 1551   1.374   2.951   2.722
  510SOL    HW2 1552   1.455   3.064   2.637
  511SOL     OW 1553   1.466   2.452   2.854
  511SOL    HW1 1554   1.436   2.357   2.861
  511SOL    HW2 1555   1.539   2.468   2.920
  512SOL     OW 1556   1.857   2.695   2.239
  512SOL    HW1 1557   1.899   2.631   2.303
  512SOL    HW2 1558   1.819   2.644   2.161
  513SOL     OW 1559   1.390   2.437   1.940
  513SOL    HW1 1560   1.336   2.416   2.021
  513SOL    HW2 1561   1.481   2.396   1.949
  514SOL     OW 1562   0.527   2.118   2.190
  514SOL    HW1 1563   0.554   2.059   2.115
  514SOL    HW2 1564   0.527   2.213   2.159
  515SOL     OW 1565   1.638   2.961   2.941
  515SOL    HW1 1566   1.643   3.042   3.000
  515SOL    HW2 1567   1.552   2.963   2.890
  516SOL     OW 1568   0.705   2.912   2.230
  516SOL    HW1 1569   0.691   2.919   2.329
  516SOL    HW2 1570   0.789   2.861   2.212
  517SOL     OW 1571   0.410   2.675   3.113
  517SOL    HW1 1572   0.496   2.687   3.163
  517SOL    HW2 1573   0.368   2.588   3.140
  518SOL     OW 1574   0.367   2.962   2.363
  518SOL    HW1 1575   0.360   3.045   2.307
  518SOL    HW2 1576   0.371   2.882   2.303
  519SOL     OW 1577   0.566   2.399   2.727
  519SOL    HW1 1578   0.578   2.465   2.653
  519SOL    HW2 1579   0.612   2.433   2.810
  520SOL     OW 1580   1.582   2.501   2.334
  520SOL    HW1 1581   1.551   2.562   2.407
  520SOL    HW2 1582   1.632   2.553   2.265
  521SOL     OW 1583   0.573   2.732   2.891
  521SOL    HW1 1584   0.617   2.821   2.882
  521SOL    HW2 1585   0.510   2.732   2.968
  522SOL     OW 1586   1.209   2.387   2.137
  522SOL    HW1 1587   1.222   2.303   2.191
  522SOL    HW2 1588   1.180   2.461   2.197
  523SOL     OW 1589   0.307   2.075   3.093
  523SOL    HW1 1590   0.284   2.112   3.183
  523SOL    HW2 1591   0.277   1.980   3.087
  524SOL     OW 1592   0.732   2.496   2.926
  524SOL    HW1 1593   0.791   2.470   2.850
  524SOL    HW2 1594   0.704   2.592   2.915
  525SOL     OW 1595   0.307   1.925   2.480
  525SOL    HW1 1596   0.296   2.019   2.513
  525SOL    HW2 1597   0.302   1.862   2.557
  526SOL     OW 1598   1.622   2.229   2.236
  526SOL    HW1 1599   1.624   2.153   2.300
  526SOL    HW2 1600   1.574   2.306   2.276
  527SOL     OW 1601   1.023   2.628   2.828
  527SOL    HW1 1602   1.038   2.649   2.924
  527SOL    HW2 1603   0.993   2.533   2.819
  528SOL     OW 1604   1.540   2.136   1.987
  528SOL    HW1 1605   1.479   2.061   2.010
  528SOL    HW2 1606   1.562   2.188   2.070
  529SOL     OW 1607   1.303   2.700   1.904
  529SOL    HW1 1608   1.337   2.607   1.919
  529SOL    HW2 1609   1.321   2.727   1.809
  530SOL     OW 1610   0.319   2.672   2.811
  530SOL    HW1 1611   0.412   2.708   2.816
  530SOL    HW2 1612   0.313   2.587   2.863
  531SOL     OW 1613   0.339   2.371   2.868
  531SOL    HW1 1614   0.287   2.288   2.851
  531SOL    HW2 1615   0.416   2.376   2.804
  532SOL     OW 1616   1.002   2.658   3.100
  532SOL    HW1 1617   1.043   2.626   3.186
  532SOL    HW2 1618   0.906   2.631   3.097
  533SOL     OW 1619   0.815   2.434   2.187
  533SOL    HW1 1620   0.822   2.345   2.141
  533SOL    HW2 1621   0.721   2.468   2.179
  534SOL     OW 1622   0.671   2.326   3.131
  534SOL    HW1 1623   0.637   2.237   3.101
  534SOL    HW2 1624   0.697   2.380   3.051
  535SOL     OW 1625   0.473   2.362   2.053
  535SOL    HW1 1626   0.534   2.442   2.057
  535SOL    HW2 1627   0.378   2.393   2.060
  536SOL     OW 1628   1.302   2.717   2.171
  536SOL    HW1 1629   1.216   2.686   2.213
  536SOL    HW2 1630   1.298   2.703   2.072
  537SOL     OW 1631   0.083   3.120   2.884
  537SOL    HW1 1632   0.078   3.119   2.984
  537SOL    HW2 1633   0.000   3.079   2.846
  538SOL     OW 1634   1.726   1.997   2.385
  538SOL    HW1 1635   1.799   1.980   2.318
  538SOL    HW2 1636   1.695   1.910   2.423
  539SOL     OW 1637   1.280   2.789   2.534
  539SOL    HW1 1638   1.340   2.708   2.536
  539SOL    HW2 1639   1.320   2.858   2.474
  540SOL     OW 1640   1.841   2.037   2.825
  540SOL    HW1 1641   1.880   1.952   2.789
  540SOL    HW2 1642   1.743   2.039   2.806
  541SOL     OW 1643   0.263   2.188   2.582
  541SOL    HW1 1644   0.184   2.239   2.548
  541SOL    HW2 1645   0.254   2.173   2.680
  542SOL     OW 1646   0.916   2.772   2.153
  542SOL    HW1 1647   0.979   2.810   2.085
  542SOL    HW2 1648   0.956   2.689   2.192
  543SOL     OW 1649   1.014   2.098   2.833
  543SOL    HW1 1650   1.006   2.062   2.740
  543SOL    HW2 1651   1.012   2.022   2.898
  544SOL     OW 1652   0.075   2.207   1.895
  544SOL    HW1 1653  -0.017   2.179   1.866
  544SOL    HW2 1654   0.106   2.284   1.839
  545SOL     OW 1655   0.072   2.028   2.180
  545SOL    HW1 1656   0.055   2.111   2.126
  545SOL    HW2 1657   0.162   1.991   2.158
  546SOL     OW 1658   1.183   3.197   1.981
  546SOL    HW1 1659   1.084   3.186   1.983
  546SOL    HW2 1660   1.217   3.212   2.074
  547SOL     OW 1661   1.674   2.745   3.116
  547SOL    HW1 1662   1.647   2.656   3.079
  547SOL    HW2 1663   1.675   2.813   3.043
  548SOL     OW 1664   1.225   2.187   2.311
  548SOL    HW1 1665   1.290   2.113   2.300
  548SOL    HW2 1666   1.245   2.237   2.395
  549SOL     OW 1667   0.594   2.607   2.514
  549SOL    HW1 1668   0.644   2.692   2.495
  549SOL    HW2 1669   0.506   2.609   2.466
  550SOL     OW 1670   0.859   2.818   2.723
  550SOL    HW1 1671   0.913   2.749   2.771
  550SOL    HW2 1672   0.827   2.887   2.789
  551SOL     OW 1673   1.083   2.846   1.949
  551SOL    HW1 1674   1.060   2.899   1.867
  551SOL    HW2 1675   1.164   2.790   1.930
  552SOL     OW 1676   1.824   2.054   3.089
  552SOL    HW1 1677   1.820   1.964   3.133
  552SOL    HW2 1678   1.827   2.043   2.990
  553SOL     OW 1679   0.428   2.286   2.382
  553SOL    HW1 1680   0.458   2.214   2.320
  553SOL    HW2 1681   0.389   2.246   2.465
  554SOL     OW 1682   1.424   2.076   2.974
  554SOL    HW1 1683   1.476   2.011   3.029
  554SOL    HW2 1684   1.375   2.139   3.035
  555SOL     OW 1685   0.770   3.192   2.163
  555SOL    HW1 1686   0.724   3.105   2.180
  555SOL    HW2 1687   0.861   3.189   2.204
  556SOL     OW 1688   1.352   1.914   2.030
  556SOL    HW1 1689   1.387   1.873   1.946
  556SOL    HW2 1690   1.262   1.876   2.050
  557SOL     OW 1691   1.300   2.315   2.553
  557SOL    HW1 1692   1.241   2.395   2.557
  557SOL    HW2 1693   1.315   2.280   2.646
  558SOL     OW 1694   1.593   2.083   2.744
  558SOL    HW1 1695   1.509   2.082   2.798
  558SOL    HW2 1696   1.595   2.166   2.688
  559SOL     OW 1697   0.039   2.939   2.162
  559SOL    HW1 1698   0.138   2.928   2.153
  559SOL    HW2 1699  -0.001   2.853   2.194
  560SOL     OW 1700   2.092   0.628   0.113
  560SOL    HW1 1701   1.999   0.626   0.150
  560SOL    HW2 1702   2.093   0.589   0.021
  561SOL     OW 1703   2.087   0.275   0.996
  561SOL    HW1 1704   2.122   0.258   1.088
  561SOL    HW2 1705   1.999   0.230   0.984
  562SOL     OW 1706   1.881   0.368   0.647
  562SOL    HW1 1707   1.799   0.411   0.686
  562SOL    HW2 1708   1.853   0.295   0.584
  563SOL     OW 1709   2.431   1.275   1.165
  563SOL    HW1 1710   2.338   1.268   1.128
  563SOL    HW2 1711   2.442   1.364   1.209
  564SOL     OW 1712   2.630   1.144   1.023
  564SOL    HW1 1713   2.552   1.161   1.083
  564SOL    HW2 1714   2.664   1.231   0.987
  565SOL     OW 1715   2.712   0.798   1.823
  565SOL    HW1 1716   2.708   0.874   1.888
  565SOL    HW2 1717   2.734   0.834   1.732
  566SOL     OW 1718   2.547   1.012   0.665
  566SOL    HW1 1719   2.616   0.996   0.735
  566SOL    HW2 1720   2.474   1.069   0.703
  567SOL     OW 1721   2.548   1.161   1.803
  567SOL    HW1 1722   2.608   1.240   1.817
  567SOL    HW2 1723   2.462   1.192   1.762
  568SOL     OW 1724   2.197   1.435   1.061
  568SOL    HW1 1725   2.119   1.404   1.008
  568SOL    HW2 1726   2.255   1.493   1.004
  569SOL     OW 1727   2.300   0.392   1.499
  569SOL    HW1 1728   2.382   0.336   1.508
  569SOL    HW2 1729   2.219   0.334   1.503
  570SOL     OW 1730   2.093   1.713   0.483
  570SOL    HW1 1731   2.127   1.790   0.537
  570SOL    HW2 1732   2.137   1.713   0.393
  571SOL     OW 1733   2.989   1.341   1.690
  571SOL    HW1 1734   3.036   1.341   1.778
  571SOL    HW2 1735   2.941   1.254   1.679
  572SOL     OW 1736   2.092   1.434   0.538
  572SOL    HW1 1737   2.066   1.530   0.538
  572SOL    HW2 1738   2.021   1.380   0.583
  573SOL     OW 1739   2.102   1.091   0.886
  573SOL    HW1 1740   2.116   1.007   0.938
  573SOL    HW2 1741   2.047   1.155   0.941
  574SOL     OW 1742   2.482   1.786   1.439
  574SOL    HW1 1743   2.390   1.769   1.474
  574SOL    HW2 1744   2.510   1.878   1.465
  575SOL     OW 1745   2.468   0.964   0.123
  575SOL    HW1 1746   2.475   1.048   0.069
  575SOL    HW2 1747   2.514   0.977   0.211
  576SOL     OW 1748   1.984   0.643   0.563
  576SOL    HW1 1749   1.939   0.555   0.580
  576SOL    HW2 1750   1.983   0.697   0.647
  577SOL     OW 1751   1.889   1.596   0.117
  577SOL    HW1 1752   1.870   1.500   0.138
  577SOL    HW2 1753   1.856   1.654   0.192
  578SOL     OW 1754   1.975   0.737   1.597
  578SOL    HW1 1755   2.063   0.724   1.642
  578SOL    HW2 1756   1.962   0.834   1.575
  579SOL     OW 1757   2.475   1.365   0.726
  579SOL    HW1 1758   2.426   1.278   0.735
  579SOL    HW2 1759   2.452   1.408   0.639
  580SOL     OW 1760   2.671   0.004   0.502
  580SOL    HW1 1761   2.711   0.095   0.493
  580SOL    HW2 1762   2.571   0.012   0.508
  581SOL     OW 1763   2.059   0.976   1.264
  581SOL    HW1 1764   2.148   0.931   1.250
  581SOL    HW2 1765   1.986   0.911   1.245
  582SOL     OW 1766   2.179   0.251   1.801
  582SOL    HW1 1767   2.250   0.322   1.807
  582SOL    HW2 1768   2.091   0.290   1.829
  583SOL     OW 1769   2.460   0.729   0.270
  583SOL    HW1 1770   2.484   0.798   0.202
  583SOL    HW2 1771   2.382   0.762   0.324
  584SOL     OW 1772   2.669   0.605   1.465
  584SOL    HW1 1773   2.622   0.602   1.554
  584SOL    HW2 1774   2.618   0.550   1.399
  585SOL     OW 1775   2.835   0.890   1.572
  585SOL    HW1 1776   2.881   0.806   1.543
  585SOL    HW2 1777   2.779   0.924   1.497
  586SOL     OW 1778   2.853   0.410   1.242
  586SOL    HW1 1779   2.776   0.444   1.296
  586SOL    HW2 1780   2.819   0.359   1.163
  587SOL     OW 1781   2.903   0.701   0.429
  587SOL    HW1 1782   2.929   0.697   0.525
  587SOL    HW2 1783   2.818   0.650   0.415
  588SOL     OW 1784   1.938   0.811   0.789
  588SOL    HW1 1785   2.037   0.799   0.798
  588SOL    HW2 1786   1.914   0.906   0.810
  589SOL     OW 1787   1.992   1.821   1.571
  589SOL    HW1 1788   1.982   1.806   1.670
  589SOL    HW2 1789   1.906   1.857   1.535
  590SOL     OW 1790   2.727   0.348   0.195
  590SOL    HW1 1791   2.786   0.411   0.146
  590SOL    HW2 1792   2.746   0.254   0.166
  591SOL     OW 1793   2.412   0.196   0.885
  591SOL    HW1 1794   2.407   0.191   0.985
  591SOL    HW2 1795   2.414   0.292   0.856
  592SOL     OW 1796   2.870   1.456   0.477
  592SOL    HW1 1797   2.824   1.528   0.425
  592SOL    HW2 1798   2.866   1.476   0.575
  593SOL     OW 1799   2.213   1.801   0.853
  593SOL    HW1 1800   2.263   1.715   0.859
  593SOL    HW2 1801   2.278   1.878   0.850
  594SOL     OW 1802   2.183   0.943   0.242
  594SOL    HW1 1803   2.265   0.982   0.200
  594SOL    HW2 1804   2.156   0.861   0.193
  595SOL     OW 1805   2.323   1.266   1.727
  595SOL    HW1 1806   2.273   1.267   1.641
  595SOL    HW2 1807   2.260   1.248   1.803
  596SOL     OW 1808   2.064   0.285   1.498
  596SOL    HW1 1809   1.984   0.345   1.485
  596SOL    HW2 1810   2.054   0.236   1.584
  597SOL     OW 1811   2.326   1.743   0.323
  597SOL    HW1 1812   2.359   1.782   0.409
  597SOL    HW2 1813   2.402   1.736   0.258
  598SOL     OW 1814   2.111   1.785   1.241
  598SOL    HW1 1815   2.168   1.720   1.291
  598SOL    HW2 1816   2.095   1.752   1.148
  599SOL     OW 1817   2.802   1.698   0.904
  599SOL    HW1 1818   2.882   1.641   0.925
  599SOL    HW2 1819   2.753   1.658   0.827
  600SOL     OW 1820   2.244   0.700   0.480
  600SOL    HW1 1821   2.289   0.610   0.477
  600SOL    HW2 1822   2.150   0.689   0.513
  601SOL     OW 1823   2.476   0.122   0.117
  601SOL    HW1 1824   2.574   0.100   0.124
  601SOL    HW2 1825   2.445   0.105   0.024
  602SOL     OW 1826   2.643   0.264   1.749
  602SOL    HW1 1827   2.710   0.203   1.792
  602SOL    HW2 1828   2.570   0.283   1.814
  603SOL     OW 1829   2.750   1.514   1.195
  603SOL    HW1 1830   2.727   1.489   1.101
  603SOL    HW2 1831   2.811   1.445   1.234
  604SOL     OW 1832   2.665   1.402   0.924
  604SOL    HW1 1833   2.755   1.416   0.882
  604SOL    HW2 1834   2.594   1.404   0.853
  605SOL     OW 1835   2.784   0.503   0.899
  605SOL    HW1 1836   2.759   0.494   0.803
  605SOL    HW2 1837   2.832   0.421   0.930
  606SOL     OW 1838   2.401   0.064   0.512
  606SOL    HW1 1839   2.320   0.065   0.570
  606SOL    HW2 1840   2.404   0.147   0.457
  607SOL     OW 1841   3.296   1.188   0.041
  607SOL    HW1 1842   3.328   1.112   0.098
  607SOL    HW2 1843   3.204   1.215   0.071
  608SOL     OW 1844   2.159   0.035   0.171
  608SOL    HW1 1845   2.208   0.119   0.150
  608SOL    HW2 1846   2.221  -0.030   0.216
  609SOL     OW 1847   2.797   0.236   0.480
  609SOL    HW1 1848   2.749   0.277   0.402
  609SOL    HW2 1849   2.896   0.234   0.461
  610SOL     OW 1850   3.089   1.570   0.793
  610SOL    HW1 1851   3.110   1.644   0.728
  610SOL    HW2 1852   3.157   1.570   0.866
  611SOL     OW 1853   2.321   1.152   0.741
  611SOL    HW1 1854   2.250   1.125   0.806
  611SOL    HW2 1855   2.295   1.124   0.648
  612SOL     OW 1856   3.133   1.797   0.591
  612SOL    HW1 1857   3.177   1.861   0.527
  612SOL    HW2 1858   3.083   1.849   0.661
  613SOL     OW 1859   2.894   0.549   0.016
  613SOL    HW1 1860   2.853   0.631  -0.023
  613SOL    HW2 1861   2.958   0.575   0.089
  614SOL     OW 1862   1.940   0.556   1.386
  614SOL    HW1 1863   2.032   0.555   1.345
  614SOL    HW2 1864   1.934   0.630   1.453
  615SOL     OW 1865   2.423   0.222   1.147
  615SOL    HW1 1866   2.461   0.138   1.184
  615SOL    HW2 1867   2.335   0.241   1.191
  616SOL     OW 1868   2.728   0.454   0.642
  616SOL    HW1 1869   2.696   0.526   0.580
  616SOL    HW2 1870   2.752   0.373   0.589
  617SOL     OW 1871   2.879   0.039   0.753
  617SOL    HW1 1872   2.807   0.044   0.684
  617SOL    HW2 1873   2.855  -0.030   0.822
  618SOL     OW 1874   2.350   1.385   0.174
  618SOL    HW1 1875   2.263   1.370   0.221
  618SOL    HW2 1876   2.333   1.411   0.079
  619SOL     OW 1877   2.389   0.256   0.328
  619SOL    HW1 1878   2.416   0.197   0.253
  619SOL    HW2 1879   2.389   0.351   0.297
  620SOL     OW 1880   2.777   0.089   1.402
  620SOL    HW1 1881   2.802   0.069   1.307
  620SOL    HW2 1882   2.849   0.145   1.444
  621SOL     OW 1883   2.842   1.116   1.719
  621SOL    HW1 1884   2.743   1.122   1.729
  621SOL    HW2 1885   2.865   1.036   1.663
  622SOL     OW 1886   2.567   1.050   0.368
  622SOL    HW1 1887   2.553   1.057   0.467
  622SOL    HW2 1888   2.651   0.999   0.350
  623SOL     OW 1889   2.272   0.813   1.251
  623SOL    HW1 1890   2.358   0.825   1.301
  623SOL    HW2 1891   2.230   0.726   1.278
  624SOL     OW 1892   1.926   1.564   1.331
  624SOL    HW1 1893   1.880   1.646   1.297
  624SOL    HW2 1894   2.024   1.583   1.340
  625SOL     OW 1895   2.229   1.100   0.501
  625SOL    HW1 1896   2.222   1.183   0.445
  625SOL    HW2 1897   2.233   1.020   0.441
  626SOL     OW 1898   2.428   0.537   0.865
  626SOL    HW1 1899   2.440   0.603   0.791
  626SOL    HW2 1900   2.474   0.571   0.948
  627SOL     OW 1901   2.216   1.510   1.329
  627SOL    HW1 1902   2.195   1.466   1.242
  627SOL    HW2 1903   2.313   1.536   1.332
  628SOL     OW 1904   2.264   0.751   1.598
  628SOL    HW1 1905   2.332   0.806   1.551
  628SOL    HW2 1906   2.304   0.663   1.625
  629SOL     OW 1907   2.875   0.105   1.770
  629SOL    HW1 1908   2.881   0.190   1.718
  629SOL    HW2 1909   2.907   0.029   1.713
  630SOL     OW 1910   2.366   0.050   1.740
  630SOL    HW1 1911   2.324  -0.007   1.670
  630SOL    HW2 1912   2.300   0.119   1.772
  631SOL     OW 1913   2.435   0.870   1.029
  631SOL    HW1 1914   2.479   0.959   1.020
  631SOL    HW2 1915   2.372   0.870   1.106
  632SOL     OW 1916   3.071   0.525   0.275
  632SOL    HW1 1917   3.084   0.441   0.329
  632SOL    HW2 1918   3.042   0.599   0.335
  633SOL     OW 1919   2.169   0.213   1.231
  633SOL    HW1 1920   2.146   0.250   1.321
  633SOL    HW2 1921   2.139   0.118   1.225
  634SOL     OW 1922   1.899   1.310   1.282
  634SOL    HW1 1923   1.952   1.261   1.350
  634SOL    HW2 1924   1.921   1.408   1.287
  635SOL     OW 1925   2.594   0.634   1.064
  635SOL    HW1 1926   2.653   0.608   0.988
  635SOL    HW2 1927   2.566   0.730   1.053
  636SOL     OW 1928   2.169   0.063   0.618
  636SOL    HW1 1929   2.158   0.157   0.651
  636SOL    HW2 1930   2.164   0.000   0.695
  637SOL     OW 1931   2.885   0.766   0.966
  637SOL    HW1 1932   2.900   0.787   1.062
  637SOL    HW2 1933   2.855   0.671   0.957
  638SOL     OW 1934   2.842   1.573   1.700
  638SOL    HW1 1935   2.822   1.617   1.612
  638SOL    HW2 1936   2.881   1.482   1.684
  639SOL     OW 1937   2.212   0.898   1.804
  639SOL    HW1 1938   2.288   0.942   1.852
  639SOL    HW2 1939   2.247   0.851   1.722
  640SOL     OW 1940   2.930   1.333   0.849
  640SOL    HW1 1941   2.937   1.249   0.794
  640SOL    HW2 1942   2.992   1.402   0.813
  641SOL     OW 1943   2.181   0.810   0.949
  641SOL    HW1 1944   2.274   0.846   0.954
  641SOL    HW2 1945   2.175   0.725   1.001
  642SOL     OW 1946   2.201   0.509   1.006
  642SOL    HW1 1947   2.149   0.426   0.989
  642SOL    HW2 1948   2.278   0.514   0.942
  643SOL     OW 1949   3.000   0.380   1.678
  643SOL    HW1 1950   2.955   0.443   1.742
  643SOL    HW2 1951   3.093   0.411   1.661
  644SOL     OW 1952   1.870   1.326   0.200
  644SOL    HW1 1953   1.777   1.347   0.169
  644SOL    HW2 1954   1.880   1.227   0.213
  645SOL     OW 1955   1.950   1.801   0.927
  645SOL    HW1 1956   1.908   1.715   0.900
  645SOL    HW2 1957   2.044   1.804   0.893
  646SOL     OW 1958   2.366   1.568   0.910
  646SOL    HW1 1959   2.432   1.642   0.919
  646SOL    HW2 1960   2.410   1.489   0.868
  647SOL     OW 1961   2.864   0.796   1.238
  647SOL    HW1 1962   2.905   0.764   1.324
  647SOL    HW2 1963   2.768   0.769   1.235
  648SOL     OW 1964   1.902   0.544   1.114
  648SOL    HW1 1965   1.987   0.511   1.073
  648SOL    HW2 1966   1.915   0.559   1.212
  649SOL     OW 1967   2.051   0.520   1.722
  649SOL    HW1 1968   2.110   0.480   1.652
  649SOL    HW2 1969   1.993   0.591   1.681
  650SOL     OW 1970   2.677   0.572   0.325
  650SOL    HW1 1971   2.684   0.483   0.279
  650SOL    HW2 1972   2.583   0.606   0.317
  651SOL     OW 1973   2.114   1.564   1.744
  651SOL    HW1 1974   2.084   1.621   1.820
  651SOL    HW2 1975   2.107   1.467   1.770
  652SOL     OW 1976   2.533   0.464   1.269
  652SOL    HW1 1977   2.499   0.375   1.239
  652SOL    HW2 1978   2.559   0.518   1.189
  653SOL     OW 1979   2.792   1.678   1.465
  653SOL    HW1 1980   2.768   1.660   1.370
  653SOL    HW2 1981   2.822   1.772   1.475
  654SOL     OW 1982   2.335   0.500   0.191
  654SOL    HW1 1983   2.396   0.580   0.195
  654SOL    HW2 1984   2.240   0.531   0.198
  655SOL     OW 1985   2.021   1.137   1.466
  655SOL    HW1 1986   2.043   1.076   1.542
  655SOL    HW2 1987   2.031   1.088   1.380
  656SOL     OW 1988   3.164   0.855   0.309
  656SOL    HW1 1989   3.078   0.824   0.351
  656SOL    HW2 1990   3.160   0.841   0.210
  657SOL     OW 1991   1.945   1.258   1.022
  657SOL    HW1 1992   1.940   1.257   1.122
  657SOL    HW2 1993   1.862   1.217   0.984
  658SOL     OW 1994   2.550   1.662   1.716
  658SOL    HW1 1995   2.494   1.743   1.725
  658SOL    HW2 1996   2.602   1.666   1.630
  659SOL     OW 1997   2.765   0.086   0.133
  659SOL    HW1 1998   2.816   0.087   0.047
  659SOL    HW2 1999   2.821   0.044   0.204
  660SOL     OW 2000   1.992   1.794   1.851
  660SOL    HW1 2001   1.951   1.720   1.904
  660SOL    HW2 2002   2.056   1.845   1.909
  661SOL     OW 2003   2.692   1.273   1.422
  661SOL    HW1 2004   2.687   1.306   1.517
  661SOL    HW2 2005   2.606   1.292   1.376
  662SOL     OW 2006   2.534   1.616   0.154
  662SOL    HW1 2007   2.543   1.626   0.055
  662SOL    HW2 2008   2.494   1.527   0.175
  663SOL     OW 2009   2.125   0.326   0.720
  663SOL    HW1 2010   2.046   0.377   0.686
  663SOL    HW2 2011   2.116   0.311   0.818
  664SOL     OW 2012   2.684   1.002   1.372
  664SOL    HW1 2013   2.724   1.001   1.280
  664SOL    HW2 2014   2.694   1.094   1.412
  665SOL     OW 2015   2.778   0.910   0.291
  665SOL    HW1 2016   2.841   0.948   0.223
  665SOL    HW2 2017   2.818   0.827   0.330
  666SOL     OW 2018   2.234   1.288   1.490
  666SOL    HW1 2019   2.221   1.381   1.456
  666SOL    HW2 2020   2.150   1.236   1.477
  667SOL     OW 2021   2.901   1.098   0.696
  667SOL    HW1 2022   2.831   1.051   0.750
  667SOL    HW2 2023   2.960   1.030   0.653
  668SOL     OW 2024   2.876   0.236   0.971
  668SOL    HW1 2025   2.868   0.200   0.878
  668SOL    HW2 2026   2.874   0.160   1.036
  669SOL     OW 2027   2.452   1.487   0.491
  669SOL    HW1 2028   2.494   1.429   0.421
  669SOL    HW2 2029   2.408   1.566   0.447
  670SOL     OW 2030   2.117   1.348   0.290
  670SOL    HW1 2031   2.021   1.349   0.263
  670SOL    HW2 2032   2.129   1.401   0.374
  671SOL     OW 2033   1.967   1.013   1.726
  671SOL    HW1 2034   1.890   0.980   1.780
  671SOL    HW2 2035   2.052   0.983   1.768
  672SOL     OW 2036   2.534   0.203   1.489
  672SOL    HW1 2037   2.624   0.187   1.449
  672SOL    HW2 2038   2.542   0.208   1.588
  673SOL     OW 2039   1.934   0.166   0.318
  673SOL    HW1 2040   1.917   0.249   0.264
  673SOL    HW2 2041   2.024   0.129   0.296
  674SOL     OW 2042   2.475   0.842   1.431
  674SOL    HW1 2043   2.531   0.923   1.414
  674SOL    HW2 2044   2.534   0.762   1.434
  675SOL     OW 2045   2.578   0.565   1.708
  675SOL    HW1 2046   2.597   0.630   1.782
  675SOL    HW2 2047   2.638   0.485   1.717
  676SOL     OW 2048   2.252   1.741   1.560
  676SOL    HW1 2049   2.161   1.782   1.558
  676SOL    HW2 2050   2.245   1.647   1.592
  677SOL     OW 2051   2.456   0.745   0.652
  677SOL    HW1 2052   2.506   0.830   0.633
  677SOL    HW2 2053   2.368   0.747   0.604
  678SOL     OW 2054   2.721   1.374   0.016
  678SOL    HW1 2055   2.675   1.389   0.104
  678SOL    HW2 2056   2.765   1.459  -0.014
  679SOL     OW 2057   2.523   1.790   0.953
  679SOL    HW1 2058   2.477   1.878   0.940
  679SOL    HW2 2059   2.622   1.802   0.946
  680SOL     OW 2060   2.721   0.956   0.861
  680SOL    HW1 2061   2.775   0.887   0.909
  680SOL    HW2 2062   2.689   1.025   0.927
  681SOL     OW 2063   2.945   0.984   0.087
  681SOL    HW1 2064   2.922   1.037   0.005
  681SOL    HW2 2065   3.026   0.928   0.068
  682SOL     OW 2066   2.083   1.314   1.844
  682SOL    HW1 2067   2.018   1.241   1.823
  682SOL    HW2 2068   2.087   1.328   1.942
  683SOL     OW 2069   1.941   1.240   0.653
  683SOL    HW1 2070   1.940   1.193   0.741
  683SOL    HW2 2071   2.023   1.212   0.602
  684SOL     OW 2072   2.534   1.391   1.624
  684SOL    HW1 2073   2.456   1.341   1.662
  684SOL    HW2 2074   2.531   1.486   1.655
  685SOL     OW 2075   2.290   0.424   0.520
  685SOL    HW1 2076   2.320   0.352   0.458
  685SOL    HW2 2077   2.251   0.384   0.603
  686SOL     OW 2078   2.179   0.547   1.280
  686SOL    HW1 2079   2.217   0.488   1.352
  686SOL    HW2 2080   2.219   0.521   1.192
  687SOL     OW 2081   2.674   1.586   0.687
  687SOL    HW1 2082   2.706   1.596   0.593
  687SOL    HW2 2083   2.595   1.524   0.689
  688SOL     OW 2084   2.863   0.034   1.154
  688SOL    HW1 2085   2.800  -0.038   1.123
  688SOL    HW2 2086   2.956  -0.002   1.154
  689SOL     OW 2087   2.632   1.330   0.301
  689SOL    HW1 2088   2.586   1.243   0.318
  689SOL    HW2 2089   2.723   1.327   0.342
  690SOL     OW 2090   2.480   1.567   1.284
  690SOL    HW1 2091   2.475   1.649   1.341
  690SOL    HW2 2092   2.569   1.564   1.239
  691SOL     OW 2093   1.901   1.077   0.300
  691SOL    HW1 2094   2.000   1.066   0.291
  691SOL    HW2 2095   1.861   0.991   0.332
  692SOL     OW 2096   2.737   1.646   0.337
  692SOL    HW1 2097   2.660   1.611   0.283
  692SOL    HW2 2098   2.705   1.717   0.399
  693SOL     OW 2099   2.092   0.628   1.975
  693SOL    HW1 2100   1.999   0.626   2.012
  693SOL    HW2 2101   2.093   0.589   1.883
  694SOL     OW 2102   2.087   0.275   2.858
  694SOL    HW1 2103   2.122   0.258   2.950
  694SOL    HW2 2104   1.999   0.230   2.846
  695SOL     OW 2105   1.881   0.368   2.509
  695SOL    HW1 2106   1.799   0.411   2.548
  695SOL    HW2 2107   1.853   0.295   2.446
  696SOL     OW 2108   2.630   1.144   2.885
  696SOL    HW1 2109   2.552   1.161   2.945
  696SOL    HW2 2110   2.664   1.231   2.849
  697SOL     OW 2111   2.547   1.012   2.527
  697SOL    HW1 2112   2.616   0.996   2.597
  697SOL    HW2 2113   2.474   1.069   2.565
  698SOL     OW 2114   2.197   1.435   2.923
  698SOL    HW1 2115   2.119   1.404   2.870
  698SOL    HW2 2116   2.255   1.493   2.866
  699SOL     OW 2117   2.093   1.713   2.345
  699SOL    HW1 2118   2.127   1.790   2.399
  699SOL    HW2 2119   2.137   1.713   2.255
  700SOL     OW 2120   2.092   1.434   2.400
  700SOL    HW1 2121   2.066   1.530   2.400
  700SOL    HW2 2122   2.021   1.380   2.445
  701SOL     OW 2123   2.102   1.091   2.748
  701SOL    HW1 2124   2.116   1.007   2.800
  701SOL    HW2 2125   2.047   1.155   2.803
  702SOL     OW 2126   2.468   0.964   1.985
  702SOL    HW1 2127   2.475   1.048   1.931
  702SOL    HW2 2128   2.514   0.977   2.073
  703SOL     OW 2129   1.984   0.643   2.425
  703SOL    HW1 2130   1.939   0.555   2.442
  703SOL    HW2 2131   1.983   0.697   2.509
  704SOL     OW 2132   1.889   1.596   1.979
  704SOL    HW1 2133   1.870   1.500   2.000
  704SOL    HW2 2134   1.856   1.654   2.054
  705SOL     OW 2135   2.475   1.365   2.588
  705SOL    HW1 2136   2.426   1.278   2.597
  705SOL    HW2 2137   2.452   1.408   2.501
  706SOL     OW 2138   2.671   0.004   2.364
  706SOL    HW1 2139   2.711   0.095   2.355
  706SOL    HW2 2140   2.571   0.012   2.370
  707SOL     OW 2141   2.059   0.976   3.126
  707SOL    HW1 2142   2.148   0.931   3.112
  707SOL    HW2 2143   1.986   0.911   3.107
  708SOL     OW 2144   2.460   0.729   2.132
  708SOL    HW1 2145   2.484   0.798   2.064
  708SOL    HW2 2146   2.382   0.762   2.186
  709SOL     OW 2147   2.903   0.701   2.291
  709SOL    HW1 2148   2.929   0.697   2.387
  709SOL    HW2 2149   2.818   0.650   2.277
  710SOL     OW 2150   1.938   0.811   2.651
  710SOL    HW1 2151   2.037   0.799   2.660
  710SOL    HW2 2152   1.914   0.906   2.672
  711SOL     OW 2153   2.727   0.348   2.057
  711SOL    HW1 2154   2.786   0.411   2.008
  711SOL    HW2 2155   2.746   0.254   2.028
  712SOL     OW 2156   2.412   0.196   2.747
  712SOL    HW1 2157   2.407   0.191   2.847
  712SOL    HW2 2158   2.414   0.292   2.718
  713SOL     OW 2159   2.870   1.456   2.339
  713SOL    HW1 2160   2.824   1.528   2.287
  713SOL    HW2 2161   2.866   1.476   2.437
  714SOL     OW 2162   2.213   1.801   2.715
  714SOL    HW1 2163   2.263   1.715   2.721
  714SOL    HW2 2164   2.278   1.878   2.712
  715SOL     OW 2165   2.183   0.943   2.104
  715SOL    HW1 2166   2.265   0.982   2.062
  715SOL    HW2 2167   2.156   0.861   2.055
  716SOL     OW 2168   2.326   1.743   2.185
  716SOL    HW1 2169   2.359   1.782   2.271
  716SOL    HW2 2170   2.402   1.736   2.120
  717SOL     OW 2171   2.111   1.785   3.103
  717SOL    HW1 2172   2.168   1.720   3.153
  717SOL    HW2 2173   2.095   1.752   3.010
  718SOL     OW 2174   2.802   1.698   2.766
  718SOL    HW1 2175   2.882   1.641   2.787
  718SOL    HW2 2176   2.753   1.658   2.689
  719SOL     OW 2177   2.244   0.700   2.342
  719SOL    HW1 2178   2.289   0.610   2.339
  719SOL    HW2 2179   2.150   0.689   2.375
  720SOL     OW 2180   2.476   0.122   1.979
  720SOL    HW1 2181   2.574   0.100   1.986
  720SOL    HW2 2182   2.445   0.105   1.886
  721SOL     OW 2183   2.665   1.402   2.786
  721SOL    HW1 2184   2.755   1.416   2.744
  721SOL    HW2 2185   2.594   1.404   2.715
  722SOL     OW 2186   2.784   0.503   2.761
  722SOL    HW1 2187   2.759   0.494   2.665
  722SOL    HW2 2188   2.832   0.421   2.792
  723SOL     OW 2189   2.401   0.064   2.374
  723SOL    HW1 2190   2.320   0.065   2.432
  723SOL    HW2 2191   2.404   0.147   2.319
  724SOL     OW 2192   2.159   0.035   2.033
  724SOL    HW1 2193   2.208   0.119   2.012
  724SOL    HW2 2194   2.221  -0.030   2.078
  725SOL     OW 2195   2.797   0.236   2.342
  725SOL    HW1 2196   2.749   0.277   2.264
  725SOL    HW2 2197   2.896   0.234   2.323
  726SOL     OW 2198   3.089   1.570   2.655
  726SOL    HW1 2199   3.110   1.644   2.590
  726SOL    HW2 2200   3.157   1.570   2.728
  727SOL     OW 2201   2.321   1.152   2.603
  727SOL    HW1 2202   2.250   1.125   2.668
  727SOL    HW2 2203   2.295   1.124   2.510
  728SOL     OW 2204   3.133   1.797   2.453
  728SOL    HW1 2205   3.177   1.861   2.389
  728SOL    HW2 2206   3.083   1.849   2.523
  729SOL     OW 2207   2.894   0.549   1.878
  729SOL    HW1 2208   2.853   0.631   1.839
  729SOL    HW2 2209   2.958   0.575   1.951
  730SOL     OW 2210   2.728   0.454   2.504
  730SOL    HW1 2211   2.696   0.526   2.442
  730SOL    HW2 2212   2.752   0.373   2.451
  731SOL     OW 2213   2.879   0.039   2.615
  731SOL    HW1 2214   2.807   0.044   2.546
  731SOL    HW2 2215   2.855  -0.030   2.684
  732SOL     OW 2216   2.350   1.385   2.036
  732SOL    HW1 2217   2.263   1.370   2.083
  732SOL    HW2 2218   2.333   1.411   1.941
  733SOL     OW 2219   2.389   0.256   2.190
  733SOL    HW1 2220   2.416   0.197   2.115
  733SOL    HW2 2221   2.389   0.351   2.159
  734SOL     OW 2222   2.567   1.050   2.230
  734SOL    HW1 2223   2.553   1.057   2.329
  734SOL    HW2 2224   2.651   0.999   2.212
  735SOL     OW 2225   2.272   0.813   3.113
  735SOL    HW1 2226   2.358   0.825   3.163
  735SOL    HW2 2227   2.230   0.726   3.140
  736SOL     OW 2228   2.229   1.100   2.363
  736SOL    HW1 2229   2.222   1.183   2.307
  736SOL    HW2 2230   2.233   1.020   2.303
  737SOL     OW 2231   2.428   0.537   2.727
  737SOL    HW1 2232   2.440   0.603   2.653
  737SOL    HW2 2233   2.474   0.571   2.810
  738SOL     OW 2234   2.216   1.510   3.191
  738SOL    HW1 2235   2.195   1.466   3.104
  738SOL    HW2 2236   2.313   1.536   3.194
  739SOL     OW 2237   2.435   0.870   2.891
  739SOL    HW1 2238   2.479   0.959   2.882
  739SOL    HW2 2239   2.372   0.870   2.968
  740SOL     OW 2240   3.071   0.525   2.137
  740SOL    HW1 2241   3.084   0.441   2.191
  740SOL    HW2 2242   3.042   0.599   2.197
  741SOL     OW 2243   2.594   0.634   2.926
  741SOL    HW1 2244   2.653   0.608   2.850
  741SOL    HW2 2245   2.566   0.730   2.915
  742SOL     OW 2246   2.169   0.063   2.480
  742SOL    HW1 2247   2.158   0.157   2.513
  742SOL    HW2 2248   2.164   0.000   2.557
  743SOL     OW 2249   2.885   0.766   2.828
  743SOL    HW1 2250   2.900   0.787   2.924
  743SOL    HW2 2251   2.855   0.671   2.819
  744SOL     OW 2252   2.930   1.333   2.711
  744SOL    HW1 2253   2.937   1.249   2.656
  744SOL    HW2 2254   2.992   1.402   2.675
  745SOL     OW 2255   2.181   0.810   2.811
  745SOL    HW1 2256   2.274   0.846   2.816
  745SOL    HW2 2257   2.175   0.725   2.863
  746SOL     OW 2258   2.201   0.509   2.868
  746SOL    HW1 2259   2.149   0.426   2.851
  746SOL    HW2 2260   2.278   0.514   2.804
  747SOL     OW 2261   1.870   1.326   2.062
  747SOL    HW1 2262   1.777   1.347   2.031
  747SOL    HW2 2263   1.880   1.227   2.075
  748SOL     OW 2264   1.950   1.801   2.789
  748SOL    HW1 2265   1.908   1.715   2.762
  748SOL    HW2 2266   2.044   1.804   2.755
  749SOL     OW 2267   2.366   1.568   2.772
  749SOL    HW1 2268   2.432   1.642   2.781
  749SOL    HW2 2269   2.410   1.489   2.730
  750SOL     OW 2270   2.864   0.796   3.100
  750SOL    HW1 2271   2.905   0.764   3.186
  750SOL    HW2 2272   2.768   0.769   3.097
  751SOL     OW 2273   1.902   0.544   2.976
  751SOL    HW1 2274   1.987   0.511   2.935
  751SOL    HW2 2275   1.915   0.559   3.074
  752SOL     OW 2276   2.677   0.572   2.187
  752SOL    HW1 2277   2.684   0.483   2.141
  752SOL    HW2 2278   2.583   0.606   2.179
  753SOL     OW 2279   2.533   0.464   3.131
  753SOL    HW1 2280   2.499   0.375   3.101
  753SOL    HW2 2281   2.559   0.518   3.051
  754SOL     OW 2282   2.335   0.500   2.053
  754SOL    HW1 2283   2.396   0.580   2.057
  754SOL    HW2 2284   2.240   0.531   2.060
  755SOL     OW 2285   3.164   0.855   2.171
  755SOL    HW1 2286   3.078   0.824   2.213
  755SOL    HW2 2287   3.160   0.841   2.072
  756SOL     OW 2288   1.945   1.258   2.884
  756SOL    HW1 2289   1.940   1.257   2.984
  756SOL    HW2 2290   1.862   1.217   2.846
  757SOL     OW 2291   2.534   1.616   2.016
  757SOL    HW1 2292   2.543   1.626   1.917
  757SOL    HW2 2293   2.494   1.527   2.037
  758SOL     OW 2294   2.125   0.326   2.582
  758SOL    HW1 2295   2.046   0.377   2.548
  758SOL    HW2 2296   2.116   0.311   2.680
  759SOL     OW 2297   2.778   0.910   2.153
  759SOL    HW1 2298   2.841   0.948   2.085
  759SOL    HW2 2299   2.818   0.827   2.192
  760SOL     OW 2300   2.901   1.098   2.558
  760SOL    HW1 2301   2.831   1.051   2.612
  760SOL    HW2 2302   2.960   1.030   2.515
  761SOL     OW 2303   2.876   0.236   2.833
  761SOL    HW1 2304   2.868   0.200   2.740
  761SOL    HW2 2305   2.874   0.160   2.898
  762SOL     OW 2306   2.452   1.487   2.353
  762SOL    HW1 2307   2.494   1.429   2.283
  762SOL    HW2 2308   2.408   1.566   2.309
  763SOL     OW 2309   2.117   1.348   2.152
  763SOL    HW1 2310   2.021   1.349   2.125
  763SOL    HW2 2311   2.129   1.401   2.236
  764SOL     OW 2312   1.937   0.345   1.895
  764SOL    HW1 2313   1.845   0.317   1.866
  764SOL    HW2 2314   1.968   0.422   1.839
  765SOL     OW 2315   1.934   0.166   2.180
  765SOL    HW1 2316   1.917   0.249   2.126
  765SOL    HW2 2317   2.024   0.129   2.158
  766SOL     OW 2318   2.456   0.745   2.514
  766SOL    HW1 2319   2.506   0.830   2.495
  766SOL    HW2 2320   2.368   0.747   2.466
  767SOL     OW 2321   2.721   1.374   1.878
  767SOL    HW1 2322   2.675   1.389   1.966
  767SOL    HW2 2323   2.765   1.459   1.848
  768SOL     OW 2324   2.523   1.790   2.815
  768SOL    HW1 2325   2.477   1.878   2.802
  768SOL    HW2 2326   2.622   1.802   2.808
  769SOL     OW 2327   2.721   0.956   2.723
  769SOL    HW1 2328   2.775   0.887   2.771
  769SOL    HW2 2329   2.689   1.025   2.789
  770SOL     OW 2330   2.945   0.984   1.949
  770SOL    HW1 2331   2.922   1.037   1.867
  770SOL    HW2 2332   3.026   0.928   1.930
  771SOL     OW 2333   1.941   1.240   2.515
  771SOL    HW1 2334   1.940   1.193   2.603
  771SOL    HW2 2335   2.023   1.212   2.464
  772SOL     OW 2336   2.290   0.424   2.382
  772SOL    HW1 2337   2.320   0.352   2.320
  772SOL    HW2 2338   2.251   0.384   2.465
  773SOL     OW 2339   2.674   1.586   2.549
  773SOL    HW1 2340   2.706   1.596   2.455
  773SOL    HW2 2341   2.595   1.524   2.551
  774SOL     OW 2342   2.632   1.330   2.163
  774SOL    HW1 2343   2.586   1.243   2.180
  774SOL    HW2 2344   2.723   1.327   2.204
  775SOL     OW 2345   1.901   1.077   2.162
  775SOL    HW1 2346   2.000   1.066   2.153
  775SOL    HW2 2347   1.861   0.991   2.194
  776SOL     OW 2348   2.737   1.646   2.199
  776SOL    HW1 2349   2.660   1.611   2.145
  776SOL    HW2 2350   2.705   1.717   2.261
  777SOL     OW 2351   2.092   2.490   0.113
  777SOL    HW1 2352   1.999   2.488   0.150
  777SOL    HW2 2353   2.093   2.451   0.021
  778SOL     OW 2354   2.087   2.137   0.996
  778SOL    HW1 2355   2.122   2.120   1.088
  778SOL    HW2 2356   1.999   2.092   0.984
  779SOL     OW 2357   1.881   2.230   0.647
  779SOL    HW1 2358   1.799   2.273   0.686
  779SOL    HW2 2359   1.853   2.157   0.584
  780SOL     OW 2360   2.630   3.006   1.023
  780SOL    HW1 2361   2.552   3.023   1.083
  780SOL    HW2 2362   2.664   3.093   0.987
  781SOL     OW 2363   2.712   2.660   1.823
  781SOL    HW1 2364   2.708   2.736   1.888
  781SOL    HW2 2365   2.734   2.696   1.732
  782SOL     OW 2366   2.547   2.874   0.665
  782SOL    HW1 2367   2.616   2.858   0.735
  782SOL    HW2 2368   2.474   2.931   0.703
  783SOL     OW 2369   2.300   2.254   1.499
  783SOL    HW1 2370   2.382   2.198   1.508
  783SOL    HW2 2371   2.219   2.196   1.503
  784SOL     OW 2372   2.092   3.296   0.538
  784SOL    HW1 2373   2.066   3.392   0.538
  784SOL    HW2 2374   2.021   3.242   0.583
  785SOL     OW 2375   2.102   2.953   0.886
  785SOL    HW1 2376   2.116   2.869   0.938
  785SOL    HW2 2377   2.047   3.017   0.941
  786SOL     OW 2378   2.468   2.826   0.123
  786SOL    HW1 2379   2.475   2.910   0.069
  786SOL    HW2 2380   2.514   2.839   0.211
  787SOL     OW 2381   1.984   2.505   0.563
  787SOL    HW1 2382   1.939   2.417   0.580
  787SOL    HW2 2383   1.983   2.559   0.647
  788SOL     OW 2384   1.975   2.599   1.597
  788SOL    HW1 2385   2.063   2.586   1.642
  788SOL    HW2 2386   1.962   2.696   1.575
  789SOL     OW 2387   2.671   1.866   0.502
  789SOL    HW1 2388   2.711   1.957   0.493
  789SOL    HW2 2389   2.571   1.874   0.508
  790SOL     OW 2390   2.059   2.838   1.264
  790SOL    HW1 2391   2.148   2.793   1.250
  790SOL    HW2 2392   1.986   2.773   1.245
  791SOL     OW 2393   2.179   2.113   1.801
  791SOL    HW1 2394   2.250   2.184   1.807
  791SOL    HW2 2395   2.091   2.152   1.829
  792SOL     OW 2396   2.460   2.591   0.270
  792SOL    HW1 2397   2.484   2.660   0.202
  792SOL    HW2 2398   2.382   2.624   0.324
  793SOL     OW 2399   2.669   2.467   1.465
  793SOL    HW1 2400   2.622   2.464   1.554
  793SOL    HW2 2401   2.618   2.412   1.399
  794SOL     OW 2402   2.835   2.752   1.572
  794SOL    HW1 2403   2.881   2.668   1.543
  794SOL    HW2 2404   2.779   2.786   1.497
  795SOL     OW 2405   2.853   2.272   1.242
  795SOL    HW1 2406   2.776   2.306   1.296
  795SOL    HW2 2407   2.819   2.221   1.163
  796SOL     OW 2408   2.903   2.563   0.429
  796SOL    HW1 2409   2.929   2.559   0.525
  796SOL    HW2 2410   2.818   2.512   0.415
  797SOL     OW 2411   1.938   2.673   0.789
  797SOL    HW1 2412   2.037   2.661   0.798
  797SOL    HW2 2413   1.914   2.768   0.810
  798SOL     OW 2414   2.727   2.210   0.195
  798SOL    HW1 2415   2.786   2.273   0.146
  798SOL    HW2 2416   2.746   2.116   0.166
  799SOL     OW 2417   2.412   2.058   0.885
  799SOL    HW1 2418   2.407   2.053   0.985
  799SOL    HW2 2419   2.414   2.154   0.856
  800SOL     OW 2420   2.183   2.805   0.242
  800SOL    HW1 2421   2.265   2.844   0.200
  800SOL    HW2 2422   2.156   2.723   0.193
  801SOL     OW 2423   2.064   2.147   1.498
  801SOL    HW1 2424   1.984   2.207   1.485
  801SOL    HW2 2425   2.054   2.098   1.584
  802SOL     OW 2426   2.244   2.562   0.480
  802SOL    HW1 2427   2.289   2.472   0.477
  802SOL    HW2 2428   2.150   2.551   0.513
  803SOL     OW 2429   2.476   1.984   0.117
  803SOL    HW1 2430   2.574   1.962   0.124
  803SOL    HW2 2431   2.445   1.967   0.024
  804SOL     OW 2432   2.643   2.126   1.749
  804SOL    HW1 2433   2.710   2.065   1.792
  804SOL    HW2 2434   2.570   2.145   1.814
  805SOL     OW 2435   2.784   2.365   0.899
  805SOL    HW1 2436   2.759   2.356   0.803
  805SOL    HW2 2437   2.832   2.283   0.930
  806SOL     OW 2438   2.401   1.926   0.512
  806SOL    HW1 2439   2.320   1.927   0.570
  806SOL    HW2 2440   2.404   2.009   0.457
  807SOL     OW 2441   2.797   2.098   0.480
  807SOL    HW1 2442   2.749   2.139   0.402
  807SOL    HW2 2443   2.896   2.096   0.461
  808SOL     OW 2444   2.321   3.014   0.741
  808SOL    HW1 2445   2.250   2.987   0.806
  808SOL    HW2 2446   2.295   2.986   0.648
  809SOL     OW 2447   2.894   2.411   0.016
  809SOL    HW1 2448   2.853   2.493  -0.023
  809SOL    HW2 2449   2.958   2.437   0.089
  810SOL     OW 2450   1.940   2.418   1.386
  810SOL    HW1 2451   2.032   2.417   1.345
  810SOL    HW2 2452   1.934   2.492   1.453
  811SOL     OW 2453   2.423   2.084   1.147
  811SOL    HW1 2454   2.461   2.000   1.184
  811SOL    HW2 2455   2.335   2.103   1.191
  812SOL     OW 2456   2.728   2.316   0.642
  812SOL    HW1 2457   2.696   2.388   0.580
  812SOL    HW2 2458   2.752   2.235   0.589
  813SOL     OW 2459   2.879   1.901   0.753
  813SOL    HW1 2460   2.807   1.906   0.684
  813SOL    HW2 2461   2.855   1.832   0.822
  814SOL     OW 2462   2.389   2.118   0.328
  814SOL    HW1 2463   2.416   2.059   0.253
  814SOL    HW2 2464   2.389   2.213   0.297
  815SOL     OW 2465   2.777   1.951   1.402
  815SOL    HW1 2466   2.802   1.931   1.307
  815SOL    HW2 2467   2.849   2.007   1.444
  816SOL     OW 2468   2.567   2.912   0.368
  816SOL    HW1 2469   2.553   2.919   0.467
  816SOL    HW2 2470   2.651   2.861   0.350
  817SOL     OW 2471   2.272   2.675   1.251
  817SOL    HW1 2472   2.358   2.687   1.301
  817SOL    HW2 2473   2.230   2.588   1.278
  818SOL     OW 2474   2.229   2.962   0.501
  818SOL    HW1 2475   2.222   3.045   0.445
  818SOL    HW2 2476   2.233   2.882   0.441
  819SOL     OW 2477   2.428   2.399   0.865
  819SOL    HW1 2478   2.440   2.465   0.791
  819SOL    HW2 2479   2.474   2.433   0.948
  820SOL     OW 2480   2.264   2.613   1.598
  820SOL    HW1 2481   2.332   2.668   1.551
  820SOL    HW2 2482   2.304   2.525   1.625
  821SOL     OW 2483   2.875   1.967   1.770
  821SOL    HW1 2484   2.881   2.052   1.718
  821SOL    HW2 2485   2.907   1.891   1.713
  822SOL     OW 2486   2.366   1.912   1.740
  822SOL    HW1 2487   2.324   1.855   1.670
  822SOL    HW2 2488   2.300   1.981   1.772
  823SOL     OW 2489   2.435   2.732   1.029
  823SOL    HW1 2490   2.479   2.821   1.020
  823SOL    HW2 2491   2.372   2.732   1.106
  824SOL     OW 2492   3.071   2.387   0.275
  824SOL    HW1 2493   3.084   2.303   0.329
  824SOL    HW2 2494   3.042   2.461   0.335
  825SOL     OW 2495   2.169   2.075   1.231
  825SOL    HW1 2496   2.146   2.112   1.321
  825SOL    HW2 2497   2.139   1.980   1.225
  826SOL     OW 2498   2.594   2.496   1.064
  826SOL    HW1 2499   2.653   2.470   0.988
  826SOL    HW2 2500   2.566   2.592   1.053
  827SOL     OW 2501   2.169   1.925   0.618
  827SOL    HW1 2502   2.158   2.019   0.651
  827SOL    HW2 2503   2.164   1.862   0.695
  828SOL     OW 2504   2.885   2.628   0.966
  828SOL    HW1 2505   2.900   2.649   1.062
  828SOL    HW2 2506   2.855   2.533   0.957
  829SOL     OW 2507   2.212   2.760   1.804
  829SOL    HW1 2508   2.288   2.804   1.852
  829SOL    HW2 2509   2.247   2.713   1.722
  830SOL     OW 2510   2.181   2.672   0.949
  830SOL    HW1 2511   2.274   2.708   0.954
  830SOL    HW2 2512   2.175   2.587   1.001
  831SOL     OW 2513   2.201   2.371   1.006
  831SOL    HW1 2514   2.149   2.288   0.989
  831SOL    HW2 2515   2.278   2.376   0.942
  832SOL     OW 2516   3.000   2.242   1.678
  832SOL    HW1 2517   2.955   2.305   1.742
  832SOL    HW2 2518   3.093   2.273   1.661
  833SOL     OW 2519   3.022   2.069   1.477
  833SOL    HW1 2520   3.022   2.133   1.554
  833SOL    HW2 2521   3.050   2.117   1.394
  834SOL     OW 2522   2.864   2.658   1.238
  834SOL    HW1 2523   2.905   2.626   1.324
  834SOL    HW2 2524   2.768   2.631   1.235
  835SOL     OW 2525   1.902   2.406   1.114
  835SOL    HW1 2526   1.987   2.373   1.073
  835SOL    HW2 2527   1.915   2.421   1.212
  836SOL     OW 2528   2.051   2.382   1.722
  836SOL    HW1 2529   2.110   2.342   1.652
  836SOL    HW2 2530   1.993   2.453   1.681
  837SOL     OW 2531   2.677   2.434   0.325
  837SOL    HW1 2532   2.684   2.345   0.279
  837SOL    HW2 2533   2.583   2.468   0.317
  838SOL     OW 2534   2.533   2.326   1.269
  838SOL    HW1 2535   2.499   2.237   1.239
  838SOL    HW2 2536   2.559   2.380   1.189
  839SOL     OW 2537   2.335   2.362   0.191
  839SOL    HW1 2538   2.396   2.442   0.195
  839SOL    HW2 2539   2.240   2.393   0.198
  840SOL     OW 2540   2.021   2.999   1.466
  840SOL    HW1 2541   2.043   2.938   1.542
  840SOL    HW2 2542   2.031   2.950   1.380
  841SOL     OW 2543   3.164   2.717   0.309
  841SOL    HW1 2544   3.078   2.686   0.351
  841SOL    HW2 2545   3.160   2.703   0.210
  842SOL     OW 2546   2.765   1.948   0.133
  842SOL    HW1 2547   2.816   1.949   0.047
  842SOL    HW2 2548   2.821   1.906   0.204
  843SOL     OW 2549   2.125   2.188   0.720
  843SOL    HW1 2550   2.046   2.239   0.686
  843SOL    HW2 2551   2.116   2.173   0.818
  844SOL     OW 2552   2.684   2.864   1.372
  844SOL    HW1 2553   2.724   2.863   1.280
  844SOL    HW2 2554   2.694   2.956   1.412
  845SOL     OW 2555   2.778   2.772   0.291
  845SOL    HW1 2556   2.841   2.810   0.223
  845SOL    HW2 2557   2.818   2.689   0.330
  846SOL     OW 2558   2.234   3.150   1.490
  846SOL    HW1 2559   2.221   3.243   1.456
  846SOL    HW2 2560   2.150   3.098   1.477
  847SOL     OW 2561   2.876   2.098   0.971
  847SOL    HW1 2562   2.868   2.062   0.878
  847SOL    HW2 2563   2.874   2.022   1.036
  848SOL     OW 2564   1.967   2.875   1.726
  848SOL    HW1 2565   1.890   2.842   1.780
  848SOL    HW2 2566   2.052   2.845   1.768
  849SOL     OW 2567   2.534   2.065   1.489
  849SOL    HW1 2568   2.624   2.049   1.449
  849SOL    HW2 2569   2.542   2.070   1.588
  850SOL     OW 2570   1.934   2.028   0.318
  850SOL    HW1 2571   1.917   2.111   0.264
  850SOL    HW2 2572   2.024   1.991   0.296
  851SOL     OW 2573   2.475   2.704   1.431
  851SOL    HW1 2574   2.531   2.785   1.414
  851SOL    HW2 2575   2.534   2.624   1.434
  852SOL     OW 2576   2.578   2.427   1.708
  852SOL    HW1 2577   2.597   2.492   1.782
  852SOL    HW2 2578   2.638   2.347   1.717
  853SOL     OW 2579   2.456   2.607   0.652
  853SOL    HW1 2580   2.506   2.692   0.633
  853SOL    HW2 2581   2.368   2.609   0.604
  854SOL     OW 2582   2.721   2.818   0.861
  854SOL    HW1 2583   2.775   2.749   0.909
  854SOL    HW2 2584   2.689   2.887   0.927
  855SOL     OW 2585   2.945   2.846   0.087
  855SOL    HW1 2586   2.922   2.899   0.005
  855SOL    HW2 2587   3.026   2.790   0.068
  856SOL     OW 2588   2.290   2.286   0.520
  856SOL    HW1 2589   2.320   2.214   0.458
  856SOL    HW2 2590   2.251   2.246   0.603
  857SOL     OW 2591   2.179   2.409   1.280
  857SOL    HW1 2592   2.217   2.350   1.352
  857SOL    HW2 2593   2.219   2.383   1.192
  858SOL     OW 2594   2.863   1.896   1.154
  858SOL    HW1 2595   2.800   1.824   1.123
  858SOL    HW2 2596   2.956   1.860   1.154
  859SOL     OW 2597   2.632   3.192   0.301
  859SOL    HW1 2598   2.586   3.105   0.318
  859SOL    HW2 2599   2.723   3.189   0.342
  860SOL     OW 2600   1.901   2.939   0.300
  860SOL    HW1 2601   2.000   2.928   0.291
  860SOL    HW2 2602   1.861   2.853   0.332
  861SOL     OW 2603   2.092   2.490   1.975
  861SOL    HW1 2604   1.999   2.488   2.012
  861SOL    HW2 2605   2.093   2.451   1.883
  862SOL     OW 2606   2.087   2.137   2.858
  862SOL    HW1 2607   2.122   2.120   2.950
  862SOL    HW2 2608   1.999   2.092   2.846
  863SOL     OW 2609   1.881   2.230   2.509
  863SOL    HW1 2610   1.799   2.273   2.548
  863SOL    HW2 2611   1.853   2.157   2.446
  864SOL     OW 2612   2.630   3.006   2.885
  864SOL    HW1 2613   2.552   3.023   2.945
  864SOL    HW2 2614   2.664   3.093   2.849
  865SOL     OW 2615   2.547   2.874   2.527
  865SOL    HW1 2616   2.616   2.858   2.597
  865SOL    HW2 2617   2.474   2.931   2.565
  866SOL     OW 2618   2.092   3.296   2.400
  866SOL    HW1 2619   2.066   3.392   2.400
  866SOL    HW2 2620   2.021   3.242   2.445
  867SOL     OW 2621   2.102   2.953   2.748
  867SOL    HW1 2622   2.116   2.869   2.800
  867SOL    HW2 2623   2.047   3.017   2.803
  868SOL     OW 2624   2.468   2.826   1.985
  868SOL    HW1 2625   2.475   2.910   1.931
  868SOL    HW2 2626   2.514   2.839   2.073
  869SOL     OW 2627   1.984   2.505   2.425
  869SOL    HW1 2628   1.939   2.417   2.442
  869SOL    HW2 2629   1.983   2.559   2.509
  870SOL     OW 2630   2.671   1.866   2.364
  870SOL    HW1 2631   2.711   1.957   2.355
  870SOL    HW2 2632   2.571   1.874   2.370
  871SOL     OW 2633   2.059   2.838   3.126
  871SOL    HW1 2634   2.148   2.793   3.112
  871SOL    HW2 2635   1.986   2.773   3.107
  872SOL     OW 2636   2.460   2.591   2.132
  872SOL    HW1 2637   2.484   2.660   2.064
  872SOL    HW2 2638   2.382   2.624   2.186
  873SOL     OW 2639   2.903   2.563   2.291
  873SOL    HW1 2640   2.929   2.559   2.387
  873SOL    HW2 2641   2.818   2.512   2.277
  874SOL     OW 2642   1.938   2.673   2.651
  874SOL    HW1 2643   2.037   2.661   2.660
  874SOL    HW2 2644   1.914   2.768   2.672
  875SOL     OW 2645   2.727   2.210   2.057
  875SOL    HW1 2646   2.786   2.273   2.008
  875SOL    HW2 2647   2.746   2.116   2.028
  876SOL     OW 2648   2.412   2.058   2.747
  876SOL    HW1 2649   2.407   2.053   2.847
  876SOL    HW2 2650   2.414   2.154   2.718
  877SOL     OW 2651   2.183   2.805   2.104
  877SOL    HW1 2652   2.265   2.844   2.062
  877SOL    HW2 2653   2.156   2.723   2.055
  878SOL     OW 2654   2.244   2.562   2.342
  878SOL    HW1 2655   2.289   2.472   2.339
  878SOL    HW2 2656   2.150   2.551   2.375
  879SOL     OW 2657   2.476   1.984   1.979
  879SOL    HW1 2658   2.574   1.962   1.986
  879SOL    HW2 2659   2.445   1.967   1.886
  880SOL     OW 2660   2.784   2.365   2.761
  880SOL    HW1 2661   2.759   2.356   2.665
  880SOL    HW2 2662   2.832   2.283   2.792
  881SOL     OW 2663   2.401   1.926   2.374
  881SOL    HW1 2664   2.320   1.927   2.432
  881SOL    HW2 2665   2.404   2.009   2.319
  882SOL     OW 2666   2.159   1.897   2.033
  882SOL    HW1 2667   2.208   1.981   2.012
  882SOL    HW2 2668   2.221   1.832   2.078
  883SOL     OW 2669   2.797   2.098   2.342
  883SOL    HW1 2670   2.749   2.139   2.264
  883SOL    HW2 2671   2.896   2.096   2.323
  884SOL     OW 2672   2.321   3.014   2.603
  884SOL    HW1 2673   2.250   2.987   2.668
  884SOL    HW2 2674   2.295   2.986   2.510
  885SOL     OW 2675   2.894   2.411   1.878
  885SOL    HW1 2676   2.853   2.493   1.839
  885SOL    HW2 2677   2.958   2.437   1.951
  886SOL     OW 2678   2.728   2.316   2.504
  886SOL    HW1 2679   2.696   2.388   2.442
  886SOL    HW2 2680   2.752   2.235   2.451
  887SOL     OW 2681   2.879   1.901   2.615
  887SOL    HW1 2682   2.807   1.906   2.546
  887SOL    HW2 2683   2.855   1.832   2.684
  888SOL     OW 2684   2.389   2.118   2.190
  888SOL    HW1 2685   2.416   2.059   2.115
  888SOL    HW2 2686   2.389   2.213   2.159
  889SOL     OW 2687   2.567   2.912   2.230
  889SOL    HW1 2688   2.553   2.919   2.329
  889SOL    HW2 2689   2.651   2.861   2.212
  890SOL     OW 2690   2.272   2.675   3.113
  890SOL    HW1 2691   2.358   2.687   3.163
  890SOL    HW2 2692   2.230   2.588   3.140
  891SOL     OW 2693   2.229   2.962   2.363
  891SOL    HW1 2694   2.222   3.045   2.307
  891SOL    HW2 2695   2.233   2.882   2.303
  892SOL     OW 2696   2.428   2.399   2.727
  892SOL    HW1 2697   2.440   2.465   2.653
  892SOL    HW2 2698   2.474   2.433   2.810
  893SOL     OW 2699   2.435   2.732   2.891
  893SOL    HW1 2700   2.479   2.821   2.882
  893SOL    HW2 2701   2.372   2.732   2.968
  894SOL     OW 2702   3.071   2.387   2.137
  894SOL    HW1 2703   3.084   2.303   2.191
  894SOL    HW2 2704   3.042   2.461   2.197
  895SOL     OW 2705   2.169   2.075   3.093
  895SOL    HW1 2706   2.146   2.112   3.183
  895SOL    HW2 2707   2.139   1.980   3.087
  896SOL     OW 2708   2.594   2.496   2.926
  896SOL    HW1 2709   2.653   2.470   2.850
  896SOL    HW2 2710   2.566   2.592   2.915
  897SOL     OW 2711   2.169   1.925   2.480
  897SOL    HW1 2712   2.158   2.019   2.513
  897SOL    HW2 2713   2.164   1.862   2.557
  898SOL     OW 2714   2.885   2.628   2.828
  898SOL    HW1 2715   2.900   2.649   2.924
  898SOL    HW2 2716   2.855   2.533   2.819
  899SOL     OW 2717   2.181   2.672   2.811
  899SOL    HW1 2718   2.274   2.708   2.816
  899SOL    HW2 2719   2.175   2.587   2.863
  900SOL     OW 2720   2.201   2.371   2.868
  900SOL    HW1 2721   2.149   2.288   2.851
  900SOL    HW2 2722   2.278   2.376   2.804
  901SOL     OW 2723   2.864   2.658   3.100
  901SOL    HW1 2724   2.905   2.626   3.186
  901SOL    HW2 2725   2.768   2.631   3.097
  902SOL     OW 2726   1.902   2.406   2.976
  902SOL    HW1 2727   1.987   2.373   2.935
  902SOL    HW2 2728   1.915   2.421   3.074
  903SOL     OW 2729   2.677   2.434   2.187
  903SOL    HW1 2730   2.684   2.345   2.141
  903SOL    HW2 2731   2.583   2.468   2.179
  904SOL     OW 2732   2.533   2.326   3.131
  904SOL    HW1 2733   2.499   2.237   3.101
  904SOL    HW2 2734   2.559   2.380   3.051
  905SOL     OW 2735   2.335   2.362   2.053
  905SOL    HW1 2736   2.396   2.442   2.057
  905SOL    HW2 2737   2.240   2.393   2.060
  906SOL     OW 2738   3.164   2.717   2.171
  906SOL    HW1 2739   3.078   2.686   2.213
  906SOL    HW2 2740   3.160   2.703   2.072
  907SOL     OW 2741   2.125   2.188   2.582
  907SOL    HW1 2742   2.046   2.239   2.548
  907SOL    HW2 2743   2.116   2.173   2.680
  908SOL     OW 2744   2.778   2.772   2.153
  908SOL    HW1 2745   2.841   2.810   2.085
  908SOL    HW2 2746   2.818   2.689   2.192
  909SOL     OW 2747   2.876   2.098   2.833
  909SOL    HW1 2748   2.868   2.062   2.740
  909SOL    HW2 2749   2.874   2.022   2.898
  910SOL     OW 2750   1.937   2.207   1.895
  910SOL    HW1 2751   1.845   2.179   1.866
  910SOL    HW2 2752   1.968   2.284   1.839
  911SOL     OW 2753   1.934   2.028   2.180
  911SOL    HW1 2754   1.917   2.111   2.126
  911SOL    HW2 2755   2.024   1.991   2.158
  912SOL     OW 2756   2.456   2.607   2.514
  912SOL    HW1 2757   2.506   2.692   2.495
  912SOL    HW2 2758   2.368   2.609   2.466
  913SOL     OW 2759   2.721   2.818   2.723
  913SOL    HW1 2760   2.775   2.749   2.771
  913SOL    HW2 2761   2.689   2.887   2.789
  914SOL     OW 2762   2.945   2.846   1.949
  914SOL    HW1 2763   2.922   2.899   1.867
  914SOL    HW2 2764   3.026   2.790   1.930
  915SOL     OW 2765   2.290   2.286   2.382
  915SOL    HW1 2766   2.320   2.214   2.320
  915SOL    HW2 2767   2.251   2.246   2.465
  916SOL     OW 2768   2.632   3.192   2.163
  916SOL    HW1 2769   2.586   3.105   2.180
  916SOL    HW2 2770   2.723   3.189   2.204
  917SOL     OW 2771   1.901   2.939   2.162
  917SOL    HW1 2772   2.000   2.928   2.153
  917SOL    HW2 2773   1.861   2.853   2.194
   3.04072   3.04072   3.04072
