mobley_9671033_GMX.gro created by acpype (v: 2023.10.27) on Thu May 14 13:17:57 2026
 1582
    1MOL     C1    1   1.186   1.184   1.117
    1MOL     C2    2   1.273   1.199   1.240
    1MOL     C3    3   1.259   1.338   1.301
    1MOL     N1    4   1.341   1.342   1.423
    1MOL     O1    5   1.287   1.312   1.531
    1MOL     O2    6   1.461   1.375   1.411
    1MOL     H1    7   1.080   1.199   1.141
    1MOL     H2    8   1.214   1.257   1.040
    1MOL     H3    9   1.197   1.084   1.074
    1MOL     H4   10   1.378   1.180   1.213
    1MOL     H5   11   1.245   1.123   1.314
    1MOL     H6   12   1.157   1.360   1.331
    1MOL     H7   13   1.297   1.416   1.235
    2SOL     OW   14   0.230   0.628   0.113
    2SOL    HW1   15   0.137   0.626   0.150
    2SOL    HW2   16   0.231   0.589   0.021
    3SOL     OW   17   0.225   0.275   0.996
    3SOL    HW1   18   0.260   0.258   1.088
    3SOL    HW2   19   0.137   0.230   0.984
    4SOL     OW   20   0.019   0.368   0.647
    4SOL    HW1   21  -0.063   0.411   0.686
    4SOL    HW2   22  -0.009   0.295   0.584
    5SOL     OW   23   0.569   1.275   1.165
    5SOL    HW1   24   0.476   1.268   1.128
    5SOL    HW2   25   0.580   1.364   1.209
    6SOL     OW   26   1.555   1.511   0.703
    6SOL    HW1   27   1.498   1.495   0.784
    6SOL    HW2   28   1.496   1.521   0.623
    7SOL     OW   29   1.135   0.703   0.717
    7SOL    HW1   30   1.192   0.781   0.692
    7SOL    HW2   31   1.075   0.729   0.793
    8SOL     OW   32   1.755   0.607   0.231
    8SOL    HW1   33   1.743   0.594   0.132
    8SOL    HW2   34   1.725   0.526   0.280
    9SOL     OW   35   0.768   1.144   1.023
    9SOL    HW1   36   0.690   1.161   1.083
    9SOL    HW2   37   0.802   1.231   0.987
   10SOL     OW   38   0.850   0.798   1.823
   10SOL    HW1   39   0.846   0.874   1.888
   10SOL    HW2   40   0.872   0.834   1.732
   11SOL     OW   41   0.685   1.012   0.665
   11SOL    HW1   42   0.754   0.996   0.735
   11SOL    HW2   43   0.612   1.069   0.703
   12SOL     OW   44   0.686   1.161   1.803
   12SOL    HW1   45   0.746   1.240   1.817
   12SOL    HW2   46   0.600   1.192   1.762
   13SOL     OW   47   0.335   1.435   1.061
   13SOL    HW1   48   0.257   1.404   1.008
   13SOL    HW2   49   0.393   1.493   1.004
   14SOL     OW   50   0.438   0.392   1.499
   14SOL    HW1   51   0.520   0.336   1.508
   14SOL    HW2   52   0.357   0.334   1.503
   15SOL     OW   53   1.603   0.447   0.737
   15SOL    HW1   54   1.529   0.493   0.687
   15SOL    HW2   55   1.654   0.515   0.790
   16SOL     OW   56   0.231   1.713   0.483
   16SOL    HW1   57   0.265   1.790   0.537
   16SOL    HW2   58   0.275   1.713   0.393
   17SOL     OW   59   1.127   1.341   1.690
   17SOL    HW1   60   1.174   1.341   1.778
   17SOL    HW2   61   1.079   1.254   1.679
   18SOL     OW   62   0.230   1.434   0.538
   18SOL    HW1   63   0.204   1.530   0.538
   18SOL    HW2   64   0.159   1.380   0.583
   19SOL     OW   65   0.240   1.091   0.886
   19SOL    HW1   66   0.254   1.007   0.938
   19SOL    HW2   67   0.185   1.155   0.941
   20SOL     OW   68   0.620   1.786   1.439
   20SOL    HW1   69   0.528   1.769   1.474
   20SOL    HW2   70   0.648   1.878   1.465
   21SOL     OW   71   0.606   0.964   0.123
   21SOL    HW1   72   0.613   1.048   0.069
   21SOL    HW2   73   0.652   0.977   0.211
   22SOL     OW   74   1.594   0.114   1.480
   22SOL    HW1   75   1.576   0.181   1.408
   22SOL    HW2   76   1.591   0.160   1.569
   23SOL     OW   77   0.122   0.643   0.563
   23SOL    HW1   78   0.077   0.555   0.580
   23SOL    HW2   79   0.121   0.697   0.647
   24SOL     OW   80   1.842   1.767   0.359
   24SOL    HW1   81   1.896   1.738   0.439
   24SOL    HW2   82   1.872   1.857   0.330
   25SOL     OW   83   0.027   1.596   0.117
   25SOL    HW1   84   0.008   1.500   0.138
   25SOL    HW2   85  -0.006   1.654   0.192
   26SOL     OW   86   1.689   0.922   0.612
   26SOL    HW1   87   1.784   0.893   0.620
   26SOL    HW2   88   1.681   0.987   0.537
   27SOL     OW   89   1.641   1.108   0.432
   27SOL    HW1   90   1.727   1.110   0.380
   27SOL    HW2   91   1.655   1.155   0.520
   28SOL     OW   92   0.113   0.737   1.597
   28SOL    HW1   93   0.201   0.724   1.642
   28SOL    HW2   94   0.100   0.834   1.575
   29SOL     OW   95   0.613   1.365   0.726
   29SOL    HW1   96   0.564   1.278   0.735
   29SOL    HW2   97   0.590   1.408   0.639
   30SOL     OW   98   0.809   0.004   0.502
   30SOL    HW1   99   0.849   0.095   0.493
   30SOL    HW2  100   0.709   0.012   0.508
   31SOL     OW  101   0.197   0.976   1.264
   31SOL    HW1  102   0.286   0.931   1.250
   31SOL    HW2  103   0.124   0.911   1.245
   32SOL     OW  104   1.525   0.999   0.190
   32SOL    HW1  105   1.462   0.923   0.203
   32SOL    HW2  106   1.573   1.017   0.276
   33SOL     OW  107   1.187   1.792   1.616
   33SOL    HW1  108   1.211   1.852   1.540
   33SOL    HW2  109   1.194   1.697   1.586
   34SOL     OW  110   0.317   0.251   1.801
   34SOL    HW1  111   0.388   0.322   1.807
   34SOL    HW2  112   0.229   0.290   1.829
   35SOL     OW  113   1.466   1.417   0.953
   35SOL    HW1  114   1.407   1.423   1.033
   35SOL    HW2  115   1.451   1.329   0.907
   36SOL     OW  116   1.667   1.714   0.572
   36SOL    HW1  117   1.626   1.691   0.484
   36SOL    HW2  118   1.649   1.640   0.637
   37SOL     OW  119   0.598   0.729   0.270
   37SOL    HW1  120   0.622   0.798   0.202
   37SOL    HW2  121   0.520   0.762   0.324
   38SOL     OW  122   1.281   0.345   0.944
   38SOL    HW1  123   1.195   0.295   0.931
   38SOL    HW2  124   1.343   0.291   1.000
   39SOL     OW  125   1.576   1.662   0.307
   39SOL    HW1  126   1.665   1.708   0.310
   39SOL    HW2  127   1.555   1.638   0.212
   40SOL     OW  128   0.807   0.605   1.465
   40SOL    HW1  129   0.760   0.602   1.554
   40SOL    HW2  130   0.756   0.550   1.399
   41SOL     OW  131   1.394   0.469   1.674
   41SOL    HW1  132   1.374   0.512   1.762
   41SOL    HW2  133   1.472   0.407   1.683
   42SOL     OW  134   0.973   0.890   1.572
   42SOL    HW1  135   1.019   0.806   1.543
   42SOL    HW2  136   0.917   0.924   1.497
   43SOL     OW  137   0.991   0.410   1.242
   43SOL    HW1  138   0.914   0.444   1.296
   43SOL    HW2  139   0.957   0.359   1.163
   44SOL     OW  140   1.041   0.701   0.429
   44SOL    HW1  141   1.067   0.697   0.525
   44SOL    HW2  142   0.956   0.650   0.415
   45SOL     OW  143   0.076   0.811   0.789
   45SOL    HW1  144   0.175   0.799   0.798
   45SOL    HW2  145   0.052   0.906   0.810
   46SOL     OW  146   0.130   1.821   1.571
   46SOL    HW1  147   0.120   1.806   1.670
   46SOL    HW2  148   0.044   1.857   1.535
   47SOL     OW  149   0.865   0.348   0.195
   47SOL    HW1  150   0.924   0.411   0.146
   47SOL    HW2  151   0.884   0.254   0.166
   48SOL     OW  152   1.719   0.585   1.831
   48SOL    HW1  153   1.693   0.674   1.795
   48SOL    HW2  154   1.717   0.517   1.758
   49SOL     OW  155   1.362   1.144   0.545
   49SOL    HW1  156   1.445   1.115   0.497
   49SOL    HW2  157   1.313   1.211   0.489
   50SOL     OW  158   0.550   0.196   0.885
   50SOL    HW1  159   0.545   0.191   0.985
   50SOL    HW2  160   0.552   0.292   0.856
   51SOL     OW  161   1.008   1.456   0.477
   51SOL    HW1  162   0.962   1.528   0.425
   51SOL    HW2  163   1.004   1.476   0.575
   52SOL     OW  164   0.351   1.801   0.853
   52SOL    HW1  165   0.401   1.715   0.859
   52SOL    HW2  166   0.416   1.878   0.850
   53SOL     OW  167   1.795   1.066   0.873
   53SOL    HW1  168   1.733   1.051   0.797
   53SOL    HW2  169   1.743   1.077   0.958
   54SOL     OW  170   1.227   1.550   1.506
   54SOL    HW1  171   1.233   1.473   1.570
   54SOL    HW2  172   1.175   1.524   1.426
   55SOL     OW  173   0.321   0.943   0.242
   55SOL    HW1  174   0.403   0.982   0.200
   55SOL    HW2  175   0.294   0.861   0.193
   56SOL     OW  176   1.458   0.735   0.728
   56SOL    HW1  177   1.453   0.670   0.803
   56SOL    HW2  178   1.538   0.794   0.741
   57SOL     OW  179   0.461   1.266   1.727
   57SOL    HW1  180   0.411   1.267   1.641
   57SOL    HW2  181   0.398   1.248   1.803
   58SOL     OW  182   1.111   1.776   0.237
   58SOL    HW1  183   1.051   1.714   0.287
   58SOL    HW2  184   1.142   1.732   0.152
   59SOL     OW  185   0.202   0.285   1.498
   59SOL    HW1  186   0.122   0.345   1.485
   59SOL    HW2  187   0.192   0.236   1.584
   60SOL     OW  188   1.632   1.377   0.081
   60SOL    HW1  189   1.600   1.471   0.071
   60SOL    HW2  190   1.556   1.314   0.069
   61SOL     OW  191   0.464   1.743   0.323
   61SOL    HW1  192   0.497   1.782   0.409
   61SOL    HW2  193   0.540   1.736   0.258
   62SOL     OW  194   1.400   0.107   0.426
   62SOL    HW1  195   1.376   0.070   0.336
   62SOL    HW2  196   1.499   0.123   0.430
   63SOL     OW  197   0.249   1.785   1.241
   63SOL    HW1  198   0.306   1.720   1.291
   63SOL    HW2  199   0.233   1.752   1.148
   64SOL     OW  200   0.940   1.698   0.904
   64SOL    HW1  201   1.020   1.641   0.925
   64SOL    HW2  202   0.891   1.658   0.827
   65SOL     OW  203   0.382   0.700   0.480
   65SOL    HW1  204   0.427   0.610   0.477
   65SOL    HW2  205   0.288   0.689   0.513
   66SOL     OW  206   1.547   0.222   1.729
   66SOL    HW1  207   1.542   0.259   1.821
   66SOL    HW2  208   1.475   0.153   1.717
   67SOL     OW  209   0.614   0.122   0.117
   67SOL    HW1  210   0.712   0.100   0.124
   67SOL    HW2  211   0.583   0.105   0.024
   68SOL     OW  212   0.781   0.264   1.749
   68SOL    HW1  213   0.848   0.203   1.792
   68SOL    HW2  214   0.708   0.283   1.814
   69SOL     OW  215   0.888   1.514   1.195
   69SOL    HW1  216   0.865   1.489   1.101
   69SOL    HW2  217   0.949   1.445   1.234
   70SOL     OW  218   1.351   0.590   1.433
   70SOL    HW1  219   1.379   0.547   1.518
   70SOL    HW2  220   1.376   0.686   1.434
   71SOL     OW  221   0.803   1.402   0.924
   71SOL    HW1  222   0.893   1.416   0.882
   71SOL    HW2  223   0.732   1.404   0.853
   72SOL     OW  224   0.922   0.503   0.899
   72SOL    HW1  225   0.897   0.494   0.803
   72SOL    HW2  226   0.970   0.421   0.930
   73SOL     OW  227   0.539   0.064   0.512
   73SOL    HW1  228   0.458   0.065   0.570
   73SOL    HW2  229   0.542   0.147   0.457
   74SOL     OW  230   1.434   1.188   0.041
   74SOL    HW1  231   1.466   1.112   0.098
   74SOL    HW2  232   1.342   1.215   0.071
   75SOL     OW  233   0.297   0.035   0.171
   75SOL    HW1  234   0.346   0.119   0.150
   75SOL    HW2  235   0.359  -0.030   0.216
   76SOL     OW  236   0.935   0.236   0.480
   76SOL    HW1  237   0.887   0.277   0.402
   76SOL    HW2  238   1.034   0.234   0.461
   77SOL     OW  239   1.076   0.683   1.464
   77SOL    HW1  240   0.996   0.622   1.467
   77SOL    HW2  241   1.157   0.630   1.440
   78SOL     OW  242   1.227   1.570   0.793
   78SOL    HW1  243   1.248   1.644   0.728
   78SOL    HW2  244   1.295   1.570   0.866
   79SOL     OW  245   0.459   1.152   0.741
   79SOL    HW1  246   0.388   1.125   0.806
   79SOL    HW2  247   0.433   1.124   0.648
   80SOL     OW  248   1.271   1.797   0.591
   80SOL    HW1  249   1.315   1.861   0.527
   80SOL    HW2  250   1.221   1.849   0.661
   81SOL     OW  251   1.032   0.549   0.016
   81SOL    HW1  252   0.991   0.631  -0.023
   81SOL    HW2  253   1.096   0.575   0.089
   82SOL     OW  254   0.078   0.556   1.386
   82SOL    HW1  255   0.170   0.555   1.345
   82SOL    HW2  256   0.072   0.630   1.453
   83SOL     OW  257   0.561   0.222   1.147
   83SOL    HW1  258   0.599   0.138   1.184
   83SOL    HW2  259   0.473   0.241   1.191
   84SOL     OW  260   0.866   0.454   0.642
   84SOL    HW1  261   0.834   0.526   0.580
   84SOL    HW2  262   0.890   0.373   0.589
   85SOL     OW  263   1.017   0.039   0.753
   85SOL    HW1  264   0.945   0.044   0.684
   85SOL    HW2  265   0.993  -0.030   0.822
   86SOL     OW  266   1.429   1.173   0.867
   86SOL    HW1  267   1.374   1.089   0.860
   86SOL    HW2  268   1.455   1.202   0.775
   87SOL     OW  269   1.466   0.590   0.992
   87SOL    HW1  270   1.436   0.495   0.999
   87SOL    HW2  271   1.539   0.606   1.058
   88SOL     OW  272   1.857   0.833   0.377
   88SOL    HW1  273   1.899   0.769   0.441
   88SOL    HW2  274   1.819   0.782   0.299
   89SOL     OW  275   0.488   1.385   0.174
   89SOL    HW1  276   0.401   1.370   0.221
   89SOL    HW2  277   0.471   1.411   0.079
   90SOL     OW  278   1.664   1.280   0.657
   90SOL    HW1  279   1.763   1.288   0.671
   90SOL    HW2  280   1.619   1.364   0.688
   91SOL     OW  281   1.390   0.575   0.078
   91SOL    HW1  282   1.336   0.554   0.159
   91SOL    HW2  283   1.481   0.534   0.087
   92SOL     OW  284   0.527   0.256   0.328
   92SOL    HW1  285   0.554   0.197   0.253
   92SOL    HW2  286   0.527   0.351   0.297
   93SOL     OW  287   1.754   1.223   1.588
   93SOL    HW1  288   1.845   1.184   1.575
   93SOL    HW2  289   1.762   1.319   1.612
   94SOL     OW  290   1.592   1.629   1.625
   94SOL    HW1  291   1.619   1.663   1.535
   94SOL    HW2  292   1.671   1.591   1.671
   95SOL     OW  293   1.638   1.099   1.079
   95SOL    HW1  294   1.643   1.180   1.138
   95SOL    HW2  295   1.552   1.101   1.028
   96SOL     OW  296   0.915   0.089   1.402
   96SOL    HW1  297   0.940   0.069   1.307
   96SOL    HW2  298   0.987   0.145   1.444
   97SOL     OW  299   0.980   1.116   1.719
   97SOL    HW1  300   0.881   1.122   1.729
   97SOL    HW2  301   1.003   1.036   1.663
   98SOL     OW  302   0.705   1.050   0.368
   98SOL    HW1  303   0.691   1.057   0.467
   98SOL    HW2  304   0.789   0.999   0.350
   99SOL     OW  305   0.410   0.813   1.251
   99SOL    HW1  306   0.496   0.825   1.301
   99SOL    HW2  307   0.368   0.726   1.278
  100SOL     OW  308   1.274   0.386   1.262
  100SOL    HW1  309   1.295   0.460   1.326
  100SOL    HW2  310   1.185   0.403   1.219
  101SOL     OW  311   0.064   1.564   1.331
  101SOL    HW1  312   0.018   1.646   1.297
  101SOL    HW2  313   0.162   1.583   1.340
  102SOL     OW  314   0.367   1.100   0.501
  102SOL    HW1  315   0.360   1.183   0.445
  102SOL    HW2  316   0.371   1.020   0.441
  103SOL     OW  317   0.566   0.537   0.865
  103SOL    HW1  318   0.578   0.603   0.791
  103SOL    HW2  319   0.612   0.571   0.948
  104SOL     OW  320   1.252   1.348   0.388
  104SOL    HW1  321   1.302   1.425   0.428
  104SOL    HW2  322   1.157   1.350   0.420
  105SOL     OW  323   1.582   0.639   0.472
  105SOL    HW1  324   1.551   0.700   0.545
  105SOL    HW2  325   1.632   0.691   0.403
  106SOL     OW  326   0.354   1.510   1.329
  106SOL    HW1  327   0.333   1.466   1.242
  106SOL    HW2  328   0.451   1.536   1.332
  107SOL     OW  329   0.402   0.751   1.598
  107SOL    HW1  330   0.470   0.806   1.551
  107SOL    HW2  331   0.442   0.663   1.625
  108SOL     OW  332   1.587   0.779   1.670
  108SOL    HW1  333   1.495   0.817   1.665
  108SOL    HW2  334   1.647   0.826   1.605
  109SOL     OW  335   1.013   0.105   1.770
  109SOL    HW1  336   1.019   0.190   1.718
  109SOL    HW2  337   1.045   0.029   1.713
  110SOL     OW  338   0.504   0.050   1.740
  110SOL    HW1  339   0.462  -0.007   1.670
  110SOL    HW2  340   0.438   0.119   1.772
  111SOL     OW  341   0.573   0.870   1.029
  111SOL    HW1  342   0.617   0.959   1.020
  111SOL    HW2  343   0.510   0.870   1.106
  112SOL     OW  344   1.360   0.862   1.045
  112SOL    HW1  345   1.285   0.862   0.979
  112SOL    HW2  346   1.397   0.770   1.054
  113SOL     OW  347   1.209   0.525   0.275
  113SOL    HW1  348   1.222   0.441   0.329
  113SOL    HW2  349   1.180   0.599   0.335
  114SOL     OW  350   0.307   0.213   1.231
  114SOL    HW1  351   0.284   0.250   1.321
  114SOL    HW2  352   0.277   0.118   1.225
  115SOL     OW  353   0.037   1.310   1.282
  115SOL    HW1  354   0.090   1.261   1.350
  115SOL    HW2  355   0.059   1.408   1.287
  116SOL     OW  356   0.732   0.634   1.064
  116SOL    HW1  357   0.791   0.608   0.988
  116SOL    HW2  358   0.704   0.730   1.053
  117SOL     OW  359   1.728   0.935   1.854
  117SOL    HW1  360   1.682   0.928   1.765
  117SOL    HW2  361   1.666   0.979   1.920
  118SOL     OW  362   0.307   0.063   0.618
  118SOL    HW1  363   0.296   0.157   0.651
  118SOL    HW2  364   0.302   0.000   0.695
  119SOL     OW  365   1.622   0.367   0.374
  119SOL    HW1  366   1.624   0.291   0.438
  119SOL    HW2  367   1.574   0.444   0.414
  120SOL     OW  368   1.023   0.766   0.966
  120SOL    HW1  369   1.038   0.787   1.062
  120SOL    HW2  370   0.993   0.671   0.957
  121SOL     OW  371   0.980   1.573   1.700
  121SOL    HW1  372   0.960   1.617   1.612
  121SOL    HW2  373   1.019   1.482   1.684
  122SOL     OW  374   1.859   1.518   1.605
  122SOL    HW1  375   1.873   1.545   1.510
  122SOL    HW2  376   1.942   1.540   1.658
  123SOL     OW  377   0.350   0.898   1.804
  123SOL    HW1  378   0.426   0.942   1.852
  123SOL    HW2  379   0.385   0.851   1.722
  124SOL     OW  380   1.540   0.274   0.125
  124SOL    HW1  381   1.479   0.199   0.148
  124SOL    HW2  382   1.562   0.326   0.208
  125SOL     OW  383   1.303   0.838   0.042
  125SOL    HW1  384   1.337   0.745   0.057
  125SOL    HW2  385   1.321   0.865  -0.053
  126SOL     OW  386   1.068   1.333   0.849
  126SOL    HW1  387   1.075   1.249   0.794
  126SOL    HW2  388   1.130   1.402   0.813
  127SOL     OW  389   0.319   0.810   0.949
  127SOL    HW1  390   0.412   0.846   0.954
  127SOL    HW2  391   0.313   0.725   1.001
  128SOL     OW  392   0.339   0.509   1.006
  128SOL    HW1  393   0.287   0.426   0.989
  128SOL    HW2  394   0.416   0.514   0.942
  129SOL     OW  395   1.138   0.380   1.678
  129SOL    HW1  396   1.093   0.443   1.742
  129SOL    HW2  397   1.231   0.411   1.661
  130SOL     OW  398   1.160   0.207   1.477
  130SOL    HW1  399   1.160   0.271   1.554
  130SOL    HW2  400   1.188   0.255   1.394
  131SOL     OW  401   0.008   1.326   0.200
  131SOL    HW1  402  -0.085   1.347   0.169
  131SOL    HW2  403   0.018   1.227   0.213
  132SOL     OW  404   0.088   1.801   0.927
  132SOL    HW1  405   0.046   1.715   0.900
  132SOL    HW2  406   0.182   1.804   0.893
  133SOL     OW  407   0.504   1.568   0.910
  133SOL    HW1  408   0.570   1.642   0.919
  133SOL    HW2  409   0.548   1.489   0.868
  134SOL     OW  410   1.002   0.796   1.238
  134SOL    HW1  411   1.043   0.764   1.324
  134SOL    HW2  412   0.906   0.769   1.235
  135SOL     OW  413   0.040   0.544   1.114
  135SOL    HW1  414   0.125   0.511   1.073
  135SOL    HW2  415   0.053   0.559   1.212
  136SOL     OW  416   0.189   0.520   1.722
  136SOL    HW1  417   0.248   0.480   1.652
  136SOL    HW2  418   0.131   0.591   1.681
  137SOL     OW  419   1.369   0.950   1.660
  137SOL    HW1  420   1.408   1.039   1.680
  137SOL    HW2  421   1.379   0.930   1.563
  138SOL     OW  422   0.815   0.572   0.325
  138SOL    HW1  423   0.822   0.483   0.279
  138SOL    HW2  424   0.721   0.606   0.317
  139SOL     OW  425   1.657   0.604   1.206
  139SOL    HW1  426   1.619   0.535   1.268
  139SOL    HW2  427   1.739   0.568   1.162
  140SOL     OW  428   0.252   1.564   1.744
  140SOL    HW1  429   0.222   1.621   1.820
  140SOL    HW2  430   0.245   1.467   1.770
  141SOL     OW  431   0.671   0.464   1.269
  141SOL    HW1  432   0.637   0.375   1.239
  141SOL    HW2  433   0.697   0.518   1.189
  142SOL     OW  434   0.930   1.678   1.465
  142SOL    HW1  435   0.906   1.660   1.370
  142SOL    HW2  436   0.960   1.772   1.475
  143SOL     OW  437   0.473   0.500   0.191
  143SOL    HW1  438   0.534   0.580   0.195
  143SOL    HW2  439   0.378   0.531   0.198
  144SOL     OW  440   0.159   1.137   1.466
  144SOL    HW1  441   0.181   1.076   1.542
  144SOL    HW2  442   0.169   1.088   1.380
  145SOL     OW  443   1.302   0.855   0.309
  145SOL    HW1  444   1.216   0.824   0.351
  145SOL    HW2  445   1.298   0.841   0.210
  146SOL     OW  446   1.759   1.747   1.154
  146SOL    HW1  447   1.820   1.777   1.081
  146SOL    HW2  448   1.721   1.658   1.132
  147SOL     OW  449   1.252   1.731   1.128
  147SOL    HW1  450   1.336   1.736   1.074
  147SOL    HW2  451   1.229   1.635   1.146
  148SOL     OW  452   0.083   1.258   1.022
  148SOL    HW1  453   0.078   1.257   1.122
  148SOL    HW2  454   0.000   1.217   0.984
  149SOL     OW  455   0.688   1.662   1.716
  149SOL    HW1  456   0.632   1.743   1.725
  149SOL    HW2  457   0.740   1.666   1.630
  150SOL     OW  458   0.903   0.086   0.133
  150SOL    HW1  459   0.954   0.087   0.047
  150SOL    HW2  460   0.959   0.044   0.204
  151SOL     OW  461   1.726   0.135   0.523
  151SOL    HW1  462   1.799   0.118   0.456
  151SOL    HW2  463   1.695   0.048   0.561
  152SOL     OW  464   1.388   1.573   0.477
  152SOL    HW1  465   1.455   1.585   0.403
  152SOL    HW2  466   1.348   1.662   0.500
  153SOL     OW  467   0.130   1.794   1.851
  153SOL    HW1  468   0.089   1.720   1.904
  153SOL    HW2  469   0.194   1.845   1.909
  154SOL     OW  470   1.280   0.927   0.672
  154SOL    HW1  471   1.340   0.846   0.674
  154SOL    HW2  472   1.320   0.996   0.612
  155SOL     OW  473   0.830   1.273   1.422
  155SOL    HW1  474   0.825   1.306   1.517
  155SOL    HW2  475   0.744   1.292   1.376
  156SOL     OW  476   0.672   1.616   0.154
  156SOL    HW1  477   0.681   1.626   0.055
  156SOL    HW2  478   0.632   1.527   0.175
  157SOL     OW  479   1.650   1.720   1.394
  157SOL    HW1  480   1.703   1.730   1.310
  157SOL    HW2  481   1.623   1.810   1.428
  158SOL     OW  482   1.841   0.175   0.963
  158SOL    HW1  483   1.880   0.090   0.927
  158SOL    HW2  484   1.743   0.177   0.944
  159SOL     OW  485   0.263   0.326   0.720
  159SOL    HW1  486   0.184   0.377   0.686
  159SOL    HW2  487   0.254   0.311   0.818
  160SOL     OW  488   1.194   1.612   0.031
  160SOL    HW1  489   1.200   1.519   0.068
  160SOL    HW2  490   1.135   1.612  -0.049
  161SOL     OW  491   0.822   1.002   1.372
  161SOL    HW1  492   0.862   1.001   1.280
  161SOL    HW2  493   0.832   1.094   1.412
  162SOL     OW  494   0.916   0.910   0.291
  162SOL    HW1  495   0.979   0.948   0.223
  162SOL    HW2  496   0.956   0.827   0.330
  163SOL     OW  497   1.504   1.607   0.044
  163SOL    HW1  498   1.412   1.644   0.051
  163SOL    HW2  499   1.542   1.627  -0.046
  164SOL     OW  500   0.372   1.288   1.490
  164SOL    HW1  501   0.359   1.381   1.456
  164SOL    HW2  502   0.288   1.236   1.477
  165SOL     OW  503   1.039   1.098   0.696
  165SOL    HW1  504   0.969   1.051   0.750
  165SOL    HW2  505   1.098   1.030   0.653
  166SOL     OW  506   1.014   0.236   0.971
  166SOL    HW1  507   1.006   0.200   0.878
  166SOL    HW2  508   1.012   0.160   1.036
  167SOL     OW  509   0.590   1.487   0.491
  167SOL    HW1  510   0.632   1.429   0.421
  167SOL    HW2  511   0.546   1.566   0.447
  168SOL     OW  512   1.709   0.385   1.381
  168SOL    HW1  513   1.782   0.454   1.385
  168SOL    HW2  514   1.737   0.310   1.322
  169SOL     OW  515   0.255   1.348   0.290
  169SOL    HW1  516   0.159   1.349   0.263
  169SOL    HW2  517   0.267   1.401   0.374
  170SOL     OW  518   0.105   1.013   1.726
  170SOL    HW1  519   0.028   0.980   1.780
  170SOL    HW2  520   0.190   0.983   1.768
  171SOL     OW  521   0.672   0.203   1.489
  171SOL    HW1  522   0.762   0.187   1.449
  171SOL    HW2  523   0.680   0.208   1.588
  172SOL     OW  524   0.075   0.345   0.033
  172SOL    HW1  525  -0.017   0.317   0.004
  172SOL    HW2  526   0.106   0.422  -0.023
  173SOL     OW  527   1.440   0.856   1.398
  173SOL    HW1  528   1.383   0.908   1.335
  173SOL    HW2  529   1.536   0.868   1.374
  174SOL     OW  530   0.072   0.166   0.318
  174SOL    HW1  531   0.055   0.249   0.264
  174SOL    HW2  532   0.162   0.129   0.296
  175SOL     OW  533   1.183   1.335   0.119
  175SOL    HW1  534   1.084   1.324   0.121
  175SOL    HW2  535   1.217   1.350   0.212
  176SOL     OW  536   0.613   0.842   1.431
  176SOL    HW1  537   0.669   0.923   1.414
  176SOL    HW2  538   0.672   0.762   1.434
  177SOL     OW  539   1.493   1.767   0.959
  177SOL    HW1  540   1.526   1.831   0.890
  177SOL    HW2  541   1.559   1.761   1.034
  178SOL     OW  542   0.716   0.565   1.708
  178SOL    HW1  543   0.735   0.630   1.782
  178SOL    HW2  544   0.776   0.485   1.717
  179SOL     OW  545   1.450   1.220   1.633
  179SOL    HW1  546   1.441   1.210   1.732
  179SOL    HW2  547   1.546   1.213   1.607
  180SOL     OW  548   0.390   1.741   1.560
  180SOL    HW1  549   0.299   1.782   1.558
  180SOL    HW2  550   0.383   1.647   1.592
  181SOL     OW  551   1.674   0.883   1.254
  181SOL    HW1  552   1.647   0.794   1.217
  181SOL    HW2  553   1.675   0.951   1.181
  182SOL     OW  554   1.225   0.325   0.449
  182SOL    HW1  555   1.290   0.251   0.438
  182SOL    HW2  556   1.245   0.375   0.533
  183SOL     OW  557   0.594   0.745   0.652
  183SOL    HW1  558   0.644   0.830   0.633
  183SOL    HW2  559   0.506   0.747   0.604
  184SOL     OW  560   1.777   0.342   1.642
  184SOL    HW1  561   1.760   0.373   1.548
  184SOL    HW2  562   1.693   0.305   1.680
  185SOL     OW  563   1.730   0.934   1.517
  185SOL    HW1  564   1.768   1.025   1.532
  185SOL    HW2  565   1.722   0.917   1.418
  186SOL     OW  566   0.859   1.374   0.016
  186SOL    HW1  567   0.813   1.389   0.104
  186SOL    HW2  568   0.903   1.459  -0.014
  187SOL     OW  569   0.661   1.790   0.953
  187SOL    HW1  570   0.615   1.878   0.940
  187SOL    HW2  571   0.760   1.802   0.946
  188SOL     OW  572   0.859   0.956   0.861
  188SOL    HW1  573   0.913   0.887   0.909
  188SOL    HW2  574   0.827   1.025   0.927
  189SOL     OW  575   1.083   0.984   0.087
  189SOL    HW1  576   1.060   1.037   0.005
  189SOL    HW2  577   1.164   0.928   0.068
  190SOL     OW  578   1.861   1.569   0.851
  190SOL    HW1  579   1.790   1.557   0.781
  190SOL    HW2  580   1.862   1.490   0.911
  191SOL     OW  581   0.221   1.314   1.844
  191SOL    HW1  582   0.156   1.241   1.823
  191SOL    HW2  583   0.225   1.328   1.942
  192SOL     OW  584   0.079   1.240   0.653
  192SOL    HW1  585   0.078   1.193   0.741
  192SOL    HW2  586   0.161   1.212   0.602
  193SOL     OW  587   0.672   1.391   1.624
  193SOL    HW1  588   0.594   1.341   1.662
  193SOL    HW2  589   0.669   1.486   1.655
  194SOL     OW  590   1.824   0.192   1.227
  194SOL    HW1  591   1.820   0.102   1.271
  194SOL    HW2  592   1.827   0.181   1.128
  195SOL     OW  593   0.428   0.424   0.520
  195SOL    HW1  594   0.458   0.352   0.458
  195SOL    HW2  595   0.389   0.384   0.603
  196SOL     OW  596   1.705   1.487   1.104
  196SOL    HW1  597   1.612   1.462   1.077
  196SOL    HW2  598   1.731   1.437   1.186
  197SOL     OW  599   0.317   0.547   1.280
  197SOL    HW1  600   0.355   0.488   1.352
  197SOL    HW2  601   0.357   0.521   1.192
  198SOL     OW  602   0.812   1.586   0.687
  198SOL    HW1  603   0.844   1.596   0.593
  198SOL    HW2  604   0.733   1.524   0.689
  199SOL     OW  605   1.424   0.214   1.112
  199SOL    HW1  606   1.476   0.149   1.167
  199SOL    HW2  607   1.375   0.277   1.173
  200SOL     OW  608   1.001   0.034   1.154
  200SOL    HW1  609   0.938  -0.038   1.123
  200SOL    HW2  610   1.094  -0.002   1.154
  201SOL     OW  611   0.770   1.330   0.301
  201SOL    HW1  612   0.724   1.243   0.318
  201SOL    HW2  613   0.861   1.327   0.342
  202SOL     OW  614   0.618   1.567   1.284
  202SOL    HW1  615   0.613   1.649   1.341
  202SOL    HW2  616   0.707   1.564   1.239
  203SOL     OW  617   1.352   0.052   0.168
  203SOL    HW1  618   1.387   0.011   0.084
  203SOL    HW2  619   1.262   0.014   0.188
  204SOL     OW  620   1.300   0.453   0.691
  204SOL    HW1  621   1.241   0.533   0.695
  204SOL    HW2  622   1.315   0.418   0.784
  205SOL     OW  623   1.593   0.221   0.882
  205SOL    HW1  624   1.509   0.220   0.936
  205SOL    HW2  625   1.595   0.304   0.826
  206SOL     OW  626   0.039   1.077   0.300
  206SOL    HW1  627   0.138   1.066   0.291
  206SOL    HW2  628  -0.001   0.991   0.332
  207SOL     OW  629   0.875   1.646   0.337
  207SOL    HW1  630   0.798   1.611   0.283
  207SOL    HW2  631   0.843   1.717   0.399
  208SOL     OW  632   0.230   0.628   1.975
  208SOL    HW1  633   0.137   0.626   2.012
  208SOL    HW2  634   0.231   0.589   1.883
  209SOL     OW  635   1.755   0.607   2.093
  209SOL    HW1  636   1.743   0.594   1.994
  209SOL    HW2  637   1.725   0.526   2.142
  210SOL     OW  638   0.231   1.713   2.345
  210SOL    HW1  639   0.265   1.790   2.399
  210SOL    HW2  640   0.275   1.713   2.255
  211SOL     OW  641   0.230   1.434   2.400
  211SOL    HW1  642   0.204   1.530   2.400
  211SOL    HW2  643   0.159   1.380   2.445
  212SOL     OW  644   0.606   0.964   1.985
  212SOL    HW1  645   0.613   1.048   1.931
  212SOL    HW2  646   0.652   0.977   2.073
  213SOL     OW  647   0.122   0.643   2.425
  213SOL    HW1  648   0.077   0.555   2.442
  213SOL    HW2  649   0.121   0.697   2.509
  214SOL     OW  650   1.842   1.767   2.221
  214SOL    HW1  651   1.896   1.738   2.301
  214SOL    HW2  652   1.872   1.857   2.192
  215SOL     OW  653   0.027   1.596   1.979
  215SOL    HW1  654   0.008   1.500   2.000
  215SOL    HW2  655  -0.006   1.654   2.054
  216SOL     OW  656   1.689   0.922   2.474
  216SOL    HW1  657   1.784   0.893   2.482
  216SOL    HW2  658   1.681   0.987   2.399
  217SOL     OW  659   1.641   1.108   2.294
  217SOL    HW1  660   1.727   1.110   2.242
  217SOL    HW2  661   1.655   1.155   2.382
  218SOL     OW  662   0.809   0.004   2.364
  218SOL    HW1  663   0.849   0.095   2.355
  218SOL    HW2  664   0.709   0.012   2.370
  219SOL     OW  665   1.525   0.999   2.052
  219SOL    HW1  666   1.462   0.923   2.065
  219SOL    HW2  667   1.573   1.017   2.138
  220SOL     OW  668   0.598   0.729   2.132
  220SOL    HW1  669   0.622   0.798   2.064
  220SOL    HW2  670   0.520   0.762   2.186
  221SOL     OW  671   1.576   1.662   2.169
  221SOL    HW1  672   1.665   1.708   2.172
  221SOL    HW2  673   1.555   1.638   2.074
  222SOL     OW  674   1.041   0.701   2.291
  222SOL    HW1  675   1.067   0.697   2.387
  222SOL    HW2  676   0.956   0.650   2.277
  223SOL     OW  677   0.076   0.811   2.651
  223SOL    HW1  678   0.175   0.799   2.660
  223SOL    HW2  679   0.052   0.906   2.672
  224SOL     OW  680   0.865   0.348   2.057
  224SOL    HW1  681   0.924   0.411   2.008
  224SOL    HW2  682   0.884   0.254   2.028
  225SOL     OW  683   1.362   1.144   2.407
  225SOL    HW1  684   1.445   1.115   2.359
  225SOL    HW2  685   1.313   1.211   2.351
  226SOL     OW  686   0.321   0.943   2.104
  226SOL    HW1  687   0.403   0.982   2.062
  226SOL    HW2  688   0.294   0.861   2.055
  227SOL     OW  689   1.111   1.776   2.099
  227SOL    HW1  690   1.051   1.714   2.149
  227SOL    HW2  691   1.142   1.732   2.014
  228SOL     OW  692   1.632   1.377   1.943
  228SOL    HW1  693   1.600   1.471   1.933
  228SOL    HW2  694   1.556   1.314   1.931
  229SOL     OW  695   0.464   1.743   2.185
  229SOL    HW1  696   0.497   1.782   2.271
  229SOL    HW2  697   0.540   1.736   2.120
  230SOL     OW  698   1.400   0.107   2.288
  230SOL    HW1  699   1.376   0.070   2.198
  230SOL    HW2  700   1.499   0.123   2.292
  231SOL     OW  701   0.382   0.700   2.342
  231SOL    HW1  702   0.427   0.610   2.339
  231SOL    HW2  703   0.288   0.689   2.375
  232SOL     OW  704   0.614   0.122   1.979
  232SOL    HW1  705   0.712   0.100   1.986
  232SOL    HW2  706   0.583   0.105   1.886
  233SOL     OW  707   0.539   0.064   2.374
  233SOL    HW1  708   0.458   0.065   2.432
  233SOL    HW2  709   0.542   0.147   2.319
  234SOL     OW  710   1.434   1.188   1.903
  234SOL    HW1  711   1.466   1.112   1.960
  234SOL    HW2  712   1.342   1.215   1.933
  235SOL     OW  713   0.297   0.035   2.033
  235SOL    HW1  714   0.346   0.119   2.012
  235SOL    HW2  715   0.359  -0.030   2.078
  236SOL     OW  716   0.935   0.236   2.342
  236SOL    HW1  717   0.887   0.277   2.264
  236SOL    HW2  718   1.034   0.234   2.323
  237SOL     OW  719   0.459   1.152   2.603
  237SOL    HW1  720   0.388   1.125   2.668
  237SOL    HW2  721   0.433   1.124   2.510
  238SOL     OW  722   1.271   1.797   2.453
  238SOL    HW1  723   1.315   1.861   2.389
  238SOL    HW2  724   1.221   1.849   2.523
  239SOL     OW  725   1.032   0.549   1.878
  239SOL    HW1  726   0.991   0.631   1.839
  239SOL    HW2  727   1.096   0.575   1.951
  240SOL     OW  728   0.866   0.454   2.504
  240SOL    HW1  729   0.834   0.526   2.442
  240SOL    HW2  730   0.890   0.373   2.451
  241SOL     OW  731   1.857   0.833   2.239
  241SOL    HW1  732   1.899   0.769   2.303
  241SOL    HW2  733   1.819   0.782   2.161
  242SOL     OW  734   0.488   1.385   2.036
  242SOL    HW1  735   0.401   1.370   2.083
  242SOL    HW2  736   0.471   1.411   1.941
  243SOL     OW  737   1.390   0.575   1.940
  243SOL    HW1  738   1.336   0.554   2.021
  243SOL    HW2  739   1.481   0.534   1.949
  244SOL     OW  740   0.527   0.256   2.190
  244SOL    HW1  741   0.554   0.197   2.115
  244SOL    HW2  742   0.527   0.351   2.159
  245SOL     OW  743   0.705   1.050   2.230
  245SOL    HW1  744   0.691   1.057   2.329
  245SOL    HW2  745   0.789   0.999   2.212
  246SOL     OW  746   0.367   1.100   2.363
  246SOL    HW1  747   0.360   1.183   2.307
  246SOL    HW2  748   0.371   1.020   2.303
  247SOL     OW  749   1.252   1.348   2.250
  247SOL    HW1  750   1.302   1.425   2.290
  247SOL    HW2  751   1.157   1.350   2.282
  248SOL     OW  752   1.582   0.639   2.334
  248SOL    HW1  753   1.551   0.700   2.407
  248SOL    HW2  754   1.632   0.691   2.265
  249SOL     OW  755   1.209   0.525   2.137
  249SOL    HW1  756   1.222   0.441   2.191
  249SOL    HW2  757   1.180   0.599   2.197
  250SOL     OW  758   1.622   0.367   2.236
  250SOL    HW1  759   1.624   0.291   2.300
  250SOL    HW2  760   1.574   0.444   2.276
  251SOL     OW  761   1.540   0.274   1.987
  251SOL    HW1  762   1.479   0.199   2.010
  251SOL    HW2  763   1.562   0.326   2.070
  252SOL     OW  764   1.303   0.838   1.904
  252SOL    HW1  765   1.337   0.745   1.919
  252SOL    HW2  766   1.321   0.865   1.809
  253SOL     OW  767   0.008   1.326   2.062
  253SOL    HW1  768  -0.085   1.347   2.031
  253SOL    HW2  769   0.018   1.227   2.075
  254SOL     OW  770   0.815   0.572   2.187
  254SOL    HW1  771   0.822   0.483   2.141
  254SOL    HW2  772   0.721   0.606   2.179
  255SOL     OW  773   0.473   0.500   2.053
  255SOL    HW1  774   0.534   0.580   2.057
  255SOL    HW2  775   0.378   0.531   2.060
  256SOL     OW  776   1.302   0.855   2.171
  256SOL    HW1  777   1.216   0.824   2.213
  256SOL    HW2  778   1.298   0.841   2.072
  257SOL     OW  779   1.726   0.135   2.385
  257SOL    HW1  780   1.799   0.118   2.318
  257SOL    HW2  781   1.695   0.048   2.423
  258SOL     OW  782   1.388   1.573   2.339
  258SOL    HW1  783   1.455   1.585   2.265
  258SOL    HW2  784   1.348   1.662   2.362
  259SOL     OW  785   0.672   1.616   2.016
  259SOL    HW1  786   0.681   1.626   1.917
  259SOL    HW2  787   0.632   1.527   2.037
  260SOL     OW  788   1.194   1.612   1.893
  260SOL    HW1  789   1.200   1.519   1.930
  260SOL    HW2  790   1.135   1.612   1.813
  261SOL     OW  791   0.916   0.910   2.153
  261SOL    HW1  792   0.979   0.948   2.085
  261SOL    HW2  793   0.956   0.827   2.192
  262SOL     OW  794   1.504   1.607   1.906
  262SOL    HW1  795   1.412   1.644   1.913
  262SOL    HW2  796   1.542   1.627   1.816
  263SOL     OW  797   0.590   1.487   2.353
  263SOL    HW1  798   0.632   1.429   2.283
  263SOL    HW2  799   0.546   1.566   2.309
  264SOL     OW  800   0.255   1.348   2.152
  264SOL    HW1  801   0.159   1.349   2.125
  264SOL    HW2  802   0.267   1.401   2.236
  265SOL     OW  803   0.075   0.345   1.895
  265SOL    HW1  804  -0.017   0.317   1.866
  265SOL    HW2  805   0.106   0.422   1.839
  266SOL     OW  806   0.072   0.166   2.180
  266SOL    HW1  807   0.055   0.249   2.126
  266SOL    HW2  808   0.162   0.129   2.158
  267SOL     OW  809   1.183   1.335   1.981
  267SOL    HW1  810   1.084   1.324   1.983
  267SOL    HW2  811   1.217   1.350   2.074
  268SOL     OW  812   1.225   0.325   2.311
  268SOL    HW1  813   1.290   0.251   2.300
  268SOL    HW2  814   1.245   0.375   2.395
  269SOL     OW  815   0.594   0.745   2.514
  269SOL    HW1  816   0.644   0.830   2.495
  269SOL    HW2  817   0.506   0.747   2.466
  270SOL     OW  818   0.859   1.374   1.878
  270SOL    HW1  819   0.813   1.389   1.966
  270SOL    HW2  820   0.903   1.459   1.848
  271SOL     OW  821   1.083   0.984   1.949
  271SOL    HW1  822   1.060   1.037   1.867
  271SOL    HW2  823   1.164   0.928   1.930
  272SOL     OW  824   0.079   1.240   2.515
  272SOL    HW1  825   0.078   1.193   2.603
  272SOL    HW2  826   0.161   1.212   2.464
  273SOL     OW  827   0.428   0.424   2.382
  273SOL    HW1  828   0.458   0.352   2.320
  273SOL    HW2  829   0.389   0.384   2.465
  274SOL     OW  830   0.770   1.330   2.163
  274SOL    HW1  831   0.724   1.243   2.180
  274SOL    HW2  832   0.861   1.327   2.204
  275SOL     OW  833   1.352   0.052   2.030
  275SOL    HW1  834   1.387   0.011   1.946
  275SOL    HW2  835   1.262   0.014   2.050
  276SOL     OW  836   0.039   1.077   2.162
  276SOL    HW1  837   0.138   1.066   2.153
  276SOL    HW2  838  -0.001   0.991   2.194
  277SOL     OW  839   0.875   1.646   2.199
  277SOL    HW1  840   0.798   1.611   2.145
  277SOL    HW2  841   0.843   1.717   2.261
  278SOL     OW  842   0.225   2.137   0.996
  278SOL    HW1  843   0.260   2.120   1.088
  278SOL    HW2  844   0.137   2.092   0.984
  279SOL     OW  845   0.019   2.230   0.647
  279SOL    HW1  846  -0.063   2.273   0.686
  279SOL    HW2  847  -0.009   2.157   0.584
  280SOL     OW  848   1.755   2.469   0.231
  280SOL    HW1  849   1.743   2.456   0.132
  280SOL    HW2  850   1.725   2.388   0.280
  281SOL     OW  851   0.438   2.254   1.499
  281SOL    HW1  852   0.520   2.198   1.508
  281SOL    HW2  853   0.357   2.196   1.503
  282SOL     OW  854   1.603   2.309   0.737
  282SOL    HW1  855   1.529   2.355   0.687
  282SOL    HW2  856   1.654   2.377   0.790
  283SOL     OW  857   1.594   1.976   1.480
  283SOL    HW1  858   1.576   2.043   1.408
  283SOL    HW2  859   1.591   2.022   1.569
  284SOL     OW  860   0.122   2.505   0.563
  284SOL    HW1  861   0.077   2.417   0.580
  284SOL    HW2  862   0.121   2.559   0.647
  285SOL     OW  863   0.809   1.866   0.502
  285SOL    HW1  864   0.849   1.957   0.493
  285SOL    HW2  865   0.709   1.874   0.508
  286SOL     OW  866   0.317   2.113   1.801
  286SOL    HW1  867   0.388   2.184   1.807
  286SOL    HW2  868   0.229   2.152   1.829
  287SOL     OW  869   1.281   2.207   0.944
  287SOL    HW1  870   1.195   2.157   0.931
  287SOL    HW2  871   1.343   2.153   1.000
  288SOL     OW  872   0.807   2.467   1.465
  288SOL    HW1  873   0.760   2.464   1.554
  288SOL    HW2  874   0.756   2.412   1.399
  289SOL     OW  875   1.394   2.331   1.674
  289SOL    HW1  876   1.374   2.374   1.762
  289SOL    HW2  877   1.472   2.269   1.683
  290SOL     OW  878   0.991   2.272   1.242
  290SOL    HW1  879   0.914   2.306   1.296
  290SOL    HW2  880   0.957   2.221   1.163
  291SOL     OW  881   1.041   2.563   0.429
  291SOL    HW1  882   1.067   2.559   0.525
  291SOL    HW2  883   0.956   2.512   0.415
  292SOL     OW  884   0.076   2.673   0.789
  292SOL    HW1  885   0.175   2.661   0.798
  292SOL    HW2  886   0.052   2.768   0.810
  293SOL     OW  887   0.865   2.210   0.195
  293SOL    HW1  888   0.924   2.273   0.146
  293SOL    HW2  889   0.884   2.116   0.166
  294SOL     OW  890   1.719   2.447   1.831
  294SOL    HW1  891   1.693   2.536   1.795
  294SOL    HW2  892   1.717   2.379   1.758
  295SOL     OW  893   0.550   2.058   0.885
  295SOL    HW1  894   0.545   2.053   0.985
  295SOL    HW2  895   0.552   2.154   0.856
  296SOL     OW  896   1.458   2.597   0.728
  296SOL    HW1  897   1.453   2.532   0.803
  296SOL    HW2  898   1.538   2.656   0.741
  297SOL     OW  899   0.202   2.147   1.498
  297SOL    HW1  900   0.122   2.207   1.485
  297SOL    HW2  901   0.192   2.098   1.584
  298SOL     OW  902   1.400   1.969   0.426
  298SOL    HW1  903   1.376   1.932   0.336
  298SOL    HW2  904   1.499   1.985   0.430
  299SOL     OW  905   1.547   2.084   1.729
  299SOL    HW1  906   1.542   2.121   1.821
  299SOL    HW2  907   1.475   2.015   1.717
  300SOL     OW  908   0.614   1.984   0.117
  300SOL    HW1  909   0.712   1.962   0.124
  300SOL    HW2  910   0.583   1.967   0.024
  301SOL     OW  911   0.781   2.126   1.749
  301SOL    HW1  912   0.848   2.065   1.792
  301SOL    HW2  913   0.708   2.145   1.814
  302SOL     OW  914   1.351   2.452   1.433
  302SOL    HW1  915   1.379   2.409   1.518
  302SOL    HW2  916   1.376   2.548   1.434
  303SOL     OW  917   0.922   2.365   0.899
  303SOL    HW1  918   0.897   2.356   0.803
  303SOL    HW2  919   0.970   2.283   0.930
  304SOL     OW  920   0.539   1.926   0.512
  304SOL    HW1  921   0.458   1.927   0.570
  304SOL    HW2  922   0.542   2.009   0.457
  305SOL     OW  923   0.297   1.897   0.171
  305SOL    HW1  924   0.346   1.981   0.150
  305SOL    HW2  925   0.359   1.832   0.216
  306SOL     OW  926   0.935   2.098   0.480
  306SOL    HW1  927   0.887   2.139   0.402
  306SOL    HW2  928   1.034   2.096   0.461
  307SOL     OW  929   1.032   2.411   0.016
  307SOL    HW1  930   0.991   2.493  -0.023
  307SOL    HW2  931   1.096   2.437   0.089
  308SOL     OW  932   0.078   2.418   1.386
  308SOL    HW1  933   0.170   2.417   1.345
  308SOL    HW2  934   0.072   2.492   1.453
  309SOL     OW  935   0.561   2.084   1.147
  309SOL    HW1  936   0.599   2.000   1.184
  309SOL    HW2  937   0.473   2.103   1.191
  310SOL     OW  938   0.866   2.316   0.642
  310SOL    HW1  939   0.834   2.388   0.580
  310SOL    HW2  940   0.890   2.235   0.589
  311SOL     OW  941   1.017   1.901   0.753
  311SOL    HW1  942   0.945   1.906   0.684
  311SOL    HW2  943   0.993   1.832   0.822
  312SOL     OW  944   1.466   2.452   0.992
  312SOL    HW1  945   1.436   2.357   0.999
  312SOL    HW2  946   1.539   2.468   1.058
  313SOL     OW  947   0.527   2.118   0.328
  313SOL    HW1  948   0.554   2.059   0.253
  313SOL    HW2  949   0.527   2.213   0.297
  314SOL     OW  950   0.915   1.951   1.402
  314SOL    HW1  951   0.940   1.931   1.307
  314SOL    HW2  952   0.987   2.007   1.444
  315SOL     OW  953   1.274   2.248   1.262
  315SOL    HW1  954   1.295   2.322   1.326
  315SOL    HW2  955   1.185   2.265   1.219
  316SOL     OW  956   0.566   2.399   0.865
  316SOL    HW1  957   0.578   2.465   0.791
  316SOL    HW2  958   0.612   2.433   0.948
  317SOL     OW  959   1.582   2.501   0.472
  317SOL    HW1  960   1.551   2.562   0.545
  317SOL    HW2  961   1.632   2.553   0.403
  318SOL     OW  962   1.013   1.967   1.770
  318SOL    HW1  963   1.019   2.052   1.718
  318SOL    HW2  964   1.045   1.891   1.713
  319SOL     OW  965   0.504   1.912   1.740
  319SOL    HW1  966   0.462   1.855   1.670
  319SOL    HW2  967   0.438   1.981   1.772
  320SOL     OW  968   1.209   2.387   0.275
  320SOL    HW1  969   1.222   2.303   0.329
  320SOL    HW2  970   1.180   2.461   0.335
  321SOL     OW  971   0.307   2.075   1.231
  321SOL    HW1  972   0.284   2.112   1.321
  321SOL    HW2  973   0.277   1.980   1.225
  322SOL     OW  974   0.732   2.496   1.064
  322SOL    HW1  975   0.791   2.470   0.988
  322SOL    HW2  976   0.704   2.592   1.053
  323SOL     OW  977   0.307   1.925   0.618
  323SOL    HW1  978   0.296   2.019   0.651
  323SOL    HW2  979   0.302   1.862   0.695
  324SOL     OW  980   1.622   2.229   0.374
  324SOL    HW1  981   1.624   2.153   0.438
  324SOL    HW2  982   1.574   2.306   0.414
  325SOL     OW  983   1.540   2.136   0.125
  325SOL    HW1  984   1.479   2.061   0.148
  325SOL    HW2  985   1.562   2.188   0.208
  326SOL     OW  986   0.339   2.371   1.006
  326SOL    HW1  987   0.287   2.288   0.989
  326SOL    HW2  988   0.416   2.376   0.942
  327SOL     OW  989   1.138   2.242   1.678
  327SOL    HW1  990   1.093   2.305   1.742
  327SOL    HW2  991   1.231   2.273   1.661
  328SOL     OW  992   1.160   2.069   1.477
  328SOL    HW1  993   1.160   2.133   1.554
  328SOL    HW2  994   1.188   2.117   1.394
  329SOL     OW  995   0.040   2.406   1.114
  329SOL    HW1  996   0.125   2.373   1.073
  329SOL    HW2  997   0.053   2.421   1.212
  330SOL     OW  998   0.189   2.382   1.722
  330SOL    HW1  999   0.248   2.342   1.652
  330SOL    HW2 1000   0.131   2.453   1.681
  331SOL     OW 1001   0.815   2.434   0.325
  331SOL    HW1 1002   0.822   2.345   0.279
  331SOL    HW2 1003   0.721   2.468   0.317
  332SOL     OW 1004   1.657   2.466   1.206
  332SOL    HW1 1005   1.619   2.397   1.268
  332SOL    HW2 1006   1.739   2.430   1.162
  333SOL     OW 1007   0.671   2.326   1.269
  333SOL    HW1 1008   0.637   2.237   1.239
  333SOL    HW2 1009   0.697   2.380   1.189
  334SOL     OW 1010   0.903   1.948   0.133
  334SOL    HW1 1011   0.954   1.949   0.047
  334SOL    HW2 1012   0.959   1.906   0.204
  335SOL     OW 1013   1.726   1.997   0.523
  335SOL    HW1 1014   1.799   1.980   0.456
  335SOL    HW2 1015   1.695   1.910   0.561
  336SOL     OW 1016   1.841   2.037   0.963
  336SOL    HW1 1017   1.880   1.952   0.927
  336SOL    HW2 1018   1.743   2.039   0.944
  337SOL     OW 1019   0.263   2.188   0.720
  337SOL    HW1 1020   0.184   2.239   0.686
  337SOL    HW2 1021   0.254   2.173   0.818
  338SOL     OW 1022   1.014   2.098   0.971
  338SOL    HW1 1023   1.006   2.062   0.878
  338SOL    HW2 1024   1.012   2.022   1.036
  339SOL     OW 1025   1.709   2.247   1.381
  339SOL    HW1 1026   1.782   2.316   1.385
  339SOL    HW2 1027   1.737   2.172   1.322
  340SOL     OW 1028   0.672   2.065   1.489
  340SOL    HW1 1029   0.762   2.049   1.449
  340SOL    HW2 1030   0.680   2.070   1.588
  341SOL     OW 1031   0.075   2.207   0.033
  341SOL    HW1 1032  -0.017   2.179   0.004
  341SOL    HW2 1033   0.106   2.284  -0.023
  342SOL     OW 1034   0.072   2.028   0.318
  342SOL    HW1 1035   0.055   2.111   0.264
  342SOL    HW2 1036   0.162   1.991   0.296
  343SOL     OW 1037   0.716   2.427   1.708
  343SOL    HW1 1038   0.735   2.492   1.782
  343SOL    HW2 1039   0.776   2.347   1.717
  344SOL     OW 1040   1.225   2.187   0.449
  344SOL    HW1 1041   1.290   2.113   0.438
  344SOL    HW2 1042   1.245   2.237   0.533
  345SOL     OW 1043   1.777   2.204   1.642
  345SOL    HW1 1044   1.760   2.235   1.548
  345SOL    HW2 1045   1.693   2.167   1.680
  346SOL     OW 1046   1.824   2.054   1.227
  346SOL    HW1 1047   1.820   1.964   1.271
  346SOL    HW2 1048   1.827   2.043   1.128
  347SOL     OW 1049   0.428   2.286   0.520
  347SOL    HW1 1050   0.458   2.214   0.458
  347SOL    HW2 1051   0.389   2.246   0.603
  348SOL     OW 1052   0.317   2.409   1.280
  348SOL    HW1 1053   0.355   2.350   1.352
  348SOL    HW2 1054   0.357   2.383   1.192
  349SOL     OW 1055   1.424   2.076   1.112
  349SOL    HW1 1056   1.476   2.011   1.167
  349SOL    HW2 1057   1.375   2.139   1.173
  350SOL     OW 1058   1.001   1.896   1.154
  350SOL    HW1 1059   0.938   1.824   1.123
  350SOL    HW2 1060   1.094   1.860   1.154
  351SOL     OW 1061   1.352   1.914   0.168
  351SOL    HW1 1062   1.387   1.873   0.084
  351SOL    HW2 1063   1.262   1.876   0.188
  352SOL     OW 1064   1.300   2.315   0.691
  352SOL    HW1 1065   1.241   2.395   0.695
  352SOL    HW2 1066   1.315   2.280   0.784
  353SOL     OW 1067   1.593   2.083   0.882
  353SOL    HW1 1068   1.509   2.082   0.936
  353SOL    HW2 1069   1.595   2.166   0.826
  354SOL     OW 1070   1.755   2.469   2.093
  354SOL    HW1 1071   1.743   2.456   1.994
  354SOL    HW2 1072   1.725   2.388   2.142
  355SOL     OW 1073   0.122   2.505   2.425
  355SOL    HW1 1074   0.077   2.417   2.442
  355SOL    HW2 1075   0.121   2.559   2.509
  356SOL     OW 1076   0.809   1.866   2.364
  356SOL    HW1 1077   0.849   1.957   2.355
  356SOL    HW2 1078   0.709   1.874   2.370
  357SOL     OW 1079   1.041   2.563   2.291
  357SOL    HW1 1080   1.067   2.559   2.387
  357SOL    HW2 1081   0.956   2.512   2.277
  358SOL     OW 1082   0.865   2.210   2.057
  358SOL    HW1 1083   0.924   2.273   2.008
  358SOL    HW2 1084   0.884   2.116   2.028
  359SOL     OW 1085   1.400   1.969   2.288
  359SOL    HW1 1086   1.376   1.932   2.198
  359SOL    HW2 1087   1.499   1.985   2.292
  360SOL     OW 1088   0.614   1.984   1.979
  360SOL    HW1 1089   0.712   1.962   1.986
  360SOL    HW2 1090   0.583   1.967   1.886
  361SOL     OW 1091   0.539   1.926   2.374
  361SOL    HW1 1092   0.458   1.927   2.432
  361SOL    HW2 1093   0.542   2.009   2.319
  362SOL     OW 1094   0.297   1.897   2.033
  362SOL    HW1 1095   0.346   1.981   2.012
  362SOL    HW2 1096   0.359   1.832   2.078
  363SOL     OW 1097   0.935   2.098   2.342
  363SOL    HW1 1098   0.887   2.139   2.264
  363SOL    HW2 1099   1.034   2.096   2.323
  364SOL     OW 1100   0.866   2.316   2.504
  364SOL    HW1 1101   0.834   2.388   2.442
  364SOL    HW2 1102   0.890   2.235   2.451
  365SOL     OW 1103   0.527   2.118   2.190
  365SOL    HW1 1104   0.554   2.059   2.115
  365SOL    HW2 1105   0.527   2.213   2.159
  366SOL     OW 1106   1.582   2.501   2.334
  366SOL    HW1 1107   1.551   2.562   2.407
  366SOL    HW2 1108   1.632   2.553   2.265
  367SOL     OW 1109   1.209   2.387   2.137
  367SOL    HW1 1110   1.222   2.303   2.191
  367SOL    HW2 1111   1.180   2.461   2.197
  368SOL     OW 1112   1.622   2.229   2.236
  368SOL    HW1 1113   1.624   2.153   2.300
  368SOL    HW2 1114   1.574   2.306   2.276
  369SOL     OW 1115   1.540   2.136   1.987
  369SOL    HW1 1116   1.479   2.061   2.010
  369SOL    HW2 1117   1.562   2.188   2.070
  370SOL     OW 1118   0.815   2.434   2.187
  370SOL    HW1 1119   0.822   2.345   2.141
  370SOL    HW2 1120   0.721   2.468   2.179
  371SOL     OW 1121   1.726   1.997   2.385
  371SOL    HW1 1122   1.799   1.980   2.318
  371SOL    HW2 1123   1.695   1.910   2.423
  372SOL     OW 1124   0.075   2.207   1.895
  372SOL    HW1 1125  -0.017   2.179   1.866
  372SOL    HW2 1126   0.106   2.284   1.839
  373SOL     OW 1127   0.072   2.028   2.180
  373SOL    HW1 1128   0.055   2.111   2.126
  373SOL    HW2 1129   0.162   1.991   2.158
  374SOL     OW 1130   1.225   2.187   2.311
  374SOL    HW1 1131   1.290   2.113   2.300
  374SOL    HW2 1132   1.245   2.237   2.395
  375SOL     OW 1133   0.428   2.286   2.382
  375SOL    HW1 1134   0.458   2.214   2.320
  375SOL    HW2 1135   0.389   2.246   2.465
  376SOL     OW 1136   1.352   1.914   2.030
  376SOL    HW1 1137   1.387   1.873   1.946
  376SOL    HW2 1138   1.262   1.876   2.050
  377SOL     OW 1139   1.300   2.315   2.553
  377SOL    HW1 1140   1.241   2.395   2.557
  377SOL    HW2 1141   1.315   2.280   2.646
  378SOL     OW 1142   2.092   0.628   0.113
  378SOL    HW1 1143   1.999   0.626   0.150
  378SOL    HW2 1144   2.093   0.589   0.021
  379SOL     OW 1145   2.087   0.275   0.996
  379SOL    HW1 1146   2.122   0.258   1.088
  379SOL    HW2 1147   1.999   0.230   0.984
  380SOL     OW 1148   1.881   0.368   0.647
  380SOL    HW1 1149   1.799   0.411   0.686
  380SOL    HW2 1150   1.853   0.295   0.584
  381SOL     OW 1151   2.712   0.798   1.823
  381SOL    HW1 1152   2.708   0.874   1.888
  381SOL    HW2 1153   2.734   0.834   1.732
  382SOL     OW 1154   2.197   1.435   1.061
  382SOL    HW1 1155   2.119   1.404   1.008
  382SOL    HW2 1156   2.255   1.493   1.004
  383SOL     OW 1157   2.300   0.392   1.499
  383SOL    HW1 1158   2.382   0.336   1.508
  383SOL    HW2 1159   2.219   0.334   1.503
  384SOL     OW 1160   2.093   1.713   0.483
  384SOL    HW1 1161   2.127   1.790   0.537
  384SOL    HW2 1162   2.137   1.713   0.393
  385SOL     OW 1163   2.092   1.434   0.538
  385SOL    HW1 1164   2.066   1.530   0.538
  385SOL    HW2 1165   2.021   1.380   0.583
  386SOL     OW 1166   2.102   1.091   0.886
  386SOL    HW1 1167   2.116   1.007   0.938
  386SOL    HW2 1168   2.047   1.155   0.941
  387SOL     OW 1169   1.984   0.643   0.563
  387SOL    HW1 1170   1.939   0.555   0.580
  387SOL    HW2 1171   1.983   0.697   0.647
  388SOL     OW 1172   1.889   1.596   0.117
  388SOL    HW1 1173   1.870   1.500   0.138
  388SOL    HW2 1174   1.856   1.654   0.192
  389SOL     OW 1175   1.975   0.737   1.597
  389SOL    HW1 1176   2.063   0.724   1.642
  389SOL    HW2 1177   1.962   0.834   1.575
  390SOL     OW 1178   2.475   1.365   0.726
  390SOL    HW1 1179   2.426   1.278   0.735
  390SOL    HW2 1180   2.452   1.408   0.639
  391SOL     OW 1181   2.059   0.976   1.264
  391SOL    HW1 1182   2.148   0.931   1.250
  391SOL    HW2 1183   1.986   0.911   1.245
  392SOL     OW 1184   2.179   0.251   1.801
  392SOL    HW1 1185   2.250   0.322   1.807
  392SOL    HW2 1186   2.091   0.290   1.829
  393SOL     OW 1187   1.938   0.811   0.789
  393SOL    HW1 1188   2.037   0.799   0.798
  393SOL    HW2 1189   1.914   0.906   0.810
  394SOL     OW 1190   1.992   1.821   1.571
  394SOL    HW1 1191   1.982   1.806   1.670
  394SOL    HW2 1192   1.906   1.857   1.535
  395SOL     OW 1193   2.727   0.348   0.195
  395SOL    HW1 1194   2.786   0.411   0.146
  395SOL    HW2 1195   2.746   0.254   0.166
  396SOL     OW 1196   2.412   0.196   0.885
  396SOL    HW1 1197   2.407   0.191   0.985
  396SOL    HW2 1198   2.414   0.292   0.856
  397SOL     OW 1199   2.213   1.801   0.853
  397SOL    HW1 1200   2.263   1.715   0.859
  397SOL    HW2 1201   2.278   1.878   0.850
  398SOL     OW 1202   2.183   0.943   0.242
  398SOL    HW1 1203   2.265   0.982   0.200
  398SOL    HW2 1204   2.156   0.861   0.193
  399SOL     OW 1205   2.323   1.266   1.727
  399SOL    HW1 1206   2.273   1.267   1.641
  399SOL    HW2 1207   2.260   1.248   1.803
  400SOL     OW 1208   2.064   0.285   1.498
  400SOL    HW1 1209   1.984   0.345   1.485
  400SOL    HW2 1210   2.054   0.236   1.584
  401SOL     OW 1211   2.326   1.743   0.323
  401SOL    HW1 1212   2.359   1.782   0.409
  401SOL    HW2 1213   2.402   1.736   0.258
  402SOL     OW 1214   2.111   1.785   1.241
  402SOL    HW1 1215   2.168   1.720   1.291
  402SOL    HW2 1216   2.095   1.752   1.148
  403SOL     OW 1217   2.244   0.700   0.480
  403SOL    HW1 1218   2.289   0.610   0.477
  403SOL    HW2 1219   2.150   0.689   0.513
  404SOL     OW 1220   2.476   0.122   0.117
  404SOL    HW1 1221   2.574   0.100   0.124
  404SOL    HW2 1222   2.445   0.105   0.024
  405SOL     OW 1223   2.401   0.064   0.512
  405SOL    HW1 1224   2.320   0.065   0.570
  405SOL    HW2 1225   2.404   0.147   0.457
  406SOL     OW 1226   2.159   0.035   0.171
  406SOL    HW1 1227   2.208   0.119   0.150
  406SOL    HW2 1228   2.221  -0.030   0.216
  407SOL     OW 1229   2.797   0.236   0.480
  407SOL    HW1 1230   2.749   0.277   0.402
  407SOL    HW2 1231   2.896   0.234   0.461
  408SOL     OW 1232   2.321   1.152   0.741
  408SOL    HW1 1233   2.250   1.125   0.806
  408SOL    HW2 1234   2.295   1.124   0.648
  409SOL     OW 1235   1.940   0.556   1.386
  409SOL    HW1 1236   2.032   0.555   1.345
  409SOL    HW2 1237   1.934   0.630   1.453
  410SOL     OW 1238   2.423   0.222   1.147
  410SOL    HW1 1239   2.461   0.138   1.184
  410SOL    HW2 1240   2.335   0.241   1.191
  411SOL     OW 1241   2.389   0.256   0.328
  411SOL    HW1 1242   2.416   0.197   0.253
  411SOL    HW2 1243   2.389   0.351   0.297
  412SOL     OW 1244   2.842   1.116   1.719
  412SOL    HW1 1245   2.743   1.122   1.729
  412SOL    HW2 1246   2.865   1.036   1.663
  413SOL     OW 1247   2.272   0.813   1.251
  413SOL    HW1 1248   2.358   0.825   1.301
  413SOL    HW2 1249   2.230   0.726   1.278
  414SOL     OW 1250   1.926   1.564   1.331
  414SOL    HW1 1251   1.880   1.646   1.297
  414SOL    HW2 1252   2.024   1.583   1.340
  415SOL     OW 1253   2.229   1.100   0.501
  415SOL    HW1 1254   2.222   1.183   0.445
  415SOL    HW2 1255   2.233   1.020   0.441
  416SOL     OW 1256   2.428   0.537   0.865
  416SOL    HW1 1257   2.440   0.603   0.791
  416SOL    HW2 1258   2.474   0.571   0.948
  417SOL     OW 1259   2.216   1.510   1.329
  417SOL    HW1 1260   2.195   1.466   1.242
  417SOL    HW2 1261   2.313   1.536   1.332
  418SOL     OW 1262   2.264   0.751   1.598
  418SOL    HW1 1263   2.332   0.806   1.551
  418SOL    HW2 1264   2.304   0.663   1.625
  419SOL     OW 1265   2.366   0.050   1.740
  419SOL    HW1 1266   2.324  -0.007   1.670
  419SOL    HW2 1267   2.300   0.119   1.772
  420SOL     OW 1268   2.435   0.870   1.029
  420SOL    HW1 1269   2.479   0.959   1.020
  420SOL    HW2 1270   2.372   0.870   1.106
  421SOL     OW 1271   2.169   0.213   1.231
  421SOL    HW1 1272   2.146   0.250   1.321
  421SOL    HW2 1273   2.139   0.118   1.225
  422SOL     OW 1274   1.899   1.310   1.282
  422SOL    HW1 1275   1.952   1.261   1.350
  422SOL    HW2 1276   1.921   1.408   1.287
  423SOL     OW 1277   2.169   0.063   0.618
  423SOL    HW1 1278   2.158   0.157   0.651
  423SOL    HW2 1279   2.164   0.000   0.695
  424SOL     OW 1280   2.212   0.898   1.804
  424SOL    HW1 1281   2.288   0.942   1.852
  424SOL    HW2 1282   2.247   0.851   1.722
  425SOL     OW 1283   2.181   0.810   0.949
  425SOL    HW1 1284   2.274   0.846   0.954
  425SOL    HW2 1285   2.175   0.725   1.001
  426SOL     OW 1286   2.201   0.509   1.006
  426SOL    HW1 1287   2.149   0.426   0.989
  426SOL    HW2 1288   2.278   0.514   0.942
  427SOL     OW 1289   1.870   1.326   0.200
  427SOL    HW1 1290   1.777   1.347   0.169
  427SOL    HW2 1291   1.880   1.227   0.213
  428SOL     OW 1292   1.950   1.801   0.927
  428SOL    HW1 1293   1.908   1.715   0.900
  428SOL    HW2 1294   2.044   1.804   0.893
  429SOL     OW 1295   2.366   1.568   0.910
  429SOL    HW1 1296   2.432   1.642   0.919
  429SOL    HW2 1297   2.410   1.489   0.868
  430SOL     OW 1298   1.902   0.544   1.114
  430SOL    HW1 1299   1.987   0.511   1.073
  430SOL    HW2 1300   1.915   0.559   1.212
  431SOL     OW 1301   2.051   0.520   1.722
  431SOL    HW1 1302   2.110   0.480   1.652
  431SOL    HW2 1303   1.993   0.591   1.681
  432SOL     OW 1304   2.677   0.572   0.325
  432SOL    HW1 1305   2.684   0.483   0.279
  432SOL    HW2 1306   2.583   0.606   0.317
  433SOL     OW 1307   2.114   1.564   1.744
  433SOL    HW1 1308   2.084   1.621   1.820
  433SOL    HW2 1309   2.107   1.467   1.770
  434SOL     OW 1310   2.335   0.500   0.191
  434SOL    HW1 1311   2.396   0.580   0.195
  434SOL    HW2 1312   2.240   0.531   0.198
  435SOL     OW 1313   2.021   1.137   1.466
  435SOL    HW1 1314   2.043   1.076   1.542
  435SOL    HW2 1315   2.031   1.088   1.380
  436SOL     OW 1316   1.945   1.258   1.022
  436SOL    HW1 1317   1.940   1.257   1.122
  436SOL    HW2 1318   1.862   1.217   0.984
  437SOL     OW 1319   2.550   1.662   1.716
  437SOL    HW1 1320   2.494   1.743   1.725
  437SOL    HW2 1321   2.602   1.666   1.630
  438SOL     OW 1322   1.992   1.794   1.851
  438SOL    HW1 1323   1.951   1.720   1.904
  438SOL    HW2 1324   2.056   1.845   1.909
  439SOL     OW 1325   2.125   0.326   0.720
  439SOL    HW1 1326   2.046   0.377   0.686
  439SOL    HW2 1327   2.116   0.311   0.818
  440SOL     OW 1328   2.234   1.288   1.490
  440SOL    HW1 1329   2.221   1.381   1.456
  440SOL    HW2 1330   2.150   1.236   1.477
  441SOL     OW 1331   2.452   1.487   0.491
  441SOL    HW1 1332   2.494   1.429   0.421
  441SOL    HW2 1333   2.408   1.566   0.447
  442SOL     OW 1334   2.117   1.348   0.290
  442SOL    HW1 1335   2.021   1.349   0.263
  442SOL    HW2 1336   2.129   1.401   0.374
  443SOL     OW 1337   1.967   1.013   1.726
  443SOL    HW1 1338   1.890   0.980   1.780
  443SOL    HW2 1339   2.052   0.983   1.768
  444SOL     OW 1340   1.937   0.345   0.033
  444SOL    HW1 1341   1.845   0.317   0.004
  444SOL    HW2 1342   1.968   0.422  -0.023
  445SOL     OW 1343   1.934   0.166   0.318
  445SOL    HW1 1344   1.917   0.249   0.264
  445SOL    HW2 1345   2.024   0.129   0.296
  446SOL     OW 1346   2.475   0.842   1.431
  446SOL    HW1 1347   2.531   0.923   1.414
  446SOL    HW2 1348   2.534   0.762   1.434
  447SOL     OW 1349   2.252   1.741   1.560
  447SOL    HW1 1350   2.161   1.782   1.558
  447SOL    HW2 1351   2.245   1.647   1.592
  448SOL     OW 1352   2.456   0.745   0.652
  448SOL    HW1 1353   2.506   0.830   0.633
  448SOL    HW2 1354   2.368   0.747   0.604
  449SOL     OW 1355   2.083   1.314   1.844
  449SOL    HW1 1356   2.018   1.241   1.823
  449SOL    HW2 1357   2.087   1.328   1.942
  450SOL     OW 1358   1.941   1.240   0.653
  450SOL    HW1 1359   1.940   1.193   0.741
  450SOL    HW2 1360   2.023   1.212   0.602
  451SOL     OW 1361   2.534   1.391   1.624
  451SOL    HW1 1362   2.456   1.341   1.662
  451SOL    HW2 1363   2.531   1.486   1.655
  452SOL     OW 1364   2.290   0.424   0.520
  452SOL    HW1 1365   2.320   0.352   0.458
  452SOL    HW2 1366   2.251   0.384   0.603
  453SOL     OW 1367   2.179   0.547   1.280
  453SOL    HW1 1368   2.217   0.488   1.352
  453SOL    HW2 1369   2.219   0.521   1.192
  454SOL     OW 1370   1.901   1.077   0.300
  454SOL    HW1 1371   2.000   1.066   0.291
  454SOL    HW2 1372   1.861   0.991   0.332
  455SOL     OW 1373   2.092   0.628   1.975
  455SOL    HW1 1374   1.999   0.626   2.012
  455SOL    HW2 1375   2.093   0.589   1.883
  456SOL     OW 1376   2.093   1.713   2.345
  456SOL    HW1 1377   2.127   1.790   2.399
  456SOL    HW2 1378   2.137   1.713   2.255
  457SOL     OW 1379   2.092   1.434   2.400
  457SOL    HW1 1380   2.066   1.530   2.400
  457SOL    HW2 1381   2.021   1.380   2.445
  458SOL     OW 1382   1.984   0.643   2.425
  458SOL    HW1 1383   1.939   0.555   2.442
  458SOL    HW2 1384   1.983   0.697   2.509
  459SOL     OW 1385   1.889   1.596   1.979
  459SOL    HW1 1386   1.870   1.500   2.000
  459SOL    HW2 1387   1.856   1.654   2.054
  460SOL     OW 1388   2.460   0.729   2.132
  460SOL    HW1 1389   2.484   0.798   2.064
  460SOL    HW2 1390   2.382   0.762   2.186
  461SOL     OW 1391   1.938   0.811   2.651
  461SOL    HW1 1392   2.037   0.799   2.660
  461SOL    HW2 1393   1.914   0.906   2.672
  462SOL     OW 1394   2.727   0.348   2.057
  462SOL    HW1 1395   2.786   0.411   2.008
  462SOL    HW2 1396   2.746   0.254   2.028
  463SOL     OW 1397   2.183   0.943   2.104
  463SOL    HW1 1398   2.265   0.982   2.062
  463SOL    HW2 1399   2.156   0.861   2.055
  464SOL     OW 1400   2.326   1.743   2.185
  464SOL    HW1 1401   2.359   1.782   2.271
  464SOL    HW2 1402   2.402   1.736   2.120
  465SOL     OW 1403   2.244   0.700   2.342
  465SOL    HW1 1404   2.289   0.610   2.339
  465SOL    HW2 1405   2.150   0.689   2.375
  466SOL     OW 1406   2.476   0.122   1.979
  466SOL    HW1 1407   2.574   0.100   1.986
  466SOL    HW2 1408   2.445   0.105   1.886
  467SOL     OW 1409   2.401   0.064   2.374
  467SOL    HW1 1410   2.320   0.065   2.432
  467SOL    HW2 1411   2.404   0.147   2.319
  468SOL     OW 1412   2.159   0.035   2.033
  468SOL    HW1 1413   2.208   0.119   2.012
  468SOL    HW2 1414   2.221  -0.030   2.078
  469SOL     OW 1415   2.797   0.236   2.342
  469SOL    HW1 1416   2.749   0.277   2.264
  469SOL    HW2 1417   2.896   0.234   2.323
  470SOL     OW 1418   2.321   1.152   2.603
  470SOL    HW1 1419   2.250   1.125   2.668
  470SOL    HW2 1420   2.295   1.124   2.510
  471SOL     OW 1421   2.389   0.256   2.190
  471SOL    HW1 1422   2.416   0.197   2.115
  471SOL    HW2 1423   2.389   0.351   2.159
  472SOL     OW 1424   2.229   1.100   2.363
  472SOL    HW1 1425   2.222   1.183   2.307
  472SOL    HW2 1426   2.233   1.020   2.303
  473SOL     OW 1427   1.870   1.326   2.062
  473SOL    HW1 1428   1.777   1.347   2.031
  473SOL    HW2 1429   1.880   1.227   2.075
  474SOL     OW 1430   2.677   0.572   2.187
  474SOL    HW1 1431   2.684   0.483   2.141
  474SOL    HW2 1432   2.583   0.606   2.179
  475SOL     OW 1433   2.335   0.500   2.053
  475SOL    HW1 1434   2.396   0.580   2.057
  475SOL    HW2 1435   2.240   0.531   2.060
  476SOL     OW 1436   2.452   1.487   2.353
  476SOL    HW1 1437   2.494   1.429   2.283
  476SOL    HW2 1438   2.408   1.566   2.309
  477SOL     OW 1439   2.117   1.348   2.152
  477SOL    HW1 1440   2.021   1.349   2.125
  477SOL    HW2 1441   2.129   1.401   2.236
  478SOL     OW 1442   1.937   0.345   1.895
  478SOL    HW1 1443   1.845   0.317   1.866
  478SOL    HW2 1444   1.968   0.422   1.839
  479SOL     OW 1445   1.934   0.166   2.180
  479SOL    HW1 1446   1.917   0.249   2.126
  479SOL    HW2 1447   2.024   0.129   2.158
  480SOL     OW 1448   2.456   0.745   2.514
  480SOL    HW1 1449   2.506   0.830   2.495
  480SOL    HW2 1450   2.368   0.747   2.466
  481SOL     OW 1451   1.941   1.240   2.515
  481SOL    HW1 1452   1.940   1.193   2.603
  481SOL    HW2 1453   2.023   1.212   2.464
  482SOL     OW 1454   2.290   0.424   2.382
  482SOL    HW1 1455   2.320   0.352   2.320
  482SOL    HW2 1456   2.251   0.384   2.465
  483SOL     OW 1457   1.901   1.077   2.162
  483SOL    HW1 1458   2.000   1.066   2.153
  483SOL    HW2 1459   1.861   0.991   2.194
  484SOL     OW 1460   2.087   2.137   0.996
  484SOL    HW1 1461   2.122   2.120   1.088
  484SOL    HW2 1462   1.999   2.092   0.984
  485SOL     OW 1463   1.881   2.230   0.647
  485SOL    HW1 1464   1.799   2.273   0.686
  485SOL    HW2 1465   1.853   2.157   0.584
  486SOL     OW 1466   2.300   2.254   1.499
  486SOL    HW1 1467   2.382   2.198   1.508
  486SOL    HW2 1468   2.219   2.196   1.503
  487SOL     OW 1469   1.984   2.505   0.563
  487SOL    HW1 1470   1.939   2.417   0.580
  487SOL    HW2 1471   1.983   2.559   0.647
  488SOL     OW 1472   2.179   2.113   1.801
  488SOL    HW1 1473   2.250   2.184   1.807
  488SOL    HW2 1474   2.091   2.152   1.829
  489SOL     OW 1475   1.938   2.673   0.789
  489SOL    HW1 1476   2.037   2.661   0.798
  489SOL    HW2 1477   1.914   2.768   0.810
  490SOL     OW 1478   2.727   2.210   0.195
  490SOL    HW1 1479   2.786   2.273   0.146
  490SOL    HW2 1480   2.746   2.116   0.166
  491SOL     OW 1481   2.412   2.058   0.885
  491SOL    HW1 1482   2.407   2.053   0.985
  491SOL    HW2 1483   2.414   2.154   0.856
  492SOL     OW 1484   2.064   2.147   1.498
  492SOL    HW1 1485   1.984   2.207   1.485
  492SOL    HW2 1486   2.054   2.098   1.584
  493SOL     OW 1487   2.476   1.984   0.117
  493SOL    HW1 1488   2.574   1.962   0.124
  493SOL    HW2 1489   2.445   1.967   0.024
  494SOL     OW 1490   2.401   1.926   0.512
  494SOL    HW1 1491   2.320   1.927   0.570
  494SOL    HW2 1492   2.404   2.009   0.457
  495SOL     OW 1493   2.159   1.897   0.171
  495SOL    HW1 1494   2.208   1.981   0.150
  495SOL    HW2 1495   2.221   1.832   0.216
  496SOL     OW 1496   2.797   2.098   0.480
  496SOL    HW1 1497   2.749   2.139   0.402
  496SOL    HW2 1498   2.896   2.096   0.461
  497SOL     OW 1499   1.940   2.418   1.386
  497SOL    HW1 1500   2.032   2.417   1.345
  497SOL    HW2 1501   1.934   2.492   1.453
  498SOL     OW 1502   2.423   2.084   1.147
  498SOL    HW1 1503   2.461   2.000   1.184
  498SOL    HW2 1504   2.335   2.103   1.191
  499SOL     OW 1505   2.389   2.118   0.328
  499SOL    HW1 1506   2.416   2.059   0.253
  499SOL    HW2 1507   2.389   2.213   0.297
  500SOL     OW 1508   2.428   2.399   0.865
  500SOL    HW1 1509   2.440   2.465   0.791
  500SOL    HW2 1510   2.474   2.433   0.948
  501SOL     OW 1511   2.366   1.912   1.740
  501SOL    HW1 1512   2.324   1.855   1.670
  501SOL    HW2 1513   2.300   1.981   1.772
  502SOL     OW 1514   2.169   2.075   1.231
  502SOL    HW1 1515   2.146   2.112   1.321
  502SOL    HW2 1516   2.139   1.980   1.225
  503SOL     OW 1517   2.169   1.925   0.618
  503SOL    HW1 1518   2.158   2.019   0.651
  503SOL    HW2 1519   2.164   1.862   0.695
  504SOL     OW 1520   2.201   2.371   1.006
  504SOL    HW1 1521   2.149   2.288   0.989
  504SOL    HW2 1522   2.278   2.376   0.942
  505SOL     OW 1523   1.902   2.406   1.114
  505SOL    HW1 1524   1.987   2.373   1.073
  505SOL    HW2 1525   1.915   2.421   1.212
  506SOL     OW 1526   2.051   2.382   1.722
  506SOL    HW1 1527   2.110   2.342   1.652
  506SOL    HW2 1528   1.993   2.453   1.681
  507SOL     OW 1529   2.677   2.434   0.325
  507SOL    HW1 1530   2.684   2.345   0.279
  507SOL    HW2 1531   2.583   2.468   0.317
  508SOL     OW 1532   2.125   2.188   0.720
  508SOL    HW1 1533   2.046   2.239   0.686
  508SOL    HW2 1534   2.116   2.173   0.818
  509SOL     OW 1535   1.937   2.207   0.033
  509SOL    HW1 1536   1.845   2.179   0.004
  509SOL    HW2 1537   1.968   2.284  -0.023
  510SOL     OW 1538   1.934   2.028   0.318
  510SOL    HW1 1539   1.917   2.111   0.264
  510SOL    HW2 1540   2.024   1.991   0.296
  511SOL     OW 1541   2.475   2.704   1.431
  511SOL    HW1 1542   2.531   2.785   1.414
  511SOL    HW2 1543   2.534   2.624   1.434
  512SOL     OW 1544   2.290   2.286   0.520
  512SOL    HW1 1545   2.320   2.214   0.458
  512SOL    HW2 1546   2.251   2.246   0.603
  513SOL     OW 1547   2.179   2.409   1.280
  513SOL    HW1 1548   2.217   2.350   1.352
  513SOL    HW2 1549   2.219   2.383   1.192
  514SOL     OW 1550   1.984   2.505   2.425
  514SOL    HW1 1551   1.939   2.417   2.442
  514SOL    HW2 1552   1.983   2.559   2.509
  515SOL     OW 1553   2.727   2.210   2.057
  515SOL    HW1 1554   2.786   2.273   2.008
  515SOL    HW2 1555   2.746   2.116   2.028
  516SOL     OW 1556   2.476   1.984   1.979
  516SOL    HW1 1557   2.574   1.962   1.986
  516SOL    HW2 1558   2.445   1.967   1.886
  517SOL     OW 1559   2.401   1.926   2.374
  517SOL    HW1 1560   2.320   1.927   2.432
  517SOL    HW2 1561   2.404   2.009   2.319
  518SOL     OW 1562   2.159   1.897   2.033
  518SOL    HW1 1563   2.208   1.981   2.012
  518SOL    HW2 1564   2.221   1.832   2.078
  519SOL     OW 1565   2.797   2.098   2.342
  519SOL    HW1 1566   2.749   2.139   2.264
  519SOL    HW2 1567   2.896   2.096   2.323
  520SOL     OW 1568   2.389   2.118   2.190
  520SOL    HW1 1569   2.416   2.059   2.115
  520SOL    HW2 1570   2.389   2.213   2.159
  521SOL     OW 1571   2.677   2.434   2.187
  521SOL    HW1 1572   2.684   2.345   2.141
  521SOL    HW2 1573   2.583   2.468   2.179
  522SOL     OW 1574   1.937   2.207   1.895
  522SOL    HW1 1575   1.845   2.179   1.866
  522SOL    HW2 1576   1.968   2.284   1.839
  523SOL     OW 1577   1.934   2.028   2.180
  523SOL    HW1 1578   1.917   2.111   2.126
  523SOL    HW2 1579   2.024   1.991   2.158
  524SOL     OW 1580   2.290   2.286   2.382
  524SOL    HW1 1581   2.320   2.214   2.320
  524SOL    HW2 1582   2.251   2.246   2.465
   2.51859   2.51859   2.51859
