mobley_5631798_GMX.gro created by acpype (v: 2023.10.27) on Thu May 14 13:46:02 2026
 1045
    1MOL     N1    1   1.062   1.079   1.059
    1MOL     H1    2   1.018   1.108   1.146
    1MOL     H2    3   1.135   1.148   1.040
    1MOL     H3    4   1.111   0.992   1.080
    2SOL     OW    5   0.230   0.628   0.113
    2SOL    HW1    6   0.137   0.626   0.150
    2SOL    HW2    7   0.231   0.589   0.021
    3SOL     OW    8   0.225   0.275   0.996
    3SOL    HW1    9   0.260   0.258   1.088
    3SOL    HW2   10   0.137   0.230   0.984
    4SOL     OW   11   0.019   0.368   0.647
    4SOL    HW1   12  -0.063   0.411   0.686
    4SOL    HW2   13  -0.009   0.295   0.584
    5SOL     OW   14   0.569   1.275   1.165
    5SOL    HW1   15   0.476   1.268   1.128
    5SOL    HW2   16   0.580   1.364   1.209
    6SOL     OW   17   1.555   1.511   0.703
    6SOL    HW1   18   1.498   1.495   0.784
    6SOL    HW2   19   1.496   1.521   0.623
    7SOL     OW   20   1.135   0.703   0.717
    7SOL    HW1   21   1.192   0.781   0.692
    7SOL    HW2   22   1.075   0.729   0.793
    8SOL     OW   23   1.755   0.607   0.231
    8SOL    HW1   24   1.743   0.594   0.132
    8SOL    HW2   25   1.725   0.526   0.280
    9SOL     OW   26   0.768   1.144   1.023
    9SOL    HW1   27   0.690   1.161   1.083
    9SOL    HW2   28   0.802   1.231   0.987
   10SOL     OW   29   0.850   0.798   1.823
   10SOL    HW1   30   0.846   0.874   1.888
   10SOL    HW2   31   0.872   0.834   1.732
   11SOL     OW   32   0.685   1.012   0.665
   11SOL    HW1   33   0.754   0.996   0.735
   11SOL    HW2   34   0.612   1.069   0.703
   12SOL     OW   35   0.686   1.161   1.803
   12SOL    HW1   36   0.746   1.240   1.817
   12SOL    HW2   37   0.600   1.192   1.762
   13SOL     OW   38   0.335   1.435   1.061
   13SOL    HW1   39   0.257   1.404   1.008
   13SOL    HW2   40   0.393   1.493   1.004
   14SOL     OW   41   1.460   1.505   1.339
   14SOL    HW1   42   1.484   1.599   1.365
   14SOL    HW2   43   1.444   1.451   1.421
   15SOL     OW   44   0.438   0.392   1.499
   15SOL    HW1   45   0.520   0.336   1.508
   15SOL    HW2   46   0.357   0.334   1.503
   16SOL     OW   47   1.603   0.447   0.737
   16SOL    HW1   48   1.529   0.493   0.687
   16SOL    HW2   49   1.654   0.515   0.790
   17SOL     OW   50   0.231   1.713   0.483
   17SOL    HW1   51   0.265   1.790   0.537
   17SOL    HW2   52   0.275   1.713   0.393
   18SOL     OW   53   1.127   1.341   1.690
   18SOL    HW1   54   1.174   1.341   1.778
   18SOL    HW2   55   1.079   1.254   1.679
   19SOL     OW   56   0.230   1.434   0.538
   19SOL    HW1   57   0.204   1.530   0.538
   19SOL    HW2   58   0.159   1.380   0.583
   20SOL     OW   59   0.240   1.091   0.886
   20SOL    HW1   60   0.254   1.007   0.938
   20SOL    HW2   61   0.185   1.155   0.941
   21SOL     OW   62   0.620   1.786   1.439
   21SOL    HW1   63   0.528   1.769   1.474
   21SOL    HW2   64   0.648   1.878   1.465
   22SOL     OW   65   0.606   0.964   0.123
   22SOL    HW1   66   0.613   1.048   0.069
   22SOL    HW2   67   0.652   0.977   0.211
   23SOL     OW   68   1.594   0.114   1.480
   23SOL    HW1   69   1.576   0.181   1.408
   23SOL    HW2   70   1.591   0.160   1.569
   24SOL     OW   71   0.122   0.643   0.563
   24SOL    HW1   72   0.077   0.555   0.580
   24SOL    HW2   73   0.121   0.697   0.647
   25SOL     OW   74   1.842   1.767   0.359
   25SOL    HW1   75   1.896   1.738   0.439
   25SOL    HW2   76   1.872   1.857   0.330
   26SOL     OW   77   0.027   1.596   0.117
   26SOL    HW1   78   0.008   1.500   0.138
   26SOL    HW2   79  -0.006   1.654   0.192
   27SOL     OW   80   1.689   0.922   0.612
   27SOL    HW1   81   1.784   0.893   0.620
   27SOL    HW2   82   1.681   0.987   0.537
   28SOL     OW   83   1.641   1.108   0.432
   28SOL    HW1   84   1.727   1.110   0.380
   28SOL    HW2   85   1.655   1.155   0.520
   29SOL     OW   86   0.113   0.737   1.597
   29SOL    HW1   87   0.201   0.724   1.642
   29SOL    HW2   88   0.100   0.834   1.575
   30SOL     OW   89   0.613   1.365   0.726
   30SOL    HW1   90   0.564   1.278   0.735
   30SOL    HW2   91   0.590   1.408   0.639
   31SOL     OW   92   1.293   1.228   1.423
   31SOL    HW1   93   1.330   1.155   1.365
   31SOL    HW2   94   1.345   1.233   1.508
   32SOL     OW   95   0.809   0.004   0.502
   32SOL    HW1   96   0.849   0.095   0.493
   32SOL    HW2   97   0.709   0.012   0.508
   33SOL     OW   98   0.197   0.976   1.264
   33SOL    HW1   99   0.286   0.931   1.250
   33SOL    HW2  100   0.124   0.911   1.245
   34SOL     OW  101   1.525   0.999   0.190
   34SOL    HW1  102   1.462   0.923   0.203
   34SOL    HW2  103   1.573   1.017   0.276
   35SOL     OW  104   1.187   1.792   1.616
   35SOL    HW1  105   1.211   1.852   1.540
   35SOL    HW2  106   1.194   1.697   1.586
   36SOL     OW  107   0.317   0.251   1.801
   36SOL    HW1  108   0.388   0.322   1.807
   36SOL    HW2  109   0.229   0.290   1.829
   37SOL     OW  110   1.466   1.417   0.953
   37SOL    HW1  111   1.407   1.423   1.033
   37SOL    HW2  112   1.451   1.329   0.907
   38SOL     OW  113   1.667   1.714   0.572
   38SOL    HW1  114   1.626   1.691   0.484
   38SOL    HW2  115   1.649   1.640   0.637
   39SOL     OW  116   0.598   0.729   0.270
   39SOL    HW1  117   0.622   0.798   0.202
   39SOL    HW2  118   0.520   0.762   0.324
   40SOL     OW  119   1.281   0.345   0.944
   40SOL    HW1  120   1.195   0.295   0.931
   40SOL    HW2  121   1.343   0.291   1.000
   41SOL     OW  122   1.576   1.662   0.307
   41SOL    HW1  123   1.665   1.708   0.310
   41SOL    HW2  124   1.555   1.638   0.212
   42SOL     OW  125   0.807   0.605   1.465
   42SOL    HW1  126   0.760   0.602   1.554
   42SOL    HW2  127   0.756   0.550   1.399
   43SOL     OW  128   1.394   0.469   1.674
   43SOL    HW1  129   1.374   0.512   1.762
   43SOL    HW2  130   1.472   0.407   1.683
   44SOL     OW  131   0.973   0.890   1.572
   44SOL    HW1  132   1.019   0.806   1.543
   44SOL    HW2  133   0.917   0.924   1.497
   45SOL     OW  134   0.991   0.410   1.242
   45SOL    HW1  135   0.914   0.444   1.296
   45SOL    HW2  136   0.957   0.359   1.163
   46SOL     OW  137   1.041   0.701   0.429
   46SOL    HW1  138   1.067   0.697   0.525
   46SOL    HW2  139   0.956   0.650   0.415
   47SOL     OW  140   0.076   0.811   0.789
   47SOL    HW1  141   0.175   0.799   0.798
   47SOL    HW2  142   0.052   0.906   0.810
   48SOL     OW  143   0.130   1.821   1.571
   48SOL    HW1  144   0.120   1.806   1.670
   48SOL    HW2  145   0.044   1.857   1.535
   49SOL     OW  146   0.865   0.348   0.195
   49SOL    HW1  147   0.924   0.411   0.146
   49SOL    HW2  148   0.884   0.254   0.166
   50SOL     OW  149   1.719   0.585   1.831
   50SOL    HW1  150   1.693   0.674   1.795
   50SOL    HW2  151   1.717   0.517   1.758
   51SOL     OW  152   1.362   1.144   0.545
   51SOL    HW1  153   1.445   1.115   0.497
   51SOL    HW2  154   1.313   1.211   0.489
   52SOL     OW  155   0.550   0.196   0.885
   52SOL    HW1  156   0.545   0.191   0.985
   52SOL    HW2  157   0.552   0.292   0.856
   53SOL     OW  158   1.008   1.456   0.477
   53SOL    HW1  159   0.962   1.528   0.425
   53SOL    HW2  160   1.004   1.476   0.575
   54SOL     OW  161   0.351   1.801   0.853
   54SOL    HW1  162   0.401   1.715   0.859
   54SOL    HW2  163   0.416   1.878   0.850
   55SOL     OW  164   1.795   1.066   0.873
   55SOL    HW1  165   1.733   1.051   0.797
   55SOL    HW2  166   1.743   1.077   0.958
   56SOL     OW  167   1.227   1.550   1.506
   56SOL    HW1  168   1.233   1.473   1.570
   56SOL    HW2  169   1.175   1.524   1.426
   57SOL     OW  170   0.321   0.943   0.242
   57SOL    HW1  171   0.403   0.982   0.200
   57SOL    HW2  172   0.294   0.861   0.193
   58SOL     OW  173   1.458   0.735   0.728
   58SOL    HW1  174   1.453   0.670   0.803
   58SOL    HW2  175   1.538   0.794   0.741
   59SOL     OW  176   0.461   1.266   1.727
   59SOL    HW1  177   0.411   1.267   1.641
   59SOL    HW2  178   0.398   1.248   1.803
   60SOL     OW  179   1.111   1.776   0.237
   60SOL    HW1  180   1.051   1.714   0.287
   60SOL    HW2  181   1.142   1.732   0.152
   61SOL     OW  182   0.202   0.285   1.498
   61SOL    HW1  183   0.122   0.345   1.485
   61SOL    HW2  184   0.192   0.236   1.584
   62SOL     OW  185   1.632   1.377   0.081
   62SOL    HW1  186   1.600   1.471   0.071
   62SOL    HW2  187   1.556   1.314   0.069
   63SOL     OW  188   0.464   1.743   0.323
   63SOL    HW1  189   0.497   1.782   0.409
   63SOL    HW2  190   0.540   1.736   0.258
   64SOL     OW  191   1.400   0.107   0.426
   64SOL    HW1  192   1.376   0.070   0.336
   64SOL    HW2  193   1.499   0.123   0.430
   65SOL     OW  194   0.249   1.785   1.241
   65SOL    HW1  195   0.306   1.720   1.291
   65SOL    HW2  196   0.233   1.752   1.148
   66SOL     OW  197   0.940   1.698   0.904
   66SOL    HW1  198   1.020   1.641   0.925
   66SOL    HW2  199   0.891   1.658   0.827
   67SOL     OW  200   0.382   0.700   0.480
   67SOL    HW1  201   0.427   0.610   0.477
   67SOL    HW2  202   0.288   0.689   0.513
   68SOL     OW  203   1.547   0.222   1.729
   68SOL    HW1  204   1.542   0.259   1.821
   68SOL    HW2  205   1.475   0.153   1.717
   69SOL     OW  206   0.614   0.122   0.117
   69SOL    HW1  207   0.712   0.100   0.124
   69SOL    HW2  208   0.583   0.105   0.024
   70SOL     OW  209   0.781   0.264   1.749
   70SOL    HW1  210   0.848   0.203   1.792
   70SOL    HW2  211   0.708   0.283   1.814
   71SOL     OW  212   0.888   1.514   1.195
   71SOL    HW1  213   0.865   1.489   1.101
   71SOL    HW2  214   0.949   1.445   1.234
   72SOL     OW  215   1.351   0.590   1.433
   72SOL    HW1  216   1.379   0.547   1.518
   72SOL    HW2  217   1.376   0.686   1.434
   73SOL     OW  218   0.803   1.402   0.924
   73SOL    HW1  219   0.893   1.416   0.882
   73SOL    HW2  220   0.732   1.404   0.853
   74SOL     OW  221   0.922   0.503   0.899
   74SOL    HW1  222   0.897   0.494   0.803
   74SOL    HW2  223   0.970   0.421   0.930
   75SOL     OW  224   0.539   0.064   0.512
   75SOL    HW1  225   0.458   0.065   0.570
   75SOL    HW2  226   0.542   0.147   0.457
   76SOL     OW  227   1.434   1.188   0.041
   76SOL    HW1  228   1.466   1.112   0.098
   76SOL    HW2  229   1.342   1.215   0.071
   77SOL     OW  230   0.297   0.035   0.171
   77SOL    HW1  231   0.346   0.119   0.150
   77SOL    HW2  232   0.359  -0.030   0.216
   78SOL     OW  233   0.935   0.236   0.480
   78SOL    HW1  234   0.887   0.277   0.402
   78SOL    HW2  235   1.034   0.234   0.461
   79SOL     OW  236   1.076   0.683   1.464
   79SOL    HW1  237   0.996   0.622   1.467
   79SOL    HW2  238   1.157   0.630   1.440
   80SOL     OW  239   1.227   1.570   0.793
   80SOL    HW1  240   1.248   1.644   0.728
   80SOL    HW2  241   1.295   1.570   0.866
   81SOL     OW  242   0.459   1.152   0.741
   81SOL    HW1  243   0.388   1.125   0.806
   81SOL    HW2  244   0.433   1.124   0.648
   82SOL     OW  245   1.271   1.797   0.591
   82SOL    HW1  246   1.315   1.861   0.527
   82SOL    HW2  247   1.221   1.849   0.661
   83SOL     OW  248   1.032   0.549   0.016
   83SOL    HW1  249   0.991   0.631  -0.023
   83SOL    HW2  250   1.096   0.575   0.089
   84SOL     OW  251   0.078   0.556   1.386
   84SOL    HW1  252   0.170   0.555   1.345
   84SOL    HW2  253   0.072   0.630   1.453
   85SOL     OW  254   0.561   0.222   1.147
   85SOL    HW1  255   0.599   0.138   1.184
   85SOL    HW2  256   0.473   0.241   1.191
   86SOL     OW  257   0.866   0.454   0.642
   86SOL    HW1  258   0.834   0.526   0.580
   86SOL    HW2  259   0.890   0.373   0.589
   87SOL     OW  260   1.017   0.039   0.753
   87SOL    HW1  261   0.945   0.044   0.684
   87SOL    HW2  262   0.993  -0.030   0.822
   88SOL     OW  263   1.429   1.173   0.867
   88SOL    HW1  264   1.374   1.089   0.860
   88SOL    HW2  265   1.455   1.202   0.775
   89SOL     OW  266   1.466   0.590   0.992
   89SOL    HW1  267   1.436   0.495   0.999
   89SOL    HW2  268   1.539   0.606   1.058
   90SOL     OW  269   1.857   0.833   0.377
   90SOL    HW1  270   1.899   0.769   0.441
   90SOL    HW2  271   1.819   0.782   0.299
   91SOL     OW  272   0.488   1.385   0.174
   91SOL    HW1  273   0.401   1.370   0.221
   91SOL    HW2  274   0.471   1.411   0.079
   92SOL     OW  275   1.664   1.280   0.657
   92SOL    HW1  276   1.763   1.288   0.671
   92SOL    HW2  277   1.619   1.364   0.688
   93SOL     OW  278   1.390   0.575   0.078
   93SOL    HW1  279   1.336   0.554   0.159
   93SOL    HW2  280   1.481   0.534   0.087
   94SOL     OW  281   0.527   0.256   0.328
   94SOL    HW1  282   0.554   0.197   0.253
   94SOL    HW2  283   0.527   0.351   0.297
   95SOL     OW  284   1.754   1.223   1.588
   95SOL    HW1  285   1.845   1.184   1.575
   95SOL    HW2  286   1.762   1.319   1.612
   96SOL     OW  287   1.064   1.347   1.340
   96SOL    HW1  288   0.984   1.324   1.395
   96SOL    HW2  289   1.147   1.321   1.389
   97SOL     OW  290   1.592   1.629   1.625
   97SOL    HW1  291   1.619   1.663   1.535
   97SOL    HW2  292   1.671   1.591   1.671
   98SOL     OW  293   1.638   1.099   1.079
   98SOL    HW1  294   1.643   1.180   1.138
   98SOL    HW2  295   1.552   1.101   1.028
   99SOL     OW  296   0.915   0.089   1.402
   99SOL    HW1  297   0.940   0.069   1.307
   99SOL    HW2  298   0.987   0.145   1.444
  100SOL     OW  299   0.980   1.116   1.719
  100SOL    HW1  300   0.881   1.122   1.729
  100SOL    HW2  301   1.003   1.036   1.663
  101SOL     OW  302   0.705   1.050   0.368
  101SOL    HW1  303   0.691   1.057   0.467
  101SOL    HW2  304   0.789   0.999   0.350
  102SOL     OW  305   0.410   0.813   1.251
  102SOL    HW1  306   0.496   0.825   1.301
  102SOL    HW2  307   0.368   0.726   1.278
  103SOL     OW  308   1.274   0.386   1.262
  103SOL    HW1  309   1.295   0.460   1.326
  103SOL    HW2  310   1.185   0.403   1.219
  104SOL     OW  311   0.064   1.564   1.331
  104SOL    HW1  312   0.018   1.646   1.297
  104SOL    HW2  313   0.162   1.583   1.340
  105SOL     OW  314   0.367   1.100   0.501
  105SOL    HW1  315   0.360   1.183   0.445
  105SOL    HW2  316   0.371   1.020   0.441
  106SOL     OW  317   0.566   0.537   0.865
  106SOL    HW1  318   0.578   0.603   0.791
  106SOL    HW2  319   0.612   0.571   0.948
  107SOL     OW  320   1.252   1.348   0.388
  107SOL    HW1  321   1.302   1.425   0.428
  107SOL    HW2  322   1.157   1.350   0.420
  108SOL     OW  323   1.272   1.445   1.142
  108SOL    HW1  324   1.319   1.458   1.229
  108SOL    HW2  325   1.206   1.371   1.151
  109SOL     OW  326   1.582   0.639   0.472
  109SOL    HW1  327   1.551   0.700   0.545
  109SOL    HW2  328   1.632   0.691   0.403
  110SOL     OW  329   0.354   1.510   1.329
  110SOL    HW1  330   0.333   1.466   1.242
  110SOL    HW2  331   0.451   1.536   1.332
  111SOL     OW  332   0.402   0.751   1.598
  111SOL    HW1  333   0.470   0.806   1.551
  111SOL    HW2  334   0.442   0.663   1.625
  112SOL     OW  335   1.587   0.779   1.670
  112SOL    HW1  336   1.495   0.817   1.665
  112SOL    HW2  337   1.647   0.826   1.605
  113SOL     OW  338   1.013   0.105   1.770
  113SOL    HW1  339   1.019   0.190   1.718
  113SOL    HW2  340   1.045   0.029   1.713
  114SOL     OW  341   0.504   0.050   1.740
  114SOL    HW1  342   0.462  -0.007   1.670
  114SOL    HW2  343   0.438   0.119   1.772
  115SOL     OW  344   0.573   0.870   1.029
  115SOL    HW1  345   0.617   0.959   1.020
  115SOL    HW2  346   0.510   0.870   1.106
  116SOL     OW  347   1.360   0.862   1.045
  116SOL    HW1  348   1.285   0.862   0.979
  116SOL    HW2  349   1.397   0.770   1.054
  117SOL     OW  350   1.209   0.525   0.275
  117SOL    HW1  351   1.222   0.441   0.329
  117SOL    HW2  352   1.180   0.599   0.335
  118SOL     OW  353   0.307   0.213   1.231
  118SOL    HW1  354   0.284   0.250   1.321
  118SOL    HW2  355   0.277   0.118   1.225
  119SOL     OW  356   0.037   1.310   1.282
  119SOL    HW1  357   0.090   1.261   1.350
  119SOL    HW2  358   0.059   1.408   1.287
  120SOL     OW  359   0.732   0.634   1.064
  120SOL    HW1  360   0.791   0.608   0.988
  120SOL    HW2  361   0.704   0.730   1.053
  121SOL     OW  362   1.728   0.935   1.854
  121SOL    HW1  363   1.682   0.928   1.765
  121SOL    HW2  364   1.666   0.979   1.920
  122SOL     OW  365   0.307   0.063   0.618
  122SOL    HW1  366   0.296   0.157   0.651
  122SOL    HW2  367   0.302   0.000   0.695
  123SOL     OW  368   1.622   0.367   0.374
  123SOL    HW1  369   1.624   0.291   0.438
  123SOL    HW2  370   1.574   0.444   0.414
  124SOL     OW  371   1.023   0.766   0.966
  124SOL    HW1  372   1.038   0.787   1.062
  124SOL    HW2  373   0.993   0.671   0.957
  125SOL     OW  374   0.980   1.573   1.700
  125SOL    HW1  375   0.960   1.617   1.612
  125SOL    HW2  376   1.019   1.482   1.684
  126SOL     OW  377   1.859   1.518   1.605
  126SOL    HW1  378   1.873   1.545   1.510
  126SOL    HW2  379   1.942   1.540   1.658
  127SOL     OW  380   0.350   0.898   1.804
  127SOL    HW1  381   0.426   0.942   1.852
  127SOL    HW2  382   0.385   0.851   1.722
  128SOL     OW  383   1.540   0.274   0.125
  128SOL    HW1  384   1.479   0.199   0.148
  128SOL    HW2  385   1.562   0.326   0.208
  129SOL     OW  386   1.303   0.838   0.042
  129SOL    HW1  387   1.337   0.745   0.057
  129SOL    HW2  388   1.321   0.865  -0.053
  130SOL     OW  389   1.068   1.333   0.849
  130SOL    HW1  390   1.075   1.249   0.794
  130SOL    HW2  391   1.130   1.402   0.813
  131SOL     OW  392   0.319   0.810   0.949
  131SOL    HW1  393   0.412   0.846   0.954
  131SOL    HW2  394   0.313   0.725   1.001
  132SOL     OW  395   0.339   0.509   1.006
  132SOL    HW1  396   0.287   0.426   0.989
  132SOL    HW2  397   0.416   0.514   0.942
  133SOL     OW  398   1.138   0.380   1.678
  133SOL    HW1  399   1.093   0.443   1.742
  133SOL    HW2  400   1.231   0.411   1.661
  134SOL     OW  401   1.160   0.207   1.477
  134SOL    HW1  402   1.160   0.271   1.554
  134SOL    HW2  403   1.188   0.255   1.394
  135SOL     OW  404   0.008   1.326   0.200
  135SOL    HW1  405  -0.085   1.347   0.169
  135SOL    HW2  406   0.018   1.227   0.213
  136SOL     OW  407   0.088   1.801   0.927
  136SOL    HW1  408   0.046   1.715   0.900
  136SOL    HW2  409   0.182   1.804   0.893
  137SOL     OW  410   0.504   1.568   0.910
  137SOL    HW1  411   0.570   1.642   0.919
  137SOL    HW2  412   0.548   1.489   0.868
  138SOL     OW  413   1.002   0.796   1.238
  138SOL    HW1  414   1.043   0.764   1.324
  138SOL    HW2  415   0.906   0.769   1.235
  139SOL     OW  416   0.040   0.544   1.114
  139SOL    HW1  417   0.125   0.511   1.073
  139SOL    HW2  418   0.053   0.559   1.212
  140SOL     OW  419   0.189   0.520   1.722
  140SOL    HW1  420   0.248   0.480   1.652
  140SOL    HW2  421   0.131   0.591   1.681
  141SOL     OW  422   1.369   0.950   1.660
  141SOL    HW1  423   1.408   1.039   1.680
  141SOL    HW2  424   1.379   0.930   1.563
  142SOL     OW  425   0.815   0.572   0.325
  142SOL    HW1  426   0.822   0.483   0.279
  142SOL    HW2  427   0.721   0.606   0.317
  143SOL     OW  428   1.657   0.604   1.206
  143SOL    HW1  429   1.619   0.535   1.268
  143SOL    HW2  430   1.739   0.568   1.162
  144SOL     OW  431   0.252   1.564   1.744
  144SOL    HW1  432   0.222   1.621   1.820
  144SOL    HW2  433   0.245   1.467   1.770
  145SOL     OW  434   0.671   0.464   1.269
  145SOL    HW1  435   0.637   0.375   1.239
  145SOL    HW2  436   0.697   0.518   1.189
  146SOL     OW  437   0.930   1.678   1.465
  146SOL    HW1  438   0.906   1.660   1.370
  146SOL    HW2  439   0.960   1.772   1.475
  147SOL     OW  440   0.473   0.500   0.191
  147SOL    HW1  441   0.534   0.580   0.195
  147SOL    HW2  442   0.378   0.531   0.198
  148SOL     OW  443   0.159   1.137   1.466
  148SOL    HW1  444   0.181   1.076   1.542
  148SOL    HW2  445   0.169   1.088   1.380
  149SOL     OW  446   1.347   1.059   1.234
  149SOL    HW1  447   1.371   0.996   1.160
  149SOL    HW2  448   1.257   1.099   1.216
  150SOL     OW  449   1.302   0.855   0.309
  150SOL    HW1  450   1.216   0.824   0.351
  150SOL    HW2  451   1.298   0.841   0.210
  151SOL     OW  452   1.759   1.747   1.154
  151SOL    HW1  453   1.820   1.777   1.081
  151SOL    HW2  454   1.721   1.658   1.132
  152SOL     OW  455   1.252   1.731   1.128
  152SOL    HW1  456   1.336   1.736   1.074
  152SOL    HW2  457   1.229   1.635   1.146
  153SOL     OW  458   0.083   1.258   1.022
  153SOL    HW1  459   0.078   1.257   1.122
  153SOL    HW2  460   0.000   1.217   0.984
  154SOL     OW  461   0.688   1.662   1.716
  154SOL    HW1  462   0.632   1.743   1.725
  154SOL    HW2  463   0.740   1.666   1.630
  155SOL     OW  464   0.903   0.086   0.133
  155SOL    HW1  465   0.954   0.087   0.047
  155SOL    HW2  466   0.959   0.044   0.204
  156SOL     OW  467   1.726   0.135   0.523
  156SOL    HW1  468   1.799   0.118   0.456
  156SOL    HW2  469   1.695   0.048   0.561
  157SOL     OW  470   1.388   1.573   0.477
  157SOL    HW1  471   1.455   1.585   0.403
  157SOL    HW2  472   1.348   1.662   0.500
  158SOL     OW  473   0.130   1.794   1.851
  158SOL    HW1  474   0.089   1.720   1.904
  158SOL    HW2  475   0.194   1.845   1.909
  159SOL     OW  476   1.280   0.927   0.672
  159SOL    HW1  477   1.340   0.846   0.674
  159SOL    HW2  478   1.320   0.996   0.612
  160SOL     OW  479   0.830   1.273   1.422
  160SOL    HW1  480   0.825   1.306   1.517
  160SOL    HW2  481   0.744   1.292   1.376
  161SOL     OW  482   0.672   1.616   0.154
  161SOL    HW1  483   0.681   1.626   0.055
  161SOL    HW2  484   0.632   1.527   0.175
  162SOL     OW  485   1.650   1.720   1.394
  162SOL    HW1  486   1.703   1.730   1.310
  162SOL    HW2  487   1.623   1.810   1.428
  163SOL     OW  488   1.841   0.175   0.963
  163SOL    HW1  489   1.880   0.090   0.927
  163SOL    HW2  490   1.743   0.177   0.944
  164SOL     OW  491   0.263   0.326   0.720
  164SOL    HW1  492   0.184   0.377   0.686
  164SOL    HW2  493   0.254   0.311   0.818
  165SOL     OW  494   1.194   1.612   0.031
  165SOL    HW1  495   1.200   1.519   0.068
  165SOL    HW2  496   1.135   1.612  -0.049
  166SOL     OW  497   0.822   1.002   1.372
  166SOL    HW1  498   0.862   1.001   1.280
  166SOL    HW2  499   0.832   1.094   1.412
  167SOL     OW  500   0.916   0.910   0.291
  167SOL    HW1  501   0.979   0.948   0.223
  167SOL    HW2  502   0.956   0.827   0.330
  168SOL     OW  503   1.504   1.607   0.044
  168SOL    HW1  504   1.412   1.644   0.051
  168SOL    HW2  505   1.542   1.627  -0.046
  169SOL     OW  506   0.372   1.288   1.490
  169SOL    HW1  507   0.359   1.381   1.456
  169SOL    HW2  508   0.288   1.236   1.477
  170SOL     OW  509   1.614   1.292   1.289
  170SOL    HW1  510   1.674   1.295   1.369
  170SOL    HW2  511   1.539   1.356   1.302
  171SOL     OW  512   1.039   1.098   0.696
  171SOL    HW1  513   0.969   1.051   0.750
  171SOL    HW2  514   1.098   1.030   0.653
  172SOL     OW  515   1.014   0.236   0.971
  172SOL    HW1  516   1.006   0.200   0.878
  172SOL    HW2  517   1.012   0.160   1.036
  173SOL     OW  518   0.590   1.487   0.491
  173SOL    HW1  519   0.632   1.429   0.421
  173SOL    HW2  520   0.546   1.566   0.447
  174SOL     OW  521   1.709   0.385   1.381
  174SOL    HW1  522   1.782   0.454   1.385
  174SOL    HW2  523   1.737   0.310   1.322
  175SOL     OW  524   0.255   1.348   0.290
  175SOL    HW1  525   0.159   1.349   0.263
  175SOL    HW2  526   0.267   1.401   0.374
  176SOL     OW  527   0.105   1.013   1.726
  176SOL    HW1  528   0.028   0.980   1.780
  176SOL    HW2  529   0.190   0.983   1.768
  177SOL     OW  530   0.672   0.203   1.489
  177SOL    HW1  531   0.762   0.187   1.449
  177SOL    HW2  532   0.680   0.208   1.588
  178SOL     OW  533   0.075   0.345   0.033
  178SOL    HW1  534  -0.017   0.317   0.004
  178SOL    HW2  535   0.106   0.422  -0.023
  179SOL     OW  536   1.440   0.856   1.398
  179SOL    HW1  537   1.383   0.908   1.335
  179SOL    HW2  538   1.536   0.868   1.374
  180SOL     OW  539   0.072   0.166   0.318
  180SOL    HW1  540   0.055   0.249   0.264
  180SOL    HW2  541   0.162   0.129   0.296
  181SOL     OW  542   1.183   1.335   0.119
  181SOL    HW1  543   1.084   1.324   0.121
  181SOL    HW2  544   1.217   1.350   0.212
  182SOL     OW  545   0.613   0.842   1.431
  182SOL    HW1  546   0.669   0.923   1.414
  182SOL    HW2  547   0.672   0.762   1.434
  183SOL     OW  548   1.493   1.767   0.959
  183SOL    HW1  549   1.526   1.831   0.890
  183SOL    HW2  550   1.559   1.761   1.034
  184SOL     OW  551   0.716   0.565   1.708
  184SOL    HW1  552   0.735   0.630   1.782
  184SOL    HW2  553   0.776   0.485   1.717
  185SOL     OW  554   1.450   1.220   1.633
  185SOL    HW1  555   1.441   1.210   1.732
  185SOL    HW2  556   1.546   1.213   1.607
  186SOL     OW  557   0.390   1.741   1.560
  186SOL    HW1  558   0.299   1.782   1.558
  186SOL    HW2  559   0.383   1.647   1.592
  187SOL     OW  560   1.674   0.883   1.254
  187SOL    HW1  561   1.647   0.794   1.217
  187SOL    HW2  562   1.675   0.951   1.181
  188SOL     OW  563   1.225   0.325   0.449
  188SOL    HW1  564   1.290   0.251   0.438
  188SOL    HW2  565   1.245   0.375   0.533
  189SOL     OW  566   0.594   0.745   0.652
  189SOL    HW1  567   0.644   0.830   0.633
  189SOL    HW2  568   0.506   0.747   0.604
  190SOL     OW  569   1.777   0.342   1.642
  190SOL    HW1  570   1.760   0.373   1.548
  190SOL    HW2  571   1.693   0.305   1.680
  191SOL     OW  572   1.730   0.934   1.517
  191SOL    HW1  573   1.768   1.025   1.532
  191SOL    HW2  574   1.722   0.917   1.418
  192SOL     OW  575   0.859   1.374   0.016
  192SOL    HW1  576   0.813   1.389   0.104
  192SOL    HW2  577   0.903   1.459  -0.014
  193SOL     OW  578   0.661   1.790   0.953
  193SOL    HW1  579   0.615   1.878   0.940
  193SOL    HW2  580   0.760   1.802   0.946
  194SOL     OW  581   0.859   0.956   0.861
  194SOL    HW1  582   0.913   0.887   0.909
  194SOL    HW2  583   0.827   1.025   0.927
  195SOL     OW  584   1.083   0.984   0.087
  195SOL    HW1  585   1.060   1.037   0.005
  195SOL    HW2  586   1.164   0.928   0.068
  196SOL     OW  587   1.861   1.569   0.851
  196SOL    HW1  588   1.790   1.557   0.781
  196SOL    HW2  589   1.862   1.490   0.911
  197SOL     OW  590   0.221   1.314   1.844
  197SOL    HW1  591   0.156   1.241   1.823
  197SOL    HW2  592   0.225   1.328   1.942
  198SOL     OW  593   0.079   1.240   0.653
  198SOL    HW1  594   0.078   1.193   0.741
  198SOL    HW2  595   0.161   1.212   0.602
  199SOL     OW  596   0.672   1.391   1.624
  199SOL    HW1  597   0.594   1.341   1.662
  199SOL    HW2  598   0.669   1.486   1.655
  200SOL     OW  599   1.824   0.192   1.227
  200SOL    HW1  600   1.820   0.102   1.271
  200SOL    HW2  601   1.827   0.181   1.128
  201SOL     OW  602   0.428   0.424   0.520
  201SOL    HW1  603   0.458   0.352   0.458
  201SOL    HW2  604   0.389   0.384   0.603
  202SOL     OW  605   1.705   1.487   1.104
  202SOL    HW1  606   1.612   1.462   1.077
  202SOL    HW2  607   1.731   1.437   1.186
  203SOL     OW  608   0.317   0.547   1.280
  203SOL    HW1  609   0.355   0.488   1.352
  203SOL    HW2  610   0.357   0.521   1.192
  204SOL     OW  611   0.812   1.586   0.687
  204SOL    HW1  612   0.844   1.596   0.593
  204SOL    HW2  613   0.733   1.524   0.689
  205SOL     OW  614   1.424   0.214   1.112
  205SOL    HW1  615   1.476   0.149   1.167
  205SOL    HW2  616   1.375   0.277   1.173
  206SOL     OW  617   1.001   0.034   1.154
  206SOL    HW1  618   0.938  -0.038   1.123
  206SOL    HW2  619   1.094  -0.002   1.154
  207SOL     OW  620   0.770   1.330   0.301
  207SOL    HW1  621   0.724   1.243   0.318
  207SOL    HW2  622   0.861   1.327   0.342
  208SOL     OW  623   0.618   1.567   1.284
  208SOL    HW1  624   0.613   1.649   1.341
  208SOL    HW2  625   0.707   1.564   1.239
  209SOL     OW  626   1.352   0.052   0.168
  209SOL    HW1  627   1.387   0.011   0.084
  209SOL    HW2  628   1.262   0.014   0.188
  210SOL     OW  629   1.300   0.453   0.691
  210SOL    HW1  630   1.241   0.533   0.695
  210SOL    HW2  631   1.315   0.418   0.784
  211SOL     OW  632   1.593   0.221   0.882
  211SOL    HW1  633   1.509   0.220   0.936
  211SOL    HW2  634   1.595   0.304   0.826
  212SOL     OW  635   0.039   1.077   0.300
  212SOL    HW1  636   0.138   1.066   0.291
  212SOL    HW2  637  -0.001   0.991   0.332
  213SOL     OW  638   0.875   1.646   0.337
  213SOL    HW1  639   0.798   1.611   0.283
  213SOL    HW2  640   0.843   1.717   0.399
  214SOL     OW  641   0.230   0.628   1.975
  214SOL    HW1  642   0.137   0.626   2.012
  214SOL    HW2  643   0.231   0.589   1.883
  215SOL     OW  644   1.755   0.607   2.093
  215SOL    HW1  645   1.743   0.594   1.994
  215SOL    HW2  646   1.725   0.526   2.142
  216SOL     OW  647   0.231   1.713   2.345
  216SOL    HW1  648   0.265   1.790   2.399
  216SOL    HW2  649   0.275   1.713   2.255
  217SOL     OW  650   0.606   0.964   1.985
  217SOL    HW1  651   0.613   1.048   1.931
  217SOL    HW2  652   0.652   0.977   2.073
  218SOL     OW  653   0.027   1.596   1.979
  218SOL    HW1  654   0.008   1.500   2.000
  218SOL    HW2  655  -0.006   1.654   2.054
  219SOL     OW  656   1.525   0.999   2.052
  219SOL    HW1  657   1.462   0.923   2.065
  219SOL    HW2  658   1.573   1.017   2.138
  220SOL     OW  659   0.598   0.729   2.132
  220SOL    HW1  660   0.622   0.798   2.064
  220SOL    HW2  661   0.520   0.762   2.186
  221SOL     OW  662   0.865   0.348   2.057
  221SOL    HW1  663   0.924   0.411   2.008
  221SOL    HW2  664   0.884   0.254   2.028
  222SOL     OW  665   1.008   1.456   2.339
  222SOL    HW1  666   0.962   1.528   2.287
  222SOL    HW2  667   1.004   1.476   2.437
  223SOL     OW  668   0.321   0.943   2.104
  223SOL    HW1  669   0.403   0.982   2.062
  223SOL    HW2  670   0.294   0.861   2.055
  224SOL     OW  671   1.632   1.377   1.943
  224SOL    HW1  672   1.600   1.471   1.933
  224SOL    HW2  673   1.556   1.314   1.931
  225SOL     OW  674   0.464   1.743   2.185
  225SOL    HW1  675   0.497   1.782   2.271
  225SOL    HW2  676   0.540   1.736   2.120
  226SOL     OW  677   0.614   0.122   1.979
  226SOL    HW1  678   0.712   0.100   1.986
  226SOL    HW2  679   0.583   0.105   1.886
  227SOL     OW  680   1.434   1.188   1.903
  227SOL    HW1  681   1.466   1.112   1.960
  227SOL    HW2  682   1.342   1.215   1.933
  228SOL     OW  683   0.297   0.035   2.033
  228SOL    HW1  684   0.346   0.119   2.012
  228SOL    HW2  685   0.359  -0.030   2.078
  229SOL     OW  686   1.032   0.549   1.878
  229SOL    HW1  687   0.991   0.631   1.839
  229SOL    HW2  688   1.096   0.575   1.951
  230SOL     OW  689   1.857   0.833   2.239
  230SOL    HW1  690   1.899   0.769   2.303
  230SOL    HW2  691   1.819   0.782   2.161
  231SOL     OW  692   0.488   1.385   2.036
  231SOL    HW1  693   0.401   1.370   2.083
  231SOL    HW2  694   0.471   1.411   1.941
  232SOL     OW  695   1.390   0.575   1.940
  232SOL    HW1  696   1.336   0.554   2.021
  232SOL    HW2  697   1.481   0.534   1.949
  233SOL     OW  698   1.582   0.639   2.334
  233SOL    HW1  699   1.551   0.700   2.407
  233SOL    HW2  700   1.632   0.691   2.265
  234SOL     OW  701   1.540   0.274   1.987
  234SOL    HW1  702   1.479   0.199   2.010
  234SOL    HW2  703   1.562   0.326   2.070
  235SOL     OW  704   1.303   0.838   1.904
  235SOL    HW1  705   1.337   0.745   1.919
  235SOL    HW2  706   1.321   0.865   1.809
  236SOL     OW  707   0.008   1.326   2.062
  236SOL    HW1  708  -0.085   1.347   2.031
  236SOL    HW2  709   0.018   1.227   2.075
  237SOL     OW  710   0.815   0.572   2.187
  237SOL    HW1  711   0.822   0.483   2.141
  237SOL    HW2  712   0.721   0.606   2.179
  238SOL     OW  713   0.473   0.500   2.053
  238SOL    HW1  714   0.534   0.580   2.057
  238SOL    HW2  715   0.378   0.531   2.060
  239SOL     OW  716   1.726   0.135   2.385
  239SOL    HW1  717   1.799   0.118   2.318
  239SOL    HW2  718   1.695   0.048   2.423
  240SOL     OW  719   0.672   1.616   2.016
  240SOL    HW1  720   0.681   1.626   1.917
  240SOL    HW2  721   0.632   1.527   2.037
  241SOL     OW  722   1.194   1.612   1.893
  241SOL    HW1  723   1.200   1.519   1.930
  241SOL    HW2  724   1.135   1.612   1.813
  242SOL     OW  725   0.916   0.910   2.153
  242SOL    HW1  726   0.979   0.948   2.085
  242SOL    HW2  727   0.956   0.827   2.192
  243SOL     OW  728   1.504   1.607   1.906
  243SOL    HW1  729   1.412   1.644   1.913
  243SOL    HW2  730   1.542   1.627   1.816
  244SOL     OW  731   0.255   1.348   2.152
  244SOL    HW1  732   0.159   1.349   2.125
  244SOL    HW2  733   0.267   1.401   2.236
  245SOL     OW  734   0.075   0.345   1.895
  245SOL    HW1  735  -0.017   0.317   1.866
  245SOL    HW2  736   0.106   0.422   1.839
  246SOL     OW  737   1.183   1.335   1.981
  246SOL    HW1  738   1.084   1.324   1.983
  246SOL    HW2  739   1.217   1.350   2.074
  247SOL     OW  740   0.859   1.374   1.878
  247SOL    HW1  741   0.813   1.389   1.966
  247SOL    HW2  742   0.903   1.459   1.848
  248SOL     OW  743   1.083   0.984   1.949
  248SOL    HW1  744   1.060   1.037   1.867
  248SOL    HW2  745   1.164   0.928   1.930
  249SOL     OW  746   1.352   0.052   2.030
  249SOL    HW1  747   1.387   0.011   1.946
  249SOL    HW2  748   1.262   0.014   2.050
  250SOL     OW  749   0.039   1.077   2.162
  250SOL    HW1  750   0.138   1.066   2.153
  250SOL    HW2  751  -0.001   0.991   2.194
  251SOL     OW  752   0.875   1.646   2.199
  251SOL    HW1  753   0.798   1.611   2.145
  251SOL    HW2  754   0.843   1.717   2.261
  252SOL     OW  755   0.225   2.137   0.996
  252SOL    HW1  756   0.260   2.120   1.088
  252SOL    HW2  757   0.137   2.092   0.984
  253SOL     OW  758   0.019   2.230   0.647
  253SOL    HW1  759  -0.063   2.273   0.686
  253SOL    HW2  760  -0.009   2.157   0.584
  254SOL     OW  761   0.438   2.254   1.499
  254SOL    HW1  762   0.520   2.198   1.508
  254SOL    HW2  763   0.357   2.196   1.503
  255SOL     OW  764   1.594   1.976   1.480
  255SOL    HW1  765   1.576   2.043   1.408
  255SOL    HW2  766   1.591   2.022   1.569
  256SOL     OW  767   0.809   1.866   0.502
  256SOL    HW1  768   0.849   1.957   0.493
  256SOL    HW2  769   0.709   1.874   0.508
  257SOL     OW  770   1.281   2.207   0.944
  257SOL    HW1  771   1.195   2.157   0.931
  257SOL    HW2  772   1.343   2.153   1.000
  258SOL     OW  773   0.550   2.058   0.885
  258SOL    HW1  774   0.545   2.053   0.985
  258SOL    HW2  775   0.552   2.154   0.856
  259SOL     OW  776   0.202   2.147   1.498
  259SOL    HW1  777   0.122   2.207   1.485
  259SOL    HW2  778   0.192   2.098   1.584
  260SOL     OW  779   1.400   1.969   0.426
  260SOL    HW1  780   1.376   1.932   0.336
  260SOL    HW2  781   1.499   1.985   0.430
  261SOL     OW  782   1.547   2.084   1.729
  261SOL    HW1  783   1.542   2.121   1.821
  261SOL    HW2  784   1.475   2.015   1.717
  262SOL     OW  785   0.614   1.984   0.117
  262SOL    HW1  786   0.712   1.962   0.124
  262SOL    HW2  787   0.583   1.967   0.024
  263SOL     OW  788   0.781   2.126   1.749
  263SOL    HW1  789   0.848   2.065   1.792
  263SOL    HW2  790   0.708   2.145   1.814
  264SOL     OW  791   1.351   2.452   1.433
  264SOL    HW1  792   1.379   2.409   1.518
  264SOL    HW2  793   1.376   2.548   1.434
  265SOL     OW  794   0.539   1.926   0.512
  265SOL    HW1  795   0.458   1.927   0.570
  265SOL    HW2  796   0.542   2.009   0.457
  266SOL     OW  797   0.561   2.084   1.147
  266SOL    HW1  798   0.599   2.000   1.184
  266SOL    HW2  799   0.473   2.103   1.191
  267SOL     OW  800   1.017   1.901   0.753
  267SOL    HW1  801   0.945   1.906   0.684
  267SOL    HW2  802   0.993   1.832   0.822
  268SOL     OW  803   0.527   2.118   0.328
  268SOL    HW1  804   0.554   2.059   0.253
  268SOL    HW2  805   0.527   2.213   0.297
  269SOL     OW  806   0.915   1.951   1.402
  269SOL    HW1  807   0.940   1.931   1.307
  269SOL    HW2  808   0.987   2.007   1.444
  270SOL     OW  809   1.274   2.248   1.262
  270SOL    HW1  810   1.295   2.322   1.326
  270SOL    HW2  811   1.185   2.265   1.219
  271SOL     OW  812   1.013   1.967   1.770
  271SOL    HW1  813   1.019   2.052   1.718
  271SOL    HW2  814   1.045   1.891   1.713
  272SOL     OW  815   0.504   1.912   1.740
  272SOL    HW1  816   0.462   1.855   1.670
  272SOL    HW2  817   0.438   1.981   1.772
  273SOL     OW  818   0.307   2.075   1.231
  273SOL    HW1  819   0.284   2.112   1.321
  273SOL    HW2  820   0.277   1.980   1.225
  274SOL     OW  821   0.307   1.925   0.618
  274SOL    HW1  822   0.296   2.019   0.651
  274SOL    HW2  823   0.302   1.862   0.695
  275SOL     OW  824   1.540   2.136   0.125
  275SOL    HW1  825   1.479   2.061   0.148
  275SOL    HW2  826   1.562   2.188   0.208
  276SOL     OW  827   1.160   2.069   1.477
  276SOL    HW1  828   1.160   2.133   1.554
  276SOL    HW2  829   1.188   2.117   1.394
  277SOL     OW  830   0.903   1.948   0.133
  277SOL    HW1  831   0.954   1.949   0.047
  277SOL    HW2  832   0.959   1.906   0.204
  278SOL     OW  833   1.726   1.997   0.523
  278SOL    HW1  834   1.799   1.980   0.456
  278SOL    HW2  835   1.695   1.910   0.561
  279SOL     OW  836   1.841   2.037   0.963
  279SOL    HW1  837   1.880   1.952   0.927
  279SOL    HW2  838   1.743   2.039   0.944
  280SOL     OW  839   0.672   2.065   1.489
  280SOL    HW1  840   0.762   2.049   1.449
  280SOL    HW2  841   0.680   2.070   1.588
  281SOL     OW  842   0.075   2.207   0.033
  281SOL    HW1  843  -0.017   2.179   0.004
  281SOL    HW2  844   0.106   2.284  -0.023
  282SOL     OW  845   0.072   2.028   0.318
  282SOL    HW1  846   0.055   2.111   0.264
  282SOL    HW2  847   0.162   1.991   0.296
  283SOL     OW  848   1.225   2.187   0.449
  283SOL    HW1  849   1.290   2.113   0.438
  283SOL    HW2  850   1.245   2.237   0.533
  284SOL     OW  851   1.777   2.204   1.642
  284SOL    HW1  852   1.760   2.235   1.548
  284SOL    HW2  853   1.693   2.167   1.680
  285SOL     OW  854   1.824   2.054   1.227
  285SOL    HW1  855   1.820   1.964   1.271
  285SOL    HW2  856   1.827   2.043   1.128
  286SOL     OW  857   1.424   2.076   1.112
  286SOL    HW1  858   1.476   2.011   1.167
  286SOL    HW2  859   1.375   2.139   1.173
  287SOL     OW  860   1.001   1.896   1.154
  287SOL    HW1  861   0.938   1.824   1.123
  287SOL    HW2  862   1.094   1.860   1.154
  288SOL     OW  863   1.352   1.914   0.168
  288SOL    HW1  864   1.387   1.873   0.084
  288SOL    HW2  865   1.262   1.876   0.188
  289SOL     OW  866   1.300   2.315   0.691
  289SOL    HW1  867   1.241   2.395   0.695
  289SOL    HW2  868   1.315   2.280   0.784
  290SOL     OW  869   1.593   2.083   0.882
  290SOL    HW1  870   1.509   2.082   0.936
  290SOL    HW2  871   1.595   2.166   0.826
  291SOL     OW  872   1.755   2.469   2.093
  291SOL    HW1  873   1.743   2.456   1.994
  291SOL    HW2  874   1.725   2.388   2.142
  292SOL     OW  875   0.865   2.210   2.057
  292SOL    HW1  876   0.924   2.273   2.008
  292SOL    HW2  877   0.884   2.116   2.028
  293SOL     OW  878   0.614   1.984   1.979
  293SOL    HW1  879   0.712   1.962   1.986
  293SOL    HW2  880   0.583   1.967   1.886
  294SOL     OW  881   0.297   1.897   2.033
  294SOL    HW1  882   0.346   1.981   2.012
  294SOL    HW2  883   0.359   1.832   2.078
  295SOL     OW  884   1.032   2.411   1.878
  295SOL    HW1  885   0.991   2.493   1.839
  295SOL    HW2  886   1.096   2.437   1.951
  296SOL     OW  887   1.209   2.387   2.137
  296SOL    HW1  888   1.222   2.303   2.191
  296SOL    HW2  889   1.180   2.461   2.197
  297SOL     OW  890   1.540   2.136   1.987
  297SOL    HW1  891   1.479   2.061   2.010
  297SOL    HW2  892   1.562   2.188   2.070
  298SOL     OW  893   1.726   1.997   2.385
  298SOL    HW1  894   1.799   1.980   2.318
  298SOL    HW2  895   1.695   1.910   2.423
  299SOL     OW  896   0.075   2.207   1.895
  299SOL    HW1  897  -0.017   2.179   1.866
  299SOL    HW2  898   0.106   2.284   1.839
  300SOL     OW  899   1.352   1.914   2.030
  300SOL    HW1  900   1.387   1.873   1.946
  300SOL    HW2  901   1.262   1.876   2.050
  301SOL     OW  902   2.092   0.628   0.113
  301SOL    HW1  903   1.999   0.626   0.150
  301SOL    HW2  904   2.093   0.589   0.021
  302SOL     OW  905   2.087   0.275   0.996
  302SOL    HW1  906   2.122   0.258   1.088
  302SOL    HW2  907   1.999   0.230   0.984
  303SOL     OW  908   1.881   0.368   0.647
  303SOL    HW1  909   1.799   0.411   0.686
  303SOL    HW2  910   1.853   0.295   0.584
  304SOL     OW  911   2.197   1.435   1.061
  304SOL    HW1  912   2.119   1.404   1.008
  304SOL    HW2  913   2.255   1.493   1.004
  305SOL     OW  914   2.093   1.713   0.483
  305SOL    HW1  915   2.127   1.790   0.537
  305SOL    HW2  916   2.137   1.713   0.393
  306SOL     OW  917   2.092   1.434   0.538
  306SOL    HW1  918   2.066   1.530   0.538
  306SOL    HW2  919   2.021   1.380   0.583
  307SOL     OW  920   2.102   1.091   0.886
  307SOL    HW1  921   2.116   1.007   0.938
  307SOL    HW2  922   2.047   1.155   0.941
  308SOL     OW  923   1.984   0.643   0.563
  308SOL    HW1  924   1.939   0.555   0.580
  308SOL    HW2  925   1.983   0.697   0.647
  309SOL     OW  926   1.889   1.596   0.117
  309SOL    HW1  927   1.870   1.500   0.138
  309SOL    HW2  928   1.856   1.654   0.192
  310SOL     OW  929   1.975   0.737   1.597
  310SOL    HW1  930   2.063   0.724   1.642
  310SOL    HW2  931   1.962   0.834   1.575
  311SOL     OW  932   2.059   0.976   1.264
  311SOL    HW1  933   2.148   0.931   1.250
  311SOL    HW2  934   1.986   0.911   1.245
  312SOL     OW  935   1.938   0.811   0.789
  312SOL    HW1  936   2.037   0.799   0.798
  312SOL    HW2  937   1.914   0.906   0.810
  313SOL     OW  938   1.992   1.821   1.571
  313SOL    HW1  939   1.982   1.806   1.670
  313SOL    HW2  940   1.906   1.857   1.535
  314SOL     OW  941   2.064   0.285   1.498
  314SOL    HW1  942   1.984   0.345   1.485
  314SOL    HW2  943   2.054   0.236   1.584
  315SOL     OW  944   1.940   0.556   1.386
  315SOL    HW1  945   2.032   0.555   1.345
  315SOL    HW2  946   1.934   0.630   1.453
  316SOL     OW  947   1.926   1.564   1.331
  316SOL    HW1  948   1.880   1.646   1.297
  316SOL    HW2  949   2.024   1.583   1.340
  317SOL     OW  950   2.169   0.213   1.231
  317SOL    HW1  951   2.146   0.250   1.321
  317SOL    HW2  952   2.139   0.118   1.225
  318SOL     OW  953   1.899   1.310   1.282
  318SOL    HW1  954   1.952   1.261   1.350
  318SOL    HW2  955   1.921   1.408   1.287
  319SOL     OW  956   1.870   1.326   0.200
  319SOL    HW1  957   1.777   1.347   0.169
  319SOL    HW2  958   1.880   1.227   0.213
  320SOL     OW  959   1.950   1.801   0.927
  320SOL    HW1  960   1.908   1.715   0.900
  320SOL    HW2  961   2.044   1.804   0.893
  321SOL     OW  962   2.366   1.568   0.910
  321SOL    HW1  963   2.432   1.642   0.919
  321SOL    HW2  964   2.410   1.489   0.868
  322SOL     OW  965   1.902   0.544   1.114
  322SOL    HW1  966   1.987   0.511   1.073
  322SOL    HW2  967   1.915   0.559   1.212
  323SOL     OW  968   2.051   0.520   1.722
  323SOL    HW1  969   2.110   0.480   1.652
  323SOL    HW2  970   1.993   0.591   1.681
  324SOL     OW  971   2.114   1.564   1.744
  324SOL    HW1  972   2.084   1.621   1.820
  324SOL    HW2  973   2.107   1.467   1.770
  325SOL     OW  974   2.021   1.137   1.466
  325SOL    HW1  975   2.043   1.076   1.542
  325SOL    HW2  976   2.031   1.088   1.380
  326SOL     OW  977   1.945   1.258   1.022
  326SOL    HW1  978   1.940   1.257   1.122
  326SOL    HW2  979   1.862   1.217   0.984
  327SOL     OW  980   1.992   1.794   1.851
  327SOL    HW1  981   1.951   1.720   1.904
  327SOL    HW2  982   2.056   1.845   1.909
  328SOL     OW  983   1.967   1.013   1.726
  328SOL    HW1  984   1.890   0.980   1.780
  328SOL    HW2  985   2.052   0.983   1.768
  329SOL     OW  986   1.934   0.166   0.318
  329SOL    HW1  987   1.917   0.249   0.264
  329SOL    HW2  988   2.024   0.129   0.296
  330SOL     OW  989   1.941   1.240   0.653
  330SOL    HW1  990   1.940   1.193   0.741
  330SOL    HW2  991   2.023   1.212   0.602
  331SOL     OW  992   1.901   1.077   0.300
  331SOL    HW1  993   2.000   1.066   0.291
  331SOL    HW2  994   1.861   0.991   0.332
  332SOL     OW  995   2.092   0.628   1.975
  332SOL    HW1  996   1.999   0.626   2.012
  332SOL    HW2  997   2.093   0.589   1.883
  333SOL     OW  998   1.889   1.596   1.979
  333SOL    HW1  999   1.870   1.500   2.000
  333SOL    HW2 1000   1.856   1.654   2.054
  334SOL     OW 1001   2.389   0.256   2.190
  334SOL    HW1 1002   2.416   0.197   2.115
  334SOL    HW2 1003   2.389   0.351   2.159
  335SOL     OW 1004   1.870   1.326   2.062
  335SOL    HW1 1005   1.777   1.347   2.031
  335SOL    HW2 1006   1.880   1.227   2.075
  336SOL     OW 1007   1.937   0.345   1.895
  336SOL    HW1 1008   1.845   0.317   1.866
  336SOL    HW2 1009   1.968   0.422   1.839
  337SOL     OW 1010   1.934   0.166   2.180
  337SOL    HW1 1011   1.917   0.249   2.126
  337SOL    HW2 1012   2.024   0.129   2.158
  338SOL     OW 1013   1.901   1.077   2.162
  338SOL    HW1 1014   2.000   1.066   2.153
  338SOL    HW2 1015   1.861   0.991   2.194
  339SOL     OW 1016   2.087   2.137   0.996
  339SOL    HW1 1017   2.122   2.120   1.088
  339SOL    HW2 1018   1.999   2.092   0.984
  340SOL     OW 1019   1.881   2.230   0.647
  340SOL    HW1 1020   1.799   2.273   0.686
  340SOL    HW2 1021   1.853   2.157   0.584
  341SOL     OW 1022   2.064   2.147   1.498
  341SOL    HW1 1023   1.984   2.207   1.485
  341SOL    HW2 1024   2.054   2.098   1.584
  342SOL     OW 1025   2.159   1.897   0.171
  342SOL    HW1 1026   2.208   1.981   0.150
  342SOL    HW2 1027   2.221   1.832   0.216
  343SOL     OW 1028   2.169   2.075   1.231
  343SOL    HW1 1029   2.146   2.112   1.321
  343SOL    HW2 1030   2.139   1.980   1.225
  344SOL     OW 1031   2.169   1.925   0.618
  344SOL    HW1 1032   2.158   2.019   0.651
  344SOL    HW2 1033   2.164   1.862   0.695
  345SOL     OW 1034   1.934   2.028   0.318
  345SOL    HW1 1035   1.917   2.111   0.264
  345SOL    HW2 1036   2.024   1.991   0.296
  346SOL     OW 1037   2.159   1.897   2.033
  346SOL    HW1 1038   2.208   1.981   2.012
  346SOL    HW2 1039   2.221   1.832   2.078
  347SOL     OW 1040   1.937   2.207   1.895
  347SOL    HW1 1041   1.845   2.179   1.866
  347SOL    HW2 1042   1.968   2.284   1.839
  348SOL     OW 1043   1.934   2.028   2.180
  348SOL    HW1 1044   1.917   2.111   2.126
  348SOL    HW2 1045   2.024   1.991   2.158
   2.16286   2.16286   2.16286
