; mobley_8823527_GMX.itp created by acpype (v: 2023.10.27) on Thu May 14 13:49:17 2026

[ atomtypes ]
;name   bond_type     mass     charge   ptype   sigma         epsilon       Amb
 ca       ca          0.00000  0.00000   A     3.31521e-01   4.13379e-01 ; 1.86  0.0988
 cp       cp          0.00000  0.00000   A     3.31521e-01   4.13379e-01 ; 1.86  0.0988
 cl       cl          0.00000  0.00000   A     3.46595e-01   1.10374e+00 ; 1.95  0.2638
 ha       ha          0.00000  0.00000   A     2.62548e-01   6.73624e-02 ; 1.47  0.0161

[ moleculetype ]
;name            nrexcl
 mobley_8823527   3

[ atoms ]
;   nr  type  resi  res  atom  cgnr     charge      mass       ; qtot   bond_type
     1   ca     1   MOL    C1    1    -0.110000     12.01000 ; qtot -0.110
     2   ca     1   MOL    C2    2    -0.119000     12.01000 ; qtot -0.229
     3   ca     1   MOL    C3    3    -0.098000     12.01000 ; qtot -0.327
     4   ca     1   MOL    C4    4    -0.098000     12.01000 ; qtot -0.425
     5   ca     1   MOL    C5    5    -0.102000     12.01000 ; qtot -0.527
     6   cp     1   MOL    C6    6    -0.028000     12.01000 ; qtot -0.555
     7   cp     1   MOL    C7    7    -0.036000     12.01000 ; qtot -0.591
     8   ca     1   MOL    C8    8     0.013400     12.01000 ; qtot -0.578
     9   ca     1   MOL    C9    9     0.029400     12.01000 ; qtot -0.548
    10   ca     1   MOL   C10   10     0.021400     12.01000 ; qtot -0.527
    11   ca     1   MOL   C11   11     0.021400     12.01000 ; qtot -0.505
    12   ca     1   MOL   C12   12     0.021400     12.01000 ; qtot -0.484
    13   cl     1   MOL   CL1   13    -0.080400     35.45000 ; qtot -0.564
    14   cl     1   MOL   CL2   14    -0.072400     35.45000 ; qtot -0.637
    15   cl     1   MOL   CL3   15    -0.058400     35.45000 ; qtot -0.695
    16   cl     1   MOL   CL4   16    -0.058400     35.45000 ; qtot -0.754
    17   cl     1   MOL   CL5   17    -0.041400     35.45000 ; qtot -0.795
    18   ha     1   MOL    H1   18     0.155000      1.00800 ; qtot -0.640
    19   ha     1   MOL    H2   19     0.156000      1.00800 ; qtot -0.484
    20   ha     1   MOL    H3   20     0.162500      1.00800 ; qtot -0.322
    21   ha     1   MOL    H4   21     0.162500      1.00800 ; qtot -0.159
    22   ha     1   MOL    H5   22     0.159000      1.00800 ; qtot 0.000

[ bonds ]
;   ai     aj funct   r             k
     1      2   1    1.3986e-01    2.9644e+05 ;     C1 - C2    
     1      8   1    1.3986e-01    2.9644e+05 ;     C1 - C8    
     1     18   1    1.0860e-01    3.0183e+05 ;     C1 - H1    
     2      9   1    1.3986e-01    2.9644e+05 ;     C2 - C9    
     2     19   1    1.0860e-01    3.0183e+05 ;     C2 - H2    
     3      6   1    1.4056e-01    2.8959e+05 ;     C3 - C6    
     3     10   1    1.3986e-01    2.9644e+05 ;     C3 - C10   
     3     20   1    1.0860e-01    3.0183e+05 ;     C3 - H3    
     4      6   1    1.4056e-01    2.8959e+05 ;     C4 - C6    
     4     11   1    1.3986e-01    2.9644e+05 ;     C4 - C11   
     4     21   1    1.0860e-01    3.0183e+05 ;     C4 - H4    
     5      7   1    1.4056e-01    2.8959e+05 ;     C5 - C7    
     5      8   1    1.3986e-01    2.9644e+05 ;     C5 - C8    
     5     22   1    1.0860e-01    3.0183e+05 ;     C5 - H5    
     6      7   1    1.4829e-01    2.2541e+05 ;     C6 - C7    
     7      9   1    1.4056e-01    2.8959e+05 ;     C7 - C9    
     8     13   1    1.7572e-01    1.5730e+05 ;     C8 - CL1   
     9     14   1    1.7572e-01    1.5730e+05 ;     C9 - CL2   
    10     12   1    1.3986e-01    2.9644e+05 ;    C10 - C12   
    10     15   1    1.7572e-01    1.5730e+05 ;    C10 - CL3   
    11     12   1    1.3986e-01    2.9644e+05 ;    C11 - C12   
    11     16   1    1.7572e-01    1.5730e+05 ;    C11 - CL4   
    12     17   1    1.7572e-01    1.5730e+05 ;    C12 - CL5   

[ pairs ]
;   ai     aj    funct
     1      7      1 ;     C1 - C7    
     1     14      1 ;     C1 - CL2   
     1     22      1 ;     C1 - H5    
     2      5      1 ;     C2 - C5    
     2      6      1 ;     C2 - C6    
     2     13      1 ;     C2 - CL1   
     3      5      1 ;     C3 - C5    
     3      9      1 ;     C3 - C9    
     3     11      1 ;     C3 - C11   
     3     17      1 ;     C3 - CL5   
     3     21      1 ;     C3 - H4    
     4      5      1 ;     C4 - C5    
     4      9      1 ;     C4 - C9    
     4     10      1 ;     C4 - C10   
     4     17      1 ;     C4 - CL5   
     4     20      1 ;     C4 - H3    
     5     14      1 ;     C5 - CL2   
     6      8      1 ;     C6 - C8    
     6     12      1 ;     C6 - C12   
     6     14      1 ;     C6 - CL2   
     6     15      1 ;     C6 - CL3   
     6     16      1 ;     C6 - CL4   
     6     22      1 ;     C6 - H5    
     7     10      1 ;     C7 - C10   
     7     11      1 ;     C7 - C11   
     7     13      1 ;     C7 - CL1   
     7     19      1 ;     C7 - H2    
     7     20      1 ;     C7 - H3    
     7     21      1 ;     C7 - H4    
     8      9      1 ;     C8 - C9    
     8     19      1 ;     C8 - H2    
     9     22      1 ;     C9 - H5    
    10     16      1 ;    C10 - CL4   
    11     15      1 ;    C11 - CL3   
    12     20      1 ;    C12 - H3    
    12     21      1 ;    C12 - H4    
    13     22      1 ;    CL1 - H5    
    14     19      1 ;    CL2 - H2    
    15     17      1 ;    CL3 - CL5   
    15     20      1 ;    CL3 - H3    
    16     17      1 ;    CL4 - CL5   
    16     21      1 ;    CL4 - H4    
    18      5      1 ;     H1 - C5    
    18      9      1 ;     H1 - C9    
    18     13      1 ;     H1 - CL1   
    18     19      1 ;     H1 - H2    

[ angles ]
;   ai     aj     ak    funct   theta         cth
     1      2      9      1    1.2002e+02    5.3279e+02 ;     C1 - C2     - C9    
     1      2     19      1    1.1988e+02    3.7572e+02 ;     C1 - C2     - H2    
     1      8      5      1    1.2002e+02    5.3279e+02 ;     C1 - C8     - C5    
     1      8     13      1    1.1938e+02    5.3605e+02 ;     C1 - C8     - CL1   
     2      1      8      1    1.2002e+02    5.3279e+02 ;     C2 - C1     - C8    
     2      1     18      1    1.1988e+02    3.7572e+02 ;     C2 - C1     - H1    
     2      9      7      1    1.2073e+02    5.2995e+02 ;     C2 - C9     - C7    
     2      9     14      1    1.1938e+02    5.3605e+02 ;     C2 - C9     - CL2   
     3      6      4      1    1.1841e+02    5.3379e+02 ;     C3 - C6     - C4    
     3      6      7      1    1.2110e+02    5.1296e+02 ;     C3 - C6     - C7    
     3     10     12      1    1.2002e+02    5.3279e+02 ;     C3 - C10    - C12   
     3     10     15      1    1.1938e+02    5.3605e+02 ;     C3 - C10    - CL3   
     4      6      7      1    1.2110e+02    5.1296e+02 ;     C4 - C6     - C7    
     4     11     12      1    1.2002e+02    5.3279e+02 ;     C4 - C11    - C12   
     4     11     16      1    1.1938e+02    5.3605e+02 ;     C4 - C11    - CL4   
     5      7      6      1    1.2110e+02    5.1296e+02 ;     C5 - C7     - C6    
     5      7      9      1    1.1841e+02    5.3379e+02 ;     C5 - C7     - C9    
     5      8     13      1    1.1938e+02    5.3605e+02 ;     C5 - C8     - CL1   
     6      3     10      1    1.2073e+02    5.2995e+02 ;     C6 - C3     - C10   
     6      3     20      1    1.1982e+02    3.7430e+02 ;     C6 - C3     - H3    
     6      4     11      1    1.2073e+02    5.2995e+02 ;     C6 - C4     - C11   
     6      4     21      1    1.1982e+02    3.7430e+02 ;     C6 - C4     - H4    
     6      7      9      1    1.2110e+02    5.1296e+02 ;     C6 - C7     - C9    
     7      5      8      1    1.2073e+02    5.2995e+02 ;     C7 - C5     - C8    
     7      5     22      1    1.1982e+02    3.7430e+02 ;     C7 - C5     - H5    
     7      9     14      1    1.2044e+02    5.3304e+02 ;     C7 - C9     - CL2   
     8      1     18      1    1.1988e+02    3.7572e+02 ;     C8 - C1     - H1    
     8      5     22      1    1.1988e+02    3.7572e+02 ;     C8 - C5     - H5    
     9      2     19      1    1.1988e+02    3.7572e+02 ;     C9 - C2     - H2    
    10      3     20      1    1.1988e+02    3.7572e+02 ;    C10 - C3     - H3    
    10     12     11      1    1.2002e+02    5.3279e+02 ;    C10 - C12    - C11   
    10     12     17      1    1.1938e+02    5.3605e+02 ;    C10 - C12    - CL5   
    11      4     21      1    1.1988e+02    3.7572e+02 ;    C11 - C4     - H4    
    11     12     17      1    1.1938e+02    5.3605e+02 ;    C11 - C12    - CL5   
    12     10     15      1    1.1938e+02    5.3605e+02 ;    C12 - C10    - CL3   
    12     11     16      1    1.1938e+02    5.3605e+02 ;    C12 - C11    - CL4   

[ dihedrals ] ; propers
; for gromacs 4.5 or higher, using funct 9
;    i      j      k      l   func   phase     kd      pn
     1      2      9      7      9   180.00  15.16700   2 ;     C1-    C2-    C9-    C7
     1      2      9     14      9   180.00  15.16700   2 ;     C1-    C2-    C9-   CL2
     1      8      5      7      9   180.00  15.16700   2 ;     C1-    C8-    C5-    C7
     1      8      5     22      9   180.00  15.16700   2 ;     C1-    C8-    C5-    H5
     2      1      8      5      9   180.00  15.16700   2 ;     C2-    C1-    C8-    C5
     2      1      8     13      9   180.00  15.16700   2 ;     C2-    C1-    C8-   CL1
     2      9      7      5      9   180.00  15.16700   2 ;     C2-    C9-    C7-    C5
     2      9      7      6      9   180.00  15.16700   2 ;     C2-    C9-    C7-    C6
     3      6      4     11      9   180.00  15.16700   2 ;     C3-    C6-    C4-   C11
     3      6      4     21      9   180.00  15.16700   2 ;     C3-    C6-    C4-    H4
     3      6      7      5      9   180.00   3.20076   2 ;     C3-    C6-    C7-    C5
     3      6      7      9      9   180.00   3.20076   2 ;     C3-    C6-    C7-    C9
     3     10     12     11      9   180.00  15.16700   2 ;     C3-   C10-   C12-   C11
     3     10     12     17      9   180.00  15.16700   2 ;     C3-   C10-   C12-   CL5
     4      6      3     10      9   180.00  15.16700   2 ;     C4-    C6-    C3-   C10
     4      6      3     20      9   180.00  15.16700   2 ;     C4-    C6-    C3-    H3
     4      6      7      5      9   180.00   3.20076   2 ;     C4-    C6-    C7-    C5
     4      6      7      9      9   180.00   3.20076   2 ;     C4-    C6-    C7-    C9
     4     11     12     10      9   180.00  15.16700   2 ;     C4-   C11-   C12-   C10
     4     11     12     17      9   180.00  15.16700   2 ;     C4-   C11-   C12-   CL5
     5      7      9     14      9   180.00  15.16700   2 ;     C5-    C7-    C9-   CL2
     6      3     10     12      9   180.00  15.16700   2 ;     C6-    C3-   C10-   C12
     6      3     10     15      9   180.00  15.16700   2 ;     C6-    C3-   C10-   CL3
     6      4     11     12      9   180.00  15.16700   2 ;     C6-    C4-   C11-   C12
     6      4     11     16      9   180.00  15.16700   2 ;     C6-    C4-   C11-   CL4
     6      7      5      8      9   180.00  15.16700   2 ;     C6-    C7-    C5-    C8
     6      7      5     22      9   180.00  15.16700   2 ;     C6-    C7-    C5-    H5
     6      7      9     14      9   180.00  15.16700   2 ;     C6-    C7-    C9-   CL2
     7      5      8     13      9   180.00  15.16700   2 ;     C7-    C5-    C8-   CL1
     7      6      3     10      9   180.00  15.16700   2 ;     C7-    C6-    C3-   C10
     7      6      3     20      9   180.00  15.16700   2 ;     C7-    C6-    C3-    H3
     7      6      4     11      9   180.00  15.16700   2 ;     C7-    C6-    C4-   C11
     7      6      4     21      9   180.00  15.16700   2 ;     C7-    C6-    C4-    H4
     7      9      2     19      9   180.00  15.16700   2 ;     C7-    C9-    C2-    H2
     8      1      2      9      9   180.00  15.16700   2 ;     C8-    C1-    C2-    C9
     8      1      2     19      9   180.00  15.16700   2 ;     C8-    C1-    C2-    H2
     8      5      7      9      9   180.00  15.16700   2 ;     C8-    C5-    C7-    C9
     9      7      5     22      9   180.00  15.16700   2 ;     C9-    C7-    C5-    H5
    10     12     11     16      9   180.00  15.16700   2 ;    C10-   C12-   C11-   CL4
    11     12     10     15      9   180.00  15.16700   2 ;    C11-   C12-   C10-   CL3
    12     10      3     20      9   180.00  15.16700   2 ;    C12-   C10-    C3-    H3
    12     11      4     21      9   180.00  15.16700   2 ;    C12-   C11-    C4-    H4
    13      8      5     22      9   180.00  15.16700   2 ;    CL1-    C8-    C5-    H5
    14      9      2     19      9   180.00  15.16700   2 ;    CL2-    C9-    C2-    H2
    15     10      3     20      9   180.00  15.16700   2 ;    CL3-   C10-    C3-    H3
    15     10     12     17      9   180.00  15.16700   2 ;    CL3-   C10-   C12-   CL5
    16     11      4     21      9   180.00  15.16700   2 ;    CL4-   C11-    C4-    H4
    16     11     12     17      9   180.00  15.16700   2 ;    CL4-   C11-   C12-   CL5
    18      1      2      9      9   180.00  15.16700   2 ;     H1-    C1-    C2-    C9
    18      1      2     19      9   180.00  15.16700   2 ;     H1-    C1-    C2-    H2
    18      1      8      5      9   180.00  15.16700   2 ;     H1-    C1-    C8-    C5
    18      1      8     13      9   180.00  15.16700   2 ;     H1-    C1-    C8-   CL1

[ dihedrals ] ; impropers
; treated as propers in GROMACS to use correct AMBER analytical function
;    i      j      k      l   func   phase     kd      pn
     1      5      8     13      4   180.00   4.60240   2 ;     C1-    C5-    C8-   CL1
     1      9      2     19      4   180.00   4.60240   2 ;     C1-    C9-    C2-    H2
     2     14      9      7      4   180.00   4.60240   2 ;     C2-   CL2-    C9-    C7
     3      4      6      7      4   180.00   4.60240   2 ;     C3-    C4-    C6-    C7
     3     12     10     15      4   180.00   4.60240   2 ;     C3-   C12-   C10-   CL3
     4     12     11     16      4   180.00   4.60240   2 ;     C4-   C12-   C11-   CL4
     5      9      7      6      4   180.00   4.60240   2 ;     C5-    C9-    C7-    C6
     8      7      5     22      4   180.00   4.60240   2 ;     C8-    C7-    C5-    H5
    10      6      3     20      4   180.00   4.60240   2 ;    C10-    C6-    C3-    H3
    10     11     12     17      4   180.00   4.60240   2 ;    C10-   C11-   C12-   CL5
    11      6      4     21      4   180.00   4.60240   2 ;    C11-    C6-    C4-    H4
    18      1      8      2      4   180.00   4.60240   2 ;     H1-    C1-    C8-    C2
