; mobley_8337722_GMX.itp created by acpype (v: 2023.10.27) on Thu May 14 13:46:07 2026

[ atomtypes ]
;name   bond_type     mass     charge   ptype   sigma         epsilon       Amb
 c6       c6          0.00000  0.00000   A     3.39771e-01   4.51035e-01 ; 1.91  0.1078
 c3       c3          0.00000  0.00000   A     3.39771e-01   4.51035e-01 ; 1.91  0.1078
 oh       oh          0.00000  0.00000   A     3.24287e-01   3.89112e-01 ; 1.82  0.0930
 hc       hc          0.00000  0.00000   A     2.60018e-01   8.70272e-02 ; 1.46  0.0208
 h1       h1          0.00000  0.00000   A     2.42200e-01   8.70272e-02 ; 1.36  0.0208
 ho       ho          0.00000  0.00000   A     5.37925e-02   1.96648e-02 ; 0.30  0.0047

[ moleculetype ]
;name            nrexcl
 mobley_8337722   3

[ atoms ]
;   nr  type  resi  res  atom  cgnr     charge      mass       ; qtot   bond_type
     1   c6     1   MOL    C1    1    -0.076400     12.01000 ; qtot -0.076
     2   c6     1   MOL    C2    2    -0.076400     12.01000 ; qtot -0.153
     3   c6     1   MOL    C3    3    -0.109400     12.01000 ; qtot -0.262
     4   c6     1   MOL    C4    4    -0.061700     12.01000 ; qtot -0.324
     5   c6     1   MOL    C5    5    -0.051700     12.01000 ; qtot -0.376
     6   c6     1   MOL    C6    6     0.143100     12.01000 ; qtot -0.232
     7   c3     1   MOL    C7    7    -0.090100     12.01000 ; qtot -0.323
     8   c3     1   MOL    C8    8    -0.088600     12.01000 ; qtot -0.411
     9   c3     1   MOL    C9    9    -0.088600     12.01000 ; qtot -0.500
    10   c3     1   MOL   C10   10    -0.066700     12.01000 ; qtot -0.566
    11   oh     1   MOL    O1   11    -0.602797     16.00000 ; qtot -1.169
    12   hc     1   MOL    H1   12     0.041700      1.00800 ; qtot -1.128
    13   hc     1   MOL    H2   13     0.041700      1.00800 ; qtot -1.086
    14   hc     1   MOL    H3   14     0.044200      1.00800 ; qtot -1.042
    15   hc     1   MOL    H4   15     0.044200      1.00800 ; qtot -0.997
    16   hc     1   MOL    H5   16     0.046200      1.00800 ; qtot -0.951
    17   hc     1   MOL    H6   17     0.046200      1.00800 ; qtot -0.905
    18   hc     1   MOL    H7   18     0.046700      1.00800 ; qtot -0.858
    19   hc     1   MOL    H8   19     0.060700      1.00800 ; qtot -0.798
    20   h1     1   MOL    H9   20     0.033700      1.00800 ; qtot -0.764
    21   hc     1   MOL   H10   21     0.035033      1.00800 ; qtot -0.729
    22   hc     1   MOL   H11   22     0.035033      1.00800 ; qtot -0.694
    23   hc     1   MOL   H12   23     0.035033      1.00800 ; qtot -0.659
    24   hc     1   MOL   H13   24     0.032033      1.00800 ; qtot -0.627
    25   hc     1   MOL   H14   25     0.032033      1.00800 ; qtot -0.595
    26   hc     1   MOL   H15   26     0.032033      1.00800 ; qtot -0.563
    27   hc     1   MOL   H16   27     0.032033      1.00800 ; qtot -0.531
    28   hc     1   MOL   H17   28     0.032033      1.00800 ; qtot -0.499
    29   hc     1   MOL   H18   29     0.032033      1.00800 ; qtot -0.467
    30   hc     1   MOL   H19   30     0.069700      1.00800 ; qtot -0.397
    31   ho     1   MOL   H20   31     0.397000      1.00800 ; qtot 0.000

[ bonds ]
;   ai     aj funct   r             k
     1      2   1    1.5384e-01    1.8979e+05 ;     C1 - C2    
     1      4   1    1.5384e-01    1.8979e+05 ;     C1 - C4    
     1     12   1    1.0979e-01    2.8681e+05 ;     C1 - H1    
     1     13   1    1.0979e-01    2.8681e+05 ;     C1 - H2    
     2      5   1    1.5384e-01    1.8979e+05 ;     C2 - C5    
     2     14   1    1.0979e-01    2.8681e+05 ;     C2 - H3    
     2     15   1    1.0979e-01    2.8681e+05 ;     C2 - H4    
     3      4   1    1.5384e-01    1.8979e+05 ;     C3 - C4    
     3      6   1    1.5384e-01    1.8979e+05 ;     C3 - C6    
     3     16   1    1.0979e-01    2.8681e+05 ;     C3 - H5    
     3     17   1    1.0979e-01    2.8681e+05 ;     C3 - H6    
     4      7   1    1.5428e-01    1.8728e+05 ;     C4 - C7    
     4     18   1    1.0979e-01    2.8681e+05 ;     C4 - H7    
     5      6   1    1.5384e-01    1.8979e+05 ;     C5 - C6    
     5     10   1    1.5428e-01    1.8728e+05 ;     C5 - C10   
     5     19   1    1.0979e-01    2.8681e+05 ;     C5 - H8    
     6     11   1    1.4241e-01    2.3870e+05 ;     C6 - O1    
     6     20   1    1.0984e-01    2.8620e+05 ;     C6 - H9    
     7     21   1    1.0962e-01    2.8891e+05 ;     C7 - H10   
     7     22   1    1.0962e-01    2.8891e+05 ;     C7 - H11   
     7     23   1    1.0962e-01    2.8891e+05 ;     C7 - H12   
     8     10   1    1.5354e-01    1.9154e+05 ;     C8 - C10   
     8     24   1    1.0962e-01    2.8891e+05 ;     C8 - H13   
     8     25   1    1.0962e-01    2.8891e+05 ;     C8 - H14   
     8     26   1    1.0962e-01    2.8891e+05 ;     C8 - H15   
     9     10   1    1.5354e-01    1.9154e+05 ;     C9 - C10   
     9     27   1    1.0962e-01    2.8891e+05 ;     C9 - H16   
     9     28   1    1.0962e-01    2.8891e+05 ;     C9 - H17   
     9     29   1    1.0962e-01    2.8891e+05 ;     C9 - H18   
    10     30   1    1.0962e-01    2.8891e+05 ;    C10 - H19   
    11     31   1    9.7250e-02    4.4811e+05 ;     O1 - H20   

[ pairs ]
;   ai     aj    funct
     1      6      1 ;     C1 - C6    
     1     10      1 ;     C1 - C10   
     1     16      1 ;     C1 - H5    
     1     17      1 ;     C1 - H6    
     1     19      1 ;     C1 - H8    
     1     21      1 ;     C1 - H10   
     1     22      1 ;     C1 - H11   
     1     23      1 ;     C1 - H12   
     2      3      1 ;     C2 - C3    
     2      7      1 ;     C2 - C7    
     2      8      1 ;     C2 - C8    
     2      9      1 ;     C2 - C9    
     2     11      1 ;     C2 - O1    
     2     18      1 ;     C2 - H7    
     2     20      1 ;     C2 - H9    
     2     30      1 ;     C2 - H19   
     3     10      1 ;     C3 - C10   
     3     19      1 ;     C3 - H8    
     3     21      1 ;     C3 - H10   
     3     22      1 ;     C3 - H11   
     3     23      1 ;     C3 - H12   
     3     31      1 ;     C3 - H20   
     4      5      1 ;     C4 - C5    
     4     11      1 ;     C4 - O1    
     4     14      1 ;     C4 - H3    
     4     15      1 ;     C4 - H4    
     4     20      1 ;     C4 - H9    
     5     16      1 ;     C5 - H5    
     5     17      1 ;     C5 - H6    
     5     24      1 ;     C5 - H13   
     5     25      1 ;     C5 - H14   
     5     26      1 ;     C5 - H15   
     5     27      1 ;     C5 - H16   
     5     28      1 ;     C5 - H17   
     5     29      1 ;     C5 - H18   
     5     31      1 ;     C5 - H20   
     6      7      1 ;     C6 - C7    
     6      8      1 ;     C6 - C8    
     6      9      1 ;     C6 - C9    
     6     14      1 ;     C6 - H3    
     6     15      1 ;     C6 - H4    
     6     18      1 ;     C6 - H7    
     6     30      1 ;     C6 - H19   
     7     16      1 ;     C7 - H5    
     7     17      1 ;     C7 - H6    
     8     19      1 ;     C8 - H8    
     8     27      1 ;     C8 - H16   
     8     28      1 ;     C8 - H17   
     8     29      1 ;     C8 - H18   
     9     19      1 ;     C9 - H8    
     9     24      1 ;     C9 - H13   
     9     25      1 ;     C9 - H14   
     9     26      1 ;     C9 - H15   
    10     11      1 ;    C10 - O1    
    10     14      1 ;    C10 - H3    
    10     15      1 ;    C10 - H4    
    10     20      1 ;    C10 - H9    
    11     16      1 ;     O1 - H5    
    11     17      1 ;     O1 - H6    
    11     19      1 ;     O1 - H8    
    12      3      1 ;     H1 - C3    
    12      5      1 ;     H1 - C5    
    12      7      1 ;     H1 - C7    
    12     14      1 ;     H1 - H3    
    12     15      1 ;     H1 - H4    
    12     18      1 ;     H1 - H7    
    13      3      1 ;     H2 - C3    
    13      5      1 ;     H2 - C5    
    13      7      1 ;     H2 - C7    
    13     14      1 ;     H2 - H3    
    13     15      1 ;     H2 - H4    
    13     18      1 ;     H2 - H7    
    14     19      1 ;     H3 - H8    
    15     19      1 ;     H4 - H8    
    16     18      1 ;     H5 - H7    
    16     20      1 ;     H5 - H9    
    17     18      1 ;     H6 - H7    
    17     20      1 ;     H6 - H9    
    18     21      1 ;     H7 - H10   
    18     22      1 ;     H7 - H11   
    18     23      1 ;     H7 - H12   
    19     20      1 ;     H8 - H9    
    19     30      1 ;     H8 - H19   
    20     31      1 ;     H9 - H20   
    24     30      1 ;    H13 - H19   
    25     30      1 ;    H14 - H19   
    26     30      1 ;    H15 - H19   
    27     30      1 ;    H16 - H19   
    28     30      1 ;    H17 - H19   
    29     30      1 ;    H18 - H19   

[ angles ]
;   ai     aj     ak    funct   theta         cth
     1      2      5      1    1.1106e+02    5.0359e+02 ;     C1 - C2     - C5    
     1      2     14      1    1.0945e+02    3.6175e+02 ;     C1 - C2     - H3    
     1      2     15      1    1.0945e+02    3.6175e+02 ;     C1 - C2     - H4    
     1      4      3      1    1.1106e+02    5.0359e+02 ;     C1 - C4     - C3    
     1      4      7      1    1.1143e+02    5.0200e+02 ;     C1 - C4     - C7    
     1      4     18      1    1.0945e+02    3.6175e+02 ;     C1 - C4     - H7    
     2      1      4      1    1.1106e+02    5.0359e+02 ;     C2 - C1     - C4    
     2      1     12      1    1.0945e+02    3.6175e+02 ;     C2 - C1     - H1    
     2      1     13      1    1.0945e+02    3.6175e+02 ;     C2 - C1     - H2    
     2      5      6      1    1.1106e+02    5.0359e+02 ;     C2 - C5     - C6    
     2      5     10      1    1.1143e+02    5.0200e+02 ;     C2 - C5     - C10   
     2      5     19      1    1.0945e+02    3.6175e+02 ;     C2 - C5     - H8    
     3      4      7      1    1.1143e+02    5.0200e+02 ;     C3 - C4     - C7    
     3      4     18      1    1.0945e+02    3.6175e+02 ;     C3 - C4     - H7    
     3      6      5      1    1.1106e+02    5.0359e+02 ;     C3 - C6     - C5    
     3      6     11      1    1.1005e+02    6.4065e+02 ;     C3 - C6     - O1    
     3      6     20      1    1.0918e+02    3.6217e+02 ;     C3 - C6     - H9    
     4      1     12      1    1.0945e+02    3.6175e+02 ;     C4 - C1     - H1    
     4      1     13      1    1.0945e+02    3.6175e+02 ;     C4 - C1     - H2    
     4      3      6      1    1.1106e+02    5.0359e+02 ;     C4 - C3     - C6    
     4      3     16      1    1.0945e+02    3.6175e+02 ;     C4 - C3     - H5    
     4      3     17      1    1.0945e+02    3.6175e+02 ;     C4 - C3     - H6    
     4      7     21      1    1.1063e+02    3.5890e+02 ;     C4 - C7     - H10   
     4      7     22      1    1.1063e+02    3.5890e+02 ;     C4 - C7     - H11   
     4      7     23      1    1.1063e+02    3.5890e+02 ;     C4 - C7     - H12   
     5      2     14      1    1.0945e+02    3.6175e+02 ;     C5 - C2     - H3    
     5      2     15      1    1.0945e+02    3.6175e+02 ;     C5 - C2     - H4    
     5      6     11      1    1.1005e+02    6.4065e+02 ;     C5 - C6     - O1    
     5      6     20      1    1.0918e+02    3.6217e+02 ;     C5 - C6     - H9    
     5     10      8      1    1.1393e+02    4.9698e+02 ;     C5 - C10    - C8    
     5     10      9      1    1.1393e+02    4.9698e+02 ;     C5 - C10    - C9    
     5     10     30      1    1.1063e+02    3.5890e+02 ;     C5 - C10    - H19   
     6      3     16      1    1.0945e+02    3.6175e+02 ;     C6 - C3     - H5    
     6      3     17      1    1.0945e+02    3.6175e+02 ;     C6 - C3     - H6    
     6      5     10      1    1.1143e+02    5.0200e+02 ;     C6 - C5     - C10   
     6      5     19      1    1.0945e+02    3.6175e+02 ;     C6 - C5     - H8    
     6     11     31      1    1.0707e+02    5.4584e+02 ;     C6 - O1     - H20   
     7      4     18      1    1.0746e+02    3.6418e+02 ;     C7 - C4     - H7    
     8     10      9      1    1.1263e+02    5.0099e+02 ;     C8 - C10    - C9    
     8     10     30      1    1.0968e+02    3.6208e+02 ;     C8 - C10    - H19   
     9     10     30      1    1.0968e+02    3.6208e+02 ;     C9 - C10    - H19   
    10      5     19      1    1.0746e+02    3.6418e+02 ;    C10 - C5     - H8    
    10      8     24      1    1.0968e+02    3.6208e+02 ;    C10 - C8     - H13   
    10      8     25      1    1.0968e+02    3.6208e+02 ;    C10 - C8     - H14   
    10      8     26      1    1.0968e+02    3.6208e+02 ;    C10 - C8     - H15   
    10      9     27      1    1.0968e+02    3.6208e+02 ;    C10 - C9     - H16   
    10      9     28      1    1.0968e+02    3.6208e+02 ;    C10 - C9     - H17   
    10      9     29      1    1.0968e+02    3.6208e+02 ;    C10 - C9     - H18   
    11      6     20      1    1.0996e+02    4.7187e+02 ;     O1 - C6     - H9    
    12      1     13      1    1.0662e+02    3.0066e+02 ;     H1 - C1     - H2    
    14      2     15      1    1.0662e+02    3.0066e+02 ;     H3 - C2     - H4    
    16      3     17      1    1.0662e+02    3.0066e+02 ;     H5 - C3     - H6    
    21      7     22      1    1.0773e+02    2.9957e+02 ;    H10 - C7     - H11   
    21      7     23      1    1.0773e+02    2.9957e+02 ;    H10 - C7     - H12   
    22      7     23      1    1.0773e+02    2.9957e+02 ;    H11 - C7     - H12   
    24      8     25      1    1.0773e+02    2.9957e+02 ;    H13 - C8     - H14   
    24      8     26      1    1.0773e+02    2.9957e+02 ;    H13 - C8     - H15   
    25      8     26      1    1.0773e+02    2.9957e+02 ;    H14 - C8     - H15   
    27      9     28      1    1.0773e+02    2.9957e+02 ;    H16 - C9     - H17   
    27      9     29      1    1.0773e+02    2.9957e+02 ;    H16 - C9     - H18   
    28      9     29      1    1.0773e+02    2.9957e+02 ;    H17 - C9     - H18   

[ dihedrals ] ; propers
; for gromacs 4.5 or higher, using funct 9
;    i      j      k      l   func   phase     kd      pn
     1      2      5      6      9     0.00   2.17568   3 ;     C1-    C2-    C5-    C6
     1      2      5     10      9     0.00   2.17568   3 ;     C1-    C2-    C5-   C10
     1      2      5     19      9     0.00   0.54392   3 ;     C1-    C2-    C5-    H8
     1      4      3      6      9     0.00   2.17568   3 ;     C1-    C4-    C3-    C6
     1      4      3     16      9     0.00   0.54392   3 ;     C1-    C4-    C3-    H5
     1      4      3     17      9     0.00   0.54392   3 ;     C1-    C4-    C3-    H6
     1      4      7     21      9     0.00   0.54392   3 ;     C1-    C4-    C7-   H10
     1      4      7     22      9     0.00   0.54392   3 ;     C1-    C4-    C7-   H11
     1      4      7     23      9     0.00   0.54392   3 ;     C1-    C4-    C7-   H12
     2      1      4      3      9     0.00   2.17568   3 ;     C2-    C1-    C4-    C3
     2      1      4      7      9     0.00   2.17568   3 ;     C2-    C1-    C4-    C7
     2      1      4     18      9     0.00   0.54392   3 ;     C2-    C1-    C4-    H7
     2      5      6      3      9     0.00   2.17568   3 ;     C2-    C5-    C6-    C3
     2      5      6     11      9     0.00   0.75312   3 ;     C2-    C5-    C6-    O1
     2      5      6     20      9     0.00   0.65084   3 ;     C2-    C5-    C6-    H9
     2      5     10      8      9     0.00   2.17568   3 ;     C2-    C5-   C10-    C8
     2      5     10      9      9     0.00   2.17568   3 ;     C2-    C5-   C10-    C9
     2      5     10     30      9     0.00   0.54392   3 ;     C2-    C5-   C10-   H19
     3      4      7     21      9     0.00   0.54392   3 ;     C3-    C4-    C7-   H10
     3      4      7     22      9     0.00   0.54392   3 ;     C3-    C4-    C7-   H11
     3      4      7     23      9     0.00   0.54392   3 ;     C3-    C4-    C7-   H12
     3      6      5     10      9     0.00   2.17568   3 ;     C3-    C6-    C5-   C10
     3      6      5     19      9     0.00   0.54392   3 ;     C3-    C6-    C5-    H8
     3      6     11     31      9     0.00   0.25104   3 ;     C3-    C6-    O1-   H20
     4      1      2      5      9     0.00   2.17568   3 ;     C4-    C1-    C2-    C5
     4      1      2     14      9     0.00   0.54392   3 ;     C4-    C1-    C2-    H3
     4      1      2     15      9     0.00   0.54392   3 ;     C4-    C1-    C2-    H4
     4      3      6      5      9     0.00   2.17568   3 ;     C4-    C3-    C6-    C5
     4      3      6     11      9     0.00   0.75312   3 ;     C4-    C3-    C6-    O1
     4      3      6     20      9     0.00   0.65084   3 ;     C4-    C3-    C6-    H9
     5      6      3     16      9     0.00   0.54392   3 ;     C5-    C6-    C3-    H5
     5      6      3     17      9     0.00   0.54392   3 ;     C5-    C6-    C3-    H6
     5      6     11     31      9     0.00   0.25104   3 ;     C5-    C6-    O1-   H20
     5     10      8     24      9     0.00   0.54392   3 ;     C5-   C10-    C8-   H13
     5     10      8     25      9     0.00   0.54392   3 ;     C5-   C10-    C8-   H14
     5     10      8     26      9     0.00   0.54392   3 ;     C5-   C10-    C8-   H15
     5     10      9     27      9     0.00   0.54392   3 ;     C5-   C10-    C9-   H16
     5     10      9     28      9     0.00   0.54392   3 ;     C5-   C10-    C9-   H17
     5     10      9     29      9     0.00   0.54392   3 ;     C5-   C10-    C9-   H18
     6      3      4      7      9     0.00   2.17568   3 ;     C6-    C3-    C4-    C7
     6      3      4     18      9     0.00   0.54392   3 ;     C6-    C3-    C4-    H7
     6      5      2     14      9     0.00   0.54392   3 ;     C6-    C5-    C2-    H3
     6      5      2     15      9     0.00   0.54392   3 ;     C6-    C5-    C2-    H4
     6      5     10      8      9     0.00   2.17568   3 ;     C6-    C5-   C10-    C8
     6      5     10      9      9     0.00   2.17568   3 ;     C6-    C5-   C10-    C9
     6      5     10     30      9     0.00   0.54392   3 ;     C6-    C5-   C10-   H19
     7      4      3     16      9     0.00   0.54392   3 ;     C7-    C4-    C3-    H5
     7      4      3     17      9     0.00   0.54392   3 ;     C7-    C4-    C3-    H6
     8     10      5     19      9     0.00   0.54392   3 ;     C8-   C10-    C5-    H8
     8     10      9     27      9     0.00   0.54392   3 ;     C8-   C10-    C9-   H16
     8     10      9     28      9     0.00   0.54392   3 ;     C8-   C10-    C9-   H17
     8     10      9     29      9     0.00   0.54392   3 ;     C8-   C10-    C9-   H18
     9     10      5     19      9     0.00   0.54392   3 ;     C9-   C10-    C5-    H8
     9     10      8     24      9     0.00   0.54392   3 ;     C9-   C10-    C8-   H13
     9     10      8     25      9     0.00   0.54392   3 ;     C9-   C10-    C8-   H14
     9     10      8     26      9     0.00   0.54392   3 ;     C9-   C10-    C8-   H15
    10      5      2     14      9     0.00   0.54392   3 ;    C10-    C5-    C2-    H3
    10      5      2     15      9     0.00   0.54392   3 ;    C10-    C5-    C2-    H4
    10      5      6     11      9     0.00   0.75312   3 ;    C10-    C5-    C6-    O1
    10      5      6     20      9     0.00   0.65084   3 ;    C10-    C5-    C6-    H9
    11      6      3     16      9     0.00   0.37656   3 ;     O1-    C6-    C3-    H5
    11      6      3     17      9     0.00   0.37656   3 ;     O1-    C6-    C3-    H6
    11      6      5     19      9     0.00   0.37656   3 ;     O1-    C6-    C5-    H8
    12      1      2      5      9     0.00   0.54392   3 ;     H1-    C1-    C2-    C5
    12      1      2     14      9     0.00   0.50208   3 ;     H1-    C1-    C2-    H3
    12      1      2     15      9     0.00   0.50208   3 ;     H1-    C1-    C2-    H4
    12      1      4      3      9     0.00   0.54392   3 ;     H1-    C1-    C4-    C3
    12      1      4      7      9     0.00   0.54392   3 ;     H1-    C1-    C4-    C7
    12      1      4     18      9     0.00   0.50208   3 ;     H1-    C1-    C4-    H7
    13      1      2      5      9     0.00   0.54392   3 ;     H2-    C1-    C2-    C5
    13      1      2     14      9     0.00   0.50208   3 ;     H2-    C1-    C2-    H3
    13      1      2     15      9     0.00   0.50208   3 ;     H2-    C1-    C2-    H4
    13      1      4      3      9     0.00   0.54392   3 ;     H2-    C1-    C4-    C3
    13      1      4      7      9     0.00   0.54392   3 ;     H2-    C1-    C4-    C7
    13      1      4     18      9     0.00   0.50208   3 ;     H2-    C1-    C4-    H7
    14      2      5     19      9     0.00   0.50208   3 ;     H3-    C2-    C5-    H8
    15      2      5     19      9     0.00   0.50208   3 ;     H4-    C2-    C5-    H8
    16      3      4     18      9     0.00   0.50208   3 ;     H5-    C3-    C4-    H7
    16      3      6     20      9     0.00   0.65084   3 ;     H5-    C3-    C6-    H9
    17      3      4     18      9     0.00   0.50208   3 ;     H6-    C3-    C4-    H7
    17      3      6     20      9     0.00   0.65084   3 ;     H6-    C3-    C6-    H9
    18      4      7     21      9     0.00   0.50208   3 ;     H7-    C4-    C7-   H10
    18      4      7     22      9     0.00   0.50208   3 ;     H7-    C4-    C7-   H11
    18      4      7     23      9     0.00   0.50208   3 ;     H7-    C4-    C7-   H12
    19      5      6     20      9     0.00   0.65084   3 ;     H8-    C5-    C6-    H9
    19      5     10     30      9     0.00   0.50208   3 ;     H8-    C5-   C10-   H19
    20      6     11     31      9     0.00   0.51463   3 ;     H9-    C6-    O1-   H20
    24      8     10     30      9     0.00   0.50208   3 ;    H13-    C8-   C10-   H19
    25      8     10     30      9     0.00   0.50208   3 ;    H14-    C8-   C10-   H19
    26      8     10     30      9     0.00   0.50208   3 ;    H15-    C8-   C10-   H19
    27      9     10     30      9     0.00   0.50208   3 ;    H16-    C9-   C10-   H19
    28      9     10     30      9     0.00   0.50208   3 ;    H17-    C9-   C10-   H19
    29      9     10     30      9     0.00   0.50208   3 ;    H18-    C9-   C10-   H19
