; mobley_8057732_GMX.itp created by acpype (v: 2023.10.27) on Thu May 14 13:31:38 2026

[ atomtypes ]
;name   bond_type     mass     charge   ptype   sigma         epsilon       Amb
 ca       ca          0.00000  0.00000   A     3.31521e-01   4.13379e-01 ; 1.86  0.0988
 oh       oh          0.00000  0.00000   A     3.24287e-01   3.89112e-01 ; 1.82  0.0930
 cl       cl          0.00000  0.00000   A     3.46595e-01   1.10374e+00 ; 1.95  0.2638
 ha       ha          0.00000  0.00000   A     2.62548e-01   6.73624e-02 ; 1.47  0.0161
 ho       ho          0.00000  0.00000   A     5.37925e-02   1.96648e-02 ; 0.30  0.0047

[ moleculetype ]
;name            nrexcl
 mobley_8057732   3

[ atoms ]
;   nr  type  resi  res  atom  cgnr     charge      mass       ; qtot   bond_type
     1   ca     1   MOL    C1    1    -0.089000     12.01000 ; qtot -0.089
     2   ca     1   MOL    C2    2    -0.156000     12.01000 ; qtot -0.245
     3   ca     1   MOL    C3    3    -0.160000     12.01000 ; qtot -0.405
     4   ca     1   MOL    C4    4    -0.212000     12.01000 ; qtot -0.617
     5   ca     1   MOL    C5    5     0.134100     12.01000 ; qtot -0.483
     6   ca     1   MOL    C6    6     0.055400     12.01000 ; qtot -0.427
     7   oh     1   MOL    O1    7    -0.493100     16.00000 ; qtot -0.921
     8   cl     1   MOL   CL1    8    -0.092400     35.45000 ; qtot -1.013
     9   ha     1   MOL    H1    9     0.140000      1.00800 ; qtot -0.873
    10   ha     1   MOL    H2   10     0.154000      1.00800 ; qtot -0.719
    11   ha     1   MOL    H3   11     0.149000      1.00800 ; qtot -0.570
    12   ha     1   MOL    H4   12     0.148000      1.00800 ; qtot -0.422
    13   ho     1   MOL    H5   13     0.422000      1.00800 ; qtot 0.000

[ bonds ]
;   ai     aj funct   r             k
     1      2   1    1.3986e-01    2.9644e+05 ;     C1 - C2    
     1      3   1    1.3986e-01    2.9644e+05 ;     C1 - C3    
     1      9   1    1.0860e-01    3.0183e+05 ;     C1 - H1    
     2      5   1    1.3986e-01    2.9644e+05 ;     C2 - C5    
     2     10   1    1.0860e-01    3.0183e+05 ;     C2 - H2    
     3      6   1    1.3986e-01    2.9644e+05 ;     C3 - C6    
     3     11   1    1.0860e-01    3.0183e+05 ;     C3 - H3    
     4      5   1    1.3986e-01    2.9644e+05 ;     C4 - C5    
     4      6   1    1.3986e-01    2.9644e+05 ;     C4 - C6    
     4     12   1    1.0860e-01    3.0183e+05 ;     C4 - H4    
     5      7   1    1.3644e-01    2.9167e+05 ;     C5 - O1    
     6      8   1    1.7572e-01    1.5730e+05 ;     C6 - CL1   
     7     13   1    9.7250e-02    4.4811e+05 ;     O1 - H5    

[ pairs ]
;   ai     aj    funct
     1      4      1 ;     C1 - C4    
     1      7      1 ;     C1 - O1    
     1      8      1 ;     C1 - CL1   
     2      6      1 ;     C2 - C6    
     2     11      1 ;     C2 - H3    
     2     12      1 ;     C2 - H4    
     2     13      1 ;     C2 - H5    
     3      5      1 ;     C3 - C5    
     3     10      1 ;     C3 - H2    
     3     12      1 ;     C3 - H4    
     4     10      1 ;     C4 - H2    
     4     11      1 ;     C4 - H3    
     4     13      1 ;     C4 - H5    
     5      8      1 ;     C5 - CL1   
     6      7      1 ;     C6 - O1    
     7     10      1 ;     O1 - H2    
     7     12      1 ;     O1 - H4    
     8     11      1 ;    CL1 - H3    
     8     12      1 ;    CL1 - H4    
     9      5      1 ;     H1 - C5    
     9      6      1 ;     H1 - C6    
     9     10      1 ;     H1 - H2    
     9     11      1 ;     H1 - H3    

[ angles ]
;   ai     aj     ak    funct   theta         cth
     1      2      5      1    1.2002e+02    5.3279e+02 ;     C1 - C2     - C5    
     1      2     10      1    1.1988e+02    3.7572e+02 ;     C1 - C2     - H2    
     1      3      6      1    1.2002e+02    5.3279e+02 ;     C1 - C3     - C6    
     1      3     11      1    1.1988e+02    3.7572e+02 ;     C1 - C3     - H3    
     2      1      3      1    1.2002e+02    5.3279e+02 ;     C2 - C1     - C3    
     2      1      9      1    1.1988e+02    3.7572e+02 ;     C2 - C1     - H1    
     2      5      4      1    1.2002e+02    5.3279e+02 ;     C2 - C5     - C4    
     2      5      7      1    1.1990e+02    6.5990e+02 ;     C2 - C5     - O1    
     3      1      9      1    1.1988e+02    3.7572e+02 ;     C3 - C1     - H1    
     3      6      4      1    1.2002e+02    5.3279e+02 ;     C3 - C6     - C4    
     3      6      8      1    1.1938e+02    5.3605e+02 ;     C3 - C6     - CL1   
     4      5      7      1    1.1990e+02    6.5990e+02 ;     C4 - C5     - O1    
     4      6      8      1    1.1938e+02    5.3605e+02 ;     C4 - C6     - CL1   
     5      2     10      1    1.1988e+02    3.7572e+02 ;     C5 - C2     - H2    
     5      4      6      1    1.2002e+02    5.3279e+02 ;     C5 - C4     - C6    
     5      4     12      1    1.1988e+02    3.7572e+02 ;     C5 - C4     - H4    
     5      7     13      1    1.0858e+02    5.6409e+02 ;     C5 - O1     - H5    
     6      3     11      1    1.1988e+02    3.7572e+02 ;     C6 - C3     - H3    
     6      4     12      1    1.1988e+02    3.7572e+02 ;     C6 - C4     - H4    

[ dihedrals ] ; propers
; for gromacs 4.5 or higher, using funct 9
;    i      j      k      l   func   phase     kd      pn
     1      2      5      4      9   180.00  15.16700   2 ;     C1-    C2-    C5-    C4
     1      2      5      7      9   180.00  15.16700   2 ;     C1-    C2-    C5-    O1
     1      3      6      4      9   180.00  15.16700   2 ;     C1-    C3-    C6-    C4
     1      3      6      8      9   180.00  15.16700   2 ;     C1-    C3-    C6-   CL1
     2      1      3      6      9   180.00  15.16700   2 ;     C2-    C1-    C3-    C6
     2      1      3     11      9   180.00  15.16700   2 ;     C2-    C1-    C3-    H3
     2      5      4      6      9   180.00  15.16700   2 ;     C2-    C5-    C4-    C6
     2      5      4     12      9   180.00  15.16700   2 ;     C2-    C5-    C4-    H4
     2      5      7     13      9   180.00   3.57732   2 ;     C2-    C5-    O1-    H5
     3      1      2      5      9   180.00  15.16700   2 ;     C3-    C1-    C2-    C5
     3      1      2     10      9   180.00  15.16700   2 ;     C3-    C1-    C2-    H2
     3      6      4      5      9   180.00  15.16700   2 ;     C3-    C6-    C4-    C5
     3      6      4     12      9   180.00  15.16700   2 ;     C3-    C6-    C4-    H4
     4      5      2     10      9   180.00  15.16700   2 ;     C4-    C5-    C2-    H2
     4      5      7     13      9   180.00   3.57732   2 ;     C4-    C5-    O1-    H5
     4      6      3     11      9   180.00  15.16700   2 ;     C4-    C6-    C3-    H3
     5      4      6      8      9   180.00  15.16700   2 ;     C5-    C4-    C6-   CL1
     6      4      5      7      9   180.00  15.16700   2 ;     C6-    C4-    C5-    O1
     7      5      2     10      9   180.00  15.16700   2 ;     O1-    C5-    C2-    H2
     7      5      4     12      9   180.00  15.16700   2 ;     O1-    C5-    C4-    H4
     8      6      3     11      9   180.00  15.16700   2 ;    CL1-    C6-    C3-    H3
     8      6      4     12      9   180.00  15.16700   2 ;    CL1-    C6-    C4-    H4
     9      1      2      5      9   180.00  15.16700   2 ;     H1-    C1-    C2-    C5
     9      1      2     10      9   180.00  15.16700   2 ;     H1-    C1-    C2-    H2
     9      1      3      6      9   180.00  15.16700   2 ;     H1-    C1-    C3-    C6
     9      1      3     11      9   180.00  15.16700   2 ;     H1-    C1-    C3-    H3

[ dihedrals ] ; impropers
; treated as propers in GROMACS to use correct AMBER analytical function
;    i      j      k      l   func   phase     kd      pn
     1      5      2     10      4   180.00   4.60240   2 ;     C1-    C5-    C2-    H2
     1      6      3     11      4   180.00   4.60240   2 ;     C1-    C6-    C3-    H3
     2      4      5      7      4   180.00   4.60240   2 ;     C2-    C4-    C5-    O1
     3      4      6      8      4   180.00   4.60240   2 ;     C3-    C4-    C6-   CL1
     5      6      4     12      4   180.00   4.60240   2 ;     C5-    C6-    C4-    H4
     9      1      3      2      4   180.00   4.60240   2 ;     H1-    C1-    C3-    C2
