; mobley_6359135_GMX.itp created by acpype (v: 2023.10.27) on Thu May 14 13:18:43 2026

[ atomtypes ]
;name   bond_type     mass     charge   ptype   sigma         epsilon       Amb
 c3       c3          0.00000  0.00000   A     3.39771e-01   4.51035e-01 ; 1.91  0.1078
 cl       cl          0.00000  0.00000   A     3.46595e-01   1.10374e+00 ; 1.95  0.2638

[ moleculetype ]
;name            nrexcl
 mobley_6359135   3

[ atoms ]
;   nr  type  resi  res  atom  cgnr     charge      mass       ; qtot   bond_type
     1   c3     1   MOL    C1    1     0.325600     12.01000 ; qtot 0.326
     2   cl     1   MOL   CL1    2    -0.081400     35.45000 ; qtot 0.244
     3   cl     1   MOL   CL2    3    -0.081400     35.45000 ; qtot 0.163
     4   cl     1   MOL   CL3    4    -0.081400     35.45000 ; qtot 0.081
     5   cl     1   MOL   CL4    5    -0.081400     35.45000 ; qtot 0.000

[ bonds ]
;   ai     aj funct   r             k
     1      2   1    1.8092e-01    1.3724e+05 ;     C1 - CL1   
     1      3   1    1.8092e-01    1.3724e+05 ;     C1 - CL2   
     1      4   1    1.8092e-01    1.3724e+05 ;     C1 - CL3   
     1      5   1    1.8092e-01    1.3724e+05 ;     C1 - CL4   

[ angles ]
;   ai     aj     ak    funct   theta         cth
     2      1      3      1    1.0934e+02    5.8225e+02 ;    CL1 - C1     - CL2   
     2      1      4      1    1.0934e+02    5.8225e+02 ;    CL1 - C1     - CL3   
     2      1      5      1    1.0934e+02    5.8225e+02 ;    CL1 - C1     - CL4   
     3      1      4      1    1.0934e+02    5.8225e+02 ;    CL2 - C1     - CL3   
     3      1      5      1    1.0934e+02    5.8225e+02 ;    CL2 - C1     - CL4   
     4      1      5      1    1.0934e+02    5.8225e+02 ;    CL3 - C1     - CL4   
