; mobley_3006808_GMX.itp created by acpype (v: 2023.10.27) on Thu May 14 13:29:10 2026

[ atomtypes ]
;name   bond_type     mass     charge   ptype   sigma         epsilon       Amb
 c3       c3          0.00000  0.00000   A     3.39771e-01   4.51035e-01 ; 1.91  0.1078
 oh       oh          0.00000  0.00000   A     3.24287e-01   3.89112e-01 ; 1.82  0.0930
 f        f           0.00000  0.00000   A     3.03422e-01   3.48109e-01 ; 1.70  0.0832
 h1       h1          0.00000  0.00000   A     2.42200e-01   8.70272e-02 ; 1.36  0.0208
 ho       ho          0.00000  0.00000   A     5.37925e-02   1.96648e-02 ; 0.30  0.0047

[ moleculetype ]
;name            nrexcl
 mobley_3006808   3

[ atoms ]
;   nr  type  resi  res  atom  cgnr     charge      mass       ; qtot   bond_type
     1   c3     1   MOL    C1    1     0.103400     12.01000 ; qtot 0.103
     2   c3     1   MOL    C2    2     0.579901     12.01000 ; qtot 0.683
     3   oh     1   MOL    O1    3    -0.565800     16.00000 ; qtot 0.118
     4    f     1   MOL    F1    4    -0.236967     19.00000 ; qtot -0.119
     5    f     1   MOL    F2    5    -0.236967     19.00000 ; qtot -0.356
     6    f     1   MOL    F3    6    -0.236967     19.00000 ; qtot -0.593
     7   h1     1   MOL    H1    7     0.087200      1.00800 ; qtot -0.506
     8   h1     1   MOL    H2    8     0.087200      1.00800 ; qtot -0.419
     9   ho     1   MOL    H3    9     0.419000      1.00800 ; qtot 0.000

[ bonds ]
;   ai     aj funct   r             k
     1      2   1    1.5354e-01    1.9154e+05 ;     C1 - C2    
     1      3   1    1.4242e-01    2.3861e+05 ;     C1 - O1    
     1      7   1    1.0969e-01    2.8804e+05 ;     C1 - H1    
     1      8   1    1.0969e-01    2.8804e+05 ;     C1 - H2    
     2      4   1    1.3512e-01    2.7973e+05 ;     C2 - F1    
     2      5   1    1.3512e-01    2.7973e+05 ;     C2 - F2    
     2      6   1    1.3512e-01    2.7973e+05 ;     C2 - F3    
     3      9   1    9.7250e-02    4.4811e+05 ;     O1 - H3    

[ pairs ]
;   ai     aj    funct
     2      9      1 ;     C2 - H3    
     3      4      1 ;     O1 - F1    
     3      5      1 ;     O1 - F2    
     3      6      1 ;     O1 - F3    
     7      4      1 ;     H1 - F1    
     7      5      1 ;     H1 - F2    
     7      6      1 ;     H1 - F3    
     7      9      1 ;     H1 - H3    
     8      4      1 ;     H2 - F1    
     8      5      1 ;     H2 - F2    
     8      6      1 ;     H2 - F3    
     8      9      1 ;     H2 - H3    

[ angles ]
;   ai     aj     ak    funct   theta         cth
     1      2      4      1    1.0948e+02    6.6408e+02 ;     C1 - C2     - F1    
     1      2      5      1    1.0948e+02    6.6408e+02 ;     C1 - C2     - F2    
     1      2      6      1    1.0948e+02    6.6408e+02 ;     C1 - C2     - F3    
     1      3      9      1    1.0739e+02    5.4501e+02 ;     C1 - O1     - H3    
     2      1      3      1    1.0966e+02    6.4258e+02 ;     C2 - C1     - O1    
     2      1      7      1    1.0959e+02    3.6217e+02 ;     C2 - C1     - H1    
     2      1      8      1    1.0959e+02    3.6217e+02 ;     C2 - C1     - H2    
     3      1      7      1    1.1038e+02    4.7103e+02 ;     O1 - C1     - H1    
     3      1      8      1    1.1038e+02    4.7103e+02 ;     O1 - C1     - H2    
     4      2      5      1    1.0737e+02    8.9437e+02 ;     F1 - C2     - F2    
     4      2      6      1    1.0737e+02    8.9437e+02 ;     F1 - C2     - F3    
     5      2      6      1    1.0737e+02    8.9437e+02 ;     F2 - C2     - F3    
     7      1      8      1    1.0855e+02    2.9824e+02 ;     H1 - C1     - H2    

[ dihedrals ] ; propers
; for gromacs 4.5 or higher, using funct 9
;    i      j      k      l   func   phase     kd      pn
     2      1      3      9      9     0.00   0.25104   3 ;     C2-    C1-    O1-    H3
     3      1      2      4      9     0.00   0.65084   3 ;     O1-    C1-    C2-    F1
     3      1      2      5      9     0.00   0.65084   3 ;     O1-    C1-    C2-    F2
     3      1      2      6      9     0.00   0.65084   3 ;     O1-    C1-    C2-    F3
     7      1      2      4      9     0.00   0.00000   0 ;     H1-    C1-    C2-    F1
     7      1      2      4      9     0.00   0.79496   1 ;     H1-    C1-    C2-    F1
     7      1      2      5      9     0.00   0.00000   0 ;     H1-    C1-    C2-    F2
     7      1      2      5      9     0.00   0.79496   1 ;     H1-    C1-    C2-    F2
     7      1      2      6      9     0.00   0.00000   0 ;     H1-    C1-    C2-    F3
     7      1      2      6      9     0.00   0.79496   1 ;     H1-    C1-    C2-    F3
     7      1      3      9      9     0.00   0.51463   3 ;     H1-    C1-    O1-    H3
     8      1      2      4      9     0.00   0.00000   0 ;     H2-    C1-    C2-    F1
     8      1      2      4      9     0.00   0.79496   1 ;     H2-    C1-    C2-    F1
     8      1      2      5      9     0.00   0.00000   0 ;     H2-    C1-    C2-    F2
     8      1      2      5      9     0.00   0.79496   1 ;     H2-    C1-    C2-    F2
     8      1      2      6      9     0.00   0.00000   0 ;     H2-    C1-    C2-    F3
     8      1      2      6      9     0.00   0.79496   1 ;     H2-    C1-    C2-    F3
     8      1      3      9      9     0.00   0.51463   3 ;     H2-    C1-    O1-    H3
