; mobley_8916409_GMX.itp created by acpype (v: 2023.10.27) on Thu May 14 13:58:28 2026

[ atomtypes ]
;name   bond_type     mass     charge   ptype   sigma         epsilon       Amb
 c        c           0.00000  0.00000   A     3.31521e-01   4.13379e-01 ; 1.86  0.0988
 c3       c3          0.00000  0.00000   A     3.39771e-01   4.51035e-01 ; 1.91  0.1078
 o        o           0.00000  0.00000   A     3.04812e-01   6.12119e-01 ; 1.71  0.1463
 os       os          0.00000  0.00000   A     3.15610e-01   3.03758e-01 ; 1.77  0.0726
 p5       p5          0.00000  0.00000   A     3.69402e-01   9.60228e-01 ; 2.07  0.2295
 s        s           0.00000  0.00000   A     3.53241e-01   1.18156e+00 ; 1.98  0.2824
 ss       ss          0.00000  0.00000   A     3.53241e-01   1.18156e+00 ; 1.98  0.2824
 hc       hc          0.00000  0.00000   A     2.60018e-01   8.70272e-02 ; 1.46  0.0208
 h1       h1          0.00000  0.00000   A     2.42200e-01   8.70272e-02 ; 1.36  0.0208

[ moleculetype ]
;name            nrexcl
 mobley_8916409   3

[ atoms ]
;   nr  type  resi  res  atom  cgnr     charge      mass       ; qtot   bond_type
     1    c     1   MOL    C1    1     0.633100     12.01000 ; qtot 0.633
     2    c     1   MOL    C2    2     0.642100     12.01000 ; qtot 1.275
     3   c3     1   MOL    C3    3    -0.104100     12.01000 ; qtot 1.171
     4   c3     1   MOL    C4    4    -0.103100     12.01000 ; qtot 1.068
     5   c3     1   MOL    C5    5     0.108700     12.01000 ; qtot 1.177
     6   c3     1   MOL    C6    6     0.108700     12.01000 ; qtot 1.285
     7   c3     1   MOL    C7    7    -0.126400     12.01000 ; qtot 1.159
     8   c3     1   MOL    C8    8     0.142400     12.01000 ; qtot 1.301
     9   c3     1   MOL    C9    9     0.137400     12.01000 ; qtot 1.439
    10   c3     1   MOL   C10   10     0.125400     12.01000 ; qtot 1.564
    11    o     1   MOL    O1   11    -0.531000     16.00000 ; qtot 1.033
    12    o     1   MOL    O2   12    -0.517000     16.00000 ; qtot 0.516
    13   os     1   MOL    O3   13    -0.444900     16.00000 ; qtot 0.071
    14   os     1   MOL    O4   14    -0.449900     16.00000 ; qtot -0.379
    15   os     1   MOL    O5   15    -0.454700     16.00000 ; qtot -0.833
    16   os     1   MOL    O6   16    -0.454700     16.00000 ; qtot -1.288
    17   p5     1   MOL    P1   17     0.883202     30.97000 ; qtot -0.405
    18    s     1   MOL    S1   18    -0.511000     32.06000 ; qtot -0.916
    19   ss     1   MOL    S2   19    -0.456500     32.06000 ; qtot -1.372
    20   hc     1   MOL    H1   20     0.051700      1.00800 ; qtot -1.321
    21   hc     1   MOL    H2   21     0.051700      1.00800 ; qtot -1.269
    22   hc     1   MOL    H3   22     0.051700      1.00800 ; qtot -1.217
    23   hc     1   MOL    H4   23     0.049700      1.00800 ; qtot -1.167
    24   hc     1   MOL    H5   24     0.049700      1.00800 ; qtot -1.118
    25   hc     1   MOL    H6   25     0.049700      1.00800 ; qtot -1.068
    26   h1     1   MOL    H7   26     0.077033      1.00800 ; qtot -0.991
    27   h1     1   MOL    H8   27     0.077033      1.00800 ; qtot -0.914
    28   h1     1   MOL    H9   28     0.077033      1.00800 ; qtot -0.837
    29   h1     1   MOL   H10   29     0.077033      1.00800 ; qtot -0.760
    30   h1     1   MOL   H11   30     0.077033      1.00800 ; qtot -0.683
    31   h1     1   MOL   H12   31     0.077033      1.00800 ; qtot -0.606
    32   hc     1   MOL   H13   32     0.117700      1.00800 ; qtot -0.488
    33   hc     1   MOL   H14   33     0.117700      1.00800 ; qtot -0.370
    34   h1     1   MOL   H15   34     0.052700      1.00800 ; qtot -0.318
    35   h1     1   MOL   H16   35     0.052700      1.00800 ; qtot -0.265
    36   h1     1   MOL   H17   36     0.058700      1.00800 ; qtot -0.206
    37   h1     1   MOL   H18   37     0.058700      1.00800 ; qtot -0.148
    38   h1     1   MOL   H19   38     0.147700      1.00800 ; qtot 0.000

[ bonds ]
;   ai     aj funct   r             k
     1      7   1    1.5270e-01    1.9652e+05 ;     C1 - C7    
     1     11   1    1.2190e-01    4.9421e+05 ;     C1 - O1    
     1     13   1    1.3621e-01    2.9398e+05 ;     C1 - O3    
     2     10   1    1.5270e-01    1.9652e+05 ;     C2 - C10   
     2     12   1    1.2190e-01    4.9421e+05 ;     C2 - O2    
     2     14   1    1.3621e-01    2.9398e+05 ;     C2 - O4    
     3      8   1    1.5354e-01    1.9154e+05 ;     C3 - C8    
     3     20   1    1.0962e-01    2.8891e+05 ;     C3 - H1    
     3     21   1    1.0962e-01    2.8891e+05 ;     C3 - H2    
     3     22   1    1.0962e-01    2.8891e+05 ;     C3 - H3    
     4      9   1    1.5354e-01    1.9154e+05 ;     C4 - C9    
     4     23   1    1.0962e-01    2.8891e+05 ;     C4 - H4    
     4     24   1    1.0962e-01    2.8891e+05 ;     C4 - H5    
     4     25   1    1.0962e-01    2.8891e+05 ;     C4 - H6    
     5     15   1    1.4273e-01    2.3620e+05 ;     C5 - O5    
     5     26   1    1.0969e-01    2.8804e+05 ;     C5 - H7    
     5     27   1    1.0969e-01    2.8804e+05 ;     C5 - H8    
     5     28   1    1.0969e-01    2.8804e+05 ;     C5 - H9    
     6     16   1    1.4273e-01    2.3620e+05 ;     C6 - O6    
     6     29   1    1.0969e-01    2.8804e+05 ;     C6 - H10   
     6     30   1    1.0969e-01    2.8804e+05 ;     C6 - H11   
     6     31   1    1.0969e-01    2.8804e+05 ;     C6 - H12   
     7     10   1    1.5354e-01    1.9154e+05 ;     C7 - C10   
     7     32   1    1.0962e-01    2.8891e+05 ;     C7 - H13   
     7     33   1    1.0962e-01    2.8891e+05 ;     C7 - H14   
     8     13   1    1.4273e-01    2.3620e+05 ;     C8 - O3    
     8     34   1    1.0969e-01    2.8804e+05 ;     C8 - H15   
     8     35   1    1.0969e-01    2.8804e+05 ;     C8 - H16   
     9     14   1    1.4273e-01    2.3620e+05 ;     C9 - O4    
     9     36   1    1.0969e-01    2.8804e+05 ;     C9 - H17   
     9     37   1    1.0969e-01    2.8804e+05 ;     C9 - H18   
    10     19   1    1.8407e-01    1.5459e+05 ;    C10 - S2    
    10     38   1    1.0969e-01    2.8804e+05 ;    C10 - H19   
    15     17   1    1.6182e-01    3.2434e+05 ;     O5 - P1    
    16     17   1    1.6182e-01    3.2434e+05 ;     O6 - P1    
    17     18   1    1.9473e-01    2.2085e+05 ;     P1 - S1    
    17     19   1    2.1159e-01    1.4974e+05 ;     P1 - S2    

[ pairs ]
;   ai     aj    funct
     1      2      1 ;     C1 - C2    
     1      3      1 ;     C1 - C3    
     1     19      1 ;     C1 - S2    
     1     34      1 ;     C1 - H15   
     1     35      1 ;     C1 - H16   
     1     38      1 ;     C1 - H19   
     2      4      1 ;     C2 - C4    
     2     17      1 ;     C2 - P1    
     2     32      1 ;     C2 - H13   
     2     33      1 ;     C2 - H14   
     2     36      1 ;     C2 - H17   
     2     37      1 ;     C2 - H18   
     5     16      1 ;     C5 - O6    
     5     18      1 ;     C5 - S1    
     5     19      1 ;     C5 - S2    
     6     15      1 ;     C6 - O5    
     6     18      1 ;     C6 - S1    
     6     19      1 ;     C6 - S2    
     7      8      1 ;     C7 - C8    
     7     12      1 ;     C7 - O2    
     7     14      1 ;     C7 - O4    
     7     17      1 ;     C7 - P1    
     9     10      1 ;     C9 - C10   
     9     12      1 ;     C9 - O2    
    10     15      1 ;    C10 - O5    
    10     16      1 ;    C10 - O6    
    10     18      1 ;    C10 - S1    
    11      8      1 ;     O1 - C8    
    11     10      1 ;     O1 - C10   
    11     32      1 ;     O1 - H13   
    11     33      1 ;     O1 - H14   
    12     19      1 ;     O2 - S2    
    12     38      1 ;     O2 - H19   
    13     10      1 ;     O3 - C10   
    13     20      1 ;     O3 - H1    
    13     21      1 ;     O3 - H2    
    13     22      1 ;     O3 - H3    
    13     32      1 ;     O3 - H13   
    13     33      1 ;     O3 - H14   
    14     19      1 ;     O4 - S2    
    14     23      1 ;     O4 - H4    
    14     24      1 ;     O4 - H5    
    14     25      1 ;     O4 - H6    
    14     38      1 ;     O4 - H19   
    17     26      1 ;     P1 - H7    
    17     27      1 ;     P1 - H8    
    17     28      1 ;     P1 - H9    
    17     29      1 ;     P1 - H10   
    17     30      1 ;     P1 - H11   
    17     31      1 ;     P1 - H12   
    17     38      1 ;     P1 - H19   
    19     32      1 ;     S2 - H13   
    19     33      1 ;     S2 - H14   
    20     34      1 ;     H1 - H15   
    20     35      1 ;     H1 - H16   
    21     34      1 ;     H2 - H15   
    21     35      1 ;     H2 - H16   
    22     34      1 ;     H3 - H15   
    22     35      1 ;     H3 - H16   
    23     36      1 ;     H4 - H17   
    23     37      1 ;     H4 - H18   
    24     36      1 ;     H5 - H17   
    24     37      1 ;     H5 - H18   
    25     36      1 ;     H6 - H17   
    25     37      1 ;     H6 - H18   
    32     38      1 ;    H13 - H19   
    33     38      1 ;    H14 - H19   

[ angles ]
;   ai     aj     ak    funct   theta         cth
     1      7     10      1    1.1143e+02    5.0509e+02 ;     C1 - C7     - C10   
     1      7     32      1    1.0895e+02    3.6510e+02 ;     C1 - C7     - H13   
     1      7     33      1    1.0895e+02    3.6510e+02 ;     C1 - C7     - H14   
     1     13      8      1    1.1582e+02    7.4835e+02 ;     C1 - O3     - C8    
     2     10      7      1    1.1143e+02    5.0509e+02 ;     C2 - C10    - C7    
     2     10     19      1    1.0982e+02    5.2819e+02 ;     C2 - C10    - S2    
     2     10     38      1    1.0837e+02    3.6602e+02 ;     C2 - C10    - H19   
     2     14      9      1    1.1582e+02    7.4835e+02 ;     C2 - O4     - C9    
     3      8     13      1    1.0762e+02    6.4802e+02 ;     C3 - C8     - O3    
     3      8     34      1    1.0959e+02    3.6217e+02 ;     C3 - C8     - H15   
     3      8     35      1    1.0959e+02    3.6217e+02 ;     C3 - C8     - H16   
     4      9     14      1    1.0762e+02    6.4802e+02 ;     C4 - C9     - O4    
     4      9     36      1    1.0959e+02    3.6217e+02 ;     C4 - C9     - H17   
     4      9     37      1    1.0959e+02    3.6217e+02 ;     C4 - C9     - H18   
     5     15     17      1    1.1970e+02    4.7396e+02 ;     C5 - O5     - P1    
     6     16     17      1    1.1970e+02    4.7396e+02 ;     C6 - O6     - P1    
     7      1     11      1    1.2290e+02    6.3973e+02 ;     C7 - C1     - O1    
     7      1     13      1    1.1080e+02    6.5245e+02 ;     C7 - C1     - O3    
     7     10     19      1    1.1018e+02    5.2651e+02 ;     C7 - C10    - S2    
     7     10     38      1    1.0959e+02    3.6217e+02 ;     C7 - C10    - H19   
     8      3     20      1    1.0968e+02    3.6208e+02 ;     C8 - C3     - H1    
     8      3     21      1    1.0968e+02    3.6208e+02 ;     C8 - C3     - H2    
     8      3     22      1    1.0968e+02    3.6208e+02 ;     C8 - C3     - H3    
     9      4     23      1    1.0968e+02    3.6208e+02 ;     C9 - C4     - H4    
     9      4     24      1    1.0968e+02    3.6208e+02 ;     C9 - C4     - H5    
     9      4     25      1    1.0968e+02    3.6208e+02 ;     C9 - C4     - H6    
    10      2     12      1    1.2290e+02    6.3973e+02 ;    C10 - C2     - O2    
    10      2     14      1    1.1080e+02    6.5245e+02 ;    C10 - C2     - O4    
    10      7     32      1    1.0968e+02    3.6208e+02 ;    C10 - C7     - H13   
    10      7     33      1    1.0968e+02    3.6208e+02 ;    C10 - C7     - H14   
    10     19     17      1    9.9760e+01    5.0543e+02 ;    C10 - S2     - P1    
    11      1     13      1    1.2320e+02    8.4734e+02 ;     O1 - C1     - O3    
    12      2     14      1    1.2320e+02    8.4734e+02 ;     O2 - C2     - O4    
    13      8     34      1    1.1034e+02    4.7028e+02 ;     O3 - C8     - H15   
    13      8     35      1    1.1034e+02    4.7028e+02 ;     O3 - C8     - H16   
    14      9     36      1    1.1034e+02    4.7028e+02 ;     O4 - C9     - H17   
    14      9     37      1    1.1034e+02    4.7028e+02 ;     O4 - C9     - H18   
    15      5     26      1    1.1034e+02    4.7028e+02 ;     O5 - C5     - H7    
    15      5     27      1    1.1034e+02    4.7028e+02 ;     O5 - C5     - H8    
    15      5     28      1    1.1034e+02    4.7028e+02 ;     O5 - C5     - H9    
    15     17     16      1    1.0172e+02    8.6123e+02 ;     O5 - P1     - O6    
    15     17     18      1    1.1704e+02    6.8040e+02 ;     O5 - P1     - S1    
    15     17     19      1    1.0238e+02    6.8199e+02 ;     O5 - P1     - S2    
    16      6     29      1    1.1034e+02    4.7028e+02 ;     O6 - C6     - H10   
    16      6     30      1    1.1034e+02    4.7028e+02 ;     O6 - C6     - H11   
    16      6     31      1    1.1034e+02    4.7028e+02 ;     O6 - C6     - H12   
    16     17     18      1    1.1704e+02    6.8040e+02 ;     O6 - P1     - S1    
    16     17     19      1    1.0238e+02    6.8199e+02 ;     O6 - P1     - S2    
    18     17     19      1    1.1546e+02    5.7873e+02 ;     S1 - P1     - S2    
    19     10     38      1    1.0873e+02    3.5196e+02 ;     S2 - C10    - H19   
    20      3     21      1    1.0773e+02    2.9957e+02 ;     H1 - C3     - H2    
    20      3     22      1    1.0773e+02    2.9957e+02 ;     H1 - C3     - H3    
    21      3     22      1    1.0773e+02    2.9957e+02 ;     H2 - C3     - H3    
    23      4     24      1    1.0773e+02    2.9957e+02 ;     H4 - C4     - H5    
    23      4     25      1    1.0773e+02    2.9957e+02 ;     H4 - C4     - H6    
    24      4     25      1    1.0773e+02    2.9957e+02 ;     H5 - C4     - H6    
    26      5     27      1    1.0855e+02    2.9824e+02 ;     H7 - C5     - H8    
    26      5     28      1    1.0855e+02    2.9824e+02 ;     H7 - C5     - H9    
    27      5     28      1    1.0855e+02    2.9824e+02 ;     H8 - C5     - H9    
    29      6     30      1    1.0855e+02    2.9824e+02 ;    H10 - C6     - H11   
    29      6     31      1    1.0855e+02    2.9824e+02 ;    H10 - C6     - H12   
    30      6     31      1    1.0855e+02    2.9824e+02 ;    H11 - C6     - H12   
    32      7     33      1    1.0773e+02    2.9957e+02 ;    H13 - C7     - H14   
    34      8     35      1    1.0855e+02    2.9824e+02 ;    H15 - C8     - H16   
    36      9     37      1    1.0855e+02    2.9824e+02 ;    H17 - C9     - H18   

[ dihedrals ] ; propers
; for gromacs 4.5 or higher, using funct 9
;    i      j      k      l   func   phase     kd      pn
     1      7     10      2      9     0.00   1.54808   2 ;     C1-    C7-   C10-    C2
     1      7     10      2      9     0.00   5.02080   1 ;     C1-    C7-   C10-    C2
     1      7     10      2      9   180.00   0.92978   3 ;     C1-    C7-   C10-    C2
     1      7     10     19      9     0.00   0.65084   3 ;     C1-    C7-   C10-    S2
     1      7     10     38      9     0.00   0.65084   3 ;     C1-    C7-   C10-   H19
     1     13      8      3      9     0.00   1.60247   3 ;     C1-    O3-    C8-    C3
     1     13      8      3      9   180.00   3.34720   1 ;     C1-    O3-    C8-    C3
     1     13      8     34      9     0.00   1.60387   3 ;     C1-    O3-    C8-   H15
     1     13      8     35      9     0.00   1.60387   3 ;     C1-    O3-    C8-   H16
     2     10      7     32      9     0.00   0.65084   3 ;     C2-   C10-    C7-   H13
     2     10      7     33      9     0.00   0.65084   3 ;     C2-   C10-    C7-   H14
     2     10     19     17      9     0.00   1.39467   3 ;     C2-   C10-    S2-    P1
     2     14      9      4      9     0.00   1.60247   3 ;     C2-    O4-    C9-    C4
     2     14      9      4      9   180.00   3.34720   1 ;     C2-    O4-    C9-    C4
     2     14      9     36      9     0.00   1.60387   3 ;     C2-    O4-    C9-   H17
     2     14      9     37      9     0.00   1.60387   3 ;     C2-    O4-    C9-   H18
     5     15     17     16      9     0.00  14.72768   2 ;     C5-    O5-    P1-    O6
     5     15     17     18      9     0.00   3.34720   2 ;     C5-    O5-    P1-    S1
     5     15     17     19      9     0.00   3.34720   2 ;     C5-    O5-    P1-    S2
     6     16     17     15      9     0.00  14.72768   2 ;     C6-    O6-    P1-    O5
     6     16     17     18      9     0.00   3.34720   2 ;     C6-    O6-    P1-    S1
     6     16     17     19      9     0.00   3.34720   2 ;     C6-    O6-    P1-    S2
     7      1     13      8      9     0.00   3.13800   3 ;     C7-    C1-    O3-    C8
     7      1     13      8      9   180.00   7.90776   1 ;     C7-    C1-    O3-    C8
     7      1     13      8      9   180.00  13.76536   2 ;     C7-    C1-    O3-    C8
     7     10      2     12      9     0.00   2.84512   1 ;     C7-   C10-    C2-    O2
     7     10      2     12      9   180.00   0.83680   2 ;     C7-   C10-    C2-    O2
     7     10      2     12      9   180.00   1.84096   3 ;     C7-   C10-    C2-    O2
     7     10      2     14      9   180.00   0.00000   2 ;     C7-   C10-    C2-    O4
     7     10     19     17      9     0.00   1.39467   3 ;     C7-   C10-    S2-    P1
     9     14      2     10      9     0.00   3.13800   3 ;     C9-    O4-    C2-   C10
     9     14      2     10      9   180.00   7.90776   1 ;     C9-    O4-    C2-   C10
     9     14      2     10      9   180.00  13.76536   2 ;     C9-    O4-    C2-   C10
     9     14      2     12      9   180.00   5.85760   1 ;     C9-    O4-    C2-    O2
     9     14      2     12      9   180.00  11.29680   2 ;     C9-    O4-    C2-    O2
    10     19     17     15      9   180.00  16.43057   2 ;    C10-    S2-    P1-    O5
    10     19     17     16      9   180.00  16.43057   2 ;    C10-    S2-    P1-    O6
    10     19     17     18      9   180.00  15.89920   2 ;    C10-    S2-    P1-    S1
    11      1      7     10      9     0.00   2.84512   1 ;     O1-    C1-    C7-   C10
    11      1      7     10      9   180.00   0.83680   2 ;     O1-    C1-    C7-   C10
    11      1      7     10      9   180.00   1.84096   3 ;     O1-    C1-    C7-   C10
    11      1      7     32      9     0.00  16.86152   1 ;     O1-    C1-    C7-   H13
    11      1      7     32      9   180.00  15.31344   2 ;     O1-    C1-    C7-   H13
    11      1      7     33      9     0.00  16.86152   1 ;     O1-    C1-    C7-   H14
    11      1      7     33      9   180.00  15.31344   2 ;     O1-    C1-    C7-   H14
    11      1     13      8      9   180.00   5.85760   1 ;     O1-    C1-    O3-    C8
    11      1     13      8      9   180.00  11.29680   2 ;     O1-    C1-    O3-    C8
    12      2     10     19      9   180.00   0.00000   2 ;     O2-    C2-   C10-    S2
    12      2     10     38      9     0.00   3.34720   1 ;     O2-    C2-   C10-   H19
    12      2     10     38      9   180.00   0.33472   3 ;     O2-    C2-   C10-   H19
    13      1      7     10      9   180.00   0.00000   2 ;     O3-    C1-    C7-   C10
    13      1      7     32      9   180.00   0.00000   2 ;     O3-    C1-    C7-   H13
    13      1      7     33      9   180.00   0.00000   2 ;     O3-    C1-    C7-   H14
    13      8      3     20      9     0.00   0.00000   0 ;     O3-    C8-    C3-    H1
    13      8      3     20      9     0.00   1.04600   1 ;     O3-    C8-    C3-    H1
    13      8      3     21      9     0.00   0.00000   0 ;     O3-    C8-    C3-    H2
    13      8      3     21      9     0.00   1.04600   1 ;     O3-    C8-    C3-    H2
    13      8      3     22      9     0.00   0.00000   0 ;     O3-    C8-    C3-    H3
    13      8      3     22      9     0.00   1.04600   1 ;     O3-    C8-    C3-    H3
    14      2     10     19      9   180.00   0.00000   2 ;     O4-    C2-   C10-    S2
    14      2     10     38      9   180.00   0.00000   2 ;     O4-    C2-   C10-   H19
    14      9      4     23      9     0.00   0.00000   0 ;     O4-    C9-    C4-    H4
    14      9      4     23      9     0.00   1.04600   1 ;     O4-    C9-    C4-    H4
    14      9      4     24      9     0.00   0.00000   0 ;     O4-    C9-    C4-    H5
    14      9      4     24      9     0.00   1.04600   1 ;     O4-    C9-    C4-    H5
    14      9      4     25      9     0.00   0.00000   0 ;     O4-    C9-    C4-    H6
    14      9      4     25      9     0.00   1.04600   1 ;     O4-    C9-    C4-    H6
    17     15      5     26      9     0.00   0.00000   0 ;     P1-    O5-    C5-    H7
    17     15      5     27      9     0.00   0.00000   0 ;     P1-    O5-    C5-    H8
    17     15      5     28      9     0.00   0.00000   0 ;     P1-    O5-    C5-    H9
    17     16      6     29      9     0.00   0.00000   0 ;     P1-    O6-    C6-   H10
    17     16      6     30      9     0.00   0.00000   0 ;     P1-    O6-    C6-   H11
    17     16      6     31      9     0.00   0.00000   0 ;     P1-    O6-    C6-   H12
    17     19     10     38      9     0.00   1.39467   3 ;     P1-    S2-   C10-   H19
    19     10      7     32      9     0.00   0.65084   3 ;     S2-   C10-    C7-   H13
    19     10      7     33      9     0.00   0.65084   3 ;     S2-   C10-    C7-   H14
    20      3      8     34      9     0.00   0.65084   3 ;     H1-    C3-    C8-   H15
    20      3      8     35      9     0.00   0.65084   3 ;     H1-    C3-    C8-   H16
    21      3      8     34      9     0.00   0.65084   3 ;     H2-    C3-    C8-   H15
    21      3      8     35      9     0.00   0.65084   3 ;     H2-    C3-    C8-   H16
    22      3      8     34      9     0.00   0.65084   3 ;     H3-    C3-    C8-   H15
    22      3      8     35      9     0.00   0.65084   3 ;     H3-    C3-    C8-   H16
    23      4      9     36      9     0.00   0.65084   3 ;     H4-    C4-    C9-   H17
    23      4      9     37      9     0.00   0.65084   3 ;     H4-    C4-    C9-   H18
    24      4      9     36      9     0.00   0.65084   3 ;     H5-    C4-    C9-   H17
    24      4      9     37      9     0.00   0.65084   3 ;     H5-    C4-    C9-   H18
    25      4      9     36      9     0.00   0.65084   3 ;     H6-    C4-    C9-   H17
    25      4      9     37      9     0.00   0.65084   3 ;     H6-    C4-    C9-   H18
    32      7     10     38      9     0.00   0.65084   3 ;    H13-    C7-   C10-   H19
    33      7     10     38      9     0.00   0.65084   3 ;    H14-    C7-   C10-   H19

[ dihedrals ] ; impropers
; treated as propers in GROMACS to use correct AMBER analytical function
;    i      j      k      l   func   phase     kd      pn
    10     12      2     14      4   180.00   4.60240   2 ;    C10-    O2-    C2-    O4
    13      1     11      7      4   180.00   4.60240   2 ;     O3-    C1-    O1-    C7
