; mobley_5857_GMX.itp created by acpype (v: 2023.10.27) on Thu May 14 13:48:29 2026

[ atomtypes ]
;name   bond_type     mass     charge   ptype   sigma         epsilon       Amb
 ca       ca          0.00000  0.00000   A     3.31521e-01   4.13379e-01 ; 1.86  0.0988
 nb       nb          0.00000  0.00000   A     3.38417e-01   3.93714e-01 ; 1.90  0.0941
 ha       ha          0.00000  0.00000   A     2.62548e-01   6.73624e-02 ; 1.47  0.0161
 h4       h4          0.00000  0.00000   A     2.53639e-01   6.73624e-02 ; 1.42  0.0161

[ moleculetype ]
;name            nrexcl
 mobley_5857      3

[ atoms ]
;   nr  type  resi  res  atom  cgnr     charge      mass       ; qtot   bond_type
     1   ca     1   MOL    C1    1    -0.127000     12.01000 ; qtot -0.127
     2   ca     1   MOL    C2    2    -0.124000     12.01000 ; qtot -0.251
     3   ca     1   MOL    C3    3    -0.250300     12.01000 ; qtot -0.501
     4   ca     1   MOL    C4    4    -0.112000     12.01000 ; qtot -0.613
     5   ca     1   MOL    C5    5    -0.080000     12.01000 ; qtot -0.693
     6   ca     1   MOL    C6    6    -0.164300     12.01000 ; qtot -0.858
     7   ca     1   MOL    C7    7     0.411200     12.01000 ; qtot -0.446
     8   ca     1   MOL    C8    8    -0.148300     12.01000 ; qtot -0.595
     9   ca     1   MOL    C9    9     0.393600     12.01000 ; qtot -0.201
    10   nb     1   MOL    N1   10    -0.657000     14.01000 ; qtot -0.858
    11   ha     1   MOL    H1   11     0.135000      1.00800 ; qtot -0.723
    12   ha     1   MOL    H2   12     0.135000      1.00800 ; qtot -0.588
    13   ha     1   MOL    H3   13     0.144000      1.00800 ; qtot -0.444
    14   ha     1   MOL    H4   14     0.134000      1.00800 ; qtot -0.310
    15   ha     1   MOL    H5   15     0.138000      1.00800 ; qtot -0.172
    16   ha     1   MOL    H6   16     0.150000      1.00800 ; qtot -0.022
    17   h4     1   MOL    H7   17     0.022100      1.00800 ; qtot 0.000

[ bonds ]
;   ai     aj funct   r             k
     1      2   1    1.3986e-01    2.9644e+05 ;     C1 - C2    
     1      4   1    1.3986e-01    2.9644e+05 ;     C1 - C4    
     1     11   1    1.0860e-01    3.0183e+05 ;     C1 - H1    
     2      6   1    1.3986e-01    2.9644e+05 ;     C2 - C6    
     2     12   1    1.0860e-01    3.0183e+05 ;     C2 - H2    
     3      5   1    1.3986e-01    2.9644e+05 ;     C3 - C5    
     3      7   1    1.3986e-01    2.9644e+05 ;     C3 - C7    
     3     13   1    1.0860e-01    3.0183e+05 ;     C3 - H3    
     4      8   1    1.3986e-01    2.9644e+05 ;     C4 - C8    
     4     14   1    1.0860e-01    3.0183e+05 ;     C4 - H4    
     5      8   1    1.3986e-01    2.9644e+05 ;     C5 - C8    
     5     15   1    1.0860e-01    3.0183e+05 ;     C5 - H5    
     6      9   1    1.3986e-01    2.9644e+05 ;     C6 - C9    
     6     16   1    1.0860e-01    3.0183e+05 ;     C6 - H6    
     7     10   1    1.3392e-01    3.2341e+05 ;     C7 - N1    
     7     17   1    1.0885e-01    2.9859e+05 ;     C7 - H7    
     8      9   1    1.3986e-01    2.9644e+05 ;     C8 - C9    
     9     10   1    1.3392e-01    3.2341e+05 ;     C9 - N1    

[ pairs ]
;   ai     aj    funct
     1      5      1 ;     C1 - C5    
     1      9      1 ;     C1 - C9    
     1     16      1 ;     C1 - H6    
     2      8      1 ;     C2 - C8    
     2     10      1 ;     C2 - N1    
     2     14      1 ;     C2 - H4    
     3      4      1 ;     C3 - C4    
     3      9      1 ;     C3 - C9    
     4      6      1 ;     C4 - C6    
     4     10      1 ;     C4 - N1    
     4     12      1 ;     C4 - H2    
     4     15      1 ;     C4 - H5    
     5      6      1 ;     C5 - C6    
     5     10      1 ;     C5 - N1    
     5     14      1 ;     C5 - H4    
     5     17      1 ;     C5 - H7    
     6      7      1 ;     C6 - C7    
     7      8      1 ;     C7 - C8    
     7     15      1 ;     C7 - H5    
     8     13      1 ;     C8 - H3    
     8     16      1 ;     C8 - H6    
     9     12      1 ;     C9 - H2    
     9     14      1 ;     C9 - H4    
     9     15      1 ;     C9 - H5    
     9     17      1 ;     C9 - H7    
    10     13      1 ;     N1 - H3    
    10     16      1 ;     N1 - H6    
    11      6      1 ;     H1 - C6    
    11      8      1 ;     H1 - C8    
    11     12      1 ;     H1 - H2    
    11     14      1 ;     H1 - H4    
    12     16      1 ;     H2 - H6    
    13     15      1 ;     H3 - H5    
    13     17      1 ;     H3 - H7    

[ angles ]
;   ai     aj     ak    funct   theta         cth
     1      2      6      1    1.2002e+02    5.3279e+02 ;     C1 - C2     - C6    
     1      2     12      1    1.1988e+02    3.7572e+02 ;     C1 - C2     - H2    
     1      4      8      1    1.2002e+02    5.3279e+02 ;     C1 - C4     - C8    
     1      4     14      1    1.1988e+02    3.7572e+02 ;     C1 - C4     - H4    
     2      1      4      1    1.2002e+02    5.3279e+02 ;     C2 - C1     - C4    
     2      1     11      1    1.1988e+02    3.7572e+02 ;     C2 - C1     - H1    
     2      6      9      1    1.2002e+02    5.3279e+02 ;     C2 - C6     - C9    
     2      6     16      1    1.1988e+02    3.7572e+02 ;     C2 - C6     - H6    
     3      5      8      1    1.2002e+02    5.3279e+02 ;     C3 - C5     - C8    
     3      5     15      1    1.1988e+02    3.7572e+02 ;     C3 - C5     - H5    
     3      7     10      1    1.2294e+02    5.7045e+02 ;     C3 - C7     - N1    
     3      7     17      1    1.2032e+02    3.7489e+02 ;     C3 - C7     - H7    
     4      1     11      1    1.1988e+02    3.7572e+02 ;     C4 - C1     - H1    
     4      8      5      1    1.2002e+02    5.3279e+02 ;     C4 - C8     - C5    
     4      8      9      1    1.2002e+02    5.3279e+02 ;     C4 - C8     - C9    
     5      3      7      1    1.2002e+02    5.3279e+02 ;     C5 - C3     - C7    
     5      3     13      1    1.1988e+02    3.7572e+02 ;     C5 - C3     - H3    
     5      8      9      1    1.2002e+02    5.3279e+02 ;     C5 - C8     - C9    
     6      2     12      1    1.1988e+02    3.7572e+02 ;     C6 - C2     - H2    
     6      9      8      1    1.2002e+02    5.3279e+02 ;     C6 - C9     - C8    
     6      9     10      1    1.2294e+02    5.7045e+02 ;     C6 - C9     - N1    
     7      3     13      1    1.1988e+02    3.7572e+02 ;     C7 - C3     - H3    
     7     10      9      1    1.1724e+02    6.9580e+02 ;     C7 - N1     - C9    
     8      4     14      1    1.1988e+02    3.7572e+02 ;     C8 - C4     - H4    
     8      5     15      1    1.1988e+02    3.7572e+02 ;     C8 - C5     - H5    
     8      9     10      1    1.2294e+02    5.7045e+02 ;     C8 - C9     - N1    
     9      6     16      1    1.1988e+02    3.7572e+02 ;     C9 - C6     - H6    
    10      7     17      1    1.1602e+02    4.1924e+02 ;     N1 - C7     - H7    

[ dihedrals ] ; propers
; for gromacs 4.5 or higher, using funct 9
;    i      j      k      l   func   phase     kd      pn
     1      2      6      9      9   180.00  15.16700   2 ;     C1-    C2-    C6-    C9
     1      2      6     16      9   180.00  15.16700   2 ;     C1-    C2-    C6-    H6
     1      4      8      5      9   180.00  15.16700   2 ;     C1-    C4-    C8-    C5
     1      4      8      9      9   180.00  15.16700   2 ;     C1-    C4-    C8-    C9
     2      1      4      8      9   180.00  15.16700   2 ;     C2-    C1-    C4-    C8
     2      1      4     14      9   180.00  15.16700   2 ;     C2-    C1-    C4-    H4
     2      6      9      8      9   180.00  15.16700   2 ;     C2-    C6-    C9-    C8
     2      6      9     10      9   180.00  15.16700   2 ;     C2-    C6-    C9-    N1
     3      5      8      4      9   180.00  15.16700   2 ;     C3-    C5-    C8-    C4
     3      5      8      9      9   180.00  15.16700   2 ;     C3-    C5-    C8-    C9
     3      7     10      9      9   180.00  20.08320   2 ;     C3-    C7-    N1-    C9
     4      1      2      6      9   180.00  15.16700   2 ;     C4-    C1-    C2-    C6
     4      1      2     12      9   180.00  15.16700   2 ;     C4-    C1-    C2-    H2
     4      8      5     15      9   180.00  15.16700   2 ;     C4-    C8-    C5-    H5
     4      8      9      6      9   180.00  15.16700   2 ;     C4-    C8-    C9-    C6
     4      8      9     10      9   180.00  15.16700   2 ;     C4-    C8-    C9-    N1
     5      3      7     10      9   180.00  15.16700   2 ;     C5-    C3-    C7-    N1
     5      3      7     17      9   180.00  15.16700   2 ;     C5-    C3-    C7-    H7
     5      8      4     14      9   180.00  15.16700   2 ;     C5-    C8-    C4-    H4
     5      8      9      6      9   180.00  15.16700   2 ;     C5-    C8-    C9-    C6
     5      8      9     10      9   180.00  15.16700   2 ;     C5-    C8-    C9-    N1
     6      9     10      7      9   180.00  20.08320   2 ;     C6-    C9-    N1-    C7
     7      3      5      8      9   180.00  15.16700   2 ;     C7-    C3-    C5-    C8
     7      3      5     15      9   180.00  15.16700   2 ;     C7-    C3-    C5-    H5
     7     10      9      8      9   180.00  20.08320   2 ;     C7-    N1-    C9-    C8
     8      5      3     13      9   180.00  15.16700   2 ;     C8-    C5-    C3-    H3
     8      9      6     16      9   180.00  15.16700   2 ;     C8-    C9-    C6-    H6
     9      6      2     12      9   180.00  15.16700   2 ;     C9-    C6-    C2-    H2
     9      8      4     14      9   180.00  15.16700   2 ;     C9-    C8-    C4-    H4
     9      8      5     15      9   180.00  15.16700   2 ;     C9-    C8-    C5-    H5
     9     10      7     17      9   180.00  20.08320   2 ;     C9-    N1-    C7-    H7
    10      7      3     13      9   180.00  15.16700   2 ;     N1-    C7-    C3-    H3
    10      9      6     16      9   180.00  15.16700   2 ;     N1-    C9-    C6-    H6
    11      1      2      6      9   180.00  15.16700   2 ;     H1-    C1-    C2-    C6
    11      1      2     12      9   180.00  15.16700   2 ;     H1-    C1-    C2-    H2
    11      1      4      8      9   180.00  15.16700   2 ;     H1-    C1-    C4-    C8
    11      1      4     14      9   180.00  15.16700   2 ;     H1-    C1-    C4-    H4
    12      2      6     16      9   180.00  15.16700   2 ;     H2-    C2-    C6-    H6
    13      3      5     15      9   180.00  15.16700   2 ;     H3-    C3-    C5-    H5
    13      3      7     17      9   180.00  15.16700   2 ;     H3-    C3-    C7-    H7

[ dihedrals ] ; impropers
; treated as propers in GROMACS to use correct AMBER analytical function
;    i      j      k      l   func   phase     kd      pn
     1      6      2     12      4   180.00   4.60240   2 ;     C1-    C6-    C2-    H2
     1      8      4     14      4   180.00   4.60240   2 ;     C1-    C8-    C4-    H4
     2      9      6     16      4   180.00   4.60240   2 ;     C2-    C9-    C6-    H6
     3      8      5     15      4   180.00   4.60240   2 ;     C3-    C8-    C5-    H5
     3     17      7     10      4   180.00   4.60240   2 ;     C3-    H7-    C7-    N1
     4      5      8      9      4   180.00   4.60240   2 ;     C4-    C5-    C8-    C9
     5      7      3     13      4   180.00   4.60240   2 ;     C5-    C7-    C3-    H3
     6      8      9     10      4   180.00   4.60240   2 ;     C6-    C8-    C9-    N1
    11      1      4      2      4   180.00   4.60240   2 ;     H1-    C1-    C4-    C2
