; mobley_7261305_GMX.itp created by acpype (v: 2023.10.27) on Thu May 14 13:54:34 2026

[ atomtypes ]
;name   bond_type     mass     charge   ptype   sigma         epsilon       Amb
 n8       n8          0.00000  0.00000   A     3.65019e-01   1.35143e-01 ; 2.05  0.0323
 hn       hn          0.00000  0.00000   A     1.10650e-01   4.18400e-02 ; 0.62  0.0100

[ moleculetype ]
;name            nrexcl
 mobley_7261305   3

[ atoms ]
;   nr  type  resi  res  atom  cgnr     charge      mass       ; qtot   bond_type
     1   n8     1   MOL    N1    1    -0.689600     14.01000 ; qtot -0.690
     2   n8     1   MOL    N2    2    -0.689600     14.01000 ; qtot -1.379
     3   hn     1   MOL    H1    3     0.344800      1.00800 ; qtot -1.034
     4   hn     1   MOL    H2    4     0.344800      1.00800 ; qtot -0.690
     5   hn     1   MOL    H3    5     0.344800      1.00800 ; qtot -0.345
     6   hn     1   MOL    H4    6     0.344800      1.00800 ; qtot 0.000

[ bonds ]
;   ai     aj funct   r             k
     1      2   1    1.4887e-01    1.5754e+05 ;     N1 - N2    
     1      3   1    1.0192e-01    3.8550e+05 ;     N1 - H1    
     1      4   1    1.0192e-01    3.8550e+05 ;     N1 - H2    
     2      5   1    1.0192e-01    3.8550e+05 ;     N2 - H3    
     2      6   1    1.0192e-01    3.8550e+05 ;     N2 - H4    

[ pairs ]
;   ai     aj    funct
     3      5      1 ;     H1 - H3    
     3      6      1 ;     H1 - H4    
     4      5      1 ;     H2 - H3    
     4      6      1 ;     H2 - H4    

[ angles ]
;   ai     aj     ak    funct   theta         cth
     1      2      5      1    1.0313e+02    5.0668e+02 ;     N1 - N2     - H3    
     1      2      6      1    1.0313e+02    5.0668e+02 ;     N1 - N2     - H4    
     2      1      3      1    1.0313e+02    5.0668e+02 ;     N2 - N1     - H1    
     2      1      4      1    1.0313e+02    5.0668e+02 ;     N2 - N1     - H2    
     3      1      4      1    1.0638e+02    4.0074e+02 ;     H1 - N1     - H2    
     5      2      6      1    1.0638e+02    4.0074e+02 ;     H3 - N2     - H4    

[ dihedrals ] ; propers
; for gromacs 4.5 or higher, using funct 9
;    i      j      k      l   func   phase     kd      pn
     3      1      2      5      9     0.00   9.41400   2 ;     H1-    N1-    N2-    H3
     3      1      2      6      9     0.00   9.41400   2 ;     H1-    N1-    N2-    H4
     4      1      2      5      9     0.00   9.41400   2 ;     H2-    N1-    N2-    H3
     4      1      2      6      9     0.00   9.41400   2 ;     H2-    N1-    N2-    H4
