; mobley_3746675_GMX.itp created by acpype (v: 2023.10.27) on Thu May 14 13:19:57 2026

[ atomtypes ]
;name   bond_type     mass     charge   ptype   sigma         epsilon       Amb
 ca       ca          0.00000  0.00000   A     3.31521e-01   4.13379e-01 ; 1.86  0.0988
 c2       c2          0.00000  0.00000   A     3.31521e-01   4.13379e-01 ; 1.86  0.0988
 ce       ce          0.00000  0.00000   A     3.31521e-01   4.13379e-01 ; 1.86  0.0988
 c3       c3          0.00000  0.00000   A     3.39771e-01   4.51035e-01 ; 1.91  0.1078
 ha       ha          0.00000  0.00000   A     2.62548e-01   6.73624e-02 ; 1.47  0.0161
 hc       hc          0.00000  0.00000   A     2.60018e-01   8.70272e-02 ; 1.46  0.0208

[ moleculetype ]
;name            nrexcl
 mobley_3746675   3

[ atoms ]
;   nr  type  resi  res  atom  cgnr     charge      mass       ; qtot   bond_type
     1   ca     1   MOL    C1    1    -0.129000     12.01000 ; qtot -0.129
     2   ca     1   MOL    C2    2    -0.131000     12.01000 ; qtot -0.260
     3   ca     1   MOL    C3    3    -0.131000     12.01000 ; qtot -0.391
     4   ca     1   MOL    C4    4    -0.120000     12.01000 ; qtot -0.511
     5   ca     1   MOL    C5    5    -0.120000     12.01000 ; qtot -0.631
     6   ca     1   MOL    C6    6    -0.052800     12.01000 ; qtot -0.684
     7   c2     1   MOL    C7    7    -0.217999     12.01000 ; qtot -0.902
     8   ce     1   MOL    C8    8    -0.061400     12.01000 ; qtot -0.963
     9   c3     1   MOL    C9    9    -0.059900     12.01000 ; qtot -1.023
    10   ha     1   MOL    H1   10     0.131000      1.00800 ; qtot -0.892
    11   ha     1   MOL    H2   11     0.131000      1.00800 ; qtot -0.761
    12   ha     1   MOL    H3   12     0.131000      1.00800 ; qtot -0.630
    13   ha     1   MOL    H4   13     0.133500      1.00800 ; qtot -0.497
    14   ha     1   MOL    H5   14     0.133500      1.00800 ; qtot -0.363
    15   ha     1   MOL    H6   15     0.115500      1.00800 ; qtot -0.248
    16   ha     1   MOL    H7   16     0.115500      1.00800 ; qtot -0.132
    17   hc     1   MOL    H8   17     0.044033      1.00800 ; qtot -0.088
    18   hc     1   MOL    H9   18     0.044033      1.00800 ; qtot -0.044
    19   hc     1   MOL   H10   19     0.044033      1.00800 ; qtot 0.000

[ bonds ]
;   ai     aj funct   r             k
     1      2   1    1.3986e-01    2.9644e+05 ;     C1 - C2    
     1      3   1    1.3986e-01    2.9644e+05 ;     C1 - C3    
     1     10   1    1.0860e-01    3.0183e+05 ;     C1 - H1    
     2      4   1    1.3986e-01    2.9644e+05 ;     C2 - C4    
     2     11   1    1.0860e-01    3.0183e+05 ;     C2 - H2    
     3      5   1    1.3986e-01    2.9644e+05 ;     C3 - C5    
     3     12   1    1.0860e-01    3.0183e+05 ;     C3 - H3    
     4      6   1    1.3986e-01    2.9644e+05 ;     C4 - C6    
     4     13   1    1.0860e-01    3.0183e+05 ;     C4 - H4    
     5      6   1    1.3986e-01    2.9644e+05 ;     C5 - C6    
     5     14   1    1.0860e-01    3.0183e+05 ;     C5 - H5    
     6      8   1    1.4800e-01    2.2748e+05 ;     C6 - C8    
     7      8   1    1.3457e-01    3.5505e+05 ;     C7 - C8    
     7     15   1    1.0882e-01    2.9898e+05 ;     C7 - H6    
     7     16   1    1.0882e-01    2.9898e+05 ;     C7 - H7    
     8      9   1    1.5109e-01    2.0651e+05 ;     C8 - C9    
     9     17   1    1.0962e-01    2.8891e+05 ;     C9 - H8    
     9     18   1    1.0962e-01    2.8891e+05 ;     C9 - H9    
     9     19   1    1.0962e-01    2.8891e+05 ;     C9 - H10   

[ pairs ]
;   ai     aj    funct
     1      6      1 ;     C1 - C6    
     1     13      1 ;     C1 - H4    
     1     14      1 ;     C1 - H5    
     2      5      1 ;     C2 - C5    
     2      8      1 ;     C2 - C8    
     2     12      1 ;     C2 - H3    
     3      4      1 ;     C3 - C4    
     3      8      1 ;     C3 - C8    
     3     11      1 ;     C3 - H2    
     4      7      1 ;     C4 - C7    
     4      9      1 ;     C4 - C9    
     4     14      1 ;     C4 - H5    
     5      7      1 ;     C5 - C7    
     5      9      1 ;     C5 - C9    
     5     13      1 ;     C5 - H4    
     6     11      1 ;     C6 - H2    
     6     12      1 ;     C6 - H3    
     6     15      1 ;     C6 - H6    
     6     16      1 ;     C6 - H7    
     6     17      1 ;     C6 - H8    
     6     18      1 ;     C6 - H9    
     6     19      1 ;     C6 - H10   
     7     17      1 ;     C7 - H8    
     7     18      1 ;     C7 - H9    
     7     19      1 ;     C7 - H10   
     8     13      1 ;     C8 - H4    
     8     14      1 ;     C8 - H5    
     9     15      1 ;     C9 - H6    
     9     16      1 ;     C9 - H7    
    10      4      1 ;     H1 - C4    
    10      5      1 ;     H1 - C5    
    10     11      1 ;     H1 - H2    
    10     12      1 ;     H1 - H3    
    11     13      1 ;     H2 - H4    
    12     14      1 ;     H3 - H5    

[ angles ]
;   ai     aj     ak    funct   theta         cth
     1      2      4      1    1.2002e+02    5.3279e+02 ;     C1 - C2     - C4    
     1      2     11      1    1.1988e+02    3.7572e+02 ;     C1 - C2     - H2    
     1      3      5      1    1.2002e+02    5.3279e+02 ;     C1 - C3     - C5    
     1      3     12      1    1.1988e+02    3.7572e+02 ;     C1 - C3     - H3    
     2      1      3      1    1.2002e+02    5.3279e+02 ;     C2 - C1     - C3    
     2      1     10      1    1.1988e+02    3.7572e+02 ;     C2 - C1     - H1    
     2      4      6      1    1.2002e+02    5.3279e+02 ;     C2 - C4     - C6    
     2      4     13      1    1.1988e+02    3.7572e+02 ;     C2 - C4     - H4    
     3      1     10      1    1.1988e+02    3.7572e+02 ;     C3 - C1     - H1    
     3      5      6      1    1.2002e+02    5.3279e+02 ;     C3 - C5     - C6    
     3      5     14      1    1.1988e+02    3.7572e+02 ;     C3 - C5     - H5    
     4      2     11      1    1.1988e+02    3.7572e+02 ;     C4 - C2     - H2    
     4      6      5      1    1.2002e+02    5.3279e+02 ;     C4 - C6     - C5    
     4      6      8      1    1.2079e+02    5.1530e+02 ;     C4 - C6     - C8    
     5      3     12      1    1.1988e+02    3.7572e+02 ;     C5 - C3     - H3    
     5      6      8      1    1.2079e+02    5.1530e+02 ;     C5 - C6     - C8    
     6      4     13      1    1.1988e+02    3.7572e+02 ;     C6 - C4     - H4    
     6      5     14      1    1.1988e+02    3.7572e+02 ;     C6 - C5     - H5    
     6      8      7      1    1.2298e+02    5.1873e+02 ;     C6 - C8     - C7    
     6      8      9      1    1.1910e+02    5.0016e+02 ;     C6 - C8     - C9    
     7      8      9      1    1.2365e+02    5.1062e+02 ;     C7 - C8     - C9    
     8      7     15      1    1.2049e+02    3.8618e+02 ;     C8 - C7     - H6    
     8      7     16      1    1.2049e+02    3.8618e+02 ;     C8 - C7     - H7    
     8      9     17      1    1.1088e+02    3.6535e+02 ;     C8 - C9     - H8    
     8      9     18      1    1.1088e+02    3.6535e+02 ;     C8 - C9     - H9    
     8      9     19      1    1.1088e+02    3.6535e+02 ;     C8 - C9     - H10   
    15      7     16      1    1.1666e+02    2.9003e+02 ;     H6 - C7     - H7    
    17      9     18      1    1.0773e+02    2.9957e+02 ;     H8 - C9     - H9    
    17      9     19      1    1.0773e+02    2.9957e+02 ;     H8 - C9     - H10   
    18      9     19      1    1.0773e+02    2.9957e+02 ;     H9 - C9     - H10   

[ dihedrals ] ; propers
; for gromacs 4.5 or higher, using funct 9
;    i      j      k      l   func   phase     kd      pn
     1      2      4      6      9   180.00  15.16700   2 ;     C1-    C2-    C4-    C6
     1      2      4     13      9   180.00  15.16700   2 ;     C1-    C2-    C4-    H4
     1      3      5      6      9   180.00  15.16700   2 ;     C1-    C3-    C5-    C6
     1      3      5     14      9   180.00  15.16700   2 ;     C1-    C3-    C5-    H5
     2      1      3      5      9   180.00  15.16700   2 ;     C2-    C1-    C3-    C5
     2      1      3     12      9   180.00  15.16700   2 ;     C2-    C1-    C3-    H3
     2      4      6      5      9   180.00  15.16700   2 ;     C2-    C4-    C6-    C5
     2      4      6      8      9   180.00  15.16700   2 ;     C2-    C4-    C6-    C8
     3      1      2      4      9   180.00  15.16700   2 ;     C3-    C1-    C2-    C4
     3      1      2     11      9   180.00  15.16700   2 ;     C3-    C1-    C2-    H2
     3      5      6      4      9   180.00  15.16700   2 ;     C3-    C5-    C6-    C4
     3      5      6      8      9   180.00  15.16700   2 ;     C3-    C5-    C6-    C8
     4      6      5     14      9   180.00  15.16700   2 ;     C4-    C6-    C5-    H5
     4      6      8      7      9   180.00   2.44764   2 ;     C4-    C6-    C8-    C7
     4      6      8      9      9   180.00   2.51040   2 ;     C4-    C6-    C8-    C9
     5      6      4     13      9   180.00  15.16700   2 ;     C5-    C6-    C4-    H4
     5      6      8      7      9   180.00   2.44764   2 ;     C5-    C6-    C8-    C7
     5      6      8      9      9   180.00   2.51040   2 ;     C5-    C6-    C8-    C9
     6      4      2     11      9   180.00  15.16700   2 ;     C6-    C4-    C2-    H2
     6      5      3     12      9   180.00  15.16700   2 ;     C6-    C5-    C3-    H3
     6      8      7     15      9   180.00  27.82360   2 ;     C6-    C8-    C7-    H6
     6      8      7     16      9   180.00  27.82360   2 ;     C6-    C8-    C7-    H7
     6      8      9     17      9   180.00   1.08784   3 ;     C6-    C8-    C9-    H8
     6      8      9     18      9   180.00   1.08784   3 ;     C6-    C8-    C9-    H9
     6      8      9     19      9   180.00   1.08784   3 ;     C6-    C8-    C9-   H10
     7      8      9     17      9   180.00   1.08784   3 ;     C7-    C8-    C9-    H8
     7      8      9     18      9   180.00   1.08784   3 ;     C7-    C8-    C9-    H9
     7      8      9     19      9   180.00   1.08784   3 ;     C7-    C8-    C9-   H10
     8      6      4     13      9   180.00  15.16700   2 ;     C8-    C6-    C4-    H4
     8      6      5     14      9   180.00  15.16700   2 ;     C8-    C6-    C5-    H5
     9      8      7     15      9   180.00  27.82360   2 ;     C9-    C8-    C7-    H6
     9      8      7     16      9   180.00  27.82360   2 ;     C9-    C8-    C7-    H7
    10      1      2      4      9   180.00  15.16700   2 ;     H1-    C1-    C2-    C4
    10      1      2     11      9   180.00  15.16700   2 ;     H1-    C1-    C2-    H2
    10      1      3      5      9   180.00  15.16700   2 ;     H1-    C1-    C3-    C5
    10      1      3     12      9   180.00  15.16700   2 ;     H1-    C1-    C3-    H3
    11      2      4     13      9   180.00  15.16700   2 ;     H2-    C2-    C4-    H4
    12      3      5     14      9   180.00  15.16700   2 ;     H3-    C3-    C5-    H5

[ dihedrals ] ; impropers
; treated as propers in GROMACS to use correct AMBER analytical function
;    i      j      k      l   func   phase     kd      pn
     1      4      2     11      4   180.00   4.60240   2 ;     C1-    C4-    C2-    H2
     1      5      3     12      4   180.00   4.60240   2 ;     C1-    C5-    C3-    H3
     2      6      4     13      4   180.00   4.60240   2 ;     C2-    C6-    C4-    H4
     3      6      5     14      4   180.00   4.60240   2 ;     C3-    C6-    C5-    H5
     4      5      6      8      4   180.00   4.60240   2 ;     C4-    C5-    C6-    C8
     7      9      8      6      4   180.00   4.60240   2 ;     C7-    C9-    C8-    C6
     8     15      7     16      4   180.00   4.60240   2 ;     C8-    H6-    C7-    H7
    10      1      3      2      4   180.00   4.60240   2 ;     H1-    C1-    C3-    C2
