; mobley_819018_GMX.itp created by acpype (v: 2023.10.27) on Thu May 14 13:40:44 2026

[ atomtypes ]
;name   bond_type     mass     charge   ptype   sigma         epsilon       Amb
 c2       c2          0.00000  0.00000   A     3.31521e-01   4.13379e-01 ; 1.86  0.0988
 c3       c3          0.00000  0.00000   A     3.39771e-01   4.51035e-01 ; 1.91  0.1078
 oh       oh          0.00000  0.00000   A     3.24287e-01   3.89112e-01 ; 1.82  0.0930
 ha       ha          0.00000  0.00000   A     2.62548e-01   6.73624e-02 ; 1.47  0.0161
 hc       hc          0.00000  0.00000   A     2.60018e-01   8.70272e-02 ; 1.46  0.0208
 h1       h1          0.00000  0.00000   A     2.42200e-01   8.70272e-02 ; 1.36  0.0208
 ho       ho          0.00000  0.00000   A     5.37925e-02   1.96648e-02 ; 0.30  0.0047

[ moleculetype ]
;name            nrexcl
 mobley_819018    3

[ atoms ]
;   nr  type  resi  res  atom  cgnr     charge      mass       ; qtot   bond_type
     1   c2     1   MOL    C1    1    -0.175200     12.01000 ; qtot -0.175
     2   c2     1   MOL    C2    2    -0.176200     12.01000 ; qtot -0.351
     3   c2     1   MOL    C3    3    -0.126400     12.01000 ; qtot -0.478
     4   c2     1   MOL    C4    4    -0.115400     12.01000 ; qtot -0.593
     5   c3     1   MOL    C5    5    -0.057400     12.01000 ; qtot -0.651
     6   c3     1   MOL    C6    6    -0.057400     12.01000 ; qtot -0.708
     7   c3     1   MOL    C7    7    -0.061900     12.01000 ; qtot -0.770
     8   c3     1   MOL    C8    8    -0.040200     12.01000 ; qtot -0.810
     9   c3     1   MOL    C9    9     0.164600     12.01000 ; qtot -0.645
    10   c3     1   MOL   C10   10    -0.039200     12.01000 ; qtot -0.685
    11   oh     1   MOL    O1   11    -0.598802     16.00000 ; qtot -1.284
    12   ha     1   MOL    H1   12     0.129000      1.00800 ; qtot -1.155
    13   ha     1   MOL    H2   13     0.145000      1.00800 ; qtot -1.010
    14   hc     1   MOL    H3   14     0.039867      1.00800 ; qtot -0.970
    15   hc     1   MOL    H4   15     0.039867      1.00800 ; qtot -0.930
    16   hc     1   MOL    H5   16     0.039867      1.00800 ; qtot -0.890
    17   hc     1   MOL    H6   17     0.039867      1.00800 ; qtot -0.850
    18   hc     1   MOL    H7   18     0.039867      1.00800 ; qtot -0.810
    19   hc     1   MOL    H8   19     0.039867      1.00800 ; qtot -0.770
    20   hc     1   MOL    H9   20     0.041700      1.00800 ; qtot -0.729
    21   hc     1   MOL   H10   21     0.041700      1.00800 ; qtot -0.687
    22   hc     1   MOL   H11   22     0.041700      1.00800 ; qtot -0.645
    23   hc     1   MOL   H12   23     0.047200      1.00800 ; qtot -0.598
    24   hc     1   MOL   H13   24     0.047200      1.00800 ; qtot -0.551
    25   h1     1   MOL   H14   25     0.028200      1.00800 ; qtot -0.523
    26   h1     1   MOL   H15   26     0.028200      1.00800 ; qtot -0.494
    27   hc     1   MOL   H16   27     0.047700      1.00800 ; qtot -0.447
    28   hc     1   MOL   H17   28     0.047700      1.00800 ; qtot -0.399
    29   ho     1   MOL   H18   29     0.399000      1.00800 ; qtot 0.000

[ bonds ]
;   ai     aj funct   r             k
     1      3   1    1.3379e-01    3.6484e+05 ;     C1 - C3    
     1      8   1    1.5088e-01    2.0786e+05 ;     C1 - C8    
     1     12   1    1.0882e-01    2.9898e+05 ;     C1 - H1    
     2      4   1    1.3379e-01    3.6484e+05 ;     C2 - C4    
     2      9   1    1.5088e-01    2.0786e+05 ;     C2 - C9    
     2     13   1    1.0882e-01    2.9898e+05 ;     C2 - H2    
     3      5   1    1.5088e-01    2.0786e+05 ;     C3 - C5    
     3      6   1    1.5088e-01    2.0786e+05 ;     C3 - C6    
     4      7   1    1.5088e-01    2.0786e+05 ;     C4 - C7    
     4     10   1    1.5088e-01    2.0786e+05 ;     C4 - C10   
     5     14   1    1.0962e-01    2.8891e+05 ;     C5 - H3    
     5     15   1    1.0962e-01    2.8891e+05 ;     C5 - H4    
     5     16   1    1.0962e-01    2.8891e+05 ;     C5 - H5    
     6     17   1    1.0962e-01    2.8891e+05 ;     C6 - H6    
     6     18   1    1.0962e-01    2.8891e+05 ;     C6 - H7    
     6     19   1    1.0962e-01    2.8891e+05 ;     C6 - H8    
     7     20   1    1.0962e-01    2.8891e+05 ;     C7 - H9    
     7     21   1    1.0962e-01    2.8891e+05 ;     C7 - H10   
     7     22   1    1.0962e-01    2.8891e+05 ;     C7 - H11   
     8     10   1    1.5354e-01    1.9154e+05 ;     C8 - C10   
     8     23   1    1.0962e-01    2.8891e+05 ;     C8 - H12   
     8     24   1    1.0962e-01    2.8891e+05 ;     C8 - H13   
     9     11   1    1.4242e-01    2.3861e+05 ;     C9 - O1    
     9     25   1    1.0969e-01    2.8804e+05 ;     C9 - H14   
     9     26   1    1.0969e-01    2.8804e+05 ;     C9 - H15   
    10     27   1    1.0962e-01    2.8891e+05 ;    C10 - H16   
    10     28   1    1.0962e-01    2.8891e+05 ;    C10 - H17   
    11     29   1    9.7250e-02    4.4811e+05 ;     O1 - H18   

[ pairs ]
;   ai     aj    funct
     1      4      1 ;     C1 - C4    
     1     14      1 ;     C1 - H3    
     1     15      1 ;     C1 - H4    
     1     16      1 ;     C1 - H5    
     1     17      1 ;     C1 - H6    
     1     18      1 ;     C1 - H7    
     1     19      1 ;     C1 - H8    
     1     27      1 ;     C1 - H16   
     1     28      1 ;     C1 - H17   
     2      8      1 ;     C2 - C8    
     2     20      1 ;     C2 - H9    
     2     21      1 ;     C2 - H10   
     2     22      1 ;     C2 - H11   
     2     27      1 ;     C2 - H16   
     2     28      1 ;     C2 - H17   
     2     29      1 ;     C2 - H18   
     3     10      1 ;     C3 - C10   
     3     23      1 ;     C3 - H12   
     3     24      1 ;     C3 - H13   
     4     11      1 ;     C4 - O1    
     4     23      1 ;     C4 - H12   
     4     24      1 ;     C4 - H13   
     4     25      1 ;     C4 - H14   
     4     26      1 ;     C4 - H15   
     5     17      1 ;     C5 - H6    
     5     18      1 ;     C5 - H7    
     5     19      1 ;     C5 - H8    
     6     14      1 ;     C6 - H3    
     6     15      1 ;     C6 - H4    
     6     16      1 ;     C6 - H5    
     7      8      1 ;     C7 - C8    
     7      9      1 ;     C7 - C9    
     7     13      1 ;     C7 - H2    
     7     27      1 ;     C7 - H16   
     7     28      1 ;     C7 - H17   
     8      5      1 ;     C8 - C5    
     8      6      1 ;     C8 - C6    
     9     10      1 ;     C9 - C10   
    10     13      1 ;    C10 - H2    
    10     20      1 ;    C10 - H9    
    10     21      1 ;    C10 - H10   
    10     22      1 ;    C10 - H11   
    11     13      1 ;     O1 - H2    
    12      5      1 ;     H1 - C5    
    12      6      1 ;     H1 - C6    
    12     10      1 ;     H1 - C10   
    12     23      1 ;     H1 - H12   
    12     24      1 ;     H1 - H13   
    13     25      1 ;     H2 - H14   
    13     26      1 ;     H2 - H15   
    23     27      1 ;    H12 - H16   
    23     28      1 ;    H12 - H17   
    24     27      1 ;    H13 - H16   
    24     28      1 ;    H13 - H17   
    25     29      1 ;    H14 - H18   
    26     29      1 ;    H15 - H18   

[ angles ]
;   ai     aj     ak    funct   theta         cth
     1      3      5      1    1.2495e+02    5.0944e+02 ;     C1 - C3     - C5    
     1      3      6      1    1.2495e+02    5.0944e+02 ;     C1 - C3     - C6    
     1      8     10      1    1.1258e+02    5.0543e+02 ;     C1 - C8     - C10   
     1      8     23      1    1.1065e+02    3.6618e+02 ;     C1 - C8     - H12   
     1      8     24      1    1.1065e+02    3.6618e+02 ;     C1 - C8     - H13   
     2      4      7      1    1.2495e+02    5.0944e+02 ;     C2 - C4     - C7    
     2      4     10      1    1.2495e+02    5.0944e+02 ;     C2 - C4     - C10   
     2      9     11      1    1.1033e+02    6.4718e+02 ;     C2 - C9     - O1    
     2      9     25      1    1.0996e+02    3.6727e+02 ;     C2 - C9     - H14   
     2      9     26      1    1.0996e+02    3.6727e+02 ;     C2 - C9     - H15   
     3      1      8      1    1.2495e+02    5.0944e+02 ;     C3 - C1     - C8    
     3      1     12      1    1.2039e+02    3.8802e+02 ;     C3 - C1     - H1    
     3      5     14      1    1.1065e+02    3.6618e+02 ;     C3 - C5     - H3    
     3      5     15      1    1.1065e+02    3.6618e+02 ;     C3 - C5     - H4    
     3      5     16      1    1.1065e+02    3.6618e+02 ;     C3 - C5     - H5    
     3      6     17      1    1.1065e+02    3.6618e+02 ;     C3 - C6     - H6    
     3      6     18      1    1.1065e+02    3.6618e+02 ;     C3 - C6     - H7    
     3      6     19      1    1.1065e+02    3.6618e+02 ;     C3 - C6     - H8    
     4      2      9      1    1.2495e+02    5.0944e+02 ;     C4 - C2     - C9    
     4      2     13      1    1.2039e+02    3.8802e+02 ;     C4 - C2     - H2    
     4      7     20      1    1.1065e+02    3.6618e+02 ;     C4 - C7     - H9    
     4      7     21      1    1.1065e+02    3.6618e+02 ;     C4 - C7     - H10   
     4      7     22      1    1.1065e+02    3.6618e+02 ;     C4 - C7     - H11   
     4     10      8      1    1.1258e+02    5.0543e+02 ;     C4 - C10    - C8    
     4     10     27      1    1.1065e+02    3.6618e+02 ;     C4 - C10    - H16   
     4     10     28      1    1.1065e+02    3.6618e+02 ;     C4 - C10    - H17   
     5      3      6      1    1.1501e+02    5.0459e+02 ;     C5 - C3     - C6    
     7      4     10      1    1.1501e+02    5.0459e+02 ;     C7 - C4     - C10   
     8      1     12      1    1.1505e+02    3.5941e+02 ;     C8 - C1     - H1    
     8     10     27      1    1.0968e+02    3.6208e+02 ;     C8 - C10    - H16   
     8     10     28      1    1.0968e+02    3.6208e+02 ;     C8 - C10    - H17   
     9      2     13      1    1.1505e+02    3.5941e+02 ;     C9 - C2     - H2    
     9     11     29      1    1.0739e+02    5.4501e+02 ;     C9 - O1     - H18   
    10      8     23      1    1.0968e+02    3.6208e+02 ;    C10 - C8     - H12   
    10      8     24      1    1.0968e+02    3.6208e+02 ;    C10 - C8     - H13   
    11      9     25      1    1.1038e+02    4.7103e+02 ;     O1 - C9     - H14   
    11      9     26      1    1.1038e+02    4.7103e+02 ;     O1 - C9     - H15   
    14      5     15      1    1.0773e+02    2.9957e+02 ;     H3 - C5     - H4    
    14      5     16      1    1.0773e+02    2.9957e+02 ;     H3 - C5     - H5    
    15      5     16      1    1.0773e+02    2.9957e+02 ;     H4 - C5     - H5    
    17      6     18      1    1.0773e+02    2.9957e+02 ;     H6 - C6     - H7    
    17      6     19      1    1.0773e+02    2.9957e+02 ;     H6 - C6     - H8    
    18      6     19      1    1.0773e+02    2.9957e+02 ;     H7 - C6     - H8    
    20      7     21      1    1.0773e+02    2.9957e+02 ;     H9 - C7     - H10   
    20      7     22      1    1.0773e+02    2.9957e+02 ;     H9 - C7     - H11   
    21      7     22      1    1.0773e+02    2.9957e+02 ;    H10 - C7     - H11   
    23      8     24      1    1.0773e+02    2.9957e+02 ;    H12 - C8     - H13   
    25      9     26      1    1.0855e+02    2.9824e+02 ;    H14 - C9     - H15   
    27     10     28      1    1.0773e+02    2.9957e+02 ;    H16 - C10    - H17   

[ dihedrals ] ; propers
; for gromacs 4.5 or higher, using funct 9
;    i      j      k      l   func   phase     kd      pn
     1      3      5     14      9   180.00   1.08784   3 ;     C1-    C3-    C5-    H3
     1      3      5     15      9   180.00   1.08784   3 ;     C1-    C3-    C5-    H4
     1      3      5     16      9   180.00   1.08784   3 ;     C1-    C3-    C5-    H5
     1      3      6     17      9   180.00   1.08784   3 ;     C1-    C3-    C6-    H6
     1      3      6     18      9   180.00   1.08784   3 ;     C1-    C3-    C6-    H7
     1      3      6     19      9   180.00   1.08784   3 ;     C1-    C3-    C6-    H8
     1      8     10      4      9     0.00   0.65084   3 ;     C1-    C8-   C10-    C4
     1      8     10     27      9     0.00   0.65084   3 ;     C1-    C8-   C10-   H16
     1      8     10     28      9     0.00   0.65084   3 ;     C1-    C8-   C10-   H17
     2      4      7     20      9   180.00   1.08784   3 ;     C2-    C4-    C7-    H9
     2      4      7     21      9   180.00   1.08784   3 ;     C2-    C4-    C7-   H10
     2      4      7     22      9   180.00   1.08784   3 ;     C2-    C4-    C7-   H11
     2      4     10      8      9     0.00   0.00000   0 ;     C2-    C4-   C10-    C8
     2      4     10     27      9     0.00   0.00000   0 ;     C2-    C4-   C10-   H16
     2      4     10     27      9   180.00   1.08784   3 ;     C2-    C4-   C10-   H16
     2      4     10     28      9     0.00   0.00000   0 ;     C2-    C4-   C10-   H17
     2      4     10     28      9   180.00   1.08784   3 ;     C2-    C4-   C10-   H17
     2      9     11     29      9     0.00   0.69733   3 ;     C2-    C9-    O1-   H18
     3      1      8     10      9     0.00   0.00000   0 ;     C3-    C1-    C8-   C10
     3      1      8     23      9     0.00   0.00000   0 ;     C3-    C1-    C8-   H12
     3      1      8     23      9   180.00   1.08784   3 ;     C3-    C1-    C8-   H12
     3      1      8     24      9     0.00   0.00000   0 ;     C3-    C1-    C8-   H13
     3      1      8     24      9   180.00   1.08784   3 ;     C3-    C1-    C8-   H13
     4      2      9     11      9     0.00   0.00000   0 ;     C4-    C2-    C9-    O1
     4      2      9     25      9     0.00   0.00000   0 ;     C4-    C2-    C9-   H14
     4      2      9     26      9     0.00   0.00000   0 ;     C4-    C2-    C9-   H15
     4     10      8     23      9     0.00   0.65084   3 ;     C4-   C10-    C8-   H12
     4     10      8     24      9     0.00   0.65084   3 ;     C4-   C10-    C8-   H13
     5      3      6     17      9     0.00   0.62760   3 ;     C5-    C3-    C6-    H6
     5      3      6     18      9     0.00   0.62760   3 ;     C5-    C3-    C6-    H7
     5      3      6     19      9     0.00   0.62760   3 ;     C5-    C3-    C6-    H8
     6      3      5     14      9     0.00   0.62760   3 ;     C6-    C3-    C5-    H3
     6      3      5     15      9     0.00   0.62760   3 ;     C6-    C3-    C5-    H4
     6      3      5     16      9     0.00   0.62760   3 ;     C6-    C3-    C5-    H5
     7      4      2      9      9     0.00   0.62760   1 ;     C7-    C4-    C2-    C9
     7      4      2      9      9   180.00   5.56472   3 ;     C7-    C4-    C2-    C9
     7      4      2      9      9   180.00  24.18352   2 ;     C7-    C4-    C2-    C9
     7      4      2     13      9   180.00  27.82360   2 ;     C7-    C4-    C2-    H2
     7      4     10      8      9     0.00   0.00000   0 ;     C7-    C4-   C10-    C8
     7      4     10     27      9     0.00   0.62760   3 ;     C7-    C4-   C10-   H16
     7      4     10     28      9     0.00   0.62760   3 ;     C7-    C4-   C10-   H17
     8      1      3      5      9     0.00   0.62760   1 ;     C8-    C1-    C3-    C5
     8      1      3      5      9   180.00   5.56472   3 ;     C8-    C1-    C3-    C5
     8      1      3      5      9   180.00  24.18352   2 ;     C8-    C1-    C3-    C5
     8      1      3      6      9     0.00   0.62760   1 ;     C8-    C1-    C3-    C6
     8      1      3      6      9   180.00   5.56472   3 ;     C8-    C1-    C3-    C6
     8      1      3      6      9   180.00  24.18352   2 ;     C8-    C1-    C3-    C6
     9      2      4     10      9     0.00   0.62760   1 ;     C9-    C2-    C4-   C10
     9      2      4     10      9   180.00   5.56472   3 ;     C9-    C2-    C4-   C10
     9      2      4     10      9   180.00  24.18352   2 ;     C9-    C2-    C4-   C10
    10      4      2     13      9   180.00  27.82360   2 ;    C10-    C4-    C2-    H2
    10      4      7     20      9     0.00   0.62760   3 ;    C10-    C4-    C7-    H9
    10      4      7     21      9     0.00   0.62760   3 ;    C10-    C4-    C7-   H10
    10      4      7     22      9     0.00   0.62760   3 ;    C10-    C4-    C7-   H11
    11      9      2     13      9     0.00   0.00000   0 ;     O1-    C9-    C2-    H2
    12      1      3      5      9   180.00  27.82360   2 ;     H1-    C1-    C3-    C5
    12      1      3      6      9   180.00  27.82360   2 ;     H1-    C1-    C3-    C6
    12      1      8     10      9     0.00   0.00000   0 ;     H1-    C1-    C8-   C10
    12      1      8     23      9     0.00   0.00000   0 ;     H1-    C1-    C8-   H12
    12      1      8     24      9     0.00   0.00000   0 ;     H1-    C1-    C8-   H13
    13      2      9     25      9     0.00   0.00000   0 ;     H2-    C2-    C9-   H14
    13      2      9     26      9     0.00   0.00000   0 ;     H2-    C2-    C9-   H15
    23      8     10     27      9     0.00   0.50208   3 ;    H12-    C8-   C10-   H16
    23      8     10     28      9     0.00   0.50208   3 ;    H12-    C8-   C10-   H17
    24      8     10     27      9     0.00   0.50208   3 ;    H13-    C8-   C10-   H16
    24      8     10     28      9     0.00   0.50208   3 ;    H13-    C8-   C10-   H17
    25      9     11     29      9     0.00   0.51463   3 ;    H14-    C9-    O1-   H18
    26      9     11     29      9     0.00   0.51463   3 ;    H15-    C9-    O1-   H18

[ dihedrals ] ; impropers
; treated as propers in GROMACS to use correct AMBER analytical function
;    i      j      k      l   func   phase     kd      pn
     1      5      3      6      4   180.00   4.60240   2 ;     C1-    C5-    C3-    C6
     2      7      4     10      4   180.00   4.60240   2 ;     C2-    C7-    C4-   C10
     4      9      2     13      4   180.00   4.60240   2 ;     C4-    C9-    C2-    H2
    12      1      8      3      4   180.00   4.60240   2 ;     H1-    C1-    C8-    C3
