; mobley_588781_GMX.itp created by acpype (v: 2023.10.27) on Thu May 14 14:00:10 2026

[ atomtypes ]
;name   bond_type     mass     charge   ptype   sigma         epsilon       Amb
 ca       ca          0.00000  0.00000   A     3.31521e-01   4.13379e-01 ; 1.86  0.0988
 c3       c3          0.00000  0.00000   A     3.39771e-01   4.51035e-01 ; 1.91  0.1078
 ha       ha          0.00000  0.00000   A     2.62548e-01   6.73624e-02 ; 1.47  0.0161
 hc       hc          0.00000  0.00000   A     2.60018e-01   8.70272e-02 ; 1.46  0.0208

[ moleculetype ]
;name            nrexcl
 mobley_588781    3

[ atoms ]
;   nr  type  resi  res  atom  cgnr     charge      mass       ; qtot   bond_type
     1   ca     1   MOL    C1    1    -0.134000     12.01000 ; qtot -0.134
     2   ca     1   MOL    C2    2    -0.128000     12.01000 ; qtot -0.262
     3   ca     1   MOL    C3    3    -0.128000     12.01000 ; qtot -0.390
     4   ca     1   MOL    C4    4    -0.128000     12.01000 ; qtot -0.518
     5   ca     1   MOL    C5    5    -0.128000     12.01000 ; qtot -0.646
     6   ca     1   MOL    C6    6    -0.077300     12.01000 ; qtot -0.723
     7   c3     1   MOL    C7    7    -0.093100     12.01000 ; qtot -0.816
     8   c3     1   MOL    C8    8    -0.037100     12.01000 ; qtot -0.854
     9   c3     1   MOL    C9    9    -0.080400     12.01000 ; qtot -0.934
    10   c3     1   MOL   C10   10    -0.076400     12.01000 ; qtot -1.010
    11   c3     1   MOL   C11   11    -0.079400     12.01000 ; qtot -1.090
    12   c3     1   MOL   C12   12    -0.080400     12.01000 ; qtot -1.170
    13   ha     1   MOL    H1   13     0.130000      1.00800 ; qtot -1.040
    14   ha     1   MOL    H2   14     0.130000      1.00800 ; qtot -0.910
    15   ha     1   MOL    H3   15     0.130000      1.00800 ; qtot -0.780
    16   ha     1   MOL    H4   16     0.130500      1.00800 ; qtot -0.650
    17   ha     1   MOL    H5   17     0.130500      1.00800 ; qtot -0.519
    18   hc     1   MOL    H6   18     0.032700      1.00800 ; qtot -0.486
    19   hc     1   MOL    H7   19     0.032700      1.00800 ; qtot -0.454
    20   hc     1   MOL    H8   20     0.032700      1.00800 ; qtot -0.421
    21   hc     1   MOL    H9   21     0.047700      1.00800 ; qtot -0.373
    22   hc     1   MOL   H10   22     0.047700      1.00800 ; qtot -0.326
    23   hc     1   MOL   H11   23     0.038700      1.00800 ; qtot -0.287
    24   hc     1   MOL   H12   24     0.038700      1.00800 ; qtot -0.248
    25   hc     1   MOL   H13   25     0.044700      1.00800 ; qtot -0.203
    26   hc     1   MOL   H14   26     0.044700      1.00800 ; qtot -0.159
    27   hc     1   MOL   H15   27     0.040200      1.00800 ; qtot -0.119
    28   hc     1   MOL   H16   28     0.040200      1.00800 ; qtot -0.078
    29   hc     1   MOL   H17   29     0.039200      1.00800 ; qtot -0.039
    30   hc     1   MOL   H18   30     0.039200      1.00800 ; qtot 0.000

[ bonds ]
;   ai     aj funct   r             k
     1      2   1    1.3986e-01    2.9644e+05 ;     C1 - C2    
     1      3   1    1.3986e-01    2.9644e+05 ;     C1 - C3    
     1     13   1    1.0860e-01    3.0183e+05 ;     C1 - H1    
     2      4   1    1.3986e-01    2.9644e+05 ;     C2 - C4    
     2     14   1    1.0860e-01    3.0183e+05 ;     C2 - H2    
     3      5   1    1.3986e-01    2.9644e+05 ;     C3 - C5    
     3     15   1    1.0860e-01    3.0183e+05 ;     C3 - H3    
     4      6   1    1.3986e-01    2.9644e+05 ;     C4 - C6    
     4     16   1    1.0860e-01    3.0183e+05 ;     C4 - H4    
     5      6   1    1.3986e-01    2.9644e+05 ;     C5 - C6    
     5     17   1    1.0860e-01    3.0183e+05 ;     C5 - H5    
     6      8   1    1.5147e-01    2.0410e+05 ;     C6 - C8    
     7      9   1    1.5354e-01    1.9154e+05 ;     C7 - C9    
     7     18   1    1.0962e-01    2.8891e+05 ;     C7 - H6    
     7     19   1    1.0962e-01    2.8891e+05 ;     C7 - H7    
     7     20   1    1.0962e-01    2.8891e+05 ;     C7 - H8    
     8     10   1    1.5354e-01    1.9154e+05 ;     C8 - C10   
     8     21   1    1.0962e-01    2.8891e+05 ;     C8 - H9    
     8     22   1    1.0962e-01    2.8891e+05 ;     C8 - H10   
     9     11   1    1.5354e-01    1.9154e+05 ;     C9 - C11   
     9     23   1    1.0962e-01    2.8891e+05 ;     C9 - H11   
     9     24   1    1.0962e-01    2.8891e+05 ;     C9 - H12   
    10     12   1    1.5354e-01    1.9154e+05 ;    C10 - C12   
    10     25   1    1.0962e-01    2.8891e+05 ;    C10 - H13   
    10     26   1    1.0962e-01    2.8891e+05 ;    C10 - H14   
    11     12   1    1.5354e-01    1.9154e+05 ;    C11 - C12   
    11     27   1    1.0962e-01    2.8891e+05 ;    C11 - H15   
    11     28   1    1.0962e-01    2.8891e+05 ;    C11 - H16   
    12     29   1    1.0962e-01    2.8891e+05 ;    C12 - H17   
    12     30   1    1.0962e-01    2.8891e+05 ;    C12 - H18   

[ pairs ]
;   ai     aj    funct
     1      6      1 ;     C1 - C6    
     1     16      1 ;     C1 - H4    
     1     17      1 ;     C1 - H5    
     2      5      1 ;     C2 - C5    
     2      8      1 ;     C2 - C8    
     2     15      1 ;     C2 - H3    
     3      4      1 ;     C3 - C4    
     3      8      1 ;     C3 - C8    
     3     14      1 ;     C3 - H2    
     4     10      1 ;     C4 - C10   
     4     17      1 ;     C4 - H5    
     4     21      1 ;     C4 - H9    
     4     22      1 ;     C4 - H10   
     5     10      1 ;     C5 - C10   
     5     16      1 ;     C5 - H4    
     5     21      1 ;     C5 - H9    
     5     22      1 ;     C5 - H10   
     6     12      1 ;     C6 - C12   
     6     14      1 ;     C6 - H2    
     6     15      1 ;     C6 - H3    
     6     25      1 ;     C6 - H13   
     6     26      1 ;     C6 - H14   
     7     12      1 ;     C7 - C12   
     7     27      1 ;     C7 - H15   
     7     28      1 ;     C7 - H16   
     8     11      1 ;     C8 - C11   
     8     16      1 ;     C8 - H4    
     8     17      1 ;     C8 - H5    
     8     29      1 ;     C8 - H17   
     8     30      1 ;     C8 - H18   
     9     10      1 ;     C9 - C10   
     9     29      1 ;     C9 - H17   
     9     30      1 ;     C9 - H18   
    10     27      1 ;    C10 - H15   
    10     28      1 ;    C10 - H16   
    11     18      1 ;    C11 - H6    
    11     19      1 ;    C11 - H7    
    11     20      1 ;    C11 - H8    
    11     25      1 ;    C11 - H13   
    11     26      1 ;    C11 - H14   
    12     21      1 ;    C12 - H9    
    12     22      1 ;    C12 - H10   
    12     23      1 ;    C12 - H11   
    12     24      1 ;    C12 - H12   
    13      4      1 ;     H1 - C4    
    13      5      1 ;     H1 - C5    
    13     14      1 ;     H1 - H2    
    13     15      1 ;     H1 - H3    
    14     16      1 ;     H2 - H4    
    15     17      1 ;     H3 - H5    
    18     23      1 ;     H6 - H11   
    18     24      1 ;     H6 - H12   
    19     23      1 ;     H7 - H11   
    19     24      1 ;     H7 - H12   
    20     23      1 ;     H8 - H11   
    20     24      1 ;     H8 - H12   
    21     25      1 ;     H9 - H13   
    21     26      1 ;     H9 - H14   
    22     25      1 ;    H10 - H13   
    22     26      1 ;    H10 - H14   
    23     27      1 ;    H11 - H15   
    23     28      1 ;    H11 - H16   
    24     27      1 ;    H12 - H15   
    24     28      1 ;    H12 - H16   
    25     29      1 ;    H13 - H17   
    25     30      1 ;    H13 - H18   
    26     29      1 ;    H14 - H17   
    26     30      1 ;    H14 - H18   
    27     29      1 ;    H15 - H17   
    27     30      1 ;    H15 - H18   
    28     29      1 ;    H16 - H17   
    28     30      1 ;    H16 - H18   

[ angles ]
;   ai     aj     ak    funct   theta         cth
     1      2      4      1    1.2002e+02    5.3279e+02 ;     C1 - C2     - C4    
     1      2     14      1    1.1988e+02    3.7572e+02 ;     C1 - C2     - H2    
     1      3      5      1    1.2002e+02    5.3279e+02 ;     C1 - C3     - C5    
     1      3     15      1    1.1988e+02    3.7572e+02 ;     C1 - C3     - H3    
     2      1      3      1    1.2002e+02    5.3279e+02 ;     C2 - C1     - C3    
     2      1     13      1    1.1988e+02    3.7572e+02 ;     C2 - C1     - H1    
     2      4      6      1    1.2002e+02    5.3279e+02 ;     C2 - C4     - C6    
     2      4     16      1    1.1988e+02    3.7572e+02 ;     C2 - C4     - H4    
     3      1     13      1    1.1988e+02    3.7572e+02 ;     C3 - C1     - H1    
     3      5      6      1    1.2002e+02    5.3279e+02 ;     C3 - C5     - C6    
     3      5     17      1    1.1988e+02    3.7572e+02 ;     C3 - C5     - H5    
     4      2     14      1    1.1988e+02    3.7572e+02 ;     C4 - C2     - H2    
     4      6      5      1    1.2002e+02    5.3279e+02 ;     C4 - C6     - C5    
     4      6      8      1    1.2083e+02    5.0827e+02 ;     C4 - C6     - C8    
     5      3     15      1    1.1988e+02    3.7572e+02 ;     C5 - C3     - H3    
     5      6      8      1    1.2083e+02    5.0827e+02 ;     C5 - C6     - C8    
     6      4     16      1    1.1988e+02    3.7572e+02 ;     C6 - C4     - H4    
     6      5     17      1    1.1988e+02    3.7572e+02 ;     C6 - C5     - H5    
     6      8     10      1    1.1242e+02    5.0484e+02 ;     C6 - C8     - C10   
     6      8     21      1    1.1063e+02    3.6493e+02 ;     C6 - C8     - H9    
     6      8     22      1    1.1063e+02    3.6493e+02 ;     C6 - C8     - H10   
     7      9     11      1    1.1263e+02    5.0099e+02 ;     C7 - C9     - C11   
     7      9     23      1    1.0968e+02    3.6208e+02 ;     C7 - C9     - H11   
     7      9     24      1    1.0968e+02    3.6208e+02 ;     C7 - C9     - H12   
     8     10     12      1    1.1263e+02    5.0099e+02 ;     C8 - C10    - C12   
     8     10     25      1    1.0968e+02    3.6208e+02 ;     C8 - C10    - H13   
     8     10     26      1    1.0968e+02    3.6208e+02 ;     C8 - C10    - H14   
     9      7     18      1    1.0968e+02    3.6208e+02 ;     C9 - C7     - H6    
     9      7     19      1    1.0968e+02    3.6208e+02 ;     C9 - C7     - H7    
     9      7     20      1    1.0968e+02    3.6208e+02 ;     C9 - C7     - H8    
     9     11     12      1    1.1263e+02    5.0099e+02 ;     C9 - C11    - C12   
     9     11     27      1    1.0968e+02    3.6208e+02 ;     C9 - C11    - H15   
     9     11     28      1    1.0968e+02    3.6208e+02 ;     C9 - C11    - H16   
    10      8     21      1    1.0968e+02    3.6208e+02 ;    C10 - C8     - H9    
    10      8     22      1    1.0968e+02    3.6208e+02 ;    C10 - C8     - H10   
    10     12     11      1    1.1263e+02    5.0099e+02 ;    C10 - C12    - C11   
    10     12     29      1    1.0968e+02    3.6208e+02 ;    C10 - C12    - H17   
    10     12     30      1    1.0968e+02    3.6208e+02 ;    C10 - C12    - H18   
    11      9     23      1    1.0968e+02    3.6208e+02 ;    C11 - C9     - H11   
    11      9     24      1    1.0968e+02    3.6208e+02 ;    C11 - C9     - H12   
    11     12     29      1    1.0968e+02    3.6208e+02 ;    C11 - C12    - H17   
    11     12     30      1    1.0968e+02    3.6208e+02 ;    C11 - C12    - H18   
    12     10     25      1    1.0968e+02    3.6208e+02 ;    C12 - C10    - H13   
    12     10     26      1    1.0968e+02    3.6208e+02 ;    C12 - C10    - H14   
    12     11     27      1    1.0968e+02    3.6208e+02 ;    C12 - C11    - H15   
    12     11     28      1    1.0968e+02    3.6208e+02 ;    C12 - C11    - H16   
    18      7     19      1    1.0773e+02    2.9957e+02 ;     H6 - C7     - H7    
    18      7     20      1    1.0773e+02    2.9957e+02 ;     H6 - C7     - H8    
    19      7     20      1    1.0773e+02    2.9957e+02 ;     H7 - C7     - H8    
    21      8     22      1    1.0773e+02    2.9957e+02 ;     H9 - C8     - H10   
    23      9     24      1    1.0773e+02    2.9957e+02 ;    H11 - C9     - H12   
    25     10     26      1    1.0773e+02    2.9957e+02 ;    H13 - C10    - H14   
    27     11     28      1    1.0773e+02    2.9957e+02 ;    H15 - C11    - H16   
    29     12     30      1    1.0773e+02    2.9957e+02 ;    H17 - C12    - H18   

[ dihedrals ] ; propers
; for gromacs 4.5 or higher, using funct 9
;    i      j      k      l   func   phase     kd      pn
     1      2      4      6      9   180.00  15.16700   2 ;     C1-    C2-    C4-    C6
     1      2      4     16      9   180.00  15.16700   2 ;     C1-    C2-    C4-    H4
     1      3      5      6      9   180.00  15.16700   2 ;     C1-    C3-    C5-    C6
     1      3      5     17      9   180.00  15.16700   2 ;     C1-    C3-    C5-    H5
     2      1      3      5      9   180.00  15.16700   2 ;     C2-    C1-    C3-    C5
     2      1      3     15      9   180.00  15.16700   2 ;     C2-    C1-    C3-    H3
     2      4      6      5      9   180.00  15.16700   2 ;     C2-    C4-    C6-    C5
     2      4      6      8      9   180.00  15.16700   2 ;     C2-    C4-    C6-    C8
     3      1      2      4      9   180.00  15.16700   2 ;     C3-    C1-    C2-    C4
     3      1      2     14      9   180.00  15.16700   2 ;     C3-    C1-    C2-    H2
     3      5      6      4      9   180.00  15.16700   2 ;     C3-    C5-    C6-    C4
     3      5      6      8      9   180.00  15.16700   2 ;     C3-    C5-    C6-    C8
     4      6      5     17      9   180.00  15.16700   2 ;     C4-    C6-    C5-    H5
     4      6      8     10      9   180.00   1.00416   2 ;     C4-    C6-    C8-   C10
     4      6      8     21      9     0.00   0.00000   0 ;     C4-    C6-    C8-    H9
     4      6      8     22      9     0.00   0.00000   0 ;     C4-    C6-    C8-   H10
     5      6      4     16      9   180.00  15.16700   2 ;     C5-    C6-    C4-    H4
     5      6      8     10      9   180.00   1.00416   2 ;     C5-    C6-    C8-   C10
     5      6      8     21      9     0.00   0.00000   0 ;     C5-    C6-    C8-    H9
     5      6      8     22      9     0.00   0.00000   0 ;     C5-    C6-    C8-   H10
     6      4      2     14      9   180.00  15.16700   2 ;     C6-    C4-    C2-    H2
     6      5      3     15      9   180.00  15.16700   2 ;     C6-    C5-    C3-    H3
     6      8     10     12      9     0.00   0.65084   3 ;     C6-    C8-   C10-   C12
     6      8     10     25      9     0.00   0.65084   3 ;     C6-    C8-   C10-   H13
     6      8     10     26      9     0.00   0.65084   3 ;     C6-    C8-   C10-   H14
     7      9     11     12      9     0.00   2.17568   3 ;     C7-    C9-   C11-   C12
     7      9     11     27      9     0.00   0.54392   3 ;     C7-    C9-   C11-   H15
     7      9     11     28      9     0.00   0.54392   3 ;     C7-    C9-   C11-   H16
     8      6      4     16      9   180.00  15.16700   2 ;     C8-    C6-    C4-    H4
     8      6      5     17      9   180.00  15.16700   2 ;     C8-    C6-    C5-    H5
     8     10     12     11      9     0.00   2.17568   3 ;     C8-   C10-   C12-   C11
     8     10     12     29      9     0.00   0.54392   3 ;     C8-   C10-   C12-   H17
     8     10     12     30      9     0.00   0.54392   3 ;     C8-   C10-   C12-   H18
     9     11     12     10      9     0.00   2.17568   3 ;     C9-   C11-   C12-   C10
     9     11     12     29      9     0.00   0.54392   3 ;     C9-   C11-   C12-   H17
     9     11     12     30      9     0.00   0.54392   3 ;     C9-   C11-   C12-   H18
    10     12     11     27      9     0.00   0.54392   3 ;    C10-   C12-   C11-   H15
    10     12     11     28      9     0.00   0.54392   3 ;    C10-   C12-   C11-   H16
    11      9      7     18      9     0.00   0.54392   3 ;    C11-    C9-    C7-    H6
    11      9      7     19      9     0.00   0.54392   3 ;    C11-    C9-    C7-    H7
    11      9      7     20      9     0.00   0.54392   3 ;    C11-    C9-    C7-    H8
    11     12     10     25      9     0.00   0.54392   3 ;    C11-   C12-   C10-   H13
    11     12     10     26      9     0.00   0.54392   3 ;    C11-   C12-   C10-   H14
    12     10      8     21      9     0.00   0.54392   3 ;    C12-   C10-    C8-    H9
    12     10      8     22      9     0.00   0.54392   3 ;    C12-   C10-    C8-   H10
    12     11      9     23      9     0.00   0.54392   3 ;    C12-   C11-    C9-   H11
    12     11      9     24      9     0.00   0.54392   3 ;    C12-   C11-    C9-   H12
    13      1      2      4      9   180.00  15.16700   2 ;     H1-    C1-    C2-    C4
    13      1      2     14      9   180.00  15.16700   2 ;     H1-    C1-    C2-    H2
    13      1      3      5      9   180.00  15.16700   2 ;     H1-    C1-    C3-    C5
    13      1      3     15      9   180.00  15.16700   2 ;     H1-    C1-    C3-    H3
    14      2      4     16      9   180.00  15.16700   2 ;     H2-    C2-    C4-    H4
    15      3      5     17      9   180.00  15.16700   2 ;     H3-    C3-    C5-    H5
    18      7      9     23      9     0.00   0.50208   3 ;     H6-    C7-    C9-   H11
    18      7      9     24      9     0.00   0.50208   3 ;     H6-    C7-    C9-   H12
    19      7      9     23      9     0.00   0.50208   3 ;     H7-    C7-    C9-   H11
    19      7      9     24      9     0.00   0.50208   3 ;     H7-    C7-    C9-   H12
    20      7      9     23      9     0.00   0.50208   3 ;     H8-    C7-    C9-   H11
    20      7      9     24      9     0.00   0.50208   3 ;     H8-    C7-    C9-   H12
    21      8     10     25      9     0.00   0.50208   3 ;     H9-    C8-   C10-   H13
    21      8     10     26      9     0.00   0.50208   3 ;     H9-    C8-   C10-   H14
    22      8     10     25      9     0.00   0.50208   3 ;    H10-    C8-   C10-   H13
    22      8     10     26      9     0.00   0.50208   3 ;    H10-    C8-   C10-   H14
    23      9     11     27      9     0.00   0.50208   3 ;    H11-    C9-   C11-   H15
    23      9     11     28      9     0.00   0.50208   3 ;    H11-    C9-   C11-   H16
    24      9     11     27      9     0.00   0.50208   3 ;    H12-    C9-   C11-   H15
    24      9     11     28      9     0.00   0.50208   3 ;    H12-    C9-   C11-   H16
    25     10     12     29      9     0.00   0.50208   3 ;    H13-   C10-   C12-   H17
    25     10     12     30      9     0.00   0.50208   3 ;    H13-   C10-   C12-   H18
    26     10     12     29      9     0.00   0.50208   3 ;    H14-   C10-   C12-   H17
    26     10     12     30      9     0.00   0.50208   3 ;    H14-   C10-   C12-   H18
    27     11     12     29      9     0.00   0.50208   3 ;    H15-   C11-   C12-   H17
    27     11     12     30      9     0.00   0.50208   3 ;    H15-   C11-   C12-   H18
    28     11     12     29      9     0.00   0.50208   3 ;    H16-   C11-   C12-   H17
    28     11     12     30      9     0.00   0.50208   3 ;    H16-   C11-   C12-   H18

[ dihedrals ] ; impropers
; treated as propers in GROMACS to use correct AMBER analytical function
;    i      j      k      l   func   phase     kd      pn
     1      4      2     14      4   180.00   4.60240   2 ;     C1-    C4-    C2-    H2
     1      5      3     15      4   180.00   4.60240   2 ;     C1-    C5-    C3-    H3
     2      6      4     16      4   180.00   4.60240   2 ;     C2-    C6-    C4-    H4
     3      6      5     17      4   180.00   4.60240   2 ;     C3-    C6-    C5-    H5
     4      5      6      8      4   180.00   4.60240   2 ;     C4-    C5-    C6-    C8
    13      1      3      2      4   180.00   4.60240   2 ;     H1-    C1-    C3-    C2
