mobley_6688723_GMX.gro created by acpype (v: 2023.10.27) on Thu May 14 14:01:03 2026
 2052
    1MOL     C1    1   1.274   1.419   1.190
    1MOL     C2    2   1.373   1.320   1.432
    1MOL     C3    3   1.255   1.395   1.430
    1MOL     C4    4   1.442   1.295   1.313
    1MOL     C5    5   1.206   1.444   1.309
    1MOL     C6    6   1.393   1.345   1.192
    1MOL     C7    7   1.225   1.537   1.618
    1MOL     C8    8   1.679   1.295   1.334
    1MOL     O1    9   1.422   1.272   1.550
    1MOL     O2   10   1.189   1.418   1.547
    1MOL     O3   11   1.557   1.223   1.316
    1MOL    CL1   12   1.060   1.536   1.303
    1MOL    CL2   13   1.475   1.315   1.043
    1MOL     H1   14   1.236   1.457   1.096
    1MOL     H2   15   1.165   1.543   1.709
    1MOL     H3   16   1.207   1.624   1.555
    1MOL     H4   17   1.331   1.531   1.645
    1MOL     H5   18   1.763   1.225   1.335
    1MOL     H6   19   1.675   1.350   1.428
    1MOL     H7   20   1.691   1.365   1.251
    1MOL     H8   21   1.504   1.223   1.535
    2SOL     OW   22   0.230   0.628   0.113
    2SOL    HW1   23   0.137   0.626   0.150
    2SOL    HW2   24   0.231   0.589   0.021
    3SOL     OW   25   0.225   0.275   0.996
    3SOL    HW1   26   0.260   0.258   1.088
    3SOL    HW2   27   0.137   0.230   0.984
    4SOL     OW   28   0.019   0.368   0.647
    4SOL    HW1   29  -0.063   0.411   0.686
    4SOL    HW2   30  -0.009   0.295   0.584
    5SOL     OW   31   0.569   1.275   1.165
    5SOL    HW1   32   0.476   1.268   1.128
    5SOL    HW2   33   0.580   1.364   1.209
    6SOL     OW   34   1.555   1.511   0.703
    6SOL    HW1   35   1.498   1.495   0.784
    6SOL    HW2   36   1.496   1.521   0.623
    7SOL     OW   37   1.135   0.703   0.717
    7SOL    HW1   38   1.192   0.781   0.692
    7SOL    HW2   39   1.075   0.729   0.793
    8SOL     OW   40   1.755   0.607   0.231
    8SOL    HW1   41   1.743   0.594   0.132
    8SOL    HW2   42   1.725   0.526   0.280
    9SOL     OW   43   0.768   1.144   1.023
    9SOL    HW1   44   0.690   1.161   1.083
    9SOL    HW2   45   0.802   1.231   0.987
   10SOL     OW   46   0.850   0.798   1.823
   10SOL    HW1   47   0.846   0.874   1.888
   10SOL    HW2   48   0.872   0.834   1.732
   11SOL     OW   49   0.685   1.012   0.665
   11SOL    HW1   50   0.754   0.996   0.735
   11SOL    HW2   51   0.612   1.069   0.703
   12SOL     OW   52   0.686   1.161   1.803
   12SOL    HW1   53   0.746   1.240   1.817
   12SOL    HW2   54   0.600   1.192   1.762
   13SOL     OW   55   0.335   1.435   1.061
   13SOL    HW1   56   0.257   1.404   1.008
   13SOL    HW2   57   0.393   1.493   1.004
   14SOL     OW   58   0.438   0.392   1.499
   14SOL    HW1   59   0.520   0.336   1.508
   14SOL    HW2   60   0.357   0.334   1.503
   15SOL     OW   61   1.603   0.447   0.737
   15SOL    HW1   62   1.529   0.493   0.687
   15SOL    HW2   63   1.654   0.515   0.790
   16SOL     OW   64   0.231   1.713   0.483
   16SOL    HW1   65   0.265   1.790   0.537
   16SOL    HW2   66   0.275   1.713   0.393
   17SOL     OW   67   1.127   1.341   1.690
   17SOL    HW1   68   1.174   1.341   1.778
   17SOL    HW2   69   1.079   1.254   1.679
   18SOL     OW   70   0.230   1.434   0.538
   18SOL    HW1   71   0.204   1.530   0.538
   18SOL    HW2   72   0.159   1.380   0.583
   19SOL     OW   73   0.240   1.091   0.886
   19SOL    HW1   74   0.254   1.007   0.938
   19SOL    HW2   75   0.185   1.155   0.941
   20SOL     OW   76   0.620   1.786   1.439
   20SOL    HW1   77   0.528   1.769   1.474
   20SOL    HW2   78   0.648   1.878   1.465
   21SOL     OW   79   0.606   0.964   0.123
   21SOL    HW1   80   0.613   1.048   0.069
   21SOL    HW2   81   0.652   0.977   0.211
   22SOL     OW   82   1.594   0.114   1.480
   22SOL    HW1   83   1.576   0.181   1.408
   22SOL    HW2   84   1.591   0.160   1.569
   23SOL     OW   85   0.122   0.643   0.563
   23SOL    HW1   86   0.077   0.555   0.580
   23SOL    HW2   87   0.121   0.697   0.647
   24SOL     OW   88   1.842   1.767   0.359
   24SOL    HW1   89   1.896   1.738   0.439
   24SOL    HW2   90   1.872   1.857   0.330
   25SOL     OW   91   0.027   1.596   0.117
   25SOL    HW1   92   0.008   1.500   0.138
   25SOL    HW2   93  -0.006   1.654   0.192
   26SOL     OW   94   1.689   0.922   0.612
   26SOL    HW1   95   1.784   0.893   0.620
   26SOL    HW2   96   1.681   0.987   0.537
   27SOL     OW   97   1.641   1.108   0.432
   27SOL    HW1   98   1.727   1.110   0.380
   27SOL    HW2   99   1.655   1.155   0.520
   28SOL     OW  100   0.113   0.737   1.597
   28SOL    HW1  101   0.201   0.724   1.642
   28SOL    HW2  102   0.100   0.834   1.575
   29SOL     OW  103   0.613   1.365   0.726
   29SOL    HW1  104   0.564   1.278   0.735
   29SOL    HW2  105   0.590   1.408   0.639
   30SOL     OW  106   0.809   0.004   0.502
   30SOL    HW1  107   0.849   0.095   0.493
   30SOL    HW2  108   0.709   0.012   0.508
   31SOL     OW  109   0.197   0.976   1.264
   31SOL    HW1  110   0.286   0.931   1.250
   31SOL    HW2  111   0.124   0.911   1.245
   32SOL     OW  112   1.525   0.999   0.190
   32SOL    HW1  113   1.462   0.923   0.203
   32SOL    HW2  114   1.573   1.017   0.276
   33SOL     OW  115   0.317   0.251   1.801
   33SOL    HW1  116   0.388   0.322   1.807
   33SOL    HW2  117   0.229   0.290   1.829
   34SOL     OW  118   1.667   1.714   0.572
   34SOL    HW1  119   1.626   1.691   0.484
   34SOL    HW2  120   1.649   1.640   0.637
   35SOL     OW  121   0.598   0.729   0.270
   35SOL    HW1  122   0.622   0.798   0.202
   35SOL    HW2  123   0.520   0.762   0.324
   36SOL     OW  124   1.281   0.345   0.944
   36SOL    HW1  125   1.195   0.295   0.931
   36SOL    HW2  126   1.343   0.291   1.000
   37SOL     OW  127   1.576   1.662   0.307
   37SOL    HW1  128   1.665   1.708   0.310
   37SOL    HW2  129   1.555   1.638   0.212
   38SOL     OW  130   0.807   0.605   1.465
   38SOL    HW1  131   0.760   0.602   1.554
   38SOL    HW2  132   0.756   0.550   1.399
   39SOL     OW  133   1.394   0.469   1.674
   39SOL    HW1  134   1.374   0.512   1.762
   39SOL    HW2  135   1.472   0.407   1.683
   40SOL     OW  136   0.973   0.890   1.572
   40SOL    HW1  137   1.019   0.806   1.543
   40SOL    HW2  138   0.917   0.924   1.497
   41SOL     OW  139   0.991   0.410   1.242
   41SOL    HW1  140   0.914   0.444   1.296
   41SOL    HW2  141   0.957   0.359   1.163
   42SOL     OW  142   1.041   0.701   0.429
   42SOL    HW1  143   1.067   0.697   0.525
   42SOL    HW2  144   0.956   0.650   0.415
   43SOL     OW  145   0.076   0.811   0.789
   43SOL    HW1  146   0.175   0.799   0.798
   43SOL    HW2  147   0.052   0.906   0.810
   44SOL     OW  148   0.130   1.821   1.571
   44SOL    HW1  149   0.120   1.806   1.670
   44SOL    HW2  150   0.044   1.857   1.535
   45SOL     OW  151   0.865   0.348   0.195
   45SOL    HW1  152   0.924   0.411   0.146
   45SOL    HW2  153   0.884   0.254   0.166
   46SOL     OW  154   1.719   0.585   1.831
   46SOL    HW1  155   1.693   0.674   1.795
   46SOL    HW2  156   1.717   0.517   1.758
   47SOL     OW  157   1.362   1.144   0.545
   47SOL    HW1  158   1.445   1.115   0.497
   47SOL    HW2  159   1.313   1.211   0.489
   48SOL     OW  160   0.550   0.196   0.885
   48SOL    HW1  161   0.545   0.191   0.985
   48SOL    HW2  162   0.552   0.292   0.856
   49SOL     OW  163   1.008   1.456   0.477
   49SOL    HW1  164   0.962   1.528   0.425
   49SOL    HW2  165   1.004   1.476   0.575
   50SOL     OW  166   0.351   1.801   0.853
   50SOL    HW1  167   0.401   1.715   0.859
   50SOL    HW2  168   0.416   1.878   0.850
   51SOL     OW  169   1.795   1.066   0.873
   51SOL    HW1  170   1.733   1.051   0.797
   51SOL    HW2  171   1.743   1.077   0.958
   52SOL     OW  172   0.321   0.943   0.242
   52SOL    HW1  173   0.403   0.982   0.200
   52SOL    HW2  174   0.294   0.861   0.193
   53SOL     OW  175   1.458   0.735   0.728
   53SOL    HW1  176   1.453   0.670   0.803
   53SOL    HW2  177   1.538   0.794   0.741
   54SOL     OW  178   0.461   1.266   1.727
   54SOL    HW1  179   0.411   1.267   1.641
   54SOL    HW2  180   0.398   1.248   1.803
   55SOL     OW  181   1.111   1.776   0.237
   55SOL    HW1  182   1.051   1.714   0.287
   55SOL    HW2  183   1.142   1.732   0.152
   56SOL     OW  184   0.202   0.285   1.498
   56SOL    HW1  185   0.122   0.345   1.485
   56SOL    HW2  186   0.192   0.236   1.584
   57SOL     OW  187   1.632   1.377   0.081
   57SOL    HW1  188   1.600   1.471   0.071
   57SOL    HW2  189   1.556   1.314   0.069
   58SOL     OW  190   0.464   1.743   0.323
   58SOL    HW1  191   0.497   1.782   0.409
   58SOL    HW2  192   0.540   1.736   0.258
   59SOL     OW  193   1.400   0.107   0.426
   59SOL    HW1  194   1.376   0.070   0.336
   59SOL    HW2  195   1.499   0.123   0.430
   60SOL     OW  196   0.249   1.785   1.241
   60SOL    HW1  197   0.306   1.720   1.291
   60SOL    HW2  198   0.233   1.752   1.148
   61SOL     OW  199   0.940   1.698   0.904
   61SOL    HW1  200   1.020   1.641   0.925
   61SOL    HW2  201   0.891   1.658   0.827
   62SOL     OW  202   0.382   0.700   0.480
   62SOL    HW1  203   0.427   0.610   0.477
   62SOL    HW2  204   0.288   0.689   0.513
   63SOL     OW  205   1.547   0.222   1.729
   63SOL    HW1  206   1.542   0.259   1.821
   63SOL    HW2  207   1.475   0.153   1.717
   64SOL     OW  208   0.614   0.122   0.117
   64SOL    HW1  209   0.712   0.100   0.124
   64SOL    HW2  210   0.583   0.105   0.024
   65SOL     OW  211   0.781   0.264   1.749
   65SOL    HW1  212   0.848   0.203   1.792
   65SOL    HW2  213   0.708   0.283   1.814
   66SOL     OW  214   1.351   0.590   1.433
   66SOL    HW1  215   1.379   0.547   1.518
   66SOL    HW2  216   1.376   0.686   1.434
   67SOL     OW  217   0.803   1.402   0.924
   67SOL    HW1  218   0.893   1.416   0.882
   67SOL    HW2  219   0.732   1.404   0.853
   68SOL     OW  220   0.922   0.503   0.899
   68SOL    HW1  221   0.897   0.494   0.803
   68SOL    HW2  222   0.970   0.421   0.930
   69SOL     OW  223   0.539   0.064   0.512
   69SOL    HW1  224   0.458   0.065   0.570
   69SOL    HW2  225   0.542   0.147   0.457
   70SOL     OW  226   1.434   1.188   0.041
   70SOL    HW1  227   1.466   1.112   0.098
   70SOL    HW2  228   1.342   1.215   0.071
   71SOL     OW  229   0.297   0.035   0.171
   71SOL    HW1  230   0.346   0.119   0.150
   71SOL    HW2  231   0.359  -0.030   0.216
   72SOL     OW  232   0.935   0.236   0.480
   72SOL    HW1  233   0.887   0.277   0.402
   72SOL    HW2  234   1.034   0.234   0.461
   73SOL     OW  235   1.076   0.683   1.464
   73SOL    HW1  236   0.996   0.622   1.467
   73SOL    HW2  237   1.157   0.630   1.440
   74SOL     OW  238   1.227   1.570   0.793
   74SOL    HW1  239   1.248   1.644   0.728
   74SOL    HW2  240   1.295   1.570   0.866
   75SOL     OW  241   0.459   1.152   0.741
   75SOL    HW1  242   0.388   1.125   0.806
   75SOL    HW2  243   0.433   1.124   0.648
   76SOL     OW  244   1.271   1.797   0.591
   76SOL    HW1  245   1.315   1.861   0.527
   76SOL    HW2  246   1.221   1.849   0.661
   77SOL     OW  247   1.032   0.549   0.016
   77SOL    HW1  248   0.991   0.631  -0.023
   77SOL    HW2  249   1.096   0.575   0.089
   78SOL     OW  250   0.078   0.556   1.386
   78SOL    HW1  251   0.170   0.555   1.345
   78SOL    HW2  252   0.072   0.630   1.453
   79SOL     OW  253   0.561   0.222   1.147
   79SOL    HW1  254   0.599   0.138   1.184
   79SOL    HW2  255   0.473   0.241   1.191
   80SOL     OW  256   0.866   0.454   0.642
   80SOL    HW1  257   0.834   0.526   0.580
   80SOL    HW2  258   0.890   0.373   0.589
   81SOL     OW  259   1.017   0.039   0.753
   81SOL    HW1  260   0.945   0.044   0.684
   81SOL    HW2  261   0.993  -0.030   0.822
   82SOL     OW  262   1.429   1.173   0.867
   82SOL    HW1  263   1.374   1.089   0.860
   82SOL    HW2  264   1.455   1.202   0.775
   83SOL     OW  265   1.466   0.590   0.992
   83SOL    HW1  266   1.436   0.495   0.999
   83SOL    HW2  267   1.539   0.606   1.058
   84SOL     OW  268   1.857   0.833   0.377
   84SOL    HW1  269   1.899   0.769   0.441
   84SOL    HW2  270   1.819   0.782   0.299
   85SOL     OW  271   0.488   1.385   0.174
   85SOL    HW1  272   0.401   1.370   0.221
   85SOL    HW2  273   0.471   1.411   0.079
   86SOL     OW  274   1.664   1.280   0.657
   86SOL    HW1  275   1.763   1.288   0.671
   86SOL    HW2  276   1.619   1.364   0.688
   87SOL     OW  277   1.390   0.575   0.078
   87SOL    HW1  278   1.336   0.554   0.159
   87SOL    HW2  279   1.481   0.534   0.087
   88SOL     OW  280   0.527   0.256   0.328
   88SOL    HW1  281   0.554   0.197   0.253
   88SOL    HW2  282   0.527   0.351   0.297
   89SOL     OW  283   1.754   1.223   1.588
   89SOL    HW1  284   1.845   1.184   1.575
   89SOL    HW2  285   1.762   1.319   1.612
   90SOL     OW  286   1.592   1.629   1.625
   90SOL    HW1  287   1.619   1.663   1.535
   90SOL    HW2  288   1.671   1.591   1.671
   91SOL     OW  289   1.111   1.195   1.100
   91SOL    HW1  290   1.071   1.239   1.181
   91SOL    HW2  291   1.070   1.232   1.017
   92SOL     OW  292   1.638   1.099   1.079
   92SOL    HW1  293   1.643   1.180   1.138
   92SOL    HW2  294   1.552   1.101   1.028
   93SOL     OW  295   0.915   0.089   1.402
   93SOL    HW1  296   0.940   0.069   1.307
   93SOL    HW2  297   0.987   0.145   1.444
   94SOL     OW  298   0.980   1.116   1.719
   94SOL    HW1  299   0.881   1.122   1.729
   94SOL    HW2  300   1.003   1.036   1.663
   95SOL     OW  301   0.705   1.050   0.368
   95SOL    HW1  302   0.691   1.057   0.467
   95SOL    HW2  303   0.789   0.999   0.350
   96SOL     OW  304   0.410   0.813   1.251
   96SOL    HW1  305   0.496   0.825   1.301
   96SOL    HW2  306   0.368   0.726   1.278
   97SOL     OW  307   1.274   0.386   1.262
   97SOL    HW1  308   1.295   0.460   1.326
   97SOL    HW2  309   1.185   0.403   1.219
   98SOL     OW  310   0.064   1.564   1.331
   98SOL    HW1  311   0.018   1.646   1.297
   98SOL    HW2  312   0.162   1.583   1.340
   99SOL     OW  313   0.367   1.100   0.501
   99SOL    HW1  314   0.360   1.183   0.445
   99SOL    HW2  315   0.371   1.020   0.441
  100SOL     OW  316   0.566   0.537   0.865
  100SOL    HW1  317   0.578   0.603   0.791
  100SOL    HW2  318   0.612   0.571   0.948
  101SOL     OW  319   1.252   1.348   0.388
  101SOL    HW1  320   1.302   1.425   0.428
  101SOL    HW2  321   1.157   1.350   0.420
  102SOL     OW  322   1.582   0.639   0.472
  102SOL    HW1  323   1.551   0.700   0.545
  102SOL    HW2  324   1.632   0.691   0.403
  103SOL     OW  325   0.354   1.510   1.329
  103SOL    HW1  326   0.333   1.466   1.242
  103SOL    HW2  327   0.451   1.536   1.332
  104SOL     OW  328   0.402   0.751   1.598
  104SOL    HW1  329   0.470   0.806   1.551
  104SOL    HW2  330   0.442   0.663   1.625
  105SOL     OW  331   1.587   0.779   1.670
  105SOL    HW1  332   1.495   0.817   1.665
  105SOL    HW2  333   1.647   0.826   1.605
  106SOL     OW  334   1.013   0.105   1.770
  106SOL    HW1  335   1.019   0.190   1.718
  106SOL    HW2  336   1.045   0.029   1.713
  107SOL     OW  337   0.504   0.050   1.740
  107SOL    HW1  338   0.462  -0.007   1.670
  107SOL    HW2  339   0.438   0.119   1.772
  108SOL     OW  340   0.573   0.870   1.029
  108SOL    HW1  341   0.617   0.959   1.020
  108SOL    HW2  342   0.510   0.870   1.106
  109SOL     OW  343   1.360   0.862   1.045
  109SOL    HW1  344   1.285   0.862   0.979
  109SOL    HW2  345   1.397   0.770   1.054
  110SOL     OW  346   1.209   0.525   0.275
  110SOL    HW1  347   1.222   0.441   0.329
  110SOL    HW2  348   1.180   0.599   0.335
  111SOL     OW  349   0.307   0.213   1.231
  111SOL    HW1  350   0.284   0.250   1.321
  111SOL    HW2  351   0.277   0.118   1.225
  112SOL     OW  352   0.037   1.310   1.282
  112SOL    HW1  353   0.090   1.261   1.350
  112SOL    HW2  354   0.059   1.408   1.287
  113SOL     OW  355   0.732   0.634   1.064
  113SOL    HW1  356   0.791   0.608   0.988
  113SOL    HW2  357   0.704   0.730   1.053
  114SOL     OW  358   1.728   0.935   1.854
  114SOL    HW1  359   1.682   0.928   1.765
  114SOL    HW2  360   1.666   0.979   1.920
  115SOL     OW  361   0.307   0.063   0.618
  115SOL    HW1  362   0.296   0.157   0.651
  115SOL    HW2  363   0.302   0.000   0.695
  116SOL     OW  364   1.622   0.367   0.374
  116SOL    HW1  365   1.624   0.291   0.438
  116SOL    HW2  366   1.574   0.444   0.414
  117SOL     OW  367   1.023   0.766   0.966
  117SOL    HW1  368   1.038   0.787   1.062
  117SOL    HW2  369   0.993   0.671   0.957
  118SOL     OW  370   0.980   1.573   1.700
  118SOL    HW1  371   0.960   1.617   1.612
  118SOL    HW2  372   1.019   1.482   1.684
  119SOL     OW  373   1.859   1.518   1.605
  119SOL    HW1  374   1.873   1.545   1.510
  119SOL    HW2  375   1.942   1.540   1.658
  120SOL     OW  376   0.350   0.898   1.804
  120SOL    HW1  377   0.426   0.942   1.852
  120SOL    HW2  378   0.385   0.851   1.722
  121SOL     OW  379   1.540   0.274   0.125
  121SOL    HW1  380   1.479   0.199   0.148
  121SOL    HW2  381   1.562   0.326   0.208
  122SOL     OW  382   1.303   0.838   0.042
  122SOL    HW1  383   1.337   0.745   0.057
  122SOL    HW2  384   1.321   0.865  -0.053
  123SOL     OW  385   1.068   1.333   0.849
  123SOL    HW1  386   1.075   1.249   0.794
  123SOL    HW2  387   1.130   1.402   0.813
  124SOL     OW  388   0.319   0.810   0.949
  124SOL    HW1  389   0.412   0.846   0.954
  124SOL    HW2  390   0.313   0.725   1.001
  125SOL     OW  391   0.339   0.509   1.006
  125SOL    HW1  392   0.287   0.426   0.989
  125SOL    HW2  393   0.416   0.514   0.942
  126SOL     OW  394   1.138   0.380   1.678
  126SOL    HW1  395   1.093   0.443   1.742
  126SOL    HW2  396   1.231   0.411   1.661
  127SOL     OW  397   1.160   0.207   1.477
  127SOL    HW1  398   1.160   0.271   1.554
  127SOL    HW2  399   1.188   0.255   1.394
  128SOL     OW  400   0.008   1.326   0.200
  128SOL    HW1  401  -0.085   1.347   0.169
  128SOL    HW2  402   0.018   1.227   0.213
  129SOL     OW  403   0.088   1.801   0.927
  129SOL    HW1  404   0.046   1.715   0.900
  129SOL    HW2  405   0.182   1.804   0.893
  130SOL     OW  406   0.504   1.568   0.910
  130SOL    HW1  407   0.570   1.642   0.919
  130SOL    HW2  408   0.548   1.489   0.868
  131SOL     OW  409   1.002   0.796   1.238
  131SOL    HW1  410   1.043   0.764   1.324
  131SOL    HW2  411   0.906   0.769   1.235
  132SOL     OW  412   0.040   0.544   1.114
  132SOL    HW1  413   0.125   0.511   1.073
  132SOL    HW2  414   0.053   0.559   1.212
  133SOL     OW  415   0.189   0.520   1.722
  133SOL    HW1  416   0.248   0.480   1.652
  133SOL    HW2  417   0.131   0.591   1.681
  134SOL     OW  418   1.369   0.950   1.660
  134SOL    HW1  419   1.408   1.039   1.680
  134SOL    HW2  420   1.379   0.930   1.563
  135SOL     OW  421   0.815   0.572   0.325
  135SOL    HW1  422   0.822   0.483   0.279
  135SOL    HW2  423   0.721   0.606   0.317
  136SOL     OW  424   1.657   0.604   1.206
  136SOL    HW1  425   1.619   0.535   1.268
  136SOL    HW2  426   1.739   0.568   1.162
  137SOL     OW  427   0.252   1.564   1.744
  137SOL    HW1  428   0.222   1.621   1.820
  137SOL    HW2  429   0.245   1.467   1.770
  138SOL     OW  430   0.671   0.464   1.269
  138SOL    HW1  431   0.637   0.375   1.239
  138SOL    HW2  432   0.697   0.518   1.189
  139SOL     OW  433   0.930   1.678   1.465
  139SOL    HW1  434   0.906   1.660   1.370
  139SOL    HW2  435   0.960   1.772   1.475
  140SOL     OW  436   0.473   0.500   0.191
  140SOL    HW1  437   0.534   0.580   0.195
  140SOL    HW2  438   0.378   0.531   0.198
  141SOL     OW  439   0.159   1.137   1.466
  141SOL    HW1  440   0.181   1.076   1.542
  141SOL    HW2  441   0.169   1.088   1.380
  142SOL     OW  442   1.347   1.059   1.234
  142SOL    HW1  443   1.371   0.996   1.160
  142SOL    HW2  444   1.257   1.099   1.216
  143SOL     OW  445   1.302   0.855   0.309
  143SOL    HW1  446   1.216   0.824   0.351
  143SOL    HW2  447   1.298   0.841   0.210
  144SOL     OW  448   1.759   1.747   1.154
  144SOL    HW1  449   1.820   1.777   1.081
  144SOL    HW2  450   1.721   1.658   1.132
  145SOL     OW  451   1.252   1.731   1.128
  145SOL    HW1  452   1.336   1.736   1.074
  145SOL    HW2  453   1.229   1.635   1.146
  146SOL     OW  454   0.083   1.258   1.022
  146SOL    HW1  455   0.078   1.257   1.122
  146SOL    HW2  456   0.000   1.217   0.984
  147SOL     OW  457   0.688   1.662   1.716
  147SOL    HW1  458   0.632   1.743   1.725
  147SOL    HW2  459   0.740   1.666   1.630
  148SOL     OW  460   0.903   0.086   0.133
  148SOL    HW1  461   0.954   0.087   0.047
  148SOL    HW2  462   0.959   0.044   0.204
  149SOL     OW  463   1.726   0.135   0.523
  149SOL    HW1  464   1.799   0.118   0.456
  149SOL    HW2  465   1.695   0.048   0.561
  150SOL     OW  466   1.388   1.573   0.477
  150SOL    HW1  467   1.455   1.585   0.403
  150SOL    HW2  468   1.348   1.662   0.500
  151SOL     OW  469   0.130   1.794   1.851
  151SOL    HW1  470   0.089   1.720   1.904
  151SOL    HW2  471   0.194   1.845   1.909
  152SOL     OW  472   1.280   0.927   0.672
  152SOL    HW1  473   1.340   0.846   0.674
  152SOL    HW2  474   1.320   0.996   0.612
  153SOL     OW  475   0.830   1.273   1.422
  153SOL    HW1  476   0.825   1.306   1.517
  153SOL    HW2  477   0.744   1.292   1.376
  154SOL     OW  478   0.672   1.616   0.154
  154SOL    HW1  479   0.681   1.626   0.055
  154SOL    HW2  480   0.632   1.527   0.175
  155SOL     OW  481   1.650   1.720   1.394
  155SOL    HW1  482   1.703   1.730   1.310
  155SOL    HW2  483   1.623   1.810   1.428
  156SOL     OW  484   1.841   0.175   0.963
  156SOL    HW1  485   1.880   0.090   0.927
  156SOL    HW2  486   1.743   0.177   0.944
  157SOL     OW  487   0.263   0.326   0.720
  157SOL    HW1  488   0.184   0.377   0.686
  157SOL    HW2  489   0.254   0.311   0.818
  158SOL     OW  490   1.194   1.612   0.031
  158SOL    HW1  491   1.200   1.519   0.068
  158SOL    HW2  492   1.135   1.612  -0.049
  159SOL     OW  493   0.822   1.002   1.372
  159SOL    HW1  494   0.862   1.001   1.280
  159SOL    HW2  495   0.832   1.094   1.412
  160SOL     OW  496   0.916   0.910   0.291
  160SOL    HW1  497   0.979   0.948   0.223
  160SOL    HW2  498   0.956   0.827   0.330
  161SOL     OW  499   1.504   1.607   0.044
  161SOL    HW1  500   1.412   1.644   0.051
  161SOL    HW2  501   1.542   1.627  -0.046
  162SOL     OW  502   0.372   1.288   1.490
  162SOL    HW1  503   0.359   1.381   1.456
  162SOL    HW2  504   0.288   1.236   1.477
  163SOL     OW  505   1.039   1.098   0.696
  163SOL    HW1  506   0.969   1.051   0.750
  163SOL    HW2  507   1.098   1.030   0.653
  164SOL     OW  508   1.014   0.236   0.971
  164SOL    HW1  509   1.006   0.200   0.878
  164SOL    HW2  510   1.012   0.160   1.036
  165SOL     OW  511   0.590   1.487   0.491
  165SOL    HW1  512   0.632   1.429   0.421
  165SOL    HW2  513   0.546   1.566   0.447
  166SOL     OW  514   1.709   0.385   1.381
  166SOL    HW1  515   1.782   0.454   1.385
  166SOL    HW2  516   1.737   0.310   1.322
  167SOL     OW  517   0.255   1.348   0.290
  167SOL    HW1  518   0.159   1.349   0.263
  167SOL    HW2  519   0.267   1.401   0.374
  168SOL     OW  520   0.105   1.013   1.726
  168SOL    HW1  521   0.028   0.980   1.780
  168SOL    HW2  522   0.190   0.983   1.768
  169SOL     OW  523   0.672   0.203   1.489
  169SOL    HW1  524   0.762   0.187   1.449
  169SOL    HW2  525   0.680   0.208   1.588
  170SOL     OW  526   0.075   0.345   0.033
  170SOL    HW1  527  -0.017   0.317   0.004
  170SOL    HW2  528   0.106   0.422  -0.023
  171SOL     OW  529   1.440   0.856   1.398
  171SOL    HW1  530   1.383   0.908   1.335
  171SOL    HW2  531   1.536   0.868   1.374
  172SOL     OW  532   0.072   0.166   0.318
  172SOL    HW1  533   0.055   0.249   0.264
  172SOL    HW2  534   0.162   0.129   0.296
  173SOL     OW  535   1.183   1.335   0.119
  173SOL    HW1  536   1.084   1.324   0.121
  173SOL    HW2  537   1.217   1.350   0.212
  174SOL     OW  538   0.613   0.842   1.431
  174SOL    HW1  539   0.669   0.923   1.414
  174SOL    HW2  540   0.672   0.762   1.434
  175SOL     OW  541   1.493   1.767   0.959
  175SOL    HW1  542   1.526   1.831   0.890
  175SOL    HW2  543   1.559   1.761   1.034
  176SOL     OW  544   0.716   0.565   1.708
  176SOL    HW1  545   0.735   0.630   1.782
  176SOL    HW2  546   0.776   0.485   1.717
  177SOL     OW  547   0.390   1.741   1.560
  177SOL    HW1  548   0.299   1.782   1.558
  177SOL    HW2  549   0.383   1.647   1.592
  178SOL     OW  550   1.674   0.883   1.254
  178SOL    HW1  551   1.647   0.794   1.217
  178SOL    HW2  552   1.675   0.951   1.181
  179SOL     OW  553   1.225   0.325   0.449
  179SOL    HW1  554   1.290   0.251   0.438
  179SOL    HW2  555   1.245   0.375   0.533
  180SOL     OW  556   0.594   0.745   0.652
  180SOL    HW1  557   0.644   0.830   0.633
  180SOL    HW2  558   0.506   0.747   0.604
  181SOL     OW  559   1.777   0.342   1.642
  181SOL    HW1  560   1.760   0.373   1.548
  181SOL    HW2  561   1.693   0.305   1.680
  182SOL     OW  562   1.730   0.934   1.517
  182SOL    HW1  563   1.768   1.025   1.532
  182SOL    HW2  564   1.722   0.917   1.418
  183SOL     OW  565   0.859   1.374   0.016
  183SOL    HW1  566   0.813   1.389   0.104
  183SOL    HW2  567   0.903   1.459  -0.014
  184SOL     OW  568   0.661   1.790   0.953
  184SOL    HW1  569   0.615   1.878   0.940
  184SOL    HW2  570   0.760   1.802   0.946
  185SOL     OW  571   0.859   0.956   0.861
  185SOL    HW1  572   0.913   0.887   0.909
  185SOL    HW2  573   0.827   1.025   0.927
  186SOL     OW  574   1.083   0.984   0.087
  186SOL    HW1  575   1.060   1.037   0.005
  186SOL    HW2  576   1.164   0.928   0.068
  187SOL     OW  577   1.861   1.569   0.851
  187SOL    HW1  578   1.790   1.557   0.781
  187SOL    HW2  579   1.862   1.490   0.911
  188SOL     OW  580   0.221   1.314   1.844
  188SOL    HW1  581   0.156   1.241   1.823
  188SOL    HW2  582   0.225   1.328   1.942
  189SOL     OW  583   0.079   1.240   0.653
  189SOL    HW1  584   0.078   1.193   0.741
  189SOL    HW2  585   0.161   1.212   0.602
  190SOL     OW  586   0.672   1.391   1.624
  190SOL    HW1  587   0.594   1.341   1.662
  190SOL    HW2  588   0.669   1.486   1.655
  191SOL     OW  589   1.824   0.192   1.227
  191SOL    HW1  590   1.820   0.102   1.271
  191SOL    HW2  591   1.827   0.181   1.128
  192SOL     OW  592   0.428   0.424   0.520
  192SOL    HW1  593   0.458   0.352   0.458
  192SOL    HW2  594   0.389   0.384   0.603
  193SOL     OW  595   0.317   0.547   1.280
  193SOL    HW1  596   0.355   0.488   1.352
  193SOL    HW2  597   0.357   0.521   1.192
  194SOL     OW  598   0.812   1.586   0.687
  194SOL    HW1  599   0.844   1.596   0.593
  194SOL    HW2  600   0.733   1.524   0.689
  195SOL     OW  601   1.424   0.214   1.112
  195SOL    HW1  602   1.476   0.149   1.167
  195SOL    HW2  603   1.375   0.277   1.173
  196SOL     OW  604   1.001   0.034   1.154
  196SOL    HW1  605   0.938  -0.038   1.123
  196SOL    HW2  606   1.094  -0.002   1.154
  197SOL     OW  607   0.770   1.330   0.301
  197SOL    HW1  608   0.724   1.243   0.318
  197SOL    HW2  609   0.861   1.327   0.342
  198SOL     OW  610   0.618   1.567   1.284
  198SOL    HW1  611   0.613   1.649   1.341
  198SOL    HW2  612   0.707   1.564   1.239
  199SOL     OW  613   1.352   0.052   0.168
  199SOL    HW1  614   1.387   0.011   0.084
  199SOL    HW2  615   1.262   0.014   0.188
  200SOL     OW  616   1.300   0.453   0.691
  200SOL    HW1  617   1.241   0.533   0.695
  200SOL    HW2  618   1.315   0.418   0.784
  201SOL     OW  619   1.593   0.221   0.882
  201SOL    HW1  620   1.509   0.220   0.936
  201SOL    HW2  621   1.595   0.304   0.826
  202SOL     OW  622   0.039   1.077   0.300
  202SOL    HW1  623   0.138   1.066   0.291
  202SOL    HW2  624  -0.001   0.991   0.332
  203SOL     OW  625   0.875   1.646   0.337
  203SOL    HW1  626   0.798   1.611   0.283
  203SOL    HW2  627   0.843   1.717   0.399
  204SOL     OW  628   0.230   0.628   1.975
  204SOL    HW1  629   0.137   0.626   2.012
  204SOL    HW2  630   0.231   0.589   1.883
  205SOL     OW  631   0.019   0.368   2.509
  205SOL    HW1  632  -0.063   0.411   2.548
  205SOL    HW2  633  -0.009   0.295   2.446
  206SOL     OW  634   1.555   1.511   2.565
  206SOL    HW1  635   1.498   1.495   2.646
  206SOL    HW2  636   1.496   1.521   2.485
  207SOL     OW  637   1.135   0.703   2.579
  207SOL    HW1  638   1.192   0.781   2.554
  207SOL    HW2  639   1.075   0.729   2.655
  208SOL     OW  640   1.755   0.607   2.093
  208SOL    HW1  641   1.743   0.594   1.994
  208SOL    HW2  642   1.725   0.526   2.142
  209SOL     OW  643   0.768   1.144   2.885
  209SOL    HW1  644   0.690   1.161   2.945
  209SOL    HW2  645   0.802   1.231   2.849
  210SOL     OW  646   0.685   1.012   2.527
  210SOL    HW1  647   0.754   0.996   2.597
  210SOL    HW2  648   0.612   1.069   2.565
  211SOL     OW  649   1.603   0.447   2.599
  211SOL    HW1  650   1.529   0.493   2.549
  211SOL    HW2  651   1.654   0.515   2.652
  212SOL     OW  652   0.231   1.713   2.345
  212SOL    HW1  653   0.265   1.790   2.399
  212SOL    HW2  654   0.275   1.713   2.255
  213SOL     OW  655   0.230   1.434   2.400
  213SOL    HW1  656   0.204   1.530   2.400
  213SOL    HW2  657   0.159   1.380   2.445
  214SOL     OW  658   0.240   1.091   2.748
  214SOL    HW1  659   0.254   1.007   2.800
  214SOL    HW2  660   0.185   1.155   2.803
  215SOL     OW  661   0.606   0.964   1.985
  215SOL    HW1  662   0.613   1.048   1.931
  215SOL    HW2  663   0.652   0.977   2.073
  216SOL     OW  664   0.122   0.643   2.425
  216SOL    HW1  665   0.077   0.555   2.442
  216SOL    HW2  666   0.121   0.697   2.509
  217SOL     OW  667   1.842   1.767   2.221
  217SOL    HW1  668   1.896   1.738   2.301
  217SOL    HW2  669   1.872   1.857   2.192
  218SOL     OW  670   0.027   1.596   1.979
  218SOL    HW1  671   0.008   1.500   2.000
  218SOL    HW2  672  -0.006   1.654   2.054
  219SOL     OW  673   1.689   0.922   2.474
  219SOL    HW1  674   1.784   0.893   2.482
  219SOL    HW2  675   1.681   0.987   2.399
  220SOL     OW  676   1.641   1.108   2.294
  220SOL    HW1  677   1.727   1.110   2.242
  220SOL    HW2  678   1.655   1.155   2.382
  221SOL     OW  679   0.613   1.365   2.588
  221SOL    HW1  680   0.564   1.278   2.597
  221SOL    HW2  681   0.590   1.408   2.501
  222SOL     OW  682   0.809   0.004   2.364
  222SOL    HW1  683   0.849   0.095   2.355
  222SOL    HW2  684   0.709   0.012   2.370
  223SOL     OW  685   1.525   0.999   2.052
  223SOL    HW1  686   1.462   0.923   2.065
  223SOL    HW2  687   1.573   1.017   2.138
  224SOL     OW  688   1.667   1.714   2.434
  224SOL    HW1  689   1.626   1.691   2.346
  224SOL    HW2  690   1.649   1.640   2.499
  225SOL     OW  691   0.598   0.729   2.132
  225SOL    HW1  692   0.622   0.798   2.064
  225SOL    HW2  693   0.520   0.762   2.186
  226SOL     OW  694   1.281   0.345   2.806
  226SOL    HW1  695   1.195   0.295   2.793
  226SOL    HW2  696   1.343   0.291   2.862
  227SOL     OW  697   1.576   1.662   2.169
  227SOL    HW1  698   1.665   1.708   2.172
  227SOL    HW2  699   1.555   1.638   2.074
  228SOL     OW  700   1.041   0.701   2.291
  228SOL    HW1  701   1.067   0.697   2.387
  228SOL    HW2  702   0.956   0.650   2.277
  229SOL     OW  703   0.076   0.811   2.651
  229SOL    HW1  704   0.175   0.799   2.660
  229SOL    HW2  705   0.052   0.906   2.672
  230SOL     OW  706   0.865   0.348   2.057
  230SOL    HW1  707   0.924   0.411   2.008
  230SOL    HW2  708   0.884   0.254   2.028
  231SOL     OW  709   1.362   1.144   2.407
  231SOL    HW1  710   1.445   1.115   2.359
  231SOL    HW2  711   1.313   1.211   2.351
  232SOL     OW  712   1.008   1.456   2.339
  232SOL    HW1  713   0.962   1.528   2.287
  232SOL    HW2  714   1.004   1.476   2.437
  233SOL     OW  715   0.351   1.801   2.715
  233SOL    HW1  716   0.401   1.715   2.721
  233SOL    HW2  717   0.416   1.878   2.712
  234SOL     OW  718   1.795   1.066   2.735
  234SOL    HW1  719   1.733   1.051   2.659
  234SOL    HW2  720   1.743   1.077   2.820
  235SOL     OW  721   0.321   0.943   2.104
  235SOL    HW1  722   0.403   0.982   2.062
  235SOL    HW2  723   0.294   0.861   2.055
  236SOL     OW  724   1.458   0.735   2.590
  236SOL    HW1  725   1.453   0.670   2.665
  236SOL    HW2  726   1.538   0.794   2.603
  237SOL     OW  727   1.111   1.776   2.099
  237SOL    HW1  728   1.051   1.714   2.149
  237SOL    HW2  729   1.142   1.732   2.014
  238SOL     OW  730   1.632   1.377   1.943
  238SOL    HW1  731   1.600   1.471   1.933
  238SOL    HW2  732   1.556   1.314   1.931
  239SOL     OW  733   0.464   1.743   2.185
  239SOL    HW1  734   0.497   1.782   2.271
  239SOL    HW2  735   0.540   1.736   2.120
  240SOL     OW  736   1.400   0.107   2.288
  240SOL    HW1  737   1.376   0.070   2.198
  240SOL    HW2  738   1.499   0.123   2.292
  241SOL     OW  739   0.382   0.700   2.342
  241SOL    HW1  740   0.427   0.610   2.339
  241SOL    HW2  741   0.288   0.689   2.375
  242SOL     OW  742   0.614   0.122   1.979
  242SOL    HW1  743   0.712   0.100   1.986
  242SOL    HW2  744   0.583   0.105   1.886
  243SOL     OW  745   0.539   0.064   2.374
  243SOL    HW1  746   0.458   0.065   2.432
  243SOL    HW2  747   0.542   0.147   2.319
  244SOL     OW  748   1.434   1.188   1.903
  244SOL    HW1  749   1.466   1.112   1.960
  244SOL    HW2  750   1.342   1.215   1.933
  245SOL     OW  751   0.297   0.035   2.033
  245SOL    HW1  752   0.346   0.119   2.012
  245SOL    HW2  753   0.359  -0.030   2.078
  246SOL     OW  754   0.935   0.236   2.342
  246SOL    HW1  755   0.887   0.277   2.264
  246SOL    HW2  756   1.034   0.234   2.323
  247SOL     OW  757   0.459   1.152   2.603
  247SOL    HW1  758   0.388   1.125   2.668
  247SOL    HW2  759   0.433   1.124   2.510
  248SOL     OW  760   1.271   1.797   2.453
  248SOL    HW1  761   1.315   1.861   2.389
  248SOL    HW2  762   1.221   1.849   2.523
  249SOL     OW  763   1.032   0.549   1.878
  249SOL    HW1  764   0.991   0.631   1.839
  249SOL    HW2  765   1.096   0.575   1.951
  250SOL     OW  766   0.866   0.454   2.504
  250SOL    HW1  767   0.834   0.526   2.442
  250SOL    HW2  768   0.890   0.373   2.451
  251SOL     OW  769   1.017   0.039   2.615
  251SOL    HW1  770   0.945   0.044   2.546
  251SOL    HW2  771   0.993  -0.030   2.684
  252SOL     OW  772   1.857   0.833   2.239
  252SOL    HW1  773   1.899   0.769   2.303
  252SOL    HW2  774   1.819   0.782   2.161
  253SOL     OW  775   0.488   1.385   2.036
  253SOL    HW1  776   0.401   1.370   2.083
  253SOL    HW2  777   0.471   1.411   1.941
  254SOL     OW  778   1.664   1.280   2.519
  254SOL    HW1  779   1.763   1.288   2.533
  254SOL    HW2  780   1.619   1.364   2.550
  255SOL     OW  781   1.390   0.575   1.940
  255SOL    HW1  782   1.336   0.554   2.021
  255SOL    HW2  783   1.481   0.534   1.949
  256SOL     OW  784   0.527   0.256   2.190
  256SOL    HW1  785   0.554   0.197   2.115
  256SOL    HW2  786   0.527   0.351   2.159
  257SOL     OW  787   0.705   1.050   2.230
  257SOL    HW1  788   0.691   1.057   2.329
  257SOL    HW2  789   0.789   0.999   2.212
  258SOL     OW  790   0.367   1.100   2.363
  258SOL    HW1  791   0.360   1.183   2.307
  258SOL    HW2  792   0.371   1.020   2.303
  259SOL     OW  793   0.566   0.537   2.727
  259SOL    HW1  794   0.578   0.603   2.653
  259SOL    HW2  795   0.612   0.571   2.810
  260SOL     OW  796   1.252   1.348   2.250
  260SOL    HW1  797   1.302   1.425   2.290
  260SOL    HW2  798   1.157   1.350   2.282
  261SOL     OW  799   1.582   0.639   2.334
  261SOL    HW1  800   1.551   0.700   2.407
  261SOL    HW2  801   1.632   0.691   2.265
  262SOL     OW  802   1.209   0.525   2.137
  262SOL    HW1  803   1.222   0.441   2.191
  262SOL    HW2  804   1.180   0.599   2.197
  263SOL     OW  805   0.307   0.063   2.480
  263SOL    HW1  806   0.296   0.157   2.513
  263SOL    HW2  807   0.302   0.000   2.557
  264SOL     OW  808   1.622   0.367   2.236
  264SOL    HW1  809   1.624   0.291   2.300
  264SOL    HW2  810   1.574   0.444   2.276
  265SOL     OW  811   1.540   0.274   1.987
  265SOL    HW1  812   1.479   0.199   2.010
  265SOL    HW2  813   1.562   0.326   2.070
  266SOL     OW  814   1.303   0.838   1.904
  266SOL    HW1  815   1.337   0.745   1.919
  266SOL    HW2  816   1.321   0.865   1.809
  267SOL     OW  817   1.068   1.333   2.711
  267SOL    HW1  818   1.075   1.249   2.656
  267SOL    HW2  819   1.130   1.402   2.675
  268SOL     OW  820   0.008   1.326   2.062
  268SOL    HW1  821  -0.085   1.347   2.031
  268SOL    HW2  822   0.018   1.227   2.075
  269SOL     OW  823   0.088   1.801   2.789
  269SOL    HW1  824   0.046   1.715   2.762
  269SOL    HW2  825   0.182   1.804   2.755
  270SOL     OW  826   0.815   0.572   2.187
  270SOL    HW1  827   0.822   0.483   2.141
  270SOL    HW2  828   0.721   0.606   2.179
  271SOL     OW  829   0.473   0.500   2.053
  271SOL    HW1  830   0.534   0.580   2.057
  271SOL    HW2  831   0.378   0.531   2.060
  272SOL     OW  832   1.302   0.855   2.171
  272SOL    HW1  833   1.216   0.824   2.213
  272SOL    HW2  834   1.298   0.841   2.072
  273SOL     OW  835   1.726   0.135   2.385
  273SOL    HW1  836   1.799   0.118   2.318
  273SOL    HW2  837   1.695   0.048   2.423
  274SOL     OW  838   1.388   1.573   2.339
  274SOL    HW1  839   1.455   1.585   2.265
  274SOL    HW2  840   1.348   1.662   2.362
  275SOL     OW  841   1.280   0.927   2.534
  275SOL    HW1  842   1.340   0.846   2.536
  275SOL    HW2  843   1.320   0.996   2.474
  276SOL     OW  844   0.672   1.616   2.016
  276SOL    HW1  845   0.681   1.626   1.917
  276SOL    HW2  846   0.632   1.527   2.037
  277SOL     OW  847   1.841   0.175   2.825
  277SOL    HW1  848   1.880   0.090   2.789
  277SOL    HW2  849   1.743   0.177   2.806
  278SOL     OW  850   0.263   0.326   2.582
  278SOL    HW1  851   0.184   0.377   2.548
  278SOL    HW2  852   0.254   0.311   2.680
  279SOL     OW  853   0.916   0.910   2.153
  279SOL    HW1  854   0.979   0.948   2.085
  279SOL    HW2  855   0.956   0.827   2.192
  280SOL     OW  856   1.504   1.607   1.906
  280SOL    HW1  857   1.412   1.644   1.913
  280SOL    HW2  858   1.542   1.627   1.816
  281SOL     OW  859   1.039   1.098   2.558
  281SOL    HW1  860   0.969   1.051   2.612
  281SOL    HW2  861   1.098   1.030   2.515
  282SOL     OW  862   0.590   1.487   2.353
  282SOL    HW1  863   0.632   1.429   2.283
  282SOL    HW2  864   0.546   1.566   2.309
  283SOL     OW  865   0.255   1.348   2.152
  283SOL    HW1  866   0.159   1.349   2.125
  283SOL    HW2  867   0.267   1.401   2.236
  284SOL     OW  868   0.075   0.345   1.895
  284SOL    HW1  869  -0.017   0.317   1.866
  284SOL    HW2  870   0.106   0.422   1.839
  285SOL     OW  871   0.072   0.166   2.180
  285SOL    HW1  872   0.055   0.249   2.126
  285SOL    HW2  873   0.162   0.129   2.158
  286SOL     OW  874   1.183   1.335   1.981
  286SOL    HW1  875   1.084   1.324   1.983
  286SOL    HW2  876   1.217   1.350   2.074
  287SOL     OW  877   1.225   0.325   2.311
  287SOL    HW1  878   1.290   0.251   2.300
  287SOL    HW2  879   1.245   0.375   2.395
  288SOL     OW  880   0.594   0.745   2.514
  288SOL    HW1  881   0.644   0.830   2.495
  288SOL    HW2  882   0.506   0.747   2.466
  289SOL     OW  883   0.859   1.374   1.878
  289SOL    HW1  884   0.813   1.389   1.966
  289SOL    HW2  885   0.903   1.459   1.848
  290SOL     OW  886   0.661   1.790   2.815
  290SOL    HW1  887   0.615   1.878   2.802
  290SOL    HW2  888   0.760   1.802   2.808
  291SOL     OW  889   0.859   0.956   2.723
  291SOL    HW1  890   0.913   0.887   2.771
  291SOL    HW2  891   0.827   1.025   2.789
  292SOL     OW  892   1.083   0.984   1.949
  292SOL    HW1  893   1.060   1.037   1.867
  292SOL    HW2  894   1.164   0.928   1.930
  293SOL     OW  895   1.861   1.569   2.713
  293SOL    HW1  896   1.790   1.557   2.643
  293SOL    HW2  897   1.862   1.490   2.773
  294SOL     OW  898   0.079   1.240   2.515
  294SOL    HW1  899   0.078   1.193   2.603
  294SOL    HW2  900   0.161   1.212   2.464
  295SOL     OW  901   0.428   0.424   2.382
  295SOL    HW1  902   0.458   0.352   2.320
  295SOL    HW2  903   0.389   0.384   2.465
  296SOL     OW  904   0.812   1.586   2.549
  296SOL    HW1  905   0.844   1.596   2.455
  296SOL    HW2  906   0.733   1.524   2.551
  297SOL     OW  907   0.770   1.330   2.163
  297SOL    HW1  908   0.724   1.243   2.180
  297SOL    HW2  909   0.861   1.327   2.204
  298SOL     OW  910   1.352   0.052   2.030
  298SOL    HW1  911   1.387   0.011   1.946
  298SOL    HW2  912   1.262   0.014   2.050
  299SOL     OW  913   1.300   0.453   2.553
  299SOL    HW1  914   1.241   0.533   2.557
  299SOL    HW2  915   1.315   0.418   2.646
  300SOL     OW  916   0.039   1.077   2.162
  300SOL    HW1  917   0.138   1.066   2.153
  300SOL    HW2  918  -0.001   0.991   2.194
  301SOL     OW  919   0.875   1.646   2.199
  301SOL    HW1  920   0.798   1.611   2.145
  301SOL    HW2  921   0.843   1.717   2.261
  302SOL     OW  922   0.230   2.490   0.113
  302SOL    HW1  923   0.137   2.488   0.150
  302SOL    HW2  924   0.231   2.451   0.021
  303SOL     OW  925   0.225   2.137   0.996
  303SOL    HW1  926   0.260   2.120   1.088
  303SOL    HW2  927   0.137   2.092   0.984
  304SOL     OW  928   0.019   2.230   0.647
  304SOL    HW1  929  -0.063   2.273   0.686
  304SOL    HW2  930  -0.009   2.157   0.584
  305SOL     OW  931   1.135   2.565   0.717
  305SOL    HW1  932   1.192   2.643   0.692
  305SOL    HW2  933   1.075   2.591   0.793
  306SOL     OW  934   1.755   2.469   0.231
  306SOL    HW1  935   1.743   2.456   0.132
  306SOL    HW2  936   1.725   2.388   0.280
  307SOL     OW  937   0.850   2.660   1.823
  307SOL    HW1  938   0.846   2.736   1.888
  307SOL    HW2  939   0.872   2.696   1.732
  308SOL     OW  940   0.685   2.874   0.665
  308SOL    HW1  941   0.754   2.858   0.735
  308SOL    HW2  942   0.612   2.931   0.703
  309SOL     OW  943   0.438   2.254   1.499
  309SOL    HW1  944   0.520   2.198   1.508
  309SOL    HW2  945   0.357   2.196   1.503
  310SOL     OW  946   1.603   2.309   0.737
  310SOL    HW1  947   1.529   2.355   0.687
  310SOL    HW2  948   1.654   2.377   0.790
  311SOL     OW  949   1.594   1.976   1.480
  311SOL    HW1  950   1.576   2.043   1.408
  311SOL    HW2  951   1.591   2.022   1.569
  312SOL     OW  952   0.122   2.505   0.563
  312SOL    HW1  953   0.077   2.417   0.580
  312SOL    HW2  954   0.121   2.559   0.647
  313SOL     OW  955   0.113   2.599   1.597
  313SOL    HW1  956   0.201   2.586   1.642
  313SOL    HW2  957   0.100   2.696   1.575
  314SOL     OW  958   0.809   1.866   0.502
  314SOL    HW1  959   0.849   1.957   0.493
  314SOL    HW2  960   0.709   1.874   0.508
  315SOL     OW  961   0.317   2.113   1.801
  315SOL    HW1  962   0.388   2.184   1.807
  315SOL    HW2  963   0.229   2.152   1.829
  316SOL     OW  964   0.598   2.591   0.270
  316SOL    HW1  965   0.622   2.660   0.202
  316SOL    HW2  966   0.520   2.624   0.324
  317SOL     OW  967   1.281   2.207   0.944
  317SOL    HW1  968   1.195   2.157   0.931
  317SOL    HW2  969   1.343   2.153   1.000
  318SOL     OW  970   0.807   2.467   1.465
  318SOL    HW1  971   0.760   2.464   1.554
  318SOL    HW2  972   0.756   2.412   1.399
  319SOL     OW  973   1.394   2.331   1.674
  319SOL    HW1  974   1.374   2.374   1.762
  319SOL    HW2  975   1.472   2.269   1.683
  320SOL     OW  976   0.991   2.272   1.242
  320SOL    HW1  977   0.914   2.306   1.296
  320SOL    HW2  978   0.957   2.221   1.163
  321SOL     OW  979   1.041   2.563   0.429
  321SOL    HW1  980   1.067   2.559   0.525
  321SOL    HW2  981   0.956   2.512   0.415
  322SOL     OW  982   0.076   2.673   0.789
  322SOL    HW1  983   0.175   2.661   0.798
  322SOL    HW2  984   0.052   2.768   0.810
  323SOL     OW  985   0.865   2.210   0.195
  323SOL    HW1  986   0.924   2.273   0.146
  323SOL    HW2  987   0.884   2.116   0.166
  324SOL     OW  988   1.719   2.447   1.831
  324SOL    HW1  989   1.693   2.536   1.795
  324SOL    HW2  990   1.717   2.379   1.758
  325SOL     OW  991   0.550   2.058   0.885
  325SOL    HW1  992   0.545   2.053   0.985
  325SOL    HW2  993   0.552   2.154   0.856
  326SOL     OW  994   1.458   2.597   0.728
  326SOL    HW1  995   1.453   2.532   0.803
  326SOL    HW2  996   1.538   2.656   0.741
  327SOL     OW  997   0.202   2.147   1.498
  327SOL    HW1  998   0.122   2.207   1.485
  327SOL    HW2  999   0.192   2.098   1.584
  328SOL     OW 1000   1.400   1.969   0.426
  328SOL    HW1 1001   1.376   1.932   0.336
  328SOL    HW2 1002   1.499   1.985   0.430
  329SOL     OW 1003   0.382   2.562   0.480
  329SOL    HW1 1004   0.427   2.472   0.477
  329SOL    HW2 1005   0.288   2.551   0.513
  330SOL     OW 1006   1.547   2.084   1.729
  330SOL    HW1 1007   1.542   2.121   1.821
  330SOL    HW2 1008   1.475   2.015   1.717
  331SOL     OW 1009   0.781   2.126   1.749
  331SOL    HW1 1010   0.848   2.065   1.792
  331SOL    HW2 1011   0.708   2.145   1.814
  332SOL     OW 1012   1.351   2.452   1.433
  332SOL    HW1 1013   1.379   2.409   1.518
  332SOL    HW2 1014   1.376   2.548   1.434
  333SOL     OW 1015   0.922   2.365   0.899
  333SOL    HW1 1016   0.897   2.356   0.803
  333SOL    HW2 1017   0.970   2.283   0.930
  334SOL     OW 1018   0.539   1.926   0.512
  334SOL    HW1 1019   0.458   1.927   0.570
  334SOL    HW2 1020   0.542   2.009   0.457
  335SOL     OW 1021   0.297   1.897   0.171
  335SOL    HW1 1022   0.346   1.981   0.150
  335SOL    HW2 1023   0.359   1.832   0.216
  336SOL     OW 1024   0.935   2.098   0.480
  336SOL    HW1 1025   0.887   2.139   0.402
  336SOL    HW2 1026   1.034   2.096   0.461
  337SOL     OW 1027   1.076   2.545   1.464
  337SOL    HW1 1028   0.996   2.484   1.467
  337SOL    HW2 1029   1.157   2.492   1.440
  338SOL     OW 1030   0.459   3.014   0.741
  338SOL    HW1 1031   0.388   2.987   0.806
  338SOL    HW2 1032   0.433   2.986   0.648
  339SOL     OW 1033   1.032   2.411   0.016
  339SOL    HW1 1034   0.991   2.493  -0.023
  339SOL    HW2 1035   1.096   2.437   0.089
  340SOL     OW 1036   0.078   2.418   1.386
  340SOL    HW1 1037   0.170   2.417   1.345
  340SOL    HW2 1038   0.072   2.492   1.453
  341SOL     OW 1039   0.561   2.084   1.147
  341SOL    HW1 1040   0.599   2.000   1.184
  341SOL    HW2 1041   0.473   2.103   1.191
  342SOL     OW 1042   0.866   2.316   0.642
  342SOL    HW1 1043   0.834   2.388   0.580
  342SOL    HW2 1044   0.890   2.235   0.589
  343SOL     OW 1045   1.017   1.901   0.753
  343SOL    HW1 1046   0.945   1.906   0.684
  343SOL    HW2 1047   0.993   1.832   0.822
  344SOL     OW 1048   1.466   2.452   0.992
  344SOL    HW1 1049   1.436   2.357   0.999
  344SOL    HW2 1050   1.539   2.468   1.058
  345SOL     OW 1051   1.857   2.695   0.377
  345SOL    HW1 1052   1.899   2.631   0.441
  345SOL    HW2 1053   1.819   2.644   0.299
  346SOL     OW 1054   1.390   2.437   0.078
  346SOL    HW1 1055   1.336   2.416   0.159
  346SOL    HW2 1056   1.481   2.396   0.087
  347SOL     OW 1057   0.527   2.118   0.328
  347SOL    HW1 1058   0.554   2.059   0.253
  347SOL    HW2 1059   0.527   2.213   0.297
  348SOL     OW 1060   0.915   1.951   1.402
  348SOL    HW1 1061   0.940   1.931   1.307
  348SOL    HW2 1062   0.987   2.007   1.444
  349SOL     OW 1063   0.705   2.912   0.368
  349SOL    HW1 1064   0.691   2.919   0.467
  349SOL    HW2 1065   0.789   2.861   0.350
  350SOL     OW 1066   0.410   2.675   1.251
  350SOL    HW1 1067   0.496   2.687   1.301
  350SOL    HW2 1068   0.368   2.588   1.278
  351SOL     OW 1069   1.274   2.248   1.262
  351SOL    HW1 1070   1.295   2.322   1.326
  351SOL    HW2 1071   1.185   2.265   1.219
  352SOL     OW 1072   0.566   2.399   0.865
  352SOL    HW1 1073   0.578   2.465   0.791
  352SOL    HW2 1074   0.612   2.433   0.948
  353SOL     OW 1075   1.582   2.501   0.472
  353SOL    HW1 1076   1.551   2.562   0.545
  353SOL    HW2 1077   1.632   2.553   0.403
  354SOL     OW 1078   0.402   2.613   1.598
  354SOL    HW1 1079   0.470   2.668   1.551
  354SOL    HW2 1080   0.442   2.525   1.625
  355SOL     OW 1081   1.587   2.641   1.670
  355SOL    HW1 1082   1.495   2.679   1.665
  355SOL    HW2 1083   1.647   2.688   1.605
  356SOL     OW 1084   1.013   1.967   1.770
  356SOL    HW1 1085   1.019   2.052   1.718
  356SOL    HW2 1086   1.045   1.891   1.713
  357SOL     OW 1087   0.504   1.912   1.740
  357SOL    HW1 1088   0.462   1.855   1.670
  357SOL    HW2 1089   0.438   1.981   1.772
  358SOL     OW 1090   0.573   2.732   1.029
  358SOL    HW1 1091   0.617   2.821   1.020
  358SOL    HW2 1092   0.510   2.732   1.106
  359SOL     OW 1093   1.360   2.724   1.045
  359SOL    HW1 1094   1.285   2.724   0.979
  359SOL    HW2 1095   1.397   2.632   1.054
  360SOL     OW 1096   1.209   2.387   0.275
  360SOL    HW1 1097   1.222   2.303   0.329
  360SOL    HW2 1098   1.180   2.461   0.335
  361SOL     OW 1099   0.307   2.075   1.231
  361SOL    HW1 1100   0.284   2.112   1.321
  361SOL    HW2 1101   0.277   1.980   1.225
  362SOL     OW 1102   0.732   2.496   1.064
  362SOL    HW1 1103   0.791   2.470   0.988
  362SOL    HW2 1104   0.704   2.592   1.053
  363SOL     OW 1105   1.728   2.797   1.854
  363SOL    HW1 1106   1.682   2.790   1.765
  363SOL    HW2 1107   1.666   2.841   1.920
  364SOL     OW 1108   0.307   1.925   0.618
  364SOL    HW1 1109   0.296   2.019   0.651
  364SOL    HW2 1110   0.302   1.862   0.695
  365SOL     OW 1111   1.622   2.229   0.374
  365SOL    HW1 1112   1.624   2.153   0.438
  365SOL    HW2 1113   1.574   2.306   0.414
  366SOL     OW 1114   1.023   2.628   0.966
  366SOL    HW1 1115   1.038   2.649   1.062
  366SOL    HW2 1116   0.993   2.533   0.957
  367SOL     OW 1117   1.540   2.136   0.125
  367SOL    HW1 1118   1.479   2.061   0.148
  367SOL    HW2 1119   1.562   2.188   0.208
  368SOL     OW 1120   0.319   2.672   0.949
  368SOL    HW1 1121   0.412   2.708   0.954
  368SOL    HW2 1122   0.313   2.587   1.001
  369SOL     OW 1123   0.339   2.371   1.006
  369SOL    HW1 1124   0.287   2.288   0.989
  369SOL    HW2 1125   0.416   2.376   0.942
  370SOL     OW 1126   1.138   2.242   1.678
  370SOL    HW1 1127   1.093   2.305   1.742
  370SOL    HW2 1128   1.231   2.273   1.661
  371SOL     OW 1129   1.160   2.069   1.477
  371SOL    HW1 1130   1.160   2.133   1.554
  371SOL    HW2 1131   1.188   2.117   1.394
  372SOL     OW 1132   0.040   2.406   1.114
  372SOL    HW1 1133   0.125   2.373   1.073
  372SOL    HW2 1134   0.053   2.421   1.212
  373SOL     OW 1135   0.189   2.382   1.722
  373SOL    HW1 1136   0.248   2.342   1.652
  373SOL    HW2 1137   0.131   2.453   1.681
  374SOL     OW 1138   0.815   2.434   0.325
  374SOL    HW1 1139   0.822   2.345   0.279
  374SOL    HW2 1140   0.721   2.468   0.317
  375SOL     OW 1141   1.657   2.466   1.206
  375SOL    HW1 1142   1.619   2.397   1.268
  375SOL    HW2 1143   1.739   2.430   1.162
  376SOL     OW 1144   0.671   2.326   1.269
  376SOL    HW1 1145   0.637   2.237   1.239
  376SOL    HW2 1146   0.697   2.380   1.189
  377SOL     OW 1147   0.473   2.362   0.191
  377SOL    HW1 1148   0.534   2.442   0.195
  377SOL    HW2 1149   0.378   2.393   0.198
  378SOL     OW 1150   0.903   1.948   0.133
  378SOL    HW1 1151   0.954   1.949   0.047
  378SOL    HW2 1152   0.959   1.906   0.204
  379SOL     OW 1153   1.726   1.997   0.523
  379SOL    HW1 1154   1.799   1.980   0.456
  379SOL    HW2 1155   1.695   1.910   0.561
  380SOL     OW 1156   1.280   2.789   0.672
  380SOL    HW1 1157   1.340   2.708   0.674
  380SOL    HW2 1158   1.320   2.858   0.612
  381SOL     OW 1159   1.841   2.037   0.963
  381SOL    HW1 1160   1.880   1.952   0.927
  381SOL    HW2 1161   1.743   2.039   0.944
  382SOL     OW 1162   0.263   2.188   0.720
  382SOL    HW1 1163   0.184   2.239   0.686
  382SOL    HW2 1164   0.254   2.173   0.818
  383SOL     OW 1165   1.014   2.098   0.971
  383SOL    HW1 1166   1.006   2.062   0.878
  383SOL    HW2 1167   1.012   2.022   1.036
  384SOL     OW 1168   1.709   2.247   1.381
  384SOL    HW1 1169   1.782   2.316   1.385
  384SOL    HW2 1170   1.737   2.172   1.322
  385SOL     OW 1171   0.105   2.875   1.726
  385SOL    HW1 1172   0.028   2.842   1.780
  385SOL    HW2 1173   0.190   2.845   1.768
  386SOL     OW 1174   0.672   2.065   1.489
  386SOL    HW1 1175   0.762   2.049   1.449
  386SOL    HW2 1176   0.680   2.070   1.588
  387SOL     OW 1177   0.075   2.207   0.033
  387SOL    HW1 1178  -0.017   2.179   0.004
  387SOL    HW2 1179   0.106   2.284  -0.023
  388SOL     OW 1180   1.440   2.718   1.398
  388SOL    HW1 1181   1.383   2.770   1.335
  388SOL    HW2 1182   1.536   2.730   1.374
  389SOL     OW 1183   0.072   2.028   0.318
  389SOL    HW1 1184   0.055   2.111   0.264
  389SOL    HW2 1185   0.162   1.991   0.296
  390SOL     OW 1186   0.613   2.704   1.431
  390SOL    HW1 1187   0.669   2.785   1.414
  390SOL    HW2 1188   0.672   2.624   1.434
  391SOL     OW 1189   0.716   2.427   1.708
  391SOL    HW1 1190   0.735   2.492   1.782
  391SOL    HW2 1191   0.776   2.347   1.717
  392SOL     OW 1192   1.674   2.745   1.254
  392SOL    HW1 1193   1.647   2.656   1.217
  392SOL    HW2 1194   1.675   2.813   1.181
  393SOL     OW 1195   1.225   2.187   0.449
  393SOL    HW1 1196   1.290   2.113   0.438
  393SOL    HW2 1197   1.245   2.237   0.533
  394SOL     OW 1198   0.594   2.607   0.652
  394SOL    HW1 1199   0.644   2.692   0.633
  394SOL    HW2 1200   0.506   2.609   0.604
  395SOL     OW 1201   1.777   2.204   1.642
  395SOL    HW1 1202   1.760   2.235   1.548
  395SOL    HW2 1203   1.693   2.167   1.680
  396SOL     OW 1204   1.824   2.054   1.227
  396SOL    HW1 1205   1.820   1.964   1.271
  396SOL    HW2 1206   1.827   2.043   1.128
  397SOL     OW 1207   0.428   2.286   0.520
  397SOL    HW1 1208   0.458   2.214   0.458
  397SOL    HW2 1209   0.389   2.246   0.603
  398SOL     OW 1210   0.317   2.409   1.280
  398SOL    HW1 1211   0.355   2.350   1.352
  398SOL    HW2 1212   0.357   2.383   1.192
  399SOL     OW 1213   1.424   2.076   1.112
  399SOL    HW1 1214   1.476   2.011   1.167
  399SOL    HW2 1215   1.375   2.139   1.173
  400SOL     OW 1216   1.001   1.896   1.154
  400SOL    HW1 1217   0.938   1.824   1.123
  400SOL    HW2 1218   1.094   1.860   1.154
  401SOL     OW 1219   1.352   1.914   0.168
  401SOL    HW1 1220   1.387   1.873   0.084
  401SOL    HW2 1221   1.262   1.876   0.188
  402SOL     OW 1222   1.300   2.315   0.691
  402SOL    HW1 1223   1.241   2.395   0.695
  402SOL    HW2 1224   1.315   2.280   0.784
  403SOL     OW 1225   1.593   2.083   0.882
  403SOL    HW1 1226   1.509   2.082   0.936
  403SOL    HW2 1227   1.595   2.166   0.826
  404SOL     OW 1228   0.230   2.490   1.975
  404SOL    HW1 1229   0.137   2.488   2.012
  404SOL    HW2 1230   0.231   2.451   1.883
  405SOL     OW 1231   0.019   2.230   2.509
  405SOL    HW1 1232  -0.063   2.273   2.548
  405SOL    HW2 1233  -0.009   2.157   2.446
  406SOL     OW 1234   1.135   2.565   2.579
  406SOL    HW1 1235   1.192   2.643   2.554
  406SOL    HW2 1236   1.075   2.591   2.655
  407SOL     OW 1237   1.755   2.469   2.093
  407SOL    HW1 1238   1.743   2.456   1.994
  407SOL    HW2 1239   1.725   2.388   2.142
  408SOL     OW 1240   0.685   2.874   2.527
  408SOL    HW1 1241   0.754   2.858   2.597
  408SOL    HW2 1242   0.612   2.931   2.565
  409SOL     OW 1243   1.603   2.309   2.599
  409SOL    HW1 1244   1.529   2.355   2.549
  409SOL    HW2 1245   1.654   2.377   2.652
  410SOL     OW 1246   0.122   2.505   2.425
  410SOL    HW1 1247   0.077   2.417   2.442
  410SOL    HW2 1248   0.121   2.559   2.509
  411SOL     OW 1249   0.809   1.866   2.364
  411SOL    HW1 1250   0.849   1.957   2.355
  411SOL    HW2 1251   0.709   1.874   2.370
  412SOL     OW 1252   0.598   2.591   2.132
  412SOL    HW1 1253   0.622   2.660   2.064
  412SOL    HW2 1254   0.520   2.624   2.186
  413SOL     OW 1255   1.281   2.207   2.806
  413SOL    HW1 1256   1.195   2.157   2.793
  413SOL    HW2 1257   1.343   2.153   2.862
  414SOL     OW 1258   1.041   2.563   2.291
  414SOL    HW1 1259   1.067   2.559   2.387
  414SOL    HW2 1260   0.956   2.512   2.277
  415SOL     OW 1261   0.076   2.673   2.651
  415SOL    HW1 1262   0.175   2.661   2.660
  415SOL    HW2 1263   0.052   2.768   2.672
  416SOL     OW 1264   0.865   2.210   2.057
  416SOL    HW1 1265   0.924   2.273   2.008
  416SOL    HW2 1266   0.884   2.116   2.028
  417SOL     OW 1267   0.550   2.058   2.747
  417SOL    HW1 1268   0.545   2.053   2.847
  417SOL    HW2 1269   0.552   2.154   2.718
  418SOL     OW 1270   1.458   2.597   2.590
  418SOL    HW1 1271   1.453   2.532   2.665
  418SOL    HW2 1272   1.538   2.656   2.603
  419SOL     OW 1273   1.400   1.969   2.288
  419SOL    HW1 1274   1.376   1.932   2.198
  419SOL    HW2 1275   1.499   1.985   2.292
  420SOL     OW 1276   0.382   2.562   2.342
  420SOL    HW1 1277   0.427   2.472   2.339
  420SOL    HW2 1278   0.288   2.551   2.375
  421SOL     OW 1279   0.614   1.984   1.979
  421SOL    HW1 1280   0.712   1.962   1.986
  421SOL    HW2 1281   0.583   1.967   1.886
  422SOL     OW 1282   0.539   1.926   2.374
  422SOL    HW1 1283   0.458   1.927   2.432
  422SOL    HW2 1284   0.542   2.009   2.319
  423SOL     OW 1285   0.297   1.897   2.033
  423SOL    HW1 1286   0.346   1.981   2.012
  423SOL    HW2 1287   0.359   1.832   2.078
  424SOL     OW 1288   0.935   2.098   2.342
  424SOL    HW1 1289   0.887   2.139   2.264
  424SOL    HW2 1290   1.034   2.096   2.323
  425SOL     OW 1291   0.459   3.014   2.603
  425SOL    HW1 1292   0.388   2.987   2.668
  425SOL    HW2 1293   0.433   2.986   2.510
  426SOL     OW 1294   1.032   2.411   1.878
  426SOL    HW1 1295   0.991   2.493   1.839
  426SOL    HW2 1296   1.096   2.437   1.951
  427SOL     OW 1297   0.866   2.316   2.504
  427SOL    HW1 1298   0.834   2.388   2.442
  427SOL    HW2 1299   0.890   2.235   2.451
  428SOL     OW 1300   1.017   1.901   2.615
  428SOL    HW1 1301   0.945   1.906   2.546
  428SOL    HW2 1302   0.993   1.832   2.684
  429SOL     OW 1303   1.429   3.035   2.729
  429SOL    HW1 1304   1.374   2.951   2.722
  429SOL    HW2 1305   1.455   3.064   2.637
  430SOL     OW 1306   1.857   2.695   2.239
  430SOL    HW1 1307   1.899   2.631   2.303
  430SOL    HW2 1308   1.819   2.644   2.161
  431SOL     OW 1309   1.390   2.437   1.940
  431SOL    HW1 1310   1.336   2.416   2.021
  431SOL    HW2 1311   1.481   2.396   1.949
  432SOL     OW 1312   0.527   2.118   2.190
  432SOL    HW1 1313   0.554   2.059   2.115
  432SOL    HW2 1314   0.527   2.213   2.159
  433SOL     OW 1315   0.705   2.912   2.230
  433SOL    HW1 1316   0.691   2.919   2.329
  433SOL    HW2 1317   0.789   2.861   2.212
  434SOL     OW 1318   0.566   2.399   2.727
  434SOL    HW1 1319   0.578   2.465   2.653
  434SOL    HW2 1320   0.612   2.433   2.810
  435SOL     OW 1321   1.582   2.501   2.334
  435SOL    HW1 1322   1.551   2.562   2.407
  435SOL    HW2 1323   1.632   2.553   2.265
  436SOL     OW 1324   1.209   2.387   2.137
  436SOL    HW1 1325   1.222   2.303   2.191
  436SOL    HW2 1326   1.180   2.461   2.197
  437SOL     OW 1327   0.307   1.925   2.480
  437SOL    HW1 1328   0.296   2.019   2.513
  437SOL    HW2 1329   0.302   1.862   2.557
  438SOL     OW 1330   1.622   2.229   2.236
  438SOL    HW1 1331   1.624   2.153   2.300
  438SOL    HW2 1332   1.574   2.306   2.276
  439SOL     OW 1333   1.540   2.136   1.987
  439SOL    HW1 1334   1.479   2.061   2.010
  439SOL    HW2 1335   1.562   2.188   2.070
  440SOL     OW 1336   0.815   2.434   2.187
  440SOL    HW1 1337   0.822   2.345   2.141
  440SOL    HW2 1338   0.721   2.468   2.179
  441SOL     OW 1339   0.473   2.362   2.053
  441SOL    HW1 1340   0.534   2.442   2.057
  441SOL    HW2 1341   0.378   2.393   2.060
  442SOL     OW 1342   1.726   1.997   2.385
  442SOL    HW1 1343   1.799   1.980   2.318
  442SOL    HW2 1344   1.695   1.910   2.423
  443SOL     OW 1345   1.280   2.789   2.534
  443SOL    HW1 1346   1.340   2.708   2.536
  443SOL    HW2 1347   1.320   2.858   2.474
  444SOL     OW 1348   1.841   2.037   2.825
  444SOL    HW1 1349   1.880   1.952   2.789
  444SOL    HW2 1350   1.743   2.039   2.806
  445SOL     OW 1351   0.263   2.188   2.582
  445SOL    HW1 1352   0.184   2.239   2.548
  445SOL    HW2 1353   0.254   2.173   2.680
  446SOL     OW 1354   0.916   2.772   2.153
  446SOL    HW1 1355   0.979   2.810   2.085
  446SOL    HW2 1356   0.956   2.689   2.192
  447SOL     OW 1357   0.075   2.207   1.895
  447SOL    HW1 1358  -0.017   2.179   1.866
  447SOL    HW2 1359   0.106   2.284   1.839
  448SOL     OW 1360   0.072   2.028   2.180
  448SOL    HW1 1361   0.055   2.111   2.126
  448SOL    HW2 1362   0.162   1.991   2.158
  449SOL     OW 1363   1.225   2.187   2.311
  449SOL    HW1 1364   1.290   2.113   2.300
  449SOL    HW2 1365   1.245   2.237   2.395
  450SOL     OW 1366   0.594   2.607   2.514
  450SOL    HW1 1367   0.644   2.692   2.495
  450SOL    HW2 1368   0.506   2.609   2.466
  451SOL     OW 1369   0.428   2.286   2.382
  451SOL    HW1 1370   0.458   2.214   2.320
  451SOL    HW2 1371   0.389   2.246   2.465
  452SOL     OW 1372   1.352   1.914   2.030
  452SOL    HW1 1373   1.387   1.873   1.946
  452SOL    HW2 1374   1.262   1.876   2.050
  453SOL     OW 1375   1.300   2.315   2.553
  453SOL    HW1 1376   1.241   2.395   2.557
  453SOL    HW2 1377   1.315   2.280   2.646
  454SOL     OW 1378   2.092   0.628   0.113
  454SOL    HW1 1379   1.999   0.626   0.150
  454SOL    HW2 1380   2.093   0.589   0.021
  455SOL     OW 1381   2.087   0.275   0.996
  455SOL    HW1 1382   2.122   0.258   1.088
  455SOL    HW2 1383   1.999   0.230   0.984
  456SOL     OW 1384   1.881   0.368   0.647
  456SOL    HW1 1385   1.799   0.411   0.686
  456SOL    HW2 1386   1.853   0.295   0.584
  457SOL     OW 1387   2.431   1.275   1.165
  457SOL    HW1 1388   2.338   1.268   1.128
  457SOL    HW2 1389   2.442   1.364   1.209
  458SOL     OW 1390   2.712   0.798   1.823
  458SOL    HW1 1391   2.708   0.874   1.888
  458SOL    HW2 1392   2.734   0.834   1.732
  459SOL     OW 1393   2.547   1.012   0.665
  459SOL    HW1 1394   2.616   0.996   0.735
  459SOL    HW2 1395   2.474   1.069   0.703
  460SOL     OW 1396   2.548   1.161   1.803
  460SOL    HW1 1397   2.608   1.240   1.817
  460SOL    HW2 1398   2.462   1.192   1.762
  461SOL     OW 1399   2.197   1.435   1.061
  461SOL    HW1 1400   2.119   1.404   1.008
  461SOL    HW2 1401   2.255   1.493   1.004
  462SOL     OW 1402   2.300   0.392   1.499
  462SOL    HW1 1403   2.382   0.336   1.508
  462SOL    HW2 1404   2.219   0.334   1.503
  463SOL     OW 1405   2.093   1.713   0.483
  463SOL    HW1 1406   2.127   1.790   0.537
  463SOL    HW2 1407   2.137   1.713   0.393
  464SOL     OW 1408   2.092   1.434   0.538
  464SOL    HW1 1409   2.066   1.530   0.538
  464SOL    HW2 1410   2.021   1.380   0.583
  465SOL     OW 1411   2.102   1.091   0.886
  465SOL    HW1 1412   2.116   1.007   0.938
  465SOL    HW2 1413   2.047   1.155   0.941
  466SOL     OW 1414   2.482   1.786   1.439
  466SOL    HW1 1415   2.390   1.769   1.474
  466SOL    HW2 1416   2.510   1.878   1.465
  467SOL     OW 1417   2.468   0.964   0.123
  467SOL    HW1 1418   2.475   1.048   0.069
  467SOL    HW2 1419   2.514   0.977   0.211
  468SOL     OW 1420   1.984   0.643   0.563
  468SOL    HW1 1421   1.939   0.555   0.580
  468SOL    HW2 1422   1.983   0.697   0.647
  469SOL     OW 1423   1.889   1.596   0.117
  469SOL    HW1 1424   1.870   1.500   0.138
  469SOL    HW2 1425   1.856   1.654   0.192
  470SOL     OW 1426   1.975   0.737   1.597
  470SOL    HW1 1427   2.063   0.724   1.642
  470SOL    HW2 1428   1.962   0.834   1.575
  471SOL     OW 1429   2.475   1.365   0.726
  471SOL    HW1 1430   2.426   1.278   0.735
  471SOL    HW2 1431   2.452   1.408   0.639
  472SOL     OW 1432   2.671   0.004   0.502
  472SOL    HW1 1433   2.711   0.095   0.493
  472SOL    HW2 1434   2.571   0.012   0.508
  473SOL     OW 1435   2.059   0.976   1.264
  473SOL    HW1 1436   2.148   0.931   1.250
  473SOL    HW2 1437   1.986   0.911   1.245
  474SOL     OW 1438   2.179   0.251   1.801
  474SOL    HW1 1439   2.250   0.322   1.807
  474SOL    HW2 1440   2.091   0.290   1.829
  475SOL     OW 1441   2.460   0.729   0.270
  475SOL    HW1 1442   2.484   0.798   0.202
  475SOL    HW2 1443   2.382   0.762   0.324
  476SOL     OW 1444   2.669   0.605   1.465
  476SOL    HW1 1445   2.622   0.602   1.554
  476SOL    HW2 1446   2.618   0.550   1.399
  477SOL     OW 1447   1.938   0.811   0.789
  477SOL    HW1 1448   2.037   0.799   0.798
  477SOL    HW2 1449   1.914   0.906   0.810
  478SOL     OW 1450   1.992   1.821   1.571
  478SOL    HW1 1451   1.982   1.806   1.670
  478SOL    HW2 1452   1.906   1.857   1.535
  479SOL     OW 1453   2.412   0.196   0.885
  479SOL    HW1 1454   2.407   0.191   0.985
  479SOL    HW2 1455   2.414   0.292   0.856
  480SOL     OW 1456   2.213   1.801   0.853
  480SOL    HW1 1457   2.263   1.715   0.859
  480SOL    HW2 1458   2.278   1.878   0.850
  481SOL     OW 1459   2.183   0.943   0.242
  481SOL    HW1 1460   2.265   0.982   0.200
  481SOL    HW2 1461   2.156   0.861   0.193
  482SOL     OW 1462   2.323   1.266   1.727
  482SOL    HW1 1463   2.273   1.267   1.641
  482SOL    HW2 1464   2.260   1.248   1.803
  483SOL     OW 1465   2.064   0.285   1.498
  483SOL    HW1 1466   1.984   0.345   1.485
  483SOL    HW2 1467   2.054   0.236   1.584
  484SOL     OW 1468   2.326   1.743   0.323
  484SOL    HW1 1469   2.359   1.782   0.409
  484SOL    HW2 1470   2.402   1.736   0.258
  485SOL     OW 1471   2.111   1.785   1.241
  485SOL    HW1 1472   2.168   1.720   1.291
  485SOL    HW2 1473   2.095   1.752   1.148
  486SOL     OW 1474   2.244   0.700   0.480
  486SOL    HW1 1475   2.289   0.610   0.477
  486SOL    HW2 1476   2.150   0.689   0.513
  487SOL     OW 1477   2.476   0.122   0.117
  487SOL    HW1 1478   2.574   0.100   0.124
  487SOL    HW2 1479   2.445   0.105   0.024
  488SOL     OW 1480   2.643   0.264   1.749
  488SOL    HW1 1481   2.710   0.203   1.792
  488SOL    HW2 1482   2.570   0.283   1.814
  489SOL     OW 1483   2.665   1.402   0.924
  489SOL    HW1 1484   2.755   1.416   0.882
  489SOL    HW2 1485   2.594   1.404   0.853
  490SOL     OW 1486   2.784   0.503   0.899
  490SOL    HW1 1487   2.759   0.494   0.803
  490SOL    HW2 1488   2.832   0.421   0.930
  491SOL     OW 1489   2.401   0.064   0.512
  491SOL    HW1 1490   2.320   0.065   0.570
  491SOL    HW2 1491   2.404   0.147   0.457
  492SOL     OW 1492   2.159   0.035   0.171
  492SOL    HW1 1493   2.208   0.119   0.150
  492SOL    HW2 1494   2.221  -0.030   0.216
  493SOL     OW 1495   2.321   1.152   0.741
  493SOL    HW1 1496   2.250   1.125   0.806
  493SOL    HW2 1497   2.295   1.124   0.648
  494SOL     OW 1498   1.940   0.556   1.386
  494SOL    HW1 1499   2.032   0.555   1.345
  494SOL    HW2 1500   1.934   0.630   1.453
  495SOL     OW 1501   2.423   0.222   1.147
  495SOL    HW1 1502   2.461   0.138   1.184
  495SOL    HW2 1503   2.335   0.241   1.191
  496SOL     OW 1504   2.350   1.385   0.174
  496SOL    HW1 1505   2.263   1.370   0.221
  496SOL    HW2 1506   2.333   1.411   0.079
  497SOL     OW 1507   2.389   0.256   0.328
  497SOL    HW1 1508   2.416   0.197   0.253
  497SOL    HW2 1509   2.389   0.351   0.297
  498SOL     OW 1510   2.777   0.089   1.402
  498SOL    HW1 1511   2.802   0.069   1.307
  498SOL    HW2 1512   2.849   0.145   1.444
  499SOL     OW 1513   2.272   0.813   1.251
  499SOL    HW1 1514   2.358   0.825   1.301
  499SOL    HW2 1515   2.230   0.726   1.278
  500SOL     OW 1516   1.926   1.564   1.331
  500SOL    HW1 1517   1.880   1.646   1.297
  500SOL    HW2 1518   2.024   1.583   1.340
  501SOL     OW 1519   2.229   1.100   0.501
  501SOL    HW1 1520   2.222   1.183   0.445
  501SOL    HW2 1521   2.233   1.020   0.441
  502SOL     OW 1522   2.428   0.537   0.865
  502SOL    HW1 1523   2.440   0.603   0.791
  502SOL    HW2 1524   2.474   0.571   0.948
  503SOL     OW 1525   2.216   1.510   1.329
  503SOL    HW1 1526   2.195   1.466   1.242
  503SOL    HW2 1527   2.313   1.536   1.332
  504SOL     OW 1528   2.264   0.751   1.598
  504SOL    HW1 1529   2.332   0.806   1.551
  504SOL    HW2 1530   2.304   0.663   1.625
  505SOL     OW 1531   2.366   0.050   1.740
  505SOL    HW1 1532   2.324  -0.007   1.670
  505SOL    HW2 1533   2.300   0.119   1.772
  506SOL     OW 1534   2.435   0.870   1.029
  506SOL    HW1 1535   2.479   0.959   1.020
  506SOL    HW2 1536   2.372   0.870   1.106
  507SOL     OW 1537   2.169   0.213   1.231
  507SOL    HW1 1538   2.146   0.250   1.321
  507SOL    HW2 1539   2.139   0.118   1.225
  508SOL     OW 1540   1.899   1.310   1.282
  508SOL    HW1 1541   1.952   1.261   1.350
  508SOL    HW2 1542   1.921   1.408   1.287
  509SOL     OW 1543   2.594   0.634   1.064
  509SOL    HW1 1544   2.653   0.608   0.988
  509SOL    HW2 1545   2.566   0.730   1.053
  510SOL     OW 1546   2.169   0.063   0.618
  510SOL    HW1 1547   2.158   0.157   0.651
  510SOL    HW2 1548   2.164   0.000   0.695
  511SOL     OW 1549   2.885   0.766   0.966
  511SOL    HW1 1550   2.900   0.787   1.062
  511SOL    HW2 1551   2.855   0.671   0.957
  512SOL     OW 1552   2.842   1.573   1.700
  512SOL    HW1 1553   2.822   1.617   1.612
  512SOL    HW2 1554   2.881   1.482   1.684
  513SOL     OW 1555   2.212   0.898   1.804
  513SOL    HW1 1556   2.288   0.942   1.852
  513SOL    HW2 1557   2.247   0.851   1.722
  514SOL     OW 1558   2.181   0.810   0.949
  514SOL    HW1 1559   2.274   0.846   0.954
  514SOL    HW2 1560   2.175   0.725   1.001
  515SOL     OW 1561   2.201   0.509   1.006
  515SOL    HW1 1562   2.149   0.426   0.989
  515SOL    HW2 1563   2.278   0.514   0.942
  516SOL     OW 1564   1.870   1.326   0.200
  516SOL    HW1 1565   1.777   1.347   0.169
  516SOL    HW2 1566   1.880   1.227   0.213
  517SOL     OW 1567   1.950   1.801   0.927
  517SOL    HW1 1568   1.908   1.715   0.900
  517SOL    HW2 1569   2.044   1.804   0.893
  518SOL     OW 1570   2.366   1.568   0.910
  518SOL    HW1 1571   2.432   1.642   0.919
  518SOL    HW2 1572   2.410   1.489   0.868
  519SOL     OW 1573   1.902   0.544   1.114
  519SOL    HW1 1574   1.987   0.511   1.073
  519SOL    HW2 1575   1.915   0.559   1.212
  520SOL     OW 1576   2.051   0.520   1.722
  520SOL    HW1 1577   2.110   0.480   1.652
  520SOL    HW2 1578   1.993   0.591   1.681
  521SOL     OW 1579   2.677   0.572   0.325
  521SOL    HW1 1580   2.684   0.483   0.279
  521SOL    HW2 1581   2.583   0.606   0.317
  522SOL     OW 1582   2.114   1.564   1.744
  522SOL    HW1 1583   2.084   1.621   1.820
  522SOL    HW2 1584   2.107   1.467   1.770
  523SOL     OW 1585   2.533   0.464   1.269
  523SOL    HW1 1586   2.499   0.375   1.239
  523SOL    HW2 1587   2.559   0.518   1.189
  524SOL     OW 1588   2.335   0.500   0.191
  524SOL    HW1 1589   2.396   0.580   0.195
  524SOL    HW2 1590   2.240   0.531   0.198
  525SOL     OW 1591   2.021   1.137   1.466
  525SOL    HW1 1592   2.043   1.076   1.542
  525SOL    HW2 1593   2.031   1.088   1.380
  526SOL     OW 1594   1.945   1.258   1.022
  526SOL    HW1 1595   1.940   1.257   1.122
  526SOL    HW2 1596   1.862   1.217   0.984
  527SOL     OW 1597   2.550   1.662   1.716
  527SOL    HW1 1598   2.494   1.743   1.725
  527SOL    HW2 1599   2.602   1.666   1.630
  528SOL     OW 1600   2.765   0.086   0.133
  528SOL    HW1 1601   2.816   0.087   0.047
  528SOL    HW2 1602   2.821   0.044   0.204
  529SOL     OW 1603   1.992   1.794   1.851
  529SOL    HW1 1604   1.951   1.720   1.904
  529SOL    HW2 1605   2.056   1.845   1.909
  530SOL     OW 1606   2.692   1.273   1.422
  530SOL    HW1 1607   2.687   1.306   1.517
  530SOL    HW2 1608   2.606   1.292   1.376
  531SOL     OW 1609   2.534   1.616   0.154
  531SOL    HW1 1610   2.543   1.626   0.055
  531SOL    HW2 1611   2.494   1.527   0.175
  532SOL     OW 1612   2.125   0.326   0.720
  532SOL    HW1 1613   2.046   0.377   0.686
  532SOL    HW2 1614   2.116   0.311   0.818
  533SOL     OW 1615   3.056   1.612   0.031
  533SOL    HW1 1616   3.062   1.519   0.068
  533SOL    HW2 1617   2.997   1.612  -0.049
  534SOL     OW 1618   2.684   1.002   1.372
  534SOL    HW1 1619   2.724   1.001   1.280
  534SOL    HW2 1620   2.694   1.094   1.412
  535SOL     OW 1621   2.234   1.288   1.490
  535SOL    HW1 1622   2.221   1.381   1.456
  535SOL    HW2 1623   2.150   1.236   1.477
  536SOL     OW 1624   2.452   1.487   0.491
  536SOL    HW1 1625   2.494   1.429   0.421
  536SOL    HW2 1626   2.408   1.566   0.447
  537SOL     OW 1627   2.117   1.348   0.290
  537SOL    HW1 1628   2.021   1.349   0.263
  537SOL    HW2 1629   2.129   1.401   0.374
  538SOL     OW 1630   1.967   1.013   1.726
  538SOL    HW1 1631   1.890   0.980   1.780
  538SOL    HW2 1632   2.052   0.983   1.768
  539SOL     OW 1633   2.534   0.203   1.489
  539SOL    HW1 1634   2.624   0.187   1.449
  539SOL    HW2 1635   2.542   0.208   1.588
  540SOL     OW 1636   1.934   0.166   0.318
  540SOL    HW1 1637   1.917   0.249   0.264
  540SOL    HW2 1638   2.024   0.129   0.296
  541SOL     OW 1639   2.475   0.842   1.431
  541SOL    HW1 1640   2.531   0.923   1.414
  541SOL    HW2 1641   2.534   0.762   1.434
  542SOL     OW 1642   2.578   0.565   1.708
  542SOL    HW1 1643   2.597   0.630   1.782
  542SOL    HW2 1644   2.638   0.485   1.717
  543SOL     OW 1645   2.252   1.741   1.560
  543SOL    HW1 1646   2.161   1.782   1.558
  543SOL    HW2 1647   2.245   1.647   1.592
  544SOL     OW 1648   2.456   0.745   0.652
  544SOL    HW1 1649   2.506   0.830   0.633
  544SOL    HW2 1650   2.368   0.747   0.604
  545SOL     OW 1651   2.523   1.790   0.953
  545SOL    HW1 1652   2.477   1.878   0.940
  545SOL    HW2 1653   2.622   1.802   0.946
  546SOL     OW 1654   2.083   1.314   1.844
  546SOL    HW1 1655   2.018   1.241   1.823
  546SOL    HW2 1656   2.087   1.328   1.942
  547SOL     OW 1657   1.941   1.240   0.653
  547SOL    HW1 1658   1.940   1.193   0.741
  547SOL    HW2 1659   2.023   1.212   0.602
  548SOL     OW 1660   2.534   1.391   1.624
  548SOL    HW1 1661   2.456   1.341   1.662
  548SOL    HW2 1662   2.531   1.486   1.655
  549SOL     OW 1663   2.290   0.424   0.520
  549SOL    HW1 1664   2.320   0.352   0.458
  549SOL    HW2 1665   2.251   0.384   0.603
  550SOL     OW 1666   2.179   0.547   1.280
  550SOL    HW1 1667   2.217   0.488   1.352
  550SOL    HW2 1668   2.219   0.521   1.192
  551SOL     OW 1669   2.674   1.586   0.687
  551SOL    HW1 1670   2.706   1.596   0.593
  551SOL    HW2 1671   2.595   1.524   0.689
  552SOL     OW 1672   2.863   0.034   1.154
  552SOL    HW1 1673   2.800  -0.038   1.123
  552SOL    HW2 1674   2.956  -0.002   1.154
  553SOL     OW 1675   2.480   1.567   1.284
  553SOL    HW1 1676   2.475   1.649   1.341
  553SOL    HW2 1677   2.569   1.564   1.239
  554SOL     OW 1678   1.901   1.077   0.300
  554SOL    HW1 1679   2.000   1.066   0.291
  554SOL    HW2 1680   1.861   0.991   0.332
  555SOL     OW 1681   2.092   0.628   1.975
  555SOL    HW1 1682   1.999   0.626   2.012
  555SOL    HW2 1683   2.093   0.589   1.883
  556SOL     OW 1684   2.087   0.275   2.858
  556SOL    HW1 1685   2.122   0.258   2.950
  556SOL    HW2 1686   1.999   0.230   2.846
  557SOL     OW 1687   1.881   0.368   2.509
  557SOL    HW1 1688   1.799   0.411   2.548
  557SOL    HW2 1689   1.853   0.295   2.446
  558SOL     OW 1690   2.630   1.144   2.885
  558SOL    HW1 1691   2.552   1.161   2.945
  558SOL    HW2 1692   2.664   1.231   2.849
  559SOL     OW 1693   2.547   1.012   2.527
  559SOL    HW1 1694   2.616   0.996   2.597
  559SOL    HW2 1695   2.474   1.069   2.565
  560SOL     OW 1696   2.093   1.713   2.345
  560SOL    HW1 1697   2.127   1.790   2.399
  560SOL    HW2 1698   2.137   1.713   2.255
  561SOL     OW 1699   2.092   1.434   2.400
  561SOL    HW1 1700   2.066   1.530   2.400
  561SOL    HW2 1701   2.021   1.380   2.445
  562SOL     OW 1702   2.102   1.091   2.748
  562SOL    HW1 1703   2.116   1.007   2.800
  562SOL    HW2 1704   2.047   1.155   2.803
  563SOL     OW 1705   2.468   0.964   1.985
  563SOL    HW1 1706   2.475   1.048   1.931
  563SOL    HW2 1707   2.514   0.977   2.073
  564SOL     OW 1708   1.984   0.643   2.425
  564SOL    HW1 1709   1.939   0.555   2.442
  564SOL    HW2 1710   1.983   0.697   2.509
  565SOL     OW 1711   1.889   1.596   1.979
  565SOL    HW1 1712   1.870   1.500   2.000
  565SOL    HW2 1713   1.856   1.654   2.054
  566SOL     OW 1714   2.475   1.365   2.588
  566SOL    HW1 1715   2.426   1.278   2.597
  566SOL    HW2 1716   2.452   1.408   2.501
  567SOL     OW 1717   2.671   0.004   2.364
  567SOL    HW1 1718   2.711   0.095   2.355
  567SOL    HW2 1719   2.571   0.012   2.370
  568SOL     OW 1720   2.460   0.729   2.132
  568SOL    HW1 1721   2.484   0.798   2.064
  568SOL    HW2 1722   2.382   0.762   2.186
  569SOL     OW 1723   1.938   0.811   2.651
  569SOL    HW1 1724   2.037   0.799   2.660
  569SOL    HW2 1725   1.914   0.906   2.672
  570SOL     OW 1726   2.213   1.801   2.715
  570SOL    HW1 1727   2.263   1.715   2.721
  570SOL    HW2 1728   2.278   1.878   2.712
  571SOL     OW 1729   2.183   0.943   2.104
  571SOL    HW1 1730   2.265   0.982   2.062
  571SOL    HW2 1731   2.156   0.861   2.055
  572SOL     OW 1732   2.326   1.743   2.185
  572SOL    HW1 1733   2.359   1.782   2.271
  572SOL    HW2 1734   2.402   1.736   2.120
  573SOL     OW 1735   2.244   0.700   2.342
  573SOL    HW1 1736   2.289   0.610   2.339
  573SOL    HW2 1737   2.150   0.689   2.375
  574SOL     OW 1738   2.476   0.122   1.979
  574SOL    HW1 1739   2.574   0.100   1.986
  574SOL    HW2 1740   2.445   0.105   1.886
  575SOL     OW 1741   2.665   1.402   2.786
  575SOL    HW1 1742   2.755   1.416   2.744
  575SOL    HW2 1743   2.594   1.404   2.715
  576SOL     OW 1744   2.401   0.064   2.374
  576SOL    HW1 1745   2.320   0.065   2.432
  576SOL    HW2 1746   2.404   0.147   2.319
  577SOL     OW 1747   2.159   0.035   2.033
  577SOL    HW1 1748   2.208   0.119   2.012
  577SOL    HW2 1749   2.221  -0.030   2.078
  578SOL     OW 1750   2.321   1.152   2.603
  578SOL    HW1 1751   2.250   1.125   2.668
  578SOL    HW2 1752   2.295   1.124   2.510
  579SOL     OW 1753   2.350   1.385   2.036
  579SOL    HW1 1754   2.263   1.370   2.083
  579SOL    HW2 1755   2.333   1.411   1.941
  580SOL     OW 1756   2.389   0.256   2.190
  580SOL    HW1 1757   2.416   0.197   2.115
  580SOL    HW2 1758   2.389   0.351   2.159
  581SOL     OW 1759   2.229   1.100   2.363
  581SOL    HW1 1760   2.222   1.183   2.307
  581SOL    HW2 1761   2.233   1.020   2.303
  582SOL     OW 1762   2.428   0.537   2.727
  582SOL    HW1 1763   2.440   0.603   2.653
  582SOL    HW2 1764   2.474   0.571   2.810
  583SOL     OW 1765   2.169   0.063   2.480
  583SOL    HW1 1766   2.158   0.157   2.513
  583SOL    HW2 1767   2.164   0.000   2.557
  584SOL     OW 1768   1.870   1.326   2.062
  584SOL    HW1 1769   1.777   1.347   2.031
  584SOL    HW2 1770   1.880   1.227   2.075
  585SOL     OW 1771   1.950   1.801   2.789
  585SOL    HW1 1772   1.908   1.715   2.762
  585SOL    HW2 1773   2.044   1.804   2.755
  586SOL     OW 1774   2.677   0.572   2.187
  586SOL    HW1 1775   2.684   0.483   2.141
  586SOL    HW2 1776   2.583   0.606   2.179
  587SOL     OW 1777   2.335   0.500   2.053
  587SOL    HW1 1778   2.396   0.580   2.057
  587SOL    HW2 1779   2.240   0.531   2.060
  588SOL     OW 1780   2.534   1.616   2.016
  588SOL    HW1 1781   2.543   1.626   1.917
  588SOL    HW2 1782   2.494   1.527   2.037
  589SOL     OW 1783   2.125   0.326   2.582
  589SOL    HW1 1784   2.046   0.377   2.548
  589SOL    HW2 1785   2.116   0.311   2.680
  590SOL     OW 1786   2.452   1.487   2.353
  590SOL    HW1 1787   2.494   1.429   2.283
  590SOL    HW2 1788   2.408   1.566   2.309
  591SOL     OW 1789   2.117   1.348   2.152
  591SOL    HW1 1790   2.021   1.349   2.125
  591SOL    HW2 1791   2.129   1.401   2.236
  592SOL     OW 1792   1.937   0.345   1.895
  592SOL    HW1 1793   1.845   0.317   1.866
  592SOL    HW2 1794   1.968   0.422   1.839
  593SOL     OW 1795   1.934   0.166   2.180
  593SOL    HW1 1796   1.917   0.249   2.126
  593SOL    HW2 1797   2.024   0.129   2.158
  594SOL     OW 1798   2.456   0.745   2.514
  594SOL    HW1 1799   2.506   0.830   2.495
  594SOL    HW2 1800   2.368   0.747   2.466
  595SOL     OW 1801   2.523   1.790   2.815
  595SOL    HW1 1802   2.477   1.878   2.802
  595SOL    HW2 1803   2.622   1.802   2.808
  596SOL     OW 1804   1.941   1.240   2.515
  596SOL    HW1 1805   1.940   1.193   2.603
  596SOL    HW2 1806   2.023   1.212   2.464
  597SOL     OW 1807   2.290   0.424   2.382
  597SOL    HW1 1808   2.320   0.352   2.320
  597SOL    HW2 1809   2.251   0.384   2.465
  598SOL     OW 1810   2.674   1.586   2.549
  598SOL    HW1 1811   2.706   1.596   2.455
  598SOL    HW2 1812   2.595   1.524   2.551
  599SOL     OW 1813   1.901   1.077   2.162
  599SOL    HW1 1814   2.000   1.066   2.153
  599SOL    HW2 1815   1.861   0.991   2.194
  600SOL     OW 1816   2.092   2.490   0.113
  600SOL    HW1 1817   1.999   2.488   0.150
  600SOL    HW2 1818   2.093   2.451   0.021
  601SOL     OW 1819   2.087   2.137   0.996
  601SOL    HW1 1820   2.122   2.120   1.088
  601SOL    HW2 1821   1.999   2.092   0.984
  602SOL     OW 1822   1.881   2.230   0.647
  602SOL    HW1 1823   1.799   2.273   0.686
  602SOL    HW2 1824   1.853   2.157   0.584
  603SOL     OW 1825   2.712   2.660   1.823
  603SOL    HW1 1826   2.708   2.736   1.888
  603SOL    HW2 1827   2.734   2.696   1.732
  604SOL     OW 1828   2.547   2.874   0.665
  604SOL    HW1 1829   2.616   2.858   0.735
  604SOL    HW2 1830   2.474   2.931   0.703
  605SOL     OW 1831   2.300   2.254   1.499
  605SOL    HW1 1832   2.382   2.198   1.508
  605SOL    HW2 1833   2.219   2.196   1.503
  606SOL     OW 1834   1.984   2.505   0.563
  606SOL    HW1 1835   1.939   2.417   0.580
  606SOL    HW2 1836   1.983   2.559   0.647
  607SOL     OW 1837   1.975   2.599   1.597
  607SOL    HW1 1838   2.063   2.586   1.642
  607SOL    HW2 1839   1.962   2.696   1.575
  608SOL     OW 1840   2.671   1.866   0.502
  608SOL    HW1 1841   2.711   1.957   0.493
  608SOL    HW2 1842   2.571   1.874   0.508
  609SOL     OW 1843   2.179   2.113   1.801
  609SOL    HW1 1844   2.250   2.184   1.807
  609SOL    HW2 1845   2.091   2.152   1.829
  610SOL     OW 1846   2.460   2.591   0.270
  610SOL    HW1 1847   2.484   2.660   0.202
  610SOL    HW2 1848   2.382   2.624   0.324
  611SOL     OW 1849   2.669   2.467   1.465
  611SOL    HW1 1850   2.622   2.464   1.554
  611SOL    HW2 1851   2.618   2.412   1.399
  612SOL     OW 1852   1.938   2.673   0.789
  612SOL    HW1 1853   2.037   2.661   0.798
  612SOL    HW2 1854   1.914   2.768   0.810
  613SOL     OW 1855   2.412   2.058   0.885
  613SOL    HW1 1856   2.407   2.053   0.985
  613SOL    HW2 1857   2.414   2.154   0.856
  614SOL     OW 1858   2.064   2.147   1.498
  614SOL    HW1 1859   1.984   2.207   1.485
  614SOL    HW2 1860   2.054   2.098   1.584
  615SOL     OW 1861   2.244   2.562   0.480
  615SOL    HW1 1862   2.289   2.472   0.477
  615SOL    HW2 1863   2.150   2.551   0.513
  616SOL     OW 1864   2.643   2.126   1.749
  616SOL    HW1 1865   2.710   2.065   1.792
  616SOL    HW2 1866   2.570   2.145   1.814
  617SOL     OW 1867   2.784   2.365   0.899
  617SOL    HW1 1868   2.759   2.356   0.803
  617SOL    HW2 1869   2.832   2.283   0.930
  618SOL     OW 1870   2.401   1.926   0.512
  618SOL    HW1 1871   2.320   1.927   0.570
  618SOL    HW2 1872   2.404   2.009   0.457
  619SOL     OW 1873   2.159   1.897   0.171
  619SOL    HW1 1874   2.208   1.981   0.150
  619SOL    HW2 1875   2.221   1.832   0.216
  620SOL     OW 1876   2.321   3.014   0.741
  620SOL    HW1 1877   2.250   2.987   0.806
  620SOL    HW2 1878   2.295   2.986   0.648
  621SOL     OW 1879   1.940   2.418   1.386
  621SOL    HW1 1880   2.032   2.417   1.345
  621SOL    HW2 1881   1.934   2.492   1.453
  622SOL     OW 1882   2.423   2.084   1.147
  622SOL    HW1 1883   2.461   2.000   1.184
  622SOL    HW2 1884   2.335   2.103   1.191
  623SOL     OW 1885   2.389   2.118   0.328
  623SOL    HW1 1886   2.416   2.059   0.253
  623SOL    HW2 1887   2.389   2.213   0.297
  624SOL     OW 1888   2.777   1.951   1.402
  624SOL    HW1 1889   2.802   1.931   1.307
  624SOL    HW2 1890   2.849   2.007   1.444
  625SOL     OW 1891   2.567   2.912   0.368
  625SOL    HW1 1892   2.553   2.919   0.467
  625SOL    HW2 1893   2.651   2.861   0.350
  626SOL     OW 1894   2.272   2.675   1.251
  626SOL    HW1 1895   2.358   2.687   1.301
  626SOL    HW2 1896   2.230   2.588   1.278
  627SOL     OW 1897   2.428   2.399   0.865
  627SOL    HW1 1898   2.440   2.465   0.791
  627SOL    HW2 1899   2.474   2.433   0.948
  628SOL     OW 1900   2.264   2.613   1.598
  628SOL    HW1 1901   2.332   2.668   1.551
  628SOL    HW2 1902   2.304   2.525   1.625
  629SOL     OW 1903   2.366   1.912   1.740
  629SOL    HW1 1904   2.324   1.855   1.670
  629SOL    HW2 1905   2.300   1.981   1.772
  630SOL     OW 1906   2.435   2.732   1.029
  630SOL    HW1 1907   2.479   2.821   1.020
  630SOL    HW2 1908   2.372   2.732   1.106
  631SOL     OW 1909   2.169   2.075   1.231
  631SOL    HW1 1910   2.146   2.112   1.321
  631SOL    HW2 1911   2.139   1.980   1.225
  632SOL     OW 1912   2.594   2.496   1.064
  632SOL    HW1 1913   2.653   2.470   0.988
  632SOL    HW2 1914   2.566   2.592   1.053
  633SOL     OW 1915   2.169   1.925   0.618
  633SOL    HW1 1916   2.158   2.019   0.651
  633SOL    HW2 1917   2.164   1.862   0.695
  634SOL     OW 1918   2.885   2.628   0.966
  634SOL    HW1 1919   2.900   2.649   1.062
  634SOL    HW2 1920   2.855   2.533   0.957
  635SOL     OW 1921   2.181   2.672   0.949
  635SOL    HW1 1922   2.274   2.708   0.954
  635SOL    HW2 1923   2.175   2.587   1.001
  636SOL     OW 1924   2.201   2.371   1.006
  636SOL    HW1 1925   2.149   2.288   0.989
  636SOL    HW2 1926   2.278   2.376   0.942
  637SOL     OW 1927   1.902   2.406   1.114
  637SOL    HW1 1928   1.987   2.373   1.073
  637SOL    HW2 1929   1.915   2.421   1.212
  638SOL     OW 1930   2.051   2.382   1.722
  638SOL    HW1 1931   2.110   2.342   1.652
  638SOL    HW2 1932   1.993   2.453   1.681
  639SOL     OW 1933   2.677   2.434   0.325
  639SOL    HW1 1934   2.684   2.345   0.279
  639SOL    HW2 1935   2.583   2.468   0.317
  640SOL     OW 1936   2.533   2.326   1.269
  640SOL    HW1 1937   2.499   2.237   1.239
  640SOL    HW2 1938   2.559   2.380   1.189
  641SOL     OW 1939   2.335   2.362   0.191
  641SOL    HW1 1940   2.396   2.442   0.195
  641SOL    HW2 1941   2.240   2.393   0.198
  642SOL     OW 1942   2.765   1.948   0.133
  642SOL    HW1 1943   2.816   1.949   0.047
  642SOL    HW2 1944   2.821   1.906   0.204
  643SOL     OW 1945   2.125   2.188   0.720
  643SOL    HW1 1946   2.046   2.239   0.686
  643SOL    HW2 1947   2.116   2.173   0.818
  644SOL     OW 1948   1.967   2.875   1.726
  644SOL    HW1 1949   1.890   2.842   1.780
  644SOL    HW2 1950   2.052   2.845   1.768
  645SOL     OW 1951   2.534   2.065   1.489
  645SOL    HW1 1952   2.624   2.049   1.449
  645SOL    HW2 1953   2.542   2.070   1.588
  646SOL     OW 1954   1.934   2.028   0.318
  646SOL    HW1 1955   1.917   2.111   0.264
  646SOL    HW2 1956   2.024   1.991   0.296
  647SOL     OW 1957   2.475   2.704   1.431
  647SOL    HW1 1958   2.531   2.785   1.414
  647SOL    HW2 1959   2.534   2.624   1.434
  648SOL     OW 1960   2.578   2.427   1.708
  648SOL    HW1 1961   2.597   2.492   1.782
  648SOL    HW2 1962   2.638   2.347   1.717
  649SOL     OW 1963   2.456   2.607   0.652
  649SOL    HW1 1964   2.506   2.692   0.633
  649SOL    HW2 1965   2.368   2.609   0.604
  650SOL     OW 1966   2.290   2.286   0.520
  650SOL    HW1 1967   2.320   2.214   0.458
  650SOL    HW2 1968   2.251   2.246   0.603
  651SOL     OW 1969   2.179   2.409   1.280
  651SOL    HW1 1970   2.217   2.350   1.352
  651SOL    HW2 1971   2.219   2.383   1.192
  652SOL     OW 1972   2.092   2.490   1.975
  652SOL    HW1 1973   1.999   2.488   2.012
  652SOL    HW2 1974   2.093   2.451   1.883
  653SOL     OW 1975   2.087   2.137   2.858
  653SOL    HW1 1976   2.122   2.120   2.950
  653SOL    HW2 1977   1.999   2.092   2.846
  654SOL     OW 1978   1.881   2.230   2.509
  654SOL    HW1 1979   1.799   2.273   2.548
  654SOL    HW2 1980   1.853   2.157   2.446
  655SOL     OW 1981   2.547   2.874   2.527
  655SOL    HW1 1982   2.616   2.858   2.597
  655SOL    HW2 1983   2.474   2.931   2.565
  656SOL     OW 1984   1.984   2.505   2.425
  656SOL    HW1 1985   1.939   2.417   2.442
  656SOL    HW2 1986   1.983   2.559   2.509
  657SOL     OW 1987   2.671   1.866   2.364
  657SOL    HW1 1988   2.711   1.957   2.355
  657SOL    HW2 1989   2.571   1.874   2.370
  658SOL     OW 1990   2.460   2.591   2.132
  658SOL    HW1 1991   2.484   2.660   2.064
  658SOL    HW2 1992   2.382   2.624   2.186
  659SOL     OW 1993   1.938   2.673   2.651
  659SOL    HW1 1994   2.037   2.661   2.660
  659SOL    HW2 1995   1.914   2.768   2.672
  660SOL     OW 1996   2.412   2.058   2.747
  660SOL    HW1 1997   2.407   2.053   2.847
  660SOL    HW2 1998   2.414   2.154   2.718
  661SOL     OW 1999   2.244   2.562   2.342
  661SOL    HW1 2000   2.289   2.472   2.339
  661SOL    HW2 2001   2.150   2.551   2.375
  662SOL     OW 2002   2.476   1.984   1.979
  662SOL    HW1 2003   2.574   1.962   1.986
  662SOL    HW2 2004   2.445   1.967   1.886
  663SOL     OW 2005   2.401   1.926   2.374
  663SOL    HW1 2006   2.320   1.927   2.432
  663SOL    HW2 2007   2.404   2.009   2.319
  664SOL     OW 2008   2.159   1.897   2.033
  664SOL    HW1 2009   2.208   1.981   2.012
  664SOL    HW2 2010   2.221   1.832   2.078
  665SOL     OW 2011   2.321   3.014   2.603
  665SOL    HW1 2012   2.250   2.987   2.668
  665SOL    HW2 2013   2.295   2.986   2.510
  666SOL     OW 2014   2.389   2.118   2.190
  666SOL    HW1 2015   2.416   2.059   2.115
  666SOL    HW2 2016   2.389   2.213   2.159
  667SOL     OW 2017   2.567   2.912   2.230
  667SOL    HW1 2018   2.553   2.919   2.329
  667SOL    HW2 2019   2.651   2.861   2.212
  668SOL     OW 2020   2.428   2.399   2.727
  668SOL    HW1 2021   2.440   2.465   2.653
  668SOL    HW2 2022   2.474   2.433   2.810
  669SOL     OW 2023   2.169   1.925   2.480
  669SOL    HW1 2024   2.158   2.019   2.513
  669SOL    HW2 2025   2.164   1.862   2.557
  670SOL     OW 2026   2.677   2.434   2.187
  670SOL    HW1 2027   2.684   2.345   2.141
  670SOL    HW2 2028   2.583   2.468   2.179
  671SOL     OW 2029   2.335   2.362   2.053
  671SOL    HW1 2030   2.396   2.442   2.057
  671SOL    HW2 2031   2.240   2.393   2.060
  672SOL     OW 2032   2.765   1.948   1.995
  672SOL    HW1 2033   2.816   1.949   1.909
  672SOL    HW2 2034   2.821   1.906   2.066
  673SOL     OW 2035   2.125   2.188   2.582
  673SOL    HW1 2036   2.046   2.239   2.548
  673SOL    HW2 2037   2.116   2.173   2.680
  674SOL     OW 2038   2.778   2.772   2.153
  674SOL    HW1 2039   2.841   2.810   2.085
  674SOL    HW2 2040   2.818   2.689   2.192
  675SOL     OW 2041   1.937   2.207   1.895
  675SOL    HW1 2042   1.845   2.179   1.866
  675SOL    HW2 2043   1.968   2.284   1.839
  676SOL     OW 2044   1.934   2.028   2.180
  676SOL    HW1 2045   1.917   2.111   2.126
  676SOL    HW2 2046   2.024   1.991   2.158
  677SOL     OW 2047   2.456   2.607   2.514
  677SOL    HW1 2048   2.506   2.692   2.495
  677SOL    HW2 2049   2.368   2.609   2.466
  678SOL     OW 2050   2.290   2.286   2.382
  678SOL    HW1 2051   2.320   2.214   2.320
  678SOL    HW2 2052   2.251   2.246   2.465
   2.77369   2.77369   2.77369
