mobley_5456566_GMX.gro created by acpype (v: 2023.10.27) on Thu May 14 13:48:23 2026
 2752
    1MOL     C1    1   1.524   1.525   1.599
    1MOL     C2    2   1.528   1.527   1.453
    1MOL     C3    3   1.416   1.583   1.666
    1MOL     C4    4   1.627   1.466   1.671
    1MOL     C5    5   1.588   1.634   1.387
    1MOL     C6    6   1.472   1.422   1.380
    1MOL     C7    7   1.411   1.581   1.806
    1MOL     C8    8   1.623   1.464   1.810
    1MOL     C9    9   1.593   1.636   1.247
    1MOL    C10   10   1.476   1.424   1.241
    1MOL    C11   11   1.515   1.521   1.878
    1MOL    C12   12   1.537   1.531   1.174
    1MOL    CL1   13   1.287   1.657   1.575
    1MOL    CL2   14   1.761   1.394   1.585
    1MOL    CL3   15   1.658   1.765   1.479
    1MOL    CL4   16   1.397   1.290   1.464
    1MOL    CL5   17   1.277   1.652   1.890
    1MOL    CL6   18   1.752   1.390   1.900
    1MOL    CL7   19   1.668   1.770   1.164
    1MOL    CL8   20   1.406   1.293   1.150
    1MOL    CL9   21   1.510   1.519   2.052
    1MOL   CL10   22   1.542   1.533   1.000
    2SOL     OW   23   0.230   0.628   0.113
    2SOL    HW1   24   0.137   0.626   0.150
    2SOL    HW2   25   0.231   0.589   0.021
    3SOL     OW   26   0.225   0.275   0.996
    3SOL    HW1   27   0.260   0.258   1.088
    3SOL    HW2   28   0.137   0.230   0.984
    4SOL     OW   29   0.019   0.368   0.647
    4SOL    HW1   30  -0.063   0.411   0.686
    4SOL    HW2   31  -0.009   0.295   0.584
    5SOL     OW   32   0.569   1.275   1.165
    5SOL    HW1   33   0.476   1.268   1.128
    5SOL    HW2   34   0.580   1.364   1.209
    6SOL     OW   35   1.555   1.511   0.703
    6SOL    HW1   36   1.498   1.495   0.784
    6SOL    HW2   37   1.496   1.521   0.623
    7SOL     OW   38   1.135   0.703   0.717
    7SOL    HW1   39   1.192   0.781   0.692
    7SOL    HW2   40   1.075   0.729   0.793
    8SOL     OW   41   1.755   0.607   0.231
    8SOL    HW1   42   1.743   0.594   0.132
    8SOL    HW2   43   1.725   0.526   0.280
    9SOL     OW   44   0.768   1.144   1.023
    9SOL    HW1   45   0.690   1.161   1.083
    9SOL    HW2   46   0.802   1.231   0.987
   10SOL     OW   47   0.850   0.798   1.823
   10SOL    HW1   48   0.846   0.874   1.888
   10SOL    HW2   49   0.872   0.834   1.732
   11SOL     OW   50   0.685   1.012   0.665
   11SOL    HW1   51   0.754   0.996   0.735
   11SOL    HW2   52   0.612   1.069   0.703
   12SOL     OW   53   0.686   1.161   1.803
   12SOL    HW1   54   0.746   1.240   1.817
   12SOL    HW2   55   0.600   1.192   1.762
   13SOL     OW   56   0.335   1.435   1.061
   13SOL    HW1   57   0.257   1.404   1.008
   13SOL    HW2   58   0.393   1.493   1.004
   14SOL     OW   59   0.438   0.392   1.499
   14SOL    HW1   60   0.520   0.336   1.508
   14SOL    HW2   61   0.357   0.334   1.503
   15SOL     OW   62   1.603   0.447   0.737
   15SOL    HW1   63   1.529   0.493   0.687
   15SOL    HW2   64   1.654   0.515   0.790
   16SOL     OW   65   0.231   1.713   0.483
   16SOL    HW1   66   0.265   1.790   0.537
   16SOL    HW2   67   0.275   1.713   0.393
   17SOL     OW   68   1.127   1.341   1.690
   17SOL    HW1   69   1.174   1.341   1.778
   17SOL    HW2   70   1.079   1.254   1.679
   18SOL     OW   71   0.230   1.434   0.538
   18SOL    HW1   72   0.204   1.530   0.538
   18SOL    HW2   73   0.159   1.380   0.583
   19SOL     OW   74   0.240   1.091   0.886
   19SOL    HW1   75   0.254   1.007   0.938
   19SOL    HW2   76   0.185   1.155   0.941
   20SOL     OW   77   0.620   1.786   1.439
   20SOL    HW1   78   0.528   1.769   1.474
   20SOL    HW2   79   0.648   1.878   1.465
   21SOL     OW   80   0.606   0.964   0.123
   21SOL    HW1   81   0.613   1.048   0.069
   21SOL    HW2   82   0.652   0.977   0.211
   22SOL     OW   83   1.594   0.114   1.480
   22SOL    HW1   84   1.576   0.181   1.408
   22SOL    HW2   85   1.591   0.160   1.569
   23SOL     OW   86   0.122   0.643   0.563
   23SOL    HW1   87   0.077   0.555   0.580
   23SOL    HW2   88   0.121   0.697   0.647
   24SOL     OW   89   1.842   1.767   0.359
   24SOL    HW1   90   1.896   1.738   0.439
   24SOL    HW2   91   1.872   1.857   0.330
   25SOL     OW   92   0.027   1.596   0.117
   25SOL    HW1   93   0.008   1.500   0.138
   25SOL    HW2   94  -0.006   1.654   0.192
   26SOL     OW   95   1.689   0.922   0.612
   26SOL    HW1   96   1.784   0.893   0.620
   26SOL    HW2   97   1.681   0.987   0.537
   27SOL     OW   98   1.641   1.108   0.432
   27SOL    HW1   99   1.727   1.110   0.380
   27SOL    HW2  100   1.655   1.155   0.520
   28SOL     OW  101   0.113   0.737   1.597
   28SOL    HW1  102   0.201   0.724   1.642
   28SOL    HW2  103   0.100   0.834   1.575
   29SOL     OW  104   0.613   1.365   0.726
   29SOL    HW1  105   0.564   1.278   0.735
   29SOL    HW2  106   0.590   1.408   0.639
   30SOL     OW  107   0.809   0.004   0.502
   30SOL    HW1  108   0.849   0.095   0.493
   30SOL    HW2  109   0.709   0.012   0.508
   31SOL     OW  110   0.197   0.976   1.264
   31SOL    HW1  111   0.286   0.931   1.250
   31SOL    HW2  112   0.124   0.911   1.245
   32SOL     OW  113   1.525   0.999   0.190
   32SOL    HW1  114   1.462   0.923   0.203
   32SOL    HW2  115   1.573   1.017   0.276
   33SOL     OW  116   0.317   0.251   1.801
   33SOL    HW1  117   0.388   0.322   1.807
   33SOL    HW2  118   0.229   0.290   1.829
   34SOL     OW  119   1.667   1.714   0.572
   34SOL    HW1  120   1.626   1.691   0.484
   34SOL    HW2  121   1.649   1.640   0.637
   35SOL     OW  122   0.598   0.729   0.270
   35SOL    HW1  123   0.622   0.798   0.202
   35SOL    HW2  124   0.520   0.762   0.324
   36SOL     OW  125   1.281   0.345   0.944
   36SOL    HW1  126   1.195   0.295   0.931
   36SOL    HW2  127   1.343   0.291   1.000
   37SOL     OW  128   1.576   1.662   0.307
   37SOL    HW1  129   1.665   1.708   0.310
   37SOL    HW2  130   1.555   1.638   0.212
   38SOL     OW  131   0.807   0.605   1.465
   38SOL    HW1  132   0.760   0.602   1.554
   38SOL    HW2  133   0.756   0.550   1.399
   39SOL     OW  134   1.394   0.469   1.674
   39SOL    HW1  135   1.374   0.512   1.762
   39SOL    HW2  136   1.472   0.407   1.683
   40SOL     OW  137   0.973   0.890   1.572
   40SOL    HW1  138   1.019   0.806   1.543
   40SOL    HW2  139   0.917   0.924   1.497
   41SOL     OW  140   0.991   0.410   1.242
   41SOL    HW1  141   0.914   0.444   1.296
   41SOL    HW2  142   0.957   0.359   1.163
   42SOL     OW  143   1.041   0.701   0.429
   42SOL    HW1  144   1.067   0.697   0.525
   42SOL    HW2  145   0.956   0.650   0.415
   43SOL     OW  146   0.076   0.811   0.789
   43SOL    HW1  147   0.175   0.799   0.798
   43SOL    HW2  148   0.052   0.906   0.810
   44SOL     OW  149   0.130   1.821   1.571
   44SOL    HW1  150   0.120   1.806   1.670
   44SOL    HW2  151   0.044   1.857   1.535
   45SOL     OW  152   0.865   0.348   0.195
   45SOL    HW1  153   0.924   0.411   0.146
   45SOL    HW2  154   0.884   0.254   0.166
   46SOL     OW  155   1.719   0.585   1.831
   46SOL    HW1  156   1.693   0.674   1.795
   46SOL    HW2  157   1.717   0.517   1.758
   47SOL     OW  158   1.362   1.144   0.545
   47SOL    HW1  159   1.445   1.115   0.497
   47SOL    HW2  160   1.313   1.211   0.489
   48SOL     OW  161   0.550   0.196   0.885
   48SOL    HW1  162   0.545   0.191   0.985
   48SOL    HW2  163   0.552   0.292   0.856
   49SOL     OW  164   1.008   1.456   0.477
   49SOL    HW1  165   0.962   1.528   0.425
   49SOL    HW2  166   1.004   1.476   0.575
   50SOL     OW  167   0.351   1.801   0.853
   50SOL    HW1  168   0.401   1.715   0.859
   50SOL    HW2  169   0.416   1.878   0.850
   51SOL     OW  170   1.795   1.066   0.873
   51SOL    HW1  171   1.733   1.051   0.797
   51SOL    HW2  172   1.743   1.077   0.958
   52SOL     OW  173   0.321   0.943   0.242
   52SOL    HW1  174   0.403   0.982   0.200
   52SOL    HW2  175   0.294   0.861   0.193
   53SOL     OW  176   1.458   0.735   0.728
   53SOL    HW1  177   1.453   0.670   0.803
   53SOL    HW2  178   1.538   0.794   0.741
   54SOL     OW  179   0.461   1.266   1.727
   54SOL    HW1  180   0.411   1.267   1.641
   54SOL    HW2  181   0.398   1.248   1.803
   55SOL     OW  182   1.111   1.776   0.237
   55SOL    HW1  183   1.051   1.714   0.287
   55SOL    HW2  184   1.142   1.732   0.152
   56SOL     OW  185   0.202   0.285   1.498
   56SOL    HW1  186   0.122   0.345   1.485
   56SOL    HW2  187   0.192   0.236   1.584
   57SOL     OW  188   1.632   1.377   0.081
   57SOL    HW1  189   1.600   1.471   0.071
   57SOL    HW2  190   1.556   1.314   0.069
   58SOL     OW  191   0.464   1.743   0.323
   58SOL    HW1  192   0.497   1.782   0.409
   58SOL    HW2  193   0.540   1.736   0.258
   59SOL     OW  194   1.400   0.107   0.426
   59SOL    HW1  195   1.376   0.070   0.336
   59SOL    HW2  196   1.499   0.123   0.430
   60SOL     OW  197   0.249   1.785   1.241
   60SOL    HW1  198   0.306   1.720   1.291
   60SOL    HW2  199   0.233   1.752   1.148
   61SOL     OW  200   0.940   1.698   0.904
   61SOL    HW1  201   1.020   1.641   0.925
   61SOL    HW2  202   0.891   1.658   0.827
   62SOL     OW  203   0.382   0.700   0.480
   62SOL    HW1  204   0.427   0.610   0.477
   62SOL    HW2  205   0.288   0.689   0.513
   63SOL     OW  206   1.547   0.222   1.729
   63SOL    HW1  207   1.542   0.259   1.821
   63SOL    HW2  208   1.475   0.153   1.717
   64SOL     OW  209   0.614   0.122   0.117
   64SOL    HW1  210   0.712   0.100   0.124
   64SOL    HW2  211   0.583   0.105   0.024
   65SOL     OW  212   0.781   0.264   1.749
   65SOL    HW1  213   0.848   0.203   1.792
   65SOL    HW2  214   0.708   0.283   1.814
   66SOL     OW  215   0.888   1.514   1.195
   66SOL    HW1  216   0.865   1.489   1.101
   66SOL    HW2  217   0.949   1.445   1.234
   67SOL     OW  218   1.351   0.590   1.433
   67SOL    HW1  219   1.379   0.547   1.518
   67SOL    HW2  220   1.376   0.686   1.434
   68SOL     OW  221   0.803   1.402   0.924
   68SOL    HW1  222   0.893   1.416   0.882
   68SOL    HW2  223   0.732   1.404   0.853
   69SOL     OW  224   0.922   0.503   0.899
   69SOL    HW1  225   0.897   0.494   0.803
   69SOL    HW2  226   0.970   0.421   0.930
   70SOL     OW  227   0.539   0.064   0.512
   70SOL    HW1  228   0.458   0.065   0.570
   70SOL    HW2  229   0.542   0.147   0.457
   71SOL     OW  230   1.434   1.188   0.041
   71SOL    HW1  231   1.466   1.112   0.098
   71SOL    HW2  232   1.342   1.215   0.071
   72SOL     OW  233   0.297   0.035   0.171
   72SOL    HW1  234   0.346   0.119   0.150
   72SOL    HW2  235   0.359  -0.030   0.216
   73SOL     OW  236   0.935   0.236   0.480
   73SOL    HW1  237   0.887   0.277   0.402
   73SOL    HW2  238   1.034   0.234   0.461
   74SOL     OW  239   1.076   0.683   1.464
   74SOL    HW1  240   0.996   0.622   1.467
   74SOL    HW2  241   1.157   0.630   1.440
   75SOL     OW  242   1.227   1.570   0.793
   75SOL    HW1  243   1.248   1.644   0.728
   75SOL    HW2  244   1.295   1.570   0.866
   76SOL     OW  245   0.459   1.152   0.741
   76SOL    HW1  246   0.388   1.125   0.806
   76SOL    HW2  247   0.433   1.124   0.648
   77SOL     OW  248   1.271   1.797   0.591
   77SOL    HW1  249   1.315   1.861   0.527
   77SOL    HW2  250   1.221   1.849   0.661
   78SOL     OW  251   1.032   0.549   0.016
   78SOL    HW1  252   0.991   0.631  -0.023
   78SOL    HW2  253   1.096   0.575   0.089
   79SOL     OW  254   0.078   0.556   1.386
   79SOL    HW1  255   0.170   0.555   1.345
   79SOL    HW2  256   0.072   0.630   1.453
   80SOL     OW  257   0.561   0.222   1.147
   80SOL    HW1  258   0.599   0.138   1.184
   80SOL    HW2  259   0.473   0.241   1.191
   81SOL     OW  260   0.866   0.454   0.642
   81SOL    HW1  261   0.834   0.526   0.580
   81SOL    HW2  262   0.890   0.373   0.589
   82SOL     OW  263   1.017   0.039   0.753
   82SOL    HW1  264   0.945   0.044   0.684
   82SOL    HW2  265   0.993  -0.030   0.822
   83SOL     OW  266   1.429   1.173   0.867
   83SOL    HW1  267   1.374   1.089   0.860
   83SOL    HW2  268   1.455   1.202   0.775
   84SOL     OW  269   1.466   0.590   0.992
   84SOL    HW1  270   1.436   0.495   0.999
   84SOL    HW2  271   1.539   0.606   1.058
   85SOL     OW  272   1.857   0.833   0.377
   85SOL    HW1  273   1.899   0.769   0.441
   85SOL    HW2  274   1.819   0.782   0.299
   86SOL     OW  275   0.488   1.385   0.174
   86SOL    HW1  276   0.401   1.370   0.221
   86SOL    HW2  277   0.471   1.411   0.079
   87SOL     OW  278   1.664   1.280   0.657
   87SOL    HW1  279   1.763   1.288   0.671
   87SOL    HW2  280   1.619   1.364   0.688
   88SOL     OW  281   1.390   0.575   0.078
   88SOL    HW1  282   1.336   0.554   0.159
   88SOL    HW2  283   1.481   0.534   0.087
   89SOL     OW  284   0.527   0.256   0.328
   89SOL    HW1  285   0.554   0.197   0.253
   89SOL    HW2  286   0.527   0.351   0.297
   90SOL     OW  287   1.064   1.347   1.340
   90SOL    HW1  288   0.984   1.324   1.395
   90SOL    HW2  289   1.147   1.321   1.389
   91SOL     OW  290   1.111   1.195   1.100
   91SOL    HW1  291   1.071   1.239   1.181
   91SOL    HW2  292   1.070   1.232   1.017
   92SOL     OW  293   1.638   1.099   1.079
   92SOL    HW1  294   1.643   1.180   1.138
   92SOL    HW2  295   1.552   1.101   1.028
   93SOL     OW  296   0.915   0.089   1.402
   93SOL    HW1  297   0.940   0.069   1.307
   93SOL    HW2  298   0.987   0.145   1.444
   94SOL     OW  299   0.980   1.116   1.719
   94SOL    HW1  300   0.881   1.122   1.729
   94SOL    HW2  301   1.003   1.036   1.663
   95SOL     OW  302   0.705   1.050   0.368
   95SOL    HW1  303   0.691   1.057   0.467
   95SOL    HW2  304   0.789   0.999   0.350
   96SOL     OW  305   0.410   0.813   1.251
   96SOL    HW1  306   0.496   0.825   1.301
   96SOL    HW2  307   0.368   0.726   1.278
   97SOL     OW  308   1.274   0.386   1.262
   97SOL    HW1  309   1.295   0.460   1.326
   97SOL    HW2  310   1.185   0.403   1.219
   98SOL     OW  311   0.064   1.564   1.331
   98SOL    HW1  312   0.018   1.646   1.297
   98SOL    HW2  313   0.162   1.583   1.340
   99SOL     OW  314   0.367   1.100   0.501
   99SOL    HW1  315   0.360   1.183   0.445
   99SOL    HW2  316   0.371   1.020   0.441
  100SOL     OW  317   0.566   0.537   0.865
  100SOL    HW1  318   0.578   0.603   0.791
  100SOL    HW2  319   0.612   0.571   0.948
  101SOL     OW  320   1.252   1.348   0.388
  101SOL    HW1  321   1.302   1.425   0.428
  101SOL    HW2  322   1.157   1.350   0.420
  102SOL     OW  323   1.582   0.639   0.472
  102SOL    HW1  324   1.551   0.700   0.545
  102SOL    HW2  325   1.632   0.691   0.403
  103SOL     OW  326   0.354   1.510   1.329
  103SOL    HW1  327   0.333   1.466   1.242
  103SOL    HW2  328   0.451   1.536   1.332
  104SOL     OW  329   0.402   0.751   1.598
  104SOL    HW1  330   0.470   0.806   1.551
  104SOL    HW2  331   0.442   0.663   1.625
  105SOL     OW  332   1.587   0.779   1.670
  105SOL    HW1  333   1.495   0.817   1.665
  105SOL    HW2  334   1.647   0.826   1.605
  106SOL     OW  335   1.013   0.105   1.770
  106SOL    HW1  336   1.019   0.190   1.718
  106SOL    HW2  337   1.045   0.029   1.713
  107SOL     OW  338   0.504   0.050   1.740
  107SOL    HW1  339   0.462  -0.007   1.670
  107SOL    HW2  340   0.438   0.119   1.772
  108SOL     OW  341   0.573   0.870   1.029
  108SOL    HW1  342   0.617   0.959   1.020
  108SOL    HW2  343   0.510   0.870   1.106
  109SOL     OW  344   1.360   0.862   1.045
  109SOL    HW1  345   1.285   0.862   0.979
  109SOL    HW2  346   1.397   0.770   1.054
  110SOL     OW  347   1.209   0.525   0.275
  110SOL    HW1  348   1.222   0.441   0.329
  110SOL    HW2  349   1.180   0.599   0.335
  111SOL     OW  350   0.307   0.213   1.231
  111SOL    HW1  351   0.284   0.250   1.321
  111SOL    HW2  352   0.277   0.118   1.225
  112SOL     OW  353   0.037   1.310   1.282
  112SOL    HW1  354   0.090   1.261   1.350
  112SOL    HW2  355   0.059   1.408   1.287
  113SOL     OW  356   0.732   0.634   1.064
  113SOL    HW1  357   0.791   0.608   0.988
  113SOL    HW2  358   0.704   0.730   1.053
  114SOL     OW  359   1.728   0.935   1.854
  114SOL    HW1  360   1.682   0.928   1.765
  114SOL    HW2  361   1.666   0.979   1.920
  115SOL     OW  362   0.307   0.063   0.618
  115SOL    HW1  363   0.296   0.157   0.651
  115SOL    HW2  364   0.302   0.000   0.695
  116SOL     OW  365   1.622   0.367   0.374
  116SOL    HW1  366   1.624   0.291   0.438
  116SOL    HW2  367   1.574   0.444   0.414
  117SOL     OW  368   1.023   0.766   0.966
  117SOL    HW1  369   1.038   0.787   1.062
  117SOL    HW2  370   0.993   0.671   0.957
  118SOL     OW  371   0.980   1.573   1.700
  118SOL    HW1  372   0.960   1.617   1.612
  118SOL    HW2  373   1.019   1.482   1.684
  119SOL     OW  374   0.350   0.898   1.804
  119SOL    HW1  375   0.426   0.942   1.852
  119SOL    HW2  376   0.385   0.851   1.722
  120SOL     OW  377   1.540   0.274   0.125
  120SOL    HW1  378   1.479   0.199   0.148
  120SOL    HW2  379   1.562   0.326   0.208
  121SOL     OW  380   1.303   0.838   0.042
  121SOL    HW1  381   1.337   0.745   0.057
  121SOL    HW2  382   1.321   0.865  -0.053
  122SOL     OW  383   1.068   1.333   0.849
  122SOL    HW1  384   1.075   1.249   0.794
  122SOL    HW2  385   1.130   1.402   0.813
  123SOL     OW  386   0.319   0.810   0.949
  123SOL    HW1  387   0.412   0.846   0.954
  123SOL    HW2  388   0.313   0.725   1.001
  124SOL     OW  389   0.339   0.509   1.006
  124SOL    HW1  390   0.287   0.426   0.989
  124SOL    HW2  391   0.416   0.514   0.942
  125SOL     OW  392   1.138   0.380   1.678
  125SOL    HW1  393   1.093   0.443   1.742
  125SOL    HW2  394   1.231   0.411   1.661
  126SOL     OW  395   1.160   0.207   1.477
  126SOL    HW1  396   1.160   0.271   1.554
  126SOL    HW2  397   1.188   0.255   1.394
  127SOL     OW  398   0.008   1.326   0.200
  127SOL    HW1  399  -0.085   1.347   0.169
  127SOL    HW2  400   0.018   1.227   0.213
  128SOL     OW  401   0.088   1.801   0.927
  128SOL    HW1  402   0.046   1.715   0.900
  128SOL    HW2  403   0.182   1.804   0.893
  129SOL     OW  404   0.504   1.568   0.910
  129SOL    HW1  405   0.570   1.642   0.919
  129SOL    HW2  406   0.548   1.489   0.868
  130SOL     OW  407   1.002   0.796   1.238
  130SOL    HW1  408   1.043   0.764   1.324
  130SOL    HW2  409   0.906   0.769   1.235
  131SOL     OW  410   0.040   0.544   1.114
  131SOL    HW1  411   0.125   0.511   1.073
  131SOL    HW2  412   0.053   0.559   1.212
  132SOL     OW  413   0.189   0.520   1.722
  132SOL    HW1  414   0.248   0.480   1.652
  132SOL    HW2  415   0.131   0.591   1.681
  133SOL     OW  416   1.369   0.950   1.660
  133SOL    HW1  417   1.408   1.039   1.680
  133SOL    HW2  418   1.379   0.930   1.563
  134SOL     OW  419   0.815   0.572   0.325
  134SOL    HW1  420   0.822   0.483   0.279
  134SOL    HW2  421   0.721   0.606   0.317
  135SOL     OW  422   1.657   0.604   1.206
  135SOL    HW1  423   1.619   0.535   1.268
  135SOL    HW2  424   1.739   0.568   1.162
  136SOL     OW  425   0.252   1.564   1.744
  136SOL    HW1  426   0.222   1.621   1.820
  136SOL    HW2  427   0.245   1.467   1.770
  137SOL     OW  428   0.671   0.464   1.269
  137SOL    HW1  429   0.637   0.375   1.239
  137SOL    HW2  430   0.697   0.518   1.189
  138SOL     OW  431   0.930   1.678   1.465
  138SOL    HW1  432   0.906   1.660   1.370
  138SOL    HW2  433   0.960   1.772   1.475
  139SOL     OW  434   0.473   0.500   0.191
  139SOL    HW1  435   0.534   0.580   0.195
  139SOL    HW2  436   0.378   0.531   0.198
  140SOL     OW  437   0.159   1.137   1.466
  140SOL    HW1  438   0.181   1.076   1.542
  140SOL    HW2  439   0.169   1.088   1.380
  141SOL     OW  440   1.347   1.059   1.234
  141SOL    HW1  441   1.371   0.996   1.160
  141SOL    HW2  442   1.257   1.099   1.216
  142SOL     OW  443   1.302   0.855   0.309
  142SOL    HW1  444   1.216   0.824   0.351
  142SOL    HW2  445   1.298   0.841   0.210
  143SOL     OW  446   1.252   1.731   1.128
  143SOL    HW1  447   1.336   1.736   1.074
  143SOL    HW2  448   1.229   1.635   1.146
  144SOL     OW  449   0.083   1.258   1.022
  144SOL    HW1  450   0.078   1.257   1.122
  144SOL    HW2  451   0.000   1.217   0.984
  145SOL     OW  452   0.688   1.662   1.716
  145SOL    HW1  453   0.632   1.743   1.725
  145SOL    HW2  454   0.740   1.666   1.630
  146SOL     OW  455   0.903   0.086   0.133
  146SOL    HW1  456   0.954   0.087   0.047
  146SOL    HW2  457   0.959   0.044   0.204
  147SOL     OW  458   1.726   0.135   0.523
  147SOL    HW1  459   1.799   0.118   0.456
  147SOL    HW2  460   1.695   0.048   0.561
  148SOL     OW  461   1.388   1.573   0.477
  148SOL    HW1  462   1.455   1.585   0.403
  148SOL    HW2  463   1.348   1.662   0.500
  149SOL     OW  464   0.130   1.794   1.851
  149SOL    HW1  465   0.089   1.720   1.904
  149SOL    HW2  466   0.194   1.845   1.909
  150SOL     OW  467   1.280   0.927   0.672
  150SOL    HW1  468   1.340   0.846   0.674
  150SOL    HW2  469   1.320   0.996   0.612
  151SOL     OW  470   0.830   1.273   1.422
  151SOL    HW1  471   0.825   1.306   1.517
  151SOL    HW2  472   0.744   1.292   1.376
  152SOL     OW  473   0.672   1.616   0.154
  152SOL    HW1  474   0.681   1.626   0.055
  152SOL    HW2  475   0.632   1.527   0.175
  153SOL     OW  476   1.841   0.175   0.963
  153SOL    HW1  477   1.880   0.090   0.927
  153SOL    HW2  478   1.743   0.177   0.944
  154SOL     OW  479   0.263   0.326   0.720
  154SOL    HW1  480   0.184   0.377   0.686
  154SOL    HW2  481   0.254   0.311   0.818
  155SOL     OW  482   1.194   1.612   0.031
  155SOL    HW1  483   1.200   1.519   0.068
  155SOL    HW2  484   1.135   1.612  -0.049
  156SOL     OW  485   0.822   1.002   1.372
  156SOL    HW1  486   0.862   1.001   1.280
  156SOL    HW2  487   0.832   1.094   1.412
  157SOL     OW  488   0.916   0.910   0.291
  157SOL    HW1  489   0.979   0.948   0.223
  157SOL    HW2  490   0.956   0.827   0.330
  158SOL     OW  491   1.504   1.607   0.044
  158SOL    HW1  492   1.412   1.644   0.051
  158SOL    HW2  493   1.542   1.627  -0.046
  159SOL     OW  494   0.372   1.288   1.490
  159SOL    HW1  495   0.359   1.381   1.456
  159SOL    HW2  496   0.288   1.236   1.477
  160SOL     OW  497   1.039   1.098   0.696
  160SOL    HW1  498   0.969   1.051   0.750
  160SOL    HW2  499   1.098   1.030   0.653
  161SOL     OW  500   1.014   0.236   0.971
  161SOL    HW1  501   1.006   0.200   0.878
  161SOL    HW2  502   1.012   0.160   1.036
  162SOL     OW  503   0.590   1.487   0.491
  162SOL    HW1  504   0.632   1.429   0.421
  162SOL    HW2  505   0.546   1.566   0.447
  163SOL     OW  506   1.709   0.385   1.381
  163SOL    HW1  507   1.782   0.454   1.385
  163SOL    HW2  508   1.737   0.310   1.322
  164SOL     OW  509   0.255   1.348   0.290
  164SOL    HW1  510   0.159   1.349   0.263
  164SOL    HW2  511   0.267   1.401   0.374
  165SOL     OW  512   0.105   1.013   1.726
  165SOL    HW1  513   0.028   0.980   1.780
  165SOL    HW2  514   0.190   0.983   1.768
  166SOL     OW  515   0.672   0.203   1.489
  166SOL    HW1  516   0.762   0.187   1.449
  166SOL    HW2  517   0.680   0.208   1.588
  167SOL     OW  518   0.075   0.345   0.033
  167SOL    HW1  519  -0.017   0.317   0.004
  167SOL    HW2  520   0.106   0.422  -0.023
  168SOL     OW  521   1.440   0.856   1.398
  168SOL    HW1  522   1.383   0.908   1.335
  168SOL    HW2  523   1.536   0.868   1.374
  169SOL     OW  524   0.072   0.166   0.318
  169SOL    HW1  525   0.055   0.249   0.264
  169SOL    HW2  526   0.162   0.129   0.296
  170SOL     OW  527   1.183   1.335   0.119
  170SOL    HW1  528   1.084   1.324   0.121
  170SOL    HW2  529   1.217   1.350   0.212
  171SOL     OW  530   0.613   0.842   1.431
  171SOL    HW1  531   0.669   0.923   1.414
  171SOL    HW2  532   0.672   0.762   1.434
  172SOL     OW  533   1.493   1.767   0.959
  172SOL    HW1  534   1.526   1.831   0.890
  172SOL    HW2  535   1.559   1.761   1.034
  173SOL     OW  536   0.716   0.565   1.708
  173SOL    HW1  537   0.735   0.630   1.782
  173SOL    HW2  538   0.776   0.485   1.717
  174SOL     OW  539   1.450   1.220   1.633
  174SOL    HW1  540   1.441   1.210   1.732
  174SOL    HW2  541   1.546   1.213   1.607
  175SOL     OW  542   0.390   1.741   1.560
  175SOL    HW1  543   0.299   1.782   1.558
  175SOL    HW2  544   0.383   1.647   1.592
  176SOL     OW  545   1.674   0.883   1.254
  176SOL    HW1  546   1.647   0.794   1.217
  176SOL    HW2  547   1.675   0.951   1.181
  177SOL     OW  548   1.225   0.325   0.449
  177SOL    HW1  549   1.290   0.251   0.438
  177SOL    HW2  550   1.245   0.375   0.533
  178SOL     OW  551   0.594   0.745   0.652
  178SOL    HW1  552   0.644   0.830   0.633
  178SOL    HW2  553   0.506   0.747   0.604
  179SOL     OW  554   1.777   0.342   1.642
  179SOL    HW1  555   1.760   0.373   1.548
  179SOL    HW2  556   1.693   0.305   1.680
  180SOL     OW  557   1.730   0.934   1.517
  180SOL    HW1  558   1.768   1.025   1.532
  180SOL    HW2  559   1.722   0.917   1.418
  181SOL     OW  560   0.859   1.374   0.016
  181SOL    HW1  561   0.813   1.389   0.104
  181SOL    HW2  562   0.903   1.459  -0.014
  182SOL     OW  563   0.661   1.790   0.953
  182SOL    HW1  564   0.615   1.878   0.940
  182SOL    HW2  565   0.760   1.802   0.946
  183SOL     OW  566   0.859   0.956   0.861
  183SOL    HW1  567   0.913   0.887   0.909
  183SOL    HW2  568   0.827   1.025   0.927
  184SOL     OW  569   1.083   0.984   0.087
  184SOL    HW1  570   1.060   1.037   0.005
  184SOL    HW2  571   1.164   0.928   0.068
  185SOL     OW  572   1.861   1.569   0.851
  185SOL    HW1  573   1.790   1.557   0.781
  185SOL    HW2  574   1.862   1.490   0.911
  186SOL     OW  575   0.221   1.314   1.844
  186SOL    HW1  576   0.156   1.241   1.823
  186SOL    HW2  577   0.225   1.328   1.942
  187SOL     OW  578   0.079   1.240   0.653
  187SOL    HW1  579   0.078   1.193   0.741
  187SOL    HW2  580   0.161   1.212   0.602
  188SOL     OW  581   0.672   1.391   1.624
  188SOL    HW1  582   0.594   1.341   1.662
  188SOL    HW2  583   0.669   1.486   1.655
  189SOL     OW  584   1.824   0.192   1.227
  189SOL    HW1  585   1.820   0.102   1.271
  189SOL    HW2  586   1.827   0.181   1.128
  190SOL     OW  587   0.428   0.424   0.520
  190SOL    HW1  588   0.458   0.352   0.458
  190SOL    HW2  589   0.389   0.384   0.603
  191SOL     OW  590   0.317   0.547   1.280
  191SOL    HW1  591   0.355   0.488   1.352
  191SOL    HW2  592   0.357   0.521   1.192
  192SOL     OW  593   0.812   1.586   0.687
  192SOL    HW1  594   0.844   1.596   0.593
  192SOL    HW2  595   0.733   1.524   0.689
  193SOL     OW  596   1.424   0.214   1.112
  193SOL    HW1  597   1.476   0.149   1.167
  193SOL    HW2  598   1.375   0.277   1.173
  194SOL     OW  599   1.001   0.034   1.154
  194SOL    HW1  600   0.938  -0.038   1.123
  194SOL    HW2  601   1.094  -0.002   1.154
  195SOL     OW  602   0.770   1.330   0.301
  195SOL    HW1  603   0.724   1.243   0.318
  195SOL    HW2  604   0.861   1.327   0.342
  196SOL     OW  605   0.618   1.567   1.284
  196SOL    HW1  606   0.613   1.649   1.341
  196SOL    HW2  607   0.707   1.564   1.239
  197SOL     OW  608   1.352   0.052   0.168
  197SOL    HW1  609   1.387   0.011   0.084
  197SOL    HW2  610   1.262   0.014   0.188
  198SOL     OW  611   1.300   0.453   0.691
  198SOL    HW1  612   1.241   0.533   0.695
  198SOL    HW2  613   1.315   0.418   0.784
  199SOL     OW  614   1.593   0.221   0.882
  199SOL    HW1  615   1.509   0.220   0.936
  199SOL    HW2  616   1.595   0.304   0.826
  200SOL     OW  617   0.039   1.077   0.300
  200SOL    HW1  618   0.138   1.066   0.291
  200SOL    HW2  619  -0.001   0.991   0.332
  201SOL     OW  620   0.875   1.646   0.337
  201SOL    HW1  621   0.798   1.611   0.283
  201SOL    HW2  622   0.843   1.717   0.399
  202SOL     OW  623   0.230   0.628   1.975
  202SOL    HW1  624   0.137   0.626   2.012
  202SOL    HW2  625   0.231   0.589   1.883
  203SOL     OW  626   0.225   0.275   2.858
  203SOL    HW1  627   0.260   0.258   2.950
  203SOL    HW2  628   0.137   0.230   2.846
  204SOL     OW  629   0.019   0.368   2.509
  204SOL    HW1  630  -0.063   0.411   2.548
  204SOL    HW2  631  -0.009   0.295   2.446
  205SOL     OW  632   1.555   1.511   2.565
  205SOL    HW1  633   1.498   1.495   2.646
  205SOL    HW2  634   1.496   1.521   2.485
  206SOL     OW  635   1.135   0.703   2.579
  206SOL    HW1  636   1.192   0.781   2.554
  206SOL    HW2  637   1.075   0.729   2.655
  207SOL     OW  638   1.755   0.607   2.093
  207SOL    HW1  639   1.743   0.594   1.994
  207SOL    HW2  640   1.725   0.526   2.142
  208SOL     OW  641   0.768   1.144   2.885
  208SOL    HW1  642   0.690   1.161   2.945
  208SOL    HW2  643   0.802   1.231   2.849
  209SOL     OW  644   0.685   1.012   2.527
  209SOL    HW1  645   0.754   0.996   2.597
  209SOL    HW2  646   0.612   1.069   2.565
  210SOL     OW  647   0.335   1.435   2.923
  210SOL    HW1  648   0.257   1.404   2.870
  210SOL    HW2  649   0.393   1.493   2.866
  211SOL     OW  650   1.603   0.447   2.599
  211SOL    HW1  651   1.529   0.493   2.549
  211SOL    HW2  652   1.654   0.515   2.652
  212SOL     OW  653   0.231   1.713   2.345
  212SOL    HW1  654   0.265   1.790   2.399
  212SOL    HW2  655   0.275   1.713   2.255
  213SOL     OW  656   0.230   1.434   2.400
  213SOL    HW1  657   0.204   1.530   2.400
  213SOL    HW2  658   0.159   1.380   2.445
  214SOL     OW  659   0.240   1.091   2.748
  214SOL    HW1  660   0.254   1.007   2.800
  214SOL    HW2  661   0.185   1.155   2.803
  215SOL     OW  662   0.606   0.964   1.985
  215SOL    HW1  663   0.613   1.048   1.931
  215SOL    HW2  664   0.652   0.977   2.073
  216SOL     OW  665   0.122   0.643   2.425
  216SOL    HW1  666   0.077   0.555   2.442
  216SOL    HW2  667   0.121   0.697   2.509
  217SOL     OW  668   1.842   1.767   2.221
  217SOL    HW1  669   1.896   1.738   2.301
  217SOL    HW2  670   1.872   1.857   2.192
  218SOL     OW  671   0.027   1.596   1.979
  218SOL    HW1  672   0.008   1.500   2.000
  218SOL    HW2  673  -0.006   1.654   2.054
  219SOL     OW  674   1.689   0.922   2.474
  219SOL    HW1  675   1.784   0.893   2.482
  219SOL    HW2  676   1.681   0.987   2.399
  220SOL     OW  677   1.641   1.108   2.294
  220SOL    HW1  678   1.727   1.110   2.242
  220SOL    HW2  679   1.655   1.155   2.382
  221SOL     OW  680   0.613   1.365   2.588
  221SOL    HW1  681   0.564   1.278   2.597
  221SOL    HW2  682   0.590   1.408   2.501
  222SOL     OW  683   0.809   0.004   2.364
  222SOL    HW1  684   0.849   0.095   2.355
  222SOL    HW2  685   0.709   0.012   2.370
  223SOL     OW  686   0.197   0.976   3.126
  223SOL    HW1  687   0.286   0.931   3.112
  223SOL    HW2  688   0.124   0.911   3.107
  224SOL     OW  689   1.525   0.999   2.052
  224SOL    HW1  690   1.462   0.923   2.065
  224SOL    HW2  691   1.573   1.017   2.138
  225SOL     OW  692   1.466   1.417   2.815
  225SOL    HW1  693   1.407   1.423   2.895
  225SOL    HW2  694   1.451   1.329   2.769
  226SOL     OW  695   1.667   1.714   2.434
  226SOL    HW1  696   1.626   1.691   2.346
  226SOL    HW2  697   1.649   1.640   2.499
  227SOL     OW  698   0.598   0.729   2.132
  227SOL    HW1  699   0.622   0.798   2.064
  227SOL    HW2  700   0.520   0.762   2.186
  228SOL     OW  701   1.281   0.345   2.806
  228SOL    HW1  702   1.195   0.295   2.793
  228SOL    HW2  703   1.343   0.291   2.862
  229SOL     OW  704   1.041   0.701   2.291
  229SOL    HW1  705   1.067   0.697   2.387
  229SOL    HW2  706   0.956   0.650   2.277
  230SOL     OW  707   0.076   0.811   2.651
  230SOL    HW1  708   0.175   0.799   2.660
  230SOL    HW2  709   0.052   0.906   2.672
  231SOL     OW  710   0.865   0.348   2.057
  231SOL    HW1  711   0.924   0.411   2.008
  231SOL    HW2  712   0.884   0.254   2.028
  232SOL     OW  713   1.362   1.144   2.407
  232SOL    HW1  714   1.445   1.115   2.359
  232SOL    HW2  715   1.313   1.211   2.351
  233SOL     OW  716   0.550   0.196   2.747
  233SOL    HW1  717   0.545   0.191   2.847
  233SOL    HW2  718   0.552   0.292   2.718
  234SOL     OW  719   1.008   1.456   2.339
  234SOL    HW1  720   0.962   1.528   2.287
  234SOL    HW2  721   1.004   1.476   2.437
  235SOL     OW  722   0.351   1.801   2.715
  235SOL    HW1  723   0.401   1.715   2.721
  235SOL    HW2  724   0.416   1.878   2.712
  236SOL     OW  725   1.795   1.066   2.735
  236SOL    HW1  726   1.733   1.051   2.659
  236SOL    HW2  727   1.743   1.077   2.820
  237SOL     OW  728   0.321   0.943   2.104
  237SOL    HW1  729   0.403   0.982   2.062
  237SOL    HW2  730   0.294   0.861   2.055
  238SOL     OW  731   1.458   0.735   2.590
  238SOL    HW1  732   1.453   0.670   2.665
  238SOL    HW2  733   1.538   0.794   2.603
  239SOL     OW  734   1.111   1.776   2.099
  239SOL    HW1  735   1.051   1.714   2.149
  239SOL    HW2  736   1.142   1.732   2.014
  240SOL     OW  737   0.464   1.743   2.185
  240SOL    HW1  738   0.497   1.782   2.271
  240SOL    HW2  739   0.540   1.736   2.120
  241SOL     OW  740   1.400   0.107   2.288
  241SOL    HW1  741   1.376   0.070   2.198
  241SOL    HW2  742   1.499   0.123   2.292
  242SOL     OW  743   0.249   1.785   3.103
  242SOL    HW1  744   0.306   1.720   3.153
  242SOL    HW2  745   0.233   1.752   3.010
  243SOL     OW  746   0.940   1.698   2.766
  243SOL    HW1  747   1.020   1.641   2.787
  243SOL    HW2  748   0.891   1.658   2.689
  244SOL     OW  749   0.382   0.700   2.342
  244SOL    HW1  750   0.427   0.610   2.339
  244SOL    HW2  751   0.288   0.689   2.375
  245SOL     OW  752   0.614   0.122   1.979
  245SOL    HW1  753   0.712   0.100   1.986
  245SOL    HW2  754   0.583   0.105   1.886
  246SOL     OW  755   0.803   1.402   2.786
  246SOL    HW1  756   0.893   1.416   2.744
  246SOL    HW2  757   0.732   1.404   2.715
  247SOL     OW  758   0.922   0.503   2.761
  247SOL    HW1  759   0.897   0.494   2.665
  247SOL    HW2  760   0.970   0.421   2.792
  248SOL     OW  761   0.539   0.064   2.374
  248SOL    HW1  762   0.458   0.065   2.432
  248SOL    HW2  763   0.542   0.147   2.319
  249SOL     OW  764   1.434   1.188   1.903
  249SOL    HW1  765   1.466   1.112   1.960
  249SOL    HW2  766   1.342   1.215   1.933
  250SOL     OW  767   0.297   0.035   2.033
  250SOL    HW1  768   0.346   0.119   2.012
  250SOL    HW2  769   0.359  -0.030   2.078
  251SOL     OW  770   0.935   0.236   2.342
  251SOL    HW1  771   0.887   0.277   2.264
  251SOL    HW2  772   1.034   0.234   2.323
  252SOL     OW  773   1.227   1.570   2.655
  252SOL    HW1  774   1.248   1.644   2.590
  252SOL    HW2  775   1.295   1.570   2.728
  253SOL     OW  776   0.459   1.152   2.603
  253SOL    HW1  777   0.388   1.125   2.668
  253SOL    HW2  778   0.433   1.124   2.510
  254SOL     OW  779   1.271   1.797   2.453
  254SOL    HW1  780   1.315   1.861   2.389
  254SOL    HW2  781   1.221   1.849   2.523
  255SOL     OW  782   1.032   0.549   1.878
  255SOL    HW1  783   0.991   0.631   1.839
  255SOL    HW2  784   1.096   0.575   1.951
  256SOL     OW  785   0.866   0.454   2.504
  256SOL    HW1  786   0.834   0.526   2.442
  256SOL    HW2  787   0.890   0.373   2.451
  257SOL     OW  788   1.017   0.039   2.615
  257SOL    HW1  789   0.945   0.044   2.546
  257SOL    HW2  790   0.993  -0.030   2.684
  258SOL     OW  791   1.429   1.173   2.729
  258SOL    HW1  792   1.374   1.089   2.722
  258SOL    HW2  793   1.455   1.202   2.637
  259SOL     OW  794   1.466   0.590   2.854
  259SOL    HW1  795   1.436   0.495   2.861
  259SOL    HW2  796   1.539   0.606   2.920
  260SOL     OW  797   1.857   0.833   2.239
  260SOL    HW1  798   1.899   0.769   2.303
  260SOL    HW2  799   1.819   0.782   2.161
  261SOL     OW  800   0.488   1.385   2.036
  261SOL    HW1  801   0.401   1.370   2.083
  261SOL    HW2  802   0.471   1.411   1.941
  262SOL     OW  803   1.664   1.280   2.519
  262SOL    HW1  804   1.763   1.288   2.533
  262SOL    HW2  805   1.619   1.364   2.550
  263SOL     OW  806   1.390   0.575   1.940
  263SOL    HW1  807   1.336   0.554   2.021
  263SOL    HW2  808   1.481   0.534   1.949
  264SOL     OW  809   0.527   0.256   2.190
  264SOL    HW1  810   0.554   0.197   2.115
  264SOL    HW2  811   0.527   0.351   2.159
  265SOL     OW  812   1.111   1.195   2.962
  265SOL    HW1  813   1.071   1.239   3.043
  265SOL    HW2  814   1.070   1.232   2.879
  266SOL     OW  815   1.638   1.099   2.941
  266SOL    HW1  816   1.643   1.180   3.000
  266SOL    HW2  817   1.552   1.101   2.890
  267SOL     OW  818   0.705   1.050   2.230
  267SOL    HW1  819   0.691   1.057   2.329
  267SOL    HW2  820   0.789   0.999   2.212
  268SOL     OW  821   0.410   0.813   3.113
  268SOL    HW1  822   0.496   0.825   3.163
  268SOL    HW2  823   0.368   0.726   3.140
  269SOL     OW  824   0.367   1.100   2.363
  269SOL    HW1  825   0.360   1.183   2.307
  269SOL    HW2  826   0.371   1.020   2.303
  270SOL     OW  827   0.566   0.537   2.727
  270SOL    HW1  828   0.578   0.603   2.653
  270SOL    HW2  829   0.612   0.571   2.810
  271SOL     OW  830   1.252   1.348   2.250
  271SOL    HW1  831   1.302   1.425   2.290
  271SOL    HW2  832   1.157   1.350   2.282
  272SOL     OW  833   1.272   1.445   3.004
  272SOL    HW1  834   1.319   1.458   3.091
  272SOL    HW2  835   1.206   1.371   3.013
  273SOL     OW  836   1.582   0.639   2.334
  273SOL    HW1  837   1.551   0.700   2.407
  273SOL    HW2  838   1.632   0.691   2.265
  274SOL     OW  839   0.354   1.510   3.191
  274SOL    HW1  840   0.333   1.466   3.104
  274SOL    HW2  841   0.451   1.536   3.194
  275SOL     OW  842   0.573   0.870   2.891
  275SOL    HW1  843   0.617   0.959   2.882
  275SOL    HW2  844   0.510   0.870   2.968
  276SOL     OW  845   1.209   0.525   2.137
  276SOL    HW1  846   1.222   0.441   2.191
  276SOL    HW2  847   1.180   0.599   2.197
  277SOL     OW  848   0.732   0.634   2.926
  277SOL    HW1  849   0.791   0.608   2.850
  277SOL    HW2  850   0.704   0.730   2.915
  278SOL     OW  851   0.307   0.063   2.480
  278SOL    HW1  852   0.296   0.157   2.513
  278SOL    HW2  853   0.302   0.000   2.557
  279SOL     OW  854   1.622   0.367   2.236
  279SOL    HW1  855   1.624   0.291   2.300
  279SOL    HW2  856   1.574   0.444   2.276
  280SOL     OW  857   1.023   0.766   2.828
  280SOL    HW1  858   1.038   0.787   2.924
  280SOL    HW2  859   0.993   0.671   2.819
  281SOL     OW  860   1.540   0.274   1.987
  281SOL    HW1  861   1.479   0.199   2.010
  281SOL    HW2  862   1.562   0.326   2.070
  282SOL     OW  863   1.303   0.838   1.904
  282SOL    HW1  864   1.337   0.745   1.919
  282SOL    HW2  865   1.321   0.865   1.809
  283SOL     OW  866   1.068   1.333   2.711
  283SOL    HW1  867   1.075   1.249   2.656
  283SOL    HW2  868   1.130   1.402   2.675
  284SOL     OW  869   0.319   0.810   2.811
  284SOL    HW1  870   0.412   0.846   2.816
  284SOL    HW2  871   0.313   0.725   2.863
  285SOL     OW  872   0.339   0.509   2.868
  285SOL    HW1  873   0.287   0.426   2.851
  285SOL    HW2  874   0.416   0.514   2.804
  286SOL     OW  875   0.008   1.326   2.062
  286SOL    HW1  876  -0.085   1.347   2.031
  286SOL    HW2  877   0.018   1.227   2.075
  287SOL     OW  878   0.088   1.801   2.789
  287SOL    HW1  879   0.046   1.715   2.762
  287SOL    HW2  880   0.182   1.804   2.755
  288SOL     OW  881   0.504   1.568   2.772
  288SOL    HW1  882   0.570   1.642   2.781
  288SOL    HW2  883   0.548   1.489   2.730
  289SOL     OW  884   1.002   0.796   3.100
  289SOL    HW1  885   1.043   0.764   3.186
  289SOL    HW2  886   0.906   0.769   3.097
  290SOL     OW  887   0.815   0.572   2.187
  290SOL    HW1  888   0.822   0.483   2.141
  290SOL    HW2  889   0.721   0.606   2.179
  291SOL     OW  890   0.671   0.464   3.131
  291SOL    HW1  891   0.637   0.375   3.101
  291SOL    HW2  892   0.697   0.518   3.051
  292SOL     OW  893   0.473   0.500   2.053
  292SOL    HW1  894   0.534   0.580   2.057
  292SOL    HW2  895   0.378   0.531   2.060
  293SOL     OW  896   1.302   0.855   2.171
  293SOL    HW1  897   1.216   0.824   2.213
  293SOL    HW2  898   1.298   0.841   2.072
  294SOL     OW  899   1.759   1.747   3.016
  294SOL    HW1  900   1.820   1.777   2.943
  294SOL    HW2  901   1.721   1.658   2.994
  295SOL     OW  902   0.083   1.258   2.884
  295SOL    HW1  903   0.078   1.257   2.984
  295SOL    HW2  904   0.000   1.217   2.846
  296SOL     OW  905   1.726   0.135   2.385
  296SOL    HW1  906   1.799   0.118   2.318
  296SOL    HW2  907   1.695   0.048   2.423
  297SOL     OW  908   1.388   1.573   2.339
  297SOL    HW1  909   1.455   1.585   2.265
  297SOL    HW2  910   1.348   1.662   2.362
  298SOL     OW  911   1.280   0.927   2.534
  298SOL    HW1  912   1.340   0.846   2.536
  298SOL    HW2  913   1.320   0.996   2.474
  299SOL     OW  914   0.672   1.616   2.016
  299SOL    HW1  915   0.681   1.626   1.917
  299SOL    HW2  916   0.632   1.527   2.037
  300SOL     OW  917   1.841   0.175   2.825
  300SOL    HW1  918   1.880   0.090   2.789
  300SOL    HW2  919   1.743   0.177   2.806
  301SOL     OW  920   0.263   0.326   2.582
  301SOL    HW1  921   0.184   0.377   2.548
  301SOL    HW2  922   0.254   0.311   2.680
  302SOL     OW  923   0.916   0.910   2.153
  302SOL    HW1  924   0.979   0.948   2.085
  302SOL    HW2  925   0.956   0.827   2.192
  303SOL     OW  926   1.039   1.098   2.558
  303SOL    HW1  927   0.969   1.051   2.612
  303SOL    HW2  928   1.098   1.030   2.515
  304SOL     OW  929   1.014   0.236   2.833
  304SOL    HW1  930   1.006   0.200   2.740
  304SOL    HW2  931   1.012   0.160   2.898
  305SOL     OW  932   0.590   1.487   2.353
  305SOL    HW1  933   0.632   1.429   2.283
  305SOL    HW2  934   0.546   1.566   2.309
  306SOL     OW  935   0.255   1.348   2.152
  306SOL    HW1  936   0.159   1.349   2.125
  306SOL    HW2  937   0.267   1.401   2.236
  307SOL     OW  938   0.075   0.345   1.895
  307SOL    HW1  939  -0.017   0.317   1.866
  307SOL    HW2  940   0.106   0.422   1.839
  308SOL     OW  941   0.072   0.166   2.180
  308SOL    HW1  942   0.055   0.249   2.126
  308SOL    HW2  943   0.162   0.129   2.158
  309SOL     OW  944   1.183   1.335   1.981
  309SOL    HW1  945   1.084   1.324   1.983
  309SOL    HW2  946   1.217   1.350   2.074
  310SOL     OW  947   1.493   1.767   2.821
  310SOL    HW1  948   1.526   1.831   2.752
  310SOL    HW2  949   1.559   1.761   2.896
  311SOL     OW  950   1.674   0.883   3.116
  311SOL    HW1  951   1.647   0.794   3.079
  311SOL    HW2  952   1.675   0.951   3.043
  312SOL     OW  953   1.225   0.325   2.311
  312SOL    HW1  954   1.290   0.251   2.300
  312SOL    HW2  955   1.245   0.375   2.395
  313SOL     OW  956   0.594   0.745   2.514
  313SOL    HW1  957   0.644   0.830   2.495
  313SOL    HW2  958   0.506   0.747   2.466
  314SOL     OW  959   0.859   1.374   1.878
  314SOL    HW1  960   0.813   1.389   1.966
  314SOL    HW2  961   0.903   1.459   1.848
  315SOL     OW  962   0.661   1.790   2.815
  315SOL    HW1  963   0.615   1.878   2.802
  315SOL    HW2  964   0.760   1.802   2.808
  316SOL     OW  965   0.859   0.956   2.723
  316SOL    HW1  966   0.913   0.887   2.771
  316SOL    HW2  967   0.827   1.025   2.789
  317SOL     OW  968   1.083   0.984   1.949
  317SOL    HW1  969   1.060   1.037   1.867
  317SOL    HW2  970   1.164   0.928   1.930
  318SOL     OW  971   1.861   1.569   2.713
  318SOL    HW1  972   1.790   1.557   2.643
  318SOL    HW2  973   1.862   1.490   2.773
  319SOL     OW  974   0.079   1.240   2.515
  319SOL    HW1  975   0.078   1.193   2.603
  319SOL    HW2  976   0.161   1.212   2.464
  320SOL     OW  977   1.824   0.192   3.089
  320SOL    HW1  978   1.820   0.102   3.133
  320SOL    HW2  979   1.827   0.181   2.990
  321SOL     OW  980   0.428   0.424   2.382
  321SOL    HW1  981   0.458   0.352   2.320
  321SOL    HW2  982   0.389   0.384   2.465
  322SOL     OW  983   0.812   1.586   2.549
  322SOL    HW1  984   0.844   1.596   2.455
  322SOL    HW2  985   0.733   1.524   2.551
  323SOL     OW  986   1.424   0.214   2.974
  323SOL    HW1  987   1.476   0.149   3.029
  323SOL    HW2  988   1.375   0.277   3.035
  324SOL     OW  989   0.770   1.330   2.163
  324SOL    HW1  990   0.724   1.243   2.180
  324SOL    HW2  991   0.861   1.327   2.204
  325SOL     OW  992   1.352   0.052   2.030
  325SOL    HW1  993   1.387   0.011   1.946
  325SOL    HW2  994   1.262   0.014   2.050
  326SOL     OW  995   1.300   0.453   2.553
  326SOL    HW1  996   1.241   0.533   2.557
  326SOL    HW2  997   1.315   0.418   2.646
  327SOL     OW  998   1.593   0.221   2.744
  327SOL    HW1  999   1.509   0.220   2.798
  327SOL    HW2 1000   1.595   0.304   2.688
  328SOL     OW 1001   0.039   1.077   2.162
  328SOL    HW1 1002   0.138   1.066   2.153
  328SOL    HW2 1003  -0.001   0.991   2.194
  329SOL     OW 1004   0.875   1.646   2.199
  329SOL    HW1 1005   0.798   1.611   2.145
  329SOL    HW2 1006   0.843   1.717   2.261
  330SOL     OW 1007   0.230   2.490   0.113
  330SOL    HW1 1008   0.137   2.488   0.150
  330SOL    HW2 1009   0.231   2.451   0.021
  331SOL     OW 1010   0.225   2.137   0.996
  331SOL    HW1 1011   0.260   2.120   1.088
  331SOL    HW2 1012   0.137   2.092   0.984
  332SOL     OW 1013   0.019   2.230   0.647
  332SOL    HW1 1014  -0.063   2.273   0.686
  332SOL    HW2 1015  -0.009   2.157   0.584
  333SOL     OW 1016   1.135   2.565   0.717
  333SOL    HW1 1017   1.192   2.643   0.692
  333SOL    HW2 1018   1.075   2.591   0.793
  334SOL     OW 1019   1.755   2.469   0.231
  334SOL    HW1 1020   1.743   2.456   0.132
  334SOL    HW2 1021   1.725   2.388   0.280
  335SOL     OW 1022   0.768   3.006   1.023
  335SOL    HW1 1023   0.690   3.023   1.083
  335SOL    HW2 1024   0.802   3.093   0.987
  336SOL     OW 1025   0.850   2.660   1.823
  336SOL    HW1 1026   0.846   2.736   1.888
  336SOL    HW2 1027   0.872   2.696   1.732
  337SOL     OW 1028   0.685   2.874   0.665
  337SOL    HW1 1029   0.754   2.858   0.735
  337SOL    HW2 1030   0.612   2.931   0.703
  338SOL     OW 1031   0.438   2.254   1.499
  338SOL    HW1 1032   0.520   2.198   1.508
  338SOL    HW2 1033   0.357   2.196   1.503
  339SOL     OW 1034   1.603   2.309   0.737
  339SOL    HW1 1035   1.529   2.355   0.687
  339SOL    HW2 1036   1.654   2.377   0.790
  340SOL     OW 1037   0.230   3.296   0.538
  340SOL    HW1 1038   0.204   3.392   0.538
  340SOL    HW2 1039   0.159   3.242   0.583
  341SOL     OW 1040   0.240   2.953   0.886
  341SOL    HW1 1041   0.254   2.869   0.938
  341SOL    HW2 1042   0.185   3.017   0.941
  342SOL     OW 1043   0.606   2.826   0.123
  342SOL    HW1 1044   0.613   2.910   0.069
  342SOL    HW2 1045   0.652   2.839   0.211
  343SOL     OW 1046   1.594   1.976   1.480
  343SOL    HW1 1047   1.576   2.043   1.408
  343SOL    HW2 1048   1.591   2.022   1.569
  344SOL     OW 1049   0.122   2.505   0.563
  344SOL    HW1 1050   0.077   2.417   0.580
  344SOL    HW2 1051   0.121   2.559   0.647
  345SOL     OW 1052   1.689   2.784   0.612
  345SOL    HW1 1053   1.784   2.755   0.620
  345SOL    HW2 1054   1.681   2.849   0.537
  346SOL     OW 1055   0.113   2.599   1.597
  346SOL    HW1 1056   0.201   2.586   1.642
  346SOL    HW2 1057   0.100   2.696   1.575
  347SOL     OW 1058   1.293   3.090   1.423
  347SOL    HW1 1059   1.330   3.017   1.365
  347SOL    HW2 1060   1.345   3.095   1.508
  348SOL     OW 1061   0.809   1.866   0.502
  348SOL    HW1 1062   0.849   1.957   0.493
  348SOL    HW2 1063   0.709   1.874   0.508
  349SOL     OW 1064   0.197   2.838   1.264
  349SOL    HW1 1065   0.286   2.793   1.250
  349SOL    HW2 1066   0.124   2.773   1.245
  350SOL     OW 1067   1.525   2.861   0.190
  350SOL    HW1 1068   1.462   2.785   0.203
  350SOL    HW2 1069   1.573   2.879   0.276
  351SOL     OW 1070   0.317   2.113   1.801
  351SOL    HW1 1071   0.388   2.184   1.807
  351SOL    HW2 1072   0.229   2.152   1.829
  352SOL     OW 1073   0.598   2.591   0.270
  352SOL    HW1 1074   0.622   2.660   0.202
  352SOL    HW2 1075   0.520   2.624   0.324
  353SOL     OW 1076   1.281   2.207   0.944
  353SOL    HW1 1077   1.195   2.157   0.931
  353SOL    HW2 1078   1.343   2.153   1.000
  354SOL     OW 1079   0.807   2.467   1.465
  354SOL    HW1 1080   0.760   2.464   1.554
  354SOL    HW2 1081   0.756   2.412   1.399
  355SOL     OW 1082   1.394   2.331   1.674
  355SOL    HW1 1083   1.374   2.374   1.762
  355SOL    HW2 1084   1.472   2.269   1.683
  356SOL     OW 1085   0.973   2.752   1.572
  356SOL    HW1 1086   1.019   2.668   1.543
  356SOL    HW2 1087   0.917   2.786   1.497
  357SOL     OW 1088   0.991   2.272   1.242
  357SOL    HW1 1089   0.914   2.306   1.296
  357SOL    HW2 1090   0.957   2.221   1.163
  358SOL     OW 1091   1.041   2.563   0.429
  358SOL    HW1 1092   1.067   2.559   0.525
  358SOL    HW2 1093   0.956   2.512   0.415
  359SOL     OW 1094   0.076   2.673   0.789
  359SOL    HW1 1095   0.175   2.661   0.798
  359SOL    HW2 1096   0.052   2.768   0.810
  360SOL     OW 1097   0.865   2.210   0.195
  360SOL    HW1 1098   0.924   2.273   0.146
  360SOL    HW2 1099   0.884   2.116   0.166
  361SOL     OW 1100   1.719   2.447   1.831
  361SOL    HW1 1101   1.693   2.536   1.795
  361SOL    HW2 1102   1.717   2.379   1.758
  362SOL     OW 1103   0.550   2.058   0.885
  362SOL    HW1 1104   0.545   2.053   0.985
  362SOL    HW2 1105   0.552   2.154   0.856
  363SOL     OW 1106   1.795   2.928   0.873
  363SOL    HW1 1107   1.733   2.913   0.797
  363SOL    HW2 1108   1.743   2.939   0.958
  364SOL     OW 1109   0.321   2.805   0.242
  364SOL    HW1 1110   0.403   2.844   0.200
  364SOL    HW2 1111   0.294   2.723   0.193
  365SOL     OW 1112   1.458   2.597   0.728
  365SOL    HW1 1113   1.453   2.532   0.803
  365SOL    HW2 1114   1.538   2.656   0.741
  366SOL     OW 1115   0.202   2.147   1.498
  366SOL    HW1 1116   0.122   2.207   1.485
  366SOL    HW2 1117   0.192   2.098   1.584
  367SOL     OW 1118   1.400   1.969   0.426
  367SOL    HW1 1119   1.376   1.932   0.336
  367SOL    HW2 1120   1.499   1.985   0.430
  368SOL     OW 1121   0.382   2.562   0.480
  368SOL    HW1 1122   0.427   2.472   0.477
  368SOL    HW2 1123   0.288   2.551   0.513
  369SOL     OW 1124   1.547   2.084   1.729
  369SOL    HW1 1125   1.542   2.121   1.821
  369SOL    HW2 1126   1.475   2.015   1.717
  370SOL     OW 1127   0.614   1.984   0.117
  370SOL    HW1 1128   0.712   1.962   0.124
  370SOL    HW2 1129   0.583   1.967   0.024
  371SOL     OW 1130   0.781   2.126   1.749
  371SOL    HW1 1131   0.848   2.065   1.792
  371SOL    HW2 1132   0.708   2.145   1.814
  372SOL     OW 1133   1.351   2.452   1.433
  372SOL    HW1 1134   1.379   2.409   1.518
  372SOL    HW2 1135   1.376   2.548   1.434
  373SOL     OW 1136   0.922   2.365   0.899
  373SOL    HW1 1137   0.897   2.356   0.803
  373SOL    HW2 1138   0.970   2.283   0.930
  374SOL     OW 1139   0.539   1.926   0.512
  374SOL    HW1 1140   0.458   1.927   0.570
  374SOL    HW2 1141   0.542   2.009   0.457
  375SOL     OW 1142   0.935   2.098   0.480
  375SOL    HW1 1143   0.887   2.139   0.402
  375SOL    HW2 1144   1.034   2.096   0.461
  376SOL     OW 1145   1.076   2.545   1.464
  376SOL    HW1 1146   0.996   2.484   1.467
  376SOL    HW2 1147   1.157   2.492   1.440
  377SOL     OW 1148   0.459   3.014   0.741
  377SOL    HW1 1149   0.388   2.987   0.806
  377SOL    HW2 1150   0.433   2.986   0.648
  378SOL     OW 1151   1.032   2.411   0.016
  378SOL    HW1 1152   0.991   2.493  -0.023
  378SOL    HW2 1153   1.096   2.437   0.089
  379SOL     OW 1154   0.078   2.418   1.386
  379SOL    HW1 1155   0.170   2.417   1.345
  379SOL    HW2 1156   0.072   2.492   1.453
  380SOL     OW 1157   0.561   2.084   1.147
  380SOL    HW1 1158   0.599   2.000   1.184
  380SOL    HW2 1159   0.473   2.103   1.191
  381SOL     OW 1160   0.866   2.316   0.642
  381SOL    HW1 1161   0.834   2.388   0.580
  381SOL    HW2 1162   0.890   2.235   0.589
  382SOL     OW 1163   1.017   1.901   0.753
  382SOL    HW1 1164   0.945   1.906   0.684
  382SOL    HW2 1165   0.993   1.832   0.822
  383SOL     OW 1166   1.429   3.035   0.867
  383SOL    HW1 1167   1.374   2.951   0.860
  383SOL    HW2 1168   1.455   3.064   0.775
  384SOL     OW 1169   1.466   2.452   0.992
  384SOL    HW1 1170   1.436   2.357   0.999
  384SOL    HW2 1171   1.539   2.468   1.058
  385SOL     OW 1172   1.857   2.695   0.377
  385SOL    HW1 1173   1.899   2.631   0.441
  385SOL    HW2 1174   1.819   2.644   0.299
  386SOL     OW 1175   1.390   2.437   0.078
  386SOL    HW1 1176   1.336   2.416   0.159
  386SOL    HW2 1177   1.481   2.396   0.087
  387SOL     OW 1178   0.527   2.118   0.328
  387SOL    HW1 1179   0.554   2.059   0.253
  387SOL    HW2 1180   0.527   2.213   0.297
  388SOL     OW 1181   1.754   3.085   1.588
  388SOL    HW1 1182   1.845   3.046   1.575
  388SOL    HW2 1183   1.762   3.181   1.612
  389SOL     OW 1184   1.638   2.961   1.079
  389SOL    HW1 1185   1.643   3.042   1.138
  389SOL    HW2 1186   1.552   2.963   1.028
  390SOL     OW 1187   0.915   1.951   1.402
  390SOL    HW1 1188   0.940   1.931   1.307
  390SOL    HW2 1189   0.987   2.007   1.444
  391SOL     OW 1190   0.705   2.912   0.368
  391SOL    HW1 1191   0.691   2.919   0.467
  391SOL    HW2 1192   0.789   2.861   0.350
  392SOL     OW 1193   0.410   2.675   1.251
  392SOL    HW1 1194   0.496   2.687   1.301
  392SOL    HW2 1195   0.368   2.588   1.278
  393SOL     OW 1196   1.274   2.248   1.262
  393SOL    HW1 1197   1.295   2.322   1.326
  393SOL    HW2 1198   1.185   2.265   1.219
  394SOL     OW 1199   0.367   2.962   0.501
  394SOL    HW1 1200   0.360   3.045   0.445
  394SOL    HW2 1201   0.371   2.882   0.441
  395SOL     OW 1202   0.566   2.399   0.865
  395SOL    HW1 1203   0.578   2.465   0.791
  395SOL    HW2 1204   0.612   2.433   0.948
  396SOL     OW 1205   1.582   2.501   0.472
  396SOL    HW1 1206   1.551   2.562   0.545
  396SOL    HW2 1207   1.632   2.553   0.403
  397SOL     OW 1208   0.402   2.613   1.598
  397SOL    HW1 1209   0.470   2.668   1.551
  397SOL    HW2 1210   0.442   2.525   1.625
  398SOL     OW 1211   1.587   2.641   1.670
  398SOL    HW1 1212   1.495   2.679   1.665
  398SOL    HW2 1213   1.647   2.688   1.605
  399SOL     OW 1214   1.013   1.967   1.770
  399SOL    HW1 1215   1.019   2.052   1.718
  399SOL    HW2 1216   1.045   1.891   1.713
  400SOL     OW 1217   0.504   1.912   1.740
  400SOL    HW1 1218   0.462   1.855   1.670
  400SOL    HW2 1219   0.438   1.981   1.772
  401SOL     OW 1220   0.573   2.732   1.029
  401SOL    HW1 1221   0.617   2.821   1.020
  401SOL    HW2 1222   0.510   2.732   1.106
  402SOL     OW 1223   1.360   2.724   1.045
  402SOL    HW1 1224   1.285   2.724   0.979
  402SOL    HW2 1225   1.397   2.632   1.054
  403SOL     OW 1226   1.209   2.387   0.275
  403SOL    HW1 1227   1.222   2.303   0.329
  403SOL    HW2 1228   1.180   2.461   0.335
  404SOL     OW 1229   0.307   2.075   1.231
  404SOL    HW1 1230   0.284   2.112   1.321
  404SOL    HW2 1231   0.277   1.980   1.225
  405SOL     OW 1232   0.037   3.172   1.282
  405SOL    HW1 1233   0.090   3.123   1.350
  405SOL    HW2 1234   0.059   3.270   1.287
  406SOL     OW 1235   0.732   2.496   1.064
  406SOL    HW1 1236   0.791   2.470   0.988
  406SOL    HW2 1237   0.704   2.592   1.053
  407SOL     OW 1238   1.728   2.797   1.854
  407SOL    HW1 1239   1.682   2.790   1.765
  407SOL    HW2 1240   1.666   2.841   1.920
  408SOL     OW 1241   0.307   1.925   0.618
  408SOL    HW1 1242   0.296   2.019   0.651
  408SOL    HW2 1243   0.302   1.862   0.695
  409SOL     OW 1244   1.622   2.229   0.374
  409SOL    HW1 1245   1.624   2.153   0.438
  409SOL    HW2 1246   1.574   2.306   0.414
  410SOL     OW 1247   1.023   2.628   0.966
  410SOL    HW1 1248   1.038   2.649   1.062
  410SOL    HW2 1249   0.993   2.533   0.957
  411SOL     OW 1250   0.350   2.760   1.804
  411SOL    HW1 1251   0.426   2.804   1.852
  411SOL    HW2 1252   0.385   2.713   1.722
  412SOL     OW 1253   1.540   2.136   0.125
  412SOL    HW1 1254   1.479   2.061   0.148
  412SOL    HW2 1255   1.562   2.188   0.208
  413SOL     OW 1256   1.303   2.700   0.042
  413SOL    HW1 1257   1.337   2.607   0.057
  413SOL    HW2 1258   1.321   2.727  -0.053
  414SOL     OW 1259   0.319   2.672   0.949
  414SOL    HW1 1260   0.412   2.708   0.954
  414SOL    HW2 1261   0.313   2.587   1.001
  415SOL     OW 1262   0.339   2.371   1.006
  415SOL    HW1 1263   0.287   2.288   0.989
  415SOL    HW2 1264   0.416   2.376   0.942
  416SOL     OW 1265   1.138   2.242   1.678
  416SOL    HW1 1266   1.093   2.305   1.742
  416SOL    HW2 1267   1.231   2.273   1.661
  417SOL     OW 1268   1.160   2.069   1.477
  417SOL    HW1 1269   1.160   2.133   1.554
  417SOL    HW2 1270   1.188   2.117   1.394
  418SOL     OW 1271   1.002   2.658   1.238
  418SOL    HW1 1272   1.043   2.626   1.324
  418SOL    HW2 1273   0.906   2.631   1.235
  419SOL     OW 1274   0.040   2.406   1.114
  419SOL    HW1 1275   0.125   2.373   1.073
  419SOL    HW2 1276   0.053   2.421   1.212
  420SOL     OW 1277   0.189   2.382   1.722
  420SOL    HW1 1278   0.248   2.342   1.652
  420SOL    HW2 1279   0.131   2.453   1.681
  421SOL     OW 1280   1.369   2.812   1.660
  421SOL    HW1 1281   1.408   2.901   1.680
  421SOL    HW2 1282   1.379   2.792   1.563
  422SOL     OW 1283   0.815   2.434   0.325
  422SOL    HW1 1284   0.822   2.345   0.279
  422SOL    HW2 1285   0.721   2.468   0.317
  423SOL     OW 1286   1.657   2.466   1.206
  423SOL    HW1 1287   1.619   2.397   1.268
  423SOL    HW2 1288   1.739   2.430   1.162
  424SOL     OW 1289   0.671   2.326   1.269
  424SOL    HW1 1290   0.637   2.237   1.239
  424SOL    HW2 1291   0.697   2.380   1.189
  425SOL     OW 1292   0.473   2.362   0.191
  425SOL    HW1 1293   0.534   2.442   0.195
  425SOL    HW2 1294   0.378   2.393   0.198
  426SOL     OW 1295   0.159   2.999   1.466
  426SOL    HW1 1296   0.181   2.938   1.542
  426SOL    HW2 1297   0.169   2.950   1.380
  427SOL     OW 1298   1.347   2.921   1.234
  427SOL    HW1 1299   1.371   2.858   1.160
  427SOL    HW2 1300   1.257   2.961   1.216
  428SOL     OW 1301   1.302   2.717   0.309
  428SOL    HW1 1302   1.216   2.686   0.351
  428SOL    HW2 1303   1.298   2.703   0.210
  429SOL     OW 1304   0.083   3.120   1.022
  429SOL    HW1 1305   0.078   3.119   1.122
  429SOL    HW2 1306   0.000   3.079   0.984
  430SOL     OW 1307   0.903   1.948   0.133
  430SOL    HW1 1308   0.954   1.949   0.047
  430SOL    HW2 1309   0.959   1.906   0.204
  431SOL     OW 1310   1.726   1.997   0.523
  431SOL    HW1 1311   1.799   1.980   0.456
  431SOL    HW2 1312   1.695   1.910   0.561
  432SOL     OW 1313   1.280   2.789   0.672
  432SOL    HW1 1314   1.340   2.708   0.674
  432SOL    HW2 1315   1.320   2.858   0.612
  433SOL     OW 1316   1.841   2.037   0.963
  433SOL    HW1 1317   1.880   1.952   0.927
  433SOL    HW2 1318   1.743   2.039   0.944
  434SOL     OW 1319   0.263   2.188   0.720
  434SOL    HW1 1320   0.184   2.239   0.686
  434SOL    HW2 1321   0.254   2.173   0.818
  435SOL     OW 1322   0.822   2.864   1.372
  435SOL    HW1 1323   0.862   2.863   1.280
  435SOL    HW2 1324   0.832   2.956   1.412
  436SOL     OW 1325   0.916   2.772   0.291
  436SOL    HW1 1326   0.979   2.810   0.223
  436SOL    HW2 1327   0.956   2.689   0.330
  437SOL     OW 1328   0.372   3.150   1.490
  437SOL    HW1 1329   0.359   3.243   1.456
  437SOL    HW2 1330   0.288   3.098   1.477
  438SOL     OW 1331   1.014   2.098   0.971
  438SOL    HW1 1332   1.006   2.062   0.878
  438SOL    HW2 1333   1.012   2.022   1.036
  439SOL     OW 1334   1.709   2.247   1.381
  439SOL    HW1 1335   1.782   2.316   1.385
  439SOL    HW2 1336   1.737   2.172   1.322
  440SOL     OW 1337   0.105   2.875   1.726
  440SOL    HW1 1338   0.028   2.842   1.780
  440SOL    HW2 1339   0.190   2.845   1.768
  441SOL     OW 1340   0.672   2.065   1.489
  441SOL    HW1 1341   0.762   2.049   1.449
  441SOL    HW2 1342   0.680   2.070   1.588
  442SOL     OW 1343   0.075   2.207   0.033
  442SOL    HW1 1344  -0.017   2.179   0.004
  442SOL    HW2 1345   0.106   2.284  -0.023
  443SOL     OW 1346   1.440   2.718   1.398
  443SOL    HW1 1347   1.383   2.770   1.335
  443SOL    HW2 1348   1.536   2.730   1.374
  444SOL     OW 1349   0.072   2.028   0.318
  444SOL    HW1 1350   0.055   2.111   0.264
  444SOL    HW2 1351   0.162   1.991   0.296
  445SOL     OW 1352   1.183   3.197   0.119
  445SOL    HW1 1353   1.084   3.186   0.121
  445SOL    HW2 1354   1.217   3.212   0.212
  446SOL     OW 1355   0.613   2.704   1.431
  446SOL    HW1 1356   0.669   2.785   1.414
  446SOL    HW2 1357   0.672   2.624   1.434
  447SOL     OW 1358   0.716   2.427   1.708
  447SOL    HW1 1359   0.735   2.492   1.782
  447SOL    HW2 1360   0.776   2.347   1.717
  448SOL     OW 1361   1.674   2.745   1.254
  448SOL    HW1 1362   1.647   2.656   1.217
  448SOL    HW2 1363   1.675   2.813   1.181
  449SOL     OW 1364   1.225   2.187   0.449
  449SOL    HW1 1365   1.290   2.113   0.438
  449SOL    HW2 1366   1.245   2.237   0.533
  450SOL     OW 1367   0.594   2.607   0.652
  450SOL    HW1 1368   0.644   2.692   0.633
  450SOL    HW2 1369   0.506   2.609   0.604
  451SOL     OW 1370   1.777   2.204   1.642
  451SOL    HW1 1371   1.760   2.235   1.548
  451SOL    HW2 1372   1.693   2.167   1.680
  452SOL     OW 1373   1.730   2.796   1.517
  452SOL    HW1 1374   1.768   2.887   1.532
  452SOL    HW2 1375   1.722   2.779   1.418
  453SOL     OW 1376   0.859   2.818   0.861
  453SOL    HW1 1377   0.913   2.749   0.909
  453SOL    HW2 1378   0.827   2.887   0.927
  454SOL     OW 1379   1.083   2.846   0.087
  454SOL    HW1 1380   1.060   2.899   0.005
  454SOL    HW2 1381   1.164   2.790   0.068
  455SOL     OW 1382   1.824   2.054   1.227
  455SOL    HW1 1383   1.820   1.964   1.271
  455SOL    HW2 1384   1.827   2.043   1.128
  456SOL     OW 1385   0.428   2.286   0.520
  456SOL    HW1 1386   0.458   2.214   0.458
  456SOL    HW2 1387   0.389   2.246   0.603
  457SOL     OW 1388   0.317   2.409   1.280
  457SOL    HW1 1389   0.355   2.350   1.352
  457SOL    HW2 1390   0.357   2.383   1.192
  458SOL     OW 1391   1.424   2.076   1.112
  458SOL    HW1 1392   1.476   2.011   1.167
  458SOL    HW2 1393   1.375   2.139   1.173
  459SOL     OW 1394   1.001   1.896   1.154
  459SOL    HW1 1395   0.938   1.824   1.123
  459SOL    HW2 1396   1.094   1.860   1.154
  460SOL     OW 1397   0.770   3.192   0.301
  460SOL    HW1 1398   0.724   3.105   0.318
  460SOL    HW2 1399   0.861   3.189   0.342
  461SOL     OW 1400   1.352   1.914   0.168
  461SOL    HW1 1401   1.387   1.873   0.084
  461SOL    HW2 1402   1.262   1.876   0.188
  462SOL     OW 1403   1.300   2.315   0.691
  462SOL    HW1 1404   1.241   2.395   0.695
  462SOL    HW2 1405   1.315   2.280   0.784
  463SOL     OW 1406   1.593   2.083   0.882
  463SOL    HW1 1407   1.509   2.082   0.936
  463SOL    HW2 1408   1.595   2.166   0.826
  464SOL     OW 1409   0.039   2.939   0.300
  464SOL    HW1 1410   0.138   2.928   0.291
  464SOL    HW2 1411  -0.001   2.853   0.332
  465SOL     OW 1412   0.230   2.490   1.975
  465SOL    HW1 1413   0.137   2.488   2.012
  465SOL    HW2 1414   0.231   2.451   1.883
  466SOL     OW 1415   0.225   2.137   2.858
  466SOL    HW1 1416   0.260   2.120   2.950
  466SOL    HW2 1417   0.137   2.092   2.846
  467SOL     OW 1418   0.019   2.230   2.509
  467SOL    HW1 1419  -0.063   2.273   2.548
  467SOL    HW2 1420  -0.009   2.157   2.446
  468SOL     OW 1421   1.135   2.565   2.579
  468SOL    HW1 1422   1.192   2.643   2.554
  468SOL    HW2 1423   1.075   2.591   2.655
  469SOL     OW 1424   1.755   2.469   2.093
  469SOL    HW1 1425   1.743   2.456   1.994
  469SOL    HW2 1426   1.725   2.388   2.142
  470SOL     OW 1427   0.768   3.006   2.885
  470SOL    HW1 1428   0.690   3.023   2.945
  470SOL    HW2 1429   0.802   3.093   2.849
  471SOL     OW 1430   0.685   2.874   2.527
  471SOL    HW1 1431   0.754   2.858   2.597
  471SOL    HW2 1432   0.612   2.931   2.565
  472SOL     OW 1433   1.603   2.309   2.599
  472SOL    HW1 1434   1.529   2.355   2.549
  472SOL    HW2 1435   1.654   2.377   2.652
  473SOL     OW 1436   0.230   3.296   2.400
  473SOL    HW1 1437   0.204   3.392   2.400
  473SOL    HW2 1438   0.159   3.242   2.445
  474SOL     OW 1439   0.240   2.953   2.748
  474SOL    HW1 1440   0.254   2.869   2.800
  474SOL    HW2 1441   0.185   3.017   2.803
  475SOL     OW 1442   0.606   2.826   1.985
  475SOL    HW1 1443   0.613   2.910   1.931
  475SOL    HW2 1444   0.652   2.839   2.073
  476SOL     OW 1445   0.122   2.505   2.425
  476SOL    HW1 1446   0.077   2.417   2.442
  476SOL    HW2 1447   0.121   2.559   2.509
  477SOL     OW 1448   1.689   2.784   2.474
  477SOL    HW1 1449   1.784   2.755   2.482
  477SOL    HW2 1450   1.681   2.849   2.399
  478SOL     OW 1451   0.809   1.866   2.364
  478SOL    HW1 1452   0.849   1.957   2.355
  478SOL    HW2 1453   0.709   1.874   2.370
  479SOL     OW 1454   0.197   2.838   3.126
  479SOL    HW1 1455   0.286   2.793   3.112
  479SOL    HW2 1456   0.124   2.773   3.107
  480SOL     OW 1457   1.525   2.861   2.052
  480SOL    HW1 1458   1.462   2.785   2.065
  480SOL    HW2 1459   1.573   2.879   2.138
  481SOL     OW 1460   0.598   2.591   2.132
  481SOL    HW1 1461   0.622   2.660   2.064
  481SOL    HW2 1462   0.520   2.624   2.186
  482SOL     OW 1463   1.281   2.207   2.806
  482SOL    HW1 1464   1.195   2.157   2.793
  482SOL    HW2 1465   1.343   2.153   2.862
  483SOL     OW 1466   1.041   2.563   2.291
  483SOL    HW1 1467   1.067   2.559   2.387
  483SOL    HW2 1468   0.956   2.512   2.277
  484SOL     OW 1469   0.076   2.673   2.651
  484SOL    HW1 1470   0.175   2.661   2.660
  484SOL    HW2 1471   0.052   2.768   2.672
  485SOL     OW 1472   0.865   2.210   2.057
  485SOL    HW1 1473   0.924   2.273   2.008
  485SOL    HW2 1474   0.884   2.116   2.028
  486SOL     OW 1475   0.550   2.058   2.747
  486SOL    HW1 1476   0.545   2.053   2.847
  486SOL    HW2 1477   0.552   2.154   2.718
  487SOL     OW 1478   1.795   2.928   2.735
  487SOL    HW1 1479   1.733   2.913   2.659
  487SOL    HW2 1480   1.743   2.939   2.820
  488SOL     OW 1481   0.321   2.805   2.104
  488SOL    HW1 1482   0.403   2.844   2.062
  488SOL    HW2 1483   0.294   2.723   2.055
  489SOL     OW 1484   1.458   2.597   2.590
  489SOL    HW1 1485   1.453   2.532   2.665
  489SOL    HW2 1486   1.538   2.656   2.603
  490SOL     OW 1487   1.400   1.969   2.288
  490SOL    HW1 1488   1.376   1.932   2.198
  490SOL    HW2 1489   1.499   1.985   2.292
  491SOL     OW 1490   0.382   2.562   2.342
  491SOL    HW1 1491   0.427   2.472   2.339
  491SOL    HW2 1492   0.288   2.551   2.375
  492SOL     OW 1493   0.614   1.984   1.979
  492SOL    HW1 1494   0.712   1.962   1.986
  492SOL    HW2 1495   0.583   1.967   1.886
  493SOL     OW 1496   0.888   3.376   3.057
  493SOL    HW1 1497   0.865   3.351   2.963
  493SOL    HW2 1498   0.949   3.307   3.096
  494SOL     OW 1499   0.922   2.365   2.761
  494SOL    HW1 1500   0.897   2.356   2.665
  494SOL    HW2 1501   0.970   2.283   2.792
  495SOL     OW 1502   0.539   1.926   2.374
  495SOL    HW1 1503   0.458   1.927   2.432
  495SOL    HW2 1504   0.542   2.009   2.319
  496SOL     OW 1505   0.297   1.897   2.033
  496SOL    HW1 1506   0.346   1.981   2.012
  496SOL    HW2 1507   0.359   1.832   2.078
  497SOL     OW 1508   0.935   2.098   2.342
  497SOL    HW1 1509   0.887   2.139   2.264
  497SOL    HW2 1510   1.034   2.096   2.323
  498SOL     OW 1511   0.459   3.014   2.603
  498SOL    HW1 1512   0.388   2.987   2.668
  498SOL    HW2 1513   0.433   2.986   2.510
  499SOL     OW 1514   1.032   2.411   1.878
  499SOL    HW1 1515   0.991   2.493   1.839
  499SOL    HW2 1516   1.096   2.437   1.951
  500SOL     OW 1517   0.866   2.316   2.504
  500SOL    HW1 1518   0.834   2.388   2.442
  500SOL    HW2 1519   0.890   2.235   2.451
  501SOL     OW 1520   1.017   1.901   2.615
  501SOL    HW1 1521   0.945   1.906   2.546
  501SOL    HW2 1522   0.993   1.832   2.684
  502SOL     OW 1523   1.429   3.035   2.729
  502SOL    HW1 1524   1.374   2.951   2.722
  502SOL    HW2 1525   1.455   3.064   2.637
  503SOL     OW 1526   1.466   2.452   2.854
  503SOL    HW1 1527   1.436   2.357   2.861
  503SOL    HW2 1528   1.539   2.468   2.920
  504SOL     OW 1529   1.857   2.695   2.239
  504SOL    HW1 1530   1.899   2.631   2.303
  504SOL    HW2 1531   1.819   2.644   2.161
  505SOL     OW 1532   1.390   2.437   1.940
  505SOL    HW1 1533   1.336   2.416   2.021
  505SOL    HW2 1534   1.481   2.396   1.949
  506SOL     OW 1535   0.527   2.118   2.190
  506SOL    HW1 1536   0.554   2.059   2.115
  506SOL    HW2 1537   0.527   2.213   2.159
  507SOL     OW 1538   1.638   2.961   2.941
  507SOL    HW1 1539   1.643   3.042   3.000
  507SOL    HW2 1540   1.552   2.963   2.890
  508SOL     OW 1541   0.705   2.912   2.230
  508SOL    HW1 1542   0.691   2.919   2.329
  508SOL    HW2 1543   0.789   2.861   2.212
  509SOL     OW 1544   0.410   2.675   3.113
  509SOL    HW1 1545   0.496   2.687   3.163
  509SOL    HW2 1546   0.368   2.588   3.140
  510SOL     OW 1547   0.367   2.962   2.363
  510SOL    HW1 1548   0.360   3.045   2.307
  510SOL    HW2 1549   0.371   2.882   2.303
  511SOL     OW 1550   0.566   2.399   2.727
  511SOL    HW1 1551   0.578   2.465   2.653
  511SOL    HW2 1552   0.612   2.433   2.810
  512SOL     OW 1553   1.582   2.501   2.334
  512SOL    HW1 1554   1.551   2.562   2.407
  512SOL    HW2 1555   1.632   2.553   2.265
  513SOL     OW 1556   0.573   2.732   2.891
  513SOL    HW1 1557   0.617   2.821   2.882
  513SOL    HW2 1558   0.510   2.732   2.968
  514SOL     OW 1559   1.209   2.387   2.137
  514SOL    HW1 1560   1.222   2.303   2.191
  514SOL    HW2 1561   1.180   2.461   2.197
  515SOL     OW 1562   0.307   2.075   3.093
  515SOL    HW1 1563   0.284   2.112   3.183
  515SOL    HW2 1564   0.277   1.980   3.087
  516SOL     OW 1565   0.732   2.496   2.926
  516SOL    HW1 1566   0.791   2.470   2.850
  516SOL    HW2 1567   0.704   2.592   2.915
  517SOL     OW 1568   0.307   1.925   2.480
  517SOL    HW1 1569   0.296   2.019   2.513
  517SOL    HW2 1570   0.302   1.862   2.557
  518SOL     OW 1571   1.622   2.229   2.236
  518SOL    HW1 1572   1.624   2.153   2.300
  518SOL    HW2 1573   1.574   2.306   2.276
  519SOL     OW 1574   1.023   2.628   2.828
  519SOL    HW1 1575   1.038   2.649   2.924
  519SOL    HW2 1576   0.993   2.533   2.819
  520SOL     OW 1577   1.540   2.136   1.987
  520SOL    HW1 1578   1.479   2.061   2.010
  520SOL    HW2 1579   1.562   2.188   2.070
  521SOL     OW 1580   1.303   2.700   1.904
  521SOL    HW1 1581   1.337   2.607   1.919
  521SOL    HW2 1582   1.321   2.727   1.809
  522SOL     OW 1583   0.319   2.672   2.811
  522SOL    HW1 1584   0.412   2.708   2.816
  522SOL    HW2 1585   0.313   2.587   2.863
  523SOL     OW 1586   0.339   2.371   2.868
  523SOL    HW1 1587   0.287   2.288   2.851
  523SOL    HW2 1588   0.416   2.376   2.804
  524SOL     OW 1589   1.002   2.658   3.100
  524SOL    HW1 1590   1.043   2.626   3.186
  524SOL    HW2 1591   0.906   2.631   3.097
  525SOL     OW 1592   0.815   2.434   2.187
  525SOL    HW1 1593   0.822   2.345   2.141
  525SOL    HW2 1594   0.721   2.468   2.179
  526SOL     OW 1595   0.671   2.326   3.131
  526SOL    HW1 1596   0.637   2.237   3.101
  526SOL    HW2 1597   0.697   2.380   3.051
  527SOL     OW 1598   0.473   2.362   2.053
  527SOL    HW1 1599   0.534   2.442   2.057
  527SOL    HW2 1600   0.378   2.393   2.060
  528SOL     OW 1601   1.302   2.717   2.171
  528SOL    HW1 1602   1.216   2.686   2.213
  528SOL    HW2 1603   1.298   2.703   2.072
  529SOL     OW 1604   0.083   3.120   2.884
  529SOL    HW1 1605   0.078   3.119   2.984
  529SOL    HW2 1606   0.000   3.079   2.846
  530SOL     OW 1607   1.726   1.997   2.385
  530SOL    HW1 1608   1.799   1.980   2.318
  530SOL    HW2 1609   1.695   1.910   2.423
  531SOL     OW 1610   1.280   2.789   2.534
  531SOL    HW1 1611   1.340   2.708   2.536
  531SOL    HW2 1612   1.320   2.858   2.474
  532SOL     OW 1613   1.841   2.037   2.825
  532SOL    HW1 1614   1.880   1.952   2.789
  532SOL    HW2 1615   1.743   2.039   2.806
  533SOL     OW 1616   0.263   2.188   2.582
  533SOL    HW1 1617   0.184   2.239   2.548
  533SOL    HW2 1618   0.254   2.173   2.680
  534SOL     OW 1619   0.916   2.772   2.153
  534SOL    HW1 1620   0.979   2.810   2.085
  534SOL    HW2 1621   0.956   2.689   2.192
  535SOL     OW 1622   1.014   2.098   2.833
  535SOL    HW1 1623   1.006   2.062   2.740
  535SOL    HW2 1624   1.012   2.022   2.898
  536SOL     OW 1625   0.075   2.207   1.895
  536SOL    HW1 1626  -0.017   2.179   1.866
  536SOL    HW2 1627   0.106   2.284   1.839
  537SOL     OW 1628   0.072   2.028   2.180
  537SOL    HW1 1629   0.055   2.111   2.126
  537SOL    HW2 1630   0.162   1.991   2.158
  538SOL     OW 1631   1.183   3.197   1.981
  538SOL    HW1 1632   1.084   3.186   1.983
  538SOL    HW2 1633   1.217   3.212   2.074
  539SOL     OW 1634   1.674   2.745   3.116
  539SOL    HW1 1635   1.647   2.656   3.079
  539SOL    HW2 1636   1.675   2.813   3.043
  540SOL     OW 1637   1.225   2.187   2.311
  540SOL    HW1 1638   1.290   2.113   2.300
  540SOL    HW2 1639   1.245   2.237   2.395
  541SOL     OW 1640   0.594   2.607   2.514
  541SOL    HW1 1641   0.644   2.692   2.495
  541SOL    HW2 1642   0.506   2.609   2.466
  542SOL     OW 1643   0.859   2.818   2.723
  542SOL    HW1 1644   0.913   2.749   2.771
  542SOL    HW2 1645   0.827   2.887   2.789
  543SOL     OW 1646   1.083   2.846   1.949
  543SOL    HW1 1647   1.060   2.899   1.867
  543SOL    HW2 1648   1.164   2.790   1.930
  544SOL     OW 1649   1.824   2.054   3.089
  544SOL    HW1 1650   1.820   1.964   3.133
  544SOL    HW2 1651   1.827   2.043   2.990
  545SOL     OW 1652   0.428   2.286   2.382
  545SOL    HW1 1653   0.458   2.214   2.320
  545SOL    HW2 1654   0.389   2.246   2.465
  546SOL     OW 1655   1.424   2.076   2.974
  546SOL    HW1 1656   1.476   2.011   3.029
  546SOL    HW2 1657   1.375   2.139   3.035
  547SOL     OW 1658   0.770   3.192   2.163
  547SOL    HW1 1659   0.724   3.105   2.180
  547SOL    HW2 1660   0.861   3.189   2.204
  548SOL     OW 1661   1.352   1.914   2.030
  548SOL    HW1 1662   1.387   1.873   1.946
  548SOL    HW2 1663   1.262   1.876   2.050
  549SOL     OW 1664   1.300   2.315   2.553
  549SOL    HW1 1665   1.241   2.395   2.557
  549SOL    HW2 1666   1.315   2.280   2.646
  550SOL     OW 1667   1.593   2.083   2.744
  550SOL    HW1 1668   1.509   2.082   2.798
  550SOL    HW2 1669   1.595   2.166   2.688
  551SOL     OW 1670   0.039   2.939   2.162
  551SOL    HW1 1671   0.138   2.928   2.153
  551SOL    HW2 1672  -0.001   2.853   2.194
  552SOL     OW 1673   2.092   0.628   0.113
  552SOL    HW1 1674   1.999   0.626   0.150
  552SOL    HW2 1675   2.093   0.589   0.021
  553SOL     OW 1676   2.087   0.275   0.996
  553SOL    HW1 1677   2.122   0.258   1.088
  553SOL    HW2 1678   1.999   0.230   0.984
  554SOL     OW 1679   1.881   0.368   0.647
  554SOL    HW1 1680   1.799   0.411   0.686
  554SOL    HW2 1681   1.853   0.295   0.584
  555SOL     OW 1682   2.431   1.275   1.165
  555SOL    HW1 1683   2.338   1.268   1.128
  555SOL    HW2 1684   2.442   1.364   1.209
  556SOL     OW 1685   2.630   1.144   1.023
  556SOL    HW1 1686   2.552   1.161   1.083
  556SOL    HW2 1687   2.664   1.231   0.987
  557SOL     OW 1688   2.712   0.798   1.823
  557SOL    HW1 1689   2.708   0.874   1.888
  557SOL    HW2 1690   2.734   0.834   1.732
  558SOL     OW 1691   2.547   1.012   0.665
  558SOL    HW1 1692   2.616   0.996   0.735
  558SOL    HW2 1693   2.474   1.069   0.703
  559SOL     OW 1694   2.548   1.161   1.803
  559SOL    HW1 1695   2.608   1.240   1.817
  559SOL    HW2 1696   2.462   1.192   1.762
  560SOL     OW 1697   2.197   1.435   1.061
  560SOL    HW1 1698   2.119   1.404   1.008
  560SOL    HW2 1699   2.255   1.493   1.004
  561SOL     OW 1700   2.300   0.392   1.499
  561SOL    HW1 1701   2.382   0.336   1.508
  561SOL    HW2 1702   2.219   0.334   1.503
  562SOL     OW 1703   2.093   1.713   0.483
  562SOL    HW1 1704   2.127   1.790   0.537
  562SOL    HW2 1705   2.137   1.713   0.393
  563SOL     OW 1706   2.989   1.341   1.690
  563SOL    HW1 1707   3.036   1.341   1.778
  563SOL    HW2 1708   2.941   1.254   1.679
  564SOL     OW 1709   2.092   1.434   0.538
  564SOL    HW1 1710   2.066   1.530   0.538
  564SOL    HW2 1711   2.021   1.380   0.583
  565SOL     OW 1712   2.102   1.091   0.886
  565SOL    HW1 1713   2.116   1.007   0.938
  565SOL    HW2 1714   2.047   1.155   0.941
  566SOL     OW 1715   2.482   1.786   1.439
  566SOL    HW1 1716   2.390   1.769   1.474
  566SOL    HW2 1717   2.510   1.878   1.465
  567SOL     OW 1718   2.468   0.964   0.123
  567SOL    HW1 1719   2.475   1.048   0.069
  567SOL    HW2 1720   2.514   0.977   0.211
  568SOL     OW 1721   1.984   0.643   0.563
  568SOL    HW1 1722   1.939   0.555   0.580
  568SOL    HW2 1723   1.983   0.697   0.647
  569SOL     OW 1724   1.889   1.596   0.117
  569SOL    HW1 1725   1.870   1.500   0.138
  569SOL    HW2 1726   1.856   1.654   0.192
  570SOL     OW 1727   1.975   0.737   1.597
  570SOL    HW1 1728   2.063   0.724   1.642
  570SOL    HW2 1729   1.962   0.834   1.575
  571SOL     OW 1730   2.475   1.365   0.726
  571SOL    HW1 1731   2.426   1.278   0.735
  571SOL    HW2 1732   2.452   1.408   0.639
  572SOL     OW 1733   2.671   0.004   0.502
  572SOL    HW1 1734   2.711   0.095   0.493
  572SOL    HW2 1735   2.571   0.012   0.508
  573SOL     OW 1736   2.059   0.976   1.264
  573SOL    HW1 1737   2.148   0.931   1.250
  573SOL    HW2 1738   1.986   0.911   1.245
  574SOL     OW 1739   2.179   0.251   1.801
  574SOL    HW1 1740   2.250   0.322   1.807
  574SOL    HW2 1741   2.091   0.290   1.829
  575SOL     OW 1742   2.460   0.729   0.270
  575SOL    HW1 1743   2.484   0.798   0.202
  575SOL    HW2 1744   2.382   0.762   0.324
  576SOL     OW 1745   2.669   0.605   1.465
  576SOL    HW1 1746   2.622   0.602   1.554
  576SOL    HW2 1747   2.618   0.550   1.399
  577SOL     OW 1748   2.835   0.890   1.572
  577SOL    HW1 1749   2.881   0.806   1.543
  577SOL    HW2 1750   2.779   0.924   1.497
  578SOL     OW 1751   2.853   0.410   1.242
  578SOL    HW1 1752   2.776   0.444   1.296
  578SOL    HW2 1753   2.819   0.359   1.163
  579SOL     OW 1754   2.903   0.701   0.429
  579SOL    HW1 1755   2.929   0.697   0.525
  579SOL    HW2 1756   2.818   0.650   0.415
  580SOL     OW 1757   1.938   0.811   0.789
  580SOL    HW1 1758   2.037   0.799   0.798
  580SOL    HW2 1759   1.914   0.906   0.810
  581SOL     OW 1760   1.992   1.821   1.571
  581SOL    HW1 1761   1.982   1.806   1.670
  581SOL    HW2 1762   1.906   1.857   1.535
  582SOL     OW 1763   2.727   0.348   0.195
  582SOL    HW1 1764   2.786   0.411   0.146
  582SOL    HW2 1765   2.746   0.254   0.166
  583SOL     OW 1766   2.412   0.196   0.885
  583SOL    HW1 1767   2.407   0.191   0.985
  583SOL    HW2 1768   2.414   0.292   0.856
  584SOL     OW 1769   2.870   1.456   0.477
  584SOL    HW1 1770   2.824   1.528   0.425
  584SOL    HW2 1771   2.866   1.476   0.575
  585SOL     OW 1772   2.213   1.801   0.853
  585SOL    HW1 1773   2.263   1.715   0.859
  585SOL    HW2 1774   2.278   1.878   0.850
  586SOL     OW 1775   2.183   0.943   0.242
  586SOL    HW1 1776   2.265   0.982   0.200
  586SOL    HW2 1777   2.156   0.861   0.193
  587SOL     OW 1778   2.323   1.266   1.727
  587SOL    HW1 1779   2.273   1.267   1.641
  587SOL    HW2 1780   2.260   1.248   1.803
  588SOL     OW 1781   2.064   0.285   1.498
  588SOL    HW1 1782   1.984   0.345   1.485
  588SOL    HW2 1783   2.054   0.236   1.584
  589SOL     OW 1784   2.326   1.743   0.323
  589SOL    HW1 1785   2.359   1.782   0.409
  589SOL    HW2 1786   2.402   1.736   0.258
  590SOL     OW 1787   2.111   1.785   1.241
  590SOL    HW1 1788   2.168   1.720   1.291
  590SOL    HW2 1789   2.095   1.752   1.148
  591SOL     OW 1790   2.802   1.698   0.904
  591SOL    HW1 1791   2.882   1.641   0.925
  591SOL    HW2 1792   2.753   1.658   0.827
  592SOL     OW 1793   2.244   0.700   0.480
  592SOL    HW1 1794   2.289   0.610   0.477
  592SOL    HW2 1795   2.150   0.689   0.513
  593SOL     OW 1796   2.476   0.122   0.117
  593SOL    HW1 1797   2.574   0.100   0.124
  593SOL    HW2 1798   2.445   0.105   0.024
  594SOL     OW 1799   2.643   0.264   1.749
  594SOL    HW1 1800   2.710   0.203   1.792
  594SOL    HW2 1801   2.570   0.283   1.814
  595SOL     OW 1802   2.750   1.514   1.195
  595SOL    HW1 1803   2.727   1.489   1.101
  595SOL    HW2 1804   2.811   1.445   1.234
  596SOL     OW 1805   2.665   1.402   0.924
  596SOL    HW1 1806   2.755   1.416   0.882
  596SOL    HW2 1807   2.594   1.404   0.853
  597SOL     OW 1808   2.784   0.503   0.899
  597SOL    HW1 1809   2.759   0.494   0.803
  597SOL    HW2 1810   2.832   0.421   0.930
  598SOL     OW 1811   2.401   0.064   0.512
  598SOL    HW1 1812   2.320   0.065   0.570
  598SOL    HW2 1813   2.404   0.147   0.457
  599SOL     OW 1814   3.296   1.188   0.041
  599SOL    HW1 1815   3.328   1.112   0.098
  599SOL    HW2 1816   3.204   1.215   0.071
  600SOL     OW 1817   2.159   0.035   0.171
  600SOL    HW1 1818   2.208   0.119   0.150
  600SOL    HW2 1819   2.221  -0.030   0.216
  601SOL     OW 1820   2.797   0.236   0.480
  601SOL    HW1 1821   2.749   0.277   0.402
  601SOL    HW2 1822   2.896   0.234   0.461
  602SOL     OW 1823   3.089   1.570   0.793
  602SOL    HW1 1824   3.110   1.644   0.728
  602SOL    HW2 1825   3.157   1.570   0.866
  603SOL     OW 1826   2.321   1.152   0.741
  603SOL    HW1 1827   2.250   1.125   0.806
  603SOL    HW2 1828   2.295   1.124   0.648
  604SOL     OW 1829   3.133   1.797   0.591
  604SOL    HW1 1830   3.177   1.861   0.527
  604SOL    HW2 1831   3.083   1.849   0.661
  605SOL     OW 1832   2.894   0.549   0.016
  605SOL    HW1 1833   2.853   0.631  -0.023
  605SOL    HW2 1834   2.958   0.575   0.089
  606SOL     OW 1835   1.940   0.556   1.386
  606SOL    HW1 1836   2.032   0.555   1.345
  606SOL    HW2 1837   1.934   0.630   1.453
  607SOL     OW 1838   2.423   0.222   1.147
  607SOL    HW1 1839   2.461   0.138   1.184
  607SOL    HW2 1840   2.335   0.241   1.191
  608SOL     OW 1841   2.728   0.454   0.642
  608SOL    HW1 1842   2.696   0.526   0.580
  608SOL    HW2 1843   2.752   0.373   0.589
  609SOL     OW 1844   2.879   0.039   0.753
  609SOL    HW1 1845   2.807   0.044   0.684
  609SOL    HW2 1846   2.855  -0.030   0.822
  610SOL     OW 1847   2.350   1.385   0.174
  610SOL    HW1 1848   2.263   1.370   0.221
  610SOL    HW2 1849   2.333   1.411   0.079
  611SOL     OW 1850   2.389   0.256   0.328
  611SOL    HW1 1851   2.416   0.197   0.253
  611SOL    HW2 1852   2.389   0.351   0.297
  612SOL     OW 1853   2.777   0.089   1.402
  612SOL    HW1 1854   2.802   0.069   1.307
  612SOL    HW2 1855   2.849   0.145   1.444
  613SOL     OW 1856   2.842   1.116   1.719
  613SOL    HW1 1857   2.743   1.122   1.729
  613SOL    HW2 1858   2.865   1.036   1.663
  614SOL     OW 1859   2.567   1.050   0.368
  614SOL    HW1 1860   2.553   1.057   0.467
  614SOL    HW2 1861   2.651   0.999   0.350
  615SOL     OW 1862   2.272   0.813   1.251
  615SOL    HW1 1863   2.358   0.825   1.301
  615SOL    HW2 1864   2.230   0.726   1.278
  616SOL     OW 1865   1.926   1.564   1.331
  616SOL    HW1 1866   1.880   1.646   1.297
  616SOL    HW2 1867   2.024   1.583   1.340
  617SOL     OW 1868   2.229   1.100   0.501
  617SOL    HW1 1869   2.222   1.183   0.445
  617SOL    HW2 1870   2.233   1.020   0.441
  618SOL     OW 1871   2.428   0.537   0.865
  618SOL    HW1 1872   2.440   0.603   0.791
  618SOL    HW2 1873   2.474   0.571   0.948
  619SOL     OW 1874   3.114   1.348   0.388
  619SOL    HW1 1875   3.164   1.425   0.428
  619SOL    HW2 1876   3.019   1.350   0.420
  620SOL     OW 1877   2.216   1.510   1.329
  620SOL    HW1 1878   2.195   1.466   1.242
  620SOL    HW2 1879   2.313   1.536   1.332
  621SOL     OW 1880   2.264   0.751   1.598
  621SOL    HW1 1881   2.332   0.806   1.551
  621SOL    HW2 1882   2.304   0.663   1.625
  622SOL     OW 1883   2.875   0.105   1.770
  622SOL    HW1 1884   2.881   0.190   1.718
  622SOL    HW2 1885   2.907   0.029   1.713
  623SOL     OW 1886   2.366   0.050   1.740
  623SOL    HW1 1887   2.324  -0.007   1.670
  623SOL    HW2 1888   2.300   0.119   1.772
  624SOL     OW 1889   2.435   0.870   1.029
  624SOL    HW1 1890   2.479   0.959   1.020
  624SOL    HW2 1891   2.372   0.870   1.106
  625SOL     OW 1892   3.071   0.525   0.275
  625SOL    HW1 1893   3.084   0.441   0.329
  625SOL    HW2 1894   3.042   0.599   0.335
  626SOL     OW 1895   2.169   0.213   1.231
  626SOL    HW1 1896   2.146   0.250   1.321
  626SOL    HW2 1897   2.139   0.118   1.225
  627SOL     OW 1898   1.899   1.310   1.282
  627SOL    HW1 1899   1.952   1.261   1.350
  627SOL    HW2 1900   1.921   1.408   1.287
  628SOL     OW 1901   2.594   0.634   1.064
  628SOL    HW1 1902   2.653   0.608   0.988
  628SOL    HW2 1903   2.566   0.730   1.053
  629SOL     OW 1904   2.169   0.063   0.618
  629SOL    HW1 1905   2.158   0.157   0.651
  629SOL    HW2 1906   2.164   0.000   0.695
  630SOL     OW 1907   2.885   0.766   0.966
  630SOL    HW1 1908   2.900   0.787   1.062
  630SOL    HW2 1909   2.855   0.671   0.957
  631SOL     OW 1910   2.842   1.573   1.700
  631SOL    HW1 1911   2.822   1.617   1.612
  631SOL    HW2 1912   2.881   1.482   1.684
  632SOL     OW 1913   2.212   0.898   1.804
  632SOL    HW1 1914   2.288   0.942   1.852
  632SOL    HW2 1915   2.247   0.851   1.722
  633SOL     OW 1916   2.930   1.333   0.849
  633SOL    HW1 1917   2.937   1.249   0.794
  633SOL    HW2 1918   2.992   1.402   0.813
  634SOL     OW 1919   2.181   0.810   0.949
  634SOL    HW1 1920   2.274   0.846   0.954
  634SOL    HW2 1921   2.175   0.725   1.001
  635SOL     OW 1922   2.201   0.509   1.006
  635SOL    HW1 1923   2.149   0.426   0.989
  635SOL    HW2 1924   2.278   0.514   0.942
  636SOL     OW 1925   3.000   0.380   1.678
  636SOL    HW1 1926   2.955   0.443   1.742
  636SOL    HW2 1927   3.093   0.411   1.661
  637SOL     OW 1928   1.870   1.326   0.200
  637SOL    HW1 1929   1.777   1.347   0.169
  637SOL    HW2 1930   1.880   1.227   0.213
  638SOL     OW 1931   1.950   1.801   0.927
  638SOL    HW1 1932   1.908   1.715   0.900
  638SOL    HW2 1933   2.044   1.804   0.893
  639SOL     OW 1934   2.366   1.568   0.910
  639SOL    HW1 1935   2.432   1.642   0.919
  639SOL    HW2 1936   2.410   1.489   0.868
  640SOL     OW 1937   2.864   0.796   1.238
  640SOL    HW1 1938   2.905   0.764   1.324
  640SOL    HW2 1939   2.768   0.769   1.235
  641SOL     OW 1940   1.902   0.544   1.114
  641SOL    HW1 1941   1.987   0.511   1.073
  641SOL    HW2 1942   1.915   0.559   1.212
  642SOL     OW 1943   2.051   0.520   1.722
  642SOL    HW1 1944   2.110   0.480   1.652
  642SOL    HW2 1945   1.993   0.591   1.681
  643SOL     OW 1946   2.677   0.572   0.325
  643SOL    HW1 1947   2.684   0.483   0.279
  643SOL    HW2 1948   2.583   0.606   0.317
  644SOL     OW 1949   2.114   1.564   1.744
  644SOL    HW1 1950   2.084   1.621   1.820
  644SOL    HW2 1951   2.107   1.467   1.770
  645SOL     OW 1952   2.533   0.464   1.269
  645SOL    HW1 1953   2.499   0.375   1.239
  645SOL    HW2 1954   2.559   0.518   1.189
  646SOL     OW 1955   2.792   1.678   1.465
  646SOL    HW1 1956   2.768   1.660   1.370
  646SOL    HW2 1957   2.822   1.772   1.475
  647SOL     OW 1958   2.335   0.500   0.191
  647SOL    HW1 1959   2.396   0.580   0.195
  647SOL    HW2 1960   2.240   0.531   0.198
  648SOL     OW 1961   2.021   1.137   1.466
  648SOL    HW1 1962   2.043   1.076   1.542
  648SOL    HW2 1963   2.031   1.088   1.380
  649SOL     OW 1964   3.164   0.855   0.309
  649SOL    HW1 1965   3.078   0.824   0.351
  649SOL    HW2 1966   3.160   0.841   0.210
  650SOL     OW 1967   1.945   1.258   1.022
  650SOL    HW1 1968   1.940   1.257   1.122
  650SOL    HW2 1969   1.862   1.217   0.984
  651SOL     OW 1970   2.550   1.662   1.716
  651SOL    HW1 1971   2.494   1.743   1.725
  651SOL    HW2 1972   2.602   1.666   1.630
  652SOL     OW 1973   2.765   0.086   0.133
  652SOL    HW1 1974   2.816   0.087   0.047
  652SOL    HW2 1975   2.821   0.044   0.204
  653SOL     OW 1976   1.992   1.794   1.851
  653SOL    HW1 1977   1.951   1.720   1.904
  653SOL    HW2 1978   2.056   1.845   1.909
  654SOL     OW 1979   2.692   1.273   1.422
  654SOL    HW1 1980   2.687   1.306   1.517
  654SOL    HW2 1981   2.606   1.292   1.376
  655SOL     OW 1982   2.534   1.616   0.154
  655SOL    HW1 1983   2.543   1.626   0.055
  655SOL    HW2 1984   2.494   1.527   0.175
  656SOL     OW 1985   2.125   0.326   0.720
  656SOL    HW1 1986   2.046   0.377   0.686
  656SOL    HW2 1987   2.116   0.311   0.818
  657SOL     OW 1988   2.684   1.002   1.372
  657SOL    HW1 1989   2.724   1.001   1.280
  657SOL    HW2 1990   2.694   1.094   1.412
  658SOL     OW 1991   2.778   0.910   0.291
  658SOL    HW1 1992   2.841   0.948   0.223
  658SOL    HW2 1993   2.818   0.827   0.330
  659SOL     OW 1994   2.234   1.288   1.490
  659SOL    HW1 1995   2.221   1.381   1.456
  659SOL    HW2 1996   2.150   1.236   1.477
  660SOL     OW 1997   2.901   1.098   0.696
  660SOL    HW1 1998   2.831   1.051   0.750
  660SOL    HW2 1999   2.960   1.030   0.653
  661SOL     OW 2000   2.876   0.236   0.971
  661SOL    HW1 2001   2.868   0.200   0.878
  661SOL    HW2 2002   2.874   0.160   1.036
  662SOL     OW 2003   2.452   1.487   0.491
  662SOL    HW1 2004   2.494   1.429   0.421
  662SOL    HW2 2005   2.408   1.566   0.447
  663SOL     OW 2006   2.117   1.348   0.290
  663SOL    HW1 2007   2.021   1.349   0.263
  663SOL    HW2 2008   2.129   1.401   0.374
  664SOL     OW 2009   1.967   1.013   1.726
  664SOL    HW1 2010   1.890   0.980   1.780
  664SOL    HW2 2011   2.052   0.983   1.768
  665SOL     OW 2012   2.534   0.203   1.489
  665SOL    HW1 2013   2.624   0.187   1.449
  665SOL    HW2 2014   2.542   0.208   1.588
  666SOL     OW 2015   1.934   0.166   0.318
  666SOL    HW1 2016   1.917   0.249   0.264
  666SOL    HW2 2017   2.024   0.129   0.296
  667SOL     OW 2018   2.475   0.842   1.431
  667SOL    HW1 2019   2.531   0.923   1.414
  667SOL    HW2 2020   2.534   0.762   1.434
  668SOL     OW 2021   2.578   0.565   1.708
  668SOL    HW1 2022   2.597   0.630   1.782
  668SOL    HW2 2023   2.638   0.485   1.717
  669SOL     OW 2024   2.252   1.741   1.560
  669SOL    HW1 2025   2.161   1.782   1.558
  669SOL    HW2 2026   2.245   1.647   1.592
  670SOL     OW 2027   2.456   0.745   0.652
  670SOL    HW1 2028   2.506   0.830   0.633
  670SOL    HW2 2029   2.368   0.747   0.604
  671SOL     OW 2030   2.721   1.374   0.016
  671SOL    HW1 2031   2.675   1.389   0.104
  671SOL    HW2 2032   2.765   1.459  -0.014
  672SOL     OW 2033   2.523   1.790   0.953
  672SOL    HW1 2034   2.477   1.878   0.940
  672SOL    HW2 2035   2.622   1.802   0.946
  673SOL     OW 2036   2.721   0.956   0.861
  673SOL    HW1 2037   2.775   0.887   0.909
  673SOL    HW2 2038   2.689   1.025   0.927
  674SOL     OW 2039   2.945   0.984   0.087
  674SOL    HW1 2040   2.922   1.037   0.005
  674SOL    HW2 2041   3.026   0.928   0.068
  675SOL     OW 2042   2.083   1.314   1.844
  675SOL    HW1 2043   2.018   1.241   1.823
  675SOL    HW2 2044   2.087   1.328   1.942
  676SOL     OW 2045   1.941   1.240   0.653
  676SOL    HW1 2046   1.940   1.193   0.741
  676SOL    HW2 2047   2.023   1.212   0.602
  677SOL     OW 2048   2.534   1.391   1.624
  677SOL    HW1 2049   2.456   1.341   1.662
  677SOL    HW2 2050   2.531   1.486   1.655
  678SOL     OW 2051   2.290   0.424   0.520
  678SOL    HW1 2052   2.320   0.352   0.458
  678SOL    HW2 2053   2.251   0.384   0.603
  679SOL     OW 2054   2.179   0.547   1.280
  679SOL    HW1 2055   2.217   0.488   1.352
  679SOL    HW2 2056   2.219   0.521   1.192
  680SOL     OW 2057   2.674   1.586   0.687
  680SOL    HW1 2058   2.706   1.596   0.593
  680SOL    HW2 2059   2.595   1.524   0.689
  681SOL     OW 2060   2.863   0.034   1.154
  681SOL    HW1 2061   2.800  -0.038   1.123
  681SOL    HW2 2062   2.956  -0.002   1.154
  682SOL     OW 2063   2.632   1.330   0.301
  682SOL    HW1 2064   2.586   1.243   0.318
  682SOL    HW2 2065   2.723   1.327   0.342
  683SOL     OW 2066   2.480   1.567   1.284
  683SOL    HW1 2067   2.475   1.649   1.341
  683SOL    HW2 2068   2.569   1.564   1.239
  684SOL     OW 2069   1.901   1.077   0.300
  684SOL    HW1 2070   2.000   1.066   0.291
  684SOL    HW2 2071   1.861   0.991   0.332
  685SOL     OW 2072   2.737   1.646   0.337
  685SOL    HW1 2073   2.660   1.611   0.283
  685SOL    HW2 2074   2.705   1.717   0.399
  686SOL     OW 2075   2.092   0.628   1.975
  686SOL    HW1 2076   1.999   0.626   2.012
  686SOL    HW2 2077   2.093   0.589   1.883
  687SOL     OW 2078   2.087   0.275   2.858
  687SOL    HW1 2079   2.122   0.258   2.950
  687SOL    HW2 2080   1.999   0.230   2.846
  688SOL     OW 2081   1.881   0.368   2.509
  688SOL    HW1 2082   1.799   0.411   2.548
  688SOL    HW2 2083   1.853   0.295   2.446
  689SOL     OW 2084   2.630   1.144   2.885
  689SOL    HW1 2085   2.552   1.161   2.945
  689SOL    HW2 2086   2.664   1.231   2.849
  690SOL     OW 2087   2.547   1.012   2.527
  690SOL    HW1 2088   2.616   0.996   2.597
  690SOL    HW2 2089   2.474   1.069   2.565
  691SOL     OW 2090   2.197   1.435   2.923
  691SOL    HW1 2091   2.119   1.404   2.870
  691SOL    HW2 2092   2.255   1.493   2.866
  692SOL     OW 2093   2.093   1.713   2.345
  692SOL    HW1 2094   2.127   1.790   2.399
  692SOL    HW2 2095   2.137   1.713   2.255
  693SOL     OW 2096   2.092   1.434   2.400
  693SOL    HW1 2097   2.066   1.530   2.400
  693SOL    HW2 2098   2.021   1.380   2.445
  694SOL     OW 2099   2.102   1.091   2.748
  694SOL    HW1 2100   2.116   1.007   2.800
  694SOL    HW2 2101   2.047   1.155   2.803
  695SOL     OW 2102   2.468   0.964   1.985
  695SOL    HW1 2103   2.475   1.048   1.931
  695SOL    HW2 2104   2.514   0.977   2.073
  696SOL     OW 2105   1.984   0.643   2.425
  696SOL    HW1 2106   1.939   0.555   2.442
  696SOL    HW2 2107   1.983   0.697   2.509
  697SOL     OW 2108   1.889   1.596   1.979
  697SOL    HW1 2109   1.870   1.500   2.000
  697SOL    HW2 2110   1.856   1.654   2.054
  698SOL     OW 2111   2.475   1.365   2.588
  698SOL    HW1 2112   2.426   1.278   2.597
  698SOL    HW2 2113   2.452   1.408   2.501
  699SOL     OW 2114   2.671   0.004   2.364
  699SOL    HW1 2115   2.711   0.095   2.355
  699SOL    HW2 2116   2.571   0.012   2.370
  700SOL     OW 2117   2.059   0.976   3.126
  700SOL    HW1 2118   2.148   0.931   3.112
  700SOL    HW2 2119   1.986   0.911   3.107
  701SOL     OW 2120   2.460   0.729   2.132
  701SOL    HW1 2121   2.484   0.798   2.064
  701SOL    HW2 2122   2.382   0.762   2.186
  702SOL     OW 2123   2.903   0.701   2.291
  702SOL    HW1 2124   2.929   0.697   2.387
  702SOL    HW2 2125   2.818   0.650   2.277
  703SOL     OW 2126   1.938   0.811   2.651
  703SOL    HW1 2127   2.037   0.799   2.660
  703SOL    HW2 2128   1.914   0.906   2.672
  704SOL     OW 2129   2.727   0.348   2.057
  704SOL    HW1 2130   2.786   0.411   2.008
  704SOL    HW2 2131   2.746   0.254   2.028
  705SOL     OW 2132   2.412   0.196   2.747
  705SOL    HW1 2133   2.407   0.191   2.847
  705SOL    HW2 2134   2.414   0.292   2.718
  706SOL     OW 2135   2.870   1.456   2.339
  706SOL    HW1 2136   2.824   1.528   2.287
  706SOL    HW2 2137   2.866   1.476   2.437
  707SOL     OW 2138   2.213   1.801   2.715
  707SOL    HW1 2139   2.263   1.715   2.721
  707SOL    HW2 2140   2.278   1.878   2.712
  708SOL     OW 2141   2.183   0.943   2.104
  708SOL    HW1 2142   2.265   0.982   2.062
  708SOL    HW2 2143   2.156   0.861   2.055
  709SOL     OW 2144   2.326   1.743   2.185
  709SOL    HW1 2145   2.359   1.782   2.271
  709SOL    HW2 2146   2.402   1.736   2.120
  710SOL     OW 2147   2.111   1.785   3.103
  710SOL    HW1 2148   2.168   1.720   3.153
  710SOL    HW2 2149   2.095   1.752   3.010
  711SOL     OW 2150   2.802   1.698   2.766
  711SOL    HW1 2151   2.882   1.641   2.787
  711SOL    HW2 2152   2.753   1.658   2.689
  712SOL     OW 2153   2.244   0.700   2.342
  712SOL    HW1 2154   2.289   0.610   2.339
  712SOL    HW2 2155   2.150   0.689   2.375
  713SOL     OW 2156   2.476   0.122   1.979
  713SOL    HW1 2157   2.574   0.100   1.986
  713SOL    HW2 2158   2.445   0.105   1.886
  714SOL     OW 2159   2.665   1.402   2.786
  714SOL    HW1 2160   2.755   1.416   2.744
  714SOL    HW2 2161   2.594   1.404   2.715
  715SOL     OW 2162   2.784   0.503   2.761
  715SOL    HW1 2163   2.759   0.494   2.665
  715SOL    HW2 2164   2.832   0.421   2.792
  716SOL     OW 2165   2.401   0.064   2.374
  716SOL    HW1 2166   2.320   0.065   2.432
  716SOL    HW2 2167   2.404   0.147   2.319
  717SOL     OW 2168   2.159   0.035   2.033
  717SOL    HW1 2169   2.208   0.119   2.012
  717SOL    HW2 2170   2.221  -0.030   2.078
  718SOL     OW 2171   2.797   0.236   2.342
  718SOL    HW1 2172   2.749   0.277   2.264
  718SOL    HW2 2173   2.896   0.234   2.323
  719SOL     OW 2174   3.089   1.570   2.655
  719SOL    HW1 2175   3.110   1.644   2.590
  719SOL    HW2 2176   3.157   1.570   2.728
  720SOL     OW 2177   2.321   1.152   2.603
  720SOL    HW1 2178   2.250   1.125   2.668
  720SOL    HW2 2179   2.295   1.124   2.510
  721SOL     OW 2180   3.133   1.797   2.453
  721SOL    HW1 2181   3.177   1.861   2.389
  721SOL    HW2 2182   3.083   1.849   2.523
  722SOL     OW 2183   2.894   0.549   1.878
  722SOL    HW1 2184   2.853   0.631   1.839
  722SOL    HW2 2185   2.958   0.575   1.951
  723SOL     OW 2186   2.728   0.454   2.504
  723SOL    HW1 2187   2.696   0.526   2.442
  723SOL    HW2 2188   2.752   0.373   2.451
  724SOL     OW 2189   2.879   0.039   2.615
  724SOL    HW1 2190   2.807   0.044   2.546
  724SOL    HW2 2191   2.855  -0.030   2.684
  725SOL     OW 2192   2.350   1.385   2.036
  725SOL    HW1 2193   2.263   1.370   2.083
  725SOL    HW2 2194   2.333   1.411   1.941
  726SOL     OW 2195   2.389   0.256   2.190
  726SOL    HW1 2196   2.416   0.197   2.115
  726SOL    HW2 2197   2.389   0.351   2.159
  727SOL     OW 2198   2.567   1.050   2.230
  727SOL    HW1 2199   2.553   1.057   2.329
  727SOL    HW2 2200   2.651   0.999   2.212
  728SOL     OW 2201   2.272   0.813   3.113
  728SOL    HW1 2202   2.358   0.825   3.163
  728SOL    HW2 2203   2.230   0.726   3.140
  729SOL     OW 2204   2.229   1.100   2.363
  729SOL    HW1 2205   2.222   1.183   2.307
  729SOL    HW2 2206   2.233   1.020   2.303
  730SOL     OW 2207   2.428   0.537   2.727
  730SOL    HW1 2208   2.440   0.603   2.653
  730SOL    HW2 2209   2.474   0.571   2.810
  731SOL     OW 2210   3.114   1.348   2.250
  731SOL    HW1 2211   3.164   1.425   2.290
  731SOL    HW2 2212   3.019   1.350   2.282
  732SOL     OW 2213   2.216   1.510   3.191
  732SOL    HW1 2214   2.195   1.466   3.104
  732SOL    HW2 2215   2.313   1.536   3.194
  733SOL     OW 2216   2.435   0.870   2.891
  733SOL    HW1 2217   2.479   0.959   2.882
  733SOL    HW2 2218   2.372   0.870   2.968
  734SOL     OW 2219   3.071   0.525   2.137
  734SOL    HW1 2220   3.084   0.441   2.191
  734SOL    HW2 2221   3.042   0.599   2.197
  735SOL     OW 2222   2.594   0.634   2.926
  735SOL    HW1 2223   2.653   0.608   2.850
  735SOL    HW2 2224   2.566   0.730   2.915
  736SOL     OW 2225   2.169   0.063   2.480
  736SOL    HW1 2226   2.158   0.157   2.513
  736SOL    HW2 2227   2.164   0.000   2.557
  737SOL     OW 2228   2.885   0.766   2.828
  737SOL    HW1 2229   2.900   0.787   2.924
  737SOL    HW2 2230   2.855   0.671   2.819
  738SOL     OW 2231   2.930   1.333   2.711
  738SOL    HW1 2232   2.937   1.249   2.656
  738SOL    HW2 2233   2.992   1.402   2.675
  739SOL     OW 2234   2.181   0.810   2.811
  739SOL    HW1 2235   2.274   0.846   2.816
  739SOL    HW2 2236   2.175   0.725   2.863
  740SOL     OW 2237   2.201   0.509   2.868
  740SOL    HW1 2238   2.149   0.426   2.851
  740SOL    HW2 2239   2.278   0.514   2.804
  741SOL     OW 2240   1.950   1.801   2.789
  741SOL    HW1 2241   1.908   1.715   2.762
  741SOL    HW2 2242   2.044   1.804   2.755
  742SOL     OW 2243   2.366   1.568   2.772
  742SOL    HW1 2244   2.432   1.642   2.781
  742SOL    HW2 2245   2.410   1.489   2.730
  743SOL     OW 2246   2.864   0.796   3.100
  743SOL    HW1 2247   2.905   0.764   3.186
  743SOL    HW2 2248   2.768   0.769   3.097
  744SOL     OW 2249   1.902   0.544   2.976
  744SOL    HW1 2250   1.987   0.511   2.935
  744SOL    HW2 2251   1.915   0.559   3.074
  745SOL     OW 2252   2.677   0.572   2.187
  745SOL    HW1 2253   2.684   0.483   2.141
  745SOL    HW2 2254   2.583   0.606   2.179
  746SOL     OW 2255   2.533   0.464   3.131
  746SOL    HW1 2256   2.499   0.375   3.101
  746SOL    HW2 2257   2.559   0.518   3.051
  747SOL     OW 2258   2.335   0.500   2.053
  747SOL    HW1 2259   2.396   0.580   2.057
  747SOL    HW2 2260   2.240   0.531   2.060
  748SOL     OW 2261   3.164   0.855   2.171
  748SOL    HW1 2262   3.078   0.824   2.213
  748SOL    HW2 2263   3.160   0.841   2.072
  749SOL     OW 2264   1.945   1.258   2.884
  749SOL    HW1 2265   1.940   1.257   2.984
  749SOL    HW2 2266   1.862   1.217   2.846
  750SOL     OW 2267   2.534   1.616   2.016
  750SOL    HW1 2268   2.543   1.626   1.917
  750SOL    HW2 2269   2.494   1.527   2.037
  751SOL     OW 2270   2.125   0.326   2.582
  751SOL    HW1 2271   2.046   0.377   2.548
  751SOL    HW2 2272   2.116   0.311   2.680
  752SOL     OW 2273   2.778   0.910   2.153
  752SOL    HW1 2274   2.841   0.948   2.085
  752SOL    HW2 2275   2.818   0.827   2.192
  753SOL     OW 2276   2.901   1.098   2.558
  753SOL    HW1 2277   2.831   1.051   2.612
  753SOL    HW2 2278   2.960   1.030   2.515
  754SOL     OW 2279   2.876   0.236   2.833
  754SOL    HW1 2280   2.868   0.200   2.740
  754SOL    HW2 2281   2.874   0.160   2.898
  755SOL     OW 2282   2.452   1.487   2.353
  755SOL    HW1 2283   2.494   1.429   2.283
  755SOL    HW2 2284   2.408   1.566   2.309
  756SOL     OW 2285   2.117   1.348   2.152
  756SOL    HW1 2286   2.021   1.349   2.125
  756SOL    HW2 2287   2.129   1.401   2.236
  757SOL     OW 2288   1.937   0.345   1.895
  757SOL    HW1 2289   1.845   0.317   1.866
  757SOL    HW2 2290   1.968   0.422   1.839
  758SOL     OW 2291   1.934   0.166   2.180
  758SOL    HW1 2292   1.917   0.249   2.126
  758SOL    HW2 2293   2.024   0.129   2.158
  759SOL     OW 2294   2.456   0.745   2.514
  759SOL    HW1 2295   2.506   0.830   2.495
  759SOL    HW2 2296   2.368   0.747   2.466
  760SOL     OW 2297   2.721   1.374   1.878
  760SOL    HW1 2298   2.675   1.389   1.966
  760SOL    HW2 2299   2.765   1.459   1.848
  761SOL     OW 2300   2.523   1.790   2.815
  761SOL    HW1 2301   2.477   1.878   2.802
  761SOL    HW2 2302   2.622   1.802   2.808
  762SOL     OW 2303   2.721   0.956   2.723
  762SOL    HW1 2304   2.775   0.887   2.771
  762SOL    HW2 2305   2.689   1.025   2.789
  763SOL     OW 2306   2.945   0.984   1.949
  763SOL    HW1 2307   2.922   1.037   1.867
  763SOL    HW2 2308   3.026   0.928   1.930
  764SOL     OW 2309   1.941   1.240   2.515
  764SOL    HW1 2310   1.940   1.193   2.603
  764SOL    HW2 2311   2.023   1.212   2.464
  765SOL     OW 2312   2.290   0.424   2.382
  765SOL    HW1 2313   2.320   0.352   2.320
  765SOL    HW2 2314   2.251   0.384   2.465
  766SOL     OW 2315   2.674   1.586   2.549
  766SOL    HW1 2316   2.706   1.596   2.455
  766SOL    HW2 2317   2.595   1.524   2.551
  767SOL     OW 2318   2.632   1.330   2.163
  767SOL    HW1 2319   2.586   1.243   2.180
  767SOL    HW2 2320   2.723   1.327   2.204
  768SOL     OW 2321   1.901   1.077   2.162
  768SOL    HW1 2322   2.000   1.066   2.153
  768SOL    HW2 2323   1.861   0.991   2.194
  769SOL     OW 2324   2.737   1.646   2.199
  769SOL    HW1 2325   2.660   1.611   2.145
  769SOL    HW2 2326   2.705   1.717   2.261
  770SOL     OW 2327   2.092   2.490   0.113
  770SOL    HW1 2328   1.999   2.488   0.150
  770SOL    HW2 2329   2.093   2.451   0.021
  771SOL     OW 2330   2.087   2.137   0.996
  771SOL    HW1 2331   2.122   2.120   1.088
  771SOL    HW2 2332   1.999   2.092   0.984
  772SOL     OW 2333   1.881   2.230   0.647
  772SOL    HW1 2334   1.799   2.273   0.686
  772SOL    HW2 2335   1.853   2.157   0.584
  773SOL     OW 2336   2.630   3.006   1.023
  773SOL    HW1 2337   2.552   3.023   1.083
  773SOL    HW2 2338   2.664   3.093   0.987
  774SOL     OW 2339   2.712   2.660   1.823
  774SOL    HW1 2340   2.708   2.736   1.888
  774SOL    HW2 2341   2.734   2.696   1.732
  775SOL     OW 2342   2.547   2.874   0.665
  775SOL    HW1 2343   2.616   2.858   0.735
  775SOL    HW2 2344   2.474   2.931   0.703
  776SOL     OW 2345   2.300   2.254   1.499
  776SOL    HW1 2346   2.382   2.198   1.508
  776SOL    HW2 2347   2.219   2.196   1.503
  777SOL     OW 2348   2.092   3.296   0.538
  777SOL    HW1 2349   2.066   3.392   0.538
  777SOL    HW2 2350   2.021   3.242   0.583
  778SOL     OW 2351   2.102   2.953   0.886
  778SOL    HW1 2352   2.116   2.869   0.938
  778SOL    HW2 2353   2.047   3.017   0.941
  779SOL     OW 2354   2.468   2.826   0.123
  779SOL    HW1 2355   2.475   2.910   0.069
  779SOL    HW2 2356   2.514   2.839   0.211
  780SOL     OW 2357   1.984   2.505   0.563
  780SOL    HW1 2358   1.939   2.417   0.580
  780SOL    HW2 2359   1.983   2.559   0.647
  781SOL     OW 2360   1.975   2.599   1.597
  781SOL    HW1 2361   2.063   2.586   1.642
  781SOL    HW2 2362   1.962   2.696   1.575
  782SOL     OW 2363   2.671   1.866   0.502
  782SOL    HW1 2364   2.711   1.957   0.493
  782SOL    HW2 2365   2.571   1.874   0.508
  783SOL     OW 2366   2.059   2.838   1.264
  783SOL    HW1 2367   2.148   2.793   1.250
  783SOL    HW2 2368   1.986   2.773   1.245
  784SOL     OW 2369   2.179   2.113   1.801
  784SOL    HW1 2370   2.250   2.184   1.807
  784SOL    HW2 2371   2.091   2.152   1.829
  785SOL     OW 2372   2.460   2.591   0.270
  785SOL    HW1 2373   2.484   2.660   0.202
  785SOL    HW2 2374   2.382   2.624   0.324
  786SOL     OW 2375   2.669   2.467   1.465
  786SOL    HW1 2376   2.622   2.464   1.554
  786SOL    HW2 2377   2.618   2.412   1.399
  787SOL     OW 2378   2.835   2.752   1.572
  787SOL    HW1 2379   2.881   2.668   1.543
  787SOL    HW2 2380   2.779   2.786   1.497
  788SOL     OW 2381   2.853   2.272   1.242
  788SOL    HW1 2382   2.776   2.306   1.296
  788SOL    HW2 2383   2.819   2.221   1.163
  789SOL     OW 2384   2.903   2.563   0.429
  789SOL    HW1 2385   2.929   2.559   0.525
  789SOL    HW2 2386   2.818   2.512   0.415
  790SOL     OW 2387   1.938   2.673   0.789
  790SOL    HW1 2388   2.037   2.661   0.798
  790SOL    HW2 2389   1.914   2.768   0.810
  791SOL     OW 2390   2.727   2.210   0.195
  791SOL    HW1 2391   2.786   2.273   0.146
  791SOL    HW2 2392   2.746   2.116   0.166
  792SOL     OW 2393   2.412   2.058   0.885
  792SOL    HW1 2394   2.407   2.053   0.985
  792SOL    HW2 2395   2.414   2.154   0.856
  793SOL     OW 2396   2.183   2.805   0.242
  793SOL    HW1 2397   2.265   2.844   0.200
  793SOL    HW2 2398   2.156   2.723   0.193
  794SOL     OW 2399   2.064   2.147   1.498
  794SOL    HW1 2400   1.984   2.207   1.485
  794SOL    HW2 2401   2.054   2.098   1.584
  795SOL     OW 2402   2.244   2.562   0.480
  795SOL    HW1 2403   2.289   2.472   0.477
  795SOL    HW2 2404   2.150   2.551   0.513
  796SOL     OW 2405   2.476   1.984   0.117
  796SOL    HW1 2406   2.574   1.962   0.124
  796SOL    HW2 2407   2.445   1.967   0.024
  797SOL     OW 2408   2.643   2.126   1.749
  797SOL    HW1 2409   2.710   2.065   1.792
  797SOL    HW2 2410   2.570   2.145   1.814
  798SOL     OW 2411   2.784   2.365   0.899
  798SOL    HW1 2412   2.759   2.356   0.803
  798SOL    HW2 2413   2.832   2.283   0.930
  799SOL     OW 2414   2.401   1.926   0.512
  799SOL    HW1 2415   2.320   1.927   0.570
  799SOL    HW2 2416   2.404   2.009   0.457
  800SOL     OW 2417   2.797   2.098   0.480
  800SOL    HW1 2418   2.749   2.139   0.402
  800SOL    HW2 2419   2.896   2.096   0.461
  801SOL     OW 2420   2.321   3.014   0.741
  801SOL    HW1 2421   2.250   2.987   0.806
  801SOL    HW2 2422   2.295   2.986   0.648
  802SOL     OW 2423   2.894   2.411   0.016
  802SOL    HW1 2424   2.853   2.493  -0.023
  802SOL    HW2 2425   2.958   2.437   0.089
  803SOL     OW 2426   1.940   2.418   1.386
  803SOL    HW1 2427   2.032   2.417   1.345
  803SOL    HW2 2428   1.934   2.492   1.453
  804SOL     OW 2429   2.423   2.084   1.147
  804SOL    HW1 2430   2.461   2.000   1.184
  804SOL    HW2 2431   2.335   2.103   1.191
  805SOL     OW 2432   2.728   2.316   0.642
  805SOL    HW1 2433   2.696   2.388   0.580
  805SOL    HW2 2434   2.752   2.235   0.589
  806SOL     OW 2435   2.879   1.901   0.753
  806SOL    HW1 2436   2.807   1.906   0.684
  806SOL    HW2 2437   2.855   1.832   0.822
  807SOL     OW 2438   2.389   2.118   0.328
  807SOL    HW1 2439   2.416   2.059   0.253
  807SOL    HW2 2440   2.389   2.213   0.297
  808SOL     OW 2441   2.777   1.951   1.402
  808SOL    HW1 2442   2.802   1.931   1.307
  808SOL    HW2 2443   2.849   2.007   1.444
  809SOL     OW 2444   2.567   2.912   0.368
  809SOL    HW1 2445   2.553   2.919   0.467
  809SOL    HW2 2446   2.651   2.861   0.350
  810SOL     OW 2447   2.272   2.675   1.251
  810SOL    HW1 2448   2.358   2.687   1.301
  810SOL    HW2 2449   2.230   2.588   1.278
  811SOL     OW 2450   2.229   2.962   0.501
  811SOL    HW1 2451   2.222   3.045   0.445
  811SOL    HW2 2452   2.233   2.882   0.441
  812SOL     OW 2453   2.428   2.399   0.865
  812SOL    HW1 2454   2.440   2.465   0.791
  812SOL    HW2 2455   2.474   2.433   0.948
  813SOL     OW 2456   2.264   2.613   1.598
  813SOL    HW1 2457   2.332   2.668   1.551
  813SOL    HW2 2458   2.304   2.525   1.625
  814SOL     OW 2459   2.875   1.967   1.770
  814SOL    HW1 2460   2.881   2.052   1.718
  814SOL    HW2 2461   2.907   1.891   1.713
  815SOL     OW 2462   2.366   1.912   1.740
  815SOL    HW1 2463   2.324   1.855   1.670
  815SOL    HW2 2464   2.300   1.981   1.772
  816SOL     OW 2465   2.435   2.732   1.029
  816SOL    HW1 2466   2.479   2.821   1.020
  816SOL    HW2 2467   2.372   2.732   1.106
  817SOL     OW 2468   3.071   2.387   0.275
  817SOL    HW1 2469   3.084   2.303   0.329
  817SOL    HW2 2470   3.042   2.461   0.335
  818SOL     OW 2471   2.169   2.075   1.231
  818SOL    HW1 2472   2.146   2.112   1.321
  818SOL    HW2 2473   2.139   1.980   1.225
  819SOL     OW 2474   2.594   2.496   1.064
  819SOL    HW1 2475   2.653   2.470   0.988
  819SOL    HW2 2476   2.566   2.592   1.053
  820SOL     OW 2477   2.169   1.925   0.618
  820SOL    HW1 2478   2.158   2.019   0.651
  820SOL    HW2 2479   2.164   1.862   0.695
  821SOL     OW 2480   2.885   2.628   0.966
  821SOL    HW1 2481   2.900   2.649   1.062
  821SOL    HW2 2482   2.855   2.533   0.957
  822SOL     OW 2483   2.212   2.760   1.804
  822SOL    HW1 2484   2.288   2.804   1.852
  822SOL    HW2 2485   2.247   2.713   1.722
  823SOL     OW 2486   2.181   2.672   0.949
  823SOL    HW1 2487   2.274   2.708   0.954
  823SOL    HW2 2488   2.175   2.587   1.001
  824SOL     OW 2489   2.201   2.371   1.006
  824SOL    HW1 2490   2.149   2.288   0.989
  824SOL    HW2 2491   2.278   2.376   0.942
  825SOL     OW 2492   3.000   2.242   1.678
  825SOL    HW1 2493   2.955   2.305   1.742
  825SOL    HW2 2494   3.093   2.273   1.661
  826SOL     OW 2495   3.022   2.069   1.477
  826SOL    HW1 2496   3.022   2.133   1.554
  826SOL    HW2 2497   3.050   2.117   1.394
  827SOL     OW 2498   2.864   2.658   1.238
  827SOL    HW1 2499   2.905   2.626   1.324
  827SOL    HW2 2500   2.768   2.631   1.235
  828SOL     OW 2501   1.902   2.406   1.114
  828SOL    HW1 2502   1.987   2.373   1.073
  828SOL    HW2 2503   1.915   2.421   1.212
  829SOL     OW 2504   2.051   2.382   1.722
  829SOL    HW1 2505   2.110   2.342   1.652
  829SOL    HW2 2506   1.993   2.453   1.681
  830SOL     OW 2507   2.677   2.434   0.325
  830SOL    HW1 2508   2.684   2.345   0.279
  830SOL    HW2 2509   2.583   2.468   0.317
  831SOL     OW 2510   2.533   2.326   1.269
  831SOL    HW1 2511   2.499   2.237   1.239
  831SOL    HW2 2512   2.559   2.380   1.189
  832SOL     OW 2513   2.335   2.362   0.191
  832SOL    HW1 2514   2.396   2.442   0.195
  832SOL    HW2 2515   2.240   2.393   0.198
  833SOL     OW 2516   2.021   2.999   1.466
  833SOL    HW1 2517   2.043   2.938   1.542
  833SOL    HW2 2518   2.031   2.950   1.380
  834SOL     OW 2519   3.164   2.717   0.309
  834SOL    HW1 2520   3.078   2.686   0.351
  834SOL    HW2 2521   3.160   2.703   0.210
  835SOL     OW 2522   2.765   1.948   0.133
  835SOL    HW1 2523   2.816   1.949   0.047
  835SOL    HW2 2524   2.821   1.906   0.204
  836SOL     OW 2525   2.125   2.188   0.720
  836SOL    HW1 2526   2.046   2.239   0.686
  836SOL    HW2 2527   2.116   2.173   0.818
  837SOL     OW 2528   2.684   2.864   1.372
  837SOL    HW1 2529   2.724   2.863   1.280
  837SOL    HW2 2530   2.694   2.956   1.412
  838SOL     OW 2531   2.778   2.772   0.291
  838SOL    HW1 2532   2.841   2.810   0.223
  838SOL    HW2 2533   2.818   2.689   0.330
  839SOL     OW 2534   2.234   3.150   1.490
  839SOL    HW1 2535   2.221   3.243   1.456
  839SOL    HW2 2536   2.150   3.098   1.477
  840SOL     OW 2537   2.876   2.098   0.971
  840SOL    HW1 2538   2.868   2.062   0.878
  840SOL    HW2 2539   2.874   2.022   1.036
  841SOL     OW 2540   1.967   2.875   1.726
  841SOL    HW1 2541   1.890   2.842   1.780
  841SOL    HW2 2542   2.052   2.845   1.768
  842SOL     OW 2543   2.534   2.065   1.489
  842SOL    HW1 2544   2.624   2.049   1.449
  842SOL    HW2 2545   2.542   2.070   1.588
  843SOL     OW 2546   1.934   2.028   0.318
  843SOL    HW1 2547   1.917   2.111   0.264
  843SOL    HW2 2548   2.024   1.991   0.296
  844SOL     OW 2549   2.475   2.704   1.431
  844SOL    HW1 2550   2.531   2.785   1.414
  844SOL    HW2 2551   2.534   2.624   1.434
  845SOL     OW 2552   2.578   2.427   1.708
  845SOL    HW1 2553   2.597   2.492   1.782
  845SOL    HW2 2554   2.638   2.347   1.717
  846SOL     OW 2555   2.456   2.607   0.652
  846SOL    HW1 2556   2.506   2.692   0.633
  846SOL    HW2 2557   2.368   2.609   0.604
  847SOL     OW 2558   2.721   2.818   0.861
  847SOL    HW1 2559   2.775   2.749   0.909
  847SOL    HW2 2560   2.689   2.887   0.927
  848SOL     OW 2561   2.945   2.846   0.087
  848SOL    HW1 2562   2.922   2.899   0.005
  848SOL    HW2 2563   3.026   2.790   0.068
  849SOL     OW 2564   2.290   2.286   0.520
  849SOL    HW1 2565   2.320   2.214   0.458
  849SOL    HW2 2566   2.251   2.246   0.603
  850SOL     OW 2567   2.179   2.409   1.280
  850SOL    HW1 2568   2.217   2.350   1.352
  850SOL    HW2 2569   2.219   2.383   1.192
  851SOL     OW 2570   2.863   1.896   1.154
  851SOL    HW1 2571   2.800   1.824   1.123
  851SOL    HW2 2572   2.956   1.860   1.154
  852SOL     OW 2573   2.632   3.192   0.301
  852SOL    HW1 2574   2.586   3.105   0.318
  852SOL    HW2 2575   2.723   3.189   0.342
  853SOL     OW 2576   1.901   2.939   0.300
  853SOL    HW1 2577   2.000   2.928   0.291
  853SOL    HW2 2578   1.861   2.853   0.332
  854SOL     OW 2579   2.092   2.490   1.975
  854SOL    HW1 2580   1.999   2.488   2.012
  854SOL    HW2 2581   2.093   2.451   1.883
  855SOL     OW 2582   2.087   2.137   2.858
  855SOL    HW1 2583   2.122   2.120   2.950
  855SOL    HW2 2584   1.999   2.092   2.846
  856SOL     OW 2585   1.881   2.230   2.509
  856SOL    HW1 2586   1.799   2.273   2.548
  856SOL    HW2 2587   1.853   2.157   2.446
  857SOL     OW 2588   2.630   3.006   2.885
  857SOL    HW1 2589   2.552   3.023   2.945
  857SOL    HW2 2590   2.664   3.093   2.849
  858SOL     OW 2591   2.547   2.874   2.527
  858SOL    HW1 2592   2.616   2.858   2.597
  858SOL    HW2 2593   2.474   2.931   2.565
  859SOL     OW 2594   2.092   3.296   2.400
  859SOL    HW1 2595   2.066   3.392   2.400
  859SOL    HW2 2596   2.021   3.242   2.445
  860SOL     OW 2597   2.102   2.953   2.748
  860SOL    HW1 2598   2.116   2.869   2.800
  860SOL    HW2 2599   2.047   3.017   2.803
  861SOL     OW 2600   2.468   2.826   1.985
  861SOL    HW1 2601   2.475   2.910   1.931
  861SOL    HW2 2602   2.514   2.839   2.073
  862SOL     OW 2603   1.984   2.505   2.425
  862SOL    HW1 2604   1.939   2.417   2.442
  862SOL    HW2 2605   1.983   2.559   2.509
  863SOL     OW 2606   2.671   1.866   2.364
  863SOL    HW1 2607   2.711   1.957   2.355
  863SOL    HW2 2608   2.571   1.874   2.370
  864SOL     OW 2609   2.059   2.838   3.126
  864SOL    HW1 2610   2.148   2.793   3.112
  864SOL    HW2 2611   1.986   2.773   3.107
  865SOL     OW 2612   2.460   2.591   2.132
  865SOL    HW1 2613   2.484   2.660   2.064
  865SOL    HW2 2614   2.382   2.624   2.186
  866SOL     OW 2615   2.903   2.563   2.291
  866SOL    HW1 2616   2.929   2.559   2.387
  866SOL    HW2 2617   2.818   2.512   2.277
  867SOL     OW 2618   1.938   2.673   2.651
  867SOL    HW1 2619   2.037   2.661   2.660
  867SOL    HW2 2620   1.914   2.768   2.672
  868SOL     OW 2621   2.727   2.210   2.057
  868SOL    HW1 2622   2.786   2.273   2.008
  868SOL    HW2 2623   2.746   2.116   2.028
  869SOL     OW 2624   2.412   2.058   2.747
  869SOL    HW1 2625   2.407   2.053   2.847
  869SOL    HW2 2626   2.414   2.154   2.718
  870SOL     OW 2627   2.183   2.805   2.104
  870SOL    HW1 2628   2.265   2.844   2.062
  870SOL    HW2 2629   2.156   2.723   2.055
  871SOL     OW 2630   2.244   2.562   2.342
  871SOL    HW1 2631   2.289   2.472   2.339
  871SOL    HW2 2632   2.150   2.551   2.375
  872SOL     OW 2633   2.476   1.984   1.979
  872SOL    HW1 2634   2.574   1.962   1.986
  872SOL    HW2 2635   2.445   1.967   1.886
  873SOL     OW 2636   2.750   3.376   3.057
  873SOL    HW1 2637   2.727   3.351   2.963
  873SOL    HW2 2638   2.811   3.307   3.096
  874SOL     OW 2639   2.784   2.365   2.761
  874SOL    HW1 2640   2.759   2.356   2.665
  874SOL    HW2 2641   2.832   2.283   2.792
  875SOL     OW 2642   2.401   1.926   2.374
  875SOL    HW1 2643   2.320   1.927   2.432
  875SOL    HW2 2644   2.404   2.009   2.319
  876SOL     OW 2645   2.159   1.897   2.033
  876SOL    HW1 2646   2.208   1.981   2.012
  876SOL    HW2 2647   2.221   1.832   2.078
  877SOL     OW 2648   2.797   2.098   2.342
  877SOL    HW1 2649   2.749   2.139   2.264
  877SOL    HW2 2650   2.896   2.096   2.323
  878SOL     OW 2651   2.321   3.014   2.603
  878SOL    HW1 2652   2.250   2.987   2.668
  878SOL    HW2 2653   2.295   2.986   2.510
  879SOL     OW 2654   2.894   2.411   1.878
  879SOL    HW1 2655   2.853   2.493   1.839
  879SOL    HW2 2656   2.958   2.437   1.951
  880SOL     OW 2657   2.728   2.316   2.504
  880SOL    HW1 2658   2.696   2.388   2.442
  880SOL    HW2 2659   2.752   2.235   2.451
  881SOL     OW 2660   2.879   1.901   2.615
  881SOL    HW1 2661   2.807   1.906   2.546
  881SOL    HW2 2662   2.855   1.832   2.684
  882SOL     OW 2663   2.389   2.118   2.190
  882SOL    HW1 2664   2.416   2.059   2.115
  882SOL    HW2 2665   2.389   2.213   2.159
  883SOL     OW 2666   2.567   2.912   2.230
  883SOL    HW1 2667   2.553   2.919   2.329
  883SOL    HW2 2668   2.651   2.861   2.212
  884SOL     OW 2669   2.272   2.675   3.113
  884SOL    HW1 2670   2.358   2.687   3.163
  884SOL    HW2 2671   2.230   2.588   3.140
  885SOL     OW 2672   2.229   2.962   2.363
  885SOL    HW1 2673   2.222   3.045   2.307
  885SOL    HW2 2674   2.233   2.882   2.303
  886SOL     OW 2675   2.428   2.399   2.727
  886SOL    HW1 2676   2.440   2.465   2.653
  886SOL    HW2 2677   2.474   2.433   2.810
  887SOL     OW 2678   2.435   2.732   2.891
  887SOL    HW1 2679   2.479   2.821   2.882
  887SOL    HW2 2680   2.372   2.732   2.968
  888SOL     OW 2681   3.071   2.387   2.137
  888SOL    HW1 2682   3.084   2.303   2.191
  888SOL    HW2 2683   3.042   2.461   2.197
  889SOL     OW 2684   2.169   2.075   3.093
  889SOL    HW1 2685   2.146   2.112   3.183
  889SOL    HW2 2686   2.139   1.980   3.087
  890SOL     OW 2687   2.594   2.496   2.926
  890SOL    HW1 2688   2.653   2.470   2.850
  890SOL    HW2 2689   2.566   2.592   2.915
  891SOL     OW 2690   2.169   1.925   2.480
  891SOL    HW1 2691   2.158   2.019   2.513
  891SOL    HW2 2692   2.164   1.862   2.557
  892SOL     OW 2693   2.885   2.628   2.828
  892SOL    HW1 2694   2.900   2.649   2.924
  892SOL    HW2 2695   2.855   2.533   2.819
  893SOL     OW 2696   2.181   2.672   2.811
  893SOL    HW1 2697   2.274   2.708   2.816
  893SOL    HW2 2698   2.175   2.587   2.863
  894SOL     OW 2699   2.201   2.371   2.868
  894SOL    HW1 2700   2.149   2.288   2.851
  894SOL    HW2 2701   2.278   2.376   2.804
  895SOL     OW 2702   2.864   2.658   3.100
  895SOL    HW1 2703   2.905   2.626   3.186
  895SOL    HW2 2704   2.768   2.631   3.097
  896SOL     OW 2705   1.902   2.406   2.976
  896SOL    HW1 2706   1.987   2.373   2.935
  896SOL    HW2 2707   1.915   2.421   3.074
  897SOL     OW 2708   2.677   2.434   2.187
  897SOL    HW1 2709   2.684   2.345   2.141
  897SOL    HW2 2710   2.583   2.468   2.179
  898SOL     OW 2711   2.533   2.326   3.131
  898SOL    HW1 2712   2.499   2.237   3.101
  898SOL    HW2 2713   2.559   2.380   3.051
  899SOL     OW 2714   2.335   2.362   2.053
  899SOL    HW1 2715   2.396   2.442   2.057
  899SOL    HW2 2716   2.240   2.393   2.060
  900SOL     OW 2717   3.164   2.717   2.171
  900SOL    HW1 2718   3.078   2.686   2.213
  900SOL    HW2 2719   3.160   2.703   2.072
  901SOL     OW 2720   2.125   2.188   2.582
  901SOL    HW1 2721   2.046   2.239   2.548
  901SOL    HW2 2722   2.116   2.173   2.680
  902SOL     OW 2723   2.778   2.772   2.153
  902SOL    HW1 2724   2.841   2.810   2.085
  902SOL    HW2 2725   2.818   2.689   2.192
  903SOL     OW 2726   2.876   2.098   2.833
  903SOL    HW1 2727   2.868   2.062   2.740
  903SOL    HW2 2728   2.874   2.022   2.898
  904SOL     OW 2729   1.937   2.207   1.895
  904SOL    HW1 2730   1.845   2.179   1.866
  904SOL    HW2 2731   1.968   2.284   1.839
  905SOL     OW 2732   1.934   2.028   2.180
  905SOL    HW1 2733   1.917   2.111   2.126
  905SOL    HW2 2734   2.024   1.991   2.158
  906SOL     OW 2735   2.456   2.607   2.514
  906SOL    HW1 2736   2.506   2.692   2.495
  906SOL    HW2 2737   2.368   2.609   2.466
  907SOL     OW 2738   2.721   2.818   2.723
  907SOL    HW1 2739   2.775   2.749   2.771
  907SOL    HW2 2740   2.689   2.887   2.789
  908SOL     OW 2741   2.945   2.846   1.949
  908SOL    HW1 2742   2.922   2.899   1.867
  908SOL    HW2 2743   3.026   2.790   1.930
  909SOL     OW 2744   2.290   2.286   2.382
  909SOL    HW1 2745   2.320   2.214   2.320
  909SOL    HW2 2746   2.251   2.246   2.465
  910SOL     OW 2747   2.632   3.192   2.163
  910SOL    HW1 2748   2.586   3.105   2.180
  910SOL    HW2 2749   2.723   3.189   2.204
  911SOL     OW 2750   1.901   2.939   2.162
  911SOL    HW1 2751   2.000   2.928   2.153
  911SOL    HW2 2752   1.861   2.853   2.194
   3.05258   3.05258   3.05258
