mobley_3259411_GMX.gro created by acpype (v: 2023.10.27) on Thu May 14 14:01:05 2026
 1772
    1MOL     C1    1   1.293   1.302   1.446
    1MOL     C2    2   1.297   1.274   1.195
    1MOL     C3    3   1.312   1.371   1.312
    1MOL     O1    4   1.312   1.397   1.550
    1MOL     O2    5   1.315   1.342   1.072
    1MOL     O3    6   1.445   1.425   1.308
    1MOL     H1    7   1.367   1.222   1.460
    1MOL     H2    8   1.192   1.261   1.455
    1MOL     H3    9   1.197   1.228   1.195
    1MOL     H4   10   1.372   1.194   1.200
    1MOL     H5   11   1.244   1.456   1.302
    1MOL     H6   12   1.299   1.349   1.634
    1MOL     H7   13   1.304   1.276   1.002
    1MOL     H8   14   1.505   1.350   1.319
    2SOL     OW   15   0.230   0.628   0.113
    2SOL    HW1   16   0.137   0.626   0.150
    2SOL    HW2   17   0.231   0.589   0.021
    3SOL     OW   18   0.225   0.275   0.996
    3SOL    HW1   19   0.260   0.258   1.088
    3SOL    HW2   20   0.137   0.230   0.984
    4SOL     OW   21   0.019   0.368   0.647
    4SOL    HW1   22  -0.063   0.411   0.686
    4SOL    HW2   23  -0.009   0.295   0.584
    5SOL     OW   24   0.569   1.275   1.165
    5SOL    HW1   25   0.476   1.268   1.128
    5SOL    HW2   26   0.580   1.364   1.209
    6SOL     OW   27   1.555   1.511   0.703
    6SOL    HW1   28   1.498   1.495   0.784
    6SOL    HW2   29   1.496   1.521   0.623
    7SOL     OW   30   1.135   0.703   0.717
    7SOL    HW1   31   1.192   0.781   0.692
    7SOL    HW2   32   1.075   0.729   0.793
    8SOL     OW   33   1.755   0.607   0.231
    8SOL    HW1   34   1.743   0.594   0.132
    8SOL    HW2   35   1.725   0.526   0.280
    9SOL     OW   36   0.768   1.144   1.023
    9SOL    HW1   37   0.690   1.161   1.083
    9SOL    HW2   38   0.802   1.231   0.987
   10SOL     OW   39   0.850   0.798   1.823
   10SOL    HW1   40   0.846   0.874   1.888
   10SOL    HW2   41   0.872   0.834   1.732
   11SOL     OW   42   0.685   1.012   0.665
   11SOL    HW1   43   0.754   0.996   0.735
   11SOL    HW2   44   0.612   1.069   0.703
   12SOL     OW   45   0.686   1.161   1.803
   12SOL    HW1   46   0.746   1.240   1.817
   12SOL    HW2   47   0.600   1.192   1.762
   13SOL     OW   48   0.335   1.435   1.061
   13SOL    HW1   49   0.257   1.404   1.008
   13SOL    HW2   50   0.393   1.493   1.004
   14SOL     OW   51   0.438   0.392   1.499
   14SOL    HW1   52   0.520   0.336   1.508
   14SOL    HW2   53   0.357   0.334   1.503
   15SOL     OW   54   1.603   0.447   0.737
   15SOL    HW1   55   1.529   0.493   0.687
   15SOL    HW2   56   1.654   0.515   0.790
   16SOL     OW   57   0.231   1.713   0.483
   16SOL    HW1   58   0.265   1.790   0.537
   16SOL    HW2   59   0.275   1.713   0.393
   17SOL     OW   60   1.127   1.341   1.690
   17SOL    HW1   61   1.174   1.341   1.778
   17SOL    HW2   62   1.079   1.254   1.679
   18SOL     OW   63   0.230   1.434   0.538
   18SOL    HW1   64   0.204   1.530   0.538
   18SOL    HW2   65   0.159   1.380   0.583
   19SOL     OW   66   0.240   1.091   0.886
   19SOL    HW1   67   0.254   1.007   0.938
   19SOL    HW2   68   0.185   1.155   0.941
   20SOL     OW   69   0.620   1.786   1.439
   20SOL    HW1   70   0.528   1.769   1.474
   20SOL    HW2   71   0.648   1.878   1.465
   21SOL     OW   72   0.606   0.964   0.123
   21SOL    HW1   73   0.613   1.048   0.069
   21SOL    HW2   74   0.652   0.977   0.211
   22SOL     OW   75   1.594   0.114   1.480
   22SOL    HW1   76   1.576   0.181   1.408
   22SOL    HW2   77   1.591   0.160   1.569
   23SOL     OW   78   0.122   0.643   0.563
   23SOL    HW1   79   0.077   0.555   0.580
   23SOL    HW2   80   0.121   0.697   0.647
   24SOL     OW   81   1.842   1.767   0.359
   24SOL    HW1   82   1.896   1.738   0.439
   24SOL    HW2   83   1.872   1.857   0.330
   25SOL     OW   84   0.027   1.596   0.117
   25SOL    HW1   85   0.008   1.500   0.138
   25SOL    HW2   86  -0.006   1.654   0.192
   26SOL     OW   87   1.689   0.922   0.612
   26SOL    HW1   88   1.784   0.893   0.620
   26SOL    HW2   89   1.681   0.987   0.537
   27SOL     OW   90   1.641   1.108   0.432
   27SOL    HW1   91   1.727   1.110   0.380
   27SOL    HW2   92   1.655   1.155   0.520
   28SOL     OW   93   0.113   0.737   1.597
   28SOL    HW1   94   0.201   0.724   1.642
   28SOL    HW2   95   0.100   0.834   1.575
   29SOL     OW   96   0.613   1.365   0.726
   29SOL    HW1   97   0.564   1.278   0.735
   29SOL    HW2   98   0.590   1.408   0.639
   30SOL     OW   99   0.809   0.004   0.502
   30SOL    HW1  100   0.849   0.095   0.493
   30SOL    HW2  101   0.709   0.012   0.508
   31SOL     OW  102   0.197   0.976   1.264
   31SOL    HW1  103   0.286   0.931   1.250
   31SOL    HW2  104   0.124   0.911   1.245
   32SOL     OW  105   1.525   0.999   0.190
   32SOL    HW1  106   1.462   0.923   0.203
   32SOL    HW2  107   1.573   1.017   0.276
   33SOL     OW  108   1.187   1.792   1.616
   33SOL    HW1  109   1.211   1.852   1.540
   33SOL    HW2  110   1.194   1.697   1.586
   34SOL     OW  111   0.317   0.251   1.801
   34SOL    HW1  112   0.388   0.322   1.807
   34SOL    HW2  113   0.229   0.290   1.829
   35SOL     OW  114   1.667   1.714   0.572
   35SOL    HW1  115   1.626   1.691   0.484
   35SOL    HW2  116   1.649   1.640   0.637
   36SOL     OW  117   0.598   0.729   0.270
   36SOL    HW1  118   0.622   0.798   0.202
   36SOL    HW2  119   0.520   0.762   0.324
   37SOL     OW  120   1.281   0.345   0.944
   37SOL    HW1  121   1.195   0.295   0.931
   37SOL    HW2  122   1.343   0.291   1.000
   38SOL     OW  123   1.576   1.662   0.307
   38SOL    HW1  124   1.665   1.708   0.310
   38SOL    HW2  125   1.555   1.638   0.212
   39SOL     OW  126   0.807   0.605   1.465
   39SOL    HW1  127   0.760   0.602   1.554
   39SOL    HW2  128   0.756   0.550   1.399
   40SOL     OW  129   1.394   0.469   1.674
   40SOL    HW1  130   1.374   0.512   1.762
   40SOL    HW2  131   1.472   0.407   1.683
   41SOL     OW  132   0.973   0.890   1.572
   41SOL    HW1  133   1.019   0.806   1.543
   41SOL    HW2  134   0.917   0.924   1.497
   42SOL     OW  135   0.991   0.410   1.242
   42SOL    HW1  136   0.914   0.444   1.296
   42SOL    HW2  137   0.957   0.359   1.163
   43SOL     OW  138   1.041   0.701   0.429
   43SOL    HW1  139   1.067   0.697   0.525
   43SOL    HW2  140   0.956   0.650   0.415
   44SOL     OW  141   0.076   0.811   0.789
   44SOL    HW1  142   0.175   0.799   0.798
   44SOL    HW2  143   0.052   0.906   0.810
   45SOL     OW  144   0.130   1.821   1.571
   45SOL    HW1  145   0.120   1.806   1.670
   45SOL    HW2  146   0.044   1.857   1.535
   46SOL     OW  147   0.865   0.348   0.195
   46SOL    HW1  148   0.924   0.411   0.146
   46SOL    HW2  149   0.884   0.254   0.166
   47SOL     OW  150   1.719   0.585   1.831
   47SOL    HW1  151   1.693   0.674   1.795
   47SOL    HW2  152   1.717   0.517   1.758
   48SOL     OW  153   1.362   1.144   0.545
   48SOL    HW1  154   1.445   1.115   0.497
   48SOL    HW2  155   1.313   1.211   0.489
   49SOL     OW  156   0.550   0.196   0.885
   49SOL    HW1  157   0.545   0.191   0.985
   49SOL    HW2  158   0.552   0.292   0.856
   50SOL     OW  159   1.008   1.456   0.477
   50SOL    HW1  160   0.962   1.528   0.425
   50SOL    HW2  161   1.004   1.476   0.575
   51SOL     OW  162   0.351   1.801   0.853
   51SOL    HW1  163   0.401   1.715   0.859
   51SOL    HW2  164   0.416   1.878   0.850
   52SOL     OW  165   1.795   1.066   0.873
   52SOL    HW1  166   1.733   1.051   0.797
   52SOL    HW2  167   1.743   1.077   0.958
   53SOL     OW  168   0.321   0.943   0.242
   53SOL    HW1  169   0.403   0.982   0.200
   53SOL    HW2  170   0.294   0.861   0.193
   54SOL     OW  171   1.458   0.735   0.728
   54SOL    HW1  172   1.453   0.670   0.803
   54SOL    HW2  173   1.538   0.794   0.741
   55SOL     OW  174   0.461   1.266   1.727
   55SOL    HW1  175   0.411   1.267   1.641
   55SOL    HW2  176   0.398   1.248   1.803
   56SOL     OW  177   1.111   1.776   0.237
   56SOL    HW1  178   1.051   1.714   0.287
   56SOL    HW2  179   1.142   1.732   0.152
   57SOL     OW  180   0.202   0.285   1.498
   57SOL    HW1  181   0.122   0.345   1.485
   57SOL    HW2  182   0.192   0.236   1.584
   58SOL     OW  183   1.632   1.377   0.081
   58SOL    HW1  184   1.600   1.471   0.071
   58SOL    HW2  185   1.556   1.314   0.069
   59SOL     OW  186   0.464   1.743   0.323
   59SOL    HW1  187   0.497   1.782   0.409
   59SOL    HW2  188   0.540   1.736   0.258
   60SOL     OW  189   1.400   0.107   0.426
   60SOL    HW1  190   1.376   0.070   0.336
   60SOL    HW2  191   1.499   0.123   0.430
   61SOL     OW  192   0.249   1.785   1.241
   61SOL    HW1  193   0.306   1.720   1.291
   61SOL    HW2  194   0.233   1.752   1.148
   62SOL     OW  195   0.940   1.698   0.904
   62SOL    HW1  196   1.020   1.641   0.925
   62SOL    HW2  197   0.891   1.658   0.827
   63SOL     OW  198   0.382   0.700   0.480
   63SOL    HW1  199   0.427   0.610   0.477
   63SOL    HW2  200   0.288   0.689   0.513
   64SOL     OW  201   1.547   0.222   1.729
   64SOL    HW1  202   1.542   0.259   1.821
   64SOL    HW2  203   1.475   0.153   1.717
   65SOL     OW  204   0.614   0.122   0.117
   65SOL    HW1  205   0.712   0.100   0.124
   65SOL    HW2  206   0.583   0.105   0.024
   66SOL     OW  207   0.781   0.264   1.749
   66SOL    HW1  208   0.848   0.203   1.792
   66SOL    HW2  209   0.708   0.283   1.814
   67SOL     OW  210   0.888   1.514   1.195
   67SOL    HW1  211   0.865   1.489   1.101
   67SOL    HW2  212   0.949   1.445   1.234
   68SOL     OW  213   1.351   0.590   1.433
   68SOL    HW1  214   1.379   0.547   1.518
   68SOL    HW2  215   1.376   0.686   1.434
   69SOL     OW  216   0.803   1.402   0.924
   69SOL    HW1  217   0.893   1.416   0.882
   69SOL    HW2  218   0.732   1.404   0.853
   70SOL     OW  219   0.922   0.503   0.899
   70SOL    HW1  220   0.897   0.494   0.803
   70SOL    HW2  221   0.970   0.421   0.930
   71SOL     OW  222   0.539   0.064   0.512
   71SOL    HW1  223   0.458   0.065   0.570
   71SOL    HW2  224   0.542   0.147   0.457
   72SOL     OW  225   1.434   1.188   0.041
   72SOL    HW1  226   1.466   1.112   0.098
   72SOL    HW2  227   1.342   1.215   0.071
   73SOL     OW  228   0.297   0.035   0.171
   73SOL    HW1  229   0.346   0.119   0.150
   73SOL    HW2  230   0.359  -0.030   0.216
   74SOL     OW  231   0.935   0.236   0.480
   74SOL    HW1  232   0.887   0.277   0.402
   74SOL    HW2  233   1.034   0.234   0.461
   75SOL     OW  234   1.076   0.683   1.464
   75SOL    HW1  235   0.996   0.622   1.467
   75SOL    HW2  236   1.157   0.630   1.440
   76SOL     OW  237   1.227   1.570   0.793
   76SOL    HW1  238   1.248   1.644   0.728
   76SOL    HW2  239   1.295   1.570   0.866
   77SOL     OW  240   0.459   1.152   0.741
   77SOL    HW1  241   0.388   1.125   0.806
   77SOL    HW2  242   0.433   1.124   0.648
   78SOL     OW  243   1.271   1.797   0.591
   78SOL    HW1  244   1.315   1.861   0.527
   78SOL    HW2  245   1.221   1.849   0.661
   79SOL     OW  246   1.032   0.549   0.016
   79SOL    HW1  247   0.991   0.631  -0.023
   79SOL    HW2  248   1.096   0.575   0.089
   80SOL     OW  249   0.078   0.556   1.386
   80SOL    HW1  250   0.170   0.555   1.345
   80SOL    HW2  251   0.072   0.630   1.453
   81SOL     OW  252   0.561   0.222   1.147
   81SOL    HW1  253   0.599   0.138   1.184
   81SOL    HW2  254   0.473   0.241   1.191
   82SOL     OW  255   0.866   0.454   0.642
   82SOL    HW1  256   0.834   0.526   0.580
   82SOL    HW2  257   0.890   0.373   0.589
   83SOL     OW  258   1.017   0.039   0.753
   83SOL    HW1  259   0.945   0.044   0.684
   83SOL    HW2  260   0.993  -0.030   0.822
   84SOL     OW  261   1.429   1.173   0.867
   84SOL    HW1  262   1.374   1.089   0.860
   84SOL    HW2  263   1.455   1.202   0.775
   85SOL     OW  264   1.466   0.590   0.992
   85SOL    HW1  265   1.436   0.495   0.999
   85SOL    HW2  266   1.539   0.606   1.058
   86SOL     OW  267   1.857   0.833   0.377
   86SOL    HW1  268   1.899   0.769   0.441
   86SOL    HW2  269   1.819   0.782   0.299
   87SOL     OW  270   0.488   1.385   0.174
   87SOL    HW1  271   0.401   1.370   0.221
   87SOL    HW2  272   0.471   1.411   0.079
   88SOL     OW  273   1.664   1.280   0.657
   88SOL    HW1  274   1.763   1.288   0.671
   88SOL    HW2  275   1.619   1.364   0.688
   89SOL     OW  276   1.390   0.575   0.078
   89SOL    HW1  277   1.336   0.554   0.159
   89SOL    HW2  278   1.481   0.534   0.087
   90SOL     OW  279   0.527   0.256   0.328
   90SOL    HW1  280   0.554   0.197   0.253
   90SOL    HW2  281   0.527   0.351   0.297
   91SOL     OW  282   1.754   1.223   1.588
   91SOL    HW1  283   1.845   1.184   1.575
   91SOL    HW2  284   1.762   1.319   1.612
   92SOL     OW  285   1.592   1.629   1.625
   92SOL    HW1  286   1.619   1.663   1.535
   92SOL    HW2  287   1.671   1.591   1.671
   93SOL     OW  288   1.638   1.099   1.079
   93SOL    HW1  289   1.643   1.180   1.138
   93SOL    HW2  290   1.552   1.101   1.028
   94SOL     OW  291   0.915   0.089   1.402
   94SOL    HW1  292   0.940   0.069   1.307
   94SOL    HW2  293   0.987   0.145   1.444
   95SOL     OW  294   0.980   1.116   1.719
   95SOL    HW1  295   0.881   1.122   1.729
   95SOL    HW2  296   1.003   1.036   1.663
   96SOL     OW  297   0.705   1.050   0.368
   96SOL    HW1  298   0.691   1.057   0.467
   96SOL    HW2  299   0.789   0.999   0.350
   97SOL     OW  300   0.410   0.813   1.251
   97SOL    HW1  301   0.496   0.825   1.301
   97SOL    HW2  302   0.368   0.726   1.278
   98SOL     OW  303   1.274   0.386   1.262
   98SOL    HW1  304   1.295   0.460   1.326
   98SOL    HW2  305   1.185   0.403   1.219
   99SOL     OW  306   0.064   1.564   1.331
   99SOL    HW1  307   0.018   1.646   1.297
   99SOL    HW2  308   0.162   1.583   1.340
  100SOL     OW  309   0.367   1.100   0.501
  100SOL    HW1  310   0.360   1.183   0.445
  100SOL    HW2  311   0.371   1.020   0.441
  101SOL     OW  312   0.566   0.537   0.865
  101SOL    HW1  313   0.578   0.603   0.791
  101SOL    HW2  314   0.612   0.571   0.948
  102SOL     OW  315   1.252   1.348   0.388
  102SOL    HW1  316   1.302   1.425   0.428
  102SOL    HW2  317   1.157   1.350   0.420
  103SOL     OW  318   1.582   0.639   0.472
  103SOL    HW1  319   1.551   0.700   0.545
  103SOL    HW2  320   1.632   0.691   0.403
  104SOL     OW  321   0.354   1.510   1.329
  104SOL    HW1  322   0.333   1.466   1.242
  104SOL    HW2  323   0.451   1.536   1.332
  105SOL     OW  324   0.402   0.751   1.598
  105SOL    HW1  325   0.470   0.806   1.551
  105SOL    HW2  326   0.442   0.663   1.625
  106SOL     OW  327   1.587   0.779   1.670
  106SOL    HW1  328   1.495   0.817   1.665
  106SOL    HW2  329   1.647   0.826   1.605
  107SOL     OW  330   1.013   0.105   1.770
  107SOL    HW1  331   1.019   0.190   1.718
  107SOL    HW2  332   1.045   0.029   1.713
  108SOL     OW  333   0.504   0.050   1.740
  108SOL    HW1  334   0.462  -0.007   1.670
  108SOL    HW2  335   0.438   0.119   1.772
  109SOL     OW  336   0.573   0.870   1.029
  109SOL    HW1  337   0.617   0.959   1.020
  109SOL    HW2  338   0.510   0.870   1.106
  110SOL     OW  339   1.360   0.862   1.045
  110SOL    HW1  340   1.285   0.862   0.979
  110SOL    HW2  341   1.397   0.770   1.054
  111SOL     OW  342   1.209   0.525   0.275
  111SOL    HW1  343   1.222   0.441   0.329
  111SOL    HW2  344   1.180   0.599   0.335
  112SOL     OW  345   0.307   0.213   1.231
  112SOL    HW1  346   0.284   0.250   1.321
  112SOL    HW2  347   0.277   0.118   1.225
  113SOL     OW  348   0.037   1.310   1.282
  113SOL    HW1  349   0.090   1.261   1.350
  113SOL    HW2  350   0.059   1.408   1.287
  114SOL     OW  351   0.732   0.634   1.064
  114SOL    HW1  352   0.791   0.608   0.988
  114SOL    HW2  353   0.704   0.730   1.053
  115SOL     OW  354   1.728   0.935   1.854
  115SOL    HW1  355   1.682   0.928   1.765
  115SOL    HW2  356   1.666   0.979   1.920
  116SOL     OW  357   0.307   0.063   0.618
  116SOL    HW1  358   0.296   0.157   0.651
  116SOL    HW2  359   0.302   0.000   0.695
  117SOL     OW  360   1.622   0.367   0.374
  117SOL    HW1  361   1.624   0.291   0.438
  117SOL    HW2  362   1.574   0.444   0.414
  118SOL     OW  363   1.023   0.766   0.966
  118SOL    HW1  364   1.038   0.787   1.062
  118SOL    HW2  365   0.993   0.671   0.957
  119SOL     OW  366   0.980   1.573   1.700
  119SOL    HW1  367   0.960   1.617   1.612
  119SOL    HW2  368   1.019   1.482   1.684
  120SOL     OW  369   1.859   1.518   1.605
  120SOL    HW1  370   1.873   1.545   1.510
  120SOL    HW2  371   1.942   1.540   1.658
  121SOL     OW  372   0.350   0.898   1.804
  121SOL    HW1  373   0.426   0.942   1.852
  121SOL    HW2  374   0.385   0.851   1.722
  122SOL     OW  375   1.540   0.274   0.125
  122SOL    HW1  376   1.479   0.199   0.148
  122SOL    HW2  377   1.562   0.326   0.208
  123SOL     OW  378   1.303   0.838   0.042
  123SOL    HW1  379   1.337   0.745   0.057
  123SOL    HW2  380   1.321   0.865  -0.053
  124SOL     OW  381   1.068   1.333   0.849
  124SOL    HW1  382   1.075   1.249   0.794
  124SOL    HW2  383   1.130   1.402   0.813
  125SOL     OW  384   0.319   0.810   0.949
  125SOL    HW1  385   0.412   0.846   0.954
  125SOL    HW2  386   0.313   0.725   1.001
  126SOL     OW  387   0.339   0.509   1.006
  126SOL    HW1  388   0.287   0.426   0.989
  126SOL    HW2  389   0.416   0.514   0.942
  127SOL     OW  390   1.138   0.380   1.678
  127SOL    HW1  391   1.093   0.443   1.742
  127SOL    HW2  392   1.231   0.411   1.661
  128SOL     OW  393   1.160   0.207   1.477
  128SOL    HW1  394   1.160   0.271   1.554
  128SOL    HW2  395   1.188   0.255   1.394
  129SOL     OW  396   0.008   1.326   0.200
  129SOL    HW1  397  -0.085   1.347   0.169
  129SOL    HW2  398   0.018   1.227   0.213
  130SOL     OW  399   0.088   1.801   0.927
  130SOL    HW1  400   0.046   1.715   0.900
  130SOL    HW2  401   0.182   1.804   0.893
  131SOL     OW  402   0.504   1.568   0.910
  131SOL    HW1  403   0.570   1.642   0.919
  131SOL    HW2  404   0.548   1.489   0.868
  132SOL     OW  405   1.002   0.796   1.238
  132SOL    HW1  406   1.043   0.764   1.324
  132SOL    HW2  407   0.906   0.769   1.235
  133SOL     OW  408   0.040   0.544   1.114
  133SOL    HW1  409   0.125   0.511   1.073
  133SOL    HW2  410   0.053   0.559   1.212
  134SOL     OW  411   0.189   0.520   1.722
  134SOL    HW1  412   0.248   0.480   1.652
  134SOL    HW2  413   0.131   0.591   1.681
  135SOL     OW  414   1.369   0.950   1.660
  135SOL    HW1  415   1.408   1.039   1.680
  135SOL    HW2  416   1.379   0.930   1.563
  136SOL     OW  417   0.815   0.572   0.325
  136SOL    HW1  418   0.822   0.483   0.279
  136SOL    HW2  419   0.721   0.606   0.317
  137SOL     OW  420   1.657   0.604   1.206
  137SOL    HW1  421   1.619   0.535   1.268
  137SOL    HW2  422   1.739   0.568   1.162
  138SOL     OW  423   0.252   1.564   1.744
  138SOL    HW1  424   0.222   1.621   1.820
  138SOL    HW2  425   0.245   1.467   1.770
  139SOL     OW  426   0.671   0.464   1.269
  139SOL    HW1  427   0.637   0.375   1.239
  139SOL    HW2  428   0.697   0.518   1.189
  140SOL     OW  429   0.930   1.678   1.465
  140SOL    HW1  430   0.906   1.660   1.370
  140SOL    HW2  431   0.960   1.772   1.475
  141SOL     OW  432   0.473   0.500   0.191
  141SOL    HW1  433   0.534   0.580   0.195
  141SOL    HW2  434   0.378   0.531   0.198
  142SOL     OW  435   0.159   1.137   1.466
  142SOL    HW1  436   0.181   1.076   1.542
  142SOL    HW2  437   0.169   1.088   1.380
  143SOL     OW  438   1.302   0.855   0.309
  143SOL    HW1  439   1.216   0.824   0.351
  143SOL    HW2  440   1.298   0.841   0.210
  144SOL     OW  441   1.759   1.747   1.154
  144SOL    HW1  442   1.820   1.777   1.081
  144SOL    HW2  443   1.721   1.658   1.132
  145SOL     OW  444   1.252   1.731   1.128
  145SOL    HW1  445   1.336   1.736   1.074
  145SOL    HW2  446   1.229   1.635   1.146
  146SOL     OW  447   0.083   1.258   1.022
  146SOL    HW1  448   0.078   1.257   1.122
  146SOL    HW2  449   0.000   1.217   0.984
  147SOL     OW  450   0.688   1.662   1.716
  147SOL    HW1  451   0.632   1.743   1.725
  147SOL    HW2  452   0.740   1.666   1.630
  148SOL     OW  453   0.903   0.086   0.133
  148SOL    HW1  454   0.954   0.087   0.047
  148SOL    HW2  455   0.959   0.044   0.204
  149SOL     OW  456   1.726   0.135   0.523
  149SOL    HW1  457   1.799   0.118   0.456
  149SOL    HW2  458   1.695   0.048   0.561
  150SOL     OW  459   1.388   1.573   0.477
  150SOL    HW1  460   1.455   1.585   0.403
  150SOL    HW2  461   1.348   1.662   0.500
  151SOL     OW  462   0.130   1.794   1.851
  151SOL    HW1  463   0.089   1.720   1.904
  151SOL    HW2  464   0.194   1.845   1.909
  152SOL     OW  465   1.280   0.927   0.672
  152SOL    HW1  466   1.340   0.846   0.674
  152SOL    HW2  467   1.320   0.996   0.612
  153SOL     OW  468   0.830   1.273   1.422
  153SOL    HW1  469   0.825   1.306   1.517
  153SOL    HW2  470   0.744   1.292   1.376
  154SOL     OW  471   0.672   1.616   0.154
  154SOL    HW1  472   0.681   1.626   0.055
  154SOL    HW2  473   0.632   1.527   0.175
  155SOL     OW  474   1.650   1.720   1.394
  155SOL    HW1  475   1.703   1.730   1.310
  155SOL    HW2  476   1.623   1.810   1.428
  156SOL     OW  477   1.841   0.175   0.963
  156SOL    HW1  478   1.880   0.090   0.927
  156SOL    HW2  479   1.743   0.177   0.944
  157SOL     OW  480   0.263   0.326   0.720
  157SOL    HW1  481   0.184   0.377   0.686
  157SOL    HW2  482   0.254   0.311   0.818
  158SOL     OW  483   1.194   1.612   0.031
  158SOL    HW1  484   1.200   1.519   0.068
  158SOL    HW2  485   1.135   1.612  -0.049
  159SOL     OW  486   0.822   1.002   1.372
  159SOL    HW1  487   0.862   1.001   1.280
  159SOL    HW2  488   0.832   1.094   1.412
  160SOL     OW  489   0.916   0.910   0.291
  160SOL    HW1  490   0.979   0.948   0.223
  160SOL    HW2  491   0.956   0.827   0.330
  161SOL     OW  492   1.504   1.607   0.044
  161SOL    HW1  493   1.412   1.644   0.051
  161SOL    HW2  494   1.542   1.627  -0.046
  162SOL     OW  495   0.372   1.288   1.490
  162SOL    HW1  496   0.359   1.381   1.456
  162SOL    HW2  497   0.288   1.236   1.477
  163SOL     OW  498   1.039   1.098   0.696
  163SOL    HW1  499   0.969   1.051   0.750
  163SOL    HW2  500   1.098   1.030   0.653
  164SOL     OW  501   1.014   0.236   0.971
  164SOL    HW1  502   1.006   0.200   0.878
  164SOL    HW2  503   1.012   0.160   1.036
  165SOL     OW  504   0.590   1.487   0.491
  165SOL    HW1  505   0.632   1.429   0.421
  165SOL    HW2  506   0.546   1.566   0.447
  166SOL     OW  507   1.709   0.385   1.381
  166SOL    HW1  508   1.782   0.454   1.385
  166SOL    HW2  509   1.737   0.310   1.322
  167SOL     OW  510   0.255   1.348   0.290
  167SOL    HW1  511   0.159   1.349   0.263
  167SOL    HW2  512   0.267   1.401   0.374
  168SOL     OW  513   0.105   1.013   1.726
  168SOL    HW1  514   0.028   0.980   1.780
  168SOL    HW2  515   0.190   0.983   1.768
  169SOL     OW  516   0.672   0.203   1.489
  169SOL    HW1  517   0.762   0.187   1.449
  169SOL    HW2  518   0.680   0.208   1.588
  170SOL     OW  519   0.075   0.345   0.033
  170SOL    HW1  520  -0.017   0.317   0.004
  170SOL    HW2  521   0.106   0.422  -0.023
  171SOL     OW  522   1.440   0.856   1.398
  171SOL    HW1  523   1.383   0.908   1.335
  171SOL    HW2  524   1.536   0.868   1.374
  172SOL     OW  525   0.072   0.166   0.318
  172SOL    HW1  526   0.055   0.249   0.264
  172SOL    HW2  527   0.162   0.129   0.296
  173SOL     OW  528   1.183   1.335   0.119
  173SOL    HW1  529   1.084   1.324   0.121
  173SOL    HW2  530   1.217   1.350   0.212
  174SOL     OW  531   0.613   0.842   1.431
  174SOL    HW1  532   0.669   0.923   1.414
  174SOL    HW2  533   0.672   0.762   1.434
  175SOL     OW  534   1.493   1.767   0.959
  175SOL    HW1  535   1.526   1.831   0.890
  175SOL    HW2  536   1.559   1.761   1.034
  176SOL     OW  537   0.716   0.565   1.708
  176SOL    HW1  538   0.735   0.630   1.782
  176SOL    HW2  539   0.776   0.485   1.717
  177SOL     OW  540   1.450   1.220   1.633
  177SOL    HW1  541   1.441   1.210   1.732
  177SOL    HW2  542   1.546   1.213   1.607
  178SOL     OW  543   0.390   1.741   1.560
  178SOL    HW1  544   0.299   1.782   1.558
  178SOL    HW2  545   0.383   1.647   1.592
  179SOL     OW  546   1.674   0.883   1.254
  179SOL    HW1  547   1.647   0.794   1.217
  179SOL    HW2  548   1.675   0.951   1.181
  180SOL     OW  549   1.225   0.325   0.449
  180SOL    HW1  550   1.290   0.251   0.438
  180SOL    HW2  551   1.245   0.375   0.533
  181SOL     OW  552   0.594   0.745   0.652
  181SOL    HW1  553   0.644   0.830   0.633
  181SOL    HW2  554   0.506   0.747   0.604
  182SOL     OW  555   1.777   0.342   1.642
  182SOL    HW1  556   1.760   0.373   1.548
  182SOL    HW2  557   1.693   0.305   1.680
  183SOL     OW  558   1.730   0.934   1.517
  183SOL    HW1  559   1.768   1.025   1.532
  183SOL    HW2  560   1.722   0.917   1.418
  184SOL     OW  561   0.859   1.374   0.016
  184SOL    HW1  562   0.813   1.389   0.104
  184SOL    HW2  563   0.903   1.459  -0.014
  185SOL     OW  564   0.661   1.790   0.953
  185SOL    HW1  565   0.615   1.878   0.940
  185SOL    HW2  566   0.760   1.802   0.946
  186SOL     OW  567   0.859   0.956   0.861
  186SOL    HW1  568   0.913   0.887   0.909
  186SOL    HW2  569   0.827   1.025   0.927
  187SOL     OW  570   1.083   0.984   0.087
  187SOL    HW1  571   1.060   1.037   0.005
  187SOL    HW2  572   1.164   0.928   0.068
  188SOL     OW  573   1.861   1.569   0.851
  188SOL    HW1  574   1.790   1.557   0.781
  188SOL    HW2  575   1.862   1.490   0.911
  189SOL     OW  576   0.221   1.314   1.844
  189SOL    HW1  577   0.156   1.241   1.823
  189SOL    HW2  578   0.225   1.328   1.942
  190SOL     OW  579   0.079   1.240   0.653
  190SOL    HW1  580   0.078   1.193   0.741
  190SOL    HW2  581   0.161   1.212   0.602
  191SOL     OW  582   0.672   1.391   1.624
  191SOL    HW1  583   0.594   1.341   1.662
  191SOL    HW2  584   0.669   1.486   1.655
  192SOL     OW  585   1.824   0.192   1.227
  192SOL    HW1  586   1.820   0.102   1.271
  192SOL    HW2  587   1.827   0.181   1.128
  193SOL     OW  588   0.428   0.424   0.520
  193SOL    HW1  589   0.458   0.352   0.458
  193SOL    HW2  590   0.389   0.384   0.603
  194SOL     OW  591   1.705   1.487   1.104
  194SOL    HW1  592   1.612   1.462   1.077
  194SOL    HW2  593   1.731   1.437   1.186
  195SOL     OW  594   0.317   0.547   1.280
  195SOL    HW1  595   0.355   0.488   1.352
  195SOL    HW2  596   0.357   0.521   1.192
  196SOL     OW  597   0.812   1.586   0.687
  196SOL    HW1  598   0.844   1.596   0.593
  196SOL    HW2  599   0.733   1.524   0.689
  197SOL     OW  600   1.424   0.214   1.112
  197SOL    HW1  601   1.476   0.149   1.167
  197SOL    HW2  602   1.375   0.277   1.173
  198SOL     OW  603   1.001   0.034   1.154
  198SOL    HW1  604   0.938  -0.038   1.123
  198SOL    HW2  605   1.094  -0.002   1.154
  199SOL     OW  606   0.770   1.330   0.301
  199SOL    HW1  607   0.724   1.243   0.318
  199SOL    HW2  608   0.861   1.327   0.342
  200SOL     OW  609   0.618   1.567   1.284
  200SOL    HW1  610   0.613   1.649   1.341
  200SOL    HW2  611   0.707   1.564   1.239
  201SOL     OW  612   1.352   0.052   0.168
  201SOL    HW1  613   1.387   0.011   0.084
  201SOL    HW2  614   1.262   0.014   0.188
  202SOL     OW  615   1.300   0.453   0.691
  202SOL    HW1  616   1.241   0.533   0.695
  202SOL    HW2  617   1.315   0.418   0.784
  203SOL     OW  618   1.593   0.221   0.882
  203SOL    HW1  619   1.509   0.220   0.936
  203SOL    HW2  620   1.595   0.304   0.826
  204SOL     OW  621   0.039   1.077   0.300
  204SOL    HW1  622   0.138   1.066   0.291
  204SOL    HW2  623  -0.001   0.991   0.332
  205SOL     OW  624   0.875   1.646   0.337
  205SOL    HW1  625   0.798   1.611   0.283
  205SOL    HW2  626   0.843   1.717   0.399
  206SOL     OW  627   0.230   0.628   1.975
  206SOL    HW1  628   0.137   0.626   2.012
  206SOL    HW2  629   0.231   0.589   1.883
  207SOL     OW  630   1.755   0.607   2.093
  207SOL    HW1  631   1.743   0.594   1.994
  207SOL    HW2  632   1.725   0.526   2.142
  208SOL     OW  633   0.685   1.012   2.527
  208SOL    HW1  634   0.754   0.996   2.597
  208SOL    HW2  635   0.612   1.069   2.565
  209SOL     OW  636   1.603   0.447   2.599
  209SOL    HW1  637   1.529   0.493   2.549
  209SOL    HW2  638   1.654   0.515   2.652
  210SOL     OW  639   0.231   1.713   2.345
  210SOL    HW1  640   0.265   1.790   2.399
  210SOL    HW2  641   0.275   1.713   2.255
  211SOL     OW  642   0.230   1.434   2.400
  211SOL    HW1  643   0.204   1.530   2.400
  211SOL    HW2  644   0.159   1.380   2.445
  212SOL     OW  645   0.606   0.964   1.985
  212SOL    HW1  646   0.613   1.048   1.931
  212SOL    HW2  647   0.652   0.977   2.073
  213SOL     OW  648   0.122   0.643   2.425
  213SOL    HW1  649   0.077   0.555   2.442
  213SOL    HW2  650   0.121   0.697   2.509
  214SOL     OW  651   1.842   1.767   2.221
  214SOL    HW1  652   1.896   1.738   2.301
  214SOL    HW2  653   1.872   1.857   2.192
  215SOL     OW  654   0.027   1.596   1.979
  215SOL    HW1  655   0.008   1.500   2.000
  215SOL    HW2  656  -0.006   1.654   2.054
  216SOL     OW  657   1.689   0.922   2.474
  216SOL    HW1  658   1.784   0.893   2.482
  216SOL    HW2  659   1.681   0.987   2.399
  217SOL     OW  660   1.641   1.108   2.294
  217SOL    HW1  661   1.727   1.110   2.242
  217SOL    HW2  662   1.655   1.155   2.382
  218SOL     OW  663   0.613   1.365   2.588
  218SOL    HW1  664   0.564   1.278   2.597
  218SOL    HW2  665   0.590   1.408   2.501
  219SOL     OW  666   0.809   0.004   2.364
  219SOL    HW1  667   0.849   0.095   2.355
  219SOL    HW2  668   0.709   0.012   2.370
  220SOL     OW  669   1.525   0.999   2.052
  220SOL    HW1  670   1.462   0.923   2.065
  220SOL    HW2  671   1.573   1.017   2.138
  221SOL     OW  672   1.667   1.714   2.434
  221SOL    HW1  673   1.626   1.691   2.346
  221SOL    HW2  674   1.649   1.640   2.499
  222SOL     OW  675   0.598   0.729   2.132
  222SOL    HW1  676   0.622   0.798   2.064
  222SOL    HW2  677   0.520   0.762   2.186
  223SOL     OW  678   1.281   0.345   2.806
  223SOL    HW1  679   1.195   0.295   2.793
  223SOL    HW2  680   1.343   0.291   2.862
  224SOL     OW  681   1.576   1.662   2.169
  224SOL    HW1  682   1.665   1.708   2.172
  224SOL    HW2  683   1.555   1.638   2.074
  225SOL     OW  684   1.041   0.701   2.291
  225SOL    HW1  685   1.067   0.697   2.387
  225SOL    HW2  686   0.956   0.650   2.277
  226SOL     OW  687   0.076   0.811   2.651
  226SOL    HW1  688   0.175   0.799   2.660
  226SOL    HW2  689   0.052   0.906   2.672
  227SOL     OW  690   0.865   0.348   2.057
  227SOL    HW1  691   0.924   0.411   2.008
  227SOL    HW2  692   0.884   0.254   2.028
  228SOL     OW  693   1.362   1.144   2.407
  228SOL    HW1  694   1.445   1.115   2.359
  228SOL    HW2  695   1.313   1.211   2.351
  229SOL     OW  696   1.008   1.456   2.339
  229SOL    HW1  697   0.962   1.528   2.287
  229SOL    HW2  698   1.004   1.476   2.437
  230SOL     OW  699   0.351   1.801   2.715
  230SOL    HW1  700   0.401   1.715   2.721
  230SOL    HW2  701   0.416   1.878   2.712
  231SOL     OW  702   1.795   1.066   2.735
  231SOL    HW1  703   1.733   1.051   2.659
  231SOL    HW2  704   1.743   1.077   2.820
  232SOL     OW  705   0.321   0.943   2.104
  232SOL    HW1  706   0.403   0.982   2.062
  232SOL    HW2  707   0.294   0.861   2.055
  233SOL     OW  708   1.111   1.776   2.099
  233SOL    HW1  709   1.051   1.714   2.149
  233SOL    HW2  710   1.142   1.732   2.014
  234SOL     OW  711   1.632   1.377   1.943
  234SOL    HW1  712   1.600   1.471   1.933
  234SOL    HW2  713   1.556   1.314   1.931
  235SOL     OW  714   0.464   1.743   2.185
  235SOL    HW1  715   0.497   1.782   2.271
  235SOL    HW2  716   0.540   1.736   2.120
  236SOL     OW  717   1.400   0.107   2.288
  236SOL    HW1  718   1.376   0.070   2.198
  236SOL    HW2  719   1.499   0.123   2.292
  237SOL     OW  720   0.940   1.698   2.766
  237SOL    HW1  721   1.020   1.641   2.787
  237SOL    HW2  722   0.891   1.658   2.689
  238SOL     OW  723   0.382   0.700   2.342
  238SOL    HW1  724   0.427   0.610   2.339
  238SOL    HW2  725   0.288   0.689   2.375
  239SOL     OW  726   0.614   0.122   1.979
  239SOL    HW1  727   0.712   0.100   1.986
  239SOL    HW2  728   0.583   0.105   1.886
  240SOL     OW  729   0.539   0.064   2.374
  240SOL    HW1  730   0.458   0.065   2.432
  240SOL    HW2  731   0.542   0.147   2.319
  241SOL     OW  732   1.434   1.188   1.903
  241SOL    HW1  733   1.466   1.112   1.960
  241SOL    HW2  734   1.342   1.215   1.933
  242SOL     OW  735   0.297   0.035   2.033
  242SOL    HW1  736   0.346   0.119   2.012
  242SOL    HW2  737   0.359  -0.030   2.078
  243SOL     OW  738   0.935   0.236   2.342
  243SOL    HW1  739   0.887   0.277   2.264
  243SOL    HW2  740   1.034   0.234   2.323
  244SOL     OW  741   0.459   1.152   2.603
  244SOL    HW1  742   0.388   1.125   2.668
  244SOL    HW2  743   0.433   1.124   2.510
  245SOL     OW  744   1.271   1.797   2.453
  245SOL    HW1  745   1.315   1.861   2.389
  245SOL    HW2  746   1.221   1.849   2.523
  246SOL     OW  747   1.032   0.549   1.878
  246SOL    HW1  748   0.991   0.631   1.839
  246SOL    HW2  749   1.096   0.575   1.951
  247SOL     OW  750   0.866   0.454   2.504
  247SOL    HW1  751   0.834   0.526   2.442
  247SOL    HW2  752   0.890   0.373   2.451
  248SOL     OW  753   1.857   0.833   2.239
  248SOL    HW1  754   1.899   0.769   2.303
  248SOL    HW2  755   1.819   0.782   2.161
  249SOL     OW  756   0.488   1.385   2.036
  249SOL    HW1  757   0.401   1.370   2.083
  249SOL    HW2  758   0.471   1.411   1.941
  250SOL     OW  759   1.664   1.280   2.519
  250SOL    HW1  760   1.763   1.288   2.533
  250SOL    HW2  761   1.619   1.364   2.550
  251SOL     OW  762   1.390   0.575   1.940
  251SOL    HW1  763   1.336   0.554   2.021
  251SOL    HW2  764   1.481   0.534   1.949
  252SOL     OW  765   0.527   0.256   2.190
  252SOL    HW1  766   0.554   0.197   2.115
  252SOL    HW2  767   0.527   0.351   2.159
  253SOL     OW  768   1.111   1.195   2.962
  253SOL    HW1  769   1.071   1.239   3.043
  253SOL    HW2  770   1.070   1.232   2.879
  254SOL     OW  771   0.705   1.050   2.230
  254SOL    HW1  772   0.691   1.057   2.329
  254SOL    HW2  773   0.789   0.999   2.212
  255SOL     OW  774   0.367   1.100   2.363
  255SOL    HW1  775   0.360   1.183   2.307
  255SOL    HW2  776   0.371   1.020   2.303
  256SOL     OW  777   1.252   1.348   2.250
  256SOL    HW1  778   1.302   1.425   2.290
  256SOL    HW2  779   1.157   1.350   2.282
  257SOL     OW  780   1.582   0.639   2.334
  257SOL    HW1  781   1.551   0.700   2.407
  257SOL    HW2  782   1.632   0.691   2.265
  258SOL     OW  783   1.209   0.525   2.137
  258SOL    HW1  784   1.222   0.441   2.191
  258SOL    HW2  785   1.180   0.599   2.197
  259SOL     OW  786   0.307   0.063   2.480
  259SOL    HW1  787   0.296   0.157   2.513
  259SOL    HW2  788   0.302   0.000   2.557
  260SOL     OW  789   1.622   0.367   2.236
  260SOL    HW1  790   1.624   0.291   2.300
  260SOL    HW2  791   1.574   0.444   2.276
  261SOL     OW  792   1.540   0.274   1.987
  261SOL    HW1  793   1.479   0.199   2.010
  261SOL    HW2  794   1.562   0.326   2.070
  262SOL     OW  795   1.303   0.838   1.904
  262SOL    HW1  796   1.337   0.745   1.919
  262SOL    HW2  797   1.321   0.865   1.809
  263SOL     OW  798   0.008   1.326   2.062
  263SOL    HW1  799  -0.085   1.347   2.031
  263SOL    HW2  800   0.018   1.227   2.075
  264SOL     OW  801   0.815   0.572   2.187
  264SOL    HW1  802   0.822   0.483   2.141
  264SOL    HW2  803   0.721   0.606   2.179
  265SOL     OW  804   0.473   0.500   2.053
  265SOL    HW1  805   0.534   0.580   2.057
  265SOL    HW2  806   0.378   0.531   2.060
  266SOL     OW  807   1.302   0.855   2.171
  266SOL    HW1  808   1.216   0.824   2.213
  266SOL    HW2  809   1.298   0.841   2.072
  267SOL     OW  810   1.726   0.135   2.385
  267SOL    HW1  811   1.799   0.118   2.318
  267SOL    HW2  812   1.695   0.048   2.423
  268SOL     OW  813   1.388   1.573   2.339
  268SOL    HW1  814   1.455   1.585   2.265
  268SOL    HW2  815   1.348   1.662   2.362
  269SOL     OW  816   0.672   1.616   2.016
  269SOL    HW1  817   0.681   1.626   1.917
  269SOL    HW2  818   0.632   1.527   2.037
  270SOL     OW  819   1.841   0.175   2.825
  270SOL    HW1  820   1.880   0.090   2.789
  270SOL    HW2  821   1.743   0.177   2.806
  271SOL     OW  822   1.194   1.612   1.893
  271SOL    HW1  823   1.200   1.519   1.930
  271SOL    HW2  824   1.135   1.612   1.813
  272SOL     OW  825   0.916   0.910   2.153
  272SOL    HW1  826   0.979   0.948   2.085
  272SOL    HW2  827   0.956   0.827   2.192
  273SOL     OW  828   1.504   1.607   1.906
  273SOL    HW1  829   1.412   1.644   1.913
  273SOL    HW2  830   1.542   1.627   1.816
  274SOL     OW  831   0.590   1.487   2.353
  274SOL    HW1  832   0.632   1.429   2.283
  274SOL    HW2  833   0.546   1.566   2.309
  275SOL     OW  834   0.255   1.348   2.152
  275SOL    HW1  835   0.159   1.349   2.125
  275SOL    HW2  836   0.267   1.401   2.236
  276SOL     OW  837   0.075   0.345   1.895
  276SOL    HW1  838  -0.017   0.317   1.866
  276SOL    HW2  839   0.106   0.422   1.839
  277SOL     OW  840   0.072   0.166   2.180
  277SOL    HW1  841   0.055   0.249   2.126
  277SOL    HW2  842   0.162   0.129   2.158
  278SOL     OW  843   1.183   1.335   1.981
  278SOL    HW1  844   1.084   1.324   1.983
  278SOL    HW2  845   1.217   1.350   2.074
  279SOL     OW  846   1.225   0.325   2.311
  279SOL    HW1  847   1.290   0.251   2.300
  279SOL    HW2  848   1.245   0.375   2.395
  280SOL     OW  849   0.594   0.745   2.514
  280SOL    HW1  850   0.644   0.830   2.495
  280SOL    HW2  851   0.506   0.747   2.466
  281SOL     OW  852   0.859   1.374   1.878
  281SOL    HW1  853   0.813   1.389   1.966
  281SOL    HW2  854   0.903   1.459   1.848
  282SOL     OW  855   1.083   0.984   1.949
  282SOL    HW1  856   1.060   1.037   1.867
  282SOL    HW2  857   1.164   0.928   1.930
  283SOL     OW  858   0.079   1.240   2.515
  283SOL    HW1  859   0.078   1.193   2.603
  283SOL    HW2  860   0.161   1.212   2.464
  284SOL     OW  861   0.428   0.424   2.382
  284SOL    HW1  862   0.458   0.352   2.320
  284SOL    HW2  863   0.389   0.384   2.465
  285SOL     OW  864   0.812   1.586   2.549
  285SOL    HW1  865   0.844   1.596   2.455
  285SOL    HW2  866   0.733   1.524   2.551
  286SOL     OW  867   0.770   1.330   2.163
  286SOL    HW1  868   0.724   1.243   2.180
  286SOL    HW2  869   0.861   1.327   2.204
  287SOL     OW  870   1.352   0.052   2.030
  287SOL    HW1  871   1.387   0.011   1.946
  287SOL    HW2  872   1.262   0.014   2.050
  288SOL     OW  873   1.300   0.453   2.553
  288SOL    HW1  874   1.241   0.533   2.557
  288SOL    HW2  875   1.315   0.418   2.646
  289SOL     OW  876   0.039   1.077   2.162
  289SOL    HW1  877   0.138   1.066   2.153
  289SOL    HW2  878  -0.001   0.991   2.194
  290SOL     OW  879   0.875   1.646   2.199
  290SOL    HW1  880   0.798   1.611   2.145
  290SOL    HW2  881   0.843   1.717   2.261
  291SOL     OW  882   0.230   2.490   0.113
  291SOL    HW1  883   0.137   2.488   0.150
  291SOL    HW2  884   0.231   2.451   0.021
  292SOL     OW  885   0.225   2.137   0.996
  292SOL    HW1  886   0.260   2.120   1.088
  292SOL    HW2  887   0.137   2.092   0.984
  293SOL     OW  888   0.019   2.230   0.647
  293SOL    HW1  889  -0.063   2.273   0.686
  293SOL    HW2  890  -0.009   2.157   0.584
  294SOL     OW  891   1.755   2.469   0.231
  294SOL    HW1  892   1.743   2.456   0.132
  294SOL    HW2  893   1.725   2.388   0.280
  295SOL     OW  894   0.685   2.874   0.665
  295SOL    HW1  895   0.754   2.858   0.735
  295SOL    HW2  896   0.612   2.931   0.703
  296SOL     OW  897   0.438   2.254   1.499
  296SOL    HW1  898   0.520   2.198   1.508
  296SOL    HW2  899   0.357   2.196   1.503
  297SOL     OW  900   1.603   2.309   0.737
  297SOL    HW1  901   1.529   2.355   0.687
  297SOL    HW2  902   1.654   2.377   0.790
  298SOL     OW  903   1.594   1.976   1.480
  298SOL    HW1  904   1.576   2.043   1.408
  298SOL    HW2  905   1.591   2.022   1.569
  299SOL     OW  906   0.122   2.505   0.563
  299SOL    HW1  907   0.077   2.417   0.580
  299SOL    HW2  908   0.121   2.559   0.647
  300SOL     OW  909   0.113   2.599   1.597
  300SOL    HW1  910   0.201   2.586   1.642
  300SOL    HW2  911   0.100   2.696   1.575
  301SOL     OW  912   0.809   1.866   0.502
  301SOL    HW1  913   0.849   1.957   0.493
  301SOL    HW2  914   0.709   1.874   0.508
  302SOL     OW  915   0.317   2.113   1.801
  302SOL    HW1  916   0.388   2.184   1.807
  302SOL    HW2  917   0.229   2.152   1.829
  303SOL     OW  918   1.281   2.207   0.944
  303SOL    HW1  919   1.195   2.157   0.931
  303SOL    HW2  920   1.343   2.153   1.000
  304SOL     OW  921   0.807   2.467   1.465
  304SOL    HW1  922   0.760   2.464   1.554
  304SOL    HW2  923   0.756   2.412   1.399
  305SOL     OW  924   1.394   2.331   1.674
  305SOL    HW1  925   1.374   2.374   1.762
  305SOL    HW2  926   1.472   2.269   1.683
  306SOL     OW  927   0.991   2.272   1.242
  306SOL    HW1  928   0.914   2.306   1.296
  306SOL    HW2  929   0.957   2.221   1.163
  307SOL     OW  930   1.041   2.563   0.429
  307SOL    HW1  931   1.067   2.559   0.525
  307SOL    HW2  932   0.956   2.512   0.415
  308SOL     OW  933   0.076   2.673   0.789
  308SOL    HW1  934   0.175   2.661   0.798
  308SOL    HW2  935   0.052   2.768   0.810
  309SOL     OW  936   0.865   2.210   0.195
  309SOL    HW1  937   0.924   2.273   0.146
  309SOL    HW2  938   0.884   2.116   0.166
  310SOL     OW  939   1.719   2.447   1.831
  310SOL    HW1  940   1.693   2.536   1.795
  310SOL    HW2  941   1.717   2.379   1.758
  311SOL     OW  942   0.550   2.058   0.885
  311SOL    HW1  943   0.545   2.053   0.985
  311SOL    HW2  944   0.552   2.154   0.856
  312SOL     OW  945   1.458   2.597   0.728
  312SOL    HW1  946   1.453   2.532   0.803
  312SOL    HW2  947   1.538   2.656   0.741
  313SOL     OW  948   0.202   2.147   1.498
  313SOL    HW1  949   0.122   2.207   1.485
  313SOL    HW2  950   0.192   2.098   1.584
  314SOL     OW  951   1.400   1.969   0.426
  314SOL    HW1  952   1.376   1.932   0.336
  314SOL    HW2  953   1.499   1.985   0.430
  315SOL     OW  954   0.382   2.562   0.480
  315SOL    HW1  955   0.427   2.472   0.477
  315SOL    HW2  956   0.288   2.551   0.513
  316SOL     OW  957   1.547   2.084   1.729
  316SOL    HW1  958   1.542   2.121   1.821
  316SOL    HW2  959   1.475   2.015   1.717
  317SOL     OW  960   0.614   1.984   0.117
  317SOL    HW1  961   0.712   1.962   0.124
  317SOL    HW2  962   0.583   1.967   0.024
  318SOL     OW  963   0.781   2.126   1.749
  318SOL    HW1  964   0.848   2.065   1.792
  318SOL    HW2  965   0.708   2.145   1.814
  319SOL     OW  966   1.351   2.452   1.433
  319SOL    HW1  967   1.379   2.409   1.518
  319SOL    HW2  968   1.376   2.548   1.434
  320SOL     OW  969   0.922   2.365   0.899
  320SOL    HW1  970   0.897   2.356   0.803
  320SOL    HW2  971   0.970   2.283   0.930
  321SOL     OW  972   0.539   1.926   0.512
  321SOL    HW1  973   0.458   1.927   0.570
  321SOL    HW2  974   0.542   2.009   0.457
  322SOL     OW  975   0.935   2.098   0.480
  322SOL    HW1  976   0.887   2.139   0.402
  322SOL    HW2  977   1.034   2.096   0.461
  323SOL     OW  978   1.076   2.545   1.464
  323SOL    HW1  979   0.996   2.484   1.467
  323SOL    HW2  980   1.157   2.492   1.440
  324SOL     OW  981   1.032   2.411   0.016
  324SOL    HW1  982   0.991   2.493  -0.023
  324SOL    HW2  983   1.096   2.437   0.089
  325SOL     OW  984   0.078   2.418   1.386
  325SOL    HW1  985   0.170   2.417   1.345
  325SOL    HW2  986   0.072   2.492   1.453
  326SOL     OW  987   0.561   2.084   1.147
  326SOL    HW1  988   0.599   2.000   1.184
  326SOL    HW2  989   0.473   2.103   1.191
  327SOL     OW  990   0.866   2.316   0.642
  327SOL    HW1  991   0.834   2.388   0.580
  327SOL    HW2  992   0.890   2.235   0.589
  328SOL     OW  993   1.017   1.901   0.753
  328SOL    HW1  994   0.945   1.906   0.684
  328SOL    HW2  995   0.993   1.832   0.822
  329SOL     OW  996   1.466   2.452   0.992
  329SOL    HW1  997   1.436   2.357   0.999
  329SOL    HW2  998   1.539   2.468   1.058
  330SOL     OW  999   1.390   2.437   0.078
  330SOL    HW1 1000   1.336   2.416   0.159
  330SOL    HW2 1001   1.481   2.396   0.087
  331SOL     OW 1002   0.527   2.118   0.328
  331SOL    HW1 1003   0.554   2.059   0.253
  331SOL    HW2 1004   0.527   2.213   0.297
  332SOL     OW 1005   0.915   1.951   1.402
  332SOL    HW1 1006   0.940   1.931   1.307
  332SOL    HW2 1007   0.987   2.007   1.444
  333SOL     OW 1008   0.410   2.675   1.251
  333SOL    HW1 1009   0.496   2.687   1.301
  333SOL    HW2 1010   0.368   2.588   1.278
  334SOL     OW 1011   1.274   2.248   1.262
  334SOL    HW1 1012   1.295   2.322   1.326
  334SOL    HW2 1013   1.185   2.265   1.219
  335SOL     OW 1014   0.566   2.399   0.865
  335SOL    HW1 1015   0.578   2.465   0.791
  335SOL    HW2 1016   0.612   2.433   0.948
  336SOL     OW 1017   1.582   2.501   0.472
  336SOL    HW1 1018   1.551   2.562   0.545
  336SOL    HW2 1019   1.632   2.553   0.403
  337SOL     OW 1020   1.013   1.967   1.770
  337SOL    HW1 1021   1.019   2.052   1.718
  337SOL    HW2 1022   1.045   1.891   1.713
  338SOL     OW 1023   0.504   1.912   1.740
  338SOL    HW1 1024   0.462   1.855   1.670
  338SOL    HW2 1025   0.438   1.981   1.772
  339SOL     OW 1026   1.209   2.387   0.275
  339SOL    HW1 1027   1.222   2.303   0.329
  339SOL    HW2 1028   1.180   2.461   0.335
  340SOL     OW 1029   0.307   2.075   1.231
  340SOL    HW1 1030   0.284   2.112   1.321
  340SOL    HW2 1031   0.277   1.980   1.225
  341SOL     OW 1032   0.732   2.496   1.064
  341SOL    HW1 1033   0.791   2.470   0.988
  341SOL    HW2 1034   0.704   2.592   1.053
  342SOL     OW 1035   1.728   2.797   1.854
  342SOL    HW1 1036   1.682   2.790   1.765
  342SOL    HW2 1037   1.666   2.841   1.920
  343SOL     OW 1038   0.307   1.925   0.618
  343SOL    HW1 1039   0.296   2.019   0.651
  343SOL    HW2 1040   0.302   1.862   0.695
  344SOL     OW 1041   1.622   2.229   0.374
  344SOL    HW1 1042   1.624   2.153   0.438
  344SOL    HW2 1043   1.574   2.306   0.414
  345SOL     OW 1044   1.540   2.136   0.125
  345SOL    HW1 1045   1.479   2.061   0.148
  345SOL    HW2 1046   1.562   2.188   0.208
  346SOL     OW 1047   0.319   2.672   0.949
  346SOL    HW1 1048   0.412   2.708   0.954
  346SOL    HW2 1049   0.313   2.587   1.001
  347SOL     OW 1050   0.339   2.371   1.006
  347SOL    HW1 1051   0.287   2.288   0.989
  347SOL    HW2 1052   0.416   2.376   0.942
  348SOL     OW 1053   1.138   2.242   1.678
  348SOL    HW1 1054   1.093   2.305   1.742
  348SOL    HW2 1055   1.231   2.273   1.661
  349SOL     OW 1056   1.160   2.069   1.477
  349SOL    HW1 1057   1.160   2.133   1.554
  349SOL    HW2 1058   1.188   2.117   1.394
  350SOL     OW 1059   0.040   2.406   1.114
  350SOL    HW1 1060   0.125   2.373   1.073
  350SOL    HW2 1061   0.053   2.421   1.212
  351SOL     OW 1062   0.189   2.382   1.722
  351SOL    HW1 1063   0.248   2.342   1.652
  351SOL    HW2 1064   0.131   2.453   1.681
  352SOL     OW 1065   0.815   2.434   0.325
  352SOL    HW1 1066   0.822   2.345   0.279
  352SOL    HW2 1067   0.721   2.468   0.317
  353SOL     OW 1068   1.657   2.466   1.206
  353SOL    HW1 1069   1.619   2.397   1.268
  353SOL    HW2 1070   1.739   2.430   1.162
  354SOL     OW 1071   0.671   2.326   1.269
  354SOL    HW1 1072   0.637   2.237   1.239
  354SOL    HW2 1073   0.697   2.380   1.189
  355SOL     OW 1074   0.473   2.362   0.191
  355SOL    HW1 1075   0.534   2.442   0.195
  355SOL    HW2 1076   0.378   2.393   0.198
  356SOL     OW 1077   0.903   1.948   0.133
  356SOL    HW1 1078   0.954   1.949   0.047
  356SOL    HW2 1079   0.959   1.906   0.204
  357SOL     OW 1080   1.726   1.997   0.523
  357SOL    HW1 1081   1.799   1.980   0.456
  357SOL    HW2 1082   1.695   1.910   0.561
  358SOL     OW 1083   1.280   2.789   0.672
  358SOL    HW1 1084   1.340   2.708   0.674
  358SOL    HW2 1085   1.320   2.858   0.612
  359SOL     OW 1086   1.841   2.037   0.963
  359SOL    HW1 1087   1.880   1.952   0.927
  359SOL    HW2 1088   1.743   2.039   0.944
  360SOL     OW 1089   0.263   2.188   0.720
  360SOL    HW1 1090   0.184   2.239   0.686
  360SOL    HW2 1091   0.254   2.173   0.818
  361SOL     OW 1092   1.039   2.960   0.696
  361SOL    HW1 1093   0.969   2.913   0.750
  361SOL    HW2 1094   1.098   2.892   0.653
  362SOL     OW 1095   1.014   2.098   0.971
  362SOL    HW1 1096   1.006   2.062   0.878
  362SOL    HW2 1097   1.012   2.022   1.036
  363SOL     OW 1098   1.709   2.247   1.381
  363SOL    HW1 1099   1.782   2.316   1.385
  363SOL    HW2 1100   1.737   2.172   1.322
  364SOL     OW 1101   0.672   2.065   1.489
  364SOL    HW1 1102   0.762   2.049   1.449
  364SOL    HW2 1103   0.680   2.070   1.588
  365SOL     OW 1104   0.075   2.207   0.033
  365SOL    HW1 1105  -0.017   2.179   0.004
  365SOL    HW2 1106   0.106   2.284  -0.023
  366SOL     OW 1107   0.072   2.028   0.318
  366SOL    HW1 1108   0.055   2.111   0.264
  366SOL    HW2 1109   0.162   1.991   0.296
  367SOL     OW 1110   0.716   2.427   1.708
  367SOL    HW1 1111   0.735   2.492   1.782
  367SOL    HW2 1112   0.776   2.347   1.717
  368SOL     OW 1113   1.225   2.187   0.449
  368SOL    HW1 1114   1.290   2.113   0.438
  368SOL    HW2 1115   1.245   2.237   0.533
  369SOL     OW 1116   1.777   2.204   1.642
  369SOL    HW1 1117   1.760   2.235   1.548
  369SOL    HW2 1118   1.693   2.167   1.680
  370SOL     OW 1119   1.083   2.846   0.087
  370SOL    HW1 1120   1.060   2.899   0.005
  370SOL    HW2 1121   1.164   2.790   0.068
  371SOL     OW 1122   1.824   2.054   1.227
  371SOL    HW1 1123   1.820   1.964   1.271
  371SOL    HW2 1124   1.827   2.043   1.128
  372SOL     OW 1125   0.428   2.286   0.520
  372SOL    HW1 1126   0.458   2.214   0.458
  372SOL    HW2 1127   0.389   2.246   0.603
  373SOL     OW 1128   0.317   2.409   1.280
  373SOL    HW1 1129   0.355   2.350   1.352
  373SOL    HW2 1130   0.357   2.383   1.192
  374SOL     OW 1131   1.424   2.076   1.112
  374SOL    HW1 1132   1.476   2.011   1.167
  374SOL    HW2 1133   1.375   2.139   1.173
  375SOL     OW 1134   1.001   1.896   1.154
  375SOL    HW1 1135   0.938   1.824   1.123
  375SOL    HW2 1136   1.094   1.860   1.154
  376SOL     OW 1137   1.352   1.914   0.168
  376SOL    HW1 1138   1.387   1.873   0.084
  376SOL    HW2 1139   1.262   1.876   0.188
  377SOL     OW 1140   1.300   2.315   0.691
  377SOL    HW1 1141   1.241   2.395   0.695
  377SOL    HW2 1142   1.315   2.280   0.784
  378SOL     OW 1143   1.593   2.083   0.882
  378SOL    HW1 1144   1.509   2.082   0.936
  378SOL    HW2 1145   1.595   2.166   0.826
  379SOL     OW 1146   0.230   2.490   1.975
  379SOL    HW1 1147   0.137   2.488   2.012
  379SOL    HW2 1148   0.231   2.451   1.883
  380SOL     OW 1149   1.755   2.469   2.093
  380SOL    HW1 1150   1.743   2.456   1.994
  380SOL    HW2 1151   1.725   2.388   2.142
  381SOL     OW 1152   0.685   2.874   2.527
  381SOL    HW1 1153   0.754   2.858   2.597
  381SOL    HW2 1154   0.612   2.931   2.565
  382SOL     OW 1155   1.603   2.309   2.599
  382SOL    HW1 1156   1.529   2.355   2.549
  382SOL    HW2 1157   1.654   2.377   2.652
  383SOL     OW 1158   0.240   2.953   2.748
  383SOL    HW1 1159   0.254   2.869   2.800
  383SOL    HW2 1160   0.185   3.017   2.803
  384SOL     OW 1161   0.122   2.505   2.425
  384SOL    HW1 1162   0.077   2.417   2.442
  384SOL    HW2 1163   0.121   2.559   2.509
  385SOL     OW 1164   0.809   1.866   2.364
  385SOL    HW1 1165   0.849   1.957   2.355
  385SOL    HW2 1166   0.709   1.874   2.370
  386SOL     OW 1167   1.281   2.207   2.806
  386SOL    HW1 1168   1.195   2.157   2.793
  386SOL    HW2 1169   1.343   2.153   2.862
  387SOL     OW 1170   1.041   2.563   2.291
  387SOL    HW1 1171   1.067   2.559   2.387
  387SOL    HW2 1172   0.956   2.512   2.277
  388SOL     OW 1173   0.076   2.673   2.651
  388SOL    HW1 1174   0.175   2.661   2.660
  388SOL    HW2 1175   0.052   2.768   2.672
  389SOL     OW 1176   0.865   2.210   2.057
  389SOL    HW1 1177   0.924   2.273   2.008
  389SOL    HW2 1178   0.884   2.116   2.028
  390SOL     OW 1179   1.400   1.969   2.288
  390SOL    HW1 1180   1.376   1.932   2.198
  390SOL    HW2 1181   1.499   1.985   2.292
  391SOL     OW 1182   0.382   2.562   2.342
  391SOL    HW1 1183   0.427   2.472   2.339
  391SOL    HW2 1184   0.288   2.551   2.375
  392SOL     OW 1185   0.614   1.984   1.979
  392SOL    HW1 1186   0.712   1.962   1.986
  392SOL    HW2 1187   0.583   1.967   1.886
  393SOL     OW 1188   0.539   1.926   2.374
  393SOL    HW1 1189   0.458   1.927   2.432
  393SOL    HW2 1190   0.542   2.009   2.319
  394SOL     OW 1191   0.297   1.897   2.033
  394SOL    HW1 1192   0.346   1.981   2.012
  394SOL    HW2 1193   0.359   1.832   2.078
  395SOL     OW 1194   0.935   2.098   2.342
  395SOL    HW1 1195   0.887   2.139   2.264
  395SOL    HW2 1196   1.034   2.096   2.323
  396SOL     OW 1197   1.032   2.411   1.878
  396SOL    HW1 1198   0.991   2.493   1.839
  396SOL    HW2 1199   1.096   2.437   1.951
  397SOL     OW 1200   0.866   2.316   2.504
  397SOL    HW1 1201   0.834   2.388   2.442
  397SOL    HW2 1202   0.890   2.235   2.451
  398SOL     OW 1203   1.390   2.437   1.940
  398SOL    HW1 1204   1.336   2.416   2.021
  398SOL    HW2 1205   1.481   2.396   1.949
  399SOL     OW 1206   0.527   2.118   2.190
  399SOL    HW1 1207   0.554   2.059   2.115
  399SOL    HW2 1208   0.527   2.213   2.159
  400SOL     OW 1209   1.582   2.501   2.334
  400SOL    HW1 1210   1.551   2.562   2.407
  400SOL    HW2 1211   1.632   2.553   2.265
  401SOL     OW 1212   1.209   2.387   2.137
  401SOL    HW1 1213   1.222   2.303   2.191
  401SOL    HW2 1214   1.180   2.461   2.197
  402SOL     OW 1215   0.307   1.925   2.480
  402SOL    HW1 1216   0.296   2.019   2.513
  402SOL    HW2 1217   0.302   1.862   2.557
  403SOL     OW 1218   1.622   2.229   2.236
  403SOL    HW1 1219   1.624   2.153   2.300
  403SOL    HW2 1220   1.574   2.306   2.276
  404SOL     OW 1221   1.540   2.136   1.987
  404SOL    HW1 1222   1.479   2.061   2.010
  404SOL    HW2 1223   1.562   2.188   2.070
  405SOL     OW 1224   0.815   2.434   2.187
  405SOL    HW1 1225   0.822   2.345   2.141
  405SOL    HW2 1226   0.721   2.468   2.179
  406SOL     OW 1227   0.473   2.362   2.053
  406SOL    HW1 1228   0.534   2.442   2.057
  406SOL    HW2 1229   0.378   2.393   2.060
  407SOL     OW 1230   1.726   1.997   2.385
  407SOL    HW1 1231   1.799   1.980   2.318
  407SOL    HW2 1232   1.695   1.910   2.423
  408SOL     OW 1233   1.280   2.789   2.534
  408SOL    HW1 1234   1.340   2.708   2.536
  408SOL    HW2 1235   1.320   2.858   2.474
  409SOL     OW 1236   1.841   2.037   2.825
  409SOL    HW1 1237   1.880   1.952   2.789
  409SOL    HW2 1238   1.743   2.039   2.806
  410SOL     OW 1239   0.075   2.207   1.895
  410SOL    HW1 1240  -0.017   2.179   1.866
  410SOL    HW2 1241   0.106   2.284   1.839
  411SOL     OW 1242   0.072   2.028   2.180
  411SOL    HW1 1243   0.055   2.111   2.126
  411SOL    HW2 1244   0.162   1.991   2.158
  412SOL     OW 1245   1.225   2.187   2.311
  412SOL    HW1 1246   1.290   2.113   2.300
  412SOL    HW2 1247   1.245   2.237   2.395
  413SOL     OW 1248   1.083   2.846   1.949
  413SOL    HW1 1249   1.060   2.899   1.867
  413SOL    HW2 1250   1.164   2.790   1.930
  414SOL     OW 1251   0.428   2.286   2.382
  414SOL    HW1 1252   0.458   2.214   2.320
  414SOL    HW2 1253   0.389   2.246   2.465
  415SOL     OW 1254   1.352   1.914   2.030
  415SOL    HW1 1255   1.387   1.873   1.946
  415SOL    HW2 1256   1.262   1.876   2.050
  416SOL     OW 1257   1.300   2.315   2.553
  416SOL    HW1 1258   1.241   2.395   2.557
  416SOL    HW2 1259   1.315   2.280   2.646
  417SOL     OW 1260   2.092   0.628   0.113
  417SOL    HW1 1261   1.999   0.626   0.150
  417SOL    HW2 1262   2.093   0.589   0.021
  418SOL     OW 1263   2.087   0.275   0.996
  418SOL    HW1 1264   2.122   0.258   1.088
  418SOL    HW2 1265   1.999   0.230   0.984
  419SOL     OW 1266   1.881   0.368   0.647
  419SOL    HW1 1267   1.799   0.411   0.686
  419SOL    HW2 1268   1.853   0.295   0.584
  420SOL     OW 1269   2.431   1.275   1.165
  420SOL    HW1 1270   2.338   1.268   1.128
  420SOL    HW2 1271   2.442   1.364   1.209
  421SOL     OW 1272   2.712   0.798   1.823
  421SOL    HW1 1273   2.708   0.874   1.888
  421SOL    HW2 1274   2.734   0.834   1.732
  422SOL     OW 1275   2.547   1.012   0.665
  422SOL    HW1 1276   2.616   0.996   0.735
  422SOL    HW2 1277   2.474   1.069   0.703
  423SOL     OW 1278   2.548   1.161   1.803
  423SOL    HW1 1279   2.608   1.240   1.817
  423SOL    HW2 1280   2.462   1.192   1.762
  424SOL     OW 1281   2.197   1.435   1.061
  424SOL    HW1 1282   2.119   1.404   1.008
  424SOL    HW2 1283   2.255   1.493   1.004
  425SOL     OW 1284   2.300   0.392   1.499
  425SOL    HW1 1285   2.382   0.336   1.508
  425SOL    HW2 1286   2.219   0.334   1.503
  426SOL     OW 1287   2.093   1.713   0.483
  426SOL    HW1 1288   2.127   1.790   0.537
  426SOL    HW2 1289   2.137   1.713   0.393
  427SOL     OW 1290   2.092   1.434   0.538
  427SOL    HW1 1291   2.066   1.530   0.538
  427SOL    HW2 1292   2.021   1.380   0.583
  428SOL     OW 1293   2.102   1.091   0.886
  428SOL    HW1 1294   2.116   1.007   0.938
  428SOL    HW2 1295   2.047   1.155   0.941
  429SOL     OW 1296   2.482   1.786   1.439
  429SOL    HW1 1297   2.390   1.769   1.474
  429SOL    HW2 1298   2.510   1.878   1.465
  430SOL     OW 1299   2.468   0.964   0.123
  430SOL    HW1 1300   2.475   1.048   0.069
  430SOL    HW2 1301   2.514   0.977   0.211
  431SOL     OW 1302   1.984   0.643   0.563
  431SOL    HW1 1303   1.939   0.555   0.580
  431SOL    HW2 1304   1.983   0.697   0.647
  432SOL     OW 1305   1.889   1.596   0.117
  432SOL    HW1 1306   1.870   1.500   0.138
  432SOL    HW2 1307   1.856   1.654   0.192
  433SOL     OW 1308   1.975   0.737   1.597
  433SOL    HW1 1309   2.063   0.724   1.642
  433SOL    HW2 1310   1.962   0.834   1.575
  434SOL     OW 1311   2.475   1.365   0.726
  434SOL    HW1 1312   2.426   1.278   0.735
  434SOL    HW2 1313   2.452   1.408   0.639
  435SOL     OW 1314   2.059   0.976   1.264
  435SOL    HW1 1315   2.148   0.931   1.250
  435SOL    HW2 1316   1.986   0.911   1.245
  436SOL     OW 1317   2.179   0.251   1.801
  436SOL    HW1 1318   2.250   0.322   1.807
  436SOL    HW2 1319   2.091   0.290   1.829
  437SOL     OW 1320   2.460   0.729   0.270
  437SOL    HW1 1321   2.484   0.798   0.202
  437SOL    HW2 1322   2.382   0.762   0.324
  438SOL     OW 1323   1.938   0.811   0.789
  438SOL    HW1 1324   2.037   0.799   0.798
  438SOL    HW2 1325   1.914   0.906   0.810
  439SOL     OW 1326   1.992   1.821   1.571
  439SOL    HW1 1327   1.982   1.806   1.670
  439SOL    HW2 1328   1.906   1.857   1.535
  440SOL     OW 1329   2.412   0.196   0.885
  440SOL    HW1 1330   2.407   0.191   0.985
  440SOL    HW2 1331   2.414   0.292   0.856
  441SOL     OW 1332   2.213   1.801   0.853
  441SOL    HW1 1333   2.263   1.715   0.859
  441SOL    HW2 1334   2.278   1.878   0.850
  442SOL     OW 1335   2.183   0.943   0.242
  442SOL    HW1 1336   2.265   0.982   0.200
  442SOL    HW2 1337   2.156   0.861   0.193
  443SOL     OW 1338   2.323   1.266   1.727
  443SOL    HW1 1339   2.273   1.267   1.641
  443SOL    HW2 1340   2.260   1.248   1.803
  444SOL     OW 1341   2.064   0.285   1.498
  444SOL    HW1 1342   1.984   0.345   1.485
  444SOL    HW2 1343   2.054   0.236   1.584
  445SOL     OW 1344   2.326   1.743   0.323
  445SOL    HW1 1345   2.359   1.782   0.409
  445SOL    HW2 1346   2.402   1.736   0.258
  446SOL     OW 1347   2.111   1.785   1.241
  446SOL    HW1 1348   2.168   1.720   1.291
  446SOL    HW2 1349   2.095   1.752   1.148
  447SOL     OW 1350   2.244   0.700   0.480
  447SOL    HW1 1351   2.289   0.610   0.477
  447SOL    HW2 1352   2.150   0.689   0.513
  448SOL     OW 1353   2.476   0.122   0.117
  448SOL    HW1 1354   2.574   0.100   0.124
  448SOL    HW2 1355   2.445   0.105   0.024
  449SOL     OW 1356   2.665   1.402   0.924
  449SOL    HW1 1357   2.755   1.416   0.882
  449SOL    HW2 1358   2.594   1.404   0.853
  450SOL     OW 1359   2.401   0.064   0.512
  450SOL    HW1 1360   2.320   0.065   0.570
  450SOL    HW2 1361   2.404   0.147   0.457
  451SOL     OW 1362   2.159   0.035   0.171
  451SOL    HW1 1363   2.208   0.119   0.150
  451SOL    HW2 1364   2.221  -0.030   0.216
  452SOL     OW 1365   2.938   0.683   1.464
  452SOL    HW1 1366   2.858   0.622   1.467
  452SOL    HW2 1367   3.019   0.630   1.440
  453SOL     OW 1368   2.321   1.152   0.741
  453SOL    HW1 1369   2.250   1.125   0.806
  453SOL    HW2 1370   2.295   1.124   0.648
  454SOL     OW 1371   1.940   0.556   1.386
  454SOL    HW1 1372   2.032   0.555   1.345
  454SOL    HW2 1373   1.934   0.630   1.453
  455SOL     OW 1374   2.423   0.222   1.147
  455SOL    HW1 1375   2.461   0.138   1.184
  455SOL    HW2 1376   2.335   0.241   1.191
  456SOL     OW 1377   2.350   1.385   0.174
  456SOL    HW1 1378   2.263   1.370   0.221
  456SOL    HW2 1379   2.333   1.411   0.079
  457SOL     OW 1380   2.389   0.256   0.328
  457SOL    HW1 1381   2.416   0.197   0.253
  457SOL    HW2 1382   2.389   0.351   0.297
  458SOL     OW 1383   2.272   0.813   1.251
  458SOL    HW1 1384   2.358   0.825   1.301
  458SOL    HW2 1385   2.230   0.726   1.278
  459SOL     OW 1386   1.926   1.564   1.331
  459SOL    HW1 1387   1.880   1.646   1.297
  459SOL    HW2 1388   2.024   1.583   1.340
  460SOL     OW 1389   2.229   1.100   0.501
  460SOL    HW1 1390   2.222   1.183   0.445
  460SOL    HW2 1391   2.233   1.020   0.441
  461SOL     OW 1392   2.428   0.537   0.865
  461SOL    HW1 1393   2.440   0.603   0.791
  461SOL    HW2 1394   2.474   0.571   0.948
  462SOL     OW 1395   2.216   1.510   1.329
  462SOL    HW1 1396   2.195   1.466   1.242
  462SOL    HW2 1397   2.313   1.536   1.332
  463SOL     OW 1398   2.264   0.751   1.598
  463SOL    HW1 1399   2.332   0.806   1.551
  463SOL    HW2 1400   2.304   0.663   1.625
  464SOL     OW 1401   2.366   0.050   1.740
  464SOL    HW1 1402   2.324  -0.007   1.670
  464SOL    HW2 1403   2.300   0.119   1.772
  465SOL     OW 1404   2.435   0.870   1.029
  465SOL    HW1 1405   2.479   0.959   1.020
  465SOL    HW2 1406   2.372   0.870   1.106
  466SOL     OW 1407   2.169   0.213   1.231
  466SOL    HW1 1408   2.146   0.250   1.321
  466SOL    HW2 1409   2.139   0.118   1.225
  467SOL     OW 1410   1.899   1.310   1.282
  467SOL    HW1 1411   1.952   1.261   1.350
  467SOL    HW2 1412   1.921   1.408   1.287
  468SOL     OW 1413   2.169   0.063   0.618
  468SOL    HW1 1414   2.158   0.157   0.651
  468SOL    HW2 1415   2.164   0.000   0.695
  469SOL     OW 1416   2.212   0.898   1.804
  469SOL    HW1 1417   2.288   0.942   1.852
  469SOL    HW2 1418   2.247   0.851   1.722
  470SOL     OW 1419   2.181   0.810   0.949
  470SOL    HW1 1420   2.274   0.846   0.954
  470SOL    HW2 1421   2.175   0.725   1.001
  471SOL     OW 1422   2.201   0.509   1.006
  471SOL    HW1 1423   2.149   0.426   0.989
  471SOL    HW2 1424   2.278   0.514   0.942
  472SOL     OW 1425   1.870   1.326   0.200
  472SOL    HW1 1426   1.777   1.347   0.169
  472SOL    HW2 1427   1.880   1.227   0.213
  473SOL     OW 1428   1.950   1.801   0.927
  473SOL    HW1 1429   1.908   1.715   0.900
  473SOL    HW2 1430   2.044   1.804   0.893
  474SOL     OW 1431   2.366   1.568   0.910
  474SOL    HW1 1432   2.432   1.642   0.919
  474SOL    HW2 1433   2.410   1.489   0.868
  475SOL     OW 1434   1.902   0.544   1.114
  475SOL    HW1 1435   1.987   0.511   1.073
  475SOL    HW2 1436   1.915   0.559   1.212
  476SOL     OW 1437   2.051   0.520   1.722
  476SOL    HW1 1438   2.110   0.480   1.652
  476SOL    HW2 1439   1.993   0.591   1.681
  477SOL     OW 1440   2.677   0.572   0.325
  477SOL    HW1 1441   2.684   0.483   0.279
  477SOL    HW2 1442   2.583   0.606   0.317
  478SOL     OW 1443   2.114   1.564   1.744
  478SOL    HW1 1444   2.084   1.621   1.820
  478SOL    HW2 1445   2.107   1.467   1.770
  479SOL     OW 1446   2.335   0.500   0.191
  479SOL    HW1 1447   2.396   0.580   0.195
  479SOL    HW2 1448   2.240   0.531   0.198
  480SOL     OW 1449   2.021   1.137   1.466
  480SOL    HW1 1450   2.043   1.076   1.542
  480SOL    HW2 1451   2.031   1.088   1.380
  481SOL     OW 1452   1.945   1.258   1.022
  481SOL    HW1 1453   1.940   1.257   1.122
  481SOL    HW2 1454   1.862   1.217   0.984
  482SOL     OW 1455   2.550   1.662   1.716
  482SOL    HW1 1456   2.494   1.743   1.725
  482SOL    HW2 1457   2.602   1.666   1.630
  483SOL     OW 1458   1.992   1.794   1.851
  483SOL    HW1 1459   1.951   1.720   1.904
  483SOL    HW2 1460   2.056   1.845   1.909
  484SOL     OW 1461   2.125   0.326   0.720
  484SOL    HW1 1462   2.046   0.377   0.686
  484SOL    HW2 1463   2.116   0.311   0.818
  485SOL     OW 1464   2.234   1.288   1.490
  485SOL    HW1 1465   2.221   1.381   1.456
  485SOL    HW2 1466   2.150   1.236   1.477
  486SOL     OW 1467   2.452   1.487   0.491
  486SOL    HW1 1468   2.494   1.429   0.421
  486SOL    HW2 1469   2.408   1.566   0.447
  487SOL     OW 1470   2.117   1.348   0.290
  487SOL    HW1 1471   2.021   1.349   0.263
  487SOL    HW2 1472   2.129   1.401   0.374
  488SOL     OW 1473   1.967   1.013   1.726
  488SOL    HW1 1474   1.890   0.980   1.780
  488SOL    HW2 1475   2.052   0.983   1.768
  489SOL     OW 1476   2.534   0.203   1.489
  489SOL    HW1 1477   2.624   0.187   1.449
  489SOL    HW2 1478   2.542   0.208   1.588
  490SOL     OW 1479   1.937   0.345   0.033
  490SOL    HW1 1480   1.845   0.317   0.004
  490SOL    HW2 1481   1.968   0.422  -0.023
  491SOL     OW 1482   2.475   0.842   1.431
  491SOL    HW1 1483   2.531   0.923   1.414
  491SOL    HW2 1484   2.534   0.762   1.434
  492SOL     OW 1485   2.578   0.565   1.708
  492SOL    HW1 1486   2.597   0.630   1.782
  492SOL    HW2 1487   2.638   0.485   1.717
  493SOL     OW 1488   2.252   1.741   1.560
  493SOL    HW1 1489   2.161   1.782   1.558
  493SOL    HW2 1490   2.245   1.647   1.592
  494SOL     OW 1491   2.456   0.745   0.652
  494SOL    HW1 1492   2.506   0.830   0.633
  494SOL    HW2 1493   2.368   0.747   0.604
  495SOL     OW 1494   2.083   1.314   1.844
  495SOL    HW1 1495   2.018   1.241   1.823
  495SOL    HW2 1496   2.087   1.328   1.942
  496SOL     OW 1497   1.941   1.240   0.653
  496SOL    HW1 1498   1.940   1.193   0.741
  496SOL    HW2 1499   2.023   1.212   0.602
  497SOL     OW 1500   2.534   1.391   1.624
  497SOL    HW1 1501   2.456   1.341   1.662
  497SOL    HW2 1502   2.531   1.486   1.655
  498SOL     OW 1503   2.290   0.424   0.520
  498SOL    HW1 1504   2.320   0.352   0.458
  498SOL    HW2 1505   2.251   0.384   0.603
  499SOL     OW 1506   2.179   0.547   1.280
  499SOL    HW1 1507   2.217   0.488   1.352
  499SOL    HW2 1508   2.219   0.521   1.192
  500SOL     OW 1509   2.674   1.586   0.687
  500SOL    HW1 1510   2.706   1.596   0.593
  500SOL    HW2 1511   2.595   1.524   0.689
  501SOL     OW 1512   1.901   1.077   0.300
  501SOL    HW1 1513   2.000   1.066   0.291
  501SOL    HW2 1514   1.861   0.991   0.332
  502SOL     OW 1515   2.092   0.628   1.975
  502SOL    HW1 1516   1.999   0.626   2.012
  502SOL    HW2 1517   2.093   0.589   1.883
  503SOL     OW 1518   2.087   0.275   2.858
  503SOL    HW1 1519   2.122   0.258   2.950
  503SOL    HW2 1520   1.999   0.230   2.846
  504SOL     OW 1521   2.547   1.012   2.527
  504SOL    HW1 1522   2.616   0.996   2.597
  504SOL    HW2 1523   2.474   1.069   2.565
  505SOL     OW 1524   2.093   1.713   2.345
  505SOL    HW1 1525   2.127   1.790   2.399
  505SOL    HW2 1526   2.137   1.713   2.255
  506SOL     OW 1527   2.092   1.434   2.400
  506SOL    HW1 1528   2.066   1.530   2.400
  506SOL    HW2 1529   2.021   1.380   2.445
  507SOL     OW 1530   2.468   0.964   1.985
  507SOL    HW1 1531   2.475   1.048   1.931
  507SOL    HW2 1532   2.514   0.977   2.073
  508SOL     OW 1533   1.984   0.643   2.425
  508SOL    HW1 1534   1.939   0.555   2.442
  508SOL    HW2 1535   1.983   0.697   2.509
  509SOL     OW 1536   1.889   1.596   1.979
  509SOL    HW1 1537   1.870   1.500   2.000
  509SOL    HW2 1538   1.856   1.654   2.054
  510SOL     OW 1539   2.475   1.365   2.588
  510SOL    HW1 1540   2.426   1.278   2.597
  510SOL    HW2 1541   2.452   1.408   2.501
  511SOL     OW 1542   2.460   0.729   2.132
  511SOL    HW1 1543   2.484   0.798   2.064
  511SOL    HW2 1544   2.382   0.762   2.186
  512SOL     OW 1545   1.938   0.811   2.651
  512SOL    HW1 1546   2.037   0.799   2.660
  512SOL    HW2 1547   1.914   0.906   2.672
  513SOL     OW 1548   2.213   1.801   2.715
  513SOL    HW1 1549   2.263   1.715   2.721
  513SOL    HW2 1550   2.278   1.878   2.712
  514SOL     OW 1551   2.183   0.943   2.104
  514SOL    HW1 1552   2.265   0.982   2.062
  514SOL    HW2 1553   2.156   0.861   2.055
  515SOL     OW 1554   2.326   1.743   2.185
  515SOL    HW1 1555   2.359   1.782   2.271
  515SOL    HW2 1556   2.402   1.736   2.120
  516SOL     OW 1557   2.244   0.700   2.342
  516SOL    HW1 1558   2.289   0.610   2.339
  516SOL    HW2 1559   2.150   0.689   2.375
  517SOL     OW 1560   2.476   0.122   1.979
  517SOL    HW1 1561   2.574   0.100   1.986
  517SOL    HW2 1562   2.445   0.105   1.886
  518SOL     OW 1563   2.401   0.064   2.374
  518SOL    HW1 1564   2.320   0.065   2.432
  518SOL    HW2 1565   2.404   0.147   2.319
  519SOL     OW 1566   2.159   0.035   2.033
  519SOL    HW1 1567   2.208   0.119   2.012
  519SOL    HW2 1568   2.221  -0.030   2.078
  520SOL     OW 1569   2.321   1.152   2.603
  520SOL    HW1 1570   2.250   1.125   2.668
  520SOL    HW2 1571   2.295   1.124   2.510
  521SOL     OW 1572   2.350   1.385   2.036
  521SOL    HW1 1573   2.263   1.370   2.083
  521SOL    HW2 1574   2.333   1.411   1.941
  522SOL     OW 1575   2.389   0.256   2.190
  522SOL    HW1 1576   2.416   0.197   2.115
  522SOL    HW2 1577   2.389   0.351   2.159
  523SOL     OW 1578   2.229   1.100   2.363
  523SOL    HW1 1579   2.222   1.183   2.307
  523SOL    HW2 1580   2.233   1.020   2.303
  524SOL     OW 1581   2.169   0.063   2.480
  524SOL    HW1 1582   2.158   0.157   2.513
  524SOL    HW2 1583   2.164   0.000   2.557
  525SOL     OW 1584   1.870   1.326   2.062
  525SOL    HW1 1585   1.777   1.347   2.031
  525SOL    HW2 1586   1.880   1.227   2.075
  526SOL     OW 1587   2.677   0.572   2.187
  526SOL    HW1 1588   2.684   0.483   2.141
  526SOL    HW2 1589   2.583   0.606   2.179
  527SOL     OW 1590   2.335   0.500   2.053
  527SOL    HW1 1591   2.396   0.580   2.057
  527SOL    HW2 1592   2.240   0.531   2.060
  528SOL     OW 1593   2.901   1.098   2.558
  528SOL    HW1 1594   2.831   1.051   2.612
  528SOL    HW2 1595   2.960   1.030   2.515
  529SOL     OW 1596   2.452   1.487   2.353
  529SOL    HW1 1597   2.494   1.429   2.283
  529SOL    HW2 1598   2.408   1.566   2.309
  530SOL     OW 1599   2.117   1.348   2.152
  530SOL    HW1 1600   2.021   1.349   2.125
  530SOL    HW2 1601   2.129   1.401   2.236
  531SOL     OW 1602   1.937   0.345   1.895
  531SOL    HW1 1603   1.845   0.317   1.866
  531SOL    HW2 1604   1.968   0.422   1.839
  532SOL     OW 1605   1.934   0.166   2.180
  532SOL    HW1 1606   1.917   0.249   2.126
  532SOL    HW2 1607   2.024   0.129   2.158
  533SOL     OW 1608   2.456   0.745   2.514
  533SOL    HW1 1609   2.506   0.830   2.495
  533SOL    HW2 1610   2.368   0.747   2.466
  534SOL     OW 1611   1.941   1.240   2.515
  534SOL    HW1 1612   1.940   1.193   2.603
  534SOL    HW2 1613   2.023   1.212   2.464
  535SOL     OW 1614   2.290   0.424   2.382
  535SOL    HW1 1615   2.320   0.352   2.320
  535SOL    HW2 1616   2.251   0.384   2.465
  536SOL     OW 1617   2.674   1.586   2.549
  536SOL    HW1 1618   2.706   1.596   2.455
  536SOL    HW2 1619   2.595   1.524   2.551
  537SOL     OW 1620   1.901   1.077   2.162
  537SOL    HW1 1621   2.000   1.066   2.153
  537SOL    HW2 1622   1.861   0.991   2.194
  538SOL     OW 1623   2.092   2.490   0.113
  538SOL    HW1 1624   1.999   2.488   0.150
  538SOL    HW2 1625   2.093   2.451   0.021
  539SOL     OW 1626   2.087   2.137   0.996
  539SOL    HW1 1627   2.122   2.120   1.088
  539SOL    HW2 1628   1.999   2.092   0.984
  540SOL     OW 1629   1.881   2.230   0.647
  540SOL    HW1 1630   1.799   2.273   0.686
  540SOL    HW2 1631   1.853   2.157   0.584
  541SOL     OW 1632   2.712   2.660   1.823
  541SOL    HW1 1633   2.708   2.736   1.888
  541SOL    HW2 1634   2.734   2.696   1.732
  542SOL     OW 1635   2.300   2.254   1.499
  542SOL    HW1 1636   2.382   2.198   1.508
  542SOL    HW2 1637   2.219   2.196   1.503
  543SOL     OW 1638   1.984   2.505   0.563
  543SOL    HW1 1639   1.939   2.417   0.580
  543SOL    HW2 1640   1.983   2.559   0.647
  544SOL     OW 1641   1.975   2.599   1.597
  544SOL    HW1 1642   2.063   2.586   1.642
  544SOL    HW2 1643   1.962   2.696   1.575
  545SOL     OW 1644   2.671   1.866   0.502
  545SOL    HW1 1645   2.711   1.957   0.493
  545SOL    HW2 1646   2.571   1.874   0.508
  546SOL     OW 1647   2.179   2.113   1.801
  546SOL    HW1 1648   2.250   2.184   1.807
  546SOL    HW2 1649   2.091   2.152   1.829
  547SOL     OW 1650   2.412   2.058   0.885
  547SOL    HW1 1651   2.407   2.053   0.985
  547SOL    HW2 1652   2.414   2.154   0.856
  548SOL     OW 1653   2.064   2.147   1.498
  548SOL    HW1 1654   1.984   2.207   1.485
  548SOL    HW2 1655   2.054   2.098   1.584
  549SOL     OW 1656   2.244   2.562   0.480
  549SOL    HW1 1657   2.289   2.472   0.477
  549SOL    HW2 1658   2.150   2.551   0.513
  550SOL     OW 1659   2.476   1.984   0.117
  550SOL    HW1 1660   2.574   1.962   0.124
  550SOL    HW2 1661   2.445   1.967   0.024
  551SOL     OW 1662   2.401   1.926   0.512
  551SOL    HW1 1663   2.320   1.927   0.570
  551SOL    HW2 1664   2.404   2.009   0.457
  552SOL     OW 1665   2.938   2.545   1.464
  552SOL    HW1 1666   2.858   2.484   1.467
  552SOL    HW2 1667   3.019   2.492   1.440
  553SOL     OW 1668   1.940   2.418   1.386
  553SOL    HW1 1669   2.032   2.417   1.345
  553SOL    HW2 1670   1.934   2.492   1.453
  554SOL     OW 1671   2.423   2.084   1.147
  554SOL    HW1 1672   2.461   2.000   1.184
  554SOL    HW2 1673   2.335   2.103   1.191
  555SOL     OW 1674   2.389   2.118   0.328
  555SOL    HW1 1675   2.416   2.059   0.253
  555SOL    HW2 1676   2.389   2.213   0.297
  556SOL     OW 1677   2.272   2.675   1.251
  556SOL    HW1 1678   2.358   2.687   1.301
  556SOL    HW2 1679   2.230   2.588   1.278
  557SOL     OW 1680   2.428   2.399   0.865
  557SOL    HW1 1681   2.440   2.465   0.791
  557SOL    HW2 1682   2.474   2.433   0.948
  558SOL     OW 1683   2.366   1.912   1.740
  558SOL    HW1 1684   2.324   1.855   1.670
  558SOL    HW2 1685   2.300   1.981   1.772
  559SOL     OW 1686   2.169   2.075   1.231
  559SOL    HW1 1687   2.146   2.112   1.321
  559SOL    HW2 1688   2.139   1.980   1.225
  560SOL     OW 1689   2.169   1.925   0.618
  560SOL    HW1 1690   2.158   2.019   0.651
  560SOL    HW2 1691   2.164   1.862   0.695
  561SOL     OW 1692   2.181   2.672   0.949
  561SOL    HW1 1693   2.274   2.708   0.954
  561SOL    HW2 1694   2.175   2.587   1.001
  562SOL     OW 1695   2.201   2.371   1.006
  562SOL    HW1 1696   2.149   2.288   0.989
  562SOL    HW2 1697   2.278   2.376   0.942
  563SOL     OW 1698   1.902   2.406   1.114
  563SOL    HW1 1699   1.987   2.373   1.073
  563SOL    HW2 1700   1.915   2.421   1.212
  564SOL     OW 1701   2.051   2.382   1.722
  564SOL    HW1 1702   2.110   2.342   1.652
  564SOL    HW2 1703   1.993   2.453   1.681
  565SOL     OW 1704   2.677   2.434   0.325
  565SOL    HW1 1705   2.684   2.345   0.279
  565SOL    HW2 1706   2.583   2.468   0.317
  566SOL     OW 1707   2.335   2.362   0.191
  566SOL    HW1 1708   2.396   2.442   0.195
  566SOL    HW2 1709   2.240   2.393   0.198
  567SOL     OW 1710   2.125   2.188   0.720
  567SOL    HW1 1711   2.046   2.239   0.686
  567SOL    HW2 1712   2.116   2.173   0.818
  568SOL     OW 1713   2.534   2.065   1.489
  568SOL    HW1 1714   2.624   2.049   1.449
  568SOL    HW2 1715   2.542   2.070   1.588
  569SOL     OW 1716   1.937   2.207   0.033
  569SOL    HW1 1717   1.845   2.179   0.004
  569SOL    HW2 1718   1.968   2.284  -0.023
  570SOL     OW 1719   2.578   2.427   1.708
  570SOL    HW1 1720   2.597   2.492   1.782
  570SOL    HW2 1721   2.638   2.347   1.717
  571SOL     OW 1722   2.290   2.286   0.520
  571SOL    HW1 1723   2.320   2.214   0.458
  571SOL    HW2 1724   2.251   2.246   0.603
  572SOL     OW 1725   2.179   2.409   1.280
  572SOL    HW1 1726   2.217   2.350   1.352
  572SOL    HW2 1727   2.219   2.383   1.192
  573SOL     OW 1728   2.092   2.490   1.975
  573SOL    HW1 1729   1.999   2.488   2.012
  573SOL    HW2 1730   2.093   2.451   1.883
  574SOL     OW 1731   2.087   2.137   2.858
  574SOL    HW1 1732   2.122   2.120   2.950
  574SOL    HW2 1733   1.999   2.092   2.846
  575SOL     OW 1734   1.984   2.505   2.425
  575SOL    HW1 1735   1.939   2.417   2.442
  575SOL    HW2 1736   1.983   2.559   2.509
  576SOL     OW 1737   2.671   1.866   2.364
  576SOL    HW1 1738   2.711   1.957   2.355
  576SOL    HW2 1739   2.571   1.874   2.370
  577SOL     OW 1740   2.244   2.562   2.342
  577SOL    HW1 1741   2.289   2.472   2.339
  577SOL    HW2 1742   2.150   2.551   2.375
  578SOL     OW 1743   2.476   1.984   1.979
  578SOL    HW1 1744   2.574   1.962   1.986
  578SOL    HW2 1745   2.445   1.967   1.886
  579SOL     OW 1746   2.401   1.926   2.374
  579SOL    HW1 1747   2.320   1.927   2.432
  579SOL    HW2 1748   2.404   2.009   2.319
  580SOL     OW 1749   2.159   1.897   2.033
  580SOL    HW1 1750   2.208   1.981   2.012
  580SOL    HW2 1751   2.221   1.832   2.078
  581SOL     OW 1752   2.389   2.118   2.190
  581SOL    HW1 1753   2.416   2.059   2.115
  581SOL    HW2 1754   2.389   2.213   2.159
  582SOL     OW 1755   2.169   1.925   2.480
  582SOL    HW1 1756   2.158   2.019   2.513
  582SOL    HW2 1757   2.164   1.862   2.557
  583SOL     OW 1758   2.677   2.434   2.187
  583SOL    HW1 1759   2.684   2.345   2.141
  583SOL    HW2 1760   2.583   2.468   2.179
  584SOL     OW 1761   2.335   2.362   2.053
  584SOL    HW1 1762   2.396   2.442   2.057
  584SOL    HW2 1763   2.240   2.393   2.060
  585SOL     OW 1764   1.937   2.207   1.895
  585SOL    HW1 1765   1.845   2.179   1.866
  585SOL    HW2 1766   1.968   2.284   1.839
  586SOL     OW 1767   1.934   2.028   2.180
  586SOL    HW1 1768   1.917   2.111   2.126
  586SOL    HW2 1769   2.024   1.991   2.158
  587SOL     OW 1770   2.290   2.286   2.382
  587SOL    HW1 1771   2.320   2.214   2.320
  587SOL    HW2 1772   2.251   2.246   2.465
   2.63622   2.63622   2.63622
