; mobley_5157661_GMX.itp created by acpype (v: 2023.10.27) on Thu May 14 13:53:20 2026

[ atomtypes ]
;name   bond_type     mass     charge   ptype   sigma         epsilon       Amb
 c3       c3          0.00000  0.00000   A     3.39771e-01   4.51035e-01 ; 1.91  0.1078
 hc       hc          0.00000  0.00000   A     2.60018e-01   8.70272e-02 ; 1.46  0.0208

[ moleculetype ]
;name            nrexcl
 mobley_5157661   3

[ atoms ]
;   nr  type  resi  res  atom  cgnr     charge      mass       ; qtot   bond_type
     1   c3     1   MOL    C1    1    -0.090766     12.01000 ; qtot -0.091
     2   hc     1   MOL    H1    2     0.033033      1.00800 ; qtot -0.058
     3   hc     1   MOL    H2    3     0.033033      1.00800 ; qtot -0.025
     4   hc     1   MOL    H3    4     0.033033      1.00800 ; qtot 0.008
     5   c3     1   MOL    C4    5    -0.069700     12.01000 ; qtot -0.061
     6   hc     1   MOL    H5    6     0.044700      1.00800 ; qtot -0.017
     7   c3     1   MOL    C3    7    -0.090766     12.01000 ; qtot -0.107
     8   hc     1   MOL    H6    8     0.033033      1.00800 ; qtot -0.074
     9   hc     1   MOL    H7    9     0.033033      1.00800 ; qtot -0.041
    10   hc     1   MOL    H8   10     0.033033      1.00800 ; qtot -0.008
    11   c3     1   MOL    C2   11    -0.090766     12.01000 ; qtot -0.099
    12   hc     1   MOL    H9   12     0.033033      1.00800 ; qtot -0.066
    13   hc     1   MOL   H10   13     0.033033      1.00800 ; qtot -0.033
    14   hc     1   MOL    H4   14     0.033033      1.00800 ; qtot 0.000

[ bonds ]
;   ai     aj funct   r             k
     1      2   1    1.0962e-01    2.8891e+05 ;     C1 - H1    
     1      3   1    1.0962e-01    2.8891e+05 ;     C1 - H2    
     1      4   1    1.0962e-01    2.8891e+05 ;     C1 - H3    
     1      5   1    1.5354e-01    1.9154e+05 ;     C1 - C4    
     5      6   1    1.0962e-01    2.8891e+05 ;     C4 - H5    
     5      7   1    1.5354e-01    1.9154e+05 ;     C4 - C3    
     5     11   1    1.5354e-01    1.9154e+05 ;     C4 - C2    
     7      8   1    1.0962e-01    2.8891e+05 ;     C3 - H6    
     7      9   1    1.0962e-01    2.8891e+05 ;     C3 - H7    
     7     10   1    1.0962e-01    2.8891e+05 ;     C3 - H8    
    11     12   1    1.0962e-01    2.8891e+05 ;     C2 - H9    
    11     13   1    1.0962e-01    2.8891e+05 ;     C2 - H10   
    11     14   1    1.0962e-01    2.8891e+05 ;     C2 - H4    

[ pairs ]
;   ai     aj    funct
     1      8      1 ;     C1 - H6    
     1      9      1 ;     C1 - H7    
     1     10      1 ;     C1 - H8    
     1     12      1 ;     C1 - H9    
     1     13      1 ;     C1 - H10   
     1     14      1 ;     C1 - H4    
     2      6      1 ;     H1 - H5    
     2      7      1 ;     H1 - C3    
     2     11      1 ;     H1 - C2    
     3      6      1 ;     H2 - H5    
     3      7      1 ;     H2 - C3    
     3     11      1 ;     H2 - C2    
     4      6      1 ;     H3 - H5    
     4      7      1 ;     H3 - C3    
     4     11      1 ;     H3 - C2    
     6      8      1 ;     H5 - H6    
     6      9      1 ;     H5 - H7    
     6     10      1 ;     H5 - H8    
     6     12      1 ;     H5 - H9    
     6     13      1 ;     H5 - H10   
     6     14      1 ;     H5 - H4    
     7     12      1 ;     C3 - H9    
     7     13      1 ;     C3 - H10   
     7     14      1 ;     C3 - H4    
     8     11      1 ;     H6 - C2    
     9     11      1 ;     H7 - C2    
    10     11      1 ;     H8 - C2    

[ angles ]
;   ai     aj     ak    funct   theta         cth
     1      5      6      1    1.0968e+02    3.6208e+02 ;     C1 - C4     - H5    
     1      5      7      1    1.1263e+02    5.0099e+02 ;     C1 - C4     - C3    
     1      5     11      1    1.1263e+02    5.0099e+02 ;     C1 - C4     - C2    
     2      1      3      1    1.0773e+02    2.9957e+02 ;     H1 - C1     - H2    
     2      1      4      1    1.0773e+02    2.9957e+02 ;     H1 - C1     - H3    
     2      1      5      1    1.0968e+02    3.6208e+02 ;     H1 - C1     - C4    
     3      1      4      1    1.0773e+02    2.9957e+02 ;     H2 - C1     - H3    
     3      1      5      1    1.0968e+02    3.6208e+02 ;     H2 - C1     - C4    
     4      1      5      1    1.0968e+02    3.6208e+02 ;     H3 - C1     - C4    
     5      7      8      1    1.0968e+02    3.6208e+02 ;     C4 - C3     - H6    
     5      7      9      1    1.0968e+02    3.6208e+02 ;     C4 - C3     - H7    
     5      7     10      1    1.0968e+02    3.6208e+02 ;     C4 - C3     - H8    
     5     11     12      1    1.0968e+02    3.6208e+02 ;     C4 - C2     - H9    
     5     11     13      1    1.0968e+02    3.6208e+02 ;     C4 - C2     - H10   
     5     11     14      1    1.0968e+02    3.6208e+02 ;     C4 - C2     - H4    
     6      5      7      1    1.0968e+02    3.6208e+02 ;     H5 - C4     - C3    
     6      5     11      1    1.0968e+02    3.6208e+02 ;     H5 - C4     - C2    
     7      5     11      1    1.1263e+02    5.0099e+02 ;     C3 - C4     - C2    
     8      7      9      1    1.0773e+02    2.9957e+02 ;     H6 - C3     - H7    
     8      7     10      1    1.0773e+02    2.9957e+02 ;     H6 - C3     - H8    
     9      7     10      1    1.0773e+02    2.9957e+02 ;     H7 - C3     - H8    
    12     11     13      1    1.0773e+02    2.9957e+02 ;     H9 - C2     - H10   
    12     11     14      1    1.0773e+02    2.9957e+02 ;     H9 - C2     - H4    
    13     11     14      1    1.0773e+02    2.9957e+02 ;    H10 - C2     - H4    

[ dihedrals ] ; propers
; for gromacs 4.5 or higher, using funct 9
;    i      j      k      l   func   phase     kd      pn
     1      5      7      8      9     0.00   0.54392   3 ;     C1-    C4-    C3-    H6
     1      5      7      9      9     0.00   0.54392   3 ;     C1-    C4-    C3-    H7
     1      5      7     10      9     0.00   0.54392   3 ;     C1-    C4-    C3-    H8
     1      5     11     12      9     0.00   0.54392   3 ;     C1-    C4-    C2-    H9
     1      5     11     13      9     0.00   0.54392   3 ;     C1-    C4-    C2-   H10
     1      5     11     14      9     0.00   0.54392   3 ;     C1-    C4-    C2-    H4
     2      1      5      6      9     0.00   0.50208   3 ;     H1-    C1-    C4-    H5
     2      1      5      7      9     0.00   0.54392   3 ;     H1-    C1-    C4-    C3
     2      1      5     11      9     0.00   0.54392   3 ;     H1-    C1-    C4-    C2
     3      1      5      6      9     0.00   0.50208   3 ;     H2-    C1-    C4-    H5
     3      1      5      7      9     0.00   0.54392   3 ;     H2-    C1-    C4-    C3
     3      1      5     11      9     0.00   0.54392   3 ;     H2-    C1-    C4-    C2
     4      1      5      6      9     0.00   0.50208   3 ;     H3-    C1-    C4-    H5
     4      1      5      7      9     0.00   0.54392   3 ;     H3-    C1-    C4-    C3
     4      1      5     11      9     0.00   0.54392   3 ;     H3-    C1-    C4-    C2
     6      5      7      8      9     0.00   0.50208   3 ;     H5-    C4-    C3-    H6
     6      5      7      9      9     0.00   0.50208   3 ;     H5-    C4-    C3-    H7
     6      5      7     10      9     0.00   0.50208   3 ;     H5-    C4-    C3-    H8
     6      5     11     12      9     0.00   0.50208   3 ;     H5-    C4-    C2-    H9
     6      5     11     13      9     0.00   0.50208   3 ;     H5-    C4-    C2-   H10
     6      5     11     14      9     0.00   0.50208   3 ;     H5-    C4-    C2-    H4
     7      5     11     12      9     0.00   0.54392   3 ;     C3-    C4-    C2-    H9
     7      5     11     13      9     0.00   0.54392   3 ;     C3-    C4-    C2-   H10
     7      5     11     14      9     0.00   0.54392   3 ;     C3-    C4-    C2-    H4
     8      7      5     11      9     0.00   0.54392   3 ;     H6-    C3-    C4-    C2
     9      7      5     11      9     0.00   0.54392   3 ;     H7-    C3-    C4-    C2
    10      7      5     11      9     0.00   0.54392   3 ;     H8-    C3-    C4-    C2
