mobley_1563176_GMX.gro created by acpype (v: 2023.10.27) on Thu May 14 13:18:12 2026
 1716
    1MOL     C1    1   1.353   1.457   1.432
    1MOL     C2    2   1.353   1.325   1.357
    1MOL     C3    3   1.230   1.313   1.266
    1MOL     C4    4   1.219   1.178   1.195
    1MOL     S1    5   1.359   1.144   1.084
    1MOL     H1    6   1.441   1.464   1.497
    1MOL     H2    7   1.264   1.466   1.495
    1MOL     H3    8   1.355   1.542   1.363
    1MOL     H4    9   1.354   1.243   1.429
    1MOL     H5   10   1.445   1.318   1.298
    1MOL     H6   11   1.229   1.394   1.193
    1MOL     H7   12   1.140   1.326   1.327
    1MOL     H8   13   1.213   1.096   1.269
    1MOL     H9   14   1.128   1.175   1.135
    1MOL    H10   15   1.377   1.017   1.121
    2SOL     OW   16   0.230   0.628   0.113
    2SOL    HW1   17   0.137   0.626   0.150
    2SOL    HW2   18   0.231   0.589   0.021
    3SOL     OW   19   0.225   0.275   0.996
    3SOL    HW1   20   0.260   0.258   1.088
    3SOL    HW2   21   0.137   0.230   0.984
    4SOL     OW   22   0.019   0.368   0.647
    4SOL    HW1   23  -0.063   0.411   0.686
    4SOL    HW2   24  -0.009   0.295   0.584
    5SOL     OW   25   0.569   1.275   1.165
    5SOL    HW1   26   0.476   1.268   1.128
    5SOL    HW2   27   0.580   1.364   1.209
    6SOL     OW   28   1.555   1.511   0.703
    6SOL    HW1   29   1.498   1.495   0.784
    6SOL    HW2   30   1.496   1.521   0.623
    7SOL     OW   31   1.135   0.703   0.717
    7SOL    HW1   32   1.192   0.781   0.692
    7SOL    HW2   33   1.075   0.729   0.793
    8SOL     OW   34   1.755   0.607   0.231
    8SOL    HW1   35   1.743   0.594   0.132
    8SOL    HW2   36   1.725   0.526   0.280
    9SOL     OW   37   0.768   1.144   1.023
    9SOL    HW1   38   0.690   1.161   1.083
    9SOL    HW2   39   0.802   1.231   0.987
   10SOL     OW   40   0.850   0.798   1.823
   10SOL    HW1   41   0.846   0.874   1.888
   10SOL    HW2   42   0.872   0.834   1.732
   11SOL     OW   43   0.685   1.012   0.665
   11SOL    HW1   44   0.754   0.996   0.735
   11SOL    HW2   45   0.612   1.069   0.703
   12SOL     OW   46   0.686   1.161   1.803
   12SOL    HW1   47   0.746   1.240   1.817
   12SOL    HW2   48   0.600   1.192   1.762
   13SOL     OW   49   0.335   1.435   1.061
   13SOL    HW1   50   0.257   1.404   1.008
   13SOL    HW2   51   0.393   1.493   1.004
   14SOL     OW   52   0.438   0.392   1.499
   14SOL    HW1   53   0.520   0.336   1.508
   14SOL    HW2   54   0.357   0.334   1.503
   15SOL     OW   55   1.603   0.447   0.737
   15SOL    HW1   56   1.529   0.493   0.687
   15SOL    HW2   57   1.654   0.515   0.790
   16SOL     OW   58   0.231   1.713   0.483
   16SOL    HW1   59   0.265   1.790   0.537
   16SOL    HW2   60   0.275   1.713   0.393
   17SOL     OW   61   1.127   1.341   1.690
   17SOL    HW1   62   1.174   1.341   1.778
   17SOL    HW2   63   1.079   1.254   1.679
   18SOL     OW   64   0.230   1.434   0.538
   18SOL    HW1   65   0.204   1.530   0.538
   18SOL    HW2   66   0.159   1.380   0.583
   19SOL     OW   67   0.240   1.091   0.886
   19SOL    HW1   68   0.254   1.007   0.938
   19SOL    HW2   69   0.185   1.155   0.941
   20SOL     OW   70   0.620   1.786   1.439
   20SOL    HW1   71   0.528   1.769   1.474
   20SOL    HW2   72   0.648   1.878   1.465
   21SOL     OW   73   0.606   0.964   0.123
   21SOL    HW1   74   0.613   1.048   0.069
   21SOL    HW2   75   0.652   0.977   0.211
   22SOL     OW   76   1.594   0.114   1.480
   22SOL    HW1   77   1.576   0.181   1.408
   22SOL    HW2   78   1.591   0.160   1.569
   23SOL     OW   79   0.122   0.643   0.563
   23SOL    HW1   80   0.077   0.555   0.580
   23SOL    HW2   81   0.121   0.697   0.647
   24SOL     OW   82   1.842   1.767   0.359
   24SOL    HW1   83   1.896   1.738   0.439
   24SOL    HW2   84   1.872   1.857   0.330
   25SOL     OW   85   0.027   1.596   0.117
   25SOL    HW1   86   0.008   1.500   0.138
   25SOL    HW2   87  -0.006   1.654   0.192
   26SOL     OW   88   1.689   0.922   0.612
   26SOL    HW1   89   1.784   0.893   0.620
   26SOL    HW2   90   1.681   0.987   0.537
   27SOL     OW   91   1.641   1.108   0.432
   27SOL    HW1   92   1.727   1.110   0.380
   27SOL    HW2   93   1.655   1.155   0.520
   28SOL     OW   94   0.113   0.737   1.597
   28SOL    HW1   95   0.201   0.724   1.642
   28SOL    HW2   96   0.100   0.834   1.575
   29SOL     OW   97   0.613   1.365   0.726
   29SOL    HW1   98   0.564   1.278   0.735
   29SOL    HW2   99   0.590   1.408   0.639
   30SOL     OW  100   0.809   0.004   0.502
   30SOL    HW1  101   0.849   0.095   0.493
   30SOL    HW2  102   0.709   0.012   0.508
   31SOL     OW  103   0.197   0.976   1.264
   31SOL    HW1  104   0.286   0.931   1.250
   31SOL    HW2  105   0.124   0.911   1.245
   32SOL     OW  106   1.525   0.999   0.190
   32SOL    HW1  107   1.462   0.923   0.203
   32SOL    HW2  108   1.573   1.017   0.276
   33SOL     OW  109   1.187   1.792   1.616
   33SOL    HW1  110   1.211   1.852   1.540
   33SOL    HW2  111   1.194   1.697   1.586
   34SOL     OW  112   0.317   0.251   1.801
   34SOL    HW1  113   0.388   0.322   1.807
   34SOL    HW2  114   0.229   0.290   1.829
   35SOL     OW  115   1.466   1.417   0.953
   35SOL    HW1  116   1.407   1.423   1.033
   35SOL    HW2  117   1.451   1.329   0.907
   36SOL     OW  118   1.667   1.714   0.572
   36SOL    HW1  119   1.626   1.691   0.484
   36SOL    HW2  120   1.649   1.640   0.637
   37SOL     OW  121   0.598   0.729   0.270
   37SOL    HW1  122   0.622   0.798   0.202
   37SOL    HW2  123   0.520   0.762   0.324
   38SOL     OW  124   1.281   0.345   0.944
   38SOL    HW1  125   1.195   0.295   0.931
   38SOL    HW2  126   1.343   0.291   1.000
   39SOL     OW  127   1.576   1.662   0.307
   39SOL    HW1  128   1.665   1.708   0.310
   39SOL    HW2  129   1.555   1.638   0.212
   40SOL     OW  130   0.807   0.605   1.465
   40SOL    HW1  131   0.760   0.602   1.554
   40SOL    HW2  132   0.756   0.550   1.399
   41SOL     OW  133   1.394   0.469   1.674
   41SOL    HW1  134   1.374   0.512   1.762
   41SOL    HW2  135   1.472   0.407   1.683
   42SOL     OW  136   0.973   0.890   1.572
   42SOL    HW1  137   1.019   0.806   1.543
   42SOL    HW2  138   0.917   0.924   1.497
   43SOL     OW  139   0.991   0.410   1.242
   43SOL    HW1  140   0.914   0.444   1.296
   43SOL    HW2  141   0.957   0.359   1.163
   44SOL     OW  142   1.041   0.701   0.429
   44SOL    HW1  143   1.067   0.697   0.525
   44SOL    HW2  144   0.956   0.650   0.415
   45SOL     OW  145   0.076   0.811   0.789
   45SOL    HW1  146   0.175   0.799   0.798
   45SOL    HW2  147   0.052   0.906   0.810
   46SOL     OW  148   0.130   1.821   1.571
   46SOL    HW1  149   0.120   1.806   1.670
   46SOL    HW2  150   0.044   1.857   1.535
   47SOL     OW  151   0.865   0.348   0.195
   47SOL    HW1  152   0.924   0.411   0.146
   47SOL    HW2  153   0.884   0.254   0.166
   48SOL     OW  154   1.719   0.585   1.831
   48SOL    HW1  155   1.693   0.674   1.795
   48SOL    HW2  156   1.717   0.517   1.758
   49SOL     OW  157   1.362   1.144   0.545
   49SOL    HW1  158   1.445   1.115   0.497
   49SOL    HW2  159   1.313   1.211   0.489
   50SOL     OW  160   0.550   0.196   0.885
   50SOL    HW1  161   0.545   0.191   0.985
   50SOL    HW2  162   0.552   0.292   0.856
   51SOL     OW  163   1.008   1.456   0.477
   51SOL    HW1  164   0.962   1.528   0.425
   51SOL    HW2  165   1.004   1.476   0.575
   52SOL     OW  166   0.351   1.801   0.853
   52SOL    HW1  167   0.401   1.715   0.859
   52SOL    HW2  168   0.416   1.878   0.850
   53SOL     OW  169   1.795   1.066   0.873
   53SOL    HW1  170   1.733   1.051   0.797
   53SOL    HW2  171   1.743   1.077   0.958
   54SOL     OW  172   0.321   0.943   0.242
   54SOL    HW1  173   0.403   0.982   0.200
   54SOL    HW2  174   0.294   0.861   0.193
   55SOL     OW  175   1.458   0.735   0.728
   55SOL    HW1  176   1.453   0.670   0.803
   55SOL    HW2  177   1.538   0.794   0.741
   56SOL     OW  178   0.461   1.266   1.727
   56SOL    HW1  179   0.411   1.267   1.641
   56SOL    HW2  180   0.398   1.248   1.803
   57SOL     OW  181   1.111   1.776   0.237
   57SOL    HW1  182   1.051   1.714   0.287
   57SOL    HW2  183   1.142   1.732   0.152
   58SOL     OW  184   0.202   0.285   1.498
   58SOL    HW1  185   0.122   0.345   1.485
   58SOL    HW2  186   0.192   0.236   1.584
   59SOL     OW  187   1.632   1.377   0.081
   59SOL    HW1  188   1.600   1.471   0.071
   59SOL    HW2  189   1.556   1.314   0.069
   60SOL     OW  190   0.464   1.743   0.323
   60SOL    HW1  191   0.497   1.782   0.409
   60SOL    HW2  192   0.540   1.736   0.258
   61SOL     OW  193   1.400   0.107   0.426
   61SOL    HW1  194   1.376   0.070   0.336
   61SOL    HW2  195   1.499   0.123   0.430
   62SOL     OW  196   0.249   1.785   1.241
   62SOL    HW1  197   0.306   1.720   1.291
   62SOL    HW2  198   0.233   1.752   1.148
   63SOL     OW  199   0.940   1.698   0.904
   63SOL    HW1  200   1.020   1.641   0.925
   63SOL    HW2  201   0.891   1.658   0.827
   64SOL     OW  202   0.382   0.700   0.480
   64SOL    HW1  203   0.427   0.610   0.477
   64SOL    HW2  204   0.288   0.689   0.513
   65SOL     OW  205   1.547   0.222   1.729
   65SOL    HW1  206   1.542   0.259   1.821
   65SOL    HW2  207   1.475   0.153   1.717
   66SOL     OW  208   0.614   0.122   0.117
   66SOL    HW1  209   0.712   0.100   0.124
   66SOL    HW2  210   0.583   0.105   0.024
   67SOL     OW  211   0.781   0.264   1.749
   67SOL    HW1  212   0.848   0.203   1.792
   67SOL    HW2  213   0.708   0.283   1.814
   68SOL     OW  214   0.888   1.514   1.195
   68SOL    HW1  215   0.865   1.489   1.101
   68SOL    HW2  216   0.949   1.445   1.234
   69SOL     OW  217   1.351   0.590   1.433
   69SOL    HW1  218   1.379   0.547   1.518
   69SOL    HW2  219   1.376   0.686   1.434
   70SOL     OW  220   0.803   1.402   0.924
   70SOL    HW1  221   0.893   1.416   0.882
   70SOL    HW2  222   0.732   1.404   0.853
   71SOL     OW  223   0.922   0.503   0.899
   71SOL    HW1  224   0.897   0.494   0.803
   71SOL    HW2  225   0.970   0.421   0.930
   72SOL     OW  226   0.539   0.064   0.512
   72SOL    HW1  227   0.458   0.065   0.570
   72SOL    HW2  228   0.542   0.147   0.457
   73SOL     OW  229   1.434   1.188   0.041
   73SOL    HW1  230   1.466   1.112   0.098
   73SOL    HW2  231   1.342   1.215   0.071
   74SOL     OW  232   0.297   0.035   0.171
   74SOL    HW1  233   0.346   0.119   0.150
   74SOL    HW2  234   0.359  -0.030   0.216
   75SOL     OW  235   0.935   0.236   0.480
   75SOL    HW1  236   0.887   0.277   0.402
   75SOL    HW2  237   1.034   0.234   0.461
   76SOL     OW  238   1.076   0.683   1.464
   76SOL    HW1  239   0.996   0.622   1.467
   76SOL    HW2  240   1.157   0.630   1.440
   77SOL     OW  241   1.227   1.570   0.793
   77SOL    HW1  242   1.248   1.644   0.728
   77SOL    HW2  243   1.295   1.570   0.866
   78SOL     OW  244   0.459   1.152   0.741
   78SOL    HW1  245   0.388   1.125   0.806
   78SOL    HW2  246   0.433   1.124   0.648
   79SOL     OW  247   1.271   1.797   0.591
   79SOL    HW1  248   1.315   1.861   0.527
   79SOL    HW2  249   1.221   1.849   0.661
   80SOL     OW  250   1.032   0.549   0.016
   80SOL    HW1  251   0.991   0.631  -0.023
   80SOL    HW2  252   1.096   0.575   0.089
   81SOL     OW  253   0.078   0.556   1.386
   81SOL    HW1  254   0.170   0.555   1.345
   81SOL    HW2  255   0.072   0.630   1.453
   82SOL     OW  256   0.561   0.222   1.147
   82SOL    HW1  257   0.599   0.138   1.184
   82SOL    HW2  258   0.473   0.241   1.191
   83SOL     OW  259   0.866   0.454   0.642
   83SOL    HW1  260   0.834   0.526   0.580
   83SOL    HW2  261   0.890   0.373   0.589
   84SOL     OW  262   1.017   0.039   0.753
   84SOL    HW1  263   0.945   0.044   0.684
   84SOL    HW2  264   0.993  -0.030   0.822
   85SOL     OW  265   1.429   1.173   0.867
   85SOL    HW1  266   1.374   1.089   0.860
   85SOL    HW2  267   1.455   1.202   0.775
   86SOL     OW  268   1.466   0.590   0.992
   86SOL    HW1  269   1.436   0.495   0.999
   86SOL    HW2  270   1.539   0.606   1.058
   87SOL     OW  271   1.857   0.833   0.377
   87SOL    HW1  272   1.899   0.769   0.441
   87SOL    HW2  273   1.819   0.782   0.299
   88SOL     OW  274   0.488   1.385   0.174
   88SOL    HW1  275   0.401   1.370   0.221
   88SOL    HW2  276   0.471   1.411   0.079
   89SOL     OW  277   1.664   1.280   0.657
   89SOL    HW1  278   1.763   1.288   0.671
   89SOL    HW2  279   1.619   1.364   0.688
   90SOL     OW  280   1.390   0.575   0.078
   90SOL    HW1  281   1.336   0.554   0.159
   90SOL    HW2  282   1.481   0.534   0.087
   91SOL     OW  283   0.527   0.256   0.328
   91SOL    HW1  284   0.554   0.197   0.253
   91SOL    HW2  285   0.527   0.351   0.297
   92SOL     OW  286   1.754   1.223   1.588
   92SOL    HW1  287   1.845   1.184   1.575
   92SOL    HW2  288   1.762   1.319   1.612
   93SOL     OW  289   1.592   1.629   1.625
   93SOL    HW1  290   1.619   1.663   1.535
   93SOL    HW2  291   1.671   1.591   1.671
   94SOL     OW  292   1.638   1.099   1.079
   94SOL    HW1  293   1.643   1.180   1.138
   94SOL    HW2  294   1.552   1.101   1.028
   95SOL     OW  295   0.915   0.089   1.402
   95SOL    HW1  296   0.940   0.069   1.307
   95SOL    HW2  297   0.987   0.145   1.444
   96SOL     OW  298   0.980   1.116   1.719
   96SOL    HW1  299   0.881   1.122   1.729
   96SOL    HW2  300   1.003   1.036   1.663
   97SOL     OW  301   0.705   1.050   0.368
   97SOL    HW1  302   0.691   1.057   0.467
   97SOL    HW2  303   0.789   0.999   0.350
   98SOL     OW  304   0.410   0.813   1.251
   98SOL    HW1  305   0.496   0.825   1.301
   98SOL    HW2  306   0.368   0.726   1.278
   99SOL     OW  307   1.274   0.386   1.262
   99SOL    HW1  308   1.295   0.460   1.326
   99SOL    HW2  309   1.185   0.403   1.219
  100SOL     OW  310   0.064   1.564   1.331
  100SOL    HW1  311   0.018   1.646   1.297
  100SOL    HW2  312   0.162   1.583   1.340
  101SOL     OW  313   0.367   1.100   0.501
  101SOL    HW1  314   0.360   1.183   0.445
  101SOL    HW2  315   0.371   1.020   0.441
  102SOL     OW  316   0.566   0.537   0.865
  102SOL    HW1  317   0.578   0.603   0.791
  102SOL    HW2  318   0.612   0.571   0.948
  103SOL     OW  319   1.252   1.348   0.388
  103SOL    HW1  320   1.302   1.425   0.428
  103SOL    HW2  321   1.157   1.350   0.420
  104SOL     OW  322   1.582   0.639   0.472
  104SOL    HW1  323   1.551   0.700   0.545
  104SOL    HW2  324   1.632   0.691   0.403
  105SOL     OW  325   0.354   1.510   1.329
  105SOL    HW1  326   0.333   1.466   1.242
  105SOL    HW2  327   0.451   1.536   1.332
  106SOL     OW  328   0.402   0.751   1.598
  106SOL    HW1  329   0.470   0.806   1.551
  106SOL    HW2  330   0.442   0.663   1.625
  107SOL     OW  331   1.587   0.779   1.670
  107SOL    HW1  332   1.495   0.817   1.665
  107SOL    HW2  333   1.647   0.826   1.605
  108SOL     OW  334   1.013   0.105   1.770
  108SOL    HW1  335   1.019   0.190   1.718
  108SOL    HW2  336   1.045   0.029   1.713
  109SOL     OW  337   0.504   0.050   1.740
  109SOL    HW1  338   0.462  -0.007   1.670
  109SOL    HW2  339   0.438   0.119   1.772
  110SOL     OW  340   0.573   0.870   1.029
  110SOL    HW1  341   0.617   0.959   1.020
  110SOL    HW2  342   0.510   0.870   1.106
  111SOL     OW  343   1.360   0.862   1.045
  111SOL    HW1  344   1.285   0.862   0.979
  111SOL    HW2  345   1.397   0.770   1.054
  112SOL     OW  346   1.209   0.525   0.275
  112SOL    HW1  347   1.222   0.441   0.329
  112SOL    HW2  348   1.180   0.599   0.335
  113SOL     OW  349   0.307   0.213   1.231
  113SOL    HW1  350   0.284   0.250   1.321
  113SOL    HW2  351   0.277   0.118   1.225
  114SOL     OW  352   0.037   1.310   1.282
  114SOL    HW1  353   0.090   1.261   1.350
  114SOL    HW2  354   0.059   1.408   1.287
  115SOL     OW  355   0.732   0.634   1.064
  115SOL    HW1  356   0.791   0.608   0.988
  115SOL    HW2  357   0.704   0.730   1.053
  116SOL     OW  358   1.728   0.935   1.854
  116SOL    HW1  359   1.682   0.928   1.765
  116SOL    HW2  360   1.666   0.979   1.920
  117SOL     OW  361   0.307   0.063   0.618
  117SOL    HW1  362   0.296   0.157   0.651
  117SOL    HW2  363   0.302   0.000   0.695
  118SOL     OW  364   1.622   0.367   0.374
  118SOL    HW1  365   1.624   0.291   0.438
  118SOL    HW2  366   1.574   0.444   0.414
  119SOL     OW  367   1.023   0.766   0.966
  119SOL    HW1  368   1.038   0.787   1.062
  119SOL    HW2  369   0.993   0.671   0.957
  120SOL     OW  370   0.980   1.573   1.700
  120SOL    HW1  371   0.960   1.617   1.612
  120SOL    HW2  372   1.019   1.482   1.684
  121SOL     OW  373   1.859   1.518   1.605
  121SOL    HW1  374   1.873   1.545   1.510
  121SOL    HW2  375   1.942   1.540   1.658
  122SOL     OW  376   0.350   0.898   1.804
  122SOL    HW1  377   0.426   0.942   1.852
  122SOL    HW2  378   0.385   0.851   1.722
  123SOL     OW  379   1.540   0.274   0.125
  123SOL    HW1  380   1.479   0.199   0.148
  123SOL    HW2  381   1.562   0.326   0.208
  124SOL     OW  382   1.303   0.838   0.042
  124SOL    HW1  383   1.337   0.745   0.057
  124SOL    HW2  384   1.321   0.865  -0.053
  125SOL     OW  385   1.068   1.333   0.849
  125SOL    HW1  386   1.075   1.249   0.794
  125SOL    HW2  387   1.130   1.402   0.813
  126SOL     OW  388   0.319   0.810   0.949
  126SOL    HW1  389   0.412   0.846   0.954
  126SOL    HW2  390   0.313   0.725   1.001
  127SOL     OW  391   0.339   0.509   1.006
  127SOL    HW1  392   0.287   0.426   0.989
  127SOL    HW2  393   0.416   0.514   0.942
  128SOL     OW  394   1.138   0.380   1.678
  128SOL    HW1  395   1.093   0.443   1.742
  128SOL    HW2  396   1.231   0.411   1.661
  129SOL     OW  397   1.160   0.207   1.477
  129SOL    HW1  398   1.160   0.271   1.554
  129SOL    HW2  399   1.188   0.255   1.394
  130SOL     OW  400   0.008   1.326   0.200
  130SOL    HW1  401  -0.085   1.347   0.169
  130SOL    HW2  402   0.018   1.227   0.213
  131SOL     OW  403   0.088   1.801   0.927
  131SOL    HW1  404   0.046   1.715   0.900
  131SOL    HW2  405   0.182   1.804   0.893
  132SOL     OW  406   0.504   1.568   0.910
  132SOL    HW1  407   0.570   1.642   0.919
  132SOL    HW2  408   0.548   1.489   0.868
  133SOL     OW  409   1.002   0.796   1.238
  133SOL    HW1  410   1.043   0.764   1.324
  133SOL    HW2  411   0.906   0.769   1.235
  134SOL     OW  412   0.040   0.544   1.114
  134SOL    HW1  413   0.125   0.511   1.073
  134SOL    HW2  414   0.053   0.559   1.212
  135SOL     OW  415   0.189   0.520   1.722
  135SOL    HW1  416   0.248   0.480   1.652
  135SOL    HW2  417   0.131   0.591   1.681
  136SOL     OW  418   1.369   0.950   1.660
  136SOL    HW1  419   1.408   1.039   1.680
  136SOL    HW2  420   1.379   0.930   1.563
  137SOL     OW  421   0.815   0.572   0.325
  137SOL    HW1  422   0.822   0.483   0.279
  137SOL    HW2  423   0.721   0.606   0.317
  138SOL     OW  424   1.657   0.604   1.206
  138SOL    HW1  425   1.619   0.535   1.268
  138SOL    HW2  426   1.739   0.568   1.162
  139SOL     OW  427   0.252   1.564   1.744
  139SOL    HW1  428   0.222   1.621   1.820
  139SOL    HW2  429   0.245   1.467   1.770
  140SOL     OW  430   0.671   0.464   1.269
  140SOL    HW1  431   0.637   0.375   1.239
  140SOL    HW2  432   0.697   0.518   1.189
  141SOL     OW  433   0.930   1.678   1.465
  141SOL    HW1  434   0.906   1.660   1.370
  141SOL    HW2  435   0.960   1.772   1.475
  142SOL     OW  436   0.473   0.500   0.191
  142SOL    HW1  437   0.534   0.580   0.195
  142SOL    HW2  438   0.378   0.531   0.198
  143SOL     OW  439   0.159   1.137   1.466
  143SOL    HW1  440   0.181   1.076   1.542
  143SOL    HW2  441   0.169   1.088   1.380
  144SOL     OW  442   1.302   0.855   0.309
  144SOL    HW1  443   1.216   0.824   0.351
  144SOL    HW2  444   1.298   0.841   0.210
  145SOL     OW  445   1.759   1.747   1.154
  145SOL    HW1  446   1.820   1.777   1.081
  145SOL    HW2  447   1.721   1.658   1.132
  146SOL     OW  448   1.252   1.731   1.128
  146SOL    HW1  449   1.336   1.736   1.074
  146SOL    HW2  450   1.229   1.635   1.146
  147SOL     OW  451   0.083   1.258   1.022
  147SOL    HW1  452   0.078   1.257   1.122
  147SOL    HW2  453   0.000   1.217   0.984
  148SOL     OW  454   0.688   1.662   1.716
  148SOL    HW1  455   0.632   1.743   1.725
  148SOL    HW2  456   0.740   1.666   1.630
  149SOL     OW  457   0.903   0.086   0.133
  149SOL    HW1  458   0.954   0.087   0.047
  149SOL    HW2  459   0.959   0.044   0.204
  150SOL     OW  460   1.726   0.135   0.523
  150SOL    HW1  461   1.799   0.118   0.456
  150SOL    HW2  462   1.695   0.048   0.561
  151SOL     OW  463   1.388   1.573   0.477
  151SOL    HW1  464   1.455   1.585   0.403
  151SOL    HW2  465   1.348   1.662   0.500
  152SOL     OW  466   0.130   1.794   1.851
  152SOL    HW1  467   0.089   1.720   1.904
  152SOL    HW2  468   0.194   1.845   1.909
  153SOL     OW  469   1.280   0.927   0.672
  153SOL    HW1  470   1.340   0.846   0.674
  153SOL    HW2  471   1.320   0.996   0.612
  154SOL     OW  472   0.830   1.273   1.422
  154SOL    HW1  473   0.825   1.306   1.517
  154SOL    HW2  474   0.744   1.292   1.376
  155SOL     OW  475   0.672   1.616   0.154
  155SOL    HW1  476   0.681   1.626   0.055
  155SOL    HW2  477   0.632   1.527   0.175
  156SOL     OW  478   1.650   1.720   1.394
  156SOL    HW1  479   1.703   1.730   1.310
  156SOL    HW2  480   1.623   1.810   1.428
  157SOL     OW  481   1.841   0.175   0.963
  157SOL    HW1  482   1.880   0.090   0.927
  157SOL    HW2  483   1.743   0.177   0.944
  158SOL     OW  484   0.263   0.326   0.720
  158SOL    HW1  485   0.184   0.377   0.686
  158SOL    HW2  486   0.254   0.311   0.818
  159SOL     OW  487   1.194   1.612   0.031
  159SOL    HW1  488   1.200   1.519   0.068
  159SOL    HW2  489   1.135   1.612  -0.049
  160SOL     OW  490   0.822   1.002   1.372
  160SOL    HW1  491   0.862   1.001   1.280
  160SOL    HW2  492   0.832   1.094   1.412
  161SOL     OW  493   0.916   0.910   0.291
  161SOL    HW1  494   0.979   0.948   0.223
  161SOL    HW2  495   0.956   0.827   0.330
  162SOL     OW  496   1.504   1.607   0.044
  162SOL    HW1  497   1.412   1.644   0.051
  162SOL    HW2  498   1.542   1.627  -0.046
  163SOL     OW  499   0.372   1.288   1.490
  163SOL    HW1  500   0.359   1.381   1.456
  163SOL    HW2  501   0.288   1.236   1.477
  164SOL     OW  502   1.039   1.098   0.696
  164SOL    HW1  503   0.969   1.051   0.750
  164SOL    HW2  504   1.098   1.030   0.653
  165SOL     OW  505   1.014   0.236   0.971
  165SOL    HW1  506   1.006   0.200   0.878
  165SOL    HW2  507   1.012   0.160   1.036
  166SOL     OW  508   0.590   1.487   0.491
  166SOL    HW1  509   0.632   1.429   0.421
  166SOL    HW2  510   0.546   1.566   0.447
  167SOL     OW  511   1.709   0.385   1.381
  167SOL    HW1  512   1.782   0.454   1.385
  167SOL    HW2  513   1.737   0.310   1.322
  168SOL     OW  514   0.255   1.348   0.290
  168SOL    HW1  515   0.159   1.349   0.263
  168SOL    HW2  516   0.267   1.401   0.374
  169SOL     OW  517   0.105   1.013   1.726
  169SOL    HW1  518   0.028   0.980   1.780
  169SOL    HW2  519   0.190   0.983   1.768
  170SOL     OW  520   0.672   0.203   1.489
  170SOL    HW1  521   0.762   0.187   1.449
  170SOL    HW2  522   0.680   0.208   1.588
  171SOL     OW  523   0.075   0.345   0.033
  171SOL    HW1  524  -0.017   0.317   0.004
  171SOL    HW2  525   0.106   0.422  -0.023
  172SOL     OW  526   1.440   0.856   1.398
  172SOL    HW1  527   1.383   0.908   1.335
  172SOL    HW2  528   1.536   0.868   1.374
  173SOL     OW  529   0.072   0.166   0.318
  173SOL    HW1  530   0.055   0.249   0.264
  173SOL    HW2  531   0.162   0.129   0.296
  174SOL     OW  532   1.183   1.335   0.119
  174SOL    HW1  533   1.084   1.324   0.121
  174SOL    HW2  534   1.217   1.350   0.212
  175SOL     OW  535   0.613   0.842   1.431
  175SOL    HW1  536   0.669   0.923   1.414
  175SOL    HW2  537   0.672   0.762   1.434
  176SOL     OW  538   1.493   1.767   0.959
  176SOL    HW1  539   1.526   1.831   0.890
  176SOL    HW2  540   1.559   1.761   1.034
  177SOL     OW  541   0.716   0.565   1.708
  177SOL    HW1  542   0.735   0.630   1.782
  177SOL    HW2  543   0.776   0.485   1.717
  178SOL     OW  544   1.450   1.220   1.633
  178SOL    HW1  545   1.441   1.210   1.732
  178SOL    HW2  546   1.546   1.213   1.607
  179SOL     OW  547   0.390   1.741   1.560
  179SOL    HW1  548   0.299   1.782   1.558
  179SOL    HW2  549   0.383   1.647   1.592
  180SOL     OW  550   1.674   0.883   1.254
  180SOL    HW1  551   1.647   0.794   1.217
  180SOL    HW2  552   1.675   0.951   1.181
  181SOL     OW  553   1.225   0.325   0.449
  181SOL    HW1  554   1.290   0.251   0.438
  181SOL    HW2  555   1.245   0.375   0.533
  182SOL     OW  556   0.594   0.745   0.652
  182SOL    HW1  557   0.644   0.830   0.633
  182SOL    HW2  558   0.506   0.747   0.604
  183SOL     OW  559   1.777   0.342   1.642
  183SOL    HW1  560   1.760   0.373   1.548
  183SOL    HW2  561   1.693   0.305   1.680
  184SOL     OW  562   1.730   0.934   1.517
  184SOL    HW1  563   1.768   1.025   1.532
  184SOL    HW2  564   1.722   0.917   1.418
  185SOL     OW  565   0.859   1.374   0.016
  185SOL    HW1  566   0.813   1.389   0.104
  185SOL    HW2  567   0.903   1.459  -0.014
  186SOL     OW  568   0.661   1.790   0.953
  186SOL    HW1  569   0.615   1.878   0.940
  186SOL    HW2  570   0.760   1.802   0.946
  187SOL     OW  571   0.859   0.956   0.861
  187SOL    HW1  572   0.913   0.887   0.909
  187SOL    HW2  573   0.827   1.025   0.927
  188SOL     OW  574   1.083   0.984   0.087
  188SOL    HW1  575   1.060   1.037   0.005
  188SOL    HW2  576   1.164   0.928   0.068
  189SOL     OW  577   1.861   1.569   0.851
  189SOL    HW1  578   1.790   1.557   0.781
  189SOL    HW2  579   1.862   1.490   0.911
  190SOL     OW  580   0.221   1.314   1.844
  190SOL    HW1  581   0.156   1.241   1.823
  190SOL    HW2  582   0.225   1.328   1.942
  191SOL     OW  583   0.079   1.240   0.653
  191SOL    HW1  584   0.078   1.193   0.741
  191SOL    HW2  585   0.161   1.212   0.602
  192SOL     OW  586   0.672   1.391   1.624
  192SOL    HW1  587   0.594   1.341   1.662
  192SOL    HW2  588   0.669   1.486   1.655
  193SOL     OW  589   1.824   0.192   1.227
  193SOL    HW1  590   1.820   0.102   1.271
  193SOL    HW2  591   1.827   0.181   1.128
  194SOL     OW  592   0.428   0.424   0.520
  194SOL    HW1  593   0.458   0.352   0.458
  194SOL    HW2  594   0.389   0.384   0.603
  195SOL     OW  595   1.705   1.487   1.104
  195SOL    HW1  596   1.612   1.462   1.077
  195SOL    HW2  597   1.731   1.437   1.186
  196SOL     OW  598   0.317   0.547   1.280
  196SOL    HW1  599   0.355   0.488   1.352
  196SOL    HW2  600   0.357   0.521   1.192
  197SOL     OW  601   0.812   1.586   0.687
  197SOL    HW1  602   0.844   1.596   0.593
  197SOL    HW2  603   0.733   1.524   0.689
  198SOL     OW  604   1.424   0.214   1.112
  198SOL    HW1  605   1.476   0.149   1.167
  198SOL    HW2  606   1.375   0.277   1.173
  199SOL     OW  607   1.001   0.034   1.154
  199SOL    HW1  608   0.938  -0.038   1.123
  199SOL    HW2  609   1.094  -0.002   1.154
  200SOL     OW  610   0.770   1.330   0.301
  200SOL    HW1  611   0.724   1.243   0.318
  200SOL    HW2  612   0.861   1.327   0.342
  201SOL     OW  613   0.618   1.567   1.284
  201SOL    HW1  614   0.613   1.649   1.341
  201SOL    HW2  615   0.707   1.564   1.239
  202SOL     OW  616   1.352   0.052   0.168
  202SOL    HW1  617   1.387   0.011   0.084
  202SOL    HW2  618   1.262   0.014   0.188
  203SOL     OW  619   1.300   0.453   0.691
  203SOL    HW1  620   1.241   0.533   0.695
  203SOL    HW2  621   1.315   0.418   0.784
  204SOL     OW  622   1.593   0.221   0.882
  204SOL    HW1  623   1.509   0.220   0.936
  204SOL    HW2  624   1.595   0.304   0.826
  205SOL     OW  625   0.039   1.077   0.300
  205SOL    HW1  626   0.138   1.066   0.291
  205SOL    HW2  627  -0.001   0.991   0.332
  206SOL     OW  628   0.875   1.646   0.337
  206SOL    HW1  629   0.798   1.611   0.283
  206SOL    HW2  630   0.843   1.717   0.399
  207SOL     OW  631   0.230   0.628   1.975
  207SOL    HW1  632   0.137   0.626   2.012
  207SOL    HW2  633   0.231   0.589   1.883
  208SOL     OW  634   1.755   0.607   2.093
  208SOL    HW1  635   1.743   0.594   1.994
  208SOL    HW2  636   1.725   0.526   2.142
  209SOL     OW  637   1.603   0.447   2.599
  209SOL    HW1  638   1.529   0.493   2.549
  209SOL    HW2  639   1.654   0.515   2.652
  210SOL     OW  640   0.231   1.713   2.345
  210SOL    HW1  641   0.265   1.790   2.399
  210SOL    HW2  642   0.275   1.713   2.255
  211SOL     OW  643   0.230   1.434   2.400
  211SOL    HW1  644   0.204   1.530   2.400
  211SOL    HW2  645   0.159   1.380   2.445
  212SOL     OW  646   0.606   0.964   1.985
  212SOL    HW1  647   0.613   1.048   1.931
  212SOL    HW2  648   0.652   0.977   2.073
  213SOL     OW  649   0.122   0.643   2.425
  213SOL    HW1  650   0.077   0.555   2.442
  213SOL    HW2  651   0.121   0.697   2.509
  214SOL     OW  652   1.842   1.767   2.221
  214SOL    HW1  653   1.896   1.738   2.301
  214SOL    HW2  654   1.872   1.857   2.192
  215SOL     OW  655   0.027   1.596   1.979
  215SOL    HW1  656   0.008   1.500   2.000
  215SOL    HW2  657  -0.006   1.654   2.054
  216SOL     OW  658   1.689   0.922   2.474
  216SOL    HW1  659   1.784   0.893   2.482
  216SOL    HW2  660   1.681   0.987   2.399
  217SOL     OW  661   1.641   1.108   2.294
  217SOL    HW1  662   1.727   1.110   2.242
  217SOL    HW2  663   1.655   1.155   2.382
  218SOL     OW  664   0.613   1.365   2.588
  218SOL    HW1  665   0.564   1.278   2.597
  218SOL    HW2  666   0.590   1.408   2.501
  219SOL     OW  667   0.809   0.004   2.364
  219SOL    HW1  668   0.849   0.095   2.355
  219SOL    HW2  669   0.709   0.012   2.370
  220SOL     OW  670   1.525   0.999   2.052
  220SOL    HW1  671   1.462   0.923   2.065
  220SOL    HW2  672   1.573   1.017   2.138
  221SOL     OW  673   1.466   1.417   2.815
  221SOL    HW1  674   1.407   1.423   2.895
  221SOL    HW2  675   1.451   1.329   2.769
  222SOL     OW  676   0.598   0.729   2.132
  222SOL    HW1  677   0.622   0.798   2.064
  222SOL    HW2  678   0.520   0.762   2.186
  223SOL     OW  679   1.281   0.345   2.806
  223SOL    HW1  680   1.195   0.295   2.793
  223SOL    HW2  681   1.343   0.291   2.862
  224SOL     OW  682   1.576   1.662   2.169
  224SOL    HW1  683   1.665   1.708   2.172
  224SOL    HW2  684   1.555   1.638   2.074
  225SOL     OW  685   1.041   0.701   2.291
  225SOL    HW1  686   1.067   0.697   2.387
  225SOL    HW2  687   0.956   0.650   2.277
  226SOL     OW  688   0.076   0.811   2.651
  226SOL    HW1  689   0.175   0.799   2.660
  226SOL    HW2  690   0.052   0.906   2.672
  227SOL     OW  691   0.865   0.348   2.057
  227SOL    HW1  692   0.924   0.411   2.008
  227SOL    HW2  693   0.884   0.254   2.028
  228SOL     OW  694   1.362   1.144   2.407
  228SOL    HW1  695   1.445   1.115   2.359
  228SOL    HW2  696   1.313   1.211   2.351
  229SOL     OW  697   1.008   1.456   2.339
  229SOL    HW1  698   0.962   1.528   2.287
  229SOL    HW2  699   1.004   1.476   2.437
  230SOL     OW  700   0.351   1.801   2.715
  230SOL    HW1  701   0.401   1.715   2.721
  230SOL    HW2  702   0.416   1.878   2.712
  231SOL     OW  703   1.795   1.066   2.735
  231SOL    HW1  704   1.733   1.051   2.659
  231SOL    HW2  705   1.743   1.077   2.820
  232SOL     OW  706   0.321   0.943   2.104
  232SOL    HW1  707   0.403   0.982   2.062
  232SOL    HW2  708   0.294   0.861   2.055
  233SOL     OW  709   1.111   1.776   2.099
  233SOL    HW1  710   1.051   1.714   2.149
  233SOL    HW2  711   1.142   1.732   2.014
  234SOL     OW  712   1.632   1.377   1.943
  234SOL    HW1  713   1.600   1.471   1.933
  234SOL    HW2  714   1.556   1.314   1.931
  235SOL     OW  715   0.464   1.743   2.185
  235SOL    HW1  716   0.497   1.782   2.271
  235SOL    HW2  717   0.540   1.736   2.120
  236SOL     OW  718   1.400   0.107   2.288
  236SOL    HW1  719   1.376   0.070   2.198
  236SOL    HW2  720   1.499   0.123   2.292
  237SOL     OW  721   0.382   0.700   2.342
  237SOL    HW1  722   0.427   0.610   2.339
  237SOL    HW2  723   0.288   0.689   2.375
  238SOL     OW  724   0.614   0.122   1.979
  238SOL    HW1  725   0.712   0.100   1.986
  238SOL    HW2  726   0.583   0.105   1.886
  239SOL     OW  727   0.539   0.064   2.374
  239SOL    HW1  728   0.458   0.065   2.432
  239SOL    HW2  729   0.542   0.147   2.319
  240SOL     OW  730   1.434   1.188   1.903
  240SOL    HW1  731   1.466   1.112   1.960
  240SOL    HW2  732   1.342   1.215   1.933
  241SOL     OW  733   0.297   0.035   2.033
  241SOL    HW1  734   0.346   0.119   2.012
  241SOL    HW2  735   0.359  -0.030   2.078
  242SOL     OW  736   0.935   0.236   2.342
  242SOL    HW1  737   0.887   0.277   2.264
  242SOL    HW2  738   1.034   0.234   2.323
  243SOL     OW  739   0.459   1.152   2.603
  243SOL    HW1  740   0.388   1.125   2.668
  243SOL    HW2  741   0.433   1.124   2.510
  244SOL     OW  742   1.271   1.797   2.453
  244SOL    HW1  743   1.315   1.861   2.389
  244SOL    HW2  744   1.221   1.849   2.523
  245SOL     OW  745   1.032   0.549   1.878
  245SOL    HW1  746   0.991   0.631   1.839
  245SOL    HW2  747   1.096   0.575   1.951
  246SOL     OW  748   0.866   0.454   2.504
  246SOL    HW1  749   0.834   0.526   2.442
  246SOL    HW2  750   0.890   0.373   2.451
  247SOL     OW  751   1.466   0.590   2.854
  247SOL    HW1  752   1.436   0.495   2.861
  247SOL    HW2  753   1.539   0.606   2.920
  248SOL     OW  754   1.857   0.833   2.239
  248SOL    HW1  755   1.899   0.769   2.303
  248SOL    HW2  756   1.819   0.782   2.161
  249SOL     OW  757   0.488   1.385   2.036
  249SOL    HW1  758   0.401   1.370   2.083
  249SOL    HW2  759   0.471   1.411   1.941
  250SOL     OW  760   1.390   0.575   1.940
  250SOL    HW1  761   1.336   0.554   2.021
  250SOL    HW2  762   1.481   0.534   1.949
  251SOL     OW  763   0.527   0.256   2.190
  251SOL    HW1  764   0.554   0.197   2.115
  251SOL    HW2  765   0.527   0.351   2.159
  252SOL     OW  766   0.705   1.050   2.230
  252SOL    HW1  767   0.691   1.057   2.329
  252SOL    HW2  768   0.789   0.999   2.212
  253SOL     OW  769   0.367   1.100   2.363
  253SOL    HW1  770   0.360   1.183   2.307
  253SOL    HW2  771   0.371   1.020   2.303
  254SOL     OW  772   1.252   1.348   2.250
  254SOL    HW1  773   1.302   1.425   2.290
  254SOL    HW2  774   1.157   1.350   2.282
  255SOL     OW  775   1.582   0.639   2.334
  255SOL    HW1  776   1.551   0.700   2.407
  255SOL    HW2  777   1.632   0.691   2.265
  256SOL     OW  778   1.209   0.525   2.137
  256SOL    HW1  779   1.222   0.441   2.191
  256SOL    HW2  780   1.180   0.599   2.197
  257SOL     OW  781   0.307   0.063   2.480
  257SOL    HW1  782   0.296   0.157   2.513
  257SOL    HW2  783   0.302   0.000   2.557
  258SOL     OW  784   1.622   0.367   2.236
  258SOL    HW1  785   1.624   0.291   2.300
  258SOL    HW2  786   1.574   0.444   2.276
  259SOL     OW  787   1.540   0.274   1.987
  259SOL    HW1  788   1.479   0.199   2.010
  259SOL    HW2  789   1.562   0.326   2.070
  260SOL     OW  790   1.303   0.838   1.904
  260SOL    HW1  791   1.337   0.745   1.919
  260SOL    HW2  792   1.321   0.865   1.809
  261SOL     OW  793   0.008   1.326   2.062
  261SOL    HW1  794  -0.085   1.347   2.031
  261SOL    HW2  795   0.018   1.227   2.075
  262SOL     OW  796   0.815   0.572   2.187
  262SOL    HW1  797   0.822   0.483   2.141
  262SOL    HW2  798   0.721   0.606   2.179
  263SOL     OW  799   0.473   0.500   2.053
  263SOL    HW1  800   0.534   0.580   2.057
  263SOL    HW2  801   0.378   0.531   2.060
  264SOL     OW  802   1.302   0.855   2.171
  264SOL    HW1  803   1.216   0.824   2.213
  264SOL    HW2  804   1.298   0.841   2.072
  265SOL     OW  805   1.726   0.135   2.385
  265SOL    HW1  806   1.799   0.118   2.318
  265SOL    HW2  807   1.695   0.048   2.423
  266SOL     OW  808   1.388   1.573   2.339
  266SOL    HW1  809   1.455   1.585   2.265
  266SOL    HW2  810   1.348   1.662   2.362
  267SOL     OW  811   0.672   1.616   2.016
  267SOL    HW1  812   0.681   1.626   1.917
  267SOL    HW2  813   0.632   1.527   2.037
  268SOL     OW  814   1.841   0.175   2.825
  268SOL    HW1  815   1.880   0.090   2.789
  268SOL    HW2  816   1.743   0.177   2.806
  269SOL     OW  817   1.194   1.612   1.893
  269SOL    HW1  818   1.200   1.519   1.930
  269SOL    HW2  819   1.135   1.612   1.813
  270SOL     OW  820   0.916   0.910   2.153
  270SOL    HW1  821   0.979   0.948   2.085
  270SOL    HW2  822   0.956   0.827   2.192
  271SOL     OW  823   1.504   1.607   1.906
  271SOL    HW1  824   1.412   1.644   1.913
  271SOL    HW2  825   1.542   1.627   1.816
  272SOL     OW  826   0.590   1.487   2.353
  272SOL    HW1  827   0.632   1.429   2.283
  272SOL    HW2  828   0.546   1.566   2.309
  273SOL     OW  829   0.255   1.348   2.152
  273SOL    HW1  830   0.159   1.349   2.125
  273SOL    HW2  831   0.267   1.401   2.236
  274SOL     OW  832   0.075   0.345   1.895
  274SOL    HW1  833  -0.017   0.317   1.866
  274SOL    HW2  834   0.106   0.422   1.839
  275SOL     OW  835   0.072   0.166   2.180
  275SOL    HW1  836   0.055   0.249   2.126
  275SOL    HW2  837   0.162   0.129   2.158
  276SOL     OW  838   1.183   1.335   1.981
  276SOL    HW1  839   1.084   1.324   1.983
  276SOL    HW2  840   1.217   1.350   2.074
  277SOL     OW  841   1.225   0.325   2.311
  277SOL    HW1  842   1.290   0.251   2.300
  277SOL    HW2  843   1.245   0.375   2.395
  278SOL     OW  844   0.594   0.745   2.514
  278SOL    HW1  845   0.644   0.830   2.495
  278SOL    HW2  846   0.506   0.747   2.466
  279SOL     OW  847   0.859   1.374   1.878
  279SOL    HW1  848   0.813   1.389   1.966
  279SOL    HW2  849   0.903   1.459   1.848
  280SOL     OW  850   1.083   0.984   1.949
  280SOL    HW1  851   1.060   1.037   1.867
  280SOL    HW2  852   1.164   0.928   1.930
  281SOL     OW  853   0.079   1.240   2.515
  281SOL    HW1  854   0.078   1.193   2.603
  281SOL    HW2  855   0.161   1.212   2.464
  282SOL     OW  856   0.428   0.424   2.382
  282SOL    HW1  857   0.458   0.352   2.320
  282SOL    HW2  858   0.389   0.384   2.465
  283SOL     OW  859   0.812   1.586   2.549
  283SOL    HW1  860   0.844   1.596   2.455
  283SOL    HW2  861   0.733   1.524   2.551
  284SOL     OW  862   0.770   1.330   2.163
  284SOL    HW1  863   0.724   1.243   2.180
  284SOL    HW2  864   0.861   1.327   2.204
  285SOL     OW  865   1.352   0.052   2.030
  285SOL    HW1  866   1.387   0.011   1.946
  285SOL    HW2  867   1.262   0.014   2.050
  286SOL     OW  868   1.300   0.453   2.553
  286SOL    HW1  869   1.241   0.533   2.557
  286SOL    HW2  870   1.315   0.418   2.646
  287SOL     OW  871   0.039   1.077   2.162
  287SOL    HW1  872   0.138   1.066   2.153
  287SOL    HW2  873  -0.001   0.991   2.194
  288SOL     OW  874   0.875   1.646   2.199
  288SOL    HW1  875   0.798   1.611   2.145
  288SOL    HW2  876   0.843   1.717   2.261
  289SOL     OW  877   0.225   2.137   0.996
  289SOL    HW1  878   0.260   2.120   1.088
  289SOL    HW2  879   0.137   2.092   0.984
  290SOL     OW  880   0.019   2.230   0.647
  290SOL    HW1  881  -0.063   2.273   0.686
  290SOL    HW2  882  -0.009   2.157   0.584
  291SOL     OW  883   1.755   2.469   0.231
  291SOL    HW1  884   1.743   2.456   0.132
  291SOL    HW2  885   1.725   2.388   0.280
  292SOL     OW  886   0.438   2.254   1.499
  292SOL    HW1  887   0.520   2.198   1.508
  292SOL    HW2  888   0.357   2.196   1.503
  293SOL     OW  889   1.603   2.309   0.737
  293SOL    HW1  890   1.529   2.355   0.687
  293SOL    HW2  891   1.654   2.377   0.790
  294SOL     OW  892   1.594   1.976   1.480
  294SOL    HW1  893   1.576   2.043   1.408
  294SOL    HW2  894   1.591   2.022   1.569
  295SOL     OW  895   0.122   2.505   0.563
  295SOL    HW1  896   0.077   2.417   0.580
  295SOL    HW2  897   0.121   2.559   0.647
  296SOL     OW  898   0.113   2.599   1.597
  296SOL    HW1  899   0.201   2.586   1.642
  296SOL    HW2  900   0.100   2.696   1.575
  297SOL     OW  901   0.809   1.866   0.502
  297SOL    HW1  902   0.849   1.957   0.493
  297SOL    HW2  903   0.709   1.874   0.508
  298SOL     OW  904   0.317   2.113   1.801
  298SOL    HW1  905   0.388   2.184   1.807
  298SOL    HW2  906   0.229   2.152   1.829
  299SOL     OW  907   1.281   2.207   0.944
  299SOL    HW1  908   1.195   2.157   0.931
  299SOL    HW2  909   1.343   2.153   1.000
  300SOL     OW  910   0.807   2.467   1.465
  300SOL    HW1  911   0.760   2.464   1.554
  300SOL    HW2  912   0.756   2.412   1.399
  301SOL     OW  913   1.394   2.331   1.674
  301SOL    HW1  914   1.374   2.374   1.762
  301SOL    HW2  915   1.472   2.269   1.683
  302SOL     OW  916   0.991   2.272   1.242
  302SOL    HW1  917   0.914   2.306   1.296
  302SOL    HW2  918   0.957   2.221   1.163
  303SOL     OW  919   1.041   2.563   0.429
  303SOL    HW1  920   1.067   2.559   0.525
  303SOL    HW2  921   0.956   2.512   0.415
  304SOL     OW  922   0.076   2.673   0.789
  304SOL    HW1  923   0.175   2.661   0.798
  304SOL    HW2  924   0.052   2.768   0.810
  305SOL     OW  925   0.865   2.210   0.195
  305SOL    HW1  926   0.924   2.273   0.146
  305SOL    HW2  927   0.884   2.116   0.166
  306SOL     OW  928   1.719   2.447   1.831
  306SOL    HW1  929   1.693   2.536   1.795
  306SOL    HW2  930   1.717   2.379   1.758
  307SOL     OW  931   0.550   2.058   0.885
  307SOL    HW1  932   0.545   2.053   0.985
  307SOL    HW2  933   0.552   2.154   0.856
  308SOL     OW  934   1.458   2.597   0.728
  308SOL    HW1  935   1.453   2.532   0.803
  308SOL    HW2  936   1.538   2.656   0.741
  309SOL     OW  937   0.202   2.147   1.498
  309SOL    HW1  938   0.122   2.207   1.485
  309SOL    HW2  939   0.192   2.098   1.584
  310SOL     OW  940   1.400   1.969   0.426
  310SOL    HW1  941   1.376   1.932   0.336
  310SOL    HW2  942   1.499   1.985   0.430
  311SOL     OW  943   1.547   2.084   1.729
  311SOL    HW1  944   1.542   2.121   1.821
  311SOL    HW2  945   1.475   2.015   1.717
  312SOL     OW  946   0.614   1.984   0.117
  312SOL    HW1  947   0.712   1.962   0.124
  312SOL    HW2  948   0.583   1.967   0.024
  313SOL     OW  949   0.781   2.126   1.749
  313SOL    HW1  950   0.848   2.065   1.792
  313SOL    HW2  951   0.708   2.145   1.814
  314SOL     OW  952   1.351   2.452   1.433
  314SOL    HW1  953   1.379   2.409   1.518
  314SOL    HW2  954   1.376   2.548   1.434
  315SOL     OW  955   0.922   2.365   0.899
  315SOL    HW1  956   0.897   2.356   0.803
  315SOL    HW2  957   0.970   2.283   0.930
  316SOL     OW  958   0.539   1.926   0.512
  316SOL    HW1  959   0.458   1.927   0.570
  316SOL    HW2  960   0.542   2.009   0.457
  317SOL     OW  961   0.935   2.098   0.480
  317SOL    HW1  962   0.887   2.139   0.402
  317SOL    HW2  963   1.034   2.096   0.461
  318SOL     OW  964   1.076   2.545   1.464
  318SOL    HW1  965   0.996   2.484   1.467
  318SOL    HW2  966   1.157   2.492   1.440
  319SOL     OW  967   1.032   2.411   0.016
  319SOL    HW1  968   0.991   2.493  -0.023
  319SOL    HW2  969   1.096   2.437   0.089
  320SOL     OW  970   0.078   2.418   1.386
  320SOL    HW1  971   0.170   2.417   1.345
  320SOL    HW2  972   0.072   2.492   1.453
  321SOL     OW  973   0.561   2.084   1.147
  321SOL    HW1  974   0.599   2.000   1.184
  321SOL    HW2  975   0.473   2.103   1.191
  322SOL     OW  976   0.866   2.316   0.642
  322SOL    HW1  977   0.834   2.388   0.580
  322SOL    HW2  978   0.890   2.235   0.589
  323SOL     OW  979   1.017   1.901   0.753
  323SOL    HW1  980   0.945   1.906   0.684
  323SOL    HW2  981   0.993   1.832   0.822
  324SOL     OW  982   1.466   2.452   0.992
  324SOL    HW1  983   1.436   2.357   0.999
  324SOL    HW2  984   1.539   2.468   1.058
  325SOL     OW  985   1.390   2.437   0.078
  325SOL    HW1  986   1.336   2.416   0.159
  325SOL    HW2  987   1.481   2.396   0.087
  326SOL     OW  988   0.527   2.118   0.328
  326SOL    HW1  989   0.554   2.059   0.253
  326SOL    HW2  990   0.527   2.213   0.297
  327SOL     OW  991   0.915   1.951   1.402
  327SOL    HW1  992   0.940   1.931   1.307
  327SOL    HW2  993   0.987   2.007   1.444
  328SOL     OW  994   1.274   2.248   1.262
  328SOL    HW1  995   1.295   2.322   1.326
  328SOL    HW2  996   1.185   2.265   1.219
  329SOL     OW  997   0.566   2.399   0.865
  329SOL    HW1  998   0.578   2.465   0.791
  329SOL    HW2  999   0.612   2.433   0.948
  330SOL     OW 1000   1.582   2.501   0.472
  330SOL    HW1 1001   1.551   2.562   0.545
  330SOL    HW2 1002   1.632   2.553   0.403
  331SOL     OW 1003   1.013   1.967   1.770
  331SOL    HW1 1004   1.019   2.052   1.718
  331SOL    HW2 1005   1.045   1.891   1.713
  332SOL     OW 1006   0.504   1.912   1.740
  332SOL    HW1 1007   0.462   1.855   1.670
  332SOL    HW2 1008   0.438   1.981   1.772
  333SOL     OW 1009   1.209   2.387   0.275
  333SOL    HW1 1010   1.222   2.303   0.329
  333SOL    HW2 1011   1.180   2.461   0.335
  334SOL     OW 1012   0.307   2.075   1.231
  334SOL    HW1 1013   0.284   2.112   1.321
  334SOL    HW2 1014   0.277   1.980   1.225
  335SOL     OW 1015   0.732   2.496   1.064
  335SOL    HW1 1016   0.791   2.470   0.988
  335SOL    HW2 1017   0.704   2.592   1.053
  336SOL     OW 1018   0.307   1.925   0.618
  336SOL    HW1 1019   0.296   2.019   0.651
  336SOL    HW2 1020   0.302   1.862   0.695
  337SOL     OW 1021   1.622   2.229   0.374
  337SOL    HW1 1022   1.624   2.153   0.438
  337SOL    HW2 1023   1.574   2.306   0.414
  338SOL     OW 1024   1.540   2.136   0.125
  338SOL    HW1 1025   1.479   2.061   0.148
  338SOL    HW2 1026   1.562   2.188   0.208
  339SOL     OW 1027   0.319   2.672   0.949
  339SOL    HW1 1028   0.412   2.708   0.954
  339SOL    HW2 1029   0.313   2.587   1.001
  340SOL     OW 1030   0.339   2.371   1.006
  340SOL    HW1 1031   0.287   2.288   0.989
  340SOL    HW2 1032   0.416   2.376   0.942
  341SOL     OW 1033   1.138   2.242   1.678
  341SOL    HW1 1034   1.093   2.305   1.742
  341SOL    HW2 1035   1.231   2.273   1.661
  342SOL     OW 1036   1.160   2.069   1.477
  342SOL    HW1 1037   1.160   2.133   1.554
  342SOL    HW2 1038   1.188   2.117   1.394
  343SOL     OW 1039   0.040   2.406   1.114
  343SOL    HW1 1040   0.125   2.373   1.073
  343SOL    HW2 1041   0.053   2.421   1.212
  344SOL     OW 1042   0.189   2.382   1.722
  344SOL    HW1 1043   0.248   2.342   1.652
  344SOL    HW2 1044   0.131   2.453   1.681
  345SOL     OW 1045   0.815   2.434   0.325
  345SOL    HW1 1046   0.822   2.345   0.279
  345SOL    HW2 1047   0.721   2.468   0.317
  346SOL     OW 1048   1.657   2.466   1.206
  346SOL    HW1 1049   1.619   2.397   1.268
  346SOL    HW2 1050   1.739   2.430   1.162
  347SOL     OW 1051   0.671   2.326   1.269
  347SOL    HW1 1052   0.637   2.237   1.239
  347SOL    HW2 1053   0.697   2.380   1.189
  348SOL     OW 1054   0.473   2.362   0.191
  348SOL    HW1 1055   0.534   2.442   0.195
  348SOL    HW2 1056   0.378   2.393   0.198
  349SOL     OW 1057   0.903   1.948   0.133
  349SOL    HW1 1058   0.954   1.949   0.047
  349SOL    HW2 1059   0.959   1.906   0.204
  350SOL     OW 1060   1.726   1.997   0.523
  350SOL    HW1 1061   1.799   1.980   0.456
  350SOL    HW2 1062   1.695   1.910   0.561
  351SOL     OW 1063   1.280   2.789   0.672
  351SOL    HW1 1064   1.340   2.708   0.674
  351SOL    HW2 1065   1.320   2.858   0.612
  352SOL     OW 1066   1.841   2.037   0.963
  352SOL    HW1 1067   1.880   1.952   0.927
  352SOL    HW2 1068   1.743   2.039   0.944
  353SOL     OW 1069   0.263   2.188   0.720
  353SOL    HW1 1070   0.184   2.239   0.686
  353SOL    HW2 1071   0.254   2.173   0.818
  354SOL     OW 1072   1.014   2.098   0.971
  354SOL    HW1 1073   1.006   2.062   0.878
  354SOL    HW2 1074   1.012   2.022   1.036
  355SOL     OW 1075   1.709   2.247   1.381
  355SOL    HW1 1076   1.782   2.316   1.385
  355SOL    HW2 1077   1.737   2.172   1.322
  356SOL     OW 1078   0.672   2.065   1.489
  356SOL    HW1 1079   0.762   2.049   1.449
  356SOL    HW2 1080   0.680   2.070   1.588
  357SOL     OW 1081   0.075   2.207   0.033
  357SOL    HW1 1082  -0.017   2.179   0.004
  357SOL    HW2 1083   0.106   2.284  -0.023
  358SOL     OW 1084   0.072   2.028   0.318
  358SOL    HW1 1085   0.055   2.111   0.264
  358SOL    HW2 1086   0.162   1.991   0.296
  359SOL     OW 1087   0.716   2.427   1.708
  359SOL    HW1 1088   0.735   2.492   1.782
  359SOL    HW2 1089   0.776   2.347   1.717
  360SOL     OW 1090   1.225   2.187   0.449
  360SOL    HW1 1091   1.290   2.113   0.438
  360SOL    HW2 1092   1.245   2.237   0.533
  361SOL     OW 1093   1.777   2.204   1.642
  361SOL    HW1 1094   1.760   2.235   1.548
  361SOL    HW2 1095   1.693   2.167   1.680
  362SOL     OW 1096   1.083   2.846   0.087
  362SOL    HW1 1097   1.060   2.899   0.005
  362SOL    HW2 1098   1.164   2.790   0.068
  363SOL     OW 1099   1.824   2.054   1.227
  363SOL    HW1 1100   1.820   1.964   1.271
  363SOL    HW2 1101   1.827   2.043   1.128
  364SOL     OW 1102   0.428   2.286   0.520
  364SOL    HW1 1103   0.458   2.214   0.458
  364SOL    HW2 1104   0.389   2.246   0.603
  365SOL     OW 1105   0.317   2.409   1.280
  365SOL    HW1 1106   0.355   2.350   1.352
  365SOL    HW2 1107   0.357   2.383   1.192
  366SOL     OW 1108   1.424   2.076   1.112
  366SOL    HW1 1109   1.476   2.011   1.167
  366SOL    HW2 1110   1.375   2.139   1.173
  367SOL     OW 1111   1.001   1.896   1.154
  367SOL    HW1 1112   0.938   1.824   1.123
  367SOL    HW2 1113   1.094   1.860   1.154
  368SOL     OW 1114   1.352   1.914   0.168
  368SOL    HW1 1115   1.387   1.873   0.084
  368SOL    HW2 1116   1.262   1.876   0.188
  369SOL     OW 1117   1.300   2.315   0.691
  369SOL    HW1 1118   1.241   2.395   0.695
  369SOL    HW2 1119   1.315   2.280   0.784
  370SOL     OW 1120   1.593   2.083   0.882
  370SOL    HW1 1121   1.509   2.082   0.936
  370SOL    HW2 1122   1.595   2.166   0.826
  371SOL     OW 1123   1.135   2.565   2.579
  371SOL    HW1 1124   1.192   2.643   2.554
  371SOL    HW2 1125   1.075   2.591   2.655
  372SOL     OW 1126   1.755   2.469   2.093
  372SOL    HW1 1127   1.743   2.456   1.994
  372SOL    HW2 1128   1.725   2.388   2.142
  373SOL     OW 1129   1.603   2.309   2.599
  373SOL    HW1 1130   1.529   2.355   2.549
  373SOL    HW2 1131   1.654   2.377   2.652
  374SOL     OW 1132   0.122   2.505   2.425
  374SOL    HW1 1133   0.077   2.417   2.442
  374SOL    HW2 1134   0.121   2.559   2.509
  375SOL     OW 1135   0.809   1.866   2.364
  375SOL    HW1 1136   0.849   1.957   2.355
  375SOL    HW2 1137   0.709   1.874   2.370
  376SOL     OW 1138   1.281   2.207   2.806
  376SOL    HW1 1139   1.195   2.157   2.793
  376SOL    HW2 1140   1.343   2.153   2.862
  377SOL     OW 1141   1.041   2.563   2.291
  377SOL    HW1 1142   1.067   2.559   2.387
  377SOL    HW2 1143   0.956   2.512   2.277
  378SOL     OW 1144   0.076   2.673   2.651
  378SOL    HW1 1145   0.175   2.661   2.660
  378SOL    HW2 1146   0.052   2.768   2.672
  379SOL     OW 1147   0.865   2.210   2.057
  379SOL    HW1 1148   0.924   2.273   2.008
  379SOL    HW2 1149   0.884   2.116   2.028
  380SOL     OW 1150   1.400   1.969   2.288
  380SOL    HW1 1151   1.376   1.932   2.198
  380SOL    HW2 1152   1.499   1.985   2.292
  381SOL     OW 1153   0.614   1.984   1.979
  381SOL    HW1 1154   0.712   1.962   1.986
  381SOL    HW2 1155   0.583   1.967   1.886
  382SOL     OW 1156   0.539   1.926   2.374
  382SOL    HW1 1157   0.458   1.927   2.432
  382SOL    HW2 1158   0.542   2.009   2.319
  383SOL     OW 1159   0.297   1.897   2.033
  383SOL    HW1 1160   0.346   1.981   2.012
  383SOL    HW2 1161   0.359   1.832   2.078
  384SOL     OW 1162   0.935   2.098   2.342
  384SOL    HW1 1163   0.887   2.139   2.264
  384SOL    HW2 1164   1.034   2.096   2.323
  385SOL     OW 1165   1.032   2.411   1.878
  385SOL    HW1 1166   0.991   2.493   1.839
  385SOL    HW2 1167   1.096   2.437   1.951
  386SOL     OW 1168   0.866   2.316   2.504
  386SOL    HW1 1169   0.834   2.388   2.442
  386SOL    HW2 1170   0.890   2.235   2.451
  387SOL     OW 1171   1.466   2.452   2.854
  387SOL    HW1 1172   1.436   2.357   2.861
  387SOL    HW2 1173   1.539   2.468   2.920
  388SOL     OW 1174   1.390   2.437   1.940
  388SOL    HW1 1175   1.336   2.416   2.021
  388SOL    HW2 1176   1.481   2.396   1.949
  389SOL     OW 1177   0.527   2.118   2.190
  389SOL    HW1 1178   0.554   2.059   2.115
  389SOL    HW2 1179   0.527   2.213   2.159
  390SOL     OW 1180   1.582   2.501   2.334
  390SOL    HW1 1181   1.551   2.562   2.407
  390SOL    HW2 1182   1.632   2.553   2.265
  391SOL     OW 1183   1.209   2.387   2.137
  391SOL    HW1 1184   1.222   2.303   2.191
  391SOL    HW2 1185   1.180   2.461   2.197
  392SOL     OW 1186   0.307   1.925   2.480
  392SOL    HW1 1187   0.296   2.019   2.513
  392SOL    HW2 1188   0.302   1.862   2.557
  393SOL     OW 1189   1.622   2.229   2.236
  393SOL    HW1 1190   1.624   2.153   2.300
  393SOL    HW2 1191   1.574   2.306   2.276
  394SOL     OW 1192   1.540   2.136   1.987
  394SOL    HW1 1193   1.479   2.061   2.010
  394SOL    HW2 1194   1.562   2.188   2.070
  395SOL     OW 1195   0.815   2.434   2.187
  395SOL    HW1 1196   0.822   2.345   2.141
  395SOL    HW2 1197   0.721   2.468   2.179
  396SOL     OW 1198   0.473   2.362   2.053
  396SOL    HW1 1199   0.534   2.442   2.057
  396SOL    HW2 1200   0.378   2.393   2.060
  397SOL     OW 1201   1.726   1.997   2.385
  397SOL    HW1 1202   1.799   1.980   2.318
  397SOL    HW2 1203   1.695   1.910   2.423
  398SOL     OW 1204   1.280   2.789   2.534
  398SOL    HW1 1205   1.340   2.708   2.536
  398SOL    HW2 1206   1.320   2.858   2.474
  399SOL     OW 1207   1.841   2.037   2.825
  399SOL    HW1 1208   1.880   1.952   2.789
  399SOL    HW2 1209   1.743   2.039   2.806
  400SOL     OW 1210   0.075   2.207   1.895
  400SOL    HW1 1211  -0.017   2.179   1.866
  400SOL    HW2 1212   0.106   2.284   1.839
  401SOL     OW 1213   0.072   2.028   2.180
  401SOL    HW1 1214   0.055   2.111   2.126
  401SOL    HW2 1215   0.162   1.991   2.158
  402SOL     OW 1216   1.225   2.187   2.311
  402SOL    HW1 1217   1.290   2.113   2.300
  402SOL    HW2 1218   1.245   2.237   2.395
  403SOL     OW 1219   1.083   2.846   1.949
  403SOL    HW1 1220   1.060   2.899   1.867
  403SOL    HW2 1221   1.164   2.790   1.930
  404SOL     OW 1222   0.428   2.286   2.382
  404SOL    HW1 1223   0.458   2.214   2.320
  404SOL    HW2 1224   0.389   2.246   2.465
  405SOL     OW 1225   1.352   1.914   2.030
  405SOL    HW1 1226   1.387   1.873   1.946
  405SOL    HW2 1227   1.262   1.876   2.050
  406SOL     OW 1228   1.300   2.315   2.553
  406SOL    HW1 1229   1.241   2.395   2.557
  406SOL    HW2 1230   1.315   2.280   2.646
  407SOL     OW 1231   2.092   0.628   0.113
  407SOL    HW1 1232   1.999   0.626   0.150
  407SOL    HW2 1233   2.093   0.589   0.021
  408SOL     OW 1234   2.087   0.275   0.996
  408SOL    HW1 1235   2.122   0.258   1.088
  408SOL    HW2 1236   1.999   0.230   0.984
  409SOL     OW 1237   1.881   0.368   0.647
  409SOL    HW1 1238   1.799   0.411   0.686
  409SOL    HW2 1239   1.853   0.295   0.584
  410SOL     OW 1240   2.431   1.275   1.165
  410SOL    HW1 1241   2.338   1.268   1.128
  410SOL    HW2 1242   2.442   1.364   1.209
  411SOL     OW 1243   2.712   0.798   1.823
  411SOL    HW1 1244   2.708   0.874   1.888
  411SOL    HW2 1245   2.734   0.834   1.732
  412SOL     OW 1246   2.548   1.161   1.803
  412SOL    HW1 1247   2.608   1.240   1.817
  412SOL    HW2 1248   2.462   1.192   1.762
  413SOL     OW 1249   2.197   1.435   1.061
  413SOL    HW1 1250   2.119   1.404   1.008
  413SOL    HW2 1251   2.255   1.493   1.004
  414SOL     OW 1252   2.300   0.392   1.499
  414SOL    HW1 1253   2.382   0.336   1.508
  414SOL    HW2 1254   2.219   0.334   1.503
  415SOL     OW 1255   2.093   1.713   0.483
  415SOL    HW1 1256   2.127   1.790   0.537
  415SOL    HW2 1257   2.137   1.713   0.393
  416SOL     OW 1258   2.092   1.434   0.538
  416SOL    HW1 1259   2.066   1.530   0.538
  416SOL    HW2 1260   2.021   1.380   0.583
  417SOL     OW 1261   2.102   1.091   0.886
  417SOL    HW1 1262   2.116   1.007   0.938
  417SOL    HW2 1263   2.047   1.155   0.941
  418SOL     OW 1264   2.482   1.786   1.439
  418SOL    HW1 1265   2.390   1.769   1.474
  418SOL    HW2 1266   2.510   1.878   1.465
  419SOL     OW 1267   2.468   0.964   0.123
  419SOL    HW1 1268   2.475   1.048   0.069
  419SOL    HW2 1269   2.514   0.977   0.211
  420SOL     OW 1270   1.984   0.643   0.563
  420SOL    HW1 1271   1.939   0.555   0.580
  420SOL    HW2 1272   1.983   0.697   0.647
  421SOL     OW 1273   1.889   1.596   0.117
  421SOL    HW1 1274   1.870   1.500   0.138
  421SOL    HW2 1275   1.856   1.654   0.192
  422SOL     OW 1276   1.975   0.737   1.597
  422SOL    HW1 1277   2.063   0.724   1.642
  422SOL    HW2 1278   1.962   0.834   1.575
  423SOL     OW 1279   2.475   1.365   0.726
  423SOL    HW1 1280   2.426   1.278   0.735
  423SOL    HW2 1281   2.452   1.408   0.639
  424SOL     OW 1282   2.059   0.976   1.264
  424SOL    HW1 1283   2.148   0.931   1.250
  424SOL    HW2 1284   1.986   0.911   1.245
  425SOL     OW 1285   2.179   0.251   1.801
  425SOL    HW1 1286   2.250   0.322   1.807
  425SOL    HW2 1287   2.091   0.290   1.829
  426SOL     OW 1288   2.460   0.729   0.270
  426SOL    HW1 1289   2.484   0.798   0.202
  426SOL    HW2 1290   2.382   0.762   0.324
  427SOL     OW 1291   1.938   0.811   0.789
  427SOL    HW1 1292   2.037   0.799   0.798
  427SOL    HW2 1293   1.914   0.906   0.810
  428SOL     OW 1294   1.992   1.821   1.571
  428SOL    HW1 1295   1.982   1.806   1.670
  428SOL    HW2 1296   1.906   1.857   1.535
  429SOL     OW 1297   2.412   0.196   0.885
  429SOL    HW1 1298   2.407   0.191   0.985
  429SOL    HW2 1299   2.414   0.292   0.856
  430SOL     OW 1300   2.213   1.801   0.853
  430SOL    HW1 1301   2.263   1.715   0.859
  430SOL    HW2 1302   2.278   1.878   0.850
  431SOL     OW 1303   2.183   0.943   0.242
  431SOL    HW1 1304   2.265   0.982   0.200
  431SOL    HW2 1305   2.156   0.861   0.193
  432SOL     OW 1306   2.323   1.266   1.727
  432SOL    HW1 1307   2.273   1.267   1.641
  432SOL    HW2 1308   2.260   1.248   1.803
  433SOL     OW 1309   2.064   0.285   1.498
  433SOL    HW1 1310   1.984   0.345   1.485
  433SOL    HW2 1311   2.054   0.236   1.584
  434SOL     OW 1312   2.326   1.743   0.323
  434SOL    HW1 1313   2.359   1.782   0.409
  434SOL    HW2 1314   2.402   1.736   0.258
  435SOL     OW 1315   2.111   1.785   1.241
  435SOL    HW1 1316   2.168   1.720   1.291
  435SOL    HW2 1317   2.095   1.752   1.148
  436SOL     OW 1318   2.244   0.700   0.480
  436SOL    HW1 1319   2.289   0.610   0.477
  436SOL    HW2 1320   2.150   0.689   0.513
  437SOL     OW 1321   2.665   1.402   0.924
  437SOL    HW1 1322   2.755   1.416   0.882
  437SOL    HW2 1323   2.594   1.404   0.853
  438SOL     OW 1324   2.401   0.064   0.512
  438SOL    HW1 1325   2.320   0.065   0.570
  438SOL    HW2 1326   2.404   0.147   0.457
  439SOL     OW 1327   2.159   0.035   0.171
  439SOL    HW1 1328   2.208   0.119   0.150
  439SOL    HW2 1329   2.221  -0.030   0.216
  440SOL     OW 1330   2.797   0.236   0.480
  440SOL    HW1 1331   2.749   0.277   0.402
  440SOL    HW2 1332   2.896   0.234   0.461
  441SOL     OW 1333   2.321   1.152   0.741
  441SOL    HW1 1334   2.250   1.125   0.806
  441SOL    HW2 1335   2.295   1.124   0.648
  442SOL     OW 1336   1.940   0.556   1.386
  442SOL    HW1 1337   2.032   0.555   1.345
  442SOL    HW2 1338   1.934   0.630   1.453
  443SOL     OW 1339   2.423   0.222   1.147
  443SOL    HW1 1340   2.461   0.138   1.184
  443SOL    HW2 1341   2.335   0.241   1.191
  444SOL     OW 1342   2.350   1.385   0.174
  444SOL    HW1 1343   2.263   1.370   0.221
  444SOL    HW2 1344   2.333   1.411   0.079
  445SOL     OW 1345   2.389   0.256   0.328
  445SOL    HW1 1346   2.416   0.197   0.253
  445SOL    HW2 1347   2.389   0.351   0.297
  446SOL     OW 1348   2.272   0.813   1.251
  446SOL    HW1 1349   2.358   0.825   1.301
  446SOL    HW2 1350   2.230   0.726   1.278
  447SOL     OW 1351   1.926   1.564   1.331
  447SOL    HW1 1352   1.880   1.646   1.297
  447SOL    HW2 1353   2.024   1.583   1.340
  448SOL     OW 1354   2.229   1.100   0.501
  448SOL    HW1 1355   2.222   1.183   0.445
  448SOL    HW2 1356   2.233   1.020   0.441
  449SOL     OW 1357   2.428   0.537   0.865
  449SOL    HW1 1358   2.440   0.603   0.791
  449SOL    HW2 1359   2.474   0.571   0.948
  450SOL     OW 1360   2.216   1.510   1.329
  450SOL    HW1 1361   2.195   1.466   1.242
  450SOL    HW2 1362   2.313   1.536   1.332
  451SOL     OW 1363   2.264   0.751   1.598
  451SOL    HW1 1364   2.332   0.806   1.551
  451SOL    HW2 1365   2.304   0.663   1.625
  452SOL     OW 1366   2.366   0.050   1.740
  452SOL    HW1 1367   2.324  -0.007   1.670
  452SOL    HW2 1368   2.300   0.119   1.772
  453SOL     OW 1369   2.435   0.870   1.029
  453SOL    HW1 1370   2.479   0.959   1.020
  453SOL    HW2 1371   2.372   0.870   1.106
  454SOL     OW 1372   2.169   0.213   1.231
  454SOL    HW1 1373   2.146   0.250   1.321
  454SOL    HW2 1374   2.139   0.118   1.225
  455SOL     OW 1375   1.899   1.310   1.282
  455SOL    HW1 1376   1.952   1.261   1.350
  455SOL    HW2 1377   1.921   1.408   1.287
  456SOL     OW 1378   2.169   0.063   0.618
  456SOL    HW1 1379   2.158   0.157   0.651
  456SOL    HW2 1380   2.164   0.000   0.695
  457SOL     OW 1381   2.212   0.898   1.804
  457SOL    HW1 1382   2.288   0.942   1.852
  457SOL    HW2 1383   2.247   0.851   1.722
  458SOL     OW 1384   2.181   0.810   0.949
  458SOL    HW1 1385   2.274   0.846   0.954
  458SOL    HW2 1386   2.175   0.725   1.001
  459SOL     OW 1387   2.201   0.509   1.006
  459SOL    HW1 1388   2.149   0.426   0.989
  459SOL    HW2 1389   2.278   0.514   0.942
  460SOL     OW 1390   1.870   1.326   0.200
  460SOL    HW1 1391   1.777   1.347   0.169
  460SOL    HW2 1392   1.880   1.227   0.213
  461SOL     OW 1393   1.950   1.801   0.927
  461SOL    HW1 1394   1.908   1.715   0.900
  461SOL    HW2 1395   2.044   1.804   0.893
  462SOL     OW 1396   2.366   1.568   0.910
  462SOL    HW1 1397   2.432   1.642   0.919
  462SOL    HW2 1398   2.410   1.489   0.868
  463SOL     OW 1399   1.902   0.544   1.114
  463SOL    HW1 1400   1.987   0.511   1.073
  463SOL    HW2 1401   1.915   0.559   1.212
  464SOL     OW 1402   2.051   0.520   1.722
  464SOL    HW1 1403   2.110   0.480   1.652
  464SOL    HW2 1404   1.993   0.591   1.681
  465SOL     OW 1405   2.677   0.572   0.325
  465SOL    HW1 1406   2.684   0.483   0.279
  465SOL    HW2 1407   2.583   0.606   0.317
  466SOL     OW 1408   2.114   1.564   1.744
  466SOL    HW1 1409   2.084   1.621   1.820
  466SOL    HW2 1410   2.107   1.467   1.770
  467SOL     OW 1411   2.335   0.500   0.191
  467SOL    HW1 1412   2.396   0.580   0.195
  467SOL    HW2 1413   2.240   0.531   0.198
  468SOL     OW 1414   2.021   1.137   1.466
  468SOL    HW1 1415   2.043   1.076   1.542
  468SOL    HW2 1416   2.031   1.088   1.380
  469SOL     OW 1417   1.945   1.258   1.022
  469SOL    HW1 1418   1.940   1.257   1.122
  469SOL    HW2 1419   1.862   1.217   0.984
  470SOL     OW 1420   2.550   1.662   1.716
  470SOL    HW1 1421   2.494   1.743   1.725
  470SOL    HW2 1422   2.602   1.666   1.630
  471SOL     OW 1423   1.992   1.794   1.851
  471SOL    HW1 1424   1.951   1.720   1.904
  471SOL    HW2 1425   2.056   1.845   1.909
  472SOL     OW 1426   2.125   0.326   0.720
  472SOL    HW1 1427   2.046   0.377   0.686
  472SOL    HW2 1428   2.116   0.311   0.818
  473SOL     OW 1429   2.234   1.288   1.490
  473SOL    HW1 1430   2.221   1.381   1.456
  473SOL    HW2 1431   2.150   1.236   1.477
  474SOL     OW 1432   2.452   1.487   0.491
  474SOL    HW1 1433   2.494   1.429   0.421
  474SOL    HW2 1434   2.408   1.566   0.447
  475SOL     OW 1435   2.117   1.348   0.290
  475SOL    HW1 1436   2.021   1.349   0.263
  475SOL    HW2 1437   2.129   1.401   0.374
  476SOL     OW 1438   1.967   1.013   1.726
  476SOL    HW1 1439   1.890   0.980   1.780
  476SOL    HW2 1440   2.052   0.983   1.768
  477SOL     OW 1441   2.534   0.203   1.489
  477SOL    HW1 1442   2.624   0.187   1.449
  477SOL    HW2 1443   2.542   0.208   1.588
  478SOL     OW 1444   1.937   0.345   0.033
  478SOL    HW1 1445   1.845   0.317   0.004
  478SOL    HW2 1446   1.968   0.422  -0.023
  479SOL     OW 1447   2.475   0.842   1.431
  479SOL    HW1 1448   2.531   0.923   1.414
  479SOL    HW2 1449   2.534   0.762   1.434
  480SOL     OW 1450   2.252   1.741   1.560
  480SOL    HW1 1451   2.161   1.782   1.558
  480SOL    HW2 1452   2.245   1.647   1.592
  481SOL     OW 1453   2.456   0.745   0.652
  481SOL    HW1 1454   2.506   0.830   0.633
  481SOL    HW2 1455   2.368   0.747   0.604
  482SOL     OW 1456   2.083   1.314   1.844
  482SOL    HW1 1457   2.018   1.241   1.823
  482SOL    HW2 1458   2.087   1.328   1.942
  483SOL     OW 1459   1.941   1.240   0.653
  483SOL    HW1 1460   1.940   1.193   0.741
  483SOL    HW2 1461   2.023   1.212   0.602
  484SOL     OW 1462   2.534   1.391   1.624
  484SOL    HW1 1463   2.456   1.341   1.662
  484SOL    HW2 1464   2.531   1.486   1.655
  485SOL     OW 1465   2.290   0.424   0.520
  485SOL    HW1 1466   2.320   0.352   0.458
  485SOL    HW2 1467   2.251   0.384   0.603
  486SOL     OW 1468   2.179   0.547   1.280
  486SOL    HW1 1469   2.217   0.488   1.352
  486SOL    HW2 1470   2.219   0.521   1.192
  487SOL     OW 1471   1.901   1.077   0.300
  487SOL    HW1 1472   2.000   1.066   0.291
  487SOL    HW2 1473   1.861   0.991   0.332
  488SOL     OW 1474   2.092   0.628   1.975
  488SOL    HW1 1475   1.999   0.626   2.012
  488SOL    HW2 1476   2.093   0.589   1.883
  489SOL     OW 1477   2.087   0.275   2.858
  489SOL    HW1 1478   2.122   0.258   2.950
  489SOL    HW2 1479   1.999   0.230   2.846
  490SOL     OW 1480   2.093   1.713   2.345
  490SOL    HW1 1481   2.127   1.790   2.399
  490SOL    HW2 1482   2.137   1.713   2.255
  491SOL     OW 1483   2.092   1.434   2.400
  491SOL    HW1 1484   2.066   1.530   2.400
  491SOL    HW2 1485   2.021   1.380   2.445
  492SOL     OW 1486   2.468   0.964   1.985
  492SOL    HW1 1487   2.475   1.048   1.931
  492SOL    HW2 1488   2.514   0.977   2.073
  493SOL     OW 1489   1.984   0.643   2.425
  493SOL    HW1 1490   1.939   0.555   2.442
  493SOL    HW2 1491   1.983   0.697   2.509
  494SOL     OW 1492   1.889   1.596   1.979
  494SOL    HW1 1493   1.870   1.500   2.000
  494SOL    HW2 1494   1.856   1.654   2.054
  495SOL     OW 1495   2.475   1.365   2.588
  495SOL    HW1 1496   2.426   1.278   2.597
  495SOL    HW2 1497   2.452   1.408   2.501
  496SOL     OW 1498   2.460   0.729   2.132
  496SOL    HW1 1499   2.484   0.798   2.064
  496SOL    HW2 1500   2.382   0.762   2.186
  497SOL     OW 1501   1.938   0.811   2.651
  497SOL    HW1 1502   2.037   0.799   2.660
  497SOL    HW2 1503   1.914   0.906   2.672
  498SOL     OW 1504   2.213   1.801   2.715
  498SOL    HW1 1505   2.263   1.715   2.721
  498SOL    HW2 1506   2.278   1.878   2.712
  499SOL     OW 1507   2.183   0.943   2.104
  499SOL    HW1 1508   2.265   0.982   2.062
  499SOL    HW2 1509   2.156   0.861   2.055
  500SOL     OW 1510   2.326   1.743   2.185
  500SOL    HW1 1511   2.359   1.782   2.271
  500SOL    HW2 1512   2.402   1.736   2.120
  501SOL     OW 1513   2.244   0.700   2.342
  501SOL    HW1 1514   2.289   0.610   2.339
  501SOL    HW2 1515   2.150   0.689   2.375
  502SOL     OW 1516   2.476   0.122   1.979
  502SOL    HW1 1517   2.574   0.100   1.986
  502SOL    HW2 1518   2.445   0.105   1.886
  503SOL     OW 1519   2.401   0.064   2.374
  503SOL    HW1 1520   2.320   0.065   2.432
  503SOL    HW2 1521   2.404   0.147   2.319
  504SOL     OW 1522   2.159   0.035   2.033
  504SOL    HW1 1523   2.208   0.119   2.012
  504SOL    HW2 1524   2.221  -0.030   2.078
  505SOL     OW 1525   2.797   0.236   2.342
  505SOL    HW1 1526   2.749   0.277   2.264
  505SOL    HW2 1527   2.896   0.234   2.323
  506SOL     OW 1528   2.321   1.152   2.603
  506SOL    HW1 1529   2.250   1.125   2.668
  506SOL    HW2 1530   2.295   1.124   2.510
  507SOL     OW 1531   2.350   1.385   2.036
  507SOL    HW1 1532   2.263   1.370   2.083
  507SOL    HW2 1533   2.333   1.411   1.941
  508SOL     OW 1534   2.389   0.256   2.190
  508SOL    HW1 1535   2.416   0.197   2.115
  508SOL    HW2 1536   2.389   0.351   2.159
  509SOL     OW 1537   2.229   1.100   2.363
  509SOL    HW1 1538   2.222   1.183   2.307
  509SOL    HW2 1539   2.233   1.020   2.303
  510SOL     OW 1540   2.169   0.063   2.480
  510SOL    HW1 1541   2.158   0.157   2.513
  510SOL    HW2 1542   2.164   0.000   2.557
  511SOL     OW 1543   1.870   1.326   2.062
  511SOL    HW1 1544   1.777   1.347   2.031
  511SOL    HW2 1545   1.880   1.227   2.075
  512SOL     OW 1546   2.677   0.572   2.187
  512SOL    HW1 1547   2.684   0.483   2.141
  512SOL    HW2 1548   2.583   0.606   2.179
  513SOL     OW 1549   2.335   0.500   2.053
  513SOL    HW1 1550   2.396   0.580   2.057
  513SOL    HW2 1551   2.240   0.531   2.060
  514SOL     OW 1552   2.452   1.487   2.353
  514SOL    HW1 1553   2.494   1.429   2.283
  514SOL    HW2 1554   2.408   1.566   2.309
  515SOL     OW 1555   2.117   1.348   2.152
  515SOL    HW1 1556   2.021   1.349   2.125
  515SOL    HW2 1557   2.129   1.401   2.236
  516SOL     OW 1558   1.937   0.345   1.895
  516SOL    HW1 1559   1.845   0.317   1.866
  516SOL    HW2 1560   1.968   0.422   1.839
  517SOL     OW 1561   1.934   0.166   2.180
  517SOL    HW1 1562   1.917   0.249   2.126
  517SOL    HW2 1563   2.024   0.129   2.158
  518SOL     OW 1564   2.456   0.745   2.514
  518SOL    HW1 1565   2.506   0.830   2.495
  518SOL    HW2 1566   2.368   0.747   2.466
  519SOL     OW 1567   1.941   1.240   2.515
  519SOL    HW1 1568   1.940   1.193   2.603
  519SOL    HW2 1569   2.023   1.212   2.464
  520SOL     OW 1570   2.290   0.424   2.382
  520SOL    HW1 1571   2.320   0.352   2.320
  520SOL    HW2 1572   2.251   0.384   2.465
  521SOL     OW 1573   1.901   1.077   2.162
  521SOL    HW1 1574   2.000   1.066   2.153
  521SOL    HW2 1575   1.861   0.991   2.194
  522SOL     OW 1576   2.087   2.137   0.996
  522SOL    HW1 1577   2.122   2.120   1.088
  522SOL    HW2 1578   1.999   2.092   0.984
  523SOL     OW 1579   1.881   2.230   0.647
  523SOL    HW1 1580   1.799   2.273   0.686
  523SOL    HW2 1581   1.853   2.157   0.584
  524SOL     OW 1582   2.712   2.660   1.823
  524SOL    HW1 1583   2.708   2.736   1.888
  524SOL    HW2 1584   2.734   2.696   1.732
  525SOL     OW 1585   2.300   2.254   1.499
  525SOL    HW1 1586   2.382   2.198   1.508
  525SOL    HW2 1587   2.219   2.196   1.503
  526SOL     OW 1588   1.984   2.505   0.563
  526SOL    HW1 1589   1.939   2.417   0.580
  526SOL    HW2 1590   1.983   2.559   0.647
  527SOL     OW 1591   1.975   2.599   1.597
  527SOL    HW1 1592   2.063   2.586   1.642
  527SOL    HW2 1593   1.962   2.696   1.575
  528SOL     OW 1594   2.671   1.866   0.502
  528SOL    HW1 1595   2.711   1.957   0.493
  528SOL    HW2 1596   2.571   1.874   0.508
  529SOL     OW 1597   2.179   2.113   1.801
  529SOL    HW1 1598   2.250   2.184   1.807
  529SOL    HW2 1599   2.091   2.152   1.829
  530SOL     OW 1600   2.460   2.591   0.270
  530SOL    HW1 1601   2.484   2.660   0.202
  530SOL    HW2 1602   2.382   2.624   0.324
  531SOL     OW 1603   2.412   2.058   0.885
  531SOL    HW1 1604   2.407   2.053   0.985
  531SOL    HW2 1605   2.414   2.154   0.856
  532SOL     OW 1606   2.064   2.147   1.498
  532SOL    HW1 1607   1.984   2.207   1.485
  532SOL    HW2 1608   2.054   2.098   1.584
  533SOL     OW 1609   2.476   1.984   0.117
  533SOL    HW1 1610   2.574   1.962   0.124
  533SOL    HW2 1611   2.445   1.967   0.024
  534SOL     OW 1612   2.401   1.926   0.512
  534SOL    HW1 1613   2.320   1.927   0.570
  534SOL    HW2 1614   2.404   2.009   0.457
  535SOL     OW 1615   2.797   2.098   0.480
  535SOL    HW1 1616   2.749   2.139   0.402
  535SOL    HW2 1617   2.896   2.096   0.461
  536SOL     OW 1618   1.940   2.418   1.386
  536SOL    HW1 1619   2.032   2.417   1.345
  536SOL    HW2 1620   1.934   2.492   1.453
  537SOL     OW 1621   2.423   2.084   1.147
  537SOL    HW1 1622   2.461   2.000   1.184
  537SOL    HW2 1623   2.335   2.103   1.191
  538SOL     OW 1624   2.389   2.118   0.328
  538SOL    HW1 1625   2.416   2.059   0.253
  538SOL    HW2 1626   2.389   2.213   0.297
  539SOL     OW 1627   2.428   2.399   0.865
  539SOL    HW1 1628   2.440   2.465   0.791
  539SOL    HW2 1629   2.474   2.433   0.948
  540SOL     OW 1630   2.366   1.912   1.740
  540SOL    HW1 1631   2.324   1.855   1.670
  540SOL    HW2 1632   2.300   1.981   1.772
  541SOL     OW 1633   2.169   2.075   1.231
  541SOL    HW1 1634   2.146   2.112   1.321
  541SOL    HW2 1635   2.139   1.980   1.225
  542SOL     OW 1636   2.169   1.925   0.618
  542SOL    HW1 1637   2.158   2.019   0.651
  542SOL    HW2 1638   2.164   1.862   0.695
  543SOL     OW 1639   2.181   2.672   0.949
  543SOL    HW1 1640   2.274   2.708   0.954
  543SOL    HW2 1641   2.175   2.587   1.001
  544SOL     OW 1642   2.201   2.371   1.006
  544SOL    HW1 1643   2.149   2.288   0.989
  544SOL    HW2 1644   2.278   2.376   0.942
  545SOL     OW 1645   1.902   2.406   1.114
  545SOL    HW1 1646   1.987   2.373   1.073
  545SOL    HW2 1647   1.915   2.421   1.212
  546SOL     OW 1648   2.051   2.382   1.722
  546SOL    HW1 1649   2.110   2.342   1.652
  546SOL    HW2 1650   1.993   2.453   1.681
  547SOL     OW 1651   2.677   2.434   0.325
  547SOL    HW1 1652   2.684   2.345   0.279
  547SOL    HW2 1653   2.583   2.468   0.317
  548SOL     OW 1654   2.335   2.362   0.191
  548SOL    HW1 1655   2.396   2.442   0.195
  548SOL    HW2 1656   2.240   2.393   0.198
  549SOL     OW 1657   2.765   1.948   0.133
  549SOL    HW1 1658   2.816   1.949   0.047
  549SOL    HW2 1659   2.821   1.906   0.204
  550SOL     OW 1660   2.125   2.188   0.720
  550SOL    HW1 1661   2.046   2.239   0.686
  550SOL    HW2 1662   2.116   2.173   0.818
  551SOL     OW 1663   2.534   2.065   1.489
  551SOL    HW1 1664   2.624   2.049   1.449
  551SOL    HW2 1665   2.542   2.070   1.588
  552SOL     OW 1666   1.937   2.207   0.033
  552SOL    HW1 1667   1.845   2.179   0.004
  552SOL    HW2 1668   1.968   2.284  -0.023
  553SOL     OW 1669   2.290   2.286   0.520
  553SOL    HW1 1670   2.320   2.214   0.458
  553SOL    HW2 1671   2.251   2.246   0.603
  554SOL     OW 1672   2.179   2.409   1.280
  554SOL    HW1 1673   2.217   2.350   1.352
  554SOL    HW2 1674   2.219   2.383   1.192
  555SOL     OW 1675   2.087   2.137   2.858
  555SOL    HW1 1676   2.122   2.120   2.950
  555SOL    HW2 1677   1.999   2.092   2.846
  556SOL     OW 1678   1.984   2.505   2.425
  556SOL    HW1 1679   1.939   2.417   2.442
  556SOL    HW2 1680   1.983   2.559   2.509
  557SOL     OW 1681   2.671   1.866   2.364
  557SOL    HW1 1682   2.711   1.957   2.355
  557SOL    HW2 1683   2.571   1.874   2.370
  558SOL     OW 1684   2.476   1.984   1.979
  558SOL    HW1 1685   2.574   1.962   1.986
  558SOL    HW2 1686   2.445   1.967   1.886
  559SOL     OW 1687   2.401   1.926   2.374
  559SOL    HW1 1688   2.320   1.927   2.432
  559SOL    HW2 1689   2.404   2.009   2.319
  560SOL     OW 1690   2.159   1.897   2.033
  560SOL    HW1 1691   2.208   1.981   2.012
  560SOL    HW2 1692   2.221   1.832   2.078
  561SOL     OW 1693   2.797   2.098   2.342
  561SOL    HW1 1694   2.749   2.139   2.264
  561SOL    HW2 1695   2.896   2.096   2.323
  562SOL     OW 1696   2.389   2.118   2.190
  562SOL    HW1 1697   2.416   2.059   2.115
  562SOL    HW2 1698   2.389   2.213   2.159
  563SOL     OW 1699   2.169   1.925   2.480
  563SOL    HW1 1700   2.158   2.019   2.513
  563SOL    HW2 1701   2.164   1.862   2.557
  564SOL     OW 1702   2.677   2.434   2.187
  564SOL    HW1 1703   2.684   2.345   2.141
  564SOL    HW2 1704   2.583   2.468   2.179
  565SOL     OW 1705   2.335   2.362   2.053
  565SOL    HW1 1706   2.396   2.442   2.057
  565SOL    HW2 1707   2.240   2.393   2.060
  566SOL     OW 1708   1.937   2.207   1.895
  566SOL    HW1 1709   1.845   2.179   1.866
  566SOL    HW2 1710   1.968   2.284   1.839
  567SOL     OW 1711   1.934   2.028   2.180
  567SOL    HW1 1712   1.917   2.111   2.126
  567SOL    HW2 1713   2.024   1.991   2.158
  568SOL     OW 1714   2.290   2.286   2.382
  568SOL    HW1 1715   2.320   2.214   2.320
  568SOL    HW2 1716   2.251   2.246   2.465
   2.59519   2.59519   2.59519
