; mobley_3325209_GMX.itp created by acpype (v: 2023.10.27) on Thu May 14 13:43:40 2026

[ atomtypes ]
;name   bond_type     mass     charge   ptype   sigma         epsilon       Amb
 ca       ca          0.00000  0.00000   A     3.31521e-01   4.13379e-01 ; 1.86  0.0988
 c3       c3          0.00000  0.00000   A     3.39771e-01   4.51035e-01 ; 1.91  0.1078
 os       os          0.00000  0.00000   A     3.15610e-01   3.03758e-01 ; 1.77  0.0726
 ha       ha          0.00000  0.00000   A     2.62548e-01   6.73624e-02 ; 1.47  0.0161
 h1       h1          0.00000  0.00000   A     2.42200e-01   8.70272e-02 ; 1.36  0.0208

[ moleculetype ]
;name            nrexcl
 mobley_3325209   3

[ atoms ]
;   nr  type  resi  res  atom  cgnr     charge      mass       ; qtot   bond_type
     1   ca     1   MOL    C1    1    -0.114000     12.01000 ; qtot -0.114
     2   ca     1   MOL    C2    2    -0.142500     12.01000 ; qtot -0.256
     3   ca     1   MOL    C3    3    -0.142500     12.01000 ; qtot -0.399
     4   ca     1   MOL    C4    4    -0.093000     12.01000 ; qtot -0.492
     5   ca     1   MOL    C5    5    -0.093000     12.01000 ; qtot -0.585
     6   ca     1   MOL    C6    6    -0.131300     12.01000 ; qtot -0.716
     7   c3     1   MOL    C7    7     0.125367     12.01000 ; qtot -0.591
     8   c3     1   MOL    C8    8     0.125367     12.01000 ; qtot -0.466
     9   c3     1   MOL    C9    9     0.125367     12.01000 ; qtot -0.340
    10   c3     1   MOL   C10   10     0.565700     12.01000 ; qtot 0.226
    11   os     1   MOL    O1   11    -0.437933     16.00000 ; qtot -0.212
    12   os     1   MOL    O2   12    -0.437933     16.00000 ; qtot -0.650
    13   os     1   MOL    O3   13    -0.437933     16.00000 ; qtot -1.088
    14   ha     1   MOL    H1   14     0.133000      1.00800 ; qtot -0.955
    15   ha     1   MOL    H2   15     0.135500      1.00800 ; qtot -0.820
    16   ha     1   MOL    H3   16     0.135500      1.00800 ; qtot -0.684
    17   ha     1   MOL    H4   17     0.153500      1.00800 ; qtot -0.531
    18   ha     1   MOL    H5   18     0.153500      1.00800 ; qtot -0.377
    19   h1     1   MOL    H6   19     0.041922      1.00800 ; qtot -0.335
    20   h1     1   MOL    H7   20     0.041922      1.00800 ; qtot -0.293
    21   h1     1   MOL    H8   21     0.041922      1.00800 ; qtot -0.252
    22   h1     1   MOL    H9   22     0.041922      1.00800 ; qtot -0.210
    23   h1     1   MOL   H10   23     0.041922      1.00800 ; qtot -0.168
    24   h1     1   MOL   H11   24     0.041922      1.00800 ; qtot -0.126
    25   h1     1   MOL   H12   25     0.041922      1.00800 ; qtot -0.084
    26   h1     1   MOL   H13   26     0.041922      1.00800 ; qtot -0.042
    27   h1     1   MOL   H14   27     0.041922      1.00800 ; qtot -0.000

[ bonds ]
;   ai     aj funct   r             k
     1      2   1    1.3986e-01    2.9644e+05 ;     C1 - C2    
     1      3   1    1.3986e-01    2.9644e+05 ;     C1 - C3    
     1     14   1    1.0860e-01    3.0183e+05 ;     C1 - H1    
     2      4   1    1.3986e-01    2.9644e+05 ;     C2 - C4    
     2     15   1    1.0860e-01    3.0183e+05 ;     C2 - H2    
     3      5   1    1.3986e-01    2.9644e+05 ;     C3 - C5    
     3     16   1    1.0860e-01    3.0183e+05 ;     C3 - H3    
     4      6   1    1.3986e-01    2.9644e+05 ;     C4 - C6    
     4     17   1    1.0860e-01    3.0183e+05 ;     C4 - H4    
     5      6   1    1.3986e-01    2.9644e+05 ;     C5 - C6    
     5     18   1    1.0860e-01    3.0183e+05 ;     C5 - H5    
     6     10   1    1.5147e-01    2.0410e+05 ;     C6 - C10   
     7     11   1    1.4273e-01    2.3620e+05 ;     C7 - O1    
     7     19   1    1.0969e-01    2.8804e+05 ;     C7 - H6    
     7     20   1    1.0969e-01    2.8804e+05 ;     C7 - H7    
     7     21   1    1.0969e-01    2.8804e+05 ;     C7 - H8    
     8     12   1    1.4273e-01    2.3620e+05 ;     C8 - O2    
     8     22   1    1.0969e-01    2.8804e+05 ;     C8 - H9    
     8     23   1    1.0969e-01    2.8804e+05 ;     C8 - H10   
     8     24   1    1.0969e-01    2.8804e+05 ;     C8 - H11   
     9     13   1    1.4273e-01    2.3620e+05 ;     C9 - O3    
     9     25   1    1.0969e-01    2.8804e+05 ;     C9 - H12   
     9     26   1    1.0969e-01    2.8804e+05 ;     C9 - H13   
     9     27   1    1.0969e-01    2.8804e+05 ;     C9 - H14   
    10     11   1    1.4273e-01    2.3620e+05 ;    C10 - O1    
    10     12   1    1.4273e-01    2.3620e+05 ;    C10 - O2    
    10     13   1    1.4273e-01    2.3620e+05 ;    C10 - O3    

[ pairs ]
;   ai     aj    funct
     1      6      1 ;     C1 - C6    
     1     17      1 ;     C1 - H4    
     1     18      1 ;     C1 - H5    
     2      5      1 ;     C2 - C5    
     2     10      1 ;     C2 - C10   
     2     16      1 ;     C2 - H3    
     3      4      1 ;     C3 - C4    
     3     10      1 ;     C3 - C10   
     3     15      1 ;     C3 - H2    
     4     11      1 ;     C4 - O1    
     4     12      1 ;     C4 - O2    
     4     13      1 ;     C4 - O3    
     4     18      1 ;     C4 - H5    
     5     11      1 ;     C5 - O1    
     5     12      1 ;     C5 - O2    
     5     13      1 ;     C5 - O3    
     5     17      1 ;     C5 - H4    
     6      7      1 ;     C6 - C7    
     6      8      1 ;     C6 - C8    
     6      9      1 ;     C6 - C9    
     6     15      1 ;     C6 - H2    
     6     16      1 ;     C6 - H3    
     7     12      1 ;     C7 - O2    
     7     13      1 ;     C7 - O3    
     8     11      1 ;     C8 - O1    
     8     13      1 ;     C8 - O3    
     9     11      1 ;     C9 - O1    
     9     12      1 ;     C9 - O2    
    10     17      1 ;    C10 - H4    
    10     18      1 ;    C10 - H5    
    10     19      1 ;    C10 - H6    
    10     20      1 ;    C10 - H7    
    10     21      1 ;    C10 - H8    
    10     22      1 ;    C10 - H9    
    10     23      1 ;    C10 - H10   
    10     24      1 ;    C10 - H11   
    10     25      1 ;    C10 - H12   
    10     26      1 ;    C10 - H13   
    10     27      1 ;    C10 - H14   
    14      4      1 ;     H1 - C4    
    14      5      1 ;     H1 - C5    
    14     15      1 ;     H1 - H2    
    14     16      1 ;     H1 - H3    
    15     17      1 ;     H2 - H4    
    16     18      1 ;     H3 - H5    

[ angles ]
;   ai     aj     ak    funct   theta         cth
     1      2      4      1    1.2002e+02    5.3279e+02 ;     C1 - C2     - C4    
     1      2     15      1    1.1988e+02    3.7572e+02 ;     C1 - C2     - H2    
     1      3      5      1    1.2002e+02    5.3279e+02 ;     C1 - C3     - C5    
     1      3     16      1    1.1988e+02    3.7572e+02 ;     C1 - C3     - H3    
     2      1      3      1    1.2002e+02    5.3279e+02 ;     C2 - C1     - C3    
     2      1     14      1    1.1988e+02    3.7572e+02 ;     C2 - C1     - H1    
     2      4      6      1    1.2002e+02    5.3279e+02 ;     C2 - C4     - C6    
     2      4     17      1    1.1988e+02    3.7572e+02 ;     C2 - C4     - H4    
     3      1     14      1    1.1988e+02    3.7572e+02 ;     C3 - C1     - H1    
     3      5      6      1    1.2002e+02    5.3279e+02 ;     C3 - C5     - C6    
     3      5     18      1    1.1988e+02    3.7572e+02 ;     C3 - C5     - H5    
     4      2     15      1    1.1988e+02    3.7572e+02 ;     C4 - C2     - H2    
     4      6      5      1    1.2002e+02    5.3279e+02 ;     C4 - C6     - C5    
     4      6     10      1    1.2083e+02    5.0827e+02 ;     C4 - C6     - C10   
     5      3     16      1    1.1988e+02    3.7572e+02 ;     C5 - C3     - H3    
     5      6     10      1    1.2083e+02    5.0827e+02 ;     C5 - C6     - C10   
     6      4     17      1    1.1988e+02    3.7572e+02 ;     C6 - C4     - H4    
     6      5     18      1    1.1988e+02    3.7572e+02 ;     C6 - C5     - H5    
     6     10     11      1    1.0888e+02    6.4936e+02 ;     C6 - C10    - O1    
     6     10     12      1    1.0888e+02    6.4936e+02 ;     C6 - C10    - O2    
     6     10     13      1    1.0888e+02    6.4936e+02 ;     C6 - C10    - O3    
     7     11     10      1    1.1360e+02    7.3915e+02 ;     C7 - O1     - C10   
     8     12     10      1    1.1360e+02    7.3915e+02 ;     C8 - O2     - C10   
     9     13     10      1    1.1360e+02    7.3915e+02 ;     C9 - O3     - C10   
    11      7     19      1    1.1034e+02    4.7028e+02 ;     O1 - C7     - H6    
    11      7     20      1    1.1034e+02    4.7028e+02 ;     O1 - C7     - H7    
    11      7     21      1    1.1034e+02    4.7028e+02 ;     O1 - C7     - H8    
    11     10     12      1    1.0789e+02    8.2375e+02 ;     O1 - C10    - O2    
    11     10     13      1    1.0789e+02    8.2375e+02 ;     O1 - C10    - O3    
    12      8     22      1    1.1034e+02    4.7028e+02 ;     O2 - C8     - H9    
    12      8     23      1    1.1034e+02    4.7028e+02 ;     O2 - C8     - H10   
    12      8     24      1    1.1034e+02    4.7028e+02 ;     O2 - C8     - H11   
    12     10     13      1    1.0789e+02    8.2375e+02 ;     O2 - C10    - O3    
    13      9     25      1    1.1034e+02    4.7028e+02 ;     O3 - C9     - H12   
    13      9     26      1    1.1034e+02    4.7028e+02 ;     O3 - C9     - H13   
    13      9     27      1    1.1034e+02    4.7028e+02 ;     O3 - C9     - H14   
    19      7     20      1    1.0855e+02    2.9824e+02 ;     H6 - C7     - H7    
    19      7     21      1    1.0855e+02    2.9824e+02 ;     H6 - C7     - H8    
    20      7     21      1    1.0855e+02    2.9824e+02 ;     H7 - C7     - H8    
    22      8     23      1    1.0855e+02    2.9824e+02 ;     H9 - C8     - H10   
    22      8     24      1    1.0855e+02    2.9824e+02 ;     H9 - C8     - H11   
    23      8     24      1    1.0855e+02    2.9824e+02 ;    H10 - C8     - H11   
    25      9     26      1    1.0855e+02    2.9824e+02 ;    H12 - C9     - H13   
    25      9     27      1    1.0855e+02    2.9824e+02 ;    H12 - C9     - H14   
    26      9     27      1    1.0855e+02    2.9824e+02 ;    H13 - C9     - H14   

[ dihedrals ] ; propers
; for gromacs 4.5 or higher, using funct 9
;    i      j      k      l   func   phase     kd      pn
     1      2      4      6      9   180.00  15.16700   2 ;     C1-    C2-    C4-    C6
     1      2      4     17      9   180.00  15.16700   2 ;     C1-    C2-    C4-    H4
     1      3      5      6      9   180.00  15.16700   2 ;     C1-    C3-    C5-    C6
     1      3      5     18      9   180.00  15.16700   2 ;     C1-    C3-    C5-    H5
     2      1      3      5      9   180.00  15.16700   2 ;     C2-    C1-    C3-    C5
     2      1      3     16      9   180.00  15.16700   2 ;     C2-    C1-    C3-    H3
     2      4      6      5      9   180.00  15.16700   2 ;     C2-    C4-    C6-    C5
     2      4      6     10      9   180.00  15.16700   2 ;     C2-    C4-    C6-   C10
     3      1      2      4      9   180.00  15.16700   2 ;     C3-    C1-    C2-    C4
     3      1      2     15      9   180.00  15.16700   2 ;     C3-    C1-    C2-    H2
     3      5      6      4      9   180.00  15.16700   2 ;     C3-    C5-    C6-    C4
     3      5      6     10      9   180.00  15.16700   2 ;     C3-    C5-    C6-   C10
     4      6      5     18      9   180.00  15.16700   2 ;     C4-    C6-    C5-    H5
     4      6     10     11      9     0.00   0.00000   0 ;     C4-    C6-   C10-    O1
     4      6     10     12      9     0.00   0.00000   0 ;     C4-    C6-   C10-    O2
     4      6     10     13      9     0.00   0.00000   0 ;     C4-    C6-   C10-    O3
     5      6      4     17      9   180.00  15.16700   2 ;     C5-    C6-    C4-    H4
     5      6     10     11      9     0.00   0.00000   0 ;     C5-    C6-   C10-    O1
     5      6     10     12      9     0.00   0.00000   0 ;     C5-    C6-   C10-    O2
     5      6     10     13      9     0.00   0.00000   0 ;     C5-    C6-   C10-    O3
     6      4      2     15      9   180.00  15.16700   2 ;     C6-    C4-    C2-    H2
     6      5      3     16      9   180.00  15.16700   2 ;     C6-    C5-    C3-    H3
     6     10     11      7      9     0.00   1.60387   3 ;     C6-   C10-    O1-    C7
     6     10     12      8      9     0.00   1.60387   3 ;     C6-   C10-    O2-    C8
     6     10     13      9      9     0.00   1.60387   3 ;     C6-   C10-    O3-    C9
     7     11     10     12      9     0.00   3.55640   2 ;     C7-    O1-   C10-    O2
     7     11     10     12      9     0.00   3.55640   3 ;     C7-    O1-   C10-    O2
     7     11     10     12      9   180.00   1.92464   1 ;     C7-    O1-   C10-    O2
     7     11     10     13      9     0.00   3.55640   2 ;     C7-    O1-   C10-    O3
     7     11     10     13      9     0.00   3.55640   3 ;     C7-    O1-   C10-    O3
     7     11     10     13      9   180.00   1.92464   1 ;     C7-    O1-   C10-    O3
     8     12     10     11      9     0.00   3.55640   2 ;     C8-    O2-   C10-    O1
     8     12     10     11      9     0.00   3.55640   3 ;     C8-    O2-   C10-    O1
     8     12     10     11      9   180.00   1.92464   1 ;     C8-    O2-   C10-    O1
     8     12     10     13      9     0.00   3.55640   2 ;     C8-    O2-   C10-    O3
     8     12     10     13      9     0.00   3.55640   3 ;     C8-    O2-   C10-    O3
     8     12     10     13      9   180.00   1.92464   1 ;     C8-    O2-   C10-    O3
     9     13     10     11      9     0.00   3.55640   2 ;     C9-    O3-   C10-    O1
     9     13     10     11      9     0.00   3.55640   3 ;     C9-    O3-   C10-    O1
     9     13     10     11      9   180.00   1.92464   1 ;     C9-    O3-   C10-    O1
     9     13     10     12      9     0.00   3.55640   2 ;     C9-    O3-   C10-    O2
     9     13     10     12      9     0.00   3.55640   3 ;     C9-    O3-   C10-    O2
     9     13     10     12      9   180.00   1.92464   1 ;     C9-    O3-   C10-    O2
    10      6      4     17      9   180.00  15.16700   2 ;    C10-    C6-    C4-    H4
    10      6      5     18      9   180.00  15.16700   2 ;    C10-    C6-    C5-    H5
    10     11      7     19      9     0.00   1.41001   3 ;    C10-    O1-    C7-    H6
    10     11      7     20      9     0.00   1.41001   3 ;    C10-    O1-    C7-    H7
    10     11      7     21      9     0.00   1.41001   3 ;    C10-    O1-    C7-    H8
    10     12      8     22      9     0.00   1.41001   3 ;    C10-    O2-    C8-    H9
    10     12      8     23      9     0.00   1.41001   3 ;    C10-    O2-    C8-   H10
    10     12      8     24      9     0.00   1.41001   3 ;    C10-    O2-    C8-   H11
    10     13      9     25      9     0.00   1.41001   3 ;    C10-    O3-    C9-   H12
    10     13      9     26      9     0.00   1.41001   3 ;    C10-    O3-    C9-   H13
    10     13      9     27      9     0.00   1.41001   3 ;    C10-    O3-    C9-   H14
    14      1      2      4      9   180.00  15.16700   2 ;     H1-    C1-    C2-    C4
    14      1      2     15      9   180.00  15.16700   2 ;     H1-    C1-    C2-    H2
    14      1      3      5      9   180.00  15.16700   2 ;     H1-    C1-    C3-    C5
    14      1      3     16      9   180.00  15.16700   2 ;     H1-    C1-    C3-    H3
    15      2      4     17      9   180.00  15.16700   2 ;     H2-    C2-    C4-    H4
    16      3      5     18      9   180.00  15.16700   2 ;     H3-    C3-    C5-    H5

[ dihedrals ] ; impropers
; treated as propers in GROMACS to use correct AMBER analytical function
;    i      j      k      l   func   phase     kd      pn
     1      4      2     15      4   180.00   4.60240   2 ;     C1-    C4-    C2-    H2
     1      5      3     16      4   180.00   4.60240   2 ;     C1-    C5-    C3-    H3
     2      6      4     17      4   180.00   4.60240   2 ;     C2-    C6-    C4-    H4
     3      6      5     18      4   180.00   4.60240   2 ;     C3-    C6-    C5-    H5
     4      5      6     10      4   180.00   4.60240   2 ;     C4-    C5-    C6-   C10
    14      1      3      2      4   180.00   4.60240   2 ;     H1-    C1-    C3-    C2
