; mobley_8208692_GMX.itp created by acpype (v: 2023.10.27) on Thu May 14 13:24:57 2026

[ atomtypes ]
;name   bond_type     mass     charge   ptype   sigma         epsilon       Amb
 ca       ca          0.00000  0.00000   A     3.31521e-01   4.13379e-01 ; 1.86  0.0988
 cp       cp          0.00000  0.00000   A     3.31521e-01   4.13379e-01 ; 1.86  0.0988
 cl       cl          0.00000  0.00000   A     3.46595e-01   1.10374e+00 ; 1.95  0.2638
 ha       ha          0.00000  0.00000   A     2.62548e-01   6.73624e-02 ; 1.47  0.0161

[ moleculetype ]
;name            nrexcl
 mobley_8208692   3

[ atoms ]
;   nr  type  resi  res  atom  cgnr     charge      mass       ; qtot   bond_type
     1   ca     1   MOL    C1    1    -0.085000     12.01000 ; qtot -0.085
     2   ca     1   MOL    C2    2    -0.120000     12.01000 ; qtot -0.205
     3   cp     1   MOL    C3    3    -0.027000     12.01000 ; qtot -0.232
     4   cp     1   MOL    C4    4    -0.033000     12.01000 ; qtot -0.265
     5   ca     1   MOL    C5    5     0.018400     12.01000 ; qtot -0.247
     6   ca     1   MOL    C6    6     0.048400     12.01000 ; qtot -0.198
     7   ca     1   MOL    C7    7     0.038400     12.01000 ; qtot -0.160
     8   ca     1   MOL    C8    8     0.046400     12.01000 ; qtot -0.113
     9   ca     1   MOL    C9    9     0.049400     12.01000 ; qtot -0.064
    10   ca     1   MOL   C10   10     0.031400     12.01000 ; qtot -0.033
    11   ca     1   MOL   C11   11     0.009400     12.01000 ; qtot -0.023
    12   ca     1   MOL   C12   12     0.018400     12.01000 ; qtot -0.005
    13   cl     1   MOL   CL1   13    -0.050400     35.45000 ; qtot -0.055
    14   cl     1   MOL   CL2   14    -0.054400     35.45000 ; qtot -0.110
    15   cl     1   MOL   CL3   15    -0.046400     35.45000 ; qtot -0.156
    16   cl     1   MOL   CL4   16    -0.040400     35.45000 ; qtot -0.196
    17   cl     1   MOL   CL5   17    -0.038400     35.45000 ; qtot -0.235
    18   cl     1   MOL   CL6   18    -0.033400     35.45000 ; qtot -0.268
    19   cl     1   MOL   CL7   19    -0.033400     35.45000 ; qtot -0.302
    20   cl     1   MOL   CL8   20    -0.034400     35.45000 ; qtot -0.336
    21   ha     1   MOL    H1   21     0.166000      1.00800 ; qtot -0.170
    22   ha     1   MOL    H2   22     0.170000      1.00800 ; qtot 0.000

[ bonds ]
;   ai     aj funct   r             k
     1      3   1    1.4056e-01    2.8959e+05 ;     C1 - C3    
     1      5   1    1.3986e-01    2.9644e+05 ;     C1 - C5    
     1     21   1    1.0860e-01    3.0183e+05 ;     C1 - H1    
     2      6   1    1.3986e-01    2.9644e+05 ;     C2 - C6    
     2      7   1    1.3986e-01    2.9644e+05 ;     C2 - C7    
     2     22   1    1.0860e-01    3.0183e+05 ;     C2 - H2    
     3      4   1    1.4829e-01    2.2541e+05 ;     C3 - C4    
     3      8   1    1.4056e-01    2.8959e+05 ;     C3 - C8    
     4      6   1    1.4056e-01    2.8959e+05 ;     C4 - C6    
     4      9   1    1.4056e-01    2.8959e+05 ;     C4 - C9    
     5     10   1    1.3986e-01    2.9644e+05 ;     C5 - C10   
     5     13   1    1.7572e-01    1.5730e+05 ;     C5 - CL1   
     6     14   1    1.7572e-01    1.5730e+05 ;     C6 - CL2   
     7     11   1    1.3986e-01    2.9644e+05 ;     C7 - C11   
     7     15   1    1.7572e-01    1.5730e+05 ;     C7 - CL3   
     8     12   1    1.3986e-01    2.9644e+05 ;     C8 - C12   
     8     16   1    1.7572e-01    1.5730e+05 ;     C8 - CL4   
     9     11   1    1.3986e-01    2.9644e+05 ;     C9 - C11   
     9     17   1    1.7572e-01    1.5730e+05 ;     C9 - CL5   
    10     12   1    1.3986e-01    2.9644e+05 ;    C10 - C12   
    10     18   1    1.7572e-01    1.5730e+05 ;    C10 - CL6   
    11     19   1    1.7572e-01    1.5730e+05 ;    C11 - CL7   
    12     20   1    1.7572e-01    1.5730e+05 ;    C12 - CL8   

[ pairs ]
;   ai     aj    funct
     1      6      1 ;     C1 - C6    
     1      9      1 ;     C1 - C9    
     1     12      1 ;     C1 - C12   
     1     16      1 ;     C1 - CL4   
     1     18      1 ;     C1 - CL6   
     2      3      1 ;     C2 - C3    
     2      9      1 ;     C2 - C9    
     2     19      1 ;     C2 - CL7   
     3     10      1 ;     C3 - C10   
     3     11      1 ;     C3 - C11   
     3     13      1 ;     C3 - CL1   
     3     14      1 ;     C3 - CL2   
     3     17      1 ;     C3 - CL5   
     3     20      1 ;     C3 - CL8   
     4      7      1 ;     C4 - C7    
     4     12      1 ;     C4 - C12   
     4     16      1 ;     C4 - CL4   
     4     19      1 ;     C4 - CL7   
     4     22      1 ;     C4 - H2    
     5      4      1 ;     C5 - C4    
     5      8      1 ;     C5 - C8    
     5     20      1 ;     C5 - CL8   
     6      8      1 ;     C6 - C8    
     6     11      1 ;     C6 - C11   
     6     15      1 ;     C6 - CL3   
     6     17      1 ;     C6 - CL5   
     7     14      1 ;     C7 - CL2   
     7     17      1 ;     C7 - CL5   
     8      9      1 ;     C8 - C9    
     8     18      1 ;     C8 - CL6   
     9     14      1 ;     C9 - CL2   
     9     15      1 ;     C9 - CL3   
    10     16      1 ;    C10 - CL4   
    11     22      1 ;    C11 - H2    
    12     13      1 ;    C12 - CL1   
    13     18      1 ;    CL1 - CL6   
    14     22      1 ;    CL2 - H2    
    15     19      1 ;    CL3 - CL7   
    15     22      1 ;    CL3 - H2    
    16     20      1 ;    CL4 - CL8   
    17     19      1 ;    CL5 - CL7   
    18     20      1 ;    CL6 - CL8   
    21      4      1 ;     H1 - C4    
    21      8      1 ;     H1 - C8    
    21     10      1 ;     H1 - C10   
    21     13      1 ;     H1 - CL1   

[ angles ]
;   ai     aj     ak    funct   theta         cth
     1      3      4      1    1.2110e+02    5.1296e+02 ;     C1 - C3     - C4    
     1      3      8      1    1.1841e+02    5.3379e+02 ;     C1 - C3     - C8    
     1      5     10      1    1.2002e+02    5.3279e+02 ;     C1 - C5     - C10   
     1      5     13      1    1.1938e+02    5.3605e+02 ;     C1 - C5     - CL1   
     2      6      4      1    1.2073e+02    5.2995e+02 ;     C2 - C6     - C4    
     2      6     14      1    1.1938e+02    5.3605e+02 ;     C2 - C6     - CL2   
     2      7     11      1    1.2002e+02    5.3279e+02 ;     C2 - C7     - C11   
     2      7     15      1    1.1938e+02    5.3605e+02 ;     C2 - C7     - CL3   
     3      1      5      1    1.2073e+02    5.2995e+02 ;     C3 - C1     - C5    
     3      1     21      1    1.1982e+02    3.7430e+02 ;     C3 - C1     - H1    
     3      4      6      1    1.2110e+02    5.1296e+02 ;     C3 - C4     - C6    
     3      4      9      1    1.2110e+02    5.1296e+02 ;     C3 - C4     - C9    
     3      8     12      1    1.2073e+02    5.2995e+02 ;     C3 - C8     - C12   
     3      8     16      1    1.2044e+02    5.3304e+02 ;     C3 - C8     - CL4   
     4      3      8      1    1.2110e+02    5.1296e+02 ;     C4 - C3     - C8    
     4      6     14      1    1.2044e+02    5.3304e+02 ;     C4 - C6     - CL2   
     4      9     11      1    1.2073e+02    5.2995e+02 ;     C4 - C9     - C11   
     4      9     17      1    1.2044e+02    5.3304e+02 ;     C4 - C9     - CL5   
     5      1     21      1    1.1988e+02    3.7572e+02 ;     C5 - C1     - H1    
     5     10     12      1    1.2002e+02    5.3279e+02 ;     C5 - C10    - C12   
     5     10     18      1    1.1938e+02    5.3605e+02 ;     C5 - C10    - CL6   
     6      2      7      1    1.2002e+02    5.3279e+02 ;     C6 - C2     - C7    
     6      2     22      1    1.1988e+02    3.7572e+02 ;     C6 - C2     - H2    
     6      4      9      1    1.1841e+02    5.3379e+02 ;     C6 - C4     - C9    
     7      2     22      1    1.1988e+02    3.7572e+02 ;     C7 - C2     - H2    
     7     11      9      1    1.2002e+02    5.3279e+02 ;     C7 - C11    - C9    
     7     11     19      1    1.1938e+02    5.3605e+02 ;     C7 - C11    - CL7   
     8     12     10      1    1.2002e+02    5.3279e+02 ;     C8 - C12    - C10   
     8     12     20      1    1.1938e+02    5.3605e+02 ;     C8 - C12    - CL8   
     9     11     19      1    1.1938e+02    5.3605e+02 ;     C9 - C11    - CL7   
    10      5     13      1    1.1938e+02    5.3605e+02 ;    C10 - C5     - CL1   
    10     12     20      1    1.1938e+02    5.3605e+02 ;    C10 - C12    - CL8   
    11      7     15      1    1.1938e+02    5.3605e+02 ;    C11 - C7     - CL3   
    11      9     17      1    1.1938e+02    5.3605e+02 ;    C11 - C9     - CL5   
    12      8     16      1    1.1938e+02    5.3605e+02 ;    C12 - C8     - CL4   
    12     10     18      1    1.1938e+02    5.3605e+02 ;    C12 - C10    - CL6   

[ dihedrals ] ; propers
; for gromacs 4.5 or higher, using funct 9
;    i      j      k      l   func   phase     kd      pn
     1      3      4      6      9   180.00   3.20076   2 ;     C1-    C3-    C4-    C6
     1      3      4      9      9   180.00   3.20076   2 ;     C1-    C3-    C4-    C9
     1      3      8     12      9   180.00  15.16700   2 ;     C1-    C3-    C8-   C12
     1      3      8     16      9   180.00  15.16700   2 ;     C1-    C3-    C8-   CL4
     1      5     10     12      9   180.00  15.16700   2 ;     C1-    C5-   C10-   C12
     1      5     10     18      9   180.00  15.16700   2 ;     C1-    C5-   C10-   CL6
     2      6      4      3      9   180.00  15.16700   2 ;     C2-    C6-    C4-    C3
     2      6      4      9      9   180.00  15.16700   2 ;     C2-    C6-    C4-    C9
     2      7     11      9      9   180.00  15.16700   2 ;     C2-    C7-   C11-    C9
     2      7     11     19      9   180.00  15.16700   2 ;     C2-    C7-   C11-   CL7
     3      1      5     10      9   180.00  15.16700   2 ;     C3-    C1-    C5-   C10
     3      1      5     13      9   180.00  15.16700   2 ;     C3-    C1-    C5-   CL1
     3      4      6     14      9   180.00  15.16700   2 ;     C3-    C4-    C6-   CL2
     3      4      9     11      9   180.00  15.16700   2 ;     C3-    C4-    C9-   C11
     3      4      9     17      9   180.00  15.16700   2 ;     C3-    C4-    C9-   CL5
     3      8     12     10      9   180.00  15.16700   2 ;     C3-    C8-   C12-   C10
     3      8     12     20      9   180.00  15.16700   2 ;     C3-    C8-   C12-   CL8
     4      3      8     12      9   180.00  15.16700   2 ;     C4-    C3-    C8-   C12
     4      3      8     16      9   180.00  15.16700   2 ;     C4-    C3-    C8-   CL4
     4      6      2      7      9   180.00  15.16700   2 ;     C4-    C6-    C2-    C7
     4      6      2     22      9   180.00  15.16700   2 ;     C4-    C6-    C2-    H2
     4      9     11      7      9   180.00  15.16700   2 ;     C4-    C9-   C11-    C7
     4      9     11     19      9   180.00  15.16700   2 ;     C4-    C9-   C11-   CL7
     5      1      3      4      9   180.00  15.16700   2 ;     C5-    C1-    C3-    C4
     5      1      3      8      9   180.00  15.16700   2 ;     C5-    C1-    C3-    C8
     5     10     12      8      9   180.00  15.16700   2 ;     C5-   C10-   C12-    C8
     5     10     12     20      9   180.00  15.16700   2 ;     C5-   C10-   C12-   CL8
     6      2      7     11      9   180.00  15.16700   2 ;     C6-    C2-    C7-   C11
     6      2      7     15      9   180.00  15.16700   2 ;     C6-    C2-    C7-   CL3
     6      4      3      8      9   180.00   3.20076   2 ;     C6-    C4-    C3-    C8
     6      4      9     11      9   180.00  15.16700   2 ;     C6-    C4-    C9-   C11
     6      4      9     17      9   180.00  15.16700   2 ;     C6-    C4-    C9-   CL5
     7      2      6     14      9   180.00  15.16700   2 ;     C7-    C2-    C6-   CL2
     7     11      9     17      9   180.00  15.16700   2 ;     C7-   C11-    C9-   CL5
     8      3      4      9      9   180.00   3.20076   2 ;     C8-    C3-    C4-    C9
     8     12     10     18      9   180.00  15.16700   2 ;     C8-   C12-   C10-   CL6
     9      4      6     14      9   180.00  15.16700   2 ;     C9-    C4-    C6-   CL2
     9     11      7     15      9   180.00  15.16700   2 ;     C9-   C11-    C7-   CL3
    10     12      8     16      9   180.00  15.16700   2 ;    C10-   C12-    C8-   CL4
    11      7      2     22      9   180.00  15.16700   2 ;    C11-    C7-    C2-    H2
    12     10      5     13      9   180.00  15.16700   2 ;    C12-   C10-    C5-   CL1
    13      5     10     18      9   180.00  15.16700   2 ;    CL1-    C5-   C10-   CL6
    14      6      2     22      9   180.00  15.16700   2 ;    CL2-    C6-    C2-    H2
    15      7      2     22      9   180.00  15.16700   2 ;    CL3-    C7-    C2-    H2
    15      7     11     19      9   180.00  15.16700   2 ;    CL3-    C7-   C11-   CL7
    16      8     12     20      9   180.00  15.16700   2 ;    CL4-    C8-   C12-   CL8
    17      9     11     19      9   180.00  15.16700   2 ;    CL5-    C9-   C11-   CL7
    18     10     12     20      9   180.00  15.16700   2 ;    CL6-   C10-   C12-   CL8
    21      1      3      4      9   180.00  15.16700   2 ;     H1-    C1-    C3-    C4
    21      1      3      8      9   180.00  15.16700   2 ;     H1-    C1-    C3-    C8
    21      1      5     10      9   180.00  15.16700   2 ;     H1-    C1-    C5-   C10
    21      1      5     13      9   180.00  15.16700   2 ;     H1-    C1-    C5-   CL1

[ dihedrals ] ; impropers
; treated as propers in GROMACS to use correct AMBER analytical function
;    i      j      k      l   func   phase     kd      pn
     1      8      3      4      4   180.00   4.60240   2 ;     C1-    C8-    C3-    C4
     1     10      5     13      4   180.00   4.60240   2 ;     C1-   C10-    C5-   CL1
     2     11      7     15      4   180.00   4.60240   2 ;     C2-   C11-    C7-   CL3
     2     14      6      4      4   180.00   4.60240   2 ;     C2-   CL2-    C6-    C4
     5     12     10     18      4   180.00   4.60240   2 ;     C5-   C12-   C10-   CL6
     6      7      2     22      4   180.00   4.60240   2 ;     C6-    C7-    C2-    H2
     6      9      4      3      4   180.00   4.60240   2 ;     C6-    C9-    C4-    C3
     7      9     11     19      4   180.00   4.60240   2 ;     C7-    C9-   C11-   CL7
     8     10     12     20      4   180.00   4.60240   2 ;     C8-   C10-   C12-   CL8
    11     17      9      4      4   180.00   4.60240   2 ;    C11-   CL5-    C9-    C4
    12     16      8      3      4   180.00   4.60240   2 ;    C12-   CL4-    C8-    C3
    21      1      3      5      4   180.00   4.60240   2 ;     H1-    C1-    C3-    C5
