mobley_6843802_GMX.gro created by acpype (v: 2023.10.27) on Thu May 14 13:29:21 2026
 2173
    1MOL     C1    1   1.466   1.420   1.113
    1MOL     C2    2   1.359   1.480   1.180
    1MOL     C3    3   1.571   1.364   1.185
    1MOL     C4    4   1.357   1.483   1.320
    1MOL     C5    5   1.569   1.367   1.325
    1MOL     C6    6   1.462   1.426   1.392
    1MOL     C7    7   1.333   1.428   1.593
    1MOL     C8    8   1.348   1.363   1.729
    1MOL     O1    9   1.460   1.429   1.528
    1MOL     F1   10   1.293   1.556   1.612
    1MOL     F2   11   1.229   1.365   1.794
    1MOL     F3   12   1.435   1.434   1.804
    1MOL     H1   13   1.467   1.418   1.004
    1MOL     H2   14   1.277   1.524   1.124
    1MOL     H3   15   1.654   1.317   1.133
    1MOL     H4   16   1.274   1.530   1.372
    1MOL     H5   17   1.651   1.322   1.381
    1MOL     H6   18   1.258   1.374   1.534
    1MOL     H7   19   1.384   1.260   1.722
    2SOL     OW   20   0.230   0.628   0.113
    2SOL    HW1   21   0.137   0.626   0.150
    2SOL    HW2   22   0.231   0.589   0.021
    3SOL     OW   23   0.225   0.275   0.996
    3SOL    HW1   24   0.260   0.258   1.088
    3SOL    HW2   25   0.137   0.230   0.984
    4SOL     OW   26   0.019   0.368   0.647
    4SOL    HW1   27  -0.063   0.411   0.686
    4SOL    HW2   28  -0.009   0.295   0.584
    5SOL     OW   29   0.569   1.275   1.165
    5SOL    HW1   30   0.476   1.268   1.128
    5SOL    HW2   31   0.580   1.364   1.209
    6SOL     OW   32   1.555   1.511   0.703
    6SOL    HW1   33   1.498   1.495   0.784
    6SOL    HW2   34   1.496   1.521   0.623
    7SOL     OW   35   1.135   0.703   0.717
    7SOL    HW1   36   1.192   0.781   0.692
    7SOL    HW2   37   1.075   0.729   0.793
    8SOL     OW   38   1.755   0.607   0.231
    8SOL    HW1   39   1.743   0.594   0.132
    8SOL    HW2   40   1.725   0.526   0.280
    9SOL     OW   41   0.768   1.144   1.023
    9SOL    HW1   42   0.690   1.161   1.083
    9SOL    HW2   43   0.802   1.231   0.987
   10SOL     OW   44   0.850   0.798   1.823
   10SOL    HW1   45   0.846   0.874   1.888
   10SOL    HW2   46   0.872   0.834   1.732
   11SOL     OW   47   0.685   1.012   0.665
   11SOL    HW1   48   0.754   0.996   0.735
   11SOL    HW2   49   0.612   1.069   0.703
   12SOL     OW   50   0.686   1.161   1.803
   12SOL    HW1   51   0.746   1.240   1.817
   12SOL    HW2   52   0.600   1.192   1.762
   13SOL     OW   53   0.335   1.435   1.061
   13SOL    HW1   54   0.257   1.404   1.008
   13SOL    HW2   55   0.393   1.493   1.004
   14SOL     OW   56   0.438   0.392   1.499
   14SOL    HW1   57   0.520   0.336   1.508
   14SOL    HW2   58   0.357   0.334   1.503
   15SOL     OW   59   1.603   0.447   0.737
   15SOL    HW1   60   1.529   0.493   0.687
   15SOL    HW2   61   1.654   0.515   0.790
   16SOL     OW   62   0.231   1.713   0.483
   16SOL    HW1   63   0.265   1.790   0.537
   16SOL    HW2   64   0.275   1.713   0.393
   17SOL     OW   65   0.230   1.434   0.538
   17SOL    HW1   66   0.204   1.530   0.538
   17SOL    HW2   67   0.159   1.380   0.583
   18SOL     OW   68   0.240   1.091   0.886
   18SOL    HW1   69   0.254   1.007   0.938
   18SOL    HW2   70   0.185   1.155   0.941
   19SOL     OW   71   0.620   1.786   1.439
   19SOL    HW1   72   0.528   1.769   1.474
   19SOL    HW2   73   0.648   1.878   1.465
   20SOL     OW   74   0.606   0.964   0.123
   20SOL    HW1   75   0.613   1.048   0.069
   20SOL    HW2   76   0.652   0.977   0.211
   21SOL     OW   77   1.594   0.114   1.480
   21SOL    HW1   78   1.576   0.181   1.408
   21SOL    HW2   79   1.591   0.160   1.569
   22SOL     OW   80   0.122   0.643   0.563
   22SOL    HW1   81   0.077   0.555   0.580
   22SOL    HW2   82   0.121   0.697   0.647
   23SOL     OW   83   1.842   1.767   0.359
   23SOL    HW1   84   1.896   1.738   0.439
   23SOL    HW2   85   1.872   1.857   0.330
   24SOL     OW   86   0.027   1.596   0.117
   24SOL    HW1   87   0.008   1.500   0.138
   24SOL    HW2   88  -0.006   1.654   0.192
   25SOL     OW   89   1.689   0.922   0.612
   25SOL    HW1   90   1.784   0.893   0.620
   25SOL    HW2   91   1.681   0.987   0.537
   26SOL     OW   92   1.641   1.108   0.432
   26SOL    HW1   93   1.727   1.110   0.380
   26SOL    HW2   94   1.655   1.155   0.520
   27SOL     OW   95   0.113   0.737   1.597
   27SOL    HW1   96   0.201   0.724   1.642
   27SOL    HW2   97   0.100   0.834   1.575
   28SOL     OW   98   0.613   1.365   0.726
   28SOL    HW1   99   0.564   1.278   0.735
   28SOL    HW2  100   0.590   1.408   0.639
   29SOL     OW  101   1.293   1.228   1.423
   29SOL    HW1  102   1.330   1.155   1.365
   29SOL    HW2  103   1.345   1.233   1.508
   30SOL     OW  104   0.809   0.004   0.502
   30SOL    HW1  105   0.849   0.095   0.493
   30SOL    HW2  106   0.709   0.012   0.508
   31SOL     OW  107   0.197   0.976   1.264
   31SOL    HW1  108   0.286   0.931   1.250
   31SOL    HW2  109   0.124   0.911   1.245
   32SOL     OW  110   1.525   0.999   0.190
   32SOL    HW1  111   1.462   0.923   0.203
   32SOL    HW2  112   1.573   1.017   0.276
   33SOL     OW  113   1.187   1.792   1.616
   33SOL    HW1  114   1.211   1.852   1.540
   33SOL    HW2  115   1.194   1.697   1.586
   34SOL     OW  116   0.317   0.251   1.801
   34SOL    HW1  117   0.388   0.322   1.807
   34SOL    HW2  118   0.229   0.290   1.829
   35SOL     OW  119   1.667   1.714   0.572
   35SOL    HW1  120   1.626   1.691   0.484
   35SOL    HW2  121   1.649   1.640   0.637
   36SOL     OW  122   0.598   0.729   0.270
   36SOL    HW1  123   0.622   0.798   0.202
   36SOL    HW2  124   0.520   0.762   0.324
   37SOL     OW  125   1.281   0.345   0.944
   37SOL    HW1  126   1.195   0.295   0.931
   37SOL    HW2  127   1.343   0.291   1.000
   38SOL     OW  128   1.576   1.662   0.307
   38SOL    HW1  129   1.665   1.708   0.310
   38SOL    HW2  130   1.555   1.638   0.212
   39SOL     OW  131   0.807   0.605   1.465
   39SOL    HW1  132   0.760   0.602   1.554
   39SOL    HW2  133   0.756   0.550   1.399
   40SOL     OW  134   1.394   0.469   1.674
   40SOL    HW1  135   1.374   0.512   1.762
   40SOL    HW2  136   1.472   0.407   1.683
   41SOL     OW  137   0.973   0.890   1.572
   41SOL    HW1  138   1.019   0.806   1.543
   41SOL    HW2  139   0.917   0.924   1.497
   42SOL     OW  140   0.991   0.410   1.242
   42SOL    HW1  141   0.914   0.444   1.296
   42SOL    HW2  142   0.957   0.359   1.163
   43SOL     OW  143   1.041   0.701   0.429
   43SOL    HW1  144   1.067   0.697   0.525
   43SOL    HW2  145   0.956   0.650   0.415
   44SOL     OW  146   0.076   0.811   0.789
   44SOL    HW1  147   0.175   0.799   0.798
   44SOL    HW2  148   0.052   0.906   0.810
   45SOL     OW  149   0.130   1.821   1.571
   45SOL    HW1  150   0.120   1.806   1.670
   45SOL    HW2  151   0.044   1.857   1.535
   46SOL     OW  152   0.865   0.348   0.195
   46SOL    HW1  153   0.924   0.411   0.146
   46SOL    HW2  154   0.884   0.254   0.166
   47SOL     OW  155   1.719   0.585   1.831
   47SOL    HW1  156   1.693   0.674   1.795
   47SOL    HW2  157   1.717   0.517   1.758
   48SOL     OW  158   1.362   1.144   0.545
   48SOL    HW1  159   1.445   1.115   0.497
   48SOL    HW2  160   1.313   1.211   0.489
   49SOL     OW  161   0.550   0.196   0.885
   49SOL    HW1  162   0.545   0.191   0.985
   49SOL    HW2  163   0.552   0.292   0.856
   50SOL     OW  164   1.008   1.456   0.477
   50SOL    HW1  165   0.962   1.528   0.425
   50SOL    HW2  166   1.004   1.476   0.575
   51SOL     OW  167   0.351   1.801   0.853
   51SOL    HW1  168   0.401   1.715   0.859
   51SOL    HW2  169   0.416   1.878   0.850
   52SOL     OW  170   1.795   1.066   0.873
   52SOL    HW1  171   1.733   1.051   0.797
   52SOL    HW2  172   1.743   1.077   0.958
   53SOL     OW  173   0.321   0.943   0.242
   53SOL    HW1  174   0.403   0.982   0.200
   53SOL    HW2  175   0.294   0.861   0.193
   54SOL     OW  176   1.458   0.735   0.728
   54SOL    HW1  177   1.453   0.670   0.803
   54SOL    HW2  178   1.538   0.794   0.741
   55SOL     OW  179   0.461   1.266   1.727
   55SOL    HW1  180   0.411   1.267   1.641
   55SOL    HW2  181   0.398   1.248   1.803
   56SOL     OW  182   1.111   1.776   0.237
   56SOL    HW1  183   1.051   1.714   0.287
   56SOL    HW2  184   1.142   1.732   0.152
   57SOL     OW  185   0.202   0.285   1.498
   57SOL    HW1  186   0.122   0.345   1.485
   57SOL    HW2  187   0.192   0.236   1.584
   58SOL     OW  188   1.632   1.377   0.081
   58SOL    HW1  189   1.600   1.471   0.071
   58SOL    HW2  190   1.556   1.314   0.069
   59SOL     OW  191   0.464   1.743   0.323
   59SOL    HW1  192   0.497   1.782   0.409
   59SOL    HW2  193   0.540   1.736   0.258
   60SOL     OW  194   1.400   0.107   0.426
   60SOL    HW1  195   1.376   0.070   0.336
   60SOL    HW2  196   1.499   0.123   0.430
   61SOL     OW  197   0.249   1.785   1.241
   61SOL    HW1  198   0.306   1.720   1.291
   61SOL    HW2  199   0.233   1.752   1.148
   62SOL     OW  200   0.940   1.698   0.904
   62SOL    HW1  201   1.020   1.641   0.925
   62SOL    HW2  202   0.891   1.658   0.827
   63SOL     OW  203   0.382   0.700   0.480
   63SOL    HW1  204   0.427   0.610   0.477
   63SOL    HW2  205   0.288   0.689   0.513
   64SOL     OW  206   1.547   0.222   1.729
   64SOL    HW1  207   1.542   0.259   1.821
   64SOL    HW2  208   1.475   0.153   1.717
   65SOL     OW  209   0.614   0.122   0.117
   65SOL    HW1  210   0.712   0.100   0.124
   65SOL    HW2  211   0.583   0.105   0.024
   66SOL     OW  212   0.781   0.264   1.749
   66SOL    HW1  213   0.848   0.203   1.792
   66SOL    HW2  214   0.708   0.283   1.814
   67SOL     OW  215   0.888   1.514   1.195
   67SOL    HW1  216   0.865   1.489   1.101
   67SOL    HW2  217   0.949   1.445   1.234
   68SOL     OW  218   1.351   0.590   1.433
   68SOL    HW1  219   1.379   0.547   1.518
   68SOL    HW2  220   1.376   0.686   1.434
   69SOL     OW  221   0.803   1.402   0.924
   69SOL    HW1  222   0.893   1.416   0.882
   69SOL    HW2  223   0.732   1.404   0.853
   70SOL     OW  224   0.922   0.503   0.899
   70SOL    HW1  225   0.897   0.494   0.803
   70SOL    HW2  226   0.970   0.421   0.930
   71SOL     OW  227   0.539   0.064   0.512
   71SOL    HW1  228   0.458   0.065   0.570
   71SOL    HW2  229   0.542   0.147   0.457
   72SOL     OW  230   1.434   1.188   0.041
   72SOL    HW1  231   1.466   1.112   0.098
   72SOL    HW2  232   1.342   1.215   0.071
   73SOL     OW  233   0.297   0.035   0.171
   73SOL    HW1  234   0.346   0.119   0.150
   73SOL    HW2  235   0.359  -0.030   0.216
   74SOL     OW  236   0.935   0.236   0.480
   74SOL    HW1  237   0.887   0.277   0.402
   74SOL    HW2  238   1.034   0.234   0.461
   75SOL     OW  239   1.076   0.683   1.464
   75SOL    HW1  240   0.996   0.622   1.467
   75SOL    HW2  241   1.157   0.630   1.440
   76SOL     OW  242   1.227   1.570   0.793
   76SOL    HW1  243   1.248   1.644   0.728
   76SOL    HW2  244   1.295   1.570   0.866
   77SOL     OW  245   0.459   1.152   0.741
   77SOL    HW1  246   0.388   1.125   0.806
   77SOL    HW2  247   0.433   1.124   0.648
   78SOL     OW  248   1.271   1.797   0.591
   78SOL    HW1  249   1.315   1.861   0.527
   78SOL    HW2  250   1.221   1.849   0.661
   79SOL     OW  251   1.032   0.549   0.016
   79SOL    HW1  252   0.991   0.631  -0.023
   79SOL    HW2  253   1.096   0.575   0.089
   80SOL     OW  254   0.078   0.556   1.386
   80SOL    HW1  255   0.170   0.555   1.345
   80SOL    HW2  256   0.072   0.630   1.453
   81SOL     OW  257   0.561   0.222   1.147
   81SOL    HW1  258   0.599   0.138   1.184
   81SOL    HW2  259   0.473   0.241   1.191
   82SOL     OW  260   0.866   0.454   0.642
   82SOL    HW1  261   0.834   0.526   0.580
   82SOL    HW2  262   0.890   0.373   0.589
   83SOL     OW  263   1.017   0.039   0.753
   83SOL    HW1  264   0.945   0.044   0.684
   83SOL    HW2  265   0.993  -0.030   0.822
   84SOL     OW  266   1.429   1.173   0.867
   84SOL    HW1  267   1.374   1.089   0.860
   84SOL    HW2  268   1.455   1.202   0.775
   85SOL     OW  269   1.466   0.590   0.992
   85SOL    HW1  270   1.436   0.495   0.999
   85SOL    HW2  271   1.539   0.606   1.058
   86SOL     OW  272   1.857   0.833   0.377
   86SOL    HW1  273   1.899   0.769   0.441
   86SOL    HW2  274   1.819   0.782   0.299
   87SOL     OW  275   0.488   1.385   0.174
   87SOL    HW1  276   0.401   1.370   0.221
   87SOL    HW2  277   0.471   1.411   0.079
   88SOL     OW  278   1.664   1.280   0.657
   88SOL    HW1  279   1.763   1.288   0.671
   88SOL    HW2  280   1.619   1.364   0.688
   89SOL     OW  281   1.390   0.575   0.078
   89SOL    HW1  282   1.336   0.554   0.159
   89SOL    HW2  283   1.481   0.534   0.087
   90SOL     OW  284   0.527   0.256   0.328
   90SOL    HW1  285   0.554   0.197   0.253
   90SOL    HW2  286   0.527   0.351   0.297
   91SOL     OW  287   1.754   1.223   1.588
   91SOL    HW1  288   1.845   1.184   1.575
   91SOL    HW2  289   1.762   1.319   1.612
   92SOL     OW  290   1.064   1.347   1.340
   92SOL    HW1  291   0.984   1.324   1.395
   92SOL    HW2  292   1.147   1.321   1.389
   93SOL     OW  293   1.592   1.629   1.625
   93SOL    HW1  294   1.619   1.663   1.535
   93SOL    HW2  295   1.671   1.591   1.671
   94SOL     OW  296   1.111   1.195   1.100
   94SOL    HW1  297   1.071   1.239   1.181
   94SOL    HW2  298   1.070   1.232   1.017
   95SOL     OW  299   1.638   1.099   1.079
   95SOL    HW1  300   1.643   1.180   1.138
   95SOL    HW2  301   1.552   1.101   1.028
   96SOL     OW  302   0.915   0.089   1.402
   96SOL    HW1  303   0.940   0.069   1.307
   96SOL    HW2  304   0.987   0.145   1.444
   97SOL     OW  305   0.980   1.116   1.719
   97SOL    HW1  306   0.881   1.122   1.729
   97SOL    HW2  307   1.003   1.036   1.663
   98SOL     OW  308   0.705   1.050   0.368
   98SOL    HW1  309   0.691   1.057   0.467
   98SOL    HW2  310   0.789   0.999   0.350
   99SOL     OW  311   0.410   0.813   1.251
   99SOL    HW1  312   0.496   0.825   1.301
   99SOL    HW2  313   0.368   0.726   1.278
  100SOL     OW  314   1.274   0.386   1.262
  100SOL    HW1  315   1.295   0.460   1.326
  100SOL    HW2  316   1.185   0.403   1.219
  101SOL     OW  317   0.064   1.564   1.331
  101SOL    HW1  318   0.018   1.646   1.297
  101SOL    HW2  319   0.162   1.583   1.340
  102SOL     OW  320   0.367   1.100   0.501
  102SOL    HW1  321   0.360   1.183   0.445
  102SOL    HW2  322   0.371   1.020   0.441
  103SOL     OW  323   0.566   0.537   0.865
  103SOL    HW1  324   0.578   0.603   0.791
  103SOL    HW2  325   0.612   0.571   0.948
  104SOL     OW  326   1.252   1.348   0.388
  104SOL    HW1  327   1.302   1.425   0.428
  104SOL    HW2  328   1.157   1.350   0.420
  105SOL     OW  329   1.582   0.639   0.472
  105SOL    HW1  330   1.551   0.700   0.545
  105SOL    HW2  331   1.632   0.691   0.403
  106SOL     OW  332   0.354   1.510   1.329
  106SOL    HW1  333   0.333   1.466   1.242
  106SOL    HW2  334   0.451   1.536   1.332
  107SOL     OW  335   0.402   0.751   1.598
  107SOL    HW1  336   0.470   0.806   1.551
  107SOL    HW2  337   0.442   0.663   1.625
  108SOL     OW  338   1.587   0.779   1.670
  108SOL    HW1  339   1.495   0.817   1.665
  108SOL    HW2  340   1.647   0.826   1.605
  109SOL     OW  341   1.013   0.105   1.770
  109SOL    HW1  342   1.019   0.190   1.718
  109SOL    HW2  343   1.045   0.029   1.713
  110SOL     OW  344   0.504   0.050   1.740
  110SOL    HW1  345   0.462  -0.007   1.670
  110SOL    HW2  346   0.438   0.119   1.772
  111SOL     OW  347   0.573   0.870   1.029
  111SOL    HW1  348   0.617   0.959   1.020
  111SOL    HW2  349   0.510   0.870   1.106
  112SOL     OW  350   1.360   0.862   1.045
  112SOL    HW1  351   1.285   0.862   0.979
  112SOL    HW2  352   1.397   0.770   1.054
  113SOL     OW  353   1.209   0.525   0.275
  113SOL    HW1  354   1.222   0.441   0.329
  113SOL    HW2  355   1.180   0.599   0.335
  114SOL     OW  356   0.307   0.213   1.231
  114SOL    HW1  357   0.284   0.250   1.321
  114SOL    HW2  358   0.277   0.118   1.225
  115SOL     OW  359   0.037   1.310   1.282
  115SOL    HW1  360   0.090   1.261   1.350
  115SOL    HW2  361   0.059   1.408   1.287
  116SOL     OW  362   0.732   0.634   1.064
  116SOL    HW1  363   0.791   0.608   0.988
  116SOL    HW2  364   0.704   0.730   1.053
  117SOL     OW  365   1.728   0.935   1.854
  117SOL    HW1  366   1.682   0.928   1.765
  117SOL    HW2  367   1.666   0.979   1.920
  118SOL     OW  368   0.307   0.063   0.618
  118SOL    HW1  369   0.296   0.157   0.651
  118SOL    HW2  370   0.302   0.000   0.695
  119SOL     OW  371   1.622   0.367   0.374
  119SOL    HW1  372   1.624   0.291   0.438
  119SOL    HW2  373   1.574   0.444   0.414
  120SOL     OW  374   1.023   0.766   0.966
  120SOL    HW1  375   1.038   0.787   1.062
  120SOL    HW2  376   0.993   0.671   0.957
  121SOL     OW  377   0.980   1.573   1.700
  121SOL    HW1  378   0.960   1.617   1.612
  121SOL    HW2  379   1.019   1.482   1.684
  122SOL     OW  380   1.859   1.518   1.605
  122SOL    HW1  381   1.873   1.545   1.510
  122SOL    HW2  382   1.942   1.540   1.658
  123SOL     OW  383   0.350   0.898   1.804
  123SOL    HW1  384   0.426   0.942   1.852
  123SOL    HW2  385   0.385   0.851   1.722
  124SOL     OW  386   1.540   0.274   0.125
  124SOL    HW1  387   1.479   0.199   0.148
  124SOL    HW2  388   1.562   0.326   0.208
  125SOL     OW  389   1.303   0.838   0.042
  125SOL    HW1  390   1.337   0.745   0.057
  125SOL    HW2  391   1.321   0.865  -0.053
  126SOL     OW  392   1.068   1.333   0.849
  126SOL    HW1  393   1.075   1.249   0.794
  126SOL    HW2  394   1.130   1.402   0.813
  127SOL     OW  395   0.319   0.810   0.949
  127SOL    HW1  396   0.412   0.846   0.954
  127SOL    HW2  397   0.313   0.725   1.001
  128SOL     OW  398   0.339   0.509   1.006
  128SOL    HW1  399   0.287   0.426   0.989
  128SOL    HW2  400   0.416   0.514   0.942
  129SOL     OW  401   1.138   0.380   1.678
  129SOL    HW1  402   1.093   0.443   1.742
  129SOL    HW2  403   1.231   0.411   1.661
  130SOL     OW  404   1.160   0.207   1.477
  130SOL    HW1  405   1.160   0.271   1.554
  130SOL    HW2  406   1.188   0.255   1.394
  131SOL     OW  407   0.008   1.326   0.200
  131SOL    HW1  408  -0.085   1.347   0.169
  131SOL    HW2  409   0.018   1.227   0.213
  132SOL     OW  410   0.088   1.801   0.927
  132SOL    HW1  411   0.046   1.715   0.900
  132SOL    HW2  412   0.182   1.804   0.893
  133SOL     OW  413   0.504   1.568   0.910
  133SOL    HW1  414   0.570   1.642   0.919
  133SOL    HW2  415   0.548   1.489   0.868
  134SOL     OW  416   1.002   0.796   1.238
  134SOL    HW1  417   1.043   0.764   1.324
  134SOL    HW2  418   0.906   0.769   1.235
  135SOL     OW  419   0.040   0.544   1.114
  135SOL    HW1  420   0.125   0.511   1.073
  135SOL    HW2  421   0.053   0.559   1.212
  136SOL     OW  422   0.189   0.520   1.722
  136SOL    HW1  423   0.248   0.480   1.652
  136SOL    HW2  424   0.131   0.591   1.681
  137SOL     OW  425   1.369   0.950   1.660
  137SOL    HW1  426   1.408   1.039   1.680
  137SOL    HW2  427   1.379   0.930   1.563
  138SOL     OW  428   0.815   0.572   0.325
  138SOL    HW1  429   0.822   0.483   0.279
  138SOL    HW2  430   0.721   0.606   0.317
  139SOL     OW  431   1.657   0.604   1.206
  139SOL    HW1  432   1.619   0.535   1.268
  139SOL    HW2  433   1.739   0.568   1.162
  140SOL     OW  434   0.252   1.564   1.744
  140SOL    HW1  435   0.222   1.621   1.820
  140SOL    HW2  436   0.245   1.467   1.770
  141SOL     OW  437   0.671   0.464   1.269
  141SOL    HW1  438   0.637   0.375   1.239
  141SOL    HW2  439   0.697   0.518   1.189
  142SOL     OW  440   0.930   1.678   1.465
  142SOL    HW1  441   0.906   1.660   1.370
  142SOL    HW2  442   0.960   1.772   1.475
  143SOL     OW  443   0.473   0.500   0.191
  143SOL    HW1  444   0.534   0.580   0.195
  143SOL    HW2  445   0.378   0.531   0.198
  144SOL     OW  446   0.159   1.137   1.466
  144SOL    HW1  447   0.181   1.076   1.542
  144SOL    HW2  448   0.169   1.088   1.380
  145SOL     OW  449   1.347   1.059   1.234
  145SOL    HW1  450   1.371   0.996   1.160
  145SOL    HW2  451   1.257   1.099   1.216
  146SOL     OW  452   1.302   0.855   0.309
  146SOL    HW1  453   1.216   0.824   0.351
  146SOL    HW2  454   1.298   0.841   0.210
  147SOL     OW  455   1.759   1.747   1.154
  147SOL    HW1  456   1.820   1.777   1.081
  147SOL    HW2  457   1.721   1.658   1.132
  148SOL     OW  458   0.083   1.258   1.022
  148SOL    HW1  459   0.078   1.257   1.122
  148SOL    HW2  460   0.000   1.217   0.984
  149SOL     OW  461   0.688   1.662   1.716
  149SOL    HW1  462   0.632   1.743   1.725
  149SOL    HW2  463   0.740   1.666   1.630
  150SOL     OW  464   0.903   0.086   0.133
  150SOL    HW1  465   0.954   0.087   0.047
  150SOL    HW2  466   0.959   0.044   0.204
  151SOL     OW  467   1.726   0.135   0.523
  151SOL    HW1  468   1.799   0.118   0.456
  151SOL    HW2  469   1.695   0.048   0.561
  152SOL     OW  470   1.388   1.573   0.477
  152SOL    HW1  471   1.455   1.585   0.403
  152SOL    HW2  472   1.348   1.662   0.500
  153SOL     OW  473   0.130   1.794   1.851
  153SOL    HW1  474   0.089   1.720   1.904
  153SOL    HW2  475   0.194   1.845   1.909
  154SOL     OW  476   1.280   0.927   0.672
  154SOL    HW1  477   1.340   0.846   0.674
  154SOL    HW2  478   1.320   0.996   0.612
  155SOL     OW  479   0.830   1.273   1.422
  155SOL    HW1  480   0.825   1.306   1.517
  155SOL    HW2  481   0.744   1.292   1.376
  156SOL     OW  482   0.672   1.616   0.154
  156SOL    HW1  483   0.681   1.626   0.055
  156SOL    HW2  484   0.632   1.527   0.175
  157SOL     OW  485   1.650   1.720   1.394
  157SOL    HW1  486   1.703   1.730   1.310
  157SOL    HW2  487   1.623   1.810   1.428
  158SOL     OW  488   1.841   0.175   0.963
  158SOL    HW1  489   1.880   0.090   0.927
  158SOL    HW2  490   1.743   0.177   0.944
  159SOL     OW  491   0.263   0.326   0.720
  159SOL    HW1  492   0.184   0.377   0.686
  159SOL    HW2  493   0.254   0.311   0.818
  160SOL     OW  494   1.194   1.612   0.031
  160SOL    HW1  495   1.200   1.519   0.068
  160SOL    HW2  496   1.135   1.612  -0.049
  161SOL     OW  497   0.822   1.002   1.372
  161SOL    HW1  498   0.862   1.001   1.280
  161SOL    HW2  499   0.832   1.094   1.412
  162SOL     OW  500   0.916   0.910   0.291
  162SOL    HW1  501   0.979   0.948   0.223
  162SOL    HW2  502   0.956   0.827   0.330
  163SOL     OW  503   1.504   1.607   0.044
  163SOL    HW1  504   1.412   1.644   0.051
  163SOL    HW2  505   1.542   1.627  -0.046
  164SOL     OW  506   0.372   1.288   1.490
  164SOL    HW1  507   0.359   1.381   1.456
  164SOL    HW2  508   0.288   1.236   1.477
  165SOL     OW  509   1.039   1.098   0.696
  165SOL    HW1  510   0.969   1.051   0.750
  165SOL    HW2  511   1.098   1.030   0.653
  166SOL     OW  512   1.014   0.236   0.971
  166SOL    HW1  513   1.006   0.200   0.878
  166SOL    HW2  514   1.012   0.160   1.036
  167SOL     OW  515   0.590   1.487   0.491
  167SOL    HW1  516   0.632   1.429   0.421
  167SOL    HW2  517   0.546   1.566   0.447
  168SOL     OW  518   1.709   0.385   1.381
  168SOL    HW1  519   1.782   0.454   1.385
  168SOL    HW2  520   1.737   0.310   1.322
  169SOL     OW  521   0.255   1.348   0.290
  169SOL    HW1  522   0.159   1.349   0.263
  169SOL    HW2  523   0.267   1.401   0.374
  170SOL     OW  524   0.105   1.013   1.726
  170SOL    HW1  525   0.028   0.980   1.780
  170SOL    HW2  526   0.190   0.983   1.768
  171SOL     OW  527   0.672   0.203   1.489
  171SOL    HW1  528   0.762   0.187   1.449
  171SOL    HW2  529   0.680   0.208   1.588
  172SOL     OW  530   0.075   0.345   0.033
  172SOL    HW1  531  -0.017   0.317   0.004
  172SOL    HW2  532   0.106   0.422  -0.023
  173SOL     OW  533   1.440   0.856   1.398
  173SOL    HW1  534   1.383   0.908   1.335
  173SOL    HW2  535   1.536   0.868   1.374
  174SOL     OW  536   0.072   0.166   0.318
  174SOL    HW1  537   0.055   0.249   0.264
  174SOL    HW2  538   0.162   0.129   0.296
  175SOL     OW  539   1.183   1.335   0.119
  175SOL    HW1  540   1.084   1.324   0.121
  175SOL    HW2  541   1.217   1.350   0.212
  176SOL     OW  542   0.613   0.842   1.431
  176SOL    HW1  543   0.669   0.923   1.414
  176SOL    HW2  544   0.672   0.762   1.434
  177SOL     OW  545   1.493   1.767   0.959
  177SOL    HW1  546   1.526   1.831   0.890
  177SOL    HW2  547   1.559   1.761   1.034
  178SOL     OW  548   0.716   0.565   1.708
  178SOL    HW1  549   0.735   0.630   1.782
  178SOL    HW2  550   0.776   0.485   1.717
  179SOL     OW  551   0.390   1.741   1.560
  179SOL    HW1  552   0.299   1.782   1.558
  179SOL    HW2  553   0.383   1.647   1.592
  180SOL     OW  554   1.674   0.883   1.254
  180SOL    HW1  555   1.647   0.794   1.217
  180SOL    HW2  556   1.675   0.951   1.181
  181SOL     OW  557   1.225   0.325   0.449
  181SOL    HW1  558   1.290   0.251   0.438
  181SOL    HW2  559   1.245   0.375   0.533
  182SOL     OW  560   0.594   0.745   0.652
  182SOL    HW1  561   0.644   0.830   0.633
  182SOL    HW2  562   0.506   0.747   0.604
  183SOL     OW  563   1.777   0.342   1.642
  183SOL    HW1  564   1.760   0.373   1.548
  183SOL    HW2  565   1.693   0.305   1.680
  184SOL     OW  566   1.730   0.934   1.517
  184SOL    HW1  567   1.768   1.025   1.532
  184SOL    HW2  568   1.722   0.917   1.418
  185SOL     OW  569   0.859   1.374   0.016
  185SOL    HW1  570   0.813   1.389   0.104
  185SOL    HW2  571   0.903   1.459  -0.014
  186SOL     OW  572   0.661   1.790   0.953
  186SOL    HW1  573   0.615   1.878   0.940
  186SOL    HW2  574   0.760   1.802   0.946
  187SOL     OW  575   0.859   0.956   0.861
  187SOL    HW1  576   0.913   0.887   0.909
  187SOL    HW2  577   0.827   1.025   0.927
  188SOL     OW  578   1.083   0.984   0.087
  188SOL    HW1  579   1.060   1.037   0.005
  188SOL    HW2  580   1.164   0.928   0.068
  189SOL     OW  581   1.861   1.569   0.851
  189SOL    HW1  582   1.790   1.557   0.781
  189SOL    HW2  583   1.862   1.490   0.911
  190SOL     OW  584   0.221   1.314   1.844
  190SOL    HW1  585   0.156   1.241   1.823
  190SOL    HW2  586   0.225   1.328   1.942
  191SOL     OW  587   0.079   1.240   0.653
  191SOL    HW1  588   0.078   1.193   0.741
  191SOL    HW2  589   0.161   1.212   0.602
  192SOL     OW  590   0.672   1.391   1.624
  192SOL    HW1  591   0.594   1.341   1.662
  192SOL    HW2  592   0.669   1.486   1.655
  193SOL     OW  593   1.824   0.192   1.227
  193SOL    HW1  594   1.820   0.102   1.271
  193SOL    HW2  595   1.827   0.181   1.128
  194SOL     OW  596   0.428   0.424   0.520
  194SOL    HW1  597   0.458   0.352   0.458
  194SOL    HW2  598   0.389   0.384   0.603
  195SOL     OW  599   0.317   0.547   1.280
  195SOL    HW1  600   0.355   0.488   1.352
  195SOL    HW2  601   0.357   0.521   1.192
  196SOL     OW  602   0.812   1.586   0.687
  196SOL    HW1  603   0.844   1.596   0.593
  196SOL    HW2  604   0.733   1.524   0.689
  197SOL     OW  605   1.424   0.214   1.112
  197SOL    HW1  606   1.476   0.149   1.167
  197SOL    HW2  607   1.375   0.277   1.173
  198SOL     OW  608   1.001   0.034   1.154
  198SOL    HW1  609   0.938  -0.038   1.123
  198SOL    HW2  610   1.094  -0.002   1.154
  199SOL     OW  611   0.770   1.330   0.301
  199SOL    HW1  612   0.724   1.243   0.318
  199SOL    HW2  613   0.861   1.327   0.342
  200SOL     OW  614   0.618   1.567   1.284
  200SOL    HW1  615   0.613   1.649   1.341
  200SOL    HW2  616   0.707   1.564   1.239
  201SOL     OW  617   1.352   0.052   0.168
  201SOL    HW1  618   1.387   0.011   0.084
  201SOL    HW2  619   1.262   0.014   0.188
  202SOL     OW  620   1.300   0.453   0.691
  202SOL    HW1  621   1.241   0.533   0.695
  202SOL    HW2  622   1.315   0.418   0.784
  203SOL     OW  623   1.593   0.221   0.882
  203SOL    HW1  624   1.509   0.220   0.936
  203SOL    HW2  625   1.595   0.304   0.826
  204SOL     OW  626   0.039   1.077   0.300
  204SOL    HW1  627   0.138   1.066   0.291
  204SOL    HW2  628  -0.001   0.991   0.332
  205SOL     OW  629   0.875   1.646   0.337
  205SOL    HW1  630   0.798   1.611   0.283
  205SOL    HW2  631   0.843   1.717   0.399
  206SOL     OW  632   0.230   0.628   1.975
  206SOL    HW1  633   0.137   0.626   2.012
  206SOL    HW2  634   0.231   0.589   1.883
  207SOL     OW  635   0.019   0.368   2.509
  207SOL    HW1  636  -0.063   0.411   2.548
  207SOL    HW2  637  -0.009   0.295   2.446
  208SOL     OW  638   1.555   1.511   2.565
  208SOL    HW1  639   1.498   1.495   2.646
  208SOL    HW2  640   1.496   1.521   2.485
  209SOL     OW  641   1.135   0.703   2.579
  209SOL    HW1  642   1.192   0.781   2.554
  209SOL    HW2  643   1.075   0.729   2.655
  210SOL     OW  644   1.755   0.607   2.093
  210SOL    HW1  645   1.743   0.594   1.994
  210SOL    HW2  646   1.725   0.526   2.142
  211SOL     OW  647   0.685   1.012   2.527
  211SOL    HW1  648   0.754   0.996   2.597
  211SOL    HW2  649   0.612   1.069   2.565
  212SOL     OW  650   1.603   0.447   2.599
  212SOL    HW1  651   1.529   0.493   2.549
  212SOL    HW2  652   1.654   0.515   2.652
  213SOL     OW  653   0.231   1.713   2.345
  213SOL    HW1  654   0.265   1.790   2.399
  213SOL    HW2  655   0.275   1.713   2.255
  214SOL     OW  656   0.230   1.434   2.400
  214SOL    HW1  657   0.204   1.530   2.400
  214SOL    HW2  658   0.159   1.380   2.445
  215SOL     OW  659   0.240   1.091   2.748
  215SOL    HW1  660   0.254   1.007   2.800
  215SOL    HW2  661   0.185   1.155   2.803
  216SOL     OW  662   0.606   0.964   1.985
  216SOL    HW1  663   0.613   1.048   1.931
  216SOL    HW2  664   0.652   0.977   2.073
  217SOL     OW  665   0.122   0.643   2.425
  217SOL    HW1  666   0.077   0.555   2.442
  217SOL    HW2  667   0.121   0.697   2.509
  218SOL     OW  668   1.842   1.767   2.221
  218SOL    HW1  669   1.896   1.738   2.301
  218SOL    HW2  670   1.872   1.857   2.192
  219SOL     OW  671   0.027   1.596   1.979
  219SOL    HW1  672   0.008   1.500   2.000
  219SOL    HW2  673  -0.006   1.654   2.054
  220SOL     OW  674   1.689   0.922   2.474
  220SOL    HW1  675   1.784   0.893   2.482
  220SOL    HW2  676   1.681   0.987   2.399
  221SOL     OW  677   1.641   1.108   2.294
  221SOL    HW1  678   1.727   1.110   2.242
  221SOL    HW2  679   1.655   1.155   2.382
  222SOL     OW  680   0.613   1.365   2.588
  222SOL    HW1  681   0.564   1.278   2.597
  222SOL    HW2  682   0.590   1.408   2.501
  223SOL     OW  683   0.809   0.004   2.364
  223SOL    HW1  684   0.849   0.095   2.355
  223SOL    HW2  685   0.709   0.012   2.370
  224SOL     OW  686   1.525   0.999   2.052
  224SOL    HW1  687   1.462   0.923   2.065
  224SOL    HW2  688   1.573   1.017   2.138
  225SOL     OW  689   1.466   1.417   2.815
  225SOL    HW1  690   1.407   1.423   2.895
  225SOL    HW2  691   1.451   1.329   2.769
  226SOL     OW  692   1.667   1.714   2.434
  226SOL    HW1  693   1.626   1.691   2.346
  226SOL    HW2  694   1.649   1.640   2.499
  227SOL     OW  695   0.598   0.729   2.132
  227SOL    HW1  696   0.622   0.798   2.064
  227SOL    HW2  697   0.520   0.762   2.186
  228SOL     OW  698   1.281   0.345   2.806
  228SOL    HW1  699   1.195   0.295   2.793
  228SOL    HW2  700   1.343   0.291   2.862
  229SOL     OW  701   1.576   1.662   2.169
  229SOL    HW1  702   1.665   1.708   2.172
  229SOL    HW2  703   1.555   1.638   2.074
  230SOL     OW  704   1.041   0.701   2.291
  230SOL    HW1  705   1.067   0.697   2.387
  230SOL    HW2  706   0.956   0.650   2.277
  231SOL     OW  707   0.076   0.811   2.651
  231SOL    HW1  708   0.175   0.799   2.660
  231SOL    HW2  709   0.052   0.906   2.672
  232SOL     OW  710   0.865   0.348   2.057
  232SOL    HW1  711   0.924   0.411   2.008
  232SOL    HW2  712   0.884   0.254   2.028
  233SOL     OW  713   1.362   1.144   2.407
  233SOL    HW1  714   1.445   1.115   2.359
  233SOL    HW2  715   1.313   1.211   2.351
  234SOL     OW  716   1.008   1.456   2.339
  234SOL    HW1  717   0.962   1.528   2.287
  234SOL    HW2  718   1.004   1.476   2.437
  235SOL     OW  719   0.351   1.801   2.715
  235SOL    HW1  720   0.401   1.715   2.721
  235SOL    HW2  721   0.416   1.878   2.712
  236SOL     OW  722   1.795   1.066   2.735
  236SOL    HW1  723   1.733   1.051   2.659
  236SOL    HW2  724   1.743   1.077   2.820
  237SOL     OW  725   0.321   0.943   2.104
  237SOL    HW1  726   0.403   0.982   2.062
  237SOL    HW2  727   0.294   0.861   2.055
  238SOL     OW  728   1.458   0.735   2.590
  238SOL    HW1  729   1.453   0.670   2.665
  238SOL    HW2  730   1.538   0.794   2.603
  239SOL     OW  731   1.111   1.776   2.099
  239SOL    HW1  732   1.051   1.714   2.149
  239SOL    HW2  733   1.142   1.732   2.014
  240SOL     OW  734   1.632   1.377   1.943
  240SOL    HW1  735   1.600   1.471   1.933
  240SOL    HW2  736   1.556   1.314   1.931
  241SOL     OW  737   0.464   1.743   2.185
  241SOL    HW1  738   0.497   1.782   2.271
  241SOL    HW2  739   0.540   1.736   2.120
  242SOL     OW  740   1.400   0.107   2.288
  242SOL    HW1  741   1.376   0.070   2.198
  242SOL    HW2  742   1.499   0.123   2.292
  243SOL     OW  743   0.382   0.700   2.342
  243SOL    HW1  744   0.427   0.610   2.339
  243SOL    HW2  745   0.288   0.689   2.375
  244SOL     OW  746   0.614   0.122   1.979
  244SOL    HW1  747   0.712   0.100   1.986
  244SOL    HW2  748   0.583   0.105   1.886
  245SOL     OW  749   0.539   0.064   2.374
  245SOL    HW1  750   0.458   0.065   2.432
  245SOL    HW2  751   0.542   0.147   2.319
  246SOL     OW  752   1.434   1.188   1.903
  246SOL    HW1  753   1.466   1.112   1.960
  246SOL    HW2  754   1.342   1.215   1.933
  247SOL     OW  755   0.297   0.035   2.033
  247SOL    HW1  756   0.346   0.119   2.012
  247SOL    HW2  757   0.359  -0.030   2.078
  248SOL     OW  758   0.935   0.236   2.342
  248SOL    HW1  759   0.887   0.277   2.264
  248SOL    HW2  760   1.034   0.234   2.323
  249SOL     OW  761   1.227   1.570   2.655
  249SOL    HW1  762   1.248   1.644   2.590
  249SOL    HW2  763   1.295   1.570   2.728
  250SOL     OW  764   0.459   1.152   2.603
  250SOL    HW1  765   0.388   1.125   2.668
  250SOL    HW2  766   0.433   1.124   2.510
  251SOL     OW  767   1.271   1.797   2.453
  251SOL    HW1  768   1.315   1.861   2.389
  251SOL    HW2  769   1.221   1.849   2.523
  252SOL     OW  770   1.032   0.549   1.878
  252SOL    HW1  771   0.991   0.631   1.839
  252SOL    HW2  772   1.096   0.575   1.951
  253SOL     OW  773   0.866   0.454   2.504
  253SOL    HW1  774   0.834   0.526   2.442
  253SOL    HW2  775   0.890   0.373   2.451
  254SOL     OW  776   1.017   0.039   2.615
  254SOL    HW1  777   0.945   0.044   2.546
  254SOL    HW2  778   0.993  -0.030   2.684
  255SOL     OW  779   1.857   0.833   2.239
  255SOL    HW1  780   1.899   0.769   2.303
  255SOL    HW2  781   1.819   0.782   2.161
  256SOL     OW  782   0.488   1.385   2.036
  256SOL    HW1  783   0.401   1.370   2.083
  256SOL    HW2  784   0.471   1.411   1.941
  257SOL     OW  785   1.664   1.280   2.519
  257SOL    HW1  786   1.763   1.288   2.533
  257SOL    HW2  787   1.619   1.364   2.550
  258SOL     OW  788   1.390   0.575   1.940
  258SOL    HW1  789   1.336   0.554   2.021
  258SOL    HW2  790   1.481   0.534   1.949
  259SOL     OW  791   0.527   0.256   2.190
  259SOL    HW1  792   0.554   0.197   2.115
  259SOL    HW2  793   0.527   0.351   2.159
  260SOL     OW  794   0.705   1.050   2.230
  260SOL    HW1  795   0.691   1.057   2.329
  260SOL    HW2  796   0.789   0.999   2.212
  261SOL     OW  797   0.367   1.100   2.363
  261SOL    HW1  798   0.360   1.183   2.307
  261SOL    HW2  799   0.371   1.020   2.303
  262SOL     OW  800   0.566   0.537   2.727
  262SOL    HW1  801   0.578   0.603   2.653
  262SOL    HW2  802   0.612   0.571   2.810
  263SOL     OW  803   1.252   1.348   2.250
  263SOL    HW1  804   1.302   1.425   2.290
  263SOL    HW2  805   1.157   1.350   2.282
  264SOL     OW  806   1.582   0.639   2.334
  264SOL    HW1  807   1.551   0.700   2.407
  264SOL    HW2  808   1.632   0.691   2.265
  265SOL     OW  809   1.209   0.525   2.137
  265SOL    HW1  810   1.222   0.441   2.191
  265SOL    HW2  811   1.180   0.599   2.197
  266SOL     OW  812   0.732   0.634   2.926
  266SOL    HW1  813   0.791   0.608   2.850
  266SOL    HW2  814   0.704   0.730   2.915
  267SOL     OW  815   0.307   0.063   2.480
  267SOL    HW1  816   0.296   0.157   2.513
  267SOL    HW2  817   0.302   0.000   2.557
  268SOL     OW  818   1.622   0.367   2.236
  268SOL    HW1  819   1.624   0.291   2.300
  268SOL    HW2  820   1.574   0.444   2.276
  269SOL     OW  821   1.540   0.274   1.987
  269SOL    HW1  822   1.479   0.199   2.010
  269SOL    HW2  823   1.562   0.326   2.070
  270SOL     OW  824   1.303   0.838   1.904
  270SOL    HW1  825   1.337   0.745   1.919
  270SOL    HW2  826   1.321   0.865   1.809
  271SOL     OW  827   1.068   1.333   2.711
  271SOL    HW1  828   1.075   1.249   2.656
  271SOL    HW2  829   1.130   1.402   2.675
  272SOL     OW  830   0.008   1.326   2.062
  272SOL    HW1  831  -0.085   1.347   2.031
  272SOL    HW2  832   0.018   1.227   2.075
  273SOL     OW  833   0.088   1.801   2.789
  273SOL    HW1  834   0.046   1.715   2.762
  273SOL    HW2  835   0.182   1.804   2.755
  274SOL     OW  836   0.504   1.568   2.772
  274SOL    HW1  837   0.570   1.642   2.781
  274SOL    HW2  838   0.548   1.489   2.730
  275SOL     OW  839   0.815   0.572   2.187
  275SOL    HW1  840   0.822   0.483   2.141
  275SOL    HW2  841   0.721   0.606   2.179
  276SOL     OW  842   0.473   0.500   2.053
  276SOL    HW1  843   0.534   0.580   2.057
  276SOL    HW2  844   0.378   0.531   2.060
  277SOL     OW  845   1.302   0.855   2.171
  277SOL    HW1  846   1.216   0.824   2.213
  277SOL    HW2  847   1.298   0.841   2.072
  278SOL     OW  848   1.759   1.747   3.016
  278SOL    HW1  849   1.820   1.777   2.943
  278SOL    HW2  850   1.721   1.658   2.994
  279SOL     OW  851   1.726   0.135   2.385
  279SOL    HW1  852   1.799   0.118   2.318
  279SOL    HW2  853   1.695   0.048   2.423
  280SOL     OW  854   1.388   1.573   2.339
  280SOL    HW1  855   1.455   1.585   2.265
  280SOL    HW2  856   1.348   1.662   2.362
  281SOL     OW  857   1.280   0.927   2.534
  281SOL    HW1  858   1.340   0.846   2.536
  281SOL    HW2  859   1.320   0.996   2.474
  282SOL     OW  860   0.672   1.616   2.016
  282SOL    HW1  861   0.681   1.626   1.917
  282SOL    HW2  862   0.632   1.527   2.037
  283SOL     OW  863   1.841   0.175   2.825
  283SOL    HW1  864   1.880   0.090   2.789
  283SOL    HW2  865   1.743   0.177   2.806
  284SOL     OW  866   0.263   0.326   2.582
  284SOL    HW1  867   0.184   0.377   2.548
  284SOL    HW2  868   0.254   0.311   2.680
  285SOL     OW  869   1.194   1.612   1.893
  285SOL    HW1  870   1.200   1.519   1.930
  285SOL    HW2  871   1.135   1.612   1.813
  286SOL     OW  872   0.916   0.910   2.153
  286SOL    HW1  873   0.979   0.948   2.085
  286SOL    HW2  874   0.956   0.827   2.192
  287SOL     OW  875   1.504   1.607   1.906
  287SOL    HW1  876   1.412   1.644   1.913
  287SOL    HW2  877   1.542   1.627   1.816
  288SOL     OW  878   1.039   1.098   2.558
  288SOL    HW1  879   0.969   1.051   2.612
  288SOL    HW2  880   1.098   1.030   2.515
  289SOL     OW  881   0.590   1.487   2.353
  289SOL    HW1  882   0.632   1.429   2.283
  289SOL    HW2  883   0.546   1.566   2.309
  290SOL     OW  884   0.255   1.348   2.152
  290SOL    HW1  885   0.159   1.349   2.125
  290SOL    HW2  886   0.267   1.401   2.236
  291SOL     OW  887   0.075   0.345   1.895
  291SOL    HW1  888  -0.017   0.317   1.866
  291SOL    HW2  889   0.106   0.422   1.839
  292SOL     OW  890   0.072   0.166   2.180
  292SOL    HW1  891   0.055   0.249   2.126
  292SOL    HW2  892   0.162   0.129   2.158
  293SOL     OW  893   1.183   1.335   1.981
  293SOL    HW1  894   1.084   1.324   1.983
  293SOL    HW2  895   1.217   1.350   2.074
  294SOL     OW  896   1.225   0.325   2.311
  294SOL    HW1  897   1.290   0.251   2.300
  294SOL    HW2  898   1.245   0.375   2.395
  295SOL     OW  899   0.594   0.745   2.514
  295SOL    HW1  900   0.644   0.830   2.495
  295SOL    HW2  901   0.506   0.747   2.466
  296SOL     OW  902   0.859   1.374   1.878
  296SOL    HW1  903   0.813   1.389   1.966
  296SOL    HW2  904   0.903   1.459   1.848
  297SOL     OW  905   0.661   1.790   2.815
  297SOL    HW1  906   0.615   1.878   2.802
  297SOL    HW2  907   0.760   1.802   2.808
  298SOL     OW  908   0.859   0.956   2.723
  298SOL    HW1  909   0.913   0.887   2.771
  298SOL    HW2  910   0.827   1.025   2.789
  299SOL     OW  911   1.083   0.984   1.949
  299SOL    HW1  912   1.060   1.037   1.867
  299SOL    HW2  913   1.164   0.928   1.930
  300SOL     OW  914   1.861   1.569   2.713
  300SOL    HW1  915   1.790   1.557   2.643
  300SOL    HW2  916   1.862   1.490   2.773
  301SOL     OW  917   0.079   1.240   2.515
  301SOL    HW1  918   0.078   1.193   2.603
  301SOL    HW2  919   0.161   1.212   2.464
  302SOL     OW  920   1.824   0.192   3.089
  302SOL    HW1  921   1.820   0.102   3.133
  302SOL    HW2  922   1.827   0.181   2.990
  303SOL     OW  923   0.428   0.424   2.382
  303SOL    HW1  924   0.458   0.352   2.320
  303SOL    HW2  925   0.389   0.384   2.465
  304SOL     OW  926   0.812   1.586   2.549
  304SOL    HW1  927   0.844   1.596   2.455
  304SOL    HW2  928   0.733   1.524   2.551
  305SOL     OW  929   0.770   1.330   2.163
  305SOL    HW1  930   0.724   1.243   2.180
  305SOL    HW2  931   0.861   1.327   2.204
  306SOL     OW  932   1.352   0.052   2.030
  306SOL    HW1  933   1.387   0.011   1.946
  306SOL    HW2  934   1.262   0.014   2.050
  307SOL     OW  935   1.300   0.453   2.553
  307SOL    HW1  936   1.241   0.533   2.557
  307SOL    HW2  937   1.315   0.418   2.646
  308SOL     OW  938   1.593   0.221   2.744
  308SOL    HW1  939   1.509   0.220   2.798
  308SOL    HW2  940   1.595   0.304   2.688
  309SOL     OW  941   0.039   1.077   2.162
  309SOL    HW1  942   0.138   1.066   2.153
  309SOL    HW2  943  -0.001   0.991   2.194
  310SOL     OW  944   0.875   1.646   2.199
  310SOL    HW1  945   0.798   1.611   2.145
  310SOL    HW2  946   0.843   1.717   2.261
  311SOL     OW  947   0.230   2.490   0.113
  311SOL    HW1  948   0.137   2.488   0.150
  311SOL    HW2  949   0.231   2.451   0.021
  312SOL     OW  950   0.225   2.137   0.996
  312SOL    HW1  951   0.260   2.120   1.088
  312SOL    HW2  952   0.137   2.092   0.984
  313SOL     OW  953   0.019   2.230   0.647
  313SOL    HW1  954  -0.063   2.273   0.686
  313SOL    HW2  955  -0.009   2.157   0.584
  314SOL     OW  956   1.135   2.565   0.717
  314SOL    HW1  957   1.192   2.643   0.692
  314SOL    HW2  958   1.075   2.591   0.793
  315SOL     OW  959   1.755   2.469   0.231
  315SOL    HW1  960   1.743   2.456   0.132
  315SOL    HW2  961   1.725   2.388   0.280
  316SOL     OW  962   0.850   2.660   1.823
  316SOL    HW1  963   0.846   2.736   1.888
  316SOL    HW2  964   0.872   2.696   1.732
  317SOL     OW  965   0.685   2.874   0.665
  317SOL    HW1  966   0.754   2.858   0.735
  317SOL    HW2  967   0.612   2.931   0.703
  318SOL     OW  968   0.438   2.254   1.499
  318SOL    HW1  969   0.520   2.198   1.508
  318SOL    HW2  970   0.357   2.196   1.503
  319SOL     OW  971   1.603   2.309   0.737
  319SOL    HW1  972   1.529   2.355   0.687
  319SOL    HW2  973   1.654   2.377   0.790
  320SOL     OW  974   1.594   1.976   1.480
  320SOL    HW1  975   1.576   2.043   1.408
  320SOL    HW2  976   1.591   2.022   1.569
  321SOL     OW  977   0.122   2.505   0.563
  321SOL    HW1  978   0.077   2.417   0.580
  321SOL    HW2  979   0.121   2.559   0.647
  322SOL     OW  980   0.113   2.599   1.597
  322SOL    HW1  981   0.201   2.586   1.642
  322SOL    HW2  982   0.100   2.696   1.575
  323SOL     OW  983   0.809   1.866   0.502
  323SOL    HW1  984   0.849   1.957   0.493
  323SOL    HW2  985   0.709   1.874   0.508
  324SOL     OW  986   0.317   2.113   1.801
  324SOL    HW1  987   0.388   2.184   1.807
  324SOL    HW2  988   0.229   2.152   1.829
  325SOL     OW  989   0.598   2.591   0.270
  325SOL    HW1  990   0.622   2.660   0.202
  325SOL    HW2  991   0.520   2.624   0.324
  326SOL     OW  992   1.281   2.207   0.944
  326SOL    HW1  993   1.195   2.157   0.931
  326SOL    HW2  994   1.343   2.153   1.000
  327SOL     OW  995   0.807   2.467   1.465
  327SOL    HW1  996   0.760   2.464   1.554
  327SOL    HW2  997   0.756   2.412   1.399
  328SOL     OW  998   1.394   2.331   1.674
  328SOL    HW1  999   1.374   2.374   1.762
  328SOL    HW2 1000   1.472   2.269   1.683
  329SOL     OW 1001   0.973   2.752   1.572
  329SOL    HW1 1002   1.019   2.668   1.543
  329SOL    HW2 1003   0.917   2.786   1.497
  330SOL     OW 1004   0.991   2.272   1.242
  330SOL    HW1 1005   0.914   2.306   1.296
  330SOL    HW2 1006   0.957   2.221   1.163
  331SOL     OW 1007   1.041   2.563   0.429
  331SOL    HW1 1008   1.067   2.559   0.525
  331SOL    HW2 1009   0.956   2.512   0.415
  332SOL     OW 1010   0.076   2.673   0.789
  332SOL    HW1 1011   0.175   2.661   0.798
  332SOL    HW2 1012   0.052   2.768   0.810
  333SOL     OW 1013   0.865   2.210   0.195
  333SOL    HW1 1014   0.924   2.273   0.146
  333SOL    HW2 1015   0.884   2.116   0.166
  334SOL     OW 1016   1.719   2.447   1.831
  334SOL    HW1 1017   1.693   2.536   1.795
  334SOL    HW2 1018   1.717   2.379   1.758
  335SOL     OW 1019   0.550   2.058   0.885
  335SOL    HW1 1020   0.545   2.053   0.985
  335SOL    HW2 1021   0.552   2.154   0.856
  336SOL     OW 1022   1.458   2.597   0.728
  336SOL    HW1 1023   1.453   2.532   0.803
  336SOL    HW2 1024   1.538   2.656   0.741
  337SOL     OW 1025   0.202   2.147   1.498
  337SOL    HW1 1026   0.122   2.207   1.485
  337SOL    HW2 1027   0.192   2.098   1.584
  338SOL     OW 1028   1.400   1.969   0.426
  338SOL    HW1 1029   1.376   1.932   0.336
  338SOL    HW2 1030   1.499   1.985   0.430
  339SOL     OW 1031   0.382   2.562   0.480
  339SOL    HW1 1032   0.427   2.472   0.477
  339SOL    HW2 1033   0.288   2.551   0.513
  340SOL     OW 1034   1.547   2.084   1.729
  340SOL    HW1 1035   1.542   2.121   1.821
  340SOL    HW2 1036   1.475   2.015   1.717
  341SOL     OW 1037   0.781   2.126   1.749
  341SOL    HW1 1038   0.848   2.065   1.792
  341SOL    HW2 1039   0.708   2.145   1.814
  342SOL     OW 1040   1.351   2.452   1.433
  342SOL    HW1 1041   1.379   2.409   1.518
  342SOL    HW2 1042   1.376   2.548   1.434
  343SOL     OW 1043   0.922   2.365   0.899
  343SOL    HW1 1044   0.897   2.356   0.803
  343SOL    HW2 1045   0.970   2.283   0.930
  344SOL     OW 1046   0.539   1.926   0.512
  344SOL    HW1 1047   0.458   1.927   0.570
  344SOL    HW2 1048   0.542   2.009   0.457
  345SOL     OW 1049   0.297   1.897   0.171
  345SOL    HW1 1050   0.346   1.981   0.150
  345SOL    HW2 1051   0.359   1.832   0.216
  346SOL     OW 1052   0.935   2.098   0.480
  346SOL    HW1 1053   0.887   2.139   0.402
  346SOL    HW2 1054   1.034   2.096   0.461
  347SOL     OW 1055   1.076   2.545   1.464
  347SOL    HW1 1056   0.996   2.484   1.467
  347SOL    HW2 1057   1.157   2.492   1.440
  348SOL     OW 1058   1.032   2.411   0.016
  348SOL    HW1 1059   0.991   2.493  -0.023
  348SOL    HW2 1060   1.096   2.437   0.089
  349SOL     OW 1061   0.078   2.418   1.386
  349SOL    HW1 1062   0.170   2.417   1.345
  349SOL    HW2 1063   0.072   2.492   1.453
  350SOL     OW 1064   0.561   2.084   1.147
  350SOL    HW1 1065   0.599   2.000   1.184
  350SOL    HW2 1066   0.473   2.103   1.191
  351SOL     OW 1067   0.866   2.316   0.642
  351SOL    HW1 1068   0.834   2.388   0.580
  351SOL    HW2 1069   0.890   2.235   0.589
  352SOL     OW 1070   1.017   1.901   0.753
  352SOL    HW1 1071   0.945   1.906   0.684
  352SOL    HW2 1072   0.993   1.832   0.822
  353SOL     OW 1073   1.466   2.452   0.992
  353SOL    HW1 1074   1.436   2.357   0.999
  353SOL    HW2 1075   1.539   2.468   1.058
  354SOL     OW 1076   1.857   2.695   0.377
  354SOL    HW1 1077   1.899   2.631   0.441
  354SOL    HW2 1078   1.819   2.644   0.299
  355SOL     OW 1079   1.390   2.437   0.078
  355SOL    HW1 1080   1.336   2.416   0.159
  355SOL    HW2 1081   1.481   2.396   0.087
  356SOL     OW 1082   0.527   2.118   0.328
  356SOL    HW1 1083   0.554   2.059   0.253
  356SOL    HW2 1084   0.527   2.213   0.297
  357SOL     OW 1085   0.915   1.951   1.402
  357SOL    HW1 1086   0.940   1.931   1.307
  357SOL    HW2 1087   0.987   2.007   1.444
  358SOL     OW 1088   0.410   2.675   1.251
  358SOL    HW1 1089   0.496   2.687   1.301
  358SOL    HW2 1090   0.368   2.588   1.278
  359SOL     OW 1091   1.274   2.248   1.262
  359SOL    HW1 1092   1.295   2.322   1.326
  359SOL    HW2 1093   1.185   2.265   1.219
  360SOL     OW 1094   0.566   2.399   0.865
  360SOL    HW1 1095   0.578   2.465   0.791
  360SOL    HW2 1096   0.612   2.433   0.948
  361SOL     OW 1097   1.582   2.501   0.472
  361SOL    HW1 1098   1.551   2.562   0.545
  361SOL    HW2 1099   1.632   2.553   0.403
  362SOL     OW 1100   0.402   2.613   1.598
  362SOL    HW1 1101   0.470   2.668   1.551
  362SOL    HW2 1102   0.442   2.525   1.625
  363SOL     OW 1103   1.587   2.641   1.670
  363SOL    HW1 1104   1.495   2.679   1.665
  363SOL    HW2 1105   1.647   2.688   1.605
  364SOL     OW 1106   1.013   1.967   1.770
  364SOL    HW1 1107   1.019   2.052   1.718
  364SOL    HW2 1108   1.045   1.891   1.713
  365SOL     OW 1109   0.504   1.912   1.740
  365SOL    HW1 1110   0.462   1.855   1.670
  365SOL    HW2 1111   0.438   1.981   1.772
  366SOL     OW 1112   0.573   2.732   1.029
  366SOL    HW1 1113   0.617   2.821   1.020
  366SOL    HW2 1114   0.510   2.732   1.106
  367SOL     OW 1115   1.360   2.724   1.045
  367SOL    HW1 1116   1.285   2.724   0.979
  367SOL    HW2 1117   1.397   2.632   1.054
  368SOL     OW 1118   1.209   2.387   0.275
  368SOL    HW1 1119   1.222   2.303   0.329
  368SOL    HW2 1120   1.180   2.461   0.335
  369SOL     OW 1121   0.307   2.075   1.231
  369SOL    HW1 1122   0.284   2.112   1.321
  369SOL    HW2 1123   0.277   1.980   1.225
  370SOL     OW 1124   0.732   2.496   1.064
  370SOL    HW1 1125   0.791   2.470   0.988
  370SOL    HW2 1126   0.704   2.592   1.053
  371SOL     OW 1127   1.728   2.797   1.854
  371SOL    HW1 1128   1.682   2.790   1.765
  371SOL    HW2 1129   1.666   2.841   1.920
  372SOL     OW 1130   0.307   1.925   0.618
  372SOL    HW1 1131   0.296   2.019   0.651
  372SOL    HW2 1132   0.302   1.862   0.695
  373SOL     OW 1133   1.622   2.229   0.374
  373SOL    HW1 1134   1.624   2.153   0.438
  373SOL    HW2 1135   1.574   2.306   0.414
  374SOL     OW 1136   1.023   2.628   0.966
  374SOL    HW1 1137   1.038   2.649   1.062
  374SOL    HW2 1138   0.993   2.533   0.957
  375SOL     OW 1139   1.540   2.136   0.125
  375SOL    HW1 1140   1.479   2.061   0.148
  375SOL    HW2 1141   1.562   2.188   0.208
  376SOL     OW 1142   1.303   2.700   0.042
  376SOL    HW1 1143   1.337   2.607   0.057
  376SOL    HW2 1144   1.321   2.727  -0.053
  377SOL     OW 1145   0.319   2.672   0.949
  377SOL    HW1 1146   0.412   2.708   0.954
  377SOL    HW2 1147   0.313   2.587   1.001
  378SOL     OW 1148   0.339   2.371   1.006
  378SOL    HW1 1149   0.287   2.288   0.989
  378SOL    HW2 1150   0.416   2.376   0.942
  379SOL     OW 1151   1.138   2.242   1.678
  379SOL    HW1 1152   1.093   2.305   1.742
  379SOL    HW2 1153   1.231   2.273   1.661
  380SOL     OW 1154   1.160   2.069   1.477
  380SOL    HW1 1155   1.160   2.133   1.554
  380SOL    HW2 1156   1.188   2.117   1.394
  381SOL     OW 1157   1.002   2.658   1.238
  381SOL    HW1 1158   1.043   2.626   1.324
  381SOL    HW2 1159   0.906   2.631   1.235
  382SOL     OW 1160   0.040   2.406   1.114
  382SOL    HW1 1161   0.125   2.373   1.073
  382SOL    HW2 1162   0.053   2.421   1.212
  383SOL     OW 1163   0.189   2.382   1.722
  383SOL    HW1 1164   0.248   2.342   1.652
  383SOL    HW2 1165   0.131   2.453   1.681
  384SOL     OW 1166   0.815   2.434   0.325
  384SOL    HW1 1167   0.822   2.345   0.279
  384SOL    HW2 1168   0.721   2.468   0.317
  385SOL     OW 1169   1.657   2.466   1.206
  385SOL    HW1 1170   1.619   2.397   1.268
  385SOL    HW2 1171   1.739   2.430   1.162
  386SOL     OW 1172   0.671   2.326   1.269
  386SOL    HW1 1173   0.637   2.237   1.239
  386SOL    HW2 1174   0.697   2.380   1.189
  387SOL     OW 1175   0.473   2.362   0.191
  387SOL    HW1 1176   0.534   2.442   0.195
  387SOL    HW2 1177   0.378   2.393   0.198
  388SOL     OW 1178   1.347   2.921   1.234
  388SOL    HW1 1179   1.371   2.858   1.160
  388SOL    HW2 1180   1.257   2.961   1.216
  389SOL     OW 1181   1.302   2.717   0.309
  389SOL    HW1 1182   1.216   2.686   0.351
  389SOL    HW2 1183   1.298   2.703   0.210
  390SOL     OW 1184   0.903   1.948   0.133
  390SOL    HW1 1185   0.954   1.949   0.047
  390SOL    HW2 1186   0.959   1.906   0.204
  391SOL     OW 1187   1.726   1.997   0.523
  391SOL    HW1 1188   1.799   1.980   0.456
  391SOL    HW2 1189   1.695   1.910   0.561
  392SOL     OW 1190   1.280   2.789   0.672
  392SOL    HW1 1191   1.340   2.708   0.674
  392SOL    HW2 1192   1.320   2.858   0.612
  393SOL     OW 1193   1.841   2.037   0.963
  393SOL    HW1 1194   1.880   1.952   0.927
  393SOL    HW2 1195   1.743   2.039   0.944
  394SOL     OW 1196   0.263   2.188   0.720
  394SOL    HW1 1197   0.184   2.239   0.686
  394SOL    HW2 1198   0.254   2.173   0.818
  395SOL     OW 1199   1.014   2.098   0.971
  395SOL    HW1 1200   1.006   2.062   0.878
  395SOL    HW2 1201   1.012   2.022   1.036
  396SOL     OW 1202   1.709   2.247   1.381
  396SOL    HW1 1203   1.782   2.316   1.385
  396SOL    HW2 1204   1.737   2.172   1.322
  397SOL     OW 1205   0.105   2.875   1.726
  397SOL    HW1 1206   0.028   2.842   1.780
  397SOL    HW2 1207   0.190   2.845   1.768
  398SOL     OW 1208   0.672   2.065   1.489
  398SOL    HW1 1209   0.762   2.049   1.449
  398SOL    HW2 1210   0.680   2.070   1.588
  399SOL     OW 1211   0.075   2.207   0.033
  399SOL    HW1 1212  -0.017   2.179   0.004
  399SOL    HW2 1213   0.106   2.284  -0.023
  400SOL     OW 1214   1.440   2.718   1.398
  400SOL    HW1 1215   1.383   2.770   1.335
  400SOL    HW2 1216   1.536   2.730   1.374
  401SOL     OW 1217   0.072   2.028   0.318
  401SOL    HW1 1218   0.055   2.111   0.264
  401SOL    HW2 1219   0.162   1.991   0.296
  402SOL     OW 1220   0.613   2.704   1.431
  402SOL    HW1 1221   0.669   2.785   1.414
  402SOL    HW2 1222   0.672   2.624   1.434
  403SOL     OW 1223   0.716   2.427   1.708
  403SOL    HW1 1224   0.735   2.492   1.782
  403SOL    HW2 1225   0.776   2.347   1.717
  404SOL     OW 1226   1.674   2.745   1.254
  404SOL    HW1 1227   1.647   2.656   1.217
  404SOL    HW2 1228   1.675   2.813   1.181
  405SOL     OW 1229   1.225   2.187   0.449
  405SOL    HW1 1230   1.290   2.113   0.438
  405SOL    HW2 1231   1.245   2.237   0.533
  406SOL     OW 1232   0.594   2.607   0.652
  406SOL    HW1 1233   0.644   2.692   0.633
  406SOL    HW2 1234   0.506   2.609   0.604
  407SOL     OW 1235   1.777   2.204   1.642
  407SOL    HW1 1236   1.760   2.235   1.548
  407SOL    HW2 1237   1.693   2.167   1.680
  408SOL     OW 1238   1.730   2.796   1.517
  408SOL    HW1 1239   1.768   2.887   1.532
  408SOL    HW2 1240   1.722   2.779   1.418
  409SOL     OW 1241   1.824   2.054   1.227
  409SOL    HW1 1242   1.820   1.964   1.271
  409SOL    HW2 1243   1.827   2.043   1.128
  410SOL     OW 1244   0.428   2.286   0.520
  410SOL    HW1 1245   0.458   2.214   0.458
  410SOL    HW2 1246   0.389   2.246   0.603
  411SOL     OW 1247   0.317   2.409   1.280
  411SOL    HW1 1248   0.355   2.350   1.352
  411SOL    HW2 1249   0.357   2.383   1.192
  412SOL     OW 1250   1.424   2.076   1.112
  412SOL    HW1 1251   1.476   2.011   1.167
  412SOL    HW2 1252   1.375   2.139   1.173
  413SOL     OW 1253   1.001   1.896   1.154
  413SOL    HW1 1254   0.938   1.824   1.123
  413SOL    HW2 1255   1.094   1.860   1.154
  414SOL     OW 1256   1.352   1.914   0.168
  414SOL    HW1 1257   1.387   1.873   0.084
  414SOL    HW2 1258   1.262   1.876   0.188
  415SOL     OW 1259   1.300   2.315   0.691
  415SOL    HW1 1260   1.241   2.395   0.695
  415SOL    HW2 1261   1.315   2.280   0.784
  416SOL     OW 1262   1.593   2.083   0.882
  416SOL    HW1 1263   1.509   2.082   0.936
  416SOL    HW2 1264   1.595   2.166   0.826
  417SOL     OW 1265   0.230   2.490   1.975
  417SOL    HW1 1266   0.137   2.488   2.012
  417SOL    HW2 1267   0.231   2.451   1.883
  418SOL     OW 1268   0.019   2.230   2.509
  418SOL    HW1 1269  -0.063   2.273   2.548
  418SOL    HW2 1270  -0.009   2.157   2.446
  419SOL     OW 1271   1.135   2.565   2.579
  419SOL    HW1 1272   1.192   2.643   2.554
  419SOL    HW2 1273   1.075   2.591   2.655
  420SOL     OW 1274   1.755   2.469   2.093
  420SOL    HW1 1275   1.743   2.456   1.994
  420SOL    HW2 1276   1.725   2.388   2.142
  421SOL     OW 1277   0.685   2.874   2.527
  421SOL    HW1 1278   0.754   2.858   2.597
  421SOL    HW2 1279   0.612   2.931   2.565
  422SOL     OW 1280   1.603   2.309   2.599
  422SOL    HW1 1281   1.529   2.355   2.549
  422SOL    HW2 1282   1.654   2.377   2.652
  423SOL     OW 1283   0.240   2.953   2.748
  423SOL    HW1 1284   0.254   2.869   2.800
  423SOL    HW2 1285   0.185   3.017   2.803
  424SOL     OW 1286   0.122   2.505   2.425
  424SOL    HW1 1287   0.077   2.417   2.442
  424SOL    HW2 1288   0.121   2.559   2.509
  425SOL     OW 1289   0.809   1.866   2.364
  425SOL    HW1 1290   0.849   1.957   2.355
  425SOL    HW2 1291   0.709   1.874   2.370
  426SOL     OW 1292   0.598   2.591   2.132
  426SOL    HW1 1293   0.622   2.660   2.064
  426SOL    HW2 1294   0.520   2.624   2.186
  427SOL     OW 1295   1.281   2.207   2.806
  427SOL    HW1 1296   1.195   2.157   2.793
  427SOL    HW2 1297   1.343   2.153   2.862
  428SOL     OW 1298   1.041   2.563   2.291
  428SOL    HW1 1299   1.067   2.559   2.387
  428SOL    HW2 1300   0.956   2.512   2.277
  429SOL     OW 1301   0.076   2.673   2.651
  429SOL    HW1 1302   0.175   2.661   2.660
  429SOL    HW2 1303   0.052   2.768   2.672
  430SOL     OW 1304   0.865   2.210   2.057
  430SOL    HW1 1305   0.924   2.273   2.008
  430SOL    HW2 1306   0.884   2.116   2.028
  431SOL     OW 1307   0.550   2.058   2.747
  431SOL    HW1 1308   0.545   2.053   2.847
  431SOL    HW2 1309   0.552   2.154   2.718
  432SOL     OW 1310   1.458   2.597   2.590
  432SOL    HW1 1311   1.453   2.532   2.665
  432SOL    HW2 1312   1.538   2.656   2.603
  433SOL     OW 1313   1.400   1.969   2.288
  433SOL    HW1 1314   1.376   1.932   2.198
  433SOL    HW2 1315   1.499   1.985   2.292
  434SOL     OW 1316   0.382   2.562   2.342
  434SOL    HW1 1317   0.427   2.472   2.339
  434SOL    HW2 1318   0.288   2.551   2.375
  435SOL     OW 1319   0.614   1.984   1.979
  435SOL    HW1 1320   0.712   1.962   1.986
  435SOL    HW2 1321   0.583   1.967   1.886
  436SOL     OW 1322   0.539   1.926   2.374
  436SOL    HW1 1323   0.458   1.927   2.432
  436SOL    HW2 1324   0.542   2.009   2.319
  437SOL     OW 1325   0.297   1.897   2.033
  437SOL    HW1 1326   0.346   1.981   2.012
  437SOL    HW2 1327   0.359   1.832   2.078
  438SOL     OW 1328   0.935   2.098   2.342
  438SOL    HW1 1329   0.887   2.139   2.264
  438SOL    HW2 1330   1.034   2.096   2.323
  439SOL     OW 1331   1.032   2.411   1.878
  439SOL    HW1 1332   0.991   2.493   1.839
  439SOL    HW2 1333   1.096   2.437   1.951
  440SOL     OW 1334   0.866   2.316   2.504
  440SOL    HW1 1335   0.834   2.388   2.442
  440SOL    HW2 1336   0.890   2.235   2.451
  441SOL     OW 1337   1.017   1.901   2.615
  441SOL    HW1 1338   0.945   1.906   2.546
  441SOL    HW2 1339   0.993   1.832   2.684
  442SOL     OW 1340   1.857   2.695   2.239
  442SOL    HW1 1341   1.899   2.631   2.303
  442SOL    HW2 1342   1.819   2.644   2.161
  443SOL     OW 1343   1.390   2.437   1.940
  443SOL    HW1 1344   1.336   2.416   2.021
  443SOL    HW2 1345   1.481   2.396   1.949
  444SOL     OW 1346   0.527   2.118   2.190
  444SOL    HW1 1347   0.554   2.059   2.115
  444SOL    HW2 1348   0.527   2.213   2.159
  445SOL     OW 1349   1.111   3.057   2.962
  445SOL    HW1 1350   1.071   3.101   3.043
  445SOL    HW2 1351   1.070   3.094   2.879
  446SOL     OW 1352   0.566   2.399   2.727
  446SOL    HW1 1353   0.578   2.465   2.653
  446SOL    HW2 1354   0.612   2.433   2.810
  447SOL     OW 1355   1.582   2.501   2.334
  447SOL    HW1 1356   1.551   2.562   2.407
  447SOL    HW2 1357   1.632   2.553   2.265
  448SOL     OW 1358   1.209   2.387   2.137
  448SOL    HW1 1359   1.222   2.303   2.191
  448SOL    HW2 1360   1.180   2.461   2.197
  449SOL     OW 1361   0.732   2.496   2.926
  449SOL    HW1 1362   0.791   2.470   2.850
  449SOL    HW2 1363   0.704   2.592   2.915
  450SOL     OW 1364   0.307   1.925   2.480
  450SOL    HW1 1365   0.296   2.019   2.513
  450SOL    HW2 1366   0.302   1.862   2.557
  451SOL     OW 1367   1.622   2.229   2.236
  451SOL    HW1 1368   1.624   2.153   2.300
  451SOL    HW2 1369   1.574   2.306   2.276
  452SOL     OW 1370   1.540   2.136   1.987
  452SOL    HW1 1371   1.479   2.061   2.010
  452SOL    HW2 1372   1.562   2.188   2.070
  453SOL     OW 1373   1.303   2.700   1.904
  453SOL    HW1 1374   1.337   2.607   1.919
  453SOL    HW2 1375   1.321   2.727   1.809
  454SOL     OW 1376   0.815   2.434   2.187
  454SOL    HW1 1377   0.822   2.345   2.141
  454SOL    HW2 1378   0.721   2.468   2.179
  455SOL     OW 1379   0.473   2.362   2.053
  455SOL    HW1 1380   0.534   2.442   2.057
  455SOL    HW2 1381   0.378   2.393   2.060
  456SOL     OW 1382   1.302   2.717   2.171
  456SOL    HW1 1383   1.216   2.686   2.213
  456SOL    HW2 1384   1.298   2.703   2.072
  457SOL     OW 1385   1.726   1.997   2.385
  457SOL    HW1 1386   1.799   1.980   2.318
  457SOL    HW2 1387   1.695   1.910   2.423
  458SOL     OW 1388   1.280   2.789   2.534
  458SOL    HW1 1389   1.340   2.708   2.536
  458SOL    HW2 1390   1.320   2.858   2.474
  459SOL     OW 1391   1.841   2.037   2.825
  459SOL    HW1 1392   1.880   1.952   2.789
  459SOL    HW2 1393   1.743   2.039   2.806
  460SOL     OW 1394   0.263   2.188   2.582
  460SOL    HW1 1395   0.184   2.239   2.548
  460SOL    HW2 1396   0.254   2.173   2.680
  461SOL     OW 1397   0.916   2.772   2.153
  461SOL    HW1 1398   0.979   2.810   2.085
  461SOL    HW2 1399   0.956   2.689   2.192
  462SOL     OW 1400   0.075   2.207   1.895
  462SOL    HW1 1401  -0.017   2.179   1.866
  462SOL    HW2 1402   0.106   2.284   1.839
  463SOL     OW 1403   0.072   2.028   2.180
  463SOL    HW1 1404   0.055   2.111   2.126
  463SOL    HW2 1405   0.162   1.991   2.158
  464SOL     OW 1406   1.674   2.745   3.116
  464SOL    HW1 1407   1.647   2.656   3.079
  464SOL    HW2 1408   1.675   2.813   3.043
  465SOL     OW 1409   1.225   2.187   2.311
  465SOL    HW1 1410   1.290   2.113   2.300
  465SOL    HW2 1411   1.245   2.237   2.395
  466SOL     OW 1412   0.594   2.607   2.514
  466SOL    HW1 1413   0.644   2.692   2.495
  466SOL    HW2 1414   0.506   2.609   2.466
  467SOL     OW 1415   0.428   2.286   2.382
  467SOL    HW1 1416   0.458   2.214   2.320
  467SOL    HW2 1417   0.389   2.246   2.465
  468SOL     OW 1418   1.352   1.914   2.030
  468SOL    HW1 1419   1.387   1.873   1.946
  468SOL    HW2 1420   1.262   1.876   2.050
  469SOL     OW 1421   1.300   2.315   2.553
  469SOL    HW1 1422   1.241   2.395   2.557
  469SOL    HW2 1423   1.315   2.280   2.646
  470SOL     OW 1424   1.593   2.083   2.744
  470SOL    HW1 1425   1.509   2.082   2.798
  470SOL    HW2 1426   1.595   2.166   2.688
  471SOL     OW 1427   2.092   0.628   0.113
  471SOL    HW1 1428   1.999   0.626   0.150
  471SOL    HW2 1429   2.093   0.589   0.021
  472SOL     OW 1430   2.087   0.275   0.996
  472SOL    HW1 1431   2.122   0.258   1.088
  472SOL    HW2 1432   1.999   0.230   0.984
  473SOL     OW 1433   1.881   0.368   0.647
  473SOL    HW1 1434   1.799   0.411   0.686
  473SOL    HW2 1435   1.853   0.295   0.584
  474SOL     OW 1436   2.431   1.275   1.165
  474SOL    HW1 1437   2.338   1.268   1.128
  474SOL    HW2 1438   2.442   1.364   1.209
  475SOL     OW 1439   2.630   1.144   1.023
  475SOL    HW1 1440   2.552   1.161   1.083
  475SOL    HW2 1441   2.664   1.231   0.987
  476SOL     OW 1442   2.712   0.798   1.823
  476SOL    HW1 1443   2.708   0.874   1.888
  476SOL    HW2 1444   2.734   0.834   1.732
  477SOL     OW 1445   2.547   1.012   0.665
  477SOL    HW1 1446   2.616   0.996   0.735
  477SOL    HW2 1447   2.474   1.069   0.703
  478SOL     OW 1448   2.548   1.161   1.803
  478SOL    HW1 1449   2.608   1.240   1.817
  478SOL    HW2 1450   2.462   1.192   1.762
  479SOL     OW 1451   2.197   1.435   1.061
  479SOL    HW1 1452   2.119   1.404   1.008
  479SOL    HW2 1453   2.255   1.493   1.004
  480SOL     OW 1454   2.300   0.392   1.499
  480SOL    HW1 1455   2.382   0.336   1.508
  480SOL    HW2 1456   2.219   0.334   1.503
  481SOL     OW 1457   2.093   1.713   0.483
  481SOL    HW1 1458   2.127   1.790   0.537
  481SOL    HW2 1459   2.137   1.713   0.393
  482SOL     OW 1460   2.092   1.434   0.538
  482SOL    HW1 1461   2.066   1.530   0.538
  482SOL    HW2 1462   2.021   1.380   0.583
  483SOL     OW 1463   2.102   1.091   0.886
  483SOL    HW1 1464   2.116   1.007   0.938
  483SOL    HW2 1465   2.047   1.155   0.941
  484SOL     OW 1466   2.482   1.786   1.439
  484SOL    HW1 1467   2.390   1.769   1.474
  484SOL    HW2 1468   2.510   1.878   1.465
  485SOL     OW 1469   2.468   0.964   0.123
  485SOL    HW1 1470   2.475   1.048   0.069
  485SOL    HW2 1471   2.514   0.977   0.211
  486SOL     OW 1472   1.984   0.643   0.563
  486SOL    HW1 1473   1.939   0.555   0.580
  486SOL    HW2 1474   1.983   0.697   0.647
  487SOL     OW 1475   1.975   0.737   1.597
  487SOL    HW1 1476   2.063   0.724   1.642
  487SOL    HW2 1477   1.962   0.834   1.575
  488SOL     OW 1478   2.475   1.365   0.726
  488SOL    HW1 1479   2.426   1.278   0.735
  488SOL    HW2 1480   2.452   1.408   0.639
  489SOL     OW 1481   2.671   0.004   0.502
  489SOL    HW1 1482   2.711   0.095   0.493
  489SOL    HW2 1483   2.571   0.012   0.508
  490SOL     OW 1484   2.059   0.976   1.264
  490SOL    HW1 1485   2.148   0.931   1.250
  490SOL    HW2 1486   1.986   0.911   1.245
  491SOL     OW 1487   2.179   0.251   1.801
  491SOL    HW1 1488   2.250   0.322   1.807
  491SOL    HW2 1489   2.091   0.290   1.829
  492SOL     OW 1490   2.460   0.729   0.270
  492SOL    HW1 1491   2.484   0.798   0.202
  492SOL    HW2 1492   2.382   0.762   0.324
  493SOL     OW 1493   2.669   0.605   1.465
  493SOL    HW1 1494   2.622   0.602   1.554
  493SOL    HW2 1495   2.618   0.550   1.399
  494SOL     OW 1496   1.938   0.811   0.789
  494SOL    HW1 1497   2.037   0.799   0.798
  494SOL    HW2 1498   1.914   0.906   0.810
  495SOL     OW 1499   1.992   1.821   1.571
  495SOL    HW1 1500   1.982   1.806   1.670
  495SOL    HW2 1501   1.906   1.857   1.535
  496SOL     OW 1502   2.727   0.348   0.195
  496SOL    HW1 1503   2.786   0.411   0.146
  496SOL    HW2 1504   2.746   0.254   0.166
  497SOL     OW 1505   2.412   0.196   0.885
  497SOL    HW1 1506   2.407   0.191   0.985
  497SOL    HW2 1507   2.414   0.292   0.856
  498SOL     OW 1508   2.870   1.456   0.477
  498SOL    HW1 1509   2.824   1.528   0.425
  498SOL    HW2 1510   2.866   1.476   0.575
  499SOL     OW 1511   2.213   1.801   0.853
  499SOL    HW1 1512   2.263   1.715   0.859
  499SOL    HW2 1513   2.278   1.878   0.850
  500SOL     OW 1514   2.183   0.943   0.242
  500SOL    HW1 1515   2.265   0.982   0.200
  500SOL    HW2 1516   2.156   0.861   0.193
  501SOL     OW 1517   2.323   1.266   1.727
  501SOL    HW1 1518   2.273   1.267   1.641
  501SOL    HW2 1519   2.260   1.248   1.803
  502SOL     OW 1520   2.973   1.776   0.237
  502SOL    HW1 1521   2.913   1.714   0.287
  502SOL    HW2 1522   3.004   1.732   0.152
  503SOL     OW 1523   2.064   0.285   1.498
  503SOL    HW1 1524   1.984   0.345   1.485
  503SOL    HW2 1525   2.054   0.236   1.584
  504SOL     OW 1526   2.326   1.743   0.323
  504SOL    HW1 1527   2.359   1.782   0.409
  504SOL    HW2 1528   2.402   1.736   0.258
  505SOL     OW 1529   2.111   1.785   1.241
  505SOL    HW1 1530   2.168   1.720   1.291
  505SOL    HW2 1531   2.095   1.752   1.148
  506SOL     OW 1532   2.244   0.700   0.480
  506SOL    HW1 1533   2.289   0.610   0.477
  506SOL    HW2 1534   2.150   0.689   0.513
  507SOL     OW 1535   2.476   0.122   0.117
  507SOL    HW1 1536   2.574   0.100   0.124
  507SOL    HW2 1537   2.445   0.105   0.024
  508SOL     OW 1538   2.643   0.264   1.749
  508SOL    HW1 1539   2.710   0.203   1.792
  508SOL    HW2 1540   2.570   0.283   1.814
  509SOL     OW 1541   2.665   1.402   0.924
  509SOL    HW1 1542   2.755   1.416   0.882
  509SOL    HW2 1543   2.594   1.404   0.853
  510SOL     OW 1544   2.784   0.503   0.899
  510SOL    HW1 1545   2.759   0.494   0.803
  510SOL    HW2 1546   2.832   0.421   0.930
  511SOL     OW 1547   2.401   0.064   0.512
  511SOL    HW1 1548   2.320   0.065   0.570
  511SOL    HW2 1549   2.404   0.147   0.457
  512SOL     OW 1550   2.159   0.035   0.171
  512SOL    HW1 1551   2.208   0.119   0.150
  512SOL    HW2 1552   2.221  -0.030   0.216
  513SOL     OW 1553   2.321   1.152   0.741
  513SOL    HW1 1554   2.250   1.125   0.806
  513SOL    HW2 1555   2.295   1.124   0.648
  514SOL     OW 1556   1.940   0.556   1.386
  514SOL    HW1 1557   2.032   0.555   1.345
  514SOL    HW2 1558   1.934   0.630   1.453
  515SOL     OW 1559   2.423   0.222   1.147
  515SOL    HW1 1560   2.461   0.138   1.184
  515SOL    HW2 1561   2.335   0.241   1.191
  516SOL     OW 1562   2.350   1.385   0.174
  516SOL    HW1 1563   2.263   1.370   0.221
  516SOL    HW2 1564   2.333   1.411   0.079
  517SOL     OW 1565   2.389   0.256   0.328
  517SOL    HW1 1566   2.416   0.197   0.253
  517SOL    HW2 1567   2.389   0.351   0.297
  518SOL     OW 1568   2.777   0.089   1.402
  518SOL    HW1 1569   2.802   0.069   1.307
  518SOL    HW2 1570   2.849   0.145   1.444
  519SOL     OW 1571   2.567   1.050   0.368
  519SOL    HW1 1572   2.553   1.057   0.467
  519SOL    HW2 1573   2.651   0.999   0.350
  520SOL     OW 1574   2.272   0.813   1.251
  520SOL    HW1 1575   2.358   0.825   1.301
  520SOL    HW2 1576   2.230   0.726   1.278
  521SOL     OW 1577   1.926   1.564   1.331
  521SOL    HW1 1578   1.880   1.646   1.297
  521SOL    HW2 1579   2.024   1.583   1.340
  522SOL     OW 1580   2.229   1.100   0.501
  522SOL    HW1 1581   2.222   1.183   0.445
  522SOL    HW2 1582   2.233   1.020   0.441
  523SOL     OW 1583   2.428   0.537   0.865
  523SOL    HW1 1584   2.440   0.603   0.791
  523SOL    HW2 1585   2.474   0.571   0.948
  524SOL     OW 1586   2.216   1.510   1.329
  524SOL    HW1 1587   2.195   1.466   1.242
  524SOL    HW2 1588   2.313   1.536   1.332
  525SOL     OW 1589   2.264   0.751   1.598
  525SOL    HW1 1590   2.332   0.806   1.551
  525SOL    HW2 1591   2.304   0.663   1.625
  526SOL     OW 1592   2.366   0.050   1.740
  526SOL    HW1 1593   2.324  -0.007   1.670
  526SOL    HW2 1594   2.300   0.119   1.772
  527SOL     OW 1595   2.435   0.870   1.029
  527SOL    HW1 1596   2.479   0.959   1.020
  527SOL    HW2 1597   2.372   0.870   1.106
  528SOL     OW 1598   2.169   0.213   1.231
  528SOL    HW1 1599   2.146   0.250   1.321
  528SOL    HW2 1600   2.139   0.118   1.225
  529SOL     OW 1601   1.899   1.310   1.282
  529SOL    HW1 1602   1.952   1.261   1.350
  529SOL    HW2 1603   1.921   1.408   1.287
  530SOL     OW 1604   2.594   0.634   1.064
  530SOL    HW1 1605   2.653   0.608   0.988
  530SOL    HW2 1606   2.566   0.730   1.053
  531SOL     OW 1607   2.169   0.063   0.618
  531SOL    HW1 1608   2.158   0.157   0.651
  531SOL    HW2 1609   2.164   0.000   0.695
  532SOL     OW 1610   2.885   0.766   0.966
  532SOL    HW1 1611   2.900   0.787   1.062
  532SOL    HW2 1612   2.855   0.671   0.957
  533SOL     OW 1613   2.842   1.573   1.700
  533SOL    HW1 1614   2.822   1.617   1.612
  533SOL    HW2 1615   2.881   1.482   1.684
  534SOL     OW 1616   2.212   0.898   1.804
  534SOL    HW1 1617   2.288   0.942   1.852
  534SOL    HW2 1618   2.247   0.851   1.722
  535SOL     OW 1619   2.181   0.810   0.949
  535SOL    HW1 1620   2.274   0.846   0.954
  535SOL    HW2 1621   2.175   0.725   1.001
  536SOL     OW 1622   2.201   0.509   1.006
  536SOL    HW1 1623   2.149   0.426   0.989
  536SOL    HW2 1624   2.278   0.514   0.942
  537SOL     OW 1625   1.870   1.326   0.200
  537SOL    HW1 1626   1.777   1.347   0.169
  537SOL    HW2 1627   1.880   1.227   0.213
  538SOL     OW 1628   1.950   1.801   0.927
  538SOL    HW1 1629   1.908   1.715   0.900
  538SOL    HW2 1630   2.044   1.804   0.893
  539SOL     OW 1631   2.366   1.568   0.910
  539SOL    HW1 1632   2.432   1.642   0.919
  539SOL    HW2 1633   2.410   1.489   0.868
  540SOL     OW 1634   1.902   0.544   1.114
  540SOL    HW1 1635   1.987   0.511   1.073
  540SOL    HW2 1636   1.915   0.559   1.212
  541SOL     OW 1637   2.051   0.520   1.722
  541SOL    HW1 1638   2.110   0.480   1.652
  541SOL    HW2 1639   1.993   0.591   1.681
  542SOL     OW 1640   2.677   0.572   0.325
  542SOL    HW1 1641   2.684   0.483   0.279
  542SOL    HW2 1642   2.583   0.606   0.317
  543SOL     OW 1643   2.114   1.564   1.744
  543SOL    HW1 1644   2.084   1.621   1.820
  543SOL    HW2 1645   2.107   1.467   1.770
  544SOL     OW 1646   2.533   0.464   1.269
  544SOL    HW1 1647   2.499   0.375   1.239
  544SOL    HW2 1648   2.559   0.518   1.189
  545SOL     OW 1649   2.335   0.500   0.191
  545SOL    HW1 1650   2.396   0.580   0.195
  545SOL    HW2 1651   2.240   0.531   0.198
  546SOL     OW 1652   2.021   1.137   1.466
  546SOL    HW1 1653   2.043   1.076   1.542
  546SOL    HW2 1654   2.031   1.088   1.380
  547SOL     OW 1655   1.945   1.258   1.022
  547SOL    HW1 1656   1.940   1.257   1.122
  547SOL    HW2 1657   1.862   1.217   0.984
  548SOL     OW 1658   2.550   1.662   1.716
  548SOL    HW1 1659   2.494   1.743   1.725
  548SOL    HW2 1660   2.602   1.666   1.630
  549SOL     OW 1661   2.765   0.086   0.133
  549SOL    HW1 1662   2.816   0.087   0.047
  549SOL    HW2 1663   2.821   0.044   0.204
  550SOL     OW 1664   1.992   1.794   1.851
  550SOL    HW1 1665   1.951   1.720   1.904
  550SOL    HW2 1666   2.056   1.845   1.909
  551SOL     OW 1667   2.692   1.273   1.422
  551SOL    HW1 1668   2.687   1.306   1.517
  551SOL    HW2 1669   2.606   1.292   1.376
  552SOL     OW 1670   2.534   1.616   0.154
  552SOL    HW1 1671   2.543   1.626   0.055
  552SOL    HW2 1672   2.494   1.527   0.175
  553SOL     OW 1673   2.125   0.326   0.720
  553SOL    HW1 1674   2.046   0.377   0.686
  553SOL    HW2 1675   2.116   0.311   0.818
  554SOL     OW 1676   3.056   1.612   0.031
  554SOL    HW1 1677   3.062   1.519   0.068
  554SOL    HW2 1678   2.997   1.612  -0.049
  555SOL     OW 1679   2.684   1.002   1.372
  555SOL    HW1 1680   2.724   1.001   1.280
  555SOL    HW2 1681   2.694   1.094   1.412
  556SOL     OW 1682   2.234   1.288   1.490
  556SOL    HW1 1683   2.221   1.381   1.456
  556SOL    HW2 1684   2.150   1.236   1.477
  557SOL     OW 1685   2.452   1.487   0.491
  557SOL    HW1 1686   2.494   1.429   0.421
  557SOL    HW2 1687   2.408   1.566   0.447
  558SOL     OW 1688   2.117   1.348   0.290
  558SOL    HW1 1689   2.021   1.349   0.263
  558SOL    HW2 1690   2.129   1.401   0.374
  559SOL     OW 1691   1.967   1.013   1.726
  559SOL    HW1 1692   1.890   0.980   1.780
  559SOL    HW2 1693   2.052   0.983   1.768
  560SOL     OW 1694   2.534   0.203   1.489
  560SOL    HW1 1695   2.624   0.187   1.449
  560SOL    HW2 1696   2.542   0.208   1.588
  561SOL     OW 1697   2.475   0.842   1.431
  561SOL    HW1 1698   2.531   0.923   1.414
  561SOL    HW2 1699   2.534   0.762   1.434
  562SOL     OW 1700   2.578   0.565   1.708
  562SOL    HW1 1701   2.597   0.630   1.782
  562SOL    HW2 1702   2.638   0.485   1.717
  563SOL     OW 1703   2.252   1.741   1.560
  563SOL    HW1 1704   2.161   1.782   1.558
  563SOL    HW2 1705   2.245   1.647   1.592
  564SOL     OW 1706   2.456   0.745   0.652
  564SOL    HW1 1707   2.506   0.830   0.633
  564SOL    HW2 1708   2.368   0.747   0.604
  565SOL     OW 1709   2.523   1.790   0.953
  565SOL    HW1 1710   2.477   1.878   0.940
  565SOL    HW2 1711   2.622   1.802   0.946
  566SOL     OW 1712   2.721   0.956   0.861
  566SOL    HW1 1713   2.775   0.887   0.909
  566SOL    HW2 1714   2.689   1.025   0.927
  567SOL     OW 1715   2.083   1.314   1.844
  567SOL    HW1 1716   2.018   1.241   1.823
  567SOL    HW2 1717   2.087   1.328   1.942
  568SOL     OW 1718   1.941   1.240   0.653
  568SOL    HW1 1719   1.940   1.193   0.741
  568SOL    HW2 1720   2.023   1.212   0.602
  569SOL     OW 1721   2.534   1.391   1.624
  569SOL    HW1 1722   2.456   1.341   1.662
  569SOL    HW2 1723   2.531   1.486   1.655
  570SOL     OW 1724   2.290   0.424   0.520
  570SOL    HW1 1725   2.320   0.352   0.458
  570SOL    HW2 1726   2.251   0.384   0.603
  571SOL     OW 1727   2.179   0.547   1.280
  571SOL    HW1 1728   2.217   0.488   1.352
  571SOL    HW2 1729   2.219   0.521   1.192
  572SOL     OW 1730   2.674   1.586   0.687
  572SOL    HW1 1731   2.706   1.596   0.593
  572SOL    HW2 1732   2.595   1.524   0.689
  573SOL     OW 1733   2.863   0.034   1.154
  573SOL    HW1 1734   2.800  -0.038   1.123
  573SOL    HW2 1735   2.956  -0.002   1.154
  574SOL     OW 1736   2.632   1.330   0.301
  574SOL    HW1 1737   2.586   1.243   0.318
  574SOL    HW2 1738   2.723   1.327   0.342
  575SOL     OW 1739   2.480   1.567   1.284
  575SOL    HW1 1740   2.475   1.649   1.341
  575SOL    HW2 1741   2.569   1.564   1.239
  576SOL     OW 1742   1.901   1.077   0.300
  576SOL    HW1 1743   2.000   1.066   0.291
  576SOL    HW2 1744   1.861   0.991   0.332
  577SOL     OW 1745   2.737   1.646   0.337
  577SOL    HW1 1746   2.660   1.611   0.283
  577SOL    HW2 1747   2.705   1.717   0.399
  578SOL     OW 1748   2.092   0.628   1.975
  578SOL    HW1 1749   1.999   0.626   2.012
  578SOL    HW2 1750   2.093   0.589   1.883
  579SOL     OW 1751   2.087   0.275   2.858
  579SOL    HW1 1752   2.122   0.258   2.950
  579SOL    HW2 1753   1.999   0.230   2.846
  580SOL     OW 1754   1.881   0.368   2.509
  580SOL    HW1 1755   1.799   0.411   2.548
  580SOL    HW2 1756   1.853   0.295   2.446
  581SOL     OW 1757   2.630   1.144   2.885
  581SOL    HW1 1758   2.552   1.161   2.945
  581SOL    HW2 1759   2.664   1.231   2.849
  582SOL     OW 1760   2.547   1.012   2.527
  582SOL    HW1 1761   2.616   0.996   2.597
  582SOL    HW2 1762   2.474   1.069   2.565
  583SOL     OW 1763   2.093   1.713   2.345
  583SOL    HW1 1764   2.127   1.790   2.399
  583SOL    HW2 1765   2.137   1.713   2.255
  584SOL     OW 1766   2.092   1.434   2.400
  584SOL    HW1 1767   2.066   1.530   2.400
  584SOL    HW2 1768   2.021   1.380   2.445
  585SOL     OW 1769   2.102   1.091   2.748
  585SOL    HW1 1770   2.116   1.007   2.800
  585SOL    HW2 1771   2.047   1.155   2.803
  586SOL     OW 1772   2.468   0.964   1.985
  586SOL    HW1 1773   2.475   1.048   1.931
  586SOL    HW2 1774   2.514   0.977   2.073
  587SOL     OW 1775   1.984   0.643   2.425
  587SOL    HW1 1776   1.939   0.555   2.442
  587SOL    HW2 1777   1.983   0.697   2.509
  588SOL     OW 1778   1.889   1.596   1.979
  588SOL    HW1 1779   1.870   1.500   2.000
  588SOL    HW2 1780   1.856   1.654   2.054
  589SOL     OW 1781   2.475   1.365   2.588
  589SOL    HW1 1782   2.426   1.278   2.597
  589SOL    HW2 1783   2.452   1.408   2.501
  590SOL     OW 1784   2.671   0.004   2.364
  590SOL    HW1 1785   2.711   0.095   2.355
  590SOL    HW2 1786   2.571   0.012   2.370
  591SOL     OW 1787   2.460   0.729   2.132
  591SOL    HW1 1788   2.484   0.798   2.064
  591SOL    HW2 1789   2.382   0.762   2.186
  592SOL     OW 1790   1.938   0.811   2.651
  592SOL    HW1 1791   2.037   0.799   2.660
  592SOL    HW2 1792   1.914   0.906   2.672
  593SOL     OW 1793   2.727   0.348   2.057
  593SOL    HW1 1794   2.786   0.411   2.008
  593SOL    HW2 1795   2.746   0.254   2.028
  594SOL     OW 1796   2.870   1.456   2.339
  594SOL    HW1 1797   2.824   1.528   2.287
  594SOL    HW2 1798   2.866   1.476   2.437
  595SOL     OW 1799   2.213   1.801   2.715
  595SOL    HW1 1800   2.263   1.715   2.721
  595SOL    HW2 1801   2.278   1.878   2.712
  596SOL     OW 1802   2.183   0.943   2.104
  596SOL    HW1 1803   2.265   0.982   2.062
  596SOL    HW2 1804   2.156   0.861   2.055
  597SOL     OW 1805   2.973   1.776   2.099
  597SOL    HW1 1806   2.913   1.714   2.149
  597SOL    HW2 1807   3.004   1.732   2.014
  598SOL     OW 1808   2.326   1.743   2.185
  598SOL    HW1 1809   2.359   1.782   2.271
  598SOL    HW2 1810   2.402   1.736   2.120
  599SOL     OW 1811   2.244   0.700   2.342
  599SOL    HW1 1812   2.289   0.610   2.339
  599SOL    HW2 1813   2.150   0.689   2.375
  600SOL     OW 1814   2.476   0.122   1.979
  600SOL    HW1 1815   2.574   0.100   1.986
  600SOL    HW2 1816   2.445   0.105   1.886
  601SOL     OW 1817   2.665   1.402   2.786
  601SOL    HW1 1818   2.755   1.416   2.744
  601SOL    HW2 1819   2.594   1.404   2.715
  602SOL     OW 1820   2.401   0.064   2.374
  602SOL    HW1 1821   2.320   0.065   2.432
  602SOL    HW2 1822   2.404   0.147   2.319
  603SOL     OW 1823   2.159   0.035   2.033
  603SOL    HW1 1824   2.208   0.119   2.012
  603SOL    HW2 1825   2.221  -0.030   2.078
  604SOL     OW 1826   2.321   1.152   2.603
  604SOL    HW1 1827   2.250   1.125   2.668
  604SOL    HW2 1828   2.295   1.124   2.510
  605SOL     OW 1829   2.350   1.385   2.036
  605SOL    HW1 1830   2.263   1.370   2.083
  605SOL    HW2 1831   2.333   1.411   1.941
  606SOL     OW 1832   2.389   0.256   2.190
  606SOL    HW1 1833   2.416   0.197   2.115
  606SOL    HW2 1834   2.389   0.351   2.159
  607SOL     OW 1835   2.567   1.050   2.230
  607SOL    HW1 1836   2.553   1.057   2.329
  607SOL    HW2 1837   2.651   0.999   2.212
  608SOL     OW 1838   3.136   0.386   3.124
  608SOL    HW1 1839   3.157   0.460   3.188
  608SOL    HW2 1840   3.047   0.403   3.081
  609SOL     OW 1841   2.229   1.100   2.363
  609SOL    HW1 1842   2.222   1.183   2.307
  609SOL    HW2 1843   2.233   1.020   2.303
  610SOL     OW 1844   2.428   0.537   2.727
  610SOL    HW1 1845   2.440   0.603   2.653
  610SOL    HW2 1846   2.474   0.571   2.810
  611SOL     OW 1847   2.594   0.634   2.926
  611SOL    HW1 1848   2.653   0.608   2.850
  611SOL    HW2 1849   2.566   0.730   2.915
  612SOL     OW 1850   2.169   0.063   2.480
  612SOL    HW1 1851   2.158   0.157   2.513
  612SOL    HW2 1852   2.164   0.000   2.557
  613SOL     OW 1853   2.885   0.766   2.828
  613SOL    HW1 1854   2.900   0.787   2.924
  613SOL    HW2 1855   2.855   0.671   2.819
  614SOL     OW 1856   1.870   1.326   2.062
  614SOL    HW1 1857   1.777   1.347   2.031
  614SOL    HW2 1858   1.880   1.227   2.075
  615SOL     OW 1859   1.950   1.801   2.789
  615SOL    HW1 1860   1.908   1.715   2.762
  615SOL    HW2 1861   2.044   1.804   2.755
  616SOL     OW 1862   2.366   1.568   2.772
  616SOL    HW1 1863   2.432   1.642   2.781
  616SOL    HW2 1864   2.410   1.489   2.730
  617SOL     OW 1865   2.677   0.572   2.187
  617SOL    HW1 1866   2.684   0.483   2.141
  617SOL    HW2 1867   2.583   0.606   2.179
  618SOL     OW 1868   2.335   0.500   2.053
  618SOL    HW1 1869   2.396   0.580   2.057
  618SOL    HW2 1870   2.240   0.531   2.060
  619SOL     OW 1871   2.765   0.086   1.995
  619SOL    HW1 1872   2.816   0.087   1.909
  619SOL    HW2 1873   2.821   0.044   2.066
  620SOL     OW 1874   2.534   1.616   2.016
  620SOL    HW1 1875   2.543   1.626   1.917
  620SOL    HW2 1876   2.494   1.527   2.037
  621SOL     OW 1877   2.125   0.326   2.582
  621SOL    HW1 1878   2.046   0.377   2.548
  621SOL    HW2 1879   2.116   0.311   2.680
  622SOL     OW 1880   2.452   1.487   2.353
  622SOL    HW1 1881   2.494   1.429   2.283
  622SOL    HW2 1882   2.408   1.566   2.309
  623SOL     OW 1883   2.117   1.348   2.152
  623SOL    HW1 1884   2.021   1.349   2.125
  623SOL    HW2 1885   2.129   1.401   2.236
  624SOL     OW 1886   1.937   0.345   1.895
  624SOL    HW1 1887   1.845   0.317   1.866
  624SOL    HW2 1888   1.968   0.422   1.839
  625SOL     OW 1889   1.934   0.166   2.180
  625SOL    HW1 1890   1.917   0.249   2.126
  625SOL    HW2 1891   2.024   0.129   2.158
  626SOL     OW 1892   2.456   0.745   2.514
  626SOL    HW1 1893   2.506   0.830   2.495
  626SOL    HW2 1894   2.368   0.747   2.466
  627SOL     OW 1895   2.523   1.790   2.815
  627SOL    HW1 1896   2.477   1.878   2.802
  627SOL    HW2 1897   2.622   1.802   2.808
  628SOL     OW 1898   2.721   0.956   2.723
  628SOL    HW1 1899   2.775   0.887   2.771
  628SOL    HW2 1900   2.689   1.025   2.789
  629SOL     OW 1901   1.941   1.240   2.515
  629SOL    HW1 1902   1.940   1.193   2.603
  629SOL    HW2 1903   2.023   1.212   2.464
  630SOL     OW 1904   2.290   0.424   2.382
  630SOL    HW1 1905   2.320   0.352   2.320
  630SOL    HW2 1906   2.251   0.384   2.465
  631SOL     OW 1907   2.674   1.586   2.549
  631SOL    HW1 1908   2.706   1.596   2.455
  631SOL    HW2 1909   2.595   1.524   2.551
  632SOL     OW 1910   2.632   1.330   2.163
  632SOL    HW1 1911   2.586   1.243   2.180
  632SOL    HW2 1912   2.723   1.327   2.204
  633SOL     OW 1913   1.901   1.077   2.162
  633SOL    HW1 1914   2.000   1.066   2.153
  633SOL    HW2 1915   1.861   0.991   2.194
  634SOL     OW 1916   2.737   1.646   2.199
  634SOL    HW1 1917   2.660   1.611   2.145
  634SOL    HW2 1918   2.705   1.717   2.261
  635SOL     OW 1919   2.092   2.490   0.113
  635SOL    HW1 1920   1.999   2.488   0.150
  635SOL    HW2 1921   2.093   2.451   0.021
  636SOL     OW 1922   2.087   2.137   0.996
  636SOL    HW1 1923   2.122   2.120   1.088
  636SOL    HW2 1924   1.999   2.092   0.984
  637SOL     OW 1925   1.881   2.230   0.647
  637SOL    HW1 1926   1.799   2.273   0.686
  637SOL    HW2 1927   1.853   2.157   0.584
  638SOL     OW 1928   2.712   2.660   1.823
  638SOL    HW1 1929   2.708   2.736   1.888
  638SOL    HW2 1930   2.734   2.696   1.732
  639SOL     OW 1931   2.547   2.874   0.665
  639SOL    HW1 1932   2.616   2.858   0.735
  639SOL    HW2 1933   2.474   2.931   0.703
  640SOL     OW 1934   2.300   2.254   1.499
  640SOL    HW1 1935   2.382   2.198   1.508
  640SOL    HW2 1936   2.219   2.196   1.503
  641SOL     OW 1937   1.984   2.505   0.563
  641SOL    HW1 1938   1.939   2.417   0.580
  641SOL    HW2 1939   1.983   2.559   0.647
  642SOL     OW 1940   1.975   2.599   1.597
  642SOL    HW1 1941   2.063   2.586   1.642
  642SOL    HW2 1942   1.962   2.696   1.575
  643SOL     OW 1943   2.671   1.866   0.502
  643SOL    HW1 1944   2.711   1.957   0.493
  643SOL    HW2 1945   2.571   1.874   0.508
  644SOL     OW 1946   2.179   2.113   1.801
  644SOL    HW1 1947   2.250   2.184   1.807
  644SOL    HW2 1948   2.091   2.152   1.829
  645SOL     OW 1949   2.460   2.591   0.270
  645SOL    HW1 1950   2.484   2.660   0.202
  645SOL    HW2 1951   2.382   2.624   0.324
  646SOL     OW 1952   2.669   2.467   1.465
  646SOL    HW1 1953   2.622   2.464   1.554
  646SOL    HW2 1954   2.618   2.412   1.399
  647SOL     OW 1955   1.938   2.673   0.789
  647SOL    HW1 1956   2.037   2.661   0.798
  647SOL    HW2 1957   1.914   2.768   0.810
  648SOL     OW 1958   2.727   2.210   0.195
  648SOL    HW1 1959   2.786   2.273   0.146
  648SOL    HW2 1960   2.746   2.116   0.166
  649SOL     OW 1961   2.412   2.058   0.885
  649SOL    HW1 1962   2.407   2.053   0.985
  649SOL    HW2 1963   2.414   2.154   0.856
  650SOL     OW 1964   2.064   2.147   1.498
  650SOL    HW1 1965   1.984   2.207   1.485
  650SOL    HW2 1966   2.054   2.098   1.584
  651SOL     OW 1967   2.244   2.562   0.480
  651SOL    HW1 1968   2.289   2.472   0.477
  651SOL    HW2 1969   2.150   2.551   0.513
  652SOL     OW 1970   2.643   2.126   1.749
  652SOL    HW1 1971   2.710   2.065   1.792
  652SOL    HW2 1972   2.570   2.145   1.814
  653SOL     OW 1973   2.784   2.365   0.899
  653SOL    HW1 1974   2.759   2.356   0.803
  653SOL    HW2 1975   2.832   2.283   0.930
  654SOL     OW 1976   2.401   1.926   0.512
  654SOL    HW1 1977   2.320   1.927   0.570
  654SOL    HW2 1978   2.404   2.009   0.457
  655SOL     OW 1979   2.159   1.897   0.171
  655SOL    HW1 1980   2.208   1.981   0.150
  655SOL    HW2 1981   2.221   1.832   0.216
  656SOL     OW 1982   1.940   2.418   1.386
  656SOL    HW1 1983   2.032   2.417   1.345
  656SOL    HW2 1984   1.934   2.492   1.453
  657SOL     OW 1985   2.423   2.084   1.147
  657SOL    HW1 1986   2.461   2.000   1.184
  657SOL    HW2 1987   2.335   2.103   1.191
  658SOL     OW 1988   2.389   2.118   0.328
  658SOL    HW1 1989   2.416   2.059   0.253
  658SOL    HW2 1990   2.389   2.213   0.297
  659SOL     OW 1991   2.777   1.951   1.402
  659SOL    HW1 1992   2.802   1.931   1.307
  659SOL    HW2 1993   2.849   2.007   1.444
  660SOL     OW 1994   2.272   2.675   1.251
  660SOL    HW1 1995   2.358   2.687   1.301
  660SOL    HW2 1996   2.230   2.588   1.278
  661SOL     OW 1997   2.428   2.399   0.865
  661SOL    HW1 1998   2.440   2.465   0.791
  661SOL    HW2 1999   2.474   2.433   0.948
  662SOL     OW 2000   2.264   2.613   1.598
  662SOL    HW1 2001   2.332   2.668   1.551
  662SOL    HW2 2002   2.304   2.525   1.625
  663SOL     OW 2003   2.366   1.912   1.740
  663SOL    HW1 2004   2.324   1.855   1.670
  663SOL    HW2 2005   2.300   1.981   1.772
  664SOL     OW 2006   2.435   2.732   1.029
  664SOL    HW1 2007   2.479   2.821   1.020
  664SOL    HW2 2008   2.372   2.732   1.106
  665SOL     OW 2009   2.169   2.075   1.231
  665SOL    HW1 2010   2.146   2.112   1.321
  665SOL    HW2 2011   2.139   1.980   1.225
  666SOL     OW 2012   2.594   2.496   1.064
  666SOL    HW1 2013   2.653   2.470   0.988
  666SOL    HW2 2014   2.566   2.592   1.053
  667SOL     OW 2015   2.169   1.925   0.618
  667SOL    HW1 2016   2.158   2.019   0.651
  667SOL    HW2 2017   2.164   1.862   0.695
  668SOL     OW 2018   2.885   2.628   0.966
  668SOL    HW1 2019   2.900   2.649   1.062
  668SOL    HW2 2020   2.855   2.533   0.957
  669SOL     OW 2021   2.181   2.672   0.949
  669SOL    HW1 2022   2.274   2.708   0.954
  669SOL    HW2 2023   2.175   2.587   1.001
  670SOL     OW 2024   2.201   2.371   1.006
  670SOL    HW1 2025   2.149   2.288   0.989
  670SOL    HW2 2026   2.278   2.376   0.942
  671SOL     OW 2027   2.864   2.658   1.238
  671SOL    HW1 2028   2.905   2.626   1.324
  671SOL    HW2 2029   2.768   2.631   1.235
  672SOL     OW 2030   1.902   2.406   1.114
  672SOL    HW1 2031   1.987   2.373   1.073
  672SOL    HW2 2032   1.915   2.421   1.212
  673SOL     OW 2033   2.051   2.382   1.722
  673SOL    HW1 2034   2.110   2.342   1.652
  673SOL    HW2 2035   1.993   2.453   1.681
  674SOL     OW 2036   2.677   2.434   0.325
  674SOL    HW1 2037   2.684   2.345   0.279
  674SOL    HW2 2038   2.583   2.468   0.317
  675SOL     OW 2039   2.533   2.326   1.269
  675SOL    HW1 2040   2.499   2.237   1.239
  675SOL    HW2 2041   2.559   2.380   1.189
  676SOL     OW 2042   2.335   2.362   0.191
  676SOL    HW1 2043   2.396   2.442   0.195
  676SOL    HW2 2044   2.240   2.393   0.198
  677SOL     OW 2045   2.765   1.948   0.133
  677SOL    HW1 2046   2.816   1.949   0.047
  677SOL    HW2 2047   2.821   1.906   0.204
  678SOL     OW 2048   2.125   2.188   0.720
  678SOL    HW1 2049   2.046   2.239   0.686
  678SOL    HW2 2050   2.116   2.173   0.818
  679SOL     OW 2051   2.901   2.960   0.696
  679SOL    HW1 2052   2.831   2.913   0.750
  679SOL    HW2 2053   2.960   2.892   0.653
  680SOL     OW 2054   1.967   2.875   1.726
  680SOL    HW1 2055   1.890   2.842   1.780
  680SOL    HW2 2056   2.052   2.845   1.768
  681SOL     OW 2057   2.534   2.065   1.489
  681SOL    HW1 2058   2.624   2.049   1.449
  681SOL    HW2 2059   2.542   2.070   1.588
  682SOL     OW 2060   1.934   2.028   0.318
  682SOL    HW1 2061   1.917   2.111   0.264
  682SOL    HW2 2062   2.024   1.991   0.296
  683SOL     OW 2063   2.475   2.704   1.431
  683SOL    HW1 2064   2.531   2.785   1.414
  683SOL    HW2 2065   2.534   2.624   1.434
  684SOL     OW 2066   2.578   2.427   1.708
  684SOL    HW1 2067   2.597   2.492   1.782
  684SOL    HW2 2068   2.638   2.347   1.717
  685SOL     OW 2069   2.456   2.607   0.652
  685SOL    HW1 2070   2.506   2.692   0.633
  685SOL    HW2 2071   2.368   2.609   0.604
  686SOL     OW 2072   2.721   2.818   0.861
  686SOL    HW1 2073   2.775   2.749   0.909
  686SOL    HW2 2074   2.689   2.887   0.927
  687SOL     OW 2075   2.290   2.286   0.520
  687SOL    HW1 2076   2.320   2.214   0.458
  687SOL    HW2 2077   2.251   2.246   0.603
  688SOL     OW 2078   2.179   2.409   1.280
  688SOL    HW1 2079   2.217   2.350   1.352
  688SOL    HW2 2080   2.219   2.383   1.192
  689SOL     OW 2081   2.863   1.896   1.154
  689SOL    HW1 2082   2.800   1.824   1.123
  689SOL    HW2 2083   2.956   1.860   1.154
  690SOL     OW 2084   2.092   2.490   1.975
  690SOL    HW1 2085   1.999   2.488   2.012
  690SOL    HW2 2086   2.093   2.451   1.883
  691SOL     OW 2087   2.087   2.137   2.858
  691SOL    HW1 2088   2.122   2.120   2.950
  691SOL    HW2 2089   1.999   2.092   2.846
  692SOL     OW 2090   1.881   2.230   2.509
  692SOL    HW1 2091   1.799   2.273   2.548
  692SOL    HW2 2092   1.853   2.157   2.446
  693SOL     OW 2093   2.547   2.874   2.527
  693SOL    HW1 2094   2.616   2.858   2.597
  693SOL    HW2 2095   2.474   2.931   2.565
  694SOL     OW 2096   1.984   2.505   2.425
  694SOL    HW1 2097   1.939   2.417   2.442
  694SOL    HW2 2098   1.983   2.559   2.509
  695SOL     OW 2099   2.671   1.866   2.364
  695SOL    HW1 2100   2.711   1.957   2.355
  695SOL    HW2 2101   2.571   1.874   2.370
  696SOL     OW 2102   2.460   2.591   2.132
  696SOL    HW1 2103   2.484   2.660   2.064
  696SOL    HW2 2104   2.382   2.624   2.186
  697SOL     OW 2105   1.938   2.673   2.651
  697SOL    HW1 2106   2.037   2.661   2.660
  697SOL    HW2 2107   1.914   2.768   2.672
  698SOL     OW 2108   2.727   2.210   2.057
  698SOL    HW1 2109   2.786   2.273   2.008
  698SOL    HW2 2110   2.746   2.116   2.028
  699SOL     OW 2111   2.412   2.058   2.747
  699SOL    HW1 2112   2.407   2.053   2.847
  699SOL    HW2 2113   2.414   2.154   2.718
  700SOL     OW 2114   2.244   2.562   2.342
  700SOL    HW1 2115   2.289   2.472   2.339
  700SOL    HW2 2116   2.150   2.551   2.375
  701SOL     OW 2117   2.476   1.984   1.979
  701SOL    HW1 2118   2.574   1.962   1.986
  701SOL    HW2 2119   2.445   1.967   1.886
  702SOL     OW 2120   2.401   1.926   2.374
  702SOL    HW1 2121   2.320   1.927   2.432
  702SOL    HW2 2122   2.404   2.009   2.319
  703SOL     OW 2123   2.159   1.897   2.033
  703SOL    HW1 2124   2.208   1.981   2.012
  703SOL    HW2 2125   2.221   1.832   2.078
  704SOL     OW 2126   2.389   2.118   2.190
  704SOL    HW1 2127   2.416   2.059   2.115
  704SOL    HW2 2128   2.389   2.213   2.159
  705SOL     OW 2129   3.136   2.248   3.124
  705SOL    HW1 2130   3.157   2.322   3.188
  705SOL    HW2 2131   3.047   2.265   3.081
  706SOL     OW 2132   2.428   2.399   2.727
  706SOL    HW1 2133   2.440   2.465   2.653
  706SOL    HW2 2134   2.474   2.433   2.810
  707SOL     OW 2135   2.594   2.496   2.926
  707SOL    HW1 2136   2.653   2.470   2.850
  707SOL    HW2 2137   2.566   2.592   2.915
  708SOL     OW 2138   2.169   1.925   2.480
  708SOL    HW1 2139   2.158   2.019   2.513
  708SOL    HW2 2140   2.164   1.862   2.557
  709SOL     OW 2141   2.885   2.628   2.828
  709SOL    HW1 2142   2.900   2.649   2.924
  709SOL    HW2 2143   2.855   2.533   2.819
  710SOL     OW 2144   2.677   2.434   2.187
  710SOL    HW1 2145   2.684   2.345   2.141
  710SOL    HW2 2146   2.583   2.468   2.179
  711SOL     OW 2147   2.335   2.362   2.053
  711SOL    HW1 2148   2.396   2.442   2.057
  711SOL    HW2 2149   2.240   2.393   2.060
  712SOL     OW 2150   2.765   1.948   1.995
  712SOL    HW1 2151   2.816   1.949   1.909
  712SOL    HW2 2152   2.821   1.906   2.066
  713SOL     OW 2153   2.125   2.188   2.582
  713SOL    HW1 2154   2.046   2.239   2.548
  713SOL    HW2 2155   2.116   2.173   2.680
  714SOL     OW 2156   2.901   2.960   2.558
  714SOL    HW1 2157   2.831   2.913   2.612
  714SOL    HW2 2158   2.960   2.892   2.515
  715SOL     OW 2159   1.937   2.207   1.895
  715SOL    HW1 2160   1.845   2.179   1.866
  715SOL    HW2 2161   1.968   2.284   1.839
  716SOL     OW 2162   1.934   2.028   2.180
  716SOL    HW1 2163   1.917   2.111   2.126
  716SOL    HW2 2164   2.024   1.991   2.158
  717SOL     OW 2165   2.456   2.607   2.514
  717SOL    HW1 2166   2.506   2.692   2.495
  717SOL    HW2 2167   2.368   2.609   2.466
  718SOL     OW 2168   2.721   2.818   2.723
  718SOL    HW1 2169   2.775   2.749   2.771
  718SOL    HW2 2170   2.689   2.887   2.789
  719SOL     OW 2171   2.290   2.286   2.382
  719SOL    HW1 2172   2.320   2.214   2.320
  719SOL    HW2 2173   2.251   2.246   2.465
   2.82677   2.82677   2.82677
