mobley_9838013_GMX.gro created by acpype (v: 2023.10.27) on Thu May 14 13:53:28 2026
 1656
    1MOL     C1    1   1.456   1.283   1.402
    1MOL     C2    2   1.304   1.205   1.145
    1MOL     C3    3   1.113   1.344   1.227
    1MOL     C4    4   1.332   1.353   1.350
    1MOL     C5    5   1.237   1.264   1.269
    1MOL     O1    6   1.193   1.155   1.350
    1MOL     H1    7   1.515   1.351   1.465
    1MOL     H2    8   1.521   1.250   1.320
    1MOL     H3    9   1.430   1.195   1.463
    1MOL     H4   10   1.345   1.283   1.080
    1MOL     H5   11   1.385   1.135   1.172
    1MOL     H6   12   1.233   1.145   1.086
    1MOL     H7   13   1.139   1.428   1.161
    1MOL     H8   14   1.041   1.280   1.174
    1MOL     H9   15   1.060   1.383   1.315
    1MOL    H10   16   1.363   1.440   1.290
    1MOL    H11   17   1.278   1.393   1.437
    1MOL    H12   18   1.097   1.152   1.342
    2SOL     OW   19   0.230   0.628   0.113
    2SOL    HW1   20   0.137   0.626   0.150
    2SOL    HW2   21   0.231   0.589   0.021
    3SOL     OW   22   0.225   0.275   0.996
    3SOL    HW1   23   0.260   0.258   1.088
    3SOL    HW2   24   0.137   0.230   0.984
    4SOL     OW   25   0.019   0.368   0.647
    4SOL    HW1   26  -0.063   0.411   0.686
    4SOL    HW2   27  -0.009   0.295   0.584
    5SOL     OW   28   0.569   1.275   1.165
    5SOL    HW1   29   0.476   1.268   1.128
    5SOL    HW2   30   0.580   1.364   1.209
    6SOL     OW   31   1.555   1.511   0.703
    6SOL    HW1   32   1.498   1.495   0.784
    6SOL    HW2   33   1.496   1.521   0.623
    7SOL     OW   34   1.135   0.703   0.717
    7SOL    HW1   35   1.192   0.781   0.692
    7SOL    HW2   36   1.075   0.729   0.793
    8SOL     OW   37   1.755   0.607   0.231
    8SOL    HW1   38   1.743   0.594   0.132
    8SOL    HW2   39   1.725   0.526   0.280
    9SOL     OW   40   0.768   1.144   1.023
    9SOL    HW1   41   0.690   1.161   1.083
    9SOL    HW2   42   0.802   1.231   0.987
   10SOL     OW   43   0.850   0.798   1.823
   10SOL    HW1   44   0.846   0.874   1.888
   10SOL    HW2   45   0.872   0.834   1.732
   11SOL     OW   46   0.685   1.012   0.665
   11SOL    HW1   47   0.754   0.996   0.735
   11SOL    HW2   48   0.612   1.069   0.703
   12SOL     OW   49   0.686   1.161   1.803
   12SOL    HW1   50   0.746   1.240   1.817
   12SOL    HW2   51   0.600   1.192   1.762
   13SOL     OW   52   0.335   1.435   1.061
   13SOL    HW1   53   0.257   1.404   1.008
   13SOL    HW2   54   0.393   1.493   1.004
   14SOL     OW   55   0.438   0.392   1.499
   14SOL    HW1   56   0.520   0.336   1.508
   14SOL    HW2   57   0.357   0.334   1.503
   15SOL     OW   58   1.603   0.447   0.737
   15SOL    HW1   59   1.529   0.493   0.687
   15SOL    HW2   60   1.654   0.515   0.790
   16SOL     OW   61   0.231   1.713   0.483
   16SOL    HW1   62   0.265   1.790   0.537
   16SOL    HW2   63   0.275   1.713   0.393
   17SOL     OW   64   1.127   1.341   1.690
   17SOL    HW1   65   1.174   1.341   1.778
   17SOL    HW2   66   1.079   1.254   1.679
   18SOL     OW   67   0.230   1.434   0.538
   18SOL    HW1   68   0.204   1.530   0.538
   18SOL    HW2   69   0.159   1.380   0.583
   19SOL     OW   70   0.240   1.091   0.886
   19SOL    HW1   71   0.254   1.007   0.938
   19SOL    HW2   72   0.185   1.155   0.941
   20SOL     OW   73   0.620   1.786   1.439
   20SOL    HW1   74   0.528   1.769   1.474
   20SOL    HW2   75   0.648   1.878   1.465
   21SOL     OW   76   0.606   0.964   0.123
   21SOL    HW1   77   0.613   1.048   0.069
   21SOL    HW2   78   0.652   0.977   0.211
   22SOL     OW   79   1.594   0.114   1.480
   22SOL    HW1   80   1.576   0.181   1.408
   22SOL    HW2   81   1.591   0.160   1.569
   23SOL     OW   82   0.122   0.643   0.563
   23SOL    HW1   83   0.077   0.555   0.580
   23SOL    HW2   84   0.121   0.697   0.647
   24SOL     OW   85   1.842   1.767   0.359
   24SOL    HW1   86   1.896   1.738   0.439
   24SOL    HW2   87   1.872   1.857   0.330
   25SOL     OW   88   0.027   1.596   0.117
   25SOL    HW1   89   0.008   1.500   0.138
   25SOL    HW2   90  -0.006   1.654   0.192
   26SOL     OW   91   1.689   0.922   0.612
   26SOL    HW1   92   1.784   0.893   0.620
   26SOL    HW2   93   1.681   0.987   0.537
   27SOL     OW   94   1.641   1.108   0.432
   27SOL    HW1   95   1.727   1.110   0.380
   27SOL    HW2   96   1.655   1.155   0.520
   28SOL     OW   97   0.113   0.737   1.597
   28SOL    HW1   98   0.201   0.724   1.642
   28SOL    HW2   99   0.100   0.834   1.575
   29SOL     OW  100   0.613   1.365   0.726
   29SOL    HW1  101   0.564   1.278   0.735
   29SOL    HW2  102   0.590   1.408   0.639
   30SOL     OW  103   0.809   0.004   0.502
   30SOL    HW1  104   0.849   0.095   0.493
   30SOL    HW2  105   0.709   0.012   0.508
   31SOL     OW  106   0.197   0.976   1.264
   31SOL    HW1  107   0.286   0.931   1.250
   31SOL    HW2  108   0.124   0.911   1.245
   32SOL     OW  109   1.525   0.999   0.190
   32SOL    HW1  110   1.462   0.923   0.203
   32SOL    HW2  111   1.573   1.017   0.276
   33SOL     OW  112   1.187   1.792   1.616
   33SOL    HW1  113   1.211   1.852   1.540
   33SOL    HW2  114   1.194   1.697   1.586
   34SOL     OW  115   0.317   0.251   1.801
   34SOL    HW1  116   0.388   0.322   1.807
   34SOL    HW2  117   0.229   0.290   1.829
   35SOL     OW  118   1.466   1.417   0.953
   35SOL    HW1  119   1.407   1.423   1.033
   35SOL    HW2  120   1.451   1.329   0.907
   36SOL     OW  121   1.667   1.714   0.572
   36SOL    HW1  122   1.626   1.691   0.484
   36SOL    HW2  123   1.649   1.640   0.637
   37SOL     OW  124   0.598   0.729   0.270
   37SOL    HW1  125   0.622   0.798   0.202
   37SOL    HW2  126   0.520   0.762   0.324
   38SOL     OW  127   1.281   0.345   0.944
   38SOL    HW1  128   1.195   0.295   0.931
   38SOL    HW2  129   1.343   0.291   1.000
   39SOL     OW  130   1.576   1.662   0.307
   39SOL    HW1  131   1.665   1.708   0.310
   39SOL    HW2  132   1.555   1.638   0.212
   40SOL     OW  133   0.807   0.605   1.465
   40SOL    HW1  134   0.760   0.602   1.554
   40SOL    HW2  135   0.756   0.550   1.399
   41SOL     OW  136   1.394   0.469   1.674
   41SOL    HW1  137   1.374   0.512   1.762
   41SOL    HW2  138   1.472   0.407   1.683
   42SOL     OW  139   0.973   0.890   1.572
   42SOL    HW1  140   1.019   0.806   1.543
   42SOL    HW2  141   0.917   0.924   1.497
   43SOL     OW  142   0.991   0.410   1.242
   43SOL    HW1  143   0.914   0.444   1.296
   43SOL    HW2  144   0.957   0.359   1.163
   44SOL     OW  145   1.041   0.701   0.429
   44SOL    HW1  146   1.067   0.697   0.525
   44SOL    HW2  147   0.956   0.650   0.415
   45SOL     OW  148   0.076   0.811   0.789
   45SOL    HW1  149   0.175   0.799   0.798
   45SOL    HW2  150   0.052   0.906   0.810
   46SOL     OW  151   0.130   1.821   1.571
   46SOL    HW1  152   0.120   1.806   1.670
   46SOL    HW2  153   0.044   1.857   1.535
   47SOL     OW  154   0.865   0.348   0.195
   47SOL    HW1  155   0.924   0.411   0.146
   47SOL    HW2  156   0.884   0.254   0.166
   48SOL     OW  157   1.719   0.585   1.831
   48SOL    HW1  158   1.693   0.674   1.795
   48SOL    HW2  159   1.717   0.517   1.758
   49SOL     OW  160   1.362   1.144   0.545
   49SOL    HW1  161   1.445   1.115   0.497
   49SOL    HW2  162   1.313   1.211   0.489
   50SOL     OW  163   0.550   0.196   0.885
   50SOL    HW1  164   0.545   0.191   0.985
   50SOL    HW2  165   0.552   0.292   0.856
   51SOL     OW  166   1.008   1.456   0.477
   51SOL    HW1  167   0.962   1.528   0.425
   51SOL    HW2  168   1.004   1.476   0.575
   52SOL     OW  169   0.351   1.801   0.853
   52SOL    HW1  170   0.401   1.715   0.859
   52SOL    HW2  171   0.416   1.878   0.850
   53SOL     OW  172   1.795   1.066   0.873
   53SOL    HW1  173   1.733   1.051   0.797
   53SOL    HW2  174   1.743   1.077   0.958
   54SOL     OW  175   1.227   1.550   1.506
   54SOL    HW1  176   1.233   1.473   1.570
   54SOL    HW2  177   1.175   1.524   1.426
   55SOL     OW  178   0.321   0.943   0.242
   55SOL    HW1  179   0.403   0.982   0.200
   55SOL    HW2  180   0.294   0.861   0.193
   56SOL     OW  181   1.458   0.735   0.728
   56SOL    HW1  182   1.453   0.670   0.803
   56SOL    HW2  183   1.538   0.794   0.741
   57SOL     OW  184   0.461   1.266   1.727
   57SOL    HW1  185   0.411   1.267   1.641
   57SOL    HW2  186   0.398   1.248   1.803
   58SOL     OW  187   1.111   1.776   0.237
   58SOL    HW1  188   1.051   1.714   0.287
   58SOL    HW2  189   1.142   1.732   0.152
   59SOL     OW  190   0.202   0.285   1.498
   59SOL    HW1  191   0.122   0.345   1.485
   59SOL    HW2  192   0.192   0.236   1.584
   60SOL     OW  193   1.632   1.377   0.081
   60SOL    HW1  194   1.600   1.471   0.071
   60SOL    HW2  195   1.556   1.314   0.069
   61SOL     OW  196   0.464   1.743   0.323
   61SOL    HW1  197   0.497   1.782   0.409
   61SOL    HW2  198   0.540   1.736   0.258
   62SOL     OW  199   1.400   0.107   0.426
   62SOL    HW1  200   1.376   0.070   0.336
   62SOL    HW2  201   1.499   0.123   0.430
   63SOL     OW  202   0.249   1.785   1.241
   63SOL    HW1  203   0.306   1.720   1.291
   63SOL    HW2  204   0.233   1.752   1.148
   64SOL     OW  205   0.940   1.698   0.904
   64SOL    HW1  206   1.020   1.641   0.925
   64SOL    HW2  207   0.891   1.658   0.827
   65SOL     OW  208   0.382   0.700   0.480
   65SOL    HW1  209   0.427   0.610   0.477
   65SOL    HW2  210   0.288   0.689   0.513
   66SOL     OW  211   1.547   0.222   1.729
   66SOL    HW1  212   1.542   0.259   1.821
   66SOL    HW2  213   1.475   0.153   1.717
   67SOL     OW  214   0.614   0.122   0.117
   67SOL    HW1  215   0.712   0.100   0.124
   67SOL    HW2  216   0.583   0.105   0.024
   68SOL     OW  217   0.781   0.264   1.749
   68SOL    HW1  218   0.848   0.203   1.792
   68SOL    HW2  219   0.708   0.283   1.814
   69SOL     OW  220   0.888   1.514   1.195
   69SOL    HW1  221   0.865   1.489   1.101
   69SOL    HW2  222   0.949   1.445   1.234
   70SOL     OW  223   1.351   0.590   1.433
   70SOL    HW1  224   1.379   0.547   1.518
   70SOL    HW2  225   1.376   0.686   1.434
   71SOL     OW  226   0.803   1.402   0.924
   71SOL    HW1  227   0.893   1.416   0.882
   71SOL    HW2  228   0.732   1.404   0.853
   72SOL     OW  229   0.922   0.503   0.899
   72SOL    HW1  230   0.897   0.494   0.803
   72SOL    HW2  231   0.970   0.421   0.930
   73SOL     OW  232   0.539   0.064   0.512
   73SOL    HW1  233   0.458   0.065   0.570
   73SOL    HW2  234   0.542   0.147   0.457
   74SOL     OW  235   1.434   1.188   0.041
   74SOL    HW1  236   1.466   1.112   0.098
   74SOL    HW2  237   1.342   1.215   0.071
   75SOL     OW  238   0.297   0.035   0.171
   75SOL    HW1  239   0.346   0.119   0.150
   75SOL    HW2  240   0.359  -0.030   0.216
   76SOL     OW  241   0.935   0.236   0.480
   76SOL    HW1  242   0.887   0.277   0.402
   76SOL    HW2  243   1.034   0.234   0.461
   77SOL     OW  244   1.076   0.683   1.464
   77SOL    HW1  245   0.996   0.622   1.467
   77SOL    HW2  246   1.157   0.630   1.440
   78SOL     OW  247   1.227   1.570   0.793
   78SOL    HW1  248   1.248   1.644   0.728
   78SOL    HW2  249   1.295   1.570   0.866
   79SOL     OW  250   0.459   1.152   0.741
   79SOL    HW1  251   0.388   1.125   0.806
   79SOL    HW2  252   0.433   1.124   0.648
   80SOL     OW  253   1.271   1.797   0.591
   80SOL    HW1  254   1.315   1.861   0.527
   80SOL    HW2  255   1.221   1.849   0.661
   81SOL     OW  256   1.032   0.549   0.016
   81SOL    HW1  257   0.991   0.631  -0.023
   81SOL    HW2  258   1.096   0.575   0.089
   82SOL     OW  259   0.078   0.556   1.386
   82SOL    HW1  260   0.170   0.555   1.345
   82SOL    HW2  261   0.072   0.630   1.453
   83SOL     OW  262   0.561   0.222   1.147
   83SOL    HW1  263   0.599   0.138   1.184
   83SOL    HW2  264   0.473   0.241   1.191
   84SOL     OW  265   0.866   0.454   0.642
   84SOL    HW1  266   0.834   0.526   0.580
   84SOL    HW2  267   0.890   0.373   0.589
   85SOL     OW  268   1.017   0.039   0.753
   85SOL    HW1  269   0.945   0.044   0.684
   85SOL    HW2  270   0.993  -0.030   0.822
   86SOL     OW  271   1.429   1.173   0.867
   86SOL    HW1  272   1.374   1.089   0.860
   86SOL    HW2  273   1.455   1.202   0.775
   87SOL     OW  274   1.466   0.590   0.992
   87SOL    HW1  275   1.436   0.495   0.999
   87SOL    HW2  276   1.539   0.606   1.058
   88SOL     OW  277   1.857   0.833   0.377
   88SOL    HW1  278   1.899   0.769   0.441
   88SOL    HW2  279   1.819   0.782   0.299
   89SOL     OW  280   0.488   1.385   0.174
   89SOL    HW1  281   0.401   1.370   0.221
   89SOL    HW2  282   0.471   1.411   0.079
   90SOL     OW  283   1.664   1.280   0.657
   90SOL    HW1  284   1.763   1.288   0.671
   90SOL    HW2  285   1.619   1.364   0.688
   91SOL     OW  286   1.390   0.575   0.078
   91SOL    HW1  287   1.336   0.554   0.159
   91SOL    HW2  288   1.481   0.534   0.087
   92SOL     OW  289   0.527   0.256   0.328
   92SOL    HW1  290   0.554   0.197   0.253
   92SOL    HW2  291   0.527   0.351   0.297
   93SOL     OW  292   1.754   1.223   1.588
   93SOL    HW1  293   1.845   1.184   1.575
   93SOL    HW2  294   1.762   1.319   1.612
   94SOL     OW  295   1.592   1.629   1.625
   94SOL    HW1  296   1.619   1.663   1.535
   94SOL    HW2  297   1.671   1.591   1.671
   95SOL     OW  298   1.638   1.099   1.079
   95SOL    HW1  299   1.643   1.180   1.138
   95SOL    HW2  300   1.552   1.101   1.028
   96SOL     OW  301   0.915   0.089   1.402
   96SOL    HW1  302   0.940   0.069   1.307
   96SOL    HW2  303   0.987   0.145   1.444
   97SOL     OW  304   0.980   1.116   1.719
   97SOL    HW1  305   0.881   1.122   1.729
   97SOL    HW2  306   1.003   1.036   1.663
   98SOL     OW  307   0.705   1.050   0.368
   98SOL    HW1  308   0.691   1.057   0.467
   98SOL    HW2  309   0.789   0.999   0.350
   99SOL     OW  310   0.410   0.813   1.251
   99SOL    HW1  311   0.496   0.825   1.301
   99SOL    HW2  312   0.368   0.726   1.278
  100SOL     OW  313   1.274   0.386   1.262
  100SOL    HW1  314   1.295   0.460   1.326
  100SOL    HW2  315   1.185   0.403   1.219
  101SOL     OW  316   0.064   1.564   1.331
  101SOL    HW1  317   0.018   1.646   1.297
  101SOL    HW2  318   0.162   1.583   1.340
  102SOL     OW  319   0.367   1.100   0.501
  102SOL    HW1  320   0.360   1.183   0.445
  102SOL    HW2  321   0.371   1.020   0.441
  103SOL     OW  322   0.566   0.537   0.865
  103SOL    HW1  323   0.578   0.603   0.791
  103SOL    HW2  324   0.612   0.571   0.948
  104SOL     OW  325   1.252   1.348   0.388
  104SOL    HW1  326   1.302   1.425   0.428
  104SOL    HW2  327   1.157   1.350   0.420
  105SOL     OW  328   1.582   0.639   0.472
  105SOL    HW1  329   1.551   0.700   0.545
  105SOL    HW2  330   1.632   0.691   0.403
  106SOL     OW  331   0.354   1.510   1.329
  106SOL    HW1  332   0.333   1.466   1.242
  106SOL    HW2  333   0.451   1.536   1.332
  107SOL     OW  334   0.402   0.751   1.598
  107SOL    HW1  335   0.470   0.806   1.551
  107SOL    HW2  336   0.442   0.663   1.625
  108SOL     OW  337   1.587   0.779   1.670
  108SOL    HW1  338   1.495   0.817   1.665
  108SOL    HW2  339   1.647   0.826   1.605
  109SOL     OW  340   1.013   0.105   1.770
  109SOL    HW1  341   1.019   0.190   1.718
  109SOL    HW2  342   1.045   0.029   1.713
  110SOL     OW  343   0.504   0.050   1.740
  110SOL    HW1  344   0.462  -0.007   1.670
  110SOL    HW2  345   0.438   0.119   1.772
  111SOL     OW  346   0.573   0.870   1.029
  111SOL    HW1  347   0.617   0.959   1.020
  111SOL    HW2  348   0.510   0.870   1.106
  112SOL     OW  349   1.360   0.862   1.045
  112SOL    HW1  350   1.285   0.862   0.979
  112SOL    HW2  351   1.397   0.770   1.054
  113SOL     OW  352   1.209   0.525   0.275
  113SOL    HW1  353   1.222   0.441   0.329
  113SOL    HW2  354   1.180   0.599   0.335
  114SOL     OW  355   0.307   0.213   1.231
  114SOL    HW1  356   0.284   0.250   1.321
  114SOL    HW2  357   0.277   0.118   1.225
  115SOL     OW  358   0.037   1.310   1.282
  115SOL    HW1  359   0.090   1.261   1.350
  115SOL    HW2  360   0.059   1.408   1.287
  116SOL     OW  361   0.732   0.634   1.064
  116SOL    HW1  362   0.791   0.608   0.988
  116SOL    HW2  363   0.704   0.730   1.053
  117SOL     OW  364   1.728   0.935   1.854
  117SOL    HW1  365   1.682   0.928   1.765
  117SOL    HW2  366   1.666   0.979   1.920
  118SOL     OW  367   0.307   0.063   0.618
  118SOL    HW1  368   0.296   0.157   0.651
  118SOL    HW2  369   0.302   0.000   0.695
  119SOL     OW  370   1.622   0.367   0.374
  119SOL    HW1  371   1.624   0.291   0.438
  119SOL    HW2  372   1.574   0.444   0.414
  120SOL     OW  373   1.023   0.766   0.966
  120SOL    HW1  374   1.038   0.787   1.062
  120SOL    HW2  375   0.993   0.671   0.957
  121SOL     OW  376   0.980   1.573   1.700
  121SOL    HW1  377   0.960   1.617   1.612
  121SOL    HW2  378   1.019   1.482   1.684
  122SOL     OW  379   1.859   1.518   1.605
  122SOL    HW1  380   1.873   1.545   1.510
  122SOL    HW2  381   1.942   1.540   1.658
  123SOL     OW  382   0.350   0.898   1.804
  123SOL    HW1  383   0.426   0.942   1.852
  123SOL    HW2  384   0.385   0.851   1.722
  124SOL     OW  385   1.540   0.274   0.125
  124SOL    HW1  386   1.479   0.199   0.148
  124SOL    HW2  387   1.562   0.326   0.208
  125SOL     OW  388   1.303   0.838   0.042
  125SOL    HW1  389   1.337   0.745   0.057
  125SOL    HW2  390   1.321   0.865  -0.053
  126SOL     OW  391   1.068   1.333   0.849
  126SOL    HW1  392   1.075   1.249   0.794
  126SOL    HW2  393   1.130   1.402   0.813
  127SOL     OW  394   0.319   0.810   0.949
  127SOL    HW1  395   0.412   0.846   0.954
  127SOL    HW2  396   0.313   0.725   1.001
  128SOL     OW  397   0.339   0.509   1.006
  128SOL    HW1  398   0.287   0.426   0.989
  128SOL    HW2  399   0.416   0.514   0.942
  129SOL     OW  400   1.138   0.380   1.678
  129SOL    HW1  401   1.093   0.443   1.742
  129SOL    HW2  402   1.231   0.411   1.661
  130SOL     OW  403   1.160   0.207   1.477
  130SOL    HW1  404   1.160   0.271   1.554
  130SOL    HW2  405   1.188   0.255   1.394
  131SOL     OW  406   0.008   1.326   0.200
  131SOL    HW1  407  -0.085   1.347   0.169
  131SOL    HW2  408   0.018   1.227   0.213
  132SOL     OW  409   0.088   1.801   0.927
  132SOL    HW1  410   0.046   1.715   0.900
  132SOL    HW2  411   0.182   1.804   0.893
  133SOL     OW  412   0.504   1.568   0.910
  133SOL    HW1  413   0.570   1.642   0.919
  133SOL    HW2  414   0.548   1.489   0.868
  134SOL     OW  415   1.002   0.796   1.238
  134SOL    HW1  416   1.043   0.764   1.324
  134SOL    HW2  417   0.906   0.769   1.235
  135SOL     OW  418   0.040   0.544   1.114
  135SOL    HW1  419   0.125   0.511   1.073
  135SOL    HW2  420   0.053   0.559   1.212
  136SOL     OW  421   0.189   0.520   1.722
  136SOL    HW1  422   0.248   0.480   1.652
  136SOL    HW2  423   0.131   0.591   1.681
  137SOL     OW  424   1.369   0.950   1.660
  137SOL    HW1  425   1.408   1.039   1.680
  137SOL    HW2  426   1.379   0.930   1.563
  138SOL     OW  427   0.815   0.572   0.325
  138SOL    HW1  428   0.822   0.483   0.279
  138SOL    HW2  429   0.721   0.606   0.317
  139SOL     OW  430   1.657   0.604   1.206
  139SOL    HW1  431   1.619   0.535   1.268
  139SOL    HW2  432   1.739   0.568   1.162
  140SOL     OW  433   0.252   1.564   1.744
  140SOL    HW1  434   0.222   1.621   1.820
  140SOL    HW2  435   0.245   1.467   1.770
  141SOL     OW  436   0.671   0.464   1.269
  141SOL    HW1  437   0.637   0.375   1.239
  141SOL    HW2  438   0.697   0.518   1.189
  142SOL     OW  439   0.930   1.678   1.465
  142SOL    HW1  440   0.906   1.660   1.370
  142SOL    HW2  441   0.960   1.772   1.475
  143SOL     OW  442   0.473   0.500   0.191
  143SOL    HW1  443   0.534   0.580   0.195
  143SOL    HW2  444   0.378   0.531   0.198
  144SOL     OW  445   0.159   1.137   1.466
  144SOL    HW1  446   0.181   1.076   1.542
  144SOL    HW2  447   0.169   1.088   1.380
  145SOL     OW  448   1.302   0.855   0.309
  145SOL    HW1  449   1.216   0.824   0.351
  145SOL    HW2  450   1.298   0.841   0.210
  146SOL     OW  451   1.759   1.747   1.154
  146SOL    HW1  452   1.820   1.777   1.081
  146SOL    HW2  453   1.721   1.658   1.132
  147SOL     OW  454   1.252   1.731   1.128
  147SOL    HW1  455   1.336   1.736   1.074
  147SOL    HW2  456   1.229   1.635   1.146
  148SOL     OW  457   0.083   1.258   1.022
  148SOL    HW1  458   0.078   1.257   1.122
  148SOL    HW2  459   0.000   1.217   0.984
  149SOL     OW  460   0.688   1.662   1.716
  149SOL    HW1  461   0.632   1.743   1.725
  149SOL    HW2  462   0.740   1.666   1.630
  150SOL     OW  463   0.903   0.086   0.133
  150SOL    HW1  464   0.954   0.087   0.047
  150SOL    HW2  465   0.959   0.044   0.204
  151SOL     OW  466   1.726   0.135   0.523
  151SOL    HW1  467   1.799   0.118   0.456
  151SOL    HW2  468   1.695   0.048   0.561
  152SOL     OW  469   1.388   1.573   0.477
  152SOL    HW1  470   1.455   1.585   0.403
  152SOL    HW2  471   1.348   1.662   0.500
  153SOL     OW  472   0.130   1.794   1.851
  153SOL    HW1  473   0.089   1.720   1.904
  153SOL    HW2  474   0.194   1.845   1.909
  154SOL     OW  475   1.280   0.927   0.672
  154SOL    HW1  476   1.340   0.846   0.674
  154SOL    HW2  477   1.320   0.996   0.612
  155SOL     OW  478   0.830   1.273   1.422
  155SOL    HW1  479   0.825   1.306   1.517
  155SOL    HW2  480   0.744   1.292   1.376
  156SOL     OW  481   0.672   1.616   0.154
  156SOL    HW1  482   0.681   1.626   0.055
  156SOL    HW2  483   0.632   1.527   0.175
  157SOL     OW  484   1.650   1.720   1.394
  157SOL    HW1  485   1.703   1.730   1.310
  157SOL    HW2  486   1.623   1.810   1.428
  158SOL     OW  487   1.841   0.175   0.963
  158SOL    HW1  488   1.880   0.090   0.927
  158SOL    HW2  489   1.743   0.177   0.944
  159SOL     OW  490   0.263   0.326   0.720
  159SOL    HW1  491   0.184   0.377   0.686
  159SOL    HW2  492   0.254   0.311   0.818
  160SOL     OW  493   1.194   1.612   0.031
  160SOL    HW1  494   1.200   1.519   0.068
  160SOL    HW2  495   1.135   1.612  -0.049
  161SOL     OW  496   0.822   1.002   1.372
  161SOL    HW1  497   0.862   1.001   1.280
  161SOL    HW2  498   0.832   1.094   1.412
  162SOL     OW  499   0.916   0.910   0.291
  162SOL    HW1  500   0.979   0.948   0.223
  162SOL    HW2  501   0.956   0.827   0.330
  163SOL     OW  502   1.504   1.607   0.044
  163SOL    HW1  503   1.412   1.644   0.051
  163SOL    HW2  504   1.542   1.627  -0.046
  164SOL     OW  505   0.372   1.288   1.490
  164SOL    HW1  506   0.359   1.381   1.456
  164SOL    HW2  507   0.288   1.236   1.477
  165SOL     OW  508   1.039   1.098   0.696
  165SOL    HW1  509   0.969   1.051   0.750
  165SOL    HW2  510   1.098   1.030   0.653
  166SOL     OW  511   1.014   0.236   0.971
  166SOL    HW1  512   1.006   0.200   0.878
  166SOL    HW2  513   1.012   0.160   1.036
  167SOL     OW  514   0.590   1.487   0.491
  167SOL    HW1  515   0.632   1.429   0.421
  167SOL    HW2  516   0.546   1.566   0.447
  168SOL     OW  517   1.709   0.385   1.381
  168SOL    HW1  518   1.782   0.454   1.385
  168SOL    HW2  519   1.737   0.310   1.322
  169SOL     OW  520   0.255   1.348   0.290
  169SOL    HW1  521   0.159   1.349   0.263
  169SOL    HW2  522   0.267   1.401   0.374
  170SOL     OW  523   0.105   1.013   1.726
  170SOL    HW1  524   0.028   0.980   1.780
  170SOL    HW2  525   0.190   0.983   1.768
  171SOL     OW  526   0.672   0.203   1.489
  171SOL    HW1  527   0.762   0.187   1.449
  171SOL    HW2  528   0.680   0.208   1.588
  172SOL     OW  529   0.075   0.345   0.033
  172SOL    HW1  530  -0.017   0.317   0.004
  172SOL    HW2  531   0.106   0.422  -0.023
  173SOL     OW  532   1.440   0.856   1.398
  173SOL    HW1  533   1.383   0.908   1.335
  173SOL    HW2  534   1.536   0.868   1.374
  174SOL     OW  535   0.072   0.166   0.318
  174SOL    HW1  536   0.055   0.249   0.264
  174SOL    HW2  537   0.162   0.129   0.296
  175SOL     OW  538   1.183   1.335   0.119
  175SOL    HW1  539   1.084   1.324   0.121
  175SOL    HW2  540   1.217   1.350   0.212
  176SOL     OW  541   0.613   0.842   1.431
  176SOL    HW1  542   0.669   0.923   1.414
  176SOL    HW2  543   0.672   0.762   1.434
  177SOL     OW  544   1.493   1.767   0.959
  177SOL    HW1  545   1.526   1.831   0.890
  177SOL    HW2  546   1.559   1.761   1.034
  178SOL     OW  547   0.716   0.565   1.708
  178SOL    HW1  548   0.735   0.630   1.782
  178SOL    HW2  549   0.776   0.485   1.717
  179SOL     OW  550   1.450   1.220   1.633
  179SOL    HW1  551   1.441   1.210   1.732
  179SOL    HW2  552   1.546   1.213   1.607
  180SOL     OW  553   0.390   1.741   1.560
  180SOL    HW1  554   0.299   1.782   1.558
  180SOL    HW2  555   0.383   1.647   1.592
  181SOL     OW  556   1.674   0.883   1.254
  181SOL    HW1  557   1.647   0.794   1.217
  181SOL    HW2  558   1.675   0.951   1.181
  182SOL     OW  559   1.225   0.325   0.449
  182SOL    HW1  560   1.290   0.251   0.438
  182SOL    HW2  561   1.245   0.375   0.533
  183SOL     OW  562   0.594   0.745   0.652
  183SOL    HW1  563   0.644   0.830   0.633
  183SOL    HW2  564   0.506   0.747   0.604
  184SOL     OW  565   1.777   0.342   1.642
  184SOL    HW1  566   1.760   0.373   1.548
  184SOL    HW2  567   1.693   0.305   1.680
  185SOL     OW  568   1.730   0.934   1.517
  185SOL    HW1  569   1.768   1.025   1.532
  185SOL    HW2  570   1.722   0.917   1.418
  186SOL     OW  571   0.859   1.374   0.016
  186SOL    HW1  572   0.813   1.389   0.104
  186SOL    HW2  573   0.903   1.459  -0.014
  187SOL     OW  574   0.661   1.790   0.953
  187SOL    HW1  575   0.615   1.878   0.940
  187SOL    HW2  576   0.760   1.802   0.946
  188SOL     OW  577   0.859   0.956   0.861
  188SOL    HW1  578   0.913   0.887   0.909
  188SOL    HW2  579   0.827   1.025   0.927
  189SOL     OW  580   1.083   0.984   0.087
  189SOL    HW1  581   1.060   1.037   0.005
  189SOL    HW2  582   1.164   0.928   0.068
  190SOL     OW  583   1.861   1.569   0.851
  190SOL    HW1  584   1.790   1.557   0.781
  190SOL    HW2  585   1.862   1.490   0.911
  191SOL     OW  586   0.221   1.314   1.844
  191SOL    HW1  587   0.156   1.241   1.823
  191SOL    HW2  588   0.225   1.328   1.942
  192SOL     OW  589   0.079   1.240   0.653
  192SOL    HW1  590   0.078   1.193   0.741
  192SOL    HW2  591   0.161   1.212   0.602
  193SOL     OW  592   0.672   1.391   1.624
  193SOL    HW1  593   0.594   1.341   1.662
  193SOL    HW2  594   0.669   1.486   1.655
  194SOL     OW  595   1.824   0.192   1.227
  194SOL    HW1  596   1.820   0.102   1.271
  194SOL    HW2  597   1.827   0.181   1.128
  195SOL     OW  598   0.428   0.424   0.520
  195SOL    HW1  599   0.458   0.352   0.458
  195SOL    HW2  600   0.389   0.384   0.603
  196SOL     OW  601   1.705   1.487   1.104
  196SOL    HW1  602   1.612   1.462   1.077
  196SOL    HW2  603   1.731   1.437   1.186
  197SOL     OW  604   0.317   0.547   1.280
  197SOL    HW1  605   0.355   0.488   1.352
  197SOL    HW2  606   0.357   0.521   1.192
  198SOL     OW  607   0.812   1.586   0.687
  198SOL    HW1  608   0.844   1.596   0.593
  198SOL    HW2  609   0.733   1.524   0.689
  199SOL     OW  610   1.424   0.214   1.112
  199SOL    HW1  611   1.476   0.149   1.167
  199SOL    HW2  612   1.375   0.277   1.173
  200SOL     OW  613   1.001   0.034   1.154
  200SOL    HW1  614   0.938  -0.038   1.123
  200SOL    HW2  615   1.094  -0.002   1.154
  201SOL     OW  616   0.770   1.330   0.301
  201SOL    HW1  617   0.724   1.243   0.318
  201SOL    HW2  618   0.861   1.327   0.342
  202SOL     OW  619   0.618   1.567   1.284
  202SOL    HW1  620   0.613   1.649   1.341
  202SOL    HW2  621   0.707   1.564   1.239
  203SOL     OW  622   1.352   0.052   0.168
  203SOL    HW1  623   1.387   0.011   0.084
  203SOL    HW2  624   1.262   0.014   0.188
  204SOL     OW  625   1.300   0.453   0.691
  204SOL    HW1  626   1.241   0.533   0.695
  204SOL    HW2  627   1.315   0.418   0.784
  205SOL     OW  628   1.593   0.221   0.882
  205SOL    HW1  629   1.509   0.220   0.936
  205SOL    HW2  630   1.595   0.304   0.826
  206SOL     OW  631   0.039   1.077   0.300
  206SOL    HW1  632   0.138   1.066   0.291
  206SOL    HW2  633  -0.001   0.991   0.332
  207SOL     OW  634   0.875   1.646   0.337
  207SOL    HW1  635   0.798   1.611   0.283
  207SOL    HW2  636   0.843   1.717   0.399
  208SOL     OW  637   0.230   0.628   1.975
  208SOL    HW1  638   0.137   0.626   2.012
  208SOL    HW2  639   0.231   0.589   1.883
  209SOL     OW  640   1.755   0.607   2.093
  209SOL    HW1  641   1.743   0.594   1.994
  209SOL    HW2  642   1.725   0.526   2.142
  210SOL     OW  643   0.231   1.713   2.345
  210SOL    HW1  644   0.265   1.790   2.399
  210SOL    HW2  645   0.275   1.713   2.255
  211SOL     OW  646   0.230   1.434   2.400
  211SOL    HW1  647   0.204   1.530   2.400
  211SOL    HW2  648   0.159   1.380   2.445
  212SOL     OW  649   0.606   0.964   1.985
  212SOL    HW1  650   0.613   1.048   1.931
  212SOL    HW2  651   0.652   0.977   2.073
  213SOL     OW  652   0.122   0.643   2.425
  213SOL    HW1  653   0.077   0.555   2.442
  213SOL    HW2  654   0.121   0.697   2.509
  214SOL     OW  655   1.842   1.767   2.221
  214SOL    HW1  656   1.896   1.738   2.301
  214SOL    HW2  657   1.872   1.857   2.192
  215SOL     OW  658   0.027   1.596   1.979
  215SOL    HW1  659   0.008   1.500   2.000
  215SOL    HW2  660  -0.006   1.654   2.054
  216SOL     OW  661   1.689   0.922   2.474
  216SOL    HW1  662   1.784   0.893   2.482
  216SOL    HW2  663   1.681   0.987   2.399
  217SOL     OW  664   1.641   1.108   2.294
  217SOL    HW1  665   1.727   1.110   2.242
  217SOL    HW2  666   1.655   1.155   2.382
  218SOL     OW  667   0.613   1.365   2.588
  218SOL    HW1  668   0.564   1.278   2.597
  218SOL    HW2  669   0.590   1.408   2.501
  219SOL     OW  670   0.809   0.004   2.364
  219SOL    HW1  671   0.849   0.095   2.355
  219SOL    HW2  672   0.709   0.012   2.370
  220SOL     OW  673   1.525   0.999   2.052
  220SOL    HW1  674   1.462   0.923   2.065
  220SOL    HW2  675   1.573   1.017   2.138
  221SOL     OW  676   1.466   1.417   2.815
  221SOL    HW1  677   1.407   1.423   2.895
  221SOL    HW2  678   1.451   1.329   2.769
  222SOL     OW  679   0.598   0.729   2.132
  222SOL    HW1  680   0.622   0.798   2.064
  222SOL    HW2  681   0.520   0.762   2.186
  223SOL     OW  682   1.576   1.662   2.169
  223SOL    HW1  683   1.665   1.708   2.172
  223SOL    HW2  684   1.555   1.638   2.074
  224SOL     OW  685   1.041   0.701   2.291
  224SOL    HW1  686   1.067   0.697   2.387
  224SOL    HW2  687   0.956   0.650   2.277
  225SOL     OW  688   0.076   0.811   2.651
  225SOL    HW1  689   0.175   0.799   2.660
  225SOL    HW2  690   0.052   0.906   2.672
  226SOL     OW  691   0.865   0.348   2.057
  226SOL    HW1  692   0.924   0.411   2.008
  226SOL    HW2  693   0.884   0.254   2.028
  227SOL     OW  694   1.362   1.144   2.407
  227SOL    HW1  695   1.445   1.115   2.359
  227SOL    HW2  696   1.313   1.211   2.351
  228SOL     OW  697   1.008   1.456   2.339
  228SOL    HW1  698   0.962   1.528   2.287
  228SOL    HW2  699   1.004   1.476   2.437
  229SOL     OW  700   0.351   1.801   2.715
  229SOL    HW1  701   0.401   1.715   2.721
  229SOL    HW2  702   0.416   1.878   2.712
  230SOL     OW  703   0.321   0.943   2.104
  230SOL    HW1  704   0.403   0.982   2.062
  230SOL    HW2  705   0.294   0.861   2.055
  231SOL     OW  706   1.111   1.776   2.099
  231SOL    HW1  707   1.051   1.714   2.149
  231SOL    HW2  708   1.142   1.732   2.014
  232SOL     OW  709   1.632   1.377   1.943
  232SOL    HW1  710   1.600   1.471   1.933
  232SOL    HW2  711   1.556   1.314   1.931
  233SOL     OW  712   0.464   1.743   2.185
  233SOL    HW1  713   0.497   1.782   2.271
  233SOL    HW2  714   0.540   1.736   2.120
  234SOL     OW  715   1.400   0.107   2.288
  234SOL    HW1  716   1.376   0.070   2.198
  234SOL    HW2  717   1.499   0.123   2.292
  235SOL     OW  718   0.382   0.700   2.342
  235SOL    HW1  719   0.427   0.610   2.339
  235SOL    HW2  720   0.288   0.689   2.375
  236SOL     OW  721   0.614   0.122   1.979
  236SOL    HW1  722   0.712   0.100   1.986
  236SOL    HW2  723   0.583   0.105   1.886
  237SOL     OW  724   0.539   0.064   2.374
  237SOL    HW1  725   0.458   0.065   2.432
  237SOL    HW2  726   0.542   0.147   2.319
  238SOL     OW  727   1.434   1.188   1.903
  238SOL    HW1  728   1.466   1.112   1.960
  238SOL    HW2  729   1.342   1.215   1.933
  239SOL     OW  730   0.297   0.035   2.033
  239SOL    HW1  731   0.346   0.119   2.012
  239SOL    HW2  732   0.359  -0.030   2.078
  240SOL     OW  733   0.935   0.236   2.342
  240SOL    HW1  734   0.887   0.277   2.264
  240SOL    HW2  735   1.034   0.234   2.323
  241SOL     OW  736   0.459   1.152   2.603
  241SOL    HW1  737   0.388   1.125   2.668
  241SOL    HW2  738   0.433   1.124   2.510
  242SOL     OW  739   1.271   1.797   2.453
  242SOL    HW1  740   1.315   1.861   2.389
  242SOL    HW2  741   1.221   1.849   2.523
  243SOL     OW  742   1.032   0.549   1.878
  243SOL    HW1  743   0.991   0.631   1.839
  243SOL    HW2  744   1.096   0.575   1.951
  244SOL     OW  745   0.866   0.454   2.504
  244SOL    HW1  746   0.834   0.526   2.442
  244SOL    HW2  747   0.890   0.373   2.451
  245SOL     OW  748   1.857   0.833   2.239
  245SOL    HW1  749   1.899   0.769   2.303
  245SOL    HW2  750   1.819   0.782   2.161
  246SOL     OW  751   0.488   1.385   2.036
  246SOL    HW1  752   0.401   1.370   2.083
  246SOL    HW2  753   0.471   1.411   1.941
  247SOL     OW  754   1.390   0.575   1.940
  247SOL    HW1  755   1.336   0.554   2.021
  247SOL    HW2  756   1.481   0.534   1.949
  248SOL     OW  757   0.527   0.256   2.190
  248SOL    HW1  758   0.554   0.197   2.115
  248SOL    HW2  759   0.527   0.351   2.159
  249SOL     OW  760   0.705   1.050   2.230
  249SOL    HW1  761   0.691   1.057   2.329
  249SOL    HW2  762   0.789   0.999   2.212
  250SOL     OW  763   0.367   1.100   2.363
  250SOL    HW1  764   0.360   1.183   2.307
  250SOL    HW2  765   0.371   1.020   2.303
  251SOL     OW  766   1.252   1.348   2.250
  251SOL    HW1  767   1.302   1.425   2.290
  251SOL    HW2  768   1.157   1.350   2.282
  252SOL     OW  769   1.582   0.639   2.334
  252SOL    HW1  770   1.551   0.700   2.407
  252SOL    HW2  771   1.632   0.691   2.265
  253SOL     OW  772   1.209   0.525   2.137
  253SOL    HW1  773   1.222   0.441   2.191
  253SOL    HW2  774   1.180   0.599   2.197
  254SOL     OW  775   0.307   0.063   2.480
  254SOL    HW1  776   0.296   0.157   2.513
  254SOL    HW2  777   0.302   0.000   2.557
  255SOL     OW  778   1.622   0.367   2.236
  255SOL    HW1  779   1.624   0.291   2.300
  255SOL    HW2  780   1.574   0.444   2.276
  256SOL     OW  781   1.540   0.274   1.987
  256SOL    HW1  782   1.479   0.199   2.010
  256SOL    HW2  783   1.562   0.326   2.070
  257SOL     OW  784   1.303   0.838   1.904
  257SOL    HW1  785   1.337   0.745   1.919
  257SOL    HW2  786   1.321   0.865   1.809
  258SOL     OW  787   0.008   1.326   2.062
  258SOL    HW1  788  -0.085   1.347   2.031
  258SOL    HW2  789   0.018   1.227   2.075
  259SOL     OW  790   0.815   0.572   2.187
  259SOL    HW1  791   0.822   0.483   2.141
  259SOL    HW2  792   0.721   0.606   2.179
  260SOL     OW  793   0.473   0.500   2.053
  260SOL    HW1  794   0.534   0.580   2.057
  260SOL    HW2  795   0.378   0.531   2.060
  261SOL     OW  796   1.302   0.855   2.171
  261SOL    HW1  797   1.216   0.824   2.213
  261SOL    HW2  798   1.298   0.841   2.072
  262SOL     OW  799   1.726   0.135   2.385
  262SOL    HW1  800   1.799   0.118   2.318
  262SOL    HW2  801   1.695   0.048   2.423
  263SOL     OW  802   1.388   1.573   2.339
  263SOL    HW1  803   1.455   1.585   2.265
  263SOL    HW2  804   1.348   1.662   2.362
  264SOL     OW  805   0.672   1.616   2.016
  264SOL    HW1  806   0.681   1.626   1.917
  264SOL    HW2  807   0.632   1.527   2.037
  265SOL     OW  808   1.841   0.175   2.825
  265SOL    HW1  809   1.880   0.090   2.789
  265SOL    HW2  810   1.743   0.177   2.806
  266SOL     OW  811   1.194   1.612   1.893
  266SOL    HW1  812   1.200   1.519   1.930
  266SOL    HW2  813   1.135   1.612   1.813
  267SOL     OW  814   0.916   0.910   2.153
  267SOL    HW1  815   0.979   0.948   2.085
  267SOL    HW2  816   0.956   0.827   2.192
  268SOL     OW  817   1.504   1.607   1.906
  268SOL    HW1  818   1.412   1.644   1.913
  268SOL    HW2  819   1.542   1.627   1.816
  269SOL     OW  820   0.590   1.487   2.353
  269SOL    HW1  821   0.632   1.429   2.283
  269SOL    HW2  822   0.546   1.566   2.309
  270SOL     OW  823   0.255   1.348   2.152
  270SOL    HW1  824   0.159   1.349   2.125
  270SOL    HW2  825   0.267   1.401   2.236
  271SOL     OW  826   0.075   0.345   1.895
  271SOL    HW1  827  -0.017   0.317   1.866
  271SOL    HW2  828   0.106   0.422   1.839
  272SOL     OW  829   0.072   0.166   2.180
  272SOL    HW1  830   0.055   0.249   2.126
  272SOL    HW2  831   0.162   0.129   2.158
  273SOL     OW  832   1.183   1.335   1.981
  273SOL    HW1  833   1.084   1.324   1.983
  273SOL    HW2  834   1.217   1.350   2.074
  274SOL     OW  835   1.225   0.325   2.311
  274SOL    HW1  836   1.290   0.251   2.300
  274SOL    HW2  837   1.245   0.375   2.395
  275SOL     OW  838   0.594   0.745   2.514
  275SOL    HW1  839   0.644   0.830   2.495
  275SOL    HW2  840   0.506   0.747   2.466
  276SOL     OW  841   0.859   1.374   1.878
  276SOL    HW1  842   0.813   1.389   1.966
  276SOL    HW2  843   0.903   1.459   1.848
  277SOL     OW  844   1.083   0.984   1.949
  277SOL    HW1  845   1.060   1.037   1.867
  277SOL    HW2  846   1.164   0.928   1.930
  278SOL     OW  847   0.079   1.240   2.515
  278SOL    HW1  848   0.078   1.193   2.603
  278SOL    HW2  849   0.161   1.212   2.464
  279SOL     OW  850   0.428   0.424   2.382
  279SOL    HW1  851   0.458   0.352   2.320
  279SOL    HW2  852   0.389   0.384   2.465
  280SOL     OW  853   0.770   1.330   2.163
  280SOL    HW1  854   0.724   1.243   2.180
  280SOL    HW2  855   0.861   1.327   2.204
  281SOL     OW  856   1.352   0.052   2.030
  281SOL    HW1  857   1.387   0.011   1.946
  281SOL    HW2  858   1.262   0.014   2.050
  282SOL     OW  859   1.300   0.453   2.553
  282SOL    HW1  860   1.241   0.533   2.557
  282SOL    HW2  861   1.315   0.418   2.646
  283SOL     OW  862   0.039   1.077   2.162
  283SOL    HW1  863   0.138   1.066   2.153
  283SOL    HW2  864  -0.001   0.991   2.194
  284SOL     OW  865   0.875   1.646   2.199
  284SOL    HW1  866   0.798   1.611   2.145
  284SOL    HW2  867   0.843   1.717   2.261
  285SOL     OW  868   0.225   2.137   0.996
  285SOL    HW1  869   0.260   2.120   1.088
  285SOL    HW2  870   0.137   2.092   0.984
  286SOL     OW  871   0.019   2.230   0.647
  286SOL    HW1  872  -0.063   2.273   0.686
  286SOL    HW2  873  -0.009   2.157   0.584
  287SOL     OW  874   1.755   2.469   0.231
  287SOL    HW1  875   1.743   2.456   0.132
  287SOL    HW2  876   1.725   2.388   0.280
  288SOL     OW  877   0.438   2.254   1.499
  288SOL    HW1  878   0.520   2.198   1.508
  288SOL    HW2  879   0.357   2.196   1.503
  289SOL     OW  880   1.603   2.309   0.737
  289SOL    HW1  881   1.529   2.355   0.687
  289SOL    HW2  882   1.654   2.377   0.790
  290SOL     OW  883   1.594   1.976   1.480
  290SOL    HW1  884   1.576   2.043   1.408
  290SOL    HW2  885   1.591   2.022   1.569
  291SOL     OW  886   0.122   2.505   0.563
  291SOL    HW1  887   0.077   2.417   0.580
  291SOL    HW2  888   0.121   2.559   0.647
  292SOL     OW  889   0.809   1.866   0.502
  292SOL    HW1  890   0.849   1.957   0.493
  292SOL    HW2  891   0.709   1.874   0.508
  293SOL     OW  892   0.317   2.113   1.801
  293SOL    HW1  893   0.388   2.184   1.807
  293SOL    HW2  894   0.229   2.152   1.829
  294SOL     OW  895   1.281   2.207   0.944
  294SOL    HW1  896   1.195   2.157   0.931
  294SOL    HW2  897   1.343   2.153   1.000
  295SOL     OW  898   0.807   2.467   1.465
  295SOL    HW1  899   0.760   2.464   1.554
  295SOL    HW2  900   0.756   2.412   1.399
  296SOL     OW  901   1.394   2.331   1.674
  296SOL    HW1  902   1.374   2.374   1.762
  296SOL    HW2  903   1.472   2.269   1.683
  297SOL     OW  904   0.991   2.272   1.242
  297SOL    HW1  905   0.914   2.306   1.296
  297SOL    HW2  906   0.957   2.221   1.163
  298SOL     OW  907   1.041   2.563   0.429
  298SOL    HW1  908   1.067   2.559   0.525
  298SOL    HW2  909   0.956   2.512   0.415
  299SOL     OW  910   0.076   2.673   0.789
  299SOL    HW1  911   0.175   2.661   0.798
  299SOL    HW2  912   0.052   2.768   0.810
  300SOL     OW  913   0.865   2.210   0.195
  300SOL    HW1  914   0.924   2.273   0.146
  300SOL    HW2  915   0.884   2.116   0.166
  301SOL     OW  916   1.719   2.447   1.831
  301SOL    HW1  917   1.693   2.536   1.795
  301SOL    HW2  918   1.717   2.379   1.758
  302SOL     OW  919   0.550   2.058   0.885
  302SOL    HW1  920   0.545   2.053   0.985
  302SOL    HW2  921   0.552   2.154   0.856
  303SOL     OW  922   1.458   2.597   0.728
  303SOL    HW1  923   1.453   2.532   0.803
  303SOL    HW2  924   1.538   2.656   0.741
  304SOL     OW  925   0.202   2.147   1.498
  304SOL    HW1  926   0.122   2.207   1.485
  304SOL    HW2  927   0.192   2.098   1.584
  305SOL     OW  928   1.400   1.969   0.426
  305SOL    HW1  929   1.376   1.932   0.336
  305SOL    HW2  930   1.499   1.985   0.430
  306SOL     OW  931   1.547   2.084   1.729
  306SOL    HW1  932   1.542   2.121   1.821
  306SOL    HW2  933   1.475   2.015   1.717
  307SOL     OW  934   0.614   1.984   0.117
  307SOL    HW1  935   0.712   1.962   0.124
  307SOL    HW2  936   0.583   1.967   0.024
  308SOL     OW  937   0.781   2.126   1.749
  308SOL    HW1  938   0.848   2.065   1.792
  308SOL    HW2  939   0.708   2.145   1.814
  309SOL     OW  940   1.351   2.452   1.433
  309SOL    HW1  941   1.379   2.409   1.518
  309SOL    HW2  942   1.376   2.548   1.434
  310SOL     OW  943   0.922   2.365   0.899
  310SOL    HW1  944   0.897   2.356   0.803
  310SOL    HW2  945   0.970   2.283   0.930
  311SOL     OW  946   0.539   1.926   0.512
  311SOL    HW1  947   0.458   1.927   0.570
  311SOL    HW2  948   0.542   2.009   0.457
  312SOL     OW  949   0.935   2.098   0.480
  312SOL    HW1  950   0.887   2.139   0.402
  312SOL    HW2  951   1.034   2.096   0.461
  313SOL     OW  952   1.076   2.545   1.464
  313SOL    HW1  953   0.996   2.484   1.467
  313SOL    HW2  954   1.157   2.492   1.440
  314SOL     OW  955   1.032   2.411   0.016
  314SOL    HW1  956   0.991   2.493  -0.023
  314SOL    HW2  957   1.096   2.437   0.089
  315SOL     OW  958   0.078   2.418   1.386
  315SOL    HW1  959   0.170   2.417   1.345
  315SOL    HW2  960   0.072   2.492   1.453
  316SOL     OW  961   0.561   2.084   1.147
  316SOL    HW1  962   0.599   2.000   1.184
  316SOL    HW2  963   0.473   2.103   1.191
  317SOL     OW  964   0.866   2.316   0.642
  317SOL    HW1  965   0.834   2.388   0.580
  317SOL    HW2  966   0.890   2.235   0.589
  318SOL     OW  967   1.017   1.901   0.753
  318SOL    HW1  968   0.945   1.906   0.684
  318SOL    HW2  969   0.993   1.832   0.822
  319SOL     OW  970   1.466   2.452   0.992
  319SOL    HW1  971   1.436   2.357   0.999
  319SOL    HW2  972   1.539   2.468   1.058
  320SOL     OW  973   0.527   2.118   0.328
  320SOL    HW1  974   0.554   2.059   0.253
  320SOL    HW2  975   0.527   2.213   0.297
  321SOL     OW  976   0.915   1.951   1.402
  321SOL    HW1  977   0.940   1.931   1.307
  321SOL    HW2  978   0.987   2.007   1.444
  322SOL     OW  979   1.274   2.248   1.262
  322SOL    HW1  980   1.295   2.322   1.326
  322SOL    HW2  981   1.185   2.265   1.219
  323SOL     OW  982   0.566   2.399   0.865
  323SOL    HW1  983   0.578   2.465   0.791
  323SOL    HW2  984   0.612   2.433   0.948
  324SOL     OW  985   1.582   2.501   0.472
  324SOL    HW1  986   1.551   2.562   0.545
  324SOL    HW2  987   1.632   2.553   0.403
  325SOL     OW  988   1.013   1.967   1.770
  325SOL    HW1  989   1.019   2.052   1.718
  325SOL    HW2  990   1.045   1.891   1.713
  326SOL     OW  991   0.504   1.912   1.740
  326SOL    HW1  992   0.462   1.855   1.670
  326SOL    HW2  993   0.438   1.981   1.772
  327SOL     OW  994   1.209   2.387   0.275
  327SOL    HW1  995   1.222   2.303   0.329
  327SOL    HW2  996   1.180   2.461   0.335
  328SOL     OW  997   0.307   2.075   1.231
  328SOL    HW1  998   0.284   2.112   1.321
  328SOL    HW2  999   0.277   1.980   1.225
  329SOL     OW 1000   0.732   2.496   1.064
  329SOL    HW1 1001   0.791   2.470   0.988
  329SOL    HW2 1002   0.704   2.592   1.053
  330SOL     OW 1003   0.307   1.925   0.618
  330SOL    HW1 1004   0.296   2.019   0.651
  330SOL    HW2 1005   0.302   1.862   0.695
  331SOL     OW 1006   1.622   2.229   0.374
  331SOL    HW1 1007   1.624   2.153   0.438
  331SOL    HW2 1008   1.574   2.306   0.414
  332SOL     OW 1009   1.540   2.136   0.125
  332SOL    HW1 1010   1.479   2.061   0.148
  332SOL    HW2 1011   1.562   2.188   0.208
  333SOL     OW 1012   0.319   2.672   0.949
  333SOL    HW1 1013   0.412   2.708   0.954
  333SOL    HW2 1014   0.313   2.587   1.001
  334SOL     OW 1015   0.339   2.371   1.006
  334SOL    HW1 1016   0.287   2.288   0.989
  334SOL    HW2 1017   0.416   2.376   0.942
  335SOL     OW 1018   1.138   2.242   1.678
  335SOL    HW1 1019   1.093   2.305   1.742
  335SOL    HW2 1020   1.231   2.273   1.661
  336SOL     OW 1021   1.160   2.069   1.477
  336SOL    HW1 1022   1.160   2.133   1.554
  336SOL    HW2 1023   1.188   2.117   1.394
  337SOL     OW 1024   0.040   2.406   1.114
  337SOL    HW1 1025   0.125   2.373   1.073
  337SOL    HW2 1026   0.053   2.421   1.212
  338SOL     OW 1027   0.189   2.382   1.722
  338SOL    HW1 1028   0.248   2.342   1.652
  338SOL    HW2 1029   0.131   2.453   1.681
  339SOL     OW 1030   0.815   2.434   0.325
  339SOL    HW1 1031   0.822   2.345   0.279
  339SOL    HW2 1032   0.721   2.468   0.317
  340SOL     OW 1033   1.657   2.466   1.206
  340SOL    HW1 1034   1.619   2.397   1.268
  340SOL    HW2 1035   1.739   2.430   1.162
  341SOL     OW 1036   0.671   2.326   1.269
  341SOL    HW1 1037   0.637   2.237   1.239
  341SOL    HW2 1038   0.697   2.380   1.189
  342SOL     OW 1039   0.473   2.362   0.191
  342SOL    HW1 1040   0.534   2.442   0.195
  342SOL    HW2 1041   0.378   2.393   0.198
  343SOL     OW 1042   0.903   1.948   0.133
  343SOL    HW1 1043   0.954   1.949   0.047
  343SOL    HW2 1044   0.959   1.906   0.204
  344SOL     OW 1045   1.726   1.997   0.523
  344SOL    HW1 1046   1.799   1.980   0.456
  344SOL    HW2 1047   1.695   1.910   0.561
  345SOL     OW 1048   1.841   2.037   0.963
  345SOL    HW1 1049   1.880   1.952   0.927
  345SOL    HW2 1050   1.743   2.039   0.944
  346SOL     OW 1051   0.263   2.188   0.720
  346SOL    HW1 1052   0.184   2.239   0.686
  346SOL    HW2 1053   0.254   2.173   0.818
  347SOL     OW 1054   1.014   2.098   0.971
  347SOL    HW1 1055   1.006   2.062   0.878
  347SOL    HW2 1056   1.012   2.022   1.036
  348SOL     OW 1057   1.709   2.247   1.381
  348SOL    HW1 1058   1.782   2.316   1.385
  348SOL    HW2 1059   1.737   2.172   1.322
  349SOL     OW 1060   0.672   2.065   1.489
  349SOL    HW1 1061   0.762   2.049   1.449
  349SOL    HW2 1062   0.680   2.070   1.588
  350SOL     OW 1063   0.075   2.207   0.033
  350SOL    HW1 1064  -0.017   2.179   0.004
  350SOL    HW2 1065   0.106   2.284  -0.023
  351SOL     OW 1066   0.072   2.028   0.318
  351SOL    HW1 1067   0.055   2.111   0.264
  351SOL    HW2 1068   0.162   1.991   0.296
  352SOL     OW 1069   0.716   2.427   1.708
  352SOL    HW1 1070   0.735   2.492   1.782
  352SOL    HW2 1071   0.776   2.347   1.717
  353SOL     OW 1072   1.225   2.187   0.449
  353SOL    HW1 1073   1.290   2.113   0.438
  353SOL    HW2 1074   1.245   2.237   0.533
  354SOL     OW 1075   1.777   2.204   1.642
  354SOL    HW1 1076   1.760   2.235   1.548
  354SOL    HW2 1077   1.693   2.167   1.680
  355SOL     OW 1078   1.083   2.846   0.087
  355SOL    HW1 1079   1.060   2.899   0.005
  355SOL    HW2 1080   1.164   2.790   0.068
  356SOL     OW 1081   1.824   2.054   1.227
  356SOL    HW1 1082   1.820   1.964   1.271
  356SOL    HW2 1083   1.827   2.043   1.128
  357SOL     OW 1084   0.428   2.286   0.520
  357SOL    HW1 1085   0.458   2.214   0.458
  357SOL    HW2 1086   0.389   2.246   0.603
  358SOL     OW 1087   0.317   2.409   1.280
  358SOL    HW1 1088   0.355   2.350   1.352
  358SOL    HW2 1089   0.357   2.383   1.192
  359SOL     OW 1090   1.424   2.076   1.112
  359SOL    HW1 1091   1.476   2.011   1.167
  359SOL    HW2 1092   1.375   2.139   1.173
  360SOL     OW 1093   1.001   1.896   1.154
  360SOL    HW1 1094   0.938   1.824   1.123
  360SOL    HW2 1095   1.094   1.860   1.154
  361SOL     OW 1096   1.352   1.914   0.168
  361SOL    HW1 1097   1.387   1.873   0.084
  361SOL    HW2 1098   1.262   1.876   0.188
  362SOL     OW 1099   1.300   2.315   0.691
  362SOL    HW1 1100   1.241   2.395   0.695
  362SOL    HW2 1101   1.315   2.280   0.784
  363SOL     OW 1102   1.593   2.083   0.882
  363SOL    HW1 1103   1.509   2.082   0.936
  363SOL    HW2 1104   1.595   2.166   0.826
  364SOL     OW 1105   1.755   2.469   2.093
  364SOL    HW1 1106   1.743   2.456   1.994
  364SOL    HW2 1107   1.725   2.388   2.142
  365SOL     OW 1108   0.122   2.505   2.425
  365SOL    HW1 1109   0.077   2.417   2.442
  365SOL    HW2 1110   0.121   2.559   2.509
  366SOL     OW 1111   0.809   1.866   2.364
  366SOL    HW1 1112   0.849   1.957   2.355
  366SOL    HW2 1113   0.709   1.874   2.370
  367SOL     OW 1114   1.041   2.563   2.291
  367SOL    HW1 1115   1.067   2.559   2.387
  367SOL    HW2 1116   0.956   2.512   2.277
  368SOL     OW 1117   0.076   2.673   2.651
  368SOL    HW1 1118   0.175   2.661   2.660
  368SOL    HW2 1119   0.052   2.768   2.672
  369SOL     OW 1120   0.865   2.210   2.057
  369SOL    HW1 1121   0.924   2.273   2.008
  369SOL    HW2 1122   0.884   2.116   2.028
  370SOL     OW 1123   1.400   1.969   2.288
  370SOL    HW1 1124   1.376   1.932   2.198
  370SOL    HW2 1125   1.499   1.985   2.292
  371SOL     OW 1126   0.614   1.984   1.979
  371SOL    HW1 1127   0.712   1.962   1.986
  371SOL    HW2 1128   0.583   1.967   1.886
  372SOL     OW 1129   0.539   1.926   2.374
  372SOL    HW1 1130   0.458   1.927   2.432
  372SOL    HW2 1131   0.542   2.009   2.319
  373SOL     OW 1132   0.297   1.897   2.033
  373SOL    HW1 1133   0.346   1.981   2.012
  373SOL    HW2 1134   0.359   1.832   2.078
  374SOL     OW 1135   0.935   2.098   2.342
  374SOL    HW1 1136   0.887   2.139   2.264
  374SOL    HW2 1137   1.034   2.096   2.323
  375SOL     OW 1138   1.032   2.411   1.878
  375SOL    HW1 1139   0.991   2.493   1.839
  375SOL    HW2 1140   1.096   2.437   1.951
  376SOL     OW 1141   0.866   2.316   2.504
  376SOL    HW1 1142   0.834   2.388   2.442
  376SOL    HW2 1143   0.890   2.235   2.451
  377SOL     OW 1144   0.527   2.118   2.190
  377SOL    HW1 1145   0.554   2.059   2.115
  377SOL    HW2 1146   0.527   2.213   2.159
  378SOL     OW 1147   1.582   2.501   2.334
  378SOL    HW1 1148   1.551   2.562   2.407
  378SOL    HW2 1149   1.632   2.553   2.265
  379SOL     OW 1150   1.209   2.387   2.137
  379SOL    HW1 1151   1.222   2.303   2.191
  379SOL    HW2 1152   1.180   2.461   2.197
  380SOL     OW 1153   0.307   1.925   2.480
  380SOL    HW1 1154   0.296   2.019   2.513
  380SOL    HW2 1155   0.302   1.862   2.557
  381SOL     OW 1156   1.622   2.229   2.236
  381SOL    HW1 1157   1.624   2.153   2.300
  381SOL    HW2 1158   1.574   2.306   2.276
  382SOL     OW 1159   1.540   2.136   1.987
  382SOL    HW1 1160   1.479   2.061   2.010
  382SOL    HW2 1161   1.562   2.188   2.070
  383SOL     OW 1162   0.815   2.434   2.187
  383SOL    HW1 1163   0.822   2.345   2.141
  383SOL    HW2 1164   0.721   2.468   2.179
  384SOL     OW 1165   0.473   2.362   2.053
  384SOL    HW1 1166   0.534   2.442   2.057
  384SOL    HW2 1167   0.378   2.393   2.060
  385SOL     OW 1168   1.726   1.997   2.385
  385SOL    HW1 1169   1.799   1.980   2.318
  385SOL    HW2 1170   1.695   1.910   2.423
  386SOL     OW 1171   1.841   2.037   2.825
  386SOL    HW1 1172   1.880   1.952   2.789
  386SOL    HW2 1173   1.743   2.039   2.806
  387SOL     OW 1174   0.075   2.207   1.895
  387SOL    HW1 1175  -0.017   2.179   1.866
  387SOL    HW2 1176   0.106   2.284   1.839
  388SOL     OW 1177   0.072   2.028   2.180
  388SOL    HW1 1178   0.055   2.111   2.126
  388SOL    HW2 1179   0.162   1.991   2.158
  389SOL     OW 1180   1.225   2.187   2.311
  389SOL    HW1 1181   1.290   2.113   2.300
  389SOL    HW2 1182   1.245   2.237   2.395
  390SOL     OW 1183   1.083   2.846   1.949
  390SOL    HW1 1184   1.060   2.899   1.867
  390SOL    HW2 1185   1.164   2.790   1.930
  391SOL     OW 1186   0.428   2.286   2.382
  391SOL    HW1 1187   0.458   2.214   2.320
  391SOL    HW2 1188   0.389   2.246   2.465
  392SOL     OW 1189   1.352   1.914   2.030
  392SOL    HW1 1190   1.387   1.873   1.946
  392SOL    HW2 1191   1.262   1.876   2.050
  393SOL     OW 1192   1.300   2.315   2.553
  393SOL    HW1 1193   1.241   2.395   2.557
  393SOL    HW2 1194   1.315   2.280   2.646
  394SOL     OW 1195   2.092   0.628   0.113
  394SOL    HW1 1196   1.999   0.626   0.150
  394SOL    HW2 1197   2.093   0.589   0.021
  395SOL     OW 1198   2.087   0.275   0.996
  395SOL    HW1 1199   2.122   0.258   1.088
  395SOL    HW2 1200   1.999   0.230   0.984
  396SOL     OW 1201   1.881   0.368   0.647
  396SOL    HW1 1202   1.799   0.411   0.686
  396SOL    HW2 1203   1.853   0.295   0.584
  397SOL     OW 1204   2.431   1.275   1.165
  397SOL    HW1 1205   2.338   1.268   1.128
  397SOL    HW2 1206   2.442   1.364   1.209
  398SOL     OW 1207   2.712   0.798   1.823
  398SOL    HW1 1208   2.708   0.874   1.888
  398SOL    HW2 1209   2.734   0.834   1.732
  399SOL     OW 1210   2.197   1.435   1.061
  399SOL    HW1 1211   2.119   1.404   1.008
  399SOL    HW2 1212   2.255   1.493   1.004
  400SOL     OW 1213   2.300   0.392   1.499
  400SOL    HW1 1214   2.382   0.336   1.508
  400SOL    HW2 1215   2.219   0.334   1.503
  401SOL     OW 1216   2.093   1.713   0.483
  401SOL    HW1 1217   2.127   1.790   0.537
  401SOL    HW2 1218   2.137   1.713   0.393
  402SOL     OW 1219   2.092   1.434   0.538
  402SOL    HW1 1220   2.066   1.530   0.538
  402SOL    HW2 1221   2.021   1.380   0.583
  403SOL     OW 1222   2.102   1.091   0.886
  403SOL    HW1 1223   2.116   1.007   0.938
  403SOL    HW2 1224   2.047   1.155   0.941
  404SOL     OW 1225   1.984   0.643   0.563
  404SOL    HW1 1226   1.939   0.555   0.580
  404SOL    HW2 1227   1.983   0.697   0.647
  405SOL     OW 1228   1.889   1.596   0.117
  405SOL    HW1 1229   1.870   1.500   0.138
  405SOL    HW2 1230   1.856   1.654   0.192
  406SOL     OW 1231   1.975   0.737   1.597
  406SOL    HW1 1232   2.063   0.724   1.642
  406SOL    HW2 1233   1.962   0.834   1.575
  407SOL     OW 1234   2.475   1.365   0.726
  407SOL    HW1 1235   2.426   1.278   0.735
  407SOL    HW2 1236   2.452   1.408   0.639
  408SOL     OW 1237   2.059   0.976   1.264
  408SOL    HW1 1238   2.148   0.931   1.250
  408SOL    HW2 1239   1.986   0.911   1.245
  409SOL     OW 1240   2.179   0.251   1.801
  409SOL    HW1 1241   2.250   0.322   1.807
  409SOL    HW2 1242   2.091   0.290   1.829
  410SOL     OW 1243   2.460   0.729   0.270
  410SOL    HW1 1244   2.484   0.798   0.202
  410SOL    HW2 1245   2.382   0.762   0.324
  411SOL     OW 1246   1.938   0.811   0.789
  411SOL    HW1 1247   2.037   0.799   0.798
  411SOL    HW2 1248   1.914   0.906   0.810
  412SOL     OW 1249   1.992   1.821   1.571
  412SOL    HW1 1250   1.982   1.806   1.670
  412SOL    HW2 1251   1.906   1.857   1.535
  413SOL     OW 1252   2.727   0.348   0.195
  413SOL    HW1 1253   2.786   0.411   0.146
  413SOL    HW2 1254   2.746   0.254   0.166
  414SOL     OW 1255   2.412   0.196   0.885
  414SOL    HW1 1256   2.407   0.191   0.985
  414SOL    HW2 1257   2.414   0.292   0.856
  415SOL     OW 1258   2.213   1.801   0.853
  415SOL    HW1 1259   2.263   1.715   0.859
  415SOL    HW2 1260   2.278   1.878   0.850
  416SOL     OW 1261   2.183   0.943   0.242
  416SOL    HW1 1262   2.265   0.982   0.200
  416SOL    HW2 1263   2.156   0.861   0.193
  417SOL     OW 1264   2.323   1.266   1.727
  417SOL    HW1 1265   2.273   1.267   1.641
  417SOL    HW2 1266   2.260   1.248   1.803
  418SOL     OW 1267   2.064   0.285   1.498
  418SOL    HW1 1268   1.984   0.345   1.485
  418SOL    HW2 1269   2.054   0.236   1.584
  419SOL     OW 1270   2.326   1.743   0.323
  419SOL    HW1 1271   2.359   1.782   0.409
  419SOL    HW2 1272   2.402   1.736   0.258
  420SOL     OW 1273   2.111   1.785   1.241
  420SOL    HW1 1274   2.168   1.720   1.291
  420SOL    HW2 1275   2.095   1.752   1.148
  421SOL     OW 1276   2.244   0.700   0.480
  421SOL    HW1 1277   2.289   0.610   0.477
  421SOL    HW2 1278   2.150   0.689   0.513
  422SOL     OW 1279   2.665   1.402   0.924
  422SOL    HW1 1280   2.755   1.416   0.882
  422SOL    HW2 1281   2.594   1.404   0.853
  423SOL     OW 1282   2.401   0.064   0.512
  423SOL    HW1 1283   2.320   0.065   0.570
  423SOL    HW2 1284   2.404   0.147   0.457
  424SOL     OW 1285   2.159   0.035   0.171
  424SOL    HW1 1286   2.208   0.119   0.150
  424SOL    HW2 1287   2.221  -0.030   0.216
  425SOL     OW 1288   2.797   0.236   0.480
  425SOL    HW1 1289   2.749   0.277   0.402
  425SOL    HW2 1290   2.896   0.234   0.461
  426SOL     OW 1291   2.321   1.152   0.741
  426SOL    HW1 1292   2.250   1.125   0.806
  426SOL    HW2 1293   2.295   1.124   0.648
  427SOL     OW 1294   1.940   0.556   1.386
  427SOL    HW1 1295   2.032   0.555   1.345
  427SOL    HW2 1296   1.934   0.630   1.453
  428SOL     OW 1297   2.423   0.222   1.147
  428SOL    HW1 1298   2.461   0.138   1.184
  428SOL    HW2 1299   2.335   0.241   1.191
  429SOL     OW 1300   2.389   0.256   0.328
  429SOL    HW1 1301   2.416   0.197   0.253
  429SOL    HW2 1302   2.389   0.351   0.297
  430SOL     OW 1303   2.272   0.813   1.251
  430SOL    HW1 1304   2.358   0.825   1.301
  430SOL    HW2 1305   2.230   0.726   1.278
  431SOL     OW 1306   1.926   1.564   1.331
  431SOL    HW1 1307   1.880   1.646   1.297
  431SOL    HW2 1308   2.024   1.583   1.340
  432SOL     OW 1309   2.229   1.100   0.501
  432SOL    HW1 1310   2.222   1.183   0.445
  432SOL    HW2 1311   2.233   1.020   0.441
  433SOL     OW 1312   2.428   0.537   0.865
  433SOL    HW1 1313   2.440   0.603   0.791
  433SOL    HW2 1314   2.474   0.571   0.948
  434SOL     OW 1315   2.216   1.510   1.329
  434SOL    HW1 1316   2.195   1.466   1.242
  434SOL    HW2 1317   2.313   1.536   1.332
  435SOL     OW 1318   2.264   0.751   1.598
  435SOL    HW1 1319   2.332   0.806   1.551
  435SOL    HW2 1320   2.304   0.663   1.625
  436SOL     OW 1321   2.366   0.050   1.740
  436SOL    HW1 1322   2.324  -0.007   1.670
  436SOL    HW2 1323   2.300   0.119   1.772
  437SOL     OW 1324   2.435   0.870   1.029
  437SOL    HW1 1325   2.479   0.959   1.020
  437SOL    HW2 1326   2.372   0.870   1.106
  438SOL     OW 1327   2.169   0.213   1.231
  438SOL    HW1 1328   2.146   0.250   1.321
  438SOL    HW2 1329   2.139   0.118   1.225
  439SOL     OW 1330   1.899   1.310   1.282
  439SOL    HW1 1331   1.952   1.261   1.350
  439SOL    HW2 1332   1.921   1.408   1.287
  440SOL     OW 1333   2.169   0.063   0.618
  440SOL    HW1 1334   2.158   0.157   0.651
  440SOL    HW2 1335   2.164   0.000   0.695
  441SOL     OW 1336   2.212   0.898   1.804
  441SOL    HW1 1337   2.288   0.942   1.852
  441SOL    HW2 1338   2.247   0.851   1.722
  442SOL     OW 1339   2.181   0.810   0.949
  442SOL    HW1 1340   2.274   0.846   0.954
  442SOL    HW2 1341   2.175   0.725   1.001
  443SOL     OW 1342   2.201   0.509   1.006
  443SOL    HW1 1343   2.149   0.426   0.989
  443SOL    HW2 1344   2.278   0.514   0.942
  444SOL     OW 1345   1.870   1.326   0.200
  444SOL    HW1 1346   1.777   1.347   0.169
  444SOL    HW2 1347   1.880   1.227   0.213
  445SOL     OW 1348   1.950   1.801   0.927
  445SOL    HW1 1349   1.908   1.715   0.900
  445SOL    HW2 1350   2.044   1.804   0.893
  446SOL     OW 1351   2.366   1.568   0.910
  446SOL    HW1 1352   2.432   1.642   0.919
  446SOL    HW2 1353   2.410   1.489   0.868
  447SOL     OW 1354   1.902   0.544   1.114
  447SOL    HW1 1355   1.987   0.511   1.073
  447SOL    HW2 1356   1.915   0.559   1.212
  448SOL     OW 1357   2.051   0.520   1.722
  448SOL    HW1 1358   2.110   0.480   1.652
  448SOL    HW2 1359   1.993   0.591   1.681
  449SOL     OW 1360   2.677   0.572   0.325
  449SOL    HW1 1361   2.684   0.483   0.279
  449SOL    HW2 1362   2.583   0.606   0.317
  450SOL     OW 1363   2.114   1.564   1.744
  450SOL    HW1 1364   2.084   1.621   1.820
  450SOL    HW2 1365   2.107   1.467   1.770
  451SOL     OW 1366   2.335   0.500   0.191
  451SOL    HW1 1367   2.396   0.580   0.195
  451SOL    HW2 1368   2.240   0.531   0.198
  452SOL     OW 1369   2.021   1.137   1.466
  452SOL    HW1 1370   2.043   1.076   1.542
  452SOL    HW2 1371   2.031   1.088   1.380
  453SOL     OW 1372   1.945   1.258   1.022
  453SOL    HW1 1373   1.940   1.257   1.122
  453SOL    HW2 1374   1.862   1.217   0.984
  454SOL     OW 1375   2.550   1.662   1.716
  454SOL    HW1 1376   2.494   1.743   1.725
  454SOL    HW2 1377   2.602   1.666   1.630
  455SOL     OW 1378   1.992   1.794   1.851
  455SOL    HW1 1379   1.951   1.720   1.904
  455SOL    HW2 1380   2.056   1.845   1.909
  456SOL     OW 1381   2.125   0.326   0.720
  456SOL    HW1 1382   2.046   0.377   0.686
  456SOL    HW2 1383   2.116   0.311   0.818
  457SOL     OW 1384   2.234   1.288   1.490
  457SOL    HW1 1385   2.221   1.381   1.456
  457SOL    HW2 1386   2.150   1.236   1.477
  458SOL     OW 1387   2.452   1.487   0.491
  458SOL    HW1 1388   2.494   1.429   0.421
  458SOL    HW2 1389   2.408   1.566   0.447
  459SOL     OW 1390   2.117   1.348   0.290
  459SOL    HW1 1391   2.021   1.349   0.263
  459SOL    HW2 1392   2.129   1.401   0.374
  460SOL     OW 1393   1.967   1.013   1.726
  460SOL    HW1 1394   1.890   0.980   1.780
  460SOL    HW2 1395   2.052   0.983   1.768
  461SOL     OW 1396   2.534   0.203   1.489
  461SOL    HW1 1397   2.624   0.187   1.449
  461SOL    HW2 1398   2.542   0.208   1.588
  462SOL     OW 1399   1.937   0.345   0.033
  462SOL    HW1 1400   1.845   0.317   0.004
  462SOL    HW2 1401   1.968   0.422  -0.023
  463SOL     OW 1402   2.475   0.842   1.431
  463SOL    HW1 1403   2.531   0.923   1.414
  463SOL    HW2 1404   2.534   0.762   1.434
  464SOL     OW 1405   2.252   1.741   1.560
  464SOL    HW1 1406   2.161   1.782   1.558
  464SOL    HW2 1407   2.245   1.647   1.592
  465SOL     OW 1408   2.456   0.745   0.652
  465SOL    HW1 1409   2.506   0.830   0.633
  465SOL    HW2 1410   2.368   0.747   0.604
  466SOL     OW 1411   2.083   1.314   1.844
  466SOL    HW1 1412   2.018   1.241   1.823
  466SOL    HW2 1413   2.087   1.328   1.942
  467SOL     OW 1414   1.941   1.240   0.653
  467SOL    HW1 1415   1.940   1.193   0.741
  467SOL    HW2 1416   2.023   1.212   0.602
  468SOL     OW 1417   2.534   1.391   1.624
  468SOL    HW1 1418   2.456   1.341   1.662
  468SOL    HW2 1419   2.531   1.486   1.655
  469SOL     OW 1420   2.290   0.424   0.520
  469SOL    HW1 1421   2.320   0.352   0.458
  469SOL    HW2 1422   2.251   0.384   0.603
  470SOL     OW 1423   2.179   0.547   1.280
  470SOL    HW1 1424   2.217   0.488   1.352
  470SOL    HW2 1425   2.219   0.521   1.192
  471SOL     OW 1426   1.901   1.077   0.300
  471SOL    HW1 1427   2.000   1.066   0.291
  471SOL    HW2 1428   1.861   0.991   0.332
  472SOL     OW 1429   2.092   0.628   1.975
  472SOL    HW1 1430   1.999   0.626   2.012
  472SOL    HW2 1431   2.093   0.589   1.883
  473SOL     OW 1432   2.093   1.713   2.345
  473SOL    HW1 1433   2.127   1.790   2.399
  473SOL    HW2 1434   2.137   1.713   2.255
  474SOL     OW 1435   2.092   1.434   2.400
  474SOL    HW1 1436   2.066   1.530   2.400
  474SOL    HW2 1437   2.021   1.380   2.445
  475SOL     OW 1438   1.984   0.643   2.425
  475SOL    HW1 1439   1.939   0.555   2.442
  475SOL    HW2 1440   1.983   0.697   2.509
  476SOL     OW 1441   1.889   1.596   1.979
  476SOL    HW1 1442   1.870   1.500   2.000
  476SOL    HW2 1443   1.856   1.654   2.054
  477SOL     OW 1444   2.460   0.729   2.132
  477SOL    HW1 1445   2.484   0.798   2.064
  477SOL    HW2 1446   2.382   0.762   2.186
  478SOL     OW 1447   1.938   0.811   2.651
  478SOL    HW1 1448   2.037   0.799   2.660
  478SOL    HW2 1449   1.914   0.906   2.672
  479SOL     OW 1450   2.727   0.348   2.057
  479SOL    HW1 1451   2.786   0.411   2.008
  479SOL    HW2 1452   2.746   0.254   2.028
  480SOL     OW 1453   2.213   1.801   2.715
  480SOL    HW1 1454   2.263   1.715   2.721
  480SOL    HW2 1455   2.278   1.878   2.712
  481SOL     OW 1456   2.183   0.943   2.104
  481SOL    HW1 1457   2.265   0.982   2.062
  481SOL    HW2 1458   2.156   0.861   2.055
  482SOL     OW 1459   2.326   1.743   2.185
  482SOL    HW1 1460   2.359   1.782   2.271
  482SOL    HW2 1461   2.402   1.736   2.120
  483SOL     OW 1462   2.244   0.700   2.342
  483SOL    HW1 1463   2.289   0.610   2.339
  483SOL    HW2 1464   2.150   0.689   2.375
  484SOL     OW 1465   2.476   0.122   1.979
  484SOL    HW1 1466   2.574   0.100   1.986
  484SOL    HW2 1467   2.445   0.105   1.886
  485SOL     OW 1468   2.401   0.064   2.374
  485SOL    HW1 1469   2.320   0.065   2.432
  485SOL    HW2 1470   2.404   0.147   2.319
  486SOL     OW 1471   2.159   0.035   2.033
  486SOL    HW1 1472   2.208   0.119   2.012
  486SOL    HW2 1473   2.221  -0.030   2.078
  487SOL     OW 1474   2.797   0.236   2.342
  487SOL    HW1 1475   2.749   0.277   2.264
  487SOL    HW2 1476   2.896   0.234   2.323
  488SOL     OW 1477   2.321   1.152   2.603
  488SOL    HW1 1478   2.250   1.125   2.668
  488SOL    HW2 1479   2.295   1.124   2.510
  489SOL     OW 1480   2.389   0.256   2.190
  489SOL    HW1 1481   2.416   0.197   2.115
  489SOL    HW2 1482   2.389   0.351   2.159
  490SOL     OW 1483   2.229   1.100   2.363
  490SOL    HW1 1484   2.222   1.183   2.307
  490SOL    HW2 1485   2.233   1.020   2.303
  491SOL     OW 1486   2.169   0.063   2.480
  491SOL    HW1 1487   2.158   0.157   2.513
  491SOL    HW2 1488   2.164   0.000   2.557
  492SOL     OW 1489   1.870   1.326   2.062
  492SOL    HW1 1490   1.777   1.347   2.031
  492SOL    HW2 1491   1.880   1.227   2.075
  493SOL     OW 1492   2.677   0.572   2.187
  493SOL    HW1 1493   2.684   0.483   2.141
  493SOL    HW2 1494   2.583   0.606   2.179
  494SOL     OW 1495   2.335   0.500   2.053
  494SOL    HW1 1496   2.396   0.580   2.057
  494SOL    HW2 1497   2.240   0.531   2.060
  495SOL     OW 1498   2.452   1.487   2.353
  495SOL    HW1 1499   2.494   1.429   2.283
  495SOL    HW2 1500   2.408   1.566   2.309
  496SOL     OW 1501   2.117   1.348   2.152
  496SOL    HW1 1502   2.021   1.349   2.125
  496SOL    HW2 1503   2.129   1.401   2.236
  497SOL     OW 1504   1.937   0.345   1.895
  497SOL    HW1 1505   1.845   0.317   1.866
  497SOL    HW2 1506   1.968   0.422   1.839
  498SOL     OW 1507   1.934   0.166   2.180
  498SOL    HW1 1508   1.917   0.249   2.126
  498SOL    HW2 1509   2.024   0.129   2.158
  499SOL     OW 1510   2.456   0.745   2.514
  499SOL    HW1 1511   2.506   0.830   2.495
  499SOL    HW2 1512   2.368   0.747   2.466
  500SOL     OW 1513   1.941   1.240   2.515
  500SOL    HW1 1514   1.940   1.193   2.603
  500SOL    HW2 1515   2.023   1.212   2.464
  501SOL     OW 1516   2.290   0.424   2.382
  501SOL    HW1 1517   2.320   0.352   2.320
  501SOL    HW2 1518   2.251   0.384   2.465
  502SOL     OW 1519   1.901   1.077   2.162
  502SOL    HW1 1520   2.000   1.066   2.153
  502SOL    HW2 1521   1.861   0.991   2.194
  503SOL     OW 1522   2.087   2.137   0.996
  503SOL    HW1 1523   2.122   2.120   1.088
  503SOL    HW2 1524   1.999   2.092   0.984
  504SOL     OW 1525   1.881   2.230   0.647
  504SOL    HW1 1526   1.799   2.273   0.686
  504SOL    HW2 1527   1.853   2.157   0.584
  505SOL     OW 1528   2.712   2.660   1.823
  505SOL    HW1 1529   2.708   2.736   1.888
  505SOL    HW2 1530   2.734   2.696   1.732
  506SOL     OW 1531   2.300   2.254   1.499
  506SOL    HW1 1532   2.382   2.198   1.508
  506SOL    HW2 1533   2.219   2.196   1.503
  507SOL     OW 1534   1.984   2.505   0.563
  507SOL    HW1 1535   1.939   2.417   0.580
  507SOL    HW2 1536   1.983   2.559   0.647
  508SOL     OW 1537   2.671   1.866   0.502
  508SOL    HW1 1538   2.711   1.957   0.493
  508SOL    HW2 1539   2.571   1.874   0.508
  509SOL     OW 1540   2.179   2.113   1.801
  509SOL    HW1 1541   2.250   2.184   1.807
  509SOL    HW2 1542   2.091   2.152   1.829
  510SOL     OW 1543   2.727   2.210   0.195
  510SOL    HW1 1544   2.786   2.273   0.146
  510SOL    HW2 1545   2.746   2.116   0.166
  511SOL     OW 1546   2.412   2.058   0.885
  511SOL    HW1 1547   2.407   2.053   0.985
  511SOL    HW2 1548   2.414   2.154   0.856
  512SOL     OW 1549   2.064   2.147   1.498
  512SOL    HW1 1550   1.984   2.207   1.485
  512SOL    HW2 1551   2.054   2.098   1.584
  513SOL     OW 1552   2.476   1.984   0.117
  513SOL    HW1 1553   2.574   1.962   0.124
  513SOL    HW2 1554   2.445   1.967   0.024
  514SOL     OW 1555   2.401   1.926   0.512
  514SOL    HW1 1556   2.320   1.927   0.570
  514SOL    HW2 1557   2.404   2.009   0.457
  515SOL     OW 1558   2.797   2.098   0.480
  515SOL    HW1 1559   2.749   2.139   0.402
  515SOL    HW2 1560   2.896   2.096   0.461
  516SOL     OW 1561   1.940   2.418   1.386
  516SOL    HW1 1562   2.032   2.417   1.345
  516SOL    HW2 1563   1.934   2.492   1.453
  517SOL     OW 1564   2.423   2.084   1.147
  517SOL    HW1 1565   2.461   2.000   1.184
  517SOL    HW2 1566   2.335   2.103   1.191
  518SOL     OW 1567   2.389   2.118   0.328
  518SOL    HW1 1568   2.416   2.059   0.253
  518SOL    HW2 1569   2.389   2.213   0.297
  519SOL     OW 1570   2.428   2.399   0.865
  519SOL    HW1 1571   2.440   2.465   0.791
  519SOL    HW2 1572   2.474   2.433   0.948
  520SOL     OW 1573   2.366   1.912   1.740
  520SOL    HW1 1574   2.324   1.855   1.670
  520SOL    HW2 1575   2.300   1.981   1.772
  521SOL     OW 1576   2.169   2.075   1.231
  521SOL    HW1 1577   2.146   2.112   1.321
  521SOL    HW2 1578   2.139   1.980   1.225
  522SOL     OW 1579   2.169   1.925   0.618
  522SOL    HW1 1580   2.158   2.019   0.651
  522SOL    HW2 1581   2.164   1.862   0.695
  523SOL     OW 1582   2.181   2.672   0.949
  523SOL    HW1 1583   2.274   2.708   0.954
  523SOL    HW2 1584   2.175   2.587   1.001
  524SOL     OW 1585   2.201   2.371   1.006
  524SOL    HW1 1586   2.149   2.288   0.989
  524SOL    HW2 1587   2.278   2.376   0.942
  525SOL     OW 1588   1.902   2.406   1.114
  525SOL    HW1 1589   1.987   2.373   1.073
  525SOL    HW2 1590   1.915   2.421   1.212
  526SOL     OW 1591   2.051   2.382   1.722
  526SOL    HW1 1592   2.110   2.342   1.652
  526SOL    HW2 1593   1.993   2.453   1.681
  527SOL     OW 1594   2.677   2.434   0.325
  527SOL    HW1 1595   2.684   2.345   0.279
  527SOL    HW2 1596   2.583   2.468   0.317
  528SOL     OW 1597   2.335   2.362   0.191
  528SOL    HW1 1598   2.396   2.442   0.195
  528SOL    HW2 1599   2.240   2.393   0.198
  529SOL     OW 1600   2.125   2.188   0.720
  529SOL    HW1 1601   2.046   2.239   0.686
  529SOL    HW2 1602   2.116   2.173   0.818
  530SOL     OW 1603   2.534   2.065   1.489
  530SOL    HW1 1604   2.624   2.049   1.449
  530SOL    HW2 1605   2.542   2.070   1.588
  531SOL     OW 1606   1.937   2.207   0.033
  531SOL    HW1 1607   1.845   2.179   0.004
  531SOL    HW2 1608   1.968   2.284  -0.023
  532SOL     OW 1609   2.290   2.286   0.520
  532SOL    HW1 1610   2.320   2.214   0.458
  532SOL    HW2 1611   2.251   2.246   0.603
  533SOL     OW 1612   2.179   2.409   1.280
  533SOL    HW1 1613   2.217   2.350   1.352
  533SOL    HW2 1614   2.219   2.383   1.192
  534SOL     OW 1615   1.984   2.505   2.425
  534SOL    HW1 1616   1.939   2.417   2.442
  534SOL    HW2 1617   1.983   2.559   2.509
  535SOL     OW 1618   2.671   1.866   2.364
  535SOL    HW1 1619   2.711   1.957   2.355
  535SOL    HW2 1620   2.571   1.874   2.370
  536SOL     OW 1621   2.727   2.210   2.057
  536SOL    HW1 1622   2.786   2.273   2.008
  536SOL    HW2 1623   2.746   2.116   2.028
  537SOL     OW 1624   2.476   1.984   1.979
  537SOL    HW1 1625   2.574   1.962   1.986
  537SOL    HW2 1626   2.445   1.967   1.886
  538SOL     OW 1627   2.401   1.926   2.374
  538SOL    HW1 1628   2.320   1.927   2.432
  538SOL    HW2 1629   2.404   2.009   2.319
  539SOL     OW 1630   2.159   1.897   2.033
  539SOL    HW1 1631   2.208   1.981   2.012
  539SOL    HW2 1632   2.221   1.832   2.078
  540SOL     OW 1633   2.797   2.098   2.342
  540SOL    HW1 1634   2.749   2.139   2.264
  540SOL    HW2 1635   2.896   2.096   2.323
  541SOL     OW 1636   2.389   2.118   2.190
  541SOL    HW1 1637   2.416   2.059   2.115
  541SOL    HW2 1638   2.389   2.213   2.159
  542SOL     OW 1639   2.169   1.925   2.480
  542SOL    HW1 1640   2.158   2.019   2.513
  542SOL    HW2 1641   2.164   1.862   2.557
  543SOL     OW 1642   2.677   2.434   2.187
  543SOL    HW1 1643   2.684   2.345   2.141
  543SOL    HW2 1644   2.583   2.468   2.179
  544SOL     OW 1645   2.335   2.362   2.053
  544SOL    HW1 1646   2.396   2.442   2.057
  544SOL    HW2 1647   2.240   2.393   2.060
  545SOL     OW 1648   1.937   2.207   1.895
  545SOL    HW1 1649   1.845   2.179   1.866
  545SOL    HW2 1650   1.968   2.284   1.839
  546SOL     OW 1651   1.934   2.028   2.180
  546SOL    HW1 1652   1.917   2.111   2.126
  546SOL    HW2 1653   2.024   1.991   2.158
  547SOL     OW 1654   2.290   2.286   2.382
  547SOL    HW1 1655   2.320   2.214   2.320
  547SOL    HW2 1656   2.251   2.246   2.465
   2.56071   2.56071   2.56071
