; mobley_6896128_GMX.itp created by acpype (v: 2023.10.27) on Thu May 14 13:47:13 2026

[ atomtypes ]
;name   bond_type     mass     charge   ptype   sigma         epsilon       Amb
 c3       c3          0.00000  0.00000   A     3.39771e-01   4.51035e-01 ; 1.91  0.1078
 hc       hc          0.00000  0.00000   A     2.60018e-01   8.70272e-02 ; 1.46  0.0208

[ moleculetype ]
;name            nrexcl
 mobley_6896128   3

[ atoms ]
;   nr  type  resi  res  atom  cgnr     charge      mass       ; qtot   bond_type
     1   c3     1   MOL    C1    1    -0.093601     12.01000 ; qtot -0.094
     2   c3     1   MOL    C2    2    -0.093601     12.01000 ; qtot -0.187
     3   c3     1   MOL    C3    3    -0.089100     12.01000 ; qtot -0.276
     4   c3     1   MOL    C4    4    -0.080400     12.01000 ; qtot -0.357
     5   c3     1   MOL    C5    5    -0.077400     12.01000 ; qtot -0.434
     6   c3     1   MOL    C6    6    -0.079400     12.01000 ; qtot -0.514
     7   c3     1   MOL    C7    7    -0.076400     12.01000 ; qtot -0.590
     8   c3     1   MOL    C8    8    -0.065700     12.01000 ; qtot -0.656
     9   hc     1   MOL    H1    9     0.032367      1.00800 ; qtot -0.623
    10   hc     1   MOL    H2   10     0.032367      1.00800 ; qtot -0.591
    11   hc     1   MOL    H3   11     0.032367      1.00800 ; qtot -0.559
    12   hc     1   MOL    H4   12     0.032700      1.00800 ; qtot -0.526
    13   hc     1   MOL    H5   13     0.032700      1.00800 ; qtot -0.493
    14   hc     1   MOL    H6   14     0.032700      1.00800 ; qtot -0.460
    15   hc     1   MOL    H7   15     0.033367      1.00800 ; qtot -0.427
    16   hc     1   MOL    H8   16     0.033367      1.00800 ; qtot -0.394
    17   hc     1   MOL    H9   17     0.033367      1.00800 ; qtot -0.360
    18   hc     1   MOL   H10   18     0.038200      1.00800 ; qtot -0.322
    19   hc     1   MOL   H11   19     0.038200      1.00800 ; qtot -0.284
    20   hc     1   MOL   H12   20     0.038700      1.00800 ; qtot -0.245
    21   hc     1   MOL   H13   21     0.038700      1.00800 ; qtot -0.207
    22   hc     1   MOL   H14   22     0.040200      1.00800 ; qtot -0.166
    23   hc     1   MOL   H15   23     0.040200      1.00800 ; qtot -0.126
    24   hc     1   MOL   H16   24     0.039200      1.00800 ; qtot -0.087
    25   hc     1   MOL   H17   25     0.039200      1.00800 ; qtot -0.048
    26   hc     1   MOL   H18   26     0.047700      1.00800 ; qtot -0.000

[ bonds ]
;   ai     aj funct   r             k
     1      4   1    1.5354e-01    1.9154e+05 ;     C1 - C4    
     1      9   1    1.0962e-01    2.8891e+05 ;     C1 - H1    
     1     10   1    1.0962e-01    2.8891e+05 ;     C1 - H2    
     1     11   1    1.0962e-01    2.8891e+05 ;     C1 - H3    
     2      5   1    1.5354e-01    1.9154e+05 ;     C2 - C5    
     2     12   1    1.0962e-01    2.8891e+05 ;     C2 - H4    
     2     13   1    1.0962e-01    2.8891e+05 ;     C2 - H5    
     2     14   1    1.0962e-01    2.8891e+05 ;     C2 - H6    
     3      8   1    1.5354e-01    1.9154e+05 ;     C3 - C8    
     3     15   1    1.0962e-01    2.8891e+05 ;     C3 - H7    
     3     16   1    1.0962e-01    2.8891e+05 ;     C3 - H8    
     3     17   1    1.0962e-01    2.8891e+05 ;     C3 - H9    
     4      6   1    1.5354e-01    1.9154e+05 ;     C4 - C6    
     4     18   1    1.0962e-01    2.8891e+05 ;     C4 - H10   
     4     19   1    1.0962e-01    2.8891e+05 ;     C4 - H11   
     5      8   1    1.5354e-01    1.9154e+05 ;     C5 - C8    
     5     20   1    1.0962e-01    2.8891e+05 ;     C5 - H12   
     5     21   1    1.0962e-01    2.8891e+05 ;     C5 - H13   
     6      7   1    1.5354e-01    1.9154e+05 ;     C6 - C7    
     6     22   1    1.0962e-01    2.8891e+05 ;     C6 - H14   
     6     23   1    1.0962e-01    2.8891e+05 ;     C6 - H15   
     7      8   1    1.5354e-01    1.9154e+05 ;     C7 - C8    
     7     24   1    1.0962e-01    2.8891e+05 ;     C7 - H16   
     7     25   1    1.0962e-01    2.8891e+05 ;     C7 - H17   
     8     26   1    1.0962e-01    2.8891e+05 ;     C8 - H18   

[ pairs ]
;   ai     aj    funct
     1      7      1 ;     C1 - C7    
     1     22      1 ;     C1 - H14   
     1     23      1 ;     C1 - H15   
     2      3      1 ;     C2 - C3    
     2      7      1 ;     C2 - C7    
     2     26      1 ;     C2 - H18   
     3      6      1 ;     C3 - C6    
     3     20      1 ;     C3 - H12   
     3     21      1 ;     C3 - H13   
     3     24      1 ;     C3 - H16   
     3     25      1 ;     C3 - H17   
     4      8      1 ;     C4 - C8    
     4     24      1 ;     C4 - H16   
     4     25      1 ;     C4 - H17   
     5      6      1 ;     C5 - C6    
     5     15      1 ;     C5 - H7    
     5     16      1 ;     C5 - H8    
     5     17      1 ;     C5 - H9    
     5     24      1 ;     C5 - H16   
     5     25      1 ;     C5 - H17   
     6     26      1 ;     C6 - H18   
     7     15      1 ;     C7 - H7    
     7     16      1 ;     C7 - H8    
     7     17      1 ;     C7 - H9    
     7     18      1 ;     C7 - H10   
     7     19      1 ;     C7 - H11   
     7     20      1 ;     C7 - H12   
     7     21      1 ;     C7 - H13   
     8     12      1 ;     C8 - H4    
     8     13      1 ;     C8 - H5    
     8     14      1 ;     C8 - H6    
     8     22      1 ;     C8 - H14   
     8     23      1 ;     C8 - H15   
     9      6      1 ;     H1 - C6    
     9     18      1 ;     H1 - H10   
     9     19      1 ;     H1 - H11   
    10      6      1 ;     H2 - C6    
    10     18      1 ;     H2 - H10   
    10     19      1 ;     H2 - H11   
    11      6      1 ;     H3 - C6    
    11     18      1 ;     H3 - H10   
    11     19      1 ;     H3 - H11   
    12     20      1 ;     H4 - H12   
    12     21      1 ;     H4 - H13   
    13     20      1 ;     H5 - H12   
    13     21      1 ;     H5 - H13   
    14     20      1 ;     H6 - H12   
    14     21      1 ;     H6 - H13   
    15     26      1 ;     H7 - H18   
    16     26      1 ;     H8 - H18   
    17     26      1 ;     H9 - H18   
    18     22      1 ;    H10 - H14   
    18     23      1 ;    H10 - H15   
    19     22      1 ;    H11 - H14   
    19     23      1 ;    H11 - H15   
    20     26      1 ;    H12 - H18   
    21     26      1 ;    H13 - H18   
    22     24      1 ;    H14 - H16   
    22     25      1 ;    H14 - H17   
    23     24      1 ;    H15 - H16   
    23     25      1 ;    H15 - H17   
    24     26      1 ;    H16 - H18   
    25     26      1 ;    H17 - H18   

[ angles ]
;   ai     aj     ak    funct   theta         cth
     1      4      6      1    1.1263e+02    5.0099e+02 ;     C1 - C4     - C6    
     1      4     18      1    1.0968e+02    3.6208e+02 ;     C1 - C4     - H10   
     1      4     19      1    1.0968e+02    3.6208e+02 ;     C1 - C4     - H11   
     2      5      8      1    1.1263e+02    5.0099e+02 ;     C2 - C5     - C8    
     2      5     20      1    1.0968e+02    3.6208e+02 ;     C2 - C5     - H12   
     2      5     21      1    1.0968e+02    3.6208e+02 ;     C2 - C5     - H13   
     3      8      5      1    1.1263e+02    5.0099e+02 ;     C3 - C8     - C5    
     3      8      7      1    1.1263e+02    5.0099e+02 ;     C3 - C8     - C7    
     3      8     26      1    1.0968e+02    3.6208e+02 ;     C3 - C8     - H18   
     4      1      9      1    1.0968e+02    3.6208e+02 ;     C4 - C1     - H1    
     4      1     10      1    1.0968e+02    3.6208e+02 ;     C4 - C1     - H2    
     4      1     11      1    1.0968e+02    3.6208e+02 ;     C4 - C1     - H3    
     4      6      7      1    1.1263e+02    5.0099e+02 ;     C4 - C6     - C7    
     4      6     22      1    1.0968e+02    3.6208e+02 ;     C4 - C6     - H14   
     4      6     23      1    1.0968e+02    3.6208e+02 ;     C4 - C6     - H15   
     5      2     12      1    1.0968e+02    3.6208e+02 ;     C5 - C2     - H4    
     5      2     13      1    1.0968e+02    3.6208e+02 ;     C5 - C2     - H5    
     5      2     14      1    1.0968e+02    3.6208e+02 ;     C5 - C2     - H6    
     5      8      7      1    1.1263e+02    5.0099e+02 ;     C5 - C8     - C7    
     5      8     26      1    1.0968e+02    3.6208e+02 ;     C5 - C8     - H18   
     6      4     18      1    1.0968e+02    3.6208e+02 ;     C6 - C4     - H10   
     6      4     19      1    1.0968e+02    3.6208e+02 ;     C6 - C4     - H11   
     6      7      8      1    1.1263e+02    5.0099e+02 ;     C6 - C7     - C8    
     6      7     24      1    1.0968e+02    3.6208e+02 ;     C6 - C7     - H16   
     6      7     25      1    1.0968e+02    3.6208e+02 ;     C6 - C7     - H17   
     7      6     22      1    1.0968e+02    3.6208e+02 ;     C7 - C6     - H14   
     7      6     23      1    1.0968e+02    3.6208e+02 ;     C7 - C6     - H15   
     7      8     26      1    1.0968e+02    3.6208e+02 ;     C7 - C8     - H18   
     8      3     15      1    1.0968e+02    3.6208e+02 ;     C8 - C3     - H7    
     8      3     16      1    1.0968e+02    3.6208e+02 ;     C8 - C3     - H8    
     8      3     17      1    1.0968e+02    3.6208e+02 ;     C8 - C3     - H9    
     8      5     20      1    1.0968e+02    3.6208e+02 ;     C8 - C5     - H12   
     8      5     21      1    1.0968e+02    3.6208e+02 ;     C8 - C5     - H13   
     8      7     24      1    1.0968e+02    3.6208e+02 ;     C8 - C7     - H16   
     8      7     25      1    1.0968e+02    3.6208e+02 ;     C8 - C7     - H17   
     9      1     10      1    1.0773e+02    2.9957e+02 ;     H1 - C1     - H2    
     9      1     11      1    1.0773e+02    2.9957e+02 ;     H1 - C1     - H3    
    10      1     11      1    1.0773e+02    2.9957e+02 ;     H2 - C1     - H3    
    12      2     13      1    1.0773e+02    2.9957e+02 ;     H4 - C2     - H5    
    12      2     14      1    1.0773e+02    2.9957e+02 ;     H4 - C2     - H6    
    13      2     14      1    1.0773e+02    2.9957e+02 ;     H5 - C2     - H6    
    15      3     16      1    1.0773e+02    2.9957e+02 ;     H7 - C3     - H8    
    15      3     17      1    1.0773e+02    2.9957e+02 ;     H7 - C3     - H9    
    16      3     17      1    1.0773e+02    2.9957e+02 ;     H8 - C3     - H9    
    18      4     19      1    1.0773e+02    2.9957e+02 ;    H10 - C4     - H11   
    20      5     21      1    1.0773e+02    2.9957e+02 ;    H12 - C5     - H13   
    22      6     23      1    1.0773e+02    2.9957e+02 ;    H14 - C6     - H15   
    24      7     25      1    1.0773e+02    2.9957e+02 ;    H16 - C7     - H17   

[ dihedrals ] ; propers
; for gromacs 4.5 or higher, using funct 9
;    i      j      k      l   func   phase     kd      pn
     1      4      6      7      9     0.00   2.17568   3 ;     C1-    C4-    C6-    C7
     1      4      6     22      9     0.00   0.54392   3 ;     C1-    C4-    C6-   H14
     1      4      6     23      9     0.00   0.54392   3 ;     C1-    C4-    C6-   H15
     2      5      8      3      9     0.00   2.17568   3 ;     C2-    C5-    C8-    C3
     2      5      8      7      9     0.00   2.17568   3 ;     C2-    C5-    C8-    C7
     2      5      8     26      9     0.00   0.54392   3 ;     C2-    C5-    C8-   H18
     3      8      5     20      9     0.00   0.54392   3 ;     C3-    C8-    C5-   H12
     3      8      5     21      9     0.00   0.54392   3 ;     C3-    C8-    C5-   H13
     3      8      7      6      9     0.00   2.17568   3 ;     C3-    C8-    C7-    C6
     3      8      7     24      9     0.00   0.54392   3 ;     C3-    C8-    C7-   H16
     3      8      7     25      9     0.00   0.54392   3 ;     C3-    C8-    C7-   H17
     4      6      7      8      9     0.00   2.17568   3 ;     C4-    C6-    C7-    C8
     4      6      7     24      9     0.00   0.54392   3 ;     C4-    C6-    C7-   H16
     4      6      7     25      9     0.00   0.54392   3 ;     C4-    C6-    C7-   H17
     5      8      3     15      9     0.00   0.54392   3 ;     C5-    C8-    C3-    H7
     5      8      3     16      9     0.00   0.54392   3 ;     C5-    C8-    C3-    H8
     5      8      3     17      9     0.00   0.54392   3 ;     C5-    C8-    C3-    H9
     5      8      7      6      9     0.00   2.17568   3 ;     C5-    C8-    C7-    C6
     5      8      7     24      9     0.00   0.54392   3 ;     C5-    C8-    C7-   H16
     5      8      7     25      9     0.00   0.54392   3 ;     C5-    C8-    C7-   H17
     6      7      8     26      9     0.00   0.54392   3 ;     C6-    C7-    C8-   H18
     7      6      4     18      9     0.00   0.54392   3 ;     C7-    C6-    C4-   H10
     7      6      4     19      9     0.00   0.54392   3 ;     C7-    C6-    C4-   H11
     7      8      3     15      9     0.00   0.54392   3 ;     C7-    C8-    C3-    H7
     7      8      3     16      9     0.00   0.54392   3 ;     C7-    C8-    C3-    H8
     7      8      3     17      9     0.00   0.54392   3 ;     C7-    C8-    C3-    H9
     7      8      5     20      9     0.00   0.54392   3 ;     C7-    C8-    C5-   H12
     7      8      5     21      9     0.00   0.54392   3 ;     C7-    C8-    C5-   H13
     8      5      2     12      9     0.00   0.54392   3 ;     C8-    C5-    C2-    H4
     8      5      2     13      9     0.00   0.54392   3 ;     C8-    C5-    C2-    H5
     8      5      2     14      9     0.00   0.54392   3 ;     C8-    C5-    C2-    H6
     8      7      6     22      9     0.00   0.54392   3 ;     C8-    C7-    C6-   H14
     8      7      6     23      9     0.00   0.54392   3 ;     C8-    C7-    C6-   H15
     9      1      4      6      9     0.00   0.54392   3 ;     H1-    C1-    C4-    C6
     9      1      4     18      9     0.00   0.50208   3 ;     H1-    C1-    C4-   H10
     9      1      4     19      9     0.00   0.50208   3 ;     H1-    C1-    C4-   H11
    10      1      4      6      9     0.00   0.54392   3 ;     H2-    C1-    C4-    C6
    10      1      4     18      9     0.00   0.50208   3 ;     H2-    C1-    C4-   H10
    10      1      4     19      9     0.00   0.50208   3 ;     H2-    C1-    C4-   H11
    11      1      4      6      9     0.00   0.54392   3 ;     H3-    C1-    C4-    C6
    11      1      4     18      9     0.00   0.50208   3 ;     H3-    C1-    C4-   H10
    11      1      4     19      9     0.00   0.50208   3 ;     H3-    C1-    C4-   H11
    12      2      5     20      9     0.00   0.50208   3 ;     H4-    C2-    C5-   H12
    12      2      5     21      9     0.00   0.50208   3 ;     H4-    C2-    C5-   H13
    13      2      5     20      9     0.00   0.50208   3 ;     H5-    C2-    C5-   H12
    13      2      5     21      9     0.00   0.50208   3 ;     H5-    C2-    C5-   H13
    14      2      5     20      9     0.00   0.50208   3 ;     H6-    C2-    C5-   H12
    14      2      5     21      9     0.00   0.50208   3 ;     H6-    C2-    C5-   H13
    15      3      8     26      9     0.00   0.50208   3 ;     H7-    C3-    C8-   H18
    16      3      8     26      9     0.00   0.50208   3 ;     H8-    C3-    C8-   H18
    17      3      8     26      9     0.00   0.50208   3 ;     H9-    C3-    C8-   H18
    18      4      6     22      9     0.00   0.50208   3 ;    H10-    C4-    C6-   H14
    18      4      6     23      9     0.00   0.50208   3 ;    H10-    C4-    C6-   H15
    19      4      6     22      9     0.00   0.50208   3 ;    H11-    C4-    C6-   H14
    19      4      6     23      9     0.00   0.50208   3 ;    H11-    C4-    C6-   H15
    20      5      8     26      9     0.00   0.50208   3 ;    H12-    C5-    C8-   H18
    21      5      8     26      9     0.00   0.50208   3 ;    H13-    C5-    C8-   H18
    22      6      7     24      9     0.00   0.50208   3 ;    H14-    C6-    C7-   H16
    22      6      7     25      9     0.00   0.50208   3 ;    H14-    C6-    C7-   H17
    23      6      7     24      9     0.00   0.50208   3 ;    H15-    C6-    C7-   H16
    23      6      7     25      9     0.00   0.50208   3 ;    H15-    C6-    C7-   H17
    24      7      8     26      9     0.00   0.50208   3 ;    H16-    C7-    C8-   H18
    25      7      8     26      9     0.00   0.50208   3 ;    H17-    C7-    C8-   H18
