mobley_637522_GMX.gro created by acpype (v: 2023.10.27) on Thu May 14 13:50:31 2026
 2607
    1MOL     C1    1   1.723   1.205   1.540
    1MOL     C2    2   1.604   1.134   1.547
    1MOL     C3    3   1.349   1.819   1.405
    1MOL     C4    4   1.229   1.748   1.412
    1MOL     C5    5   1.721   1.342   1.514
    1MOL     C6    6   1.482   1.200   1.528
    1MOL     C7    7   1.470   1.753   1.424
    1MOL     C8    8   1.231   1.611   1.438
    1MOL     C9    9   1.596   1.548   1.469
    1MOL    C10   10   1.357   1.405   1.483
    1MOL    C11   11   1.599   1.410   1.495
    1MOL    C12   12   1.478   1.337   1.502
    1MOL    C13   13   1.474   1.615   1.450
    1MOL    C14   14   1.353   1.543   1.457
    1MOL     H1   15   1.818   1.154   1.554
    1MOL     H2   16   1.605   1.027   1.567
    1MOL     H3   17   1.347   1.926   1.385
    1MOL     H4   18   1.135   1.799   1.398
    1MOL     H5   19   1.816   1.396   1.509
    1MOL     H6   20   1.390   1.142   1.534
    1MOL     H7   21   1.562   1.811   1.418
    1MOL     H8   22   1.137   1.557   1.443
    1MOL     H9   23   1.689   1.603   1.463
    1MOL    H10   24   1.263   1.349   1.489
    2SOL     OW   25   0.230   0.628   0.113
    2SOL    HW1   26   0.137   0.626   0.150
    2SOL    HW2   27   0.231   0.589   0.021
    3SOL     OW   28   0.225   0.275   0.996
    3SOL    HW1   29   0.260   0.258   1.088
    3SOL    HW2   30   0.137   0.230   0.984
    4SOL     OW   31   0.019   0.368   0.647
    4SOL    HW1   32  -0.063   0.411   0.686
    4SOL    HW2   33  -0.009   0.295   0.584
    5SOL     OW   34   0.569   1.275   1.165
    5SOL    HW1   35   0.476   1.268   1.128
    5SOL    HW2   36   0.580   1.364   1.209
    6SOL     OW   37   1.555   1.511   0.703
    6SOL    HW1   38   1.498   1.495   0.784
    6SOL    HW2   39   1.496   1.521   0.623
    7SOL     OW   40   1.135   0.703   0.717
    7SOL    HW1   41   1.192   0.781   0.692
    7SOL    HW2   42   1.075   0.729   0.793
    8SOL     OW   43   1.755   0.607   0.231
    8SOL    HW1   44   1.743   0.594   0.132
    8SOL    HW2   45   1.725   0.526   0.280
    9SOL     OW   46   0.768   1.144   1.023
    9SOL    HW1   47   0.690   1.161   1.083
    9SOL    HW2   48   0.802   1.231   0.987
   10SOL     OW   49   0.850   0.798   1.823
   10SOL    HW1   50   0.846   0.874   1.888
   10SOL    HW2   51   0.872   0.834   1.732
   11SOL     OW   52   0.685   1.012   0.665
   11SOL    HW1   53   0.754   0.996   0.735
   11SOL    HW2   54   0.612   1.069   0.703
   12SOL     OW   55   0.686   1.161   1.803
   12SOL    HW1   56   0.746   1.240   1.817
   12SOL    HW2   57   0.600   1.192   1.762
   13SOL     OW   58   0.335   1.435   1.061
   13SOL    HW1   59   0.257   1.404   1.008
   13SOL    HW2   60   0.393   1.493   1.004
   14SOL     OW   61   0.438   0.392   1.499
   14SOL    HW1   62   0.520   0.336   1.508
   14SOL    HW2   63   0.357   0.334   1.503
   15SOL     OW   64   1.603   0.447   0.737
   15SOL    HW1   65   1.529   0.493   0.687
   15SOL    HW2   66   1.654   0.515   0.790
   16SOL     OW   67   0.231   1.713   0.483
   16SOL    HW1   68   0.265   1.790   0.537
   16SOL    HW2   69   0.275   1.713   0.393
   17SOL     OW   70   1.127   1.341   1.690
   17SOL    HW1   71   1.174   1.341   1.778
   17SOL    HW2   72   1.079   1.254   1.679
   18SOL     OW   73   0.230   1.434   0.538
   18SOL    HW1   74   0.204   1.530   0.538
   18SOL    HW2   75   0.159   1.380   0.583
   19SOL     OW   76   0.240   1.091   0.886
   19SOL    HW1   77   0.254   1.007   0.938
   19SOL    HW2   78   0.185   1.155   0.941
   20SOL     OW   79   0.620   1.786   1.439
   20SOL    HW1   80   0.528   1.769   1.474
   20SOL    HW2   81   0.648   1.878   1.465
   21SOL     OW   82   0.606   0.964   0.123
   21SOL    HW1   83   0.613   1.048   0.069
   21SOL    HW2   84   0.652   0.977   0.211
   22SOL     OW   85   1.594   0.114   1.480
   22SOL    HW1   86   1.576   0.181   1.408
   22SOL    HW2   87   1.591   0.160   1.569
   23SOL     OW   88   0.122   0.643   0.563
   23SOL    HW1   89   0.077   0.555   0.580
   23SOL    HW2   90   0.121   0.697   0.647
   24SOL     OW   91   1.842   1.767   0.359
   24SOL    HW1   92   1.896   1.738   0.439
   24SOL    HW2   93   1.872   1.857   0.330
   25SOL     OW   94   0.027   1.596   0.117
   25SOL    HW1   95   0.008   1.500   0.138
   25SOL    HW2   96  -0.006   1.654   0.192
   26SOL     OW   97   1.689   0.922   0.612
   26SOL    HW1   98   1.784   0.893   0.620
   26SOL    HW2   99   1.681   0.987   0.537
   27SOL     OW  100   1.641   1.108   0.432
   27SOL    HW1  101   1.727   1.110   0.380
   27SOL    HW2  102   1.655   1.155   0.520
   28SOL     OW  103   0.113   0.737   1.597
   28SOL    HW1  104   0.201   0.724   1.642
   28SOL    HW2  105   0.100   0.834   1.575
   29SOL     OW  106   0.613   1.365   0.726
   29SOL    HW1  107   0.564   1.278   0.735
   29SOL    HW2  108   0.590   1.408   0.639
   30SOL     OW  109   0.809   0.004   0.502
   30SOL    HW1  110   0.849   0.095   0.493
   30SOL    HW2  111   0.709   0.012   0.508
   31SOL     OW  112   0.197   0.976   1.264
   31SOL    HW1  113   0.286   0.931   1.250
   31SOL    HW2  114   0.124   0.911   1.245
   32SOL     OW  115   1.525   0.999   0.190
   32SOL    HW1  116   1.462   0.923   0.203
   32SOL    HW2  117   1.573   1.017   0.276
   33SOL     OW  118   1.187   1.792   1.616
   33SOL    HW1  119   1.211   1.852   1.540
   33SOL    HW2  120   1.194   1.697   1.586
   34SOL     OW  121   0.317   0.251   1.801
   34SOL    HW1  122   0.388   0.322   1.807
   34SOL    HW2  123   0.229   0.290   1.829
   35SOL     OW  124   1.466   1.417   0.953
   35SOL    HW1  125   1.407   1.423   1.033
   35SOL    HW2  126   1.451   1.329   0.907
   36SOL     OW  127   1.667   1.714   0.572
   36SOL    HW1  128   1.626   1.691   0.484
   36SOL    HW2  129   1.649   1.640   0.637
   37SOL     OW  130   0.598   0.729   0.270
   37SOL    HW1  131   0.622   0.798   0.202
   37SOL    HW2  132   0.520   0.762   0.324
   38SOL     OW  133   1.281   0.345   0.944
   38SOL    HW1  134   1.195   0.295   0.931
   38SOL    HW2  135   1.343   0.291   1.000
   39SOL     OW  136   1.576   1.662   0.307
   39SOL    HW1  137   1.665   1.708   0.310
   39SOL    HW2  138   1.555   1.638   0.212
   40SOL     OW  139   0.807   0.605   1.465
   40SOL    HW1  140   0.760   0.602   1.554
   40SOL    HW2  141   0.756   0.550   1.399
   41SOL     OW  142   1.394   0.469   1.674
   41SOL    HW1  143   1.374   0.512   1.762
   41SOL    HW2  144   1.472   0.407   1.683
   42SOL     OW  145   0.973   0.890   1.572
   42SOL    HW1  146   1.019   0.806   1.543
   42SOL    HW2  147   0.917   0.924   1.497
   43SOL     OW  148   0.991   0.410   1.242
   43SOL    HW1  149   0.914   0.444   1.296
   43SOL    HW2  150   0.957   0.359   1.163
   44SOL     OW  151   1.041   0.701   0.429
   44SOL    HW1  152   1.067   0.697   0.525
   44SOL    HW2  153   0.956   0.650   0.415
   45SOL     OW  154   0.076   0.811   0.789
   45SOL    HW1  155   0.175   0.799   0.798
   45SOL    HW2  156   0.052   0.906   0.810
   46SOL     OW  157   0.130   1.821   1.571
   46SOL    HW1  158   0.120   1.806   1.670
   46SOL    HW2  159   0.044   1.857   1.535
   47SOL     OW  160   0.865   0.348   0.195
   47SOL    HW1  161   0.924   0.411   0.146
   47SOL    HW2  162   0.884   0.254   0.166
   48SOL     OW  163   1.719   0.585   1.831
   48SOL    HW1  164   1.693   0.674   1.795
   48SOL    HW2  165   1.717   0.517   1.758
   49SOL     OW  166   1.362   1.144   0.545
   49SOL    HW1  167   1.445   1.115   0.497
   49SOL    HW2  168   1.313   1.211   0.489
   50SOL     OW  169   0.550   0.196   0.885
   50SOL    HW1  170   0.545   0.191   0.985
   50SOL    HW2  171   0.552   0.292   0.856
   51SOL     OW  172   1.008   1.456   0.477
   51SOL    HW1  173   0.962   1.528   0.425
   51SOL    HW2  174   1.004   1.476   0.575
   52SOL     OW  175   0.351   1.801   0.853
   52SOL    HW1  176   0.401   1.715   0.859
   52SOL    HW2  177   0.416   1.878   0.850
   53SOL     OW  178   1.795   1.066   0.873
   53SOL    HW1  179   1.733   1.051   0.797
   53SOL    HW2  180   1.743   1.077   0.958
   54SOL     OW  181   0.321   0.943   0.242
   54SOL    HW1  182   0.403   0.982   0.200
   54SOL    HW2  183   0.294   0.861   0.193
   55SOL     OW  184   1.458   0.735   0.728
   55SOL    HW1  185   1.453   0.670   0.803
   55SOL    HW2  186   1.538   0.794   0.741
   56SOL     OW  187   0.461   1.266   1.727
   56SOL    HW1  188   0.411   1.267   1.641
   56SOL    HW2  189   0.398   1.248   1.803
   57SOL     OW  190   1.111   1.776   0.237
   57SOL    HW1  191   1.051   1.714   0.287
   57SOL    HW2  192   1.142   1.732   0.152
   58SOL     OW  193   0.202   0.285   1.498
   58SOL    HW1  194   0.122   0.345   1.485
   58SOL    HW2  195   0.192   0.236   1.584
   59SOL     OW  196   1.632   1.377   0.081
   59SOL    HW1  197   1.600   1.471   0.071
   59SOL    HW2  198   1.556   1.314   0.069
   60SOL     OW  199   0.464   1.743   0.323
   60SOL    HW1  200   0.497   1.782   0.409
   60SOL    HW2  201   0.540   1.736   0.258
   61SOL     OW  202   1.400   0.107   0.426
   61SOL    HW1  203   1.376   0.070   0.336
   61SOL    HW2  204   1.499   0.123   0.430
   62SOL     OW  205   0.249   1.785   1.241
   62SOL    HW1  206   0.306   1.720   1.291
   62SOL    HW2  207   0.233   1.752   1.148
   63SOL     OW  208   0.940   1.698   0.904
   63SOL    HW1  209   1.020   1.641   0.925
   63SOL    HW2  210   0.891   1.658   0.827
   64SOL     OW  211   0.382   0.700   0.480
   64SOL    HW1  212   0.427   0.610   0.477
   64SOL    HW2  213   0.288   0.689   0.513
   65SOL     OW  214   1.547   0.222   1.729
   65SOL    HW1  215   1.542   0.259   1.821
   65SOL    HW2  216   1.475   0.153   1.717
   66SOL     OW  217   0.614   0.122   0.117
   66SOL    HW1  218   0.712   0.100   0.124
   66SOL    HW2  219   0.583   0.105   0.024
   67SOL     OW  220   0.781   0.264   1.749
   67SOL    HW1  221   0.848   0.203   1.792
   67SOL    HW2  222   0.708   0.283   1.814
   68SOL     OW  223   0.888   1.514   1.195
   68SOL    HW1  224   0.865   1.489   1.101
   68SOL    HW2  225   0.949   1.445   1.234
   69SOL     OW  226   1.351   0.590   1.433
   69SOL    HW1  227   1.379   0.547   1.518
   69SOL    HW2  228   1.376   0.686   1.434
   70SOL     OW  229   0.803   1.402   0.924
   70SOL    HW1  230   0.893   1.416   0.882
   70SOL    HW2  231   0.732   1.404   0.853
   71SOL     OW  232   0.922   0.503   0.899
   71SOL    HW1  233   0.897   0.494   0.803
   71SOL    HW2  234   0.970   0.421   0.930
   72SOL     OW  235   0.539   0.064   0.512
   72SOL    HW1  236   0.458   0.065   0.570
   72SOL    HW2  237   0.542   0.147   0.457
   73SOL     OW  238   1.434   1.188   0.041
   73SOL    HW1  239   1.466   1.112   0.098
   73SOL    HW2  240   1.342   1.215   0.071
   74SOL     OW  241   0.297   0.035   0.171
   74SOL    HW1  242   0.346   0.119   0.150
   74SOL    HW2  243   0.359  -0.030   0.216
   75SOL     OW  244   0.935   0.236   0.480
   75SOL    HW1  245   0.887   0.277   0.402
   75SOL    HW2  246   1.034   0.234   0.461
   76SOL     OW  247   1.076   0.683   1.464
   76SOL    HW1  248   0.996   0.622   1.467
   76SOL    HW2  249   1.157   0.630   1.440
   77SOL     OW  250   1.227   1.570   0.793
   77SOL    HW1  251   1.248   1.644   0.728
   77SOL    HW2  252   1.295   1.570   0.866
   78SOL     OW  253   0.459   1.152   0.741
   78SOL    HW1  254   0.388   1.125   0.806
   78SOL    HW2  255   0.433   1.124   0.648
   79SOL     OW  256   1.271   1.797   0.591
   79SOL    HW1  257   1.315   1.861   0.527
   79SOL    HW2  258   1.221   1.849   0.661
   80SOL     OW  259   1.032   0.549   0.016
   80SOL    HW1  260   0.991   0.631  -0.023
   80SOL    HW2  261   1.096   0.575   0.089
   81SOL     OW  262   0.078   0.556   1.386
   81SOL    HW1  263   0.170   0.555   1.345
   81SOL    HW2  264   0.072   0.630   1.453
   82SOL     OW  265   0.561   0.222   1.147
   82SOL    HW1  266   0.599   0.138   1.184
   82SOL    HW2  267   0.473   0.241   1.191
   83SOL     OW  268   0.866   0.454   0.642
   83SOL    HW1  269   0.834   0.526   0.580
   83SOL    HW2  270   0.890   0.373   0.589
   84SOL     OW  271   1.017   0.039   0.753
   84SOL    HW1  272   0.945   0.044   0.684
   84SOL    HW2  273   0.993  -0.030   0.822
   85SOL     OW  274   1.429   1.173   0.867
   85SOL    HW1  275   1.374   1.089   0.860
   85SOL    HW2  276   1.455   1.202   0.775
   86SOL     OW  277   1.466   0.590   0.992
   86SOL    HW1  278   1.436   0.495   0.999
   86SOL    HW2  279   1.539   0.606   1.058
   87SOL     OW  280   1.857   0.833   0.377
   87SOL    HW1  281   1.899   0.769   0.441
   87SOL    HW2  282   1.819   0.782   0.299
   88SOL     OW  283   0.488   1.385   0.174
   88SOL    HW1  284   0.401   1.370   0.221
   88SOL    HW2  285   0.471   1.411   0.079
   89SOL     OW  286   1.664   1.280   0.657
   89SOL    HW1  287   1.763   1.288   0.671
   89SOL    HW2  288   1.619   1.364   0.688
   90SOL     OW  289   1.390   0.575   0.078
   90SOL    HW1  290   1.336   0.554   0.159
   90SOL    HW2  291   1.481   0.534   0.087
   91SOL     OW  292   0.527   0.256   0.328
   91SOL    HW1  293   0.554   0.197   0.253
   91SOL    HW2  294   0.527   0.351   0.297
   92SOL     OW  295   1.064   1.347   1.340
   92SOL    HW1  296   0.984   1.324   1.395
   92SOL    HW2  297   1.147   1.321   1.389
   93SOL     OW  298   1.111   1.195   1.100
   93SOL    HW1  299   1.071   1.239   1.181
   93SOL    HW2  300   1.070   1.232   1.017
   94SOL     OW  301   1.638   1.099   1.079
   94SOL    HW1  302   1.643   1.180   1.138
   94SOL    HW2  303   1.552   1.101   1.028
   95SOL     OW  304   0.915   0.089   1.402
   95SOL    HW1  305   0.940   0.069   1.307
   95SOL    HW2  306   0.987   0.145   1.444
   96SOL     OW  307   0.980   1.116   1.719
   96SOL    HW1  308   0.881   1.122   1.729
   96SOL    HW2  309   1.003   1.036   1.663
   97SOL     OW  310   0.705   1.050   0.368
   97SOL    HW1  311   0.691   1.057   0.467
   97SOL    HW2  312   0.789   0.999   0.350
   98SOL     OW  313   0.410   0.813   1.251
   98SOL    HW1  314   0.496   0.825   1.301
   98SOL    HW2  315   0.368   0.726   1.278
   99SOL     OW  316   1.274   0.386   1.262
   99SOL    HW1  317   1.295   0.460   1.326
   99SOL    HW2  318   1.185   0.403   1.219
  100SOL     OW  319   0.064   1.564   1.331
  100SOL    HW1  320   0.018   1.646   1.297
  100SOL    HW2  321   0.162   1.583   1.340
  101SOL     OW  322   0.367   1.100   0.501
  101SOL    HW1  323   0.360   1.183   0.445
  101SOL    HW2  324   0.371   1.020   0.441
  102SOL     OW  325   0.566   0.537   0.865
  102SOL    HW1  326   0.578   0.603   0.791
  102SOL    HW2  327   0.612   0.571   0.948
  103SOL     OW  328   1.252   1.348   0.388
  103SOL    HW1  329   1.302   1.425   0.428
  103SOL    HW2  330   1.157   1.350   0.420
  104SOL     OW  331   1.272   1.445   1.142
  104SOL    HW1  332   1.319   1.458   1.229
  104SOL    HW2  333   1.206   1.371   1.151
  105SOL     OW  334   1.582   0.639   0.472
  105SOL    HW1  335   1.551   0.700   0.545
  105SOL    HW2  336   1.632   0.691   0.403
  106SOL     OW  337   0.354   1.510   1.329
  106SOL    HW1  338   0.333   1.466   1.242
  106SOL    HW2  339   0.451   1.536   1.332
  107SOL     OW  340   0.402   0.751   1.598
  107SOL    HW1  341   0.470   0.806   1.551
  107SOL    HW2  342   0.442   0.663   1.625
  108SOL     OW  343   1.587   0.779   1.670
  108SOL    HW1  344   1.495   0.817   1.665
  108SOL    HW2  345   1.647   0.826   1.605
  109SOL     OW  346   1.013   0.105   1.770
  109SOL    HW1  347   1.019   0.190   1.718
  109SOL    HW2  348   1.045   0.029   1.713
  110SOL     OW  349   0.504   0.050   1.740
  110SOL    HW1  350   0.462  -0.007   1.670
  110SOL    HW2  351   0.438   0.119   1.772
  111SOL     OW  352   0.573   0.870   1.029
  111SOL    HW1  353   0.617   0.959   1.020
  111SOL    HW2  354   0.510   0.870   1.106
  112SOL     OW  355   1.360   0.862   1.045
  112SOL    HW1  356   1.285   0.862   0.979
  112SOL    HW2  357   1.397   0.770   1.054
  113SOL     OW  358   1.209   0.525   0.275
  113SOL    HW1  359   1.222   0.441   0.329
  113SOL    HW2  360   1.180   0.599   0.335
  114SOL     OW  361   0.307   0.213   1.231
  114SOL    HW1  362   0.284   0.250   1.321
  114SOL    HW2  363   0.277   0.118   1.225
  115SOL     OW  364   0.037   1.310   1.282
  115SOL    HW1  365   0.090   1.261   1.350
  115SOL    HW2  366   0.059   1.408   1.287
  116SOL     OW  367   0.732   0.634   1.064
  116SOL    HW1  368   0.791   0.608   0.988
  116SOL    HW2  369   0.704   0.730   1.053
  117SOL     OW  370   1.728   0.935   1.854
  117SOL    HW1  371   1.682   0.928   1.765
  117SOL    HW2  372   1.666   0.979   1.920
  118SOL     OW  373   0.307   0.063   0.618
  118SOL    HW1  374   0.296   0.157   0.651
  118SOL    HW2  375   0.302   0.000   0.695
  119SOL     OW  376   1.622   0.367   0.374
  119SOL    HW1  377   1.624   0.291   0.438
  119SOL    HW2  378   1.574   0.444   0.414
  120SOL     OW  379   1.023   0.766   0.966
  120SOL    HW1  380   1.038   0.787   1.062
  120SOL    HW2  381   0.993   0.671   0.957
  121SOL     OW  382   0.980   1.573   1.700
  121SOL    HW1  383   0.960   1.617   1.612
  121SOL    HW2  384   1.019   1.482   1.684
  122SOL     OW  385   1.859   1.518   1.605
  122SOL    HW1  386   1.873   1.545   1.510
  122SOL    HW2  387   1.942   1.540   1.658
  123SOL     OW  388   0.350   0.898   1.804
  123SOL    HW1  389   0.426   0.942   1.852
  123SOL    HW2  390   0.385   0.851   1.722
  124SOL     OW  391   1.540   0.274   0.125
  124SOL    HW1  392   1.479   0.199   0.148
  124SOL    HW2  393   1.562   0.326   0.208
  125SOL     OW  394   1.303   0.838   0.042
  125SOL    HW1  395   1.337   0.745   0.057
  125SOL    HW2  396   1.321   0.865  -0.053
  126SOL     OW  397   1.068   1.333   0.849
  126SOL    HW1  398   1.075   1.249   0.794
  126SOL    HW2  399   1.130   1.402   0.813
  127SOL     OW  400   0.319   0.810   0.949
  127SOL    HW1  401   0.412   0.846   0.954
  127SOL    HW2  402   0.313   0.725   1.001
  128SOL     OW  403   0.339   0.509   1.006
  128SOL    HW1  404   0.287   0.426   0.989
  128SOL    HW2  405   0.416   0.514   0.942
  129SOL     OW  406   1.138   0.380   1.678
  129SOL    HW1  407   1.093   0.443   1.742
  129SOL    HW2  408   1.231   0.411   1.661
  130SOL     OW  409   1.160   0.207   1.477
  130SOL    HW1  410   1.160   0.271   1.554
  130SOL    HW2  411   1.188   0.255   1.394
  131SOL     OW  412   0.008   1.326   0.200
  131SOL    HW1  413  -0.085   1.347   0.169
  131SOL    HW2  414   0.018   1.227   0.213
  132SOL     OW  415   0.088   1.801   0.927
  132SOL    HW1  416   0.046   1.715   0.900
  132SOL    HW2  417   0.182   1.804   0.893
  133SOL     OW  418   0.504   1.568   0.910
  133SOL    HW1  419   0.570   1.642   0.919
  133SOL    HW2  420   0.548   1.489   0.868
  134SOL     OW  421   1.002   0.796   1.238
  134SOL    HW1  422   1.043   0.764   1.324
  134SOL    HW2  423   0.906   0.769   1.235
  135SOL     OW  424   0.040   0.544   1.114
  135SOL    HW1  425   0.125   0.511   1.073
  135SOL    HW2  426   0.053   0.559   1.212
  136SOL     OW  427   0.189   0.520   1.722
  136SOL    HW1  428   0.248   0.480   1.652
  136SOL    HW2  429   0.131   0.591   1.681
  137SOL     OW  430   1.369   0.950   1.660
  137SOL    HW1  431   1.408   1.039   1.680
  137SOL    HW2  432   1.379   0.930   1.563
  138SOL     OW  433   0.815   0.572   0.325
  138SOL    HW1  434   0.822   0.483   0.279
  138SOL    HW2  435   0.721   0.606   0.317
  139SOL     OW  436   1.657   0.604   1.206
  139SOL    HW1  437   1.619   0.535   1.268
  139SOL    HW2  438   1.739   0.568   1.162
  140SOL     OW  439   0.252   1.564   1.744
  140SOL    HW1  440   0.222   1.621   1.820
  140SOL    HW2  441   0.245   1.467   1.770
  141SOL     OW  442   0.671   0.464   1.269
  141SOL    HW1  443   0.637   0.375   1.239
  141SOL    HW2  444   0.697   0.518   1.189
  142SOL     OW  445   0.930   1.678   1.465
  142SOL    HW1  446   0.906   1.660   1.370
  142SOL    HW2  447   0.960   1.772   1.475
  143SOL     OW  448   0.473   0.500   0.191
  143SOL    HW1  449   0.534   0.580   0.195
  143SOL    HW2  450   0.378   0.531   0.198
  144SOL     OW  451   0.159   1.137   1.466
  144SOL    HW1  452   0.181   1.076   1.542
  144SOL    HW2  453   0.169   1.088   1.380
  145SOL     OW  454   1.347   1.059   1.234
  145SOL    HW1  455   1.371   0.996   1.160
  145SOL    HW2  456   1.257   1.099   1.216
  146SOL     OW  457   1.302   0.855   0.309
  146SOL    HW1  458   1.216   0.824   0.351
  146SOL    HW2  459   1.298   0.841   0.210
  147SOL     OW  460   1.759   1.747   1.154
  147SOL    HW1  461   1.820   1.777   1.081
  147SOL    HW2  462   1.721   1.658   1.132
  148SOL     OW  463   1.252   1.731   1.128
  148SOL    HW1  464   1.336   1.736   1.074
  148SOL    HW2  465   1.229   1.635   1.146
  149SOL     OW  466   0.083   1.258   1.022
  149SOL    HW1  467   0.078   1.257   1.122
  149SOL    HW2  468   0.000   1.217   0.984
  150SOL     OW  469   0.688   1.662   1.716
  150SOL    HW1  470   0.632   1.743   1.725
  150SOL    HW2  471   0.740   1.666   1.630
  151SOL     OW  472   0.903   0.086   0.133
  151SOL    HW1  473   0.954   0.087   0.047
  151SOL    HW2  474   0.959   0.044   0.204
  152SOL     OW  475   1.726   0.135   0.523
  152SOL    HW1  476   1.799   0.118   0.456
  152SOL    HW2  477   1.695   0.048   0.561
  153SOL     OW  478   1.388   1.573   0.477
  153SOL    HW1  479   1.455   1.585   0.403
  153SOL    HW2  480   1.348   1.662   0.500
  154SOL     OW  481   0.130   1.794   1.851
  154SOL    HW1  482   0.089   1.720   1.904
  154SOL    HW2  483   0.194   1.845   1.909
  155SOL     OW  484   1.280   0.927   0.672
  155SOL    HW1  485   1.340   0.846   0.674
  155SOL    HW2  486   1.320   0.996   0.612
  156SOL     OW  487   0.830   1.273   1.422
  156SOL    HW1  488   0.825   1.306   1.517
  156SOL    HW2  489   0.744   1.292   1.376
  157SOL     OW  490   0.672   1.616   0.154
  157SOL    HW1  491   0.681   1.626   0.055
  157SOL    HW2  492   0.632   1.527   0.175
  158SOL     OW  493   1.841   0.175   0.963
  158SOL    HW1  494   1.880   0.090   0.927
  158SOL    HW2  495   1.743   0.177   0.944
  159SOL     OW  496   0.263   0.326   0.720
  159SOL    HW1  497   0.184   0.377   0.686
  159SOL    HW2  498   0.254   0.311   0.818
  160SOL     OW  499   1.194   1.612   0.031
  160SOL    HW1  500   1.200   1.519   0.068
  160SOL    HW2  501   1.135   1.612  -0.049
  161SOL     OW  502   0.822   1.002   1.372
  161SOL    HW1  503   0.862   1.001   1.280
  161SOL    HW2  504   0.832   1.094   1.412
  162SOL     OW  505   0.916   0.910   0.291
  162SOL    HW1  506   0.979   0.948   0.223
  162SOL    HW2  507   0.956   0.827   0.330
  163SOL     OW  508   1.504   1.607   0.044
  163SOL    HW1  509   1.412   1.644   0.051
  163SOL    HW2  510   1.542   1.627  -0.046
  164SOL     OW  511   0.372   1.288   1.490
  164SOL    HW1  512   0.359   1.381   1.456
  164SOL    HW2  513   0.288   1.236   1.477
  165SOL     OW  514   1.039   1.098   0.696
  165SOL    HW1  515   0.969   1.051   0.750
  165SOL    HW2  516   1.098   1.030   0.653
  166SOL     OW  517   1.014   0.236   0.971
  166SOL    HW1  518   1.006   0.200   0.878
  166SOL    HW2  519   1.012   0.160   1.036
  167SOL     OW  520   0.590   1.487   0.491
  167SOL    HW1  521   0.632   1.429   0.421
  167SOL    HW2  522   0.546   1.566   0.447
  168SOL     OW  523   1.709   0.385   1.381
  168SOL    HW1  524   1.782   0.454   1.385
  168SOL    HW2  525   1.737   0.310   1.322
  169SOL     OW  526   0.255   1.348   0.290
  169SOL    HW1  527   0.159   1.349   0.263
  169SOL    HW2  528   0.267   1.401   0.374
  170SOL     OW  529   0.105   1.013   1.726
  170SOL    HW1  530   0.028   0.980   1.780
  170SOL    HW2  531   0.190   0.983   1.768
  171SOL     OW  532   0.672   0.203   1.489
  171SOL    HW1  533   0.762   0.187   1.449
  171SOL    HW2  534   0.680   0.208   1.588
  172SOL     OW  535   0.075   0.345   0.033
  172SOL    HW1  536  -0.017   0.317   0.004
  172SOL    HW2  537   0.106   0.422  -0.023
  173SOL     OW  538   1.440   0.856   1.398
  173SOL    HW1  539   1.383   0.908   1.335
  173SOL    HW2  540   1.536   0.868   1.374
  174SOL     OW  541   0.072   0.166   0.318
  174SOL    HW1  542   0.055   0.249   0.264
  174SOL    HW2  543   0.162   0.129   0.296
  175SOL     OW  544   1.183   1.335   0.119
  175SOL    HW1  545   1.084   1.324   0.121
  175SOL    HW2  546   1.217   1.350   0.212
  176SOL     OW  547   0.613   0.842   1.431
  176SOL    HW1  548   0.669   0.923   1.414
  176SOL    HW2  549   0.672   0.762   1.434
  177SOL     OW  550   1.493   1.767   0.959
  177SOL    HW1  551   1.526   1.831   0.890
  177SOL    HW2  552   1.559   1.761   1.034
  178SOL     OW  553   0.716   0.565   1.708
  178SOL    HW1  554   0.735   0.630   1.782
  178SOL    HW2  555   0.776   0.485   1.717
  179SOL     OW  556   0.390   1.741   1.560
  179SOL    HW1  557   0.299   1.782   1.558
  179SOL    HW2  558   0.383   1.647   1.592
  180SOL     OW  559   1.674   0.883   1.254
  180SOL    HW1  560   1.647   0.794   1.217
  180SOL    HW2  561   1.675   0.951   1.181
  181SOL     OW  562   1.225   0.325   0.449
  181SOL    HW1  563   1.290   0.251   0.438
  181SOL    HW2  564   1.245   0.375   0.533
  182SOL     OW  565   0.594   0.745   0.652
  182SOL    HW1  566   0.644   0.830   0.633
  182SOL    HW2  567   0.506   0.747   0.604
  183SOL     OW  568   1.777   0.342   1.642
  183SOL    HW1  569   1.760   0.373   1.548
  183SOL    HW2  570   1.693   0.305   1.680
  184SOL     OW  571   1.730   0.934   1.517
  184SOL    HW1  572   1.768   1.025   1.532
  184SOL    HW2  573   1.722   0.917   1.418
  185SOL     OW  574   0.859   1.374   0.016
  185SOL    HW1  575   0.813   1.389   0.104
  185SOL    HW2  576   0.903   1.459  -0.014
  186SOL     OW  577   0.661   1.790   0.953
  186SOL    HW1  578   0.615   1.878   0.940
  186SOL    HW2  579   0.760   1.802   0.946
  187SOL     OW  580   0.859   0.956   0.861
  187SOL    HW1  581   0.913   0.887   0.909
  187SOL    HW2  582   0.827   1.025   0.927
  188SOL     OW  583   1.083   0.984   0.087
  188SOL    HW1  584   1.060   1.037   0.005
  188SOL    HW2  585   1.164   0.928   0.068
  189SOL     OW  586   1.861   1.569   0.851
  189SOL    HW1  587   1.790   1.557   0.781
  189SOL    HW2  588   1.862   1.490   0.911
  190SOL     OW  589   0.221   1.314   1.844
  190SOL    HW1  590   0.156   1.241   1.823
  190SOL    HW2  591   0.225   1.328   1.942
  191SOL     OW  592   0.079   1.240   0.653
  191SOL    HW1  593   0.078   1.193   0.741
  191SOL    HW2  594   0.161   1.212   0.602
  192SOL     OW  595   0.672   1.391   1.624
  192SOL    HW1  596   0.594   1.341   1.662
  192SOL    HW2  597   0.669   1.486   1.655
  193SOL     OW  598   1.824   0.192   1.227
  193SOL    HW1  599   1.820   0.102   1.271
  193SOL    HW2  600   1.827   0.181   1.128
  194SOL     OW  601   0.428   0.424   0.520
  194SOL    HW1  602   0.458   0.352   0.458
  194SOL    HW2  603   0.389   0.384   0.603
  195SOL     OW  604   1.705   1.487   1.104
  195SOL    HW1  605   1.612   1.462   1.077
  195SOL    HW2  606   1.731   1.437   1.186
  196SOL     OW  607   0.317   0.547   1.280
  196SOL    HW1  608   0.355   0.488   1.352
  196SOL    HW2  609   0.357   0.521   1.192
  197SOL     OW  610   0.812   1.586   0.687
  197SOL    HW1  611   0.844   1.596   0.593
  197SOL    HW2  612   0.733   1.524   0.689
  198SOL     OW  613   1.424   0.214   1.112
  198SOL    HW1  614   1.476   0.149   1.167
  198SOL    HW2  615   1.375   0.277   1.173
  199SOL     OW  616   1.001   0.034   1.154
  199SOL    HW1  617   0.938  -0.038   1.123
  199SOL    HW2  618   1.094  -0.002   1.154
  200SOL     OW  619   0.770   1.330   0.301
  200SOL    HW1  620   0.724   1.243   0.318
  200SOL    HW2  621   0.861   1.327   0.342
  201SOL     OW  622   0.618   1.567   1.284
  201SOL    HW1  623   0.613   1.649   1.341
  201SOL    HW2  624   0.707   1.564   1.239
  202SOL     OW  625   1.352   0.052   0.168
  202SOL    HW1  626   1.387   0.011   0.084
  202SOL    HW2  627   1.262   0.014   0.188
  203SOL     OW  628   1.300   0.453   0.691
  203SOL    HW1  629   1.241   0.533   0.695
  203SOL    HW2  630   1.315   0.418   0.784
  204SOL     OW  631   1.593   0.221   0.882
  204SOL    HW1  632   1.509   0.220   0.936
  204SOL    HW2  633   1.595   0.304   0.826
  205SOL     OW  634   0.039   1.077   0.300
  205SOL    HW1  635   0.138   1.066   0.291
  205SOL    HW2  636  -0.001   0.991   0.332
  206SOL     OW  637   0.875   1.646   0.337
  206SOL    HW1  638   0.798   1.611   0.283
  206SOL    HW2  639   0.843   1.717   0.399
  207SOL     OW  640   0.230   0.628   1.975
  207SOL    HW1  641   0.137   0.626   2.012
  207SOL    HW2  642   0.231   0.589   1.883
  208SOL     OW  643   0.225   0.275   2.858
  208SOL    HW1  644   0.260   0.258   2.950
  208SOL    HW2  645   0.137   0.230   2.846
  209SOL     OW  646   0.019   0.368   2.509
  209SOL    HW1  647  -0.063   0.411   2.548
  209SOL    HW2  648  -0.009   0.295   2.446
  210SOL     OW  649   1.555   1.511   2.565
  210SOL    HW1  650   1.498   1.495   2.646
  210SOL    HW2  651   1.496   1.521   2.485
  211SOL     OW  652   1.135   0.703   2.579
  211SOL    HW1  653   1.192   0.781   2.554
  211SOL    HW2  654   1.075   0.729   2.655
  212SOL     OW  655   1.755   0.607   2.093
  212SOL    HW1  656   1.743   0.594   1.994
  212SOL    HW2  657   1.725   0.526   2.142
  213SOL     OW  658   0.768   1.144   2.885
  213SOL    HW1  659   0.690   1.161   2.945
  213SOL    HW2  660   0.802   1.231   2.849
  214SOL     OW  661   0.685   1.012   2.527
  214SOL    HW1  662   0.754   0.996   2.597
  214SOL    HW2  663   0.612   1.069   2.565
  215SOL     OW  664   0.335   1.435   2.923
  215SOL    HW1  665   0.257   1.404   2.870
  215SOL    HW2  666   0.393   1.493   2.866
  216SOL     OW  667   1.603   0.447   2.599
  216SOL    HW1  668   1.529   0.493   2.549
  216SOL    HW2  669   1.654   0.515   2.652
  217SOL     OW  670   0.231   1.713   2.345
  217SOL    HW1  671   0.265   1.790   2.399
  217SOL    HW2  672   0.275   1.713   2.255
  218SOL     OW  673   0.230   1.434   2.400
  218SOL    HW1  674   0.204   1.530   2.400
  218SOL    HW2  675   0.159   1.380   2.445
  219SOL     OW  676   0.240   1.091   2.748
  219SOL    HW1  677   0.254   1.007   2.800
  219SOL    HW2  678   0.185   1.155   2.803
  220SOL     OW  679   0.606   0.964   1.985
  220SOL    HW1  680   0.613   1.048   1.931
  220SOL    HW2  681   0.652   0.977   2.073
  221SOL     OW  682   0.122   0.643   2.425
  221SOL    HW1  683   0.077   0.555   2.442
  221SOL    HW2  684   0.121   0.697   2.509
  222SOL     OW  685   1.842   1.767   2.221
  222SOL    HW1  686   1.896   1.738   2.301
  222SOL    HW2  687   1.872   1.857   2.192
  223SOL     OW  688   0.027   1.596   1.979
  223SOL    HW1  689   0.008   1.500   2.000
  223SOL    HW2  690  -0.006   1.654   2.054
  224SOL     OW  691   1.689   0.922   2.474
  224SOL    HW1  692   1.784   0.893   2.482
  224SOL    HW2  693   1.681   0.987   2.399
  225SOL     OW  694   1.641   1.108   2.294
  225SOL    HW1  695   1.727   1.110   2.242
  225SOL    HW2  696   1.655   1.155   2.382
  226SOL     OW  697   0.613   1.365   2.588
  226SOL    HW1  698   0.564   1.278   2.597
  226SOL    HW2  699   0.590   1.408   2.501
  227SOL     OW  700   0.809   0.004   2.364
  227SOL    HW1  701   0.849   0.095   2.355
  227SOL    HW2  702   0.709   0.012   2.370
  228SOL     OW  703   1.525   0.999   2.052
  228SOL    HW1  704   1.462   0.923   2.065
  228SOL    HW2  705   1.573   1.017   2.138
  229SOL     OW  706   1.466   1.417   2.815
  229SOL    HW1  707   1.407   1.423   2.895
  229SOL    HW2  708   1.451   1.329   2.769
  230SOL     OW  709   1.667   1.714   2.434
  230SOL    HW1  710   1.626   1.691   2.346
  230SOL    HW2  711   1.649   1.640   2.499
  231SOL     OW  712   0.598   0.729   2.132
  231SOL    HW1  713   0.622   0.798   2.064
  231SOL    HW2  714   0.520   0.762   2.186
  232SOL     OW  715   1.281   0.345   2.806
  232SOL    HW1  716   1.195   0.295   2.793
  232SOL    HW2  717   1.343   0.291   2.862
  233SOL     OW  718   1.576   1.662   2.169
  233SOL    HW1  719   1.665   1.708   2.172
  233SOL    HW2  720   1.555   1.638   2.074
  234SOL     OW  721   1.041   0.701   2.291
  234SOL    HW1  722   1.067   0.697   2.387
  234SOL    HW2  723   0.956   0.650   2.277
  235SOL     OW  724   0.076   0.811   2.651
  235SOL    HW1  725   0.175   0.799   2.660
  235SOL    HW2  726   0.052   0.906   2.672
  236SOL     OW  727   0.865   0.348   2.057
  236SOL    HW1  728   0.924   0.411   2.008
  236SOL    HW2  729   0.884   0.254   2.028
  237SOL     OW  730   1.362   1.144   2.407
  237SOL    HW1  731   1.445   1.115   2.359
  237SOL    HW2  732   1.313   1.211   2.351
  238SOL     OW  733   0.550   0.196   2.747
  238SOL    HW1  734   0.545   0.191   2.847
  238SOL    HW2  735   0.552   0.292   2.718
  239SOL     OW  736   1.008   1.456   2.339
  239SOL    HW1  737   0.962   1.528   2.287
  239SOL    HW2  738   1.004   1.476   2.437
  240SOL     OW  739   0.351   1.801   2.715
  240SOL    HW1  740   0.401   1.715   2.721
  240SOL    HW2  741   0.416   1.878   2.712
  241SOL     OW  742   1.795   1.066   2.735
  241SOL    HW1  743   1.733   1.051   2.659
  241SOL    HW2  744   1.743   1.077   2.820
  242SOL     OW  745   0.321   0.943   2.104
  242SOL    HW1  746   0.403   0.982   2.062
  242SOL    HW2  747   0.294   0.861   2.055
  243SOL     OW  748   1.458   0.735   2.590
  243SOL    HW1  749   1.453   0.670   2.665
  243SOL    HW2  750   1.538   0.794   2.603
  244SOL     OW  751   1.111   1.776   2.099
  244SOL    HW1  752   1.051   1.714   2.149
  244SOL    HW2  753   1.142   1.732   2.014
  245SOL     OW  754   1.632   1.377   1.943
  245SOL    HW1  755   1.600   1.471   1.933
  245SOL    HW2  756   1.556   1.314   1.931
  246SOL     OW  757   0.464   1.743   2.185
  246SOL    HW1  758   0.497   1.782   2.271
  246SOL    HW2  759   0.540   1.736   2.120
  247SOL     OW  760   1.400   0.107   2.288
  247SOL    HW1  761   1.376   0.070   2.198
  247SOL    HW2  762   1.499   0.123   2.292
  248SOL     OW  763   0.249   1.785   3.103
  248SOL    HW1  764   0.306   1.720   3.153
  248SOL    HW2  765   0.233   1.752   3.010
  249SOL     OW  766   0.940   1.698   2.766
  249SOL    HW1  767   1.020   1.641   2.787
  249SOL    HW2  768   0.891   1.658   2.689
  250SOL     OW  769   0.382   0.700   2.342
  250SOL    HW1  770   0.427   0.610   2.339
  250SOL    HW2  771   0.288   0.689   2.375
  251SOL     OW  772   0.614   0.122   1.979
  251SOL    HW1  773   0.712   0.100   1.986
  251SOL    HW2  774   0.583   0.105   1.886
  252SOL     OW  775   0.803   1.402   2.786
  252SOL    HW1  776   0.893   1.416   2.744
  252SOL    HW2  777   0.732   1.404   2.715
  253SOL     OW  778   0.922   0.503   2.761
  253SOL    HW1  779   0.897   0.494   2.665
  253SOL    HW2  780   0.970   0.421   2.792
  254SOL     OW  781   0.539   0.064   2.374
  254SOL    HW1  782   0.458   0.065   2.432
  254SOL    HW2  783   0.542   0.147   2.319
  255SOL     OW  784   1.434   1.188   1.903
  255SOL    HW1  785   1.466   1.112   1.960
  255SOL    HW2  786   1.342   1.215   1.933
  256SOL     OW  787   0.297   0.035   2.033
  256SOL    HW1  788   0.346   0.119   2.012
  256SOL    HW2  789   0.359  -0.030   2.078
  257SOL     OW  790   0.935   0.236   2.342
  257SOL    HW1  791   0.887   0.277   2.264
  257SOL    HW2  792   1.034   0.234   2.323
  258SOL     OW  793   1.227   1.570   2.655
  258SOL    HW1  794   1.248   1.644   2.590
  258SOL    HW2  795   1.295   1.570   2.728
  259SOL     OW  796   0.459   1.152   2.603
  259SOL    HW1  797   0.388   1.125   2.668
  259SOL    HW2  798   0.433   1.124   2.510
  260SOL     OW  799   1.271   1.797   2.453
  260SOL    HW1  800   1.315   1.861   2.389
  260SOL    HW2  801   1.221   1.849   2.523
  261SOL     OW  802   1.032   0.549   1.878
  261SOL    HW1  803   0.991   0.631   1.839
  261SOL    HW2  804   1.096   0.575   1.951
  262SOL     OW  805   0.866   0.454   2.504
  262SOL    HW1  806   0.834   0.526   2.442
  262SOL    HW2  807   0.890   0.373   2.451
  263SOL     OW  808   1.017   0.039   2.615
  263SOL    HW1  809   0.945   0.044   2.546
  263SOL    HW2  810   0.993  -0.030   2.684
  264SOL     OW  811   1.429   1.173   2.729
  264SOL    HW1  812   1.374   1.089   2.722
  264SOL    HW2  813   1.455   1.202   2.637
  265SOL     OW  814   1.466   0.590   2.854
  265SOL    HW1  815   1.436   0.495   2.861
  265SOL    HW2  816   1.539   0.606   2.920
  266SOL     OW  817   1.857   0.833   2.239
  266SOL    HW1  818   1.899   0.769   2.303
  266SOL    HW2  819   1.819   0.782   2.161
  267SOL     OW  820   0.488   1.385   2.036
  267SOL    HW1  821   0.401   1.370   2.083
  267SOL    HW2  822   0.471   1.411   1.941
  268SOL     OW  823   1.664   1.280   2.519
  268SOL    HW1  824   1.763   1.288   2.533
  268SOL    HW2  825   1.619   1.364   2.550
  269SOL     OW  826   1.390   0.575   1.940
  269SOL    HW1  827   1.336   0.554   2.021
  269SOL    HW2  828   1.481   0.534   1.949
  270SOL     OW  829   0.527   0.256   2.190
  270SOL    HW1  830   0.554   0.197   2.115
  270SOL    HW2  831   0.527   0.351   2.159
  271SOL     OW  832   1.638   1.099   2.941
  271SOL    HW1  833   1.643   1.180   3.000
  271SOL    HW2  834   1.552   1.101   2.890
  272SOL     OW  835   0.705   1.050   2.230
  272SOL    HW1  836   0.691   1.057   2.329
  272SOL    HW2  837   0.789   0.999   2.212
  273SOL     OW  838   0.367   1.100   2.363
  273SOL    HW1  839   0.360   1.183   2.307
  273SOL    HW2  840   0.371   1.020   2.303
  274SOL     OW  841   0.566   0.537   2.727
  274SOL    HW1  842   0.578   0.603   2.653
  274SOL    HW2  843   0.612   0.571   2.810
  275SOL     OW  844   1.252   1.348   2.250
  275SOL    HW1  845   1.302   1.425   2.290
  275SOL    HW2  846   1.157   1.350   2.282
  276SOL     OW  847   1.582   0.639   2.334
  276SOL    HW1  848   1.551   0.700   2.407
  276SOL    HW2  849   1.632   0.691   2.265
  277SOL     OW  850   0.573   0.870   2.891
  277SOL    HW1  851   0.617   0.959   2.882
  277SOL    HW2  852   0.510   0.870   2.968
  278SOL     OW  853   1.209   0.525   2.137
  278SOL    HW1  854   1.222   0.441   2.191
  278SOL    HW2  855   1.180   0.599   2.197
  279SOL     OW  856   0.732   0.634   2.926
  279SOL    HW1  857   0.791   0.608   2.850
  279SOL    HW2  858   0.704   0.730   2.915
  280SOL     OW  859   0.307   0.063   2.480
  280SOL    HW1  860   0.296   0.157   2.513
  280SOL    HW2  861   0.302   0.000   2.557
  281SOL     OW  862   1.622   0.367   2.236
  281SOL    HW1  863   1.624   0.291   2.300
  281SOL    HW2  864   1.574   0.444   2.276
  282SOL     OW  865   1.540   0.274   1.987
  282SOL    HW1  866   1.479   0.199   2.010
  282SOL    HW2  867   1.562   0.326   2.070
  283SOL     OW  868   1.303   0.838   1.904
  283SOL    HW1  869   1.337   0.745   1.919
  283SOL    HW2  870   1.321   0.865   1.809
  284SOL     OW  871   1.068   1.333   2.711
  284SOL    HW1  872   1.075   1.249   2.656
  284SOL    HW2  873   1.130   1.402   2.675
  285SOL     OW  874   0.319   0.810   2.811
  285SOL    HW1  875   0.412   0.846   2.816
  285SOL    HW2  876   0.313   0.725   2.863
  286SOL     OW  877   0.339   0.509   2.868
  286SOL    HW1  878   0.287   0.426   2.851
  286SOL    HW2  879   0.416   0.514   2.804
  287SOL     OW  880   0.008   1.326   2.062
  287SOL    HW1  881  -0.085   1.347   2.031
  287SOL    HW2  882   0.018   1.227   2.075
  288SOL     OW  883   0.088   1.801   2.789
  288SOL    HW1  884   0.046   1.715   2.762
  288SOL    HW2  885   0.182   1.804   2.755
  289SOL     OW  886   0.504   1.568   2.772
  289SOL    HW1  887   0.570   1.642   2.781
  289SOL    HW2  888   0.548   1.489   2.730
  290SOL     OW  889   1.002   0.796   3.100
  290SOL    HW1  890   1.043   0.764   3.186
  290SOL    HW2  891   0.906   0.769   3.097
  291SOL     OW  892   0.815   0.572   2.187
  291SOL    HW1  893   0.822   0.483   2.141
  291SOL    HW2  894   0.721   0.606   2.179
  292SOL     OW  895   0.671   0.464   3.131
  292SOL    HW1  896   0.637   0.375   3.101
  292SOL    HW2  897   0.697   0.518   3.051
  293SOL     OW  898   0.473   0.500   2.053
  293SOL    HW1  899   0.534   0.580   2.057
  293SOL    HW2  900   0.378   0.531   2.060
  294SOL     OW  901   1.302   0.855   2.171
  294SOL    HW1  902   1.216   0.824   2.213
  294SOL    HW2  903   1.298   0.841   2.072
  295SOL     OW  904   1.759   1.747   3.016
  295SOL    HW1  905   1.820   1.777   2.943
  295SOL    HW2  906   1.721   1.658   2.994
  296SOL     OW  907   0.083   1.258   2.884
  296SOL    HW1  908   0.078   1.257   2.984
  296SOL    HW2  909   0.000   1.217   2.846
  297SOL     OW  910   1.726   0.135   2.385
  297SOL    HW1  911   1.799   0.118   2.318
  297SOL    HW2  912   1.695   0.048   2.423
  298SOL     OW  913   1.388   1.573   2.339
  298SOL    HW1  914   1.455   1.585   2.265
  298SOL    HW2  915   1.348   1.662   2.362
  299SOL     OW  916   1.280   0.927   2.534
  299SOL    HW1  917   1.340   0.846   2.536
  299SOL    HW2  918   1.320   0.996   2.474
  300SOL     OW  919   0.672   1.616   2.016
  300SOL    HW1  920   0.681   1.626   1.917
  300SOL    HW2  921   0.632   1.527   2.037
  301SOL     OW  922   1.841   0.175   2.825
  301SOL    HW1  923   1.880   0.090   2.789
  301SOL    HW2  924   1.743   0.177   2.806
  302SOL     OW  925   0.263   0.326   2.582
  302SOL    HW1  926   0.184   0.377   2.548
  302SOL    HW2  927   0.254   0.311   2.680
  303SOL     OW  928   1.194   1.612   1.893
  303SOL    HW1  929   1.200   1.519   1.930
  303SOL    HW2  930   1.135   1.612   1.813
  304SOL     OW  931   0.916   0.910   2.153
  304SOL    HW1  932   0.979   0.948   2.085
  304SOL    HW2  933   0.956   0.827   2.192
  305SOL     OW  934   1.504   1.607   1.906
  305SOL    HW1  935   1.412   1.644   1.913
  305SOL    HW2  936   1.542   1.627   1.816
  306SOL     OW  937   1.039   1.098   2.558
  306SOL    HW1  938   0.969   1.051   2.612
  306SOL    HW2  939   1.098   1.030   2.515
  307SOL     OW  940   1.014   0.236   2.833
  307SOL    HW1  941   1.006   0.200   2.740
  307SOL    HW2  942   1.012   0.160   2.898
  308SOL     OW  943   0.590   1.487   2.353
  308SOL    HW1  944   0.632   1.429   2.283
  308SOL    HW2  945   0.546   1.566   2.309
  309SOL     OW  946   0.255   1.348   2.152
  309SOL    HW1  947   0.159   1.349   2.125
  309SOL    HW2  948   0.267   1.401   2.236
  310SOL     OW  949   0.075   0.345   1.895
  310SOL    HW1  950  -0.017   0.317   1.866
  310SOL    HW2  951   0.106   0.422   1.839
  311SOL     OW  952   0.072   0.166   2.180
  311SOL    HW1  953   0.055   0.249   2.126
  311SOL    HW2  954   0.162   0.129   2.158
  312SOL     OW  955   1.183   1.335   1.981
  312SOL    HW1  956   1.084   1.324   1.983
  312SOL    HW2  957   1.217   1.350   2.074
  313SOL     OW  958   1.674   0.883   3.116
  313SOL    HW1  959   1.647   0.794   3.079
  313SOL    HW2  960   1.675   0.951   3.043
  314SOL     OW  961   1.225   0.325   2.311
  314SOL    HW1  962   1.290   0.251   2.300
  314SOL    HW2  963   1.245   0.375   2.395
  315SOL     OW  964   0.594   0.745   2.514
  315SOL    HW1  965   0.644   0.830   2.495
  315SOL    HW2  966   0.506   0.747   2.466
  316SOL     OW  967   0.859   1.374   1.878
  316SOL    HW1  968   0.813   1.389   1.966
  316SOL    HW2  969   0.903   1.459   1.848
  317SOL     OW  970   0.661   1.790   2.815
  317SOL    HW1  971   0.615   1.878   2.802
  317SOL    HW2  972   0.760   1.802   2.808
  318SOL     OW  973   0.859   0.956   2.723
  318SOL    HW1  974   0.913   0.887   2.771
  318SOL    HW2  975   0.827   1.025   2.789
  319SOL     OW  976   1.083   0.984   1.949
  319SOL    HW1  977   1.060   1.037   1.867
  319SOL    HW2  978   1.164   0.928   1.930
  320SOL     OW  979   1.861   1.569   2.713
  320SOL    HW1  980   1.790   1.557   2.643
  320SOL    HW2  981   1.862   1.490   2.773
  321SOL     OW  982   0.079   1.240   2.515
  321SOL    HW1  983   0.078   1.193   2.603
  321SOL    HW2  984   0.161   1.212   2.464
  322SOL     OW  985   1.824   0.192   3.089
  322SOL    HW1  986   1.820   0.102   3.133
  322SOL    HW2  987   1.827   0.181   2.990
  323SOL     OW  988   0.428   0.424   2.382
  323SOL    HW1  989   0.458   0.352   2.320
  323SOL    HW2  990   0.389   0.384   2.465
  324SOL     OW  991   0.812   1.586   2.549
  324SOL    HW1  992   0.844   1.596   2.455
  324SOL    HW2  993   0.733   1.524   2.551
  325SOL     OW  994   0.770   1.330   2.163
  325SOL    HW1  995   0.724   1.243   2.180
  325SOL    HW2  996   0.861   1.327   2.204
  326SOL     OW  997   1.352   0.052   2.030
  326SOL    HW1  998   1.387   0.011   1.946
  326SOL    HW2  999   1.262   0.014   2.050
  327SOL     OW 1000   1.300   0.453   2.553
  327SOL    HW1 1001   1.241   0.533   2.557
  327SOL    HW2 1002   1.315   0.418   2.646
  328SOL     OW 1003   1.593   0.221   2.744
  328SOL    HW1 1004   1.509   0.220   2.798
  328SOL    HW2 1005   1.595   0.304   2.688
  329SOL     OW 1006   0.039   1.077   2.162
  329SOL    HW1 1007   0.138   1.066   2.153
  329SOL    HW2 1008  -0.001   0.991   2.194
  330SOL     OW 1009   0.875   1.646   2.199
  330SOL    HW1 1010   0.798   1.611   2.145
  330SOL    HW2 1011   0.843   1.717   2.261
  331SOL     OW 1012   0.230   2.490   0.113
  331SOL    HW1 1013   0.137   2.488   0.150
  331SOL    HW2 1014   0.231   2.451   0.021
  332SOL     OW 1015   0.225   2.137   0.996
  332SOL    HW1 1016   0.260   2.120   1.088
  332SOL    HW2 1017   0.137   2.092   0.984
  333SOL     OW 1018   0.019   2.230   0.647
  333SOL    HW1 1019  -0.063   2.273   0.686
  333SOL    HW2 1020  -0.009   2.157   0.584
  334SOL     OW 1021   1.135   2.565   0.717
  334SOL    HW1 1022   1.192   2.643   0.692
  334SOL    HW2 1023   1.075   2.591   0.793
  335SOL     OW 1024   1.755   2.469   0.231
  335SOL    HW1 1025   1.743   2.456   0.132
  335SOL    HW2 1026   1.725   2.388   0.280
  336SOL     OW 1027   0.768   3.006   1.023
  336SOL    HW1 1028   0.690   3.023   1.083
  336SOL    HW2 1029   0.802   3.093   0.987
  337SOL     OW 1030   0.850   2.660   1.823
  337SOL    HW1 1031   0.846   2.736   1.888
  337SOL    HW2 1032   0.872   2.696   1.732
  338SOL     OW 1033   0.685   2.874   0.665
  338SOL    HW1 1034   0.754   2.858   0.735
  338SOL    HW2 1035   0.612   2.931   0.703
  339SOL     OW 1036   0.438   2.254   1.499
  339SOL    HW1 1037   0.520   2.198   1.508
  339SOL    HW2 1038   0.357   2.196   1.503
  340SOL     OW 1039   1.603   2.309   0.737
  340SOL    HW1 1040   1.529   2.355   0.687
  340SOL    HW2 1041   1.654   2.377   0.790
  341SOL     OW 1042   0.240   2.953   0.886
  341SOL    HW1 1043   0.254   2.869   0.938
  341SOL    HW2 1044   0.185   3.017   0.941
  342SOL     OW 1045   0.606   2.826   0.123
  342SOL    HW1 1046   0.613   2.910   0.069
  342SOL    HW2 1047   0.652   2.839   0.211
  343SOL     OW 1048   1.594   1.976   1.480
  343SOL    HW1 1049   1.576   2.043   1.408
  343SOL    HW2 1050   1.591   2.022   1.569
  344SOL     OW 1051   0.122   2.505   0.563
  344SOL    HW1 1052   0.077   2.417   0.580
  344SOL    HW2 1053   0.121   2.559   0.647
  345SOL     OW 1054   1.689   2.784   0.612
  345SOL    HW1 1055   1.784   2.755   0.620
  345SOL    HW2 1056   1.681   2.849   0.537
  346SOL     OW 1057   0.113   2.599   1.597
  346SOL    HW1 1058   0.201   2.586   1.642
  346SOL    HW2 1059   0.100   2.696   1.575
  347SOL     OW 1060   0.809   1.866   0.502
  347SOL    HW1 1061   0.849   1.957   0.493
  347SOL    HW2 1062   0.709   1.874   0.508
  348SOL     OW 1063   0.197   2.838   1.264
  348SOL    HW1 1064   0.286   2.793   1.250
  348SOL    HW2 1065   0.124   2.773   1.245
  349SOL     OW 1066   1.525   2.861   0.190
  349SOL    HW1 1067   1.462   2.785   0.203
  349SOL    HW2 1068   1.573   2.879   0.276
  350SOL     OW 1069   0.317   2.113   1.801
  350SOL    HW1 1070   0.388   2.184   1.807
  350SOL    HW2 1071   0.229   2.152   1.829
  351SOL     OW 1072   0.598   2.591   0.270
  351SOL    HW1 1073   0.622   2.660   0.202
  351SOL    HW2 1074   0.520   2.624   0.324
  352SOL     OW 1075   1.281   2.207   0.944
  352SOL    HW1 1076   1.195   2.157   0.931
  352SOL    HW2 1077   1.343   2.153   1.000
  353SOL     OW 1078   0.807   2.467   1.465
  353SOL    HW1 1079   0.760   2.464   1.554
  353SOL    HW2 1080   0.756   2.412   1.399
  354SOL     OW 1081   1.394   2.331   1.674
  354SOL    HW1 1082   1.374   2.374   1.762
  354SOL    HW2 1083   1.472   2.269   1.683
  355SOL     OW 1084   0.973   2.752   1.572
  355SOL    HW1 1085   1.019   2.668   1.543
  355SOL    HW2 1086   0.917   2.786   1.497
  356SOL     OW 1087   0.991   2.272   1.242
  356SOL    HW1 1088   0.914   2.306   1.296
  356SOL    HW2 1089   0.957   2.221   1.163
  357SOL     OW 1090   1.041   2.563   0.429
  357SOL    HW1 1091   1.067   2.559   0.525
  357SOL    HW2 1092   0.956   2.512   0.415
  358SOL     OW 1093   0.076   2.673   0.789
  358SOL    HW1 1094   0.175   2.661   0.798
  358SOL    HW2 1095   0.052   2.768   0.810
  359SOL     OW 1096   0.865   2.210   0.195
  359SOL    HW1 1097   0.924   2.273   0.146
  359SOL    HW2 1098   0.884   2.116   0.166
  360SOL     OW 1099   1.719   2.447   1.831
  360SOL    HW1 1100   1.693   2.536   1.795
  360SOL    HW2 1101   1.717   2.379   1.758
  361SOL     OW 1102   0.550   2.058   0.885
  361SOL    HW1 1103   0.545   2.053   0.985
  361SOL    HW2 1104   0.552   2.154   0.856
  362SOL     OW 1105   1.458   2.597   0.728
  362SOL    HW1 1106   1.453   2.532   0.803
  362SOL    HW2 1107   1.538   2.656   0.741
  363SOL     OW 1108   0.202   2.147   1.498
  363SOL    HW1 1109   0.122   2.207   1.485
  363SOL    HW2 1110   0.192   2.098   1.584
  364SOL     OW 1111   1.400   1.969   0.426
  364SOL    HW1 1112   1.376   1.932   0.336
  364SOL    HW2 1113   1.499   1.985   0.430
  365SOL     OW 1114   0.382   2.562   0.480
  365SOL    HW1 1115   0.427   2.472   0.477
  365SOL    HW2 1116   0.288   2.551   0.513
  366SOL     OW 1117   1.547   2.084   1.729
  366SOL    HW1 1118   1.542   2.121   1.821
  366SOL    HW2 1119   1.475   2.015   1.717
  367SOL     OW 1120   0.614   1.984   0.117
  367SOL    HW1 1121   0.712   1.962   0.124
  367SOL    HW2 1122   0.583   1.967   0.024
  368SOL     OW 1123   0.781   2.126   1.749
  368SOL    HW1 1124   0.848   2.065   1.792
  368SOL    HW2 1125   0.708   2.145   1.814
  369SOL     OW 1126   1.351   2.452   1.433
  369SOL    HW1 1127   1.379   2.409   1.518
  369SOL    HW2 1128   1.376   2.548   1.434
  370SOL     OW 1129   0.922   2.365   0.899
  370SOL    HW1 1130   0.897   2.356   0.803
  370SOL    HW2 1131   0.970   2.283   0.930
  371SOL     OW 1132   0.539   1.926   0.512
  371SOL    HW1 1133   0.458   1.927   0.570
  371SOL    HW2 1134   0.542   2.009   0.457
  372SOL     OW 1135   0.935   2.098   0.480
  372SOL    HW1 1136   0.887   2.139   0.402
  372SOL    HW2 1137   1.034   2.096   0.461
  373SOL     OW 1138   1.076   2.545   1.464
  373SOL    HW1 1139   0.996   2.484   1.467
  373SOL    HW2 1140   1.157   2.492   1.440
  374SOL     OW 1141   1.032   2.411   0.016
  374SOL    HW1 1142   0.991   2.493  -0.023
  374SOL    HW2 1143   1.096   2.437   0.089
  375SOL     OW 1144   0.078   2.418   1.386
  375SOL    HW1 1145   0.170   2.417   1.345
  375SOL    HW2 1146   0.072   2.492   1.453
  376SOL     OW 1147   0.561   2.084   1.147
  376SOL    HW1 1148   0.599   2.000   1.184
  376SOL    HW2 1149   0.473   2.103   1.191
  377SOL     OW 1150   0.866   2.316   0.642
  377SOL    HW1 1151   0.834   2.388   0.580
  377SOL    HW2 1152   0.890   2.235   0.589
  378SOL     OW 1153   1.017   1.901   0.753
  378SOL    HW1 1154   0.945   1.906   0.684
  378SOL    HW2 1155   0.993   1.832   0.822
  379SOL     OW 1156   1.429   3.035   0.867
  379SOL    HW1 1157   1.374   2.951   0.860
  379SOL    HW2 1158   1.455   3.064   0.775
  380SOL     OW 1159   1.466   2.452   0.992
  380SOL    HW1 1160   1.436   2.357   0.999
  380SOL    HW2 1161   1.539   2.468   1.058
  381SOL     OW 1162   1.857   2.695   0.377
  381SOL    HW1 1163   1.899   2.631   0.441
  381SOL    HW2 1164   1.819   2.644   0.299
  382SOL     OW 1165   1.390   2.437   0.078
  382SOL    HW1 1166   1.336   2.416   0.159
  382SOL    HW2 1167   1.481   2.396   0.087
  383SOL     OW 1168   0.527   2.118   0.328
  383SOL    HW1 1169   0.554   2.059   0.253
  383SOL    HW2 1170   0.527   2.213   0.297
  384SOL     OW 1171   1.638   2.961   1.079
  384SOL    HW1 1172   1.643   3.042   1.138
  384SOL    HW2 1173   1.552   2.963   1.028
  385SOL     OW 1174   0.915   1.951   1.402
  385SOL    HW1 1175   0.940   1.931   1.307
  385SOL    HW2 1176   0.987   2.007   1.444
  386SOL     OW 1177   0.410   2.675   1.251
  386SOL    HW1 1178   0.496   2.687   1.301
  386SOL    HW2 1179   0.368   2.588   1.278
  387SOL     OW 1180   1.274   2.248   1.262
  387SOL    HW1 1181   1.295   2.322   1.326
  387SOL    HW2 1182   1.185   2.265   1.219
  388SOL     OW 1183   0.566   2.399   0.865
  388SOL    HW1 1184   0.578   2.465   0.791
  388SOL    HW2 1185   0.612   2.433   0.948
  389SOL     OW 1186   1.582   2.501   0.472
  389SOL    HW1 1187   1.551   2.562   0.545
  389SOL    HW2 1188   1.632   2.553   0.403
  390SOL     OW 1189   0.402   2.613   1.598
  390SOL    HW1 1190   0.470   2.668   1.551
  390SOL    HW2 1191   0.442   2.525   1.625
  391SOL     OW 1192   1.587   2.641   1.670
  391SOL    HW1 1193   1.495   2.679   1.665
  391SOL    HW2 1194   1.647   2.688   1.605
  392SOL     OW 1195   1.013   1.967   1.770
  392SOL    HW1 1196   1.019   2.052   1.718
  392SOL    HW2 1197   1.045   1.891   1.713
  393SOL     OW 1198   0.504   1.912   1.740
  393SOL    HW1 1199   0.462   1.855   1.670
  393SOL    HW2 1200   0.438   1.981   1.772
  394SOL     OW 1201   0.573   2.732   1.029
  394SOL    HW1 1202   0.617   2.821   1.020
  394SOL    HW2 1203   0.510   2.732   1.106
  395SOL     OW 1204   1.360   2.724   1.045
  395SOL    HW1 1205   1.285   2.724   0.979
  395SOL    HW2 1206   1.397   2.632   1.054
  396SOL     OW 1207   1.209   2.387   0.275
  396SOL    HW1 1208   1.222   2.303   0.329
  396SOL    HW2 1209   1.180   2.461   0.335
  397SOL     OW 1210   0.307   2.075   1.231
  397SOL    HW1 1211   0.284   2.112   1.321
  397SOL    HW2 1212   0.277   1.980   1.225
  398SOL     OW 1213   0.037   3.172   1.282
  398SOL    HW1 1214   0.090   3.123   1.350
  398SOL    HW2 1215   0.059   3.270   1.287
  399SOL     OW 1216   0.732   2.496   1.064
  399SOL    HW1 1217   0.791   2.470   0.988
  399SOL    HW2 1218   0.704   2.592   1.053
  400SOL     OW 1219   1.728   2.797   1.854
  400SOL    HW1 1220   1.682   2.790   1.765
  400SOL    HW2 1221   1.666   2.841   1.920
  401SOL     OW 1222   0.307   1.925   0.618
  401SOL    HW1 1223   0.296   2.019   0.651
  401SOL    HW2 1224   0.302   1.862   0.695
  402SOL     OW 1225   1.622   2.229   0.374
  402SOL    HW1 1226   1.624   2.153   0.438
  402SOL    HW2 1227   1.574   2.306   0.414
  403SOL     OW 1228   1.023   2.628   0.966
  403SOL    HW1 1229   1.038   2.649   1.062
  403SOL    HW2 1230   0.993   2.533   0.957
  404SOL     OW 1231   0.350   2.760   1.804
  404SOL    HW1 1232   0.426   2.804   1.852
  404SOL    HW2 1233   0.385   2.713   1.722
  405SOL     OW 1234   1.540   2.136   0.125
  405SOL    HW1 1235   1.479   2.061   0.148
  405SOL    HW2 1236   1.562   2.188   0.208
  406SOL     OW 1237   1.303   2.700   0.042
  406SOL    HW1 1238   1.337   2.607   0.057
  406SOL    HW2 1239   1.321   2.727  -0.053
  407SOL     OW 1240   0.319   2.672   0.949
  407SOL    HW1 1241   0.412   2.708   0.954
  407SOL    HW2 1242   0.313   2.587   1.001
  408SOL     OW 1243   0.339   2.371   1.006
  408SOL    HW1 1244   0.287   2.288   0.989
  408SOL    HW2 1245   0.416   2.376   0.942
  409SOL     OW 1246   1.138   2.242   1.678
  409SOL    HW1 1247   1.093   2.305   1.742
  409SOL    HW2 1248   1.231   2.273   1.661
  410SOL     OW 1249   1.160   2.069   1.477
  410SOL    HW1 1250   1.160   2.133   1.554
  410SOL    HW2 1251   1.188   2.117   1.394
  411SOL     OW 1252   1.002   2.658   1.238
  411SOL    HW1 1253   1.043   2.626   1.324
  411SOL    HW2 1254   0.906   2.631   1.235
  412SOL     OW 1255   0.040   2.406   1.114
  412SOL    HW1 1256   0.125   2.373   1.073
  412SOL    HW2 1257   0.053   2.421   1.212
  413SOL     OW 1258   0.189   2.382   1.722
  413SOL    HW1 1259   0.248   2.342   1.652
  413SOL    HW2 1260   0.131   2.453   1.681
  414SOL     OW 1261   1.369   2.812   1.660
  414SOL    HW1 1262   1.408   2.901   1.680
  414SOL    HW2 1263   1.379   2.792   1.563
  415SOL     OW 1264   0.815   2.434   0.325
  415SOL    HW1 1265   0.822   2.345   0.279
  415SOL    HW2 1266   0.721   2.468   0.317
  416SOL     OW 1267   1.657   2.466   1.206
  416SOL    HW1 1268   1.619   2.397   1.268
  416SOL    HW2 1269   1.739   2.430   1.162
  417SOL     OW 1270   0.671   2.326   1.269
  417SOL    HW1 1271   0.637   2.237   1.239
  417SOL    HW2 1272   0.697   2.380   1.189
  418SOL     OW 1273   0.473   2.362   0.191
  418SOL    HW1 1274   0.534   2.442   0.195
  418SOL    HW2 1275   0.378   2.393   0.198
  419SOL     OW 1276   0.159   2.999   1.466
  419SOL    HW1 1277   0.181   2.938   1.542
  419SOL    HW2 1278   0.169   2.950   1.380
  420SOL     OW 1279   1.347   2.921   1.234
  420SOL    HW1 1280   1.371   2.858   1.160
  420SOL    HW2 1281   1.257   2.961   1.216
  421SOL     OW 1282   1.302   2.717   0.309
  421SOL    HW1 1283   1.216   2.686   0.351
  421SOL    HW2 1284   1.298   2.703   0.210
  422SOL     OW 1285   0.903   1.948   0.133
  422SOL    HW1 1286   0.954   1.949   0.047
  422SOL    HW2 1287   0.959   1.906   0.204
  423SOL     OW 1288   1.726   1.997   0.523
  423SOL    HW1 1289   1.799   1.980   0.456
  423SOL    HW2 1290   1.695   1.910   0.561
  424SOL     OW 1291   1.280   2.789   0.672
  424SOL    HW1 1292   1.340   2.708   0.674
  424SOL    HW2 1293   1.320   2.858   0.612
  425SOL     OW 1294   1.841   2.037   0.963
  425SOL    HW1 1295   1.880   1.952   0.927
  425SOL    HW2 1296   1.743   2.039   0.944
  426SOL     OW 1297   0.263   2.188   0.720
  426SOL    HW1 1298   0.184   2.239   0.686
  426SOL    HW2 1299   0.254   2.173   0.818
  427SOL     OW 1300   0.916   2.772   0.291
  427SOL    HW1 1301   0.979   2.810   0.223
  427SOL    HW2 1302   0.956   2.689   0.330
  428SOL     OW 1303   1.014   2.098   0.971
  428SOL    HW1 1304   1.006   2.062   0.878
  428SOL    HW2 1305   1.012   2.022   1.036
  429SOL     OW 1306   1.709   2.247   1.381
  429SOL    HW1 1307   1.782   2.316   1.385
  429SOL    HW2 1308   1.737   2.172   1.322
  430SOL     OW 1309   0.105   2.875   1.726
  430SOL    HW1 1310   0.028   2.842   1.780
  430SOL    HW2 1311   0.190   2.845   1.768
  431SOL     OW 1312   0.672   2.065   1.489
  431SOL    HW1 1313   0.762   2.049   1.449
  431SOL    HW2 1314   0.680   2.070   1.588
  432SOL     OW 1315   0.075   2.207   0.033
  432SOL    HW1 1316  -0.017   2.179   0.004
  432SOL    HW2 1317   0.106   2.284  -0.023
  433SOL     OW 1318   1.440   2.718   1.398
  433SOL    HW1 1319   1.383   2.770   1.335
  433SOL    HW2 1320   1.536   2.730   1.374
  434SOL     OW 1321   0.072   2.028   0.318
  434SOL    HW1 1322   0.055   2.111   0.264
  434SOL    HW2 1323   0.162   1.991   0.296
  435SOL     OW 1324   1.183   3.197   0.119
  435SOL    HW1 1325   1.084   3.186   0.121
  435SOL    HW2 1326   1.217   3.212   0.212
  436SOL     OW 1327   0.613   2.704   1.431
  436SOL    HW1 1328   0.669   2.785   1.414
  436SOL    HW2 1329   0.672   2.624   1.434
  437SOL     OW 1330   0.716   2.427   1.708
  437SOL    HW1 1331   0.735   2.492   1.782
  437SOL    HW2 1332   0.776   2.347   1.717
  438SOL     OW 1333   1.674   2.745   1.254
  438SOL    HW1 1334   1.647   2.656   1.217
  438SOL    HW2 1335   1.675   2.813   1.181
  439SOL     OW 1336   1.225   2.187   0.449
  439SOL    HW1 1337   1.290   2.113   0.438
  439SOL    HW2 1338   1.245   2.237   0.533
  440SOL     OW 1339   0.594   2.607   0.652
  440SOL    HW1 1340   0.644   2.692   0.633
  440SOL    HW2 1341   0.506   2.609   0.604
  441SOL     OW 1342   1.777   2.204   1.642
  441SOL    HW1 1343   1.760   2.235   1.548
  441SOL    HW2 1344   1.693   2.167   1.680
  442SOL     OW 1345   1.730   2.796   1.517
  442SOL    HW1 1346   1.768   2.887   1.532
  442SOL    HW2 1347   1.722   2.779   1.418
  443SOL     OW 1348   0.859   2.818   0.861
  443SOL    HW1 1349   0.913   2.749   0.909
  443SOL    HW2 1350   0.827   2.887   0.927
  444SOL     OW 1351   1.083   2.846   0.087
  444SOL    HW1 1352   1.060   2.899   0.005
  444SOL    HW2 1353   1.164   2.790   0.068
  445SOL     OW 1354   0.079   3.102   0.653
  445SOL    HW1 1355   0.078   3.055   0.741
  445SOL    HW2 1356   0.161   3.074   0.602
  446SOL     OW 1357   1.824   2.054   1.227
  446SOL    HW1 1358   1.820   1.964   1.271
  446SOL    HW2 1359   1.827   2.043   1.128
  447SOL     OW 1360   0.428   2.286   0.520
  447SOL    HW1 1361   0.458   2.214   0.458
  447SOL    HW2 1362   0.389   2.246   0.603
  448SOL     OW 1363   0.317   2.409   1.280
  448SOL    HW1 1364   0.355   2.350   1.352
  448SOL    HW2 1365   0.357   2.383   1.192
  449SOL     OW 1366   1.424   2.076   1.112
  449SOL    HW1 1367   1.476   2.011   1.167
  449SOL    HW2 1368   1.375   2.139   1.173
  450SOL     OW 1369   1.001   1.896   1.154
  450SOL    HW1 1370   0.938   1.824   1.123
  450SOL    HW2 1371   1.094   1.860   1.154
  451SOL     OW 1372   1.352   1.914   0.168
  451SOL    HW1 1373   1.387   1.873   0.084
  451SOL    HW2 1374   1.262   1.876   0.188
  452SOL     OW 1375   1.300   2.315   0.691
  452SOL    HW1 1376   1.241   2.395   0.695
  452SOL    HW2 1377   1.315   2.280   0.784
  453SOL     OW 1378   1.593   2.083   0.882
  453SOL    HW1 1379   1.509   2.082   0.936
  453SOL    HW2 1380   1.595   2.166   0.826
  454SOL     OW 1381   0.039   2.939   0.300
  454SOL    HW1 1382   0.138   2.928   0.291
  454SOL    HW2 1383  -0.001   2.853   0.332
  455SOL     OW 1384   0.230   2.490   1.975
  455SOL    HW1 1385   0.137   2.488   2.012
  455SOL    HW2 1386   0.231   2.451   1.883
  456SOL     OW 1387   0.225   2.137   2.858
  456SOL    HW1 1388   0.260   2.120   2.950
  456SOL    HW2 1389   0.137   2.092   2.846
  457SOL     OW 1390   0.019   2.230   2.509
  457SOL    HW1 1391  -0.063   2.273   2.548
  457SOL    HW2 1392  -0.009   2.157   2.446
  458SOL     OW 1393   1.135   2.565   2.579
  458SOL    HW1 1394   1.192   2.643   2.554
  458SOL    HW2 1395   1.075   2.591   2.655
  459SOL     OW 1396   1.755   2.469   2.093
  459SOL    HW1 1397   1.743   2.456   1.994
  459SOL    HW2 1398   1.725   2.388   2.142
  460SOL     OW 1399   0.685   2.874   2.527
  460SOL    HW1 1400   0.754   2.858   2.597
  460SOL    HW2 1401   0.612   2.931   2.565
  461SOL     OW 1402   1.603   2.309   2.599
  461SOL    HW1 1403   1.529   2.355   2.549
  461SOL    HW2 1404   1.654   2.377   2.652
  462SOL     OW 1405   0.240   2.953   2.748
  462SOL    HW1 1406   0.254   2.869   2.800
  462SOL    HW2 1407   0.185   3.017   2.803
  463SOL     OW 1408   0.606   2.826   1.985
  463SOL    HW1 1409   0.613   2.910   1.931
  463SOL    HW2 1410   0.652   2.839   2.073
  464SOL     OW 1411   0.122   2.505   2.425
  464SOL    HW1 1412   0.077   2.417   2.442
  464SOL    HW2 1413   0.121   2.559   2.509
  465SOL     OW 1414   1.689   2.784   2.474
  465SOL    HW1 1415   1.784   2.755   2.482
  465SOL    HW2 1416   1.681   2.849   2.399
  466SOL     OW 1417   0.809   1.866   2.364
  466SOL    HW1 1418   0.849   1.957   2.355
  466SOL    HW2 1419   0.709   1.874   2.370
  467SOL     OW 1420   0.197   2.838   3.126
  467SOL    HW1 1421   0.286   2.793   3.112
  467SOL    HW2 1422   0.124   2.773   3.107
  468SOL     OW 1423   1.525   2.861   2.052
  468SOL    HW1 1424   1.462   2.785   2.065
  468SOL    HW2 1425   1.573   2.879   2.138
  469SOL     OW 1426   0.598   2.591   2.132
  469SOL    HW1 1427   0.622   2.660   2.064
  469SOL    HW2 1428   0.520   2.624   2.186
  470SOL     OW 1429   1.281   2.207   2.806
  470SOL    HW1 1430   1.195   2.157   2.793
  470SOL    HW2 1431   1.343   2.153   2.862
  471SOL     OW 1432   1.041   2.563   2.291
  471SOL    HW1 1433   1.067   2.559   2.387
  471SOL    HW2 1434   0.956   2.512   2.277
  472SOL     OW 1435   0.076   2.673   2.651
  472SOL    HW1 1436   0.175   2.661   2.660
  472SOL    HW2 1437   0.052   2.768   2.672
  473SOL     OW 1438   0.865   2.210   2.057
  473SOL    HW1 1439   0.924   2.273   2.008
  473SOL    HW2 1440   0.884   2.116   2.028
  474SOL     OW 1441   0.550   2.058   2.747
  474SOL    HW1 1442   0.545   2.053   2.847
  474SOL    HW2 1443   0.552   2.154   2.718
  475SOL     OW 1444   1.458   2.597   2.590
  475SOL    HW1 1445   1.453   2.532   2.665
  475SOL    HW2 1446   1.538   2.656   2.603
  476SOL     OW 1447   1.400   1.969   2.288
  476SOL    HW1 1448   1.376   1.932   2.198
  476SOL    HW2 1449   1.499   1.985   2.292
  477SOL     OW 1450   0.382   2.562   2.342
  477SOL    HW1 1451   0.427   2.472   2.339
  477SOL    HW2 1452   0.288   2.551   2.375
  478SOL     OW 1453   0.614   1.984   1.979
  478SOL    HW1 1454   0.712   1.962   1.986
  478SOL    HW2 1455   0.583   1.967   1.886
  479SOL     OW 1456   0.922   2.365   2.761
  479SOL    HW1 1457   0.897   2.356   2.665
  479SOL    HW2 1458   0.970   2.283   2.792
  480SOL     OW 1459   0.539   1.926   2.374
  480SOL    HW1 1460   0.458   1.927   2.432
  480SOL    HW2 1461   0.542   2.009   2.319
  481SOL     OW 1462   0.297   1.897   2.033
  481SOL    HW1 1463   0.346   1.981   2.012
  481SOL    HW2 1464   0.359   1.832   2.078
  482SOL     OW 1465   0.935   2.098   2.342
  482SOL    HW1 1466   0.887   2.139   2.264
  482SOL    HW2 1467   1.034   2.096   2.323
  483SOL     OW 1468   1.032   2.411   1.878
  483SOL    HW1 1469   0.991   2.493   1.839
  483SOL    HW2 1470   1.096   2.437   1.951
  484SOL     OW 1471   0.866   2.316   2.504
  484SOL    HW1 1472   0.834   2.388   2.442
  484SOL    HW2 1473   0.890   2.235   2.451
  485SOL     OW 1474   1.017   1.901   2.615
  485SOL    HW1 1475   0.945   1.906   2.546
  485SOL    HW2 1476   0.993   1.832   2.684
  486SOL     OW 1477   1.429   3.035   2.729
  486SOL    HW1 1478   1.374   2.951   2.722
  486SOL    HW2 1479   1.455   3.064   2.637
  487SOL     OW 1480   1.466   2.452   2.854
  487SOL    HW1 1481   1.436   2.357   2.861
  487SOL    HW2 1482   1.539   2.468   2.920
  488SOL     OW 1483   1.857   2.695   2.239
  488SOL    HW1 1484   1.899   2.631   2.303
  488SOL    HW2 1485   1.819   2.644   2.161
  489SOL     OW 1486   1.390   2.437   1.940
  489SOL    HW1 1487   1.336   2.416   2.021
  489SOL    HW2 1488   1.481   2.396   1.949
  490SOL     OW 1489   0.527   2.118   2.190
  490SOL    HW1 1490   0.554   2.059   2.115
  490SOL    HW2 1491   0.527   2.213   2.159
  491SOL     OW 1492   1.638   2.961   2.941
  491SOL    HW1 1493   1.643   3.042   3.000
  491SOL    HW2 1494   1.552   2.963   2.890
  492SOL     OW 1495   0.566   2.399   2.727
  492SOL    HW1 1496   0.578   2.465   2.653
  492SOL    HW2 1497   0.612   2.433   2.810
  493SOL     OW 1498   1.582   2.501   2.334
  493SOL    HW1 1499   1.551   2.562   2.407
  493SOL    HW2 1500   1.632   2.553   2.265
  494SOL     OW 1501   0.573   2.732   2.891
  494SOL    HW1 1502   0.617   2.821   2.882
  494SOL    HW2 1503   0.510   2.732   2.968
  495SOL     OW 1504   1.209   2.387   2.137
  495SOL    HW1 1505   1.222   2.303   2.191
  495SOL    HW2 1506   1.180   2.461   2.197
  496SOL     OW 1507   0.307   2.075   3.093
  496SOL    HW1 1508   0.284   2.112   3.183
  496SOL    HW2 1509   0.277   1.980   3.087
  497SOL     OW 1510   0.732   2.496   2.926
  497SOL    HW1 1511   0.791   2.470   2.850
  497SOL    HW2 1512   0.704   2.592   2.915
  498SOL     OW 1513   0.307   1.925   2.480
  498SOL    HW1 1514   0.296   2.019   2.513
  498SOL    HW2 1515   0.302   1.862   2.557
  499SOL     OW 1516   1.622   2.229   2.236
  499SOL    HW1 1517   1.624   2.153   2.300
  499SOL    HW2 1518   1.574   2.306   2.276
  500SOL     OW 1519   1.540   2.136   1.987
  500SOL    HW1 1520   1.479   2.061   2.010
  500SOL    HW2 1521   1.562   2.188   2.070
  501SOL     OW 1522   1.303   2.700   1.904
  501SOL    HW1 1523   1.337   2.607   1.919
  501SOL    HW2 1524   1.321   2.727   1.809
  502SOL     OW 1525   0.319   2.672   2.811
  502SOL    HW1 1526   0.412   2.708   2.816
  502SOL    HW2 1527   0.313   2.587   2.863
  503SOL     OW 1528   0.339   2.371   2.868
  503SOL    HW1 1529   0.287   2.288   2.851
  503SOL    HW2 1530   0.416   2.376   2.804
  504SOL     OW 1531   1.002   2.658   3.100
  504SOL    HW1 1532   1.043   2.626   3.186
  504SOL    HW2 1533   0.906   2.631   3.097
  505SOL     OW 1534   0.815   2.434   2.187
  505SOL    HW1 1535   0.822   2.345   2.141
  505SOL    HW2 1536   0.721   2.468   2.179
  506SOL     OW 1537   0.671   2.326   3.131
  506SOL    HW1 1538   0.637   2.237   3.101
  506SOL    HW2 1539   0.697   2.380   3.051
  507SOL     OW 1540   0.473   2.362   2.053
  507SOL    HW1 1541   0.534   2.442   2.057
  507SOL    HW2 1542   0.378   2.393   2.060
  508SOL     OW 1543   1.302   2.717   2.171
  508SOL    HW1 1544   1.216   2.686   2.213
  508SOL    HW2 1545   1.298   2.703   2.072
  509SOL     OW 1546   1.726   1.997   2.385
  509SOL    HW1 1547   1.799   1.980   2.318
  509SOL    HW2 1548   1.695   1.910   2.423
  510SOL     OW 1549   1.280   2.789   2.534
  510SOL    HW1 1550   1.340   2.708   2.536
  510SOL    HW2 1551   1.320   2.858   2.474
  511SOL     OW 1552   1.841   2.037   2.825
  511SOL    HW1 1553   1.880   1.952   2.789
  511SOL    HW2 1554   1.743   2.039   2.806
  512SOL     OW 1555   0.263   2.188   2.582
  512SOL    HW1 1556   0.184   2.239   2.548
  512SOL    HW2 1557   0.254   2.173   2.680
  513SOL     OW 1558   0.916   2.772   2.153
  513SOL    HW1 1559   0.979   2.810   2.085
  513SOL    HW2 1560   0.956   2.689   2.192
  514SOL     OW 1561   1.014   2.098   2.833
  514SOL    HW1 1562   1.006   2.062   2.740
  514SOL    HW2 1563   1.012   2.022   2.898
  515SOL     OW 1564   0.075   2.207   1.895
  515SOL    HW1 1565  -0.017   2.179   1.866
  515SOL    HW2 1566   0.106   2.284   1.839
  516SOL     OW 1567   0.072   2.028   2.180
  516SOL    HW1 1568   0.055   2.111   2.126
  516SOL    HW2 1569   0.162   1.991   2.158
  517SOL     OW 1570   1.183   3.197   1.981
  517SOL    HW1 1571   1.084   3.186   1.983
  517SOL    HW2 1572   1.217   3.212   2.074
  518SOL     OW 1573   1.674   2.745   3.116
  518SOL    HW1 1574   1.647   2.656   3.079
  518SOL    HW2 1575   1.675   2.813   3.043
  519SOL     OW 1576   1.225   2.187   2.311
  519SOL    HW1 1577   1.290   2.113   2.300
  519SOL    HW2 1578   1.245   2.237   2.395
  520SOL     OW 1579   0.594   2.607   2.514
  520SOL    HW1 1580   0.644   2.692   2.495
  520SOL    HW2 1581   0.506   2.609   2.466
  521SOL     OW 1582   0.859   2.818   2.723
  521SOL    HW1 1583   0.913   2.749   2.771
  521SOL    HW2 1584   0.827   2.887   2.789
  522SOL     OW 1585   1.083   2.846   1.949
  522SOL    HW1 1586   1.060   2.899   1.867
  522SOL    HW2 1587   1.164   2.790   1.930
  523SOL     OW 1588   0.079   3.102   2.515
  523SOL    HW1 1589   0.078   3.055   2.603
  523SOL    HW2 1590   0.161   3.074   2.464
  524SOL     OW 1591   1.824   2.054   3.089
  524SOL    HW1 1592   1.820   1.964   3.133
  524SOL    HW2 1593   1.827   2.043   2.990
  525SOL     OW 1594   0.428   2.286   2.382
  525SOL    HW1 1595   0.458   2.214   2.320
  525SOL    HW2 1596   0.389   2.246   2.465
  526SOL     OW 1597   1.352   1.914   2.030
  526SOL    HW1 1598   1.387   1.873   1.946
  526SOL    HW2 1599   1.262   1.876   2.050
  527SOL     OW 1600   1.300   2.315   2.553
  527SOL    HW1 1601   1.241   2.395   2.557
  527SOL    HW2 1602   1.315   2.280   2.646
  528SOL     OW 1603   1.593   2.083   2.744
  528SOL    HW1 1604   1.509   2.082   2.798
  528SOL    HW2 1605   1.595   2.166   2.688
  529SOL     OW 1606   0.039   2.939   2.162
  529SOL    HW1 1607   0.138   2.928   2.153
  529SOL    HW2 1608  -0.001   2.853   2.194
  530SOL     OW 1609   2.092   0.628   0.113
  530SOL    HW1 1610   1.999   0.626   0.150
  530SOL    HW2 1611   2.093   0.589   0.021
  531SOL     OW 1612   2.087   0.275   0.996
  531SOL    HW1 1613   2.122   0.258   1.088
  531SOL    HW2 1614   1.999   0.230   0.984
  532SOL     OW 1615   1.881   0.368   0.647
  532SOL    HW1 1616   1.799   0.411   0.686
  532SOL    HW2 1617   1.853   0.295   0.584
  533SOL     OW 1618   2.431   1.275   1.165
  533SOL    HW1 1619   2.338   1.268   1.128
  533SOL    HW2 1620   2.442   1.364   1.209
  534SOL     OW 1621   2.630   1.144   1.023
  534SOL    HW1 1622   2.552   1.161   1.083
  534SOL    HW2 1623   2.664   1.231   0.987
  535SOL     OW 1624   2.712   0.798   1.823
  535SOL    HW1 1625   2.708   0.874   1.888
  535SOL    HW2 1626   2.734   0.834   1.732
  536SOL     OW 1627   2.547   1.012   0.665
  536SOL    HW1 1628   2.616   0.996   0.735
  536SOL    HW2 1629   2.474   1.069   0.703
  537SOL     OW 1630   2.548   1.161   1.803
  537SOL    HW1 1631   2.608   1.240   1.817
  537SOL    HW2 1632   2.462   1.192   1.762
  538SOL     OW 1633   2.197   1.435   1.061
  538SOL    HW1 1634   2.119   1.404   1.008
  538SOL    HW2 1635   2.255   1.493   1.004
  539SOL     OW 1636   2.300   0.392   1.499
  539SOL    HW1 1637   2.382   0.336   1.508
  539SOL    HW2 1638   2.219   0.334   1.503
  540SOL     OW 1639   2.093   1.713   0.483
  540SOL    HW1 1640   2.127   1.790   0.537
  540SOL    HW2 1641   2.137   1.713   0.393
  541SOL     OW 1642   2.092   1.434   0.538
  541SOL    HW1 1643   2.066   1.530   0.538
  541SOL    HW2 1644   2.021   1.380   0.583
  542SOL     OW 1645   2.102   1.091   0.886
  542SOL    HW1 1646   2.116   1.007   0.938
  542SOL    HW2 1647   2.047   1.155   0.941
  543SOL     OW 1648   2.482   1.786   1.439
  543SOL    HW1 1649   2.390   1.769   1.474
  543SOL    HW2 1650   2.510   1.878   1.465
  544SOL     OW 1651   2.468   0.964   0.123
  544SOL    HW1 1652   2.475   1.048   0.069
  544SOL    HW2 1653   2.514   0.977   0.211
  545SOL     OW 1654   1.984   0.643   0.563
  545SOL    HW1 1655   1.939   0.555   0.580
  545SOL    HW2 1656   1.983   0.697   0.647
  546SOL     OW 1657   1.889   1.596   0.117
  546SOL    HW1 1658   1.870   1.500   0.138
  546SOL    HW2 1659   1.856   1.654   0.192
  547SOL     OW 1660   1.975   0.737   1.597
  547SOL    HW1 1661   2.063   0.724   1.642
  547SOL    HW2 1662   1.962   0.834   1.575
  548SOL     OW 1663   2.475   1.365   0.726
  548SOL    HW1 1664   2.426   1.278   0.735
  548SOL    HW2 1665   2.452   1.408   0.639
  549SOL     OW 1666   2.671   0.004   0.502
  549SOL    HW1 1667   2.711   0.095   0.493
  549SOL    HW2 1668   2.571   0.012   0.508
  550SOL     OW 1669   2.059   0.976   1.264
  550SOL    HW1 1670   2.148   0.931   1.250
  550SOL    HW2 1671   1.986   0.911   1.245
  551SOL     OW 1672   2.179   0.251   1.801
  551SOL    HW1 1673   2.250   0.322   1.807
  551SOL    HW2 1674   2.091   0.290   1.829
  552SOL     OW 1675   2.460   0.729   0.270
  552SOL    HW1 1676   2.484   0.798   0.202
  552SOL    HW2 1677   2.382   0.762   0.324
  553SOL     OW 1678   2.669   0.605   1.465
  553SOL    HW1 1679   2.622   0.602   1.554
  553SOL    HW2 1680   2.618   0.550   1.399
  554SOL     OW 1681   2.835   0.890   1.572
  554SOL    HW1 1682   2.881   0.806   1.543
  554SOL    HW2 1683   2.779   0.924   1.497
  555SOL     OW 1684   2.853   0.410   1.242
  555SOL    HW1 1685   2.776   0.444   1.296
  555SOL    HW2 1686   2.819   0.359   1.163
  556SOL     OW 1687   2.903   0.701   0.429
  556SOL    HW1 1688   2.929   0.697   0.525
  556SOL    HW2 1689   2.818   0.650   0.415
  557SOL     OW 1690   1.938   0.811   0.789
  557SOL    HW1 1691   2.037   0.799   0.798
  557SOL    HW2 1692   1.914   0.906   0.810
  558SOL     OW 1693   1.992   1.821   1.571
  558SOL    HW1 1694   1.982   1.806   1.670
  558SOL    HW2 1695   1.906   1.857   1.535
  559SOL     OW 1696   2.727   0.348   0.195
  559SOL    HW1 1697   2.786   0.411   0.146
  559SOL    HW2 1698   2.746   0.254   0.166
  560SOL     OW 1699   2.412   0.196   0.885
  560SOL    HW1 1700   2.407   0.191   0.985
  560SOL    HW2 1701   2.414   0.292   0.856
  561SOL     OW 1702   2.870   1.456   0.477
  561SOL    HW1 1703   2.824   1.528   0.425
  561SOL    HW2 1704   2.866   1.476   0.575
  562SOL     OW 1705   2.213   1.801   0.853
  562SOL    HW1 1706   2.263   1.715   0.859
  562SOL    HW2 1707   2.278   1.878   0.850
  563SOL     OW 1708   2.183   0.943   0.242
  563SOL    HW1 1709   2.265   0.982   0.200
  563SOL    HW2 1710   2.156   0.861   0.193
  564SOL     OW 1711   2.323   1.266   1.727
  564SOL    HW1 1712   2.273   1.267   1.641
  564SOL    HW2 1713   2.260   1.248   1.803
  565SOL     OW 1714   2.064   0.285   1.498
  565SOL    HW1 1715   1.984   0.345   1.485
  565SOL    HW2 1716   2.054   0.236   1.584
  566SOL     OW 1717   2.326   1.743   0.323
  566SOL    HW1 1718   2.359   1.782   0.409
  566SOL    HW2 1719   2.402   1.736   0.258
  567SOL     OW 1720   2.111   1.785   1.241
  567SOL    HW1 1721   2.168   1.720   1.291
  567SOL    HW2 1722   2.095   1.752   1.148
  568SOL     OW 1723   2.802   1.698   0.904
  568SOL    HW1 1724   2.882   1.641   0.925
  568SOL    HW2 1725   2.753   1.658   0.827
  569SOL     OW 1726   2.244   0.700   0.480
  569SOL    HW1 1727   2.289   0.610   0.477
  569SOL    HW2 1728   2.150   0.689   0.513
  570SOL     OW 1729   2.476   0.122   0.117
  570SOL    HW1 1730   2.574   0.100   0.124
  570SOL    HW2 1731   2.445   0.105   0.024
  571SOL     OW 1732   2.643   0.264   1.749
  571SOL    HW1 1733   2.710   0.203   1.792
  571SOL    HW2 1734   2.570   0.283   1.814
  572SOL     OW 1735   2.750   1.514   1.195
  572SOL    HW1 1736   2.727   1.489   1.101
  572SOL    HW2 1737   2.811   1.445   1.234
  573SOL     OW 1738   2.665   1.402   0.924
  573SOL    HW1 1739   2.755   1.416   0.882
  573SOL    HW2 1740   2.594   1.404   0.853
  574SOL     OW 1741   2.784   0.503   0.899
  574SOL    HW1 1742   2.759   0.494   0.803
  574SOL    HW2 1743   2.832   0.421   0.930
  575SOL     OW 1744   2.401   0.064   0.512
  575SOL    HW1 1745   2.320   0.065   0.570
  575SOL    HW2 1746   2.404   0.147   0.457
  576SOL     OW 1747   3.296   1.188   0.041
  576SOL    HW1 1748   3.328   1.112   0.098
  576SOL    HW2 1749   3.204   1.215   0.071
  577SOL     OW 1750   2.159   0.035   0.171
  577SOL    HW1 1751   2.208   0.119   0.150
  577SOL    HW2 1752   2.221  -0.030   0.216
  578SOL     OW 1753   2.797   0.236   0.480
  578SOL    HW1 1754   2.749   0.277   0.402
  578SOL    HW2 1755   2.896   0.234   0.461
  579SOL     OW 1756   3.089   1.570   0.793
  579SOL    HW1 1757   3.110   1.644   0.728
  579SOL    HW2 1758   3.157   1.570   0.866
  580SOL     OW 1759   2.321   1.152   0.741
  580SOL    HW1 1760   2.250   1.125   0.806
  580SOL    HW2 1761   2.295   1.124   0.648
  581SOL     OW 1762   2.894   0.549   0.016
  581SOL    HW1 1763   2.853   0.631  -0.023
  581SOL    HW2 1764   2.958   0.575   0.089
  582SOL     OW 1765   1.940   0.556   1.386
  582SOL    HW1 1766   2.032   0.555   1.345
  582SOL    HW2 1767   1.934   0.630   1.453
  583SOL     OW 1768   2.423   0.222   1.147
  583SOL    HW1 1769   2.461   0.138   1.184
  583SOL    HW2 1770   2.335   0.241   1.191
  584SOL     OW 1771   2.728   0.454   0.642
  584SOL    HW1 1772   2.696   0.526   0.580
  584SOL    HW2 1773   2.752   0.373   0.589
  585SOL     OW 1774   2.879   0.039   0.753
  585SOL    HW1 1775   2.807   0.044   0.684
  585SOL    HW2 1776   2.855  -0.030   0.822
  586SOL     OW 1777   2.350   1.385   0.174
  586SOL    HW1 1778   2.263   1.370   0.221
  586SOL    HW2 1779   2.333   1.411   0.079
  587SOL     OW 1780   2.389   0.256   0.328
  587SOL    HW1 1781   2.416   0.197   0.253
  587SOL    HW2 1782   2.389   0.351   0.297
  588SOL     OW 1783   2.777   0.089   1.402
  588SOL    HW1 1784   2.802   0.069   1.307
  588SOL    HW2 1785   2.849   0.145   1.444
  589SOL     OW 1786   2.842   1.116   1.719
  589SOL    HW1 1787   2.743   1.122   1.729
  589SOL    HW2 1788   2.865   1.036   1.663
  590SOL     OW 1789   2.567   1.050   0.368
  590SOL    HW1 1790   2.553   1.057   0.467
  590SOL    HW2 1791   2.651   0.999   0.350
  591SOL     OW 1792   2.272   0.813   1.251
  591SOL    HW1 1793   2.358   0.825   1.301
  591SOL    HW2 1794   2.230   0.726   1.278
  592SOL     OW 1795   1.926   1.564   1.331
  592SOL    HW1 1796   1.880   1.646   1.297
  592SOL    HW2 1797   2.024   1.583   1.340
  593SOL     OW 1798   2.229   1.100   0.501
  593SOL    HW1 1799   2.222   1.183   0.445
  593SOL    HW2 1800   2.233   1.020   0.441
  594SOL     OW 1801   2.428   0.537   0.865
  594SOL    HW1 1802   2.440   0.603   0.791
  594SOL    HW2 1803   2.474   0.571   0.948
  595SOL     OW 1804   2.216   1.510   1.329
  595SOL    HW1 1805   2.195   1.466   1.242
  595SOL    HW2 1806   2.313   1.536   1.332
  596SOL     OW 1807   2.264   0.751   1.598
  596SOL    HW1 1808   2.332   0.806   1.551
  596SOL    HW2 1809   2.304   0.663   1.625
  597SOL     OW 1810   2.875   0.105   1.770
  597SOL    HW1 1811   2.881   0.190   1.718
  597SOL    HW2 1812   2.907   0.029   1.713
  598SOL     OW 1813   2.366   0.050   1.740
  598SOL    HW1 1814   2.324  -0.007   1.670
  598SOL    HW2 1815   2.300   0.119   1.772
  599SOL     OW 1816   2.435   0.870   1.029
  599SOL    HW1 1817   2.479   0.959   1.020
  599SOL    HW2 1818   2.372   0.870   1.106
  600SOL     OW 1819   3.071   0.525   0.275
  600SOL    HW1 1820   3.084   0.441   0.329
  600SOL    HW2 1821   3.042   0.599   0.335
  601SOL     OW 1822   2.169   0.213   1.231
  601SOL    HW1 1823   2.146   0.250   1.321
  601SOL    HW2 1824   2.139   0.118   1.225
  602SOL     OW 1825   1.899   1.310   1.282
  602SOL    HW1 1826   1.952   1.261   1.350
  602SOL    HW2 1827   1.921   1.408   1.287
  603SOL     OW 1828   2.594   0.634   1.064
  603SOL    HW1 1829   2.653   0.608   0.988
  603SOL    HW2 1830   2.566   0.730   1.053
  604SOL     OW 1831   2.169   0.063   0.618
  604SOL    HW1 1832   2.158   0.157   0.651
  604SOL    HW2 1833   2.164   0.000   0.695
  605SOL     OW 1834   2.885   0.766   0.966
  605SOL    HW1 1835   2.900   0.787   1.062
  605SOL    HW2 1836   2.855   0.671   0.957
  606SOL     OW 1837   2.842   1.573   1.700
  606SOL    HW1 1838   2.822   1.617   1.612
  606SOL    HW2 1839   2.881   1.482   1.684
  607SOL     OW 1840   2.212   0.898   1.804
  607SOL    HW1 1841   2.288   0.942   1.852
  607SOL    HW2 1842   2.247   0.851   1.722
  608SOL     OW 1843   2.181   0.810   0.949
  608SOL    HW1 1844   2.274   0.846   0.954
  608SOL    HW2 1845   2.175   0.725   1.001
  609SOL     OW 1846   2.201   0.509   1.006
  609SOL    HW1 1847   2.149   0.426   0.989
  609SOL    HW2 1848   2.278   0.514   0.942
  610SOL     OW 1849   1.870   1.326   0.200
  610SOL    HW1 1850   1.777   1.347   0.169
  610SOL    HW2 1851   1.880   1.227   0.213
  611SOL     OW 1852   1.950   1.801   0.927
  611SOL    HW1 1853   1.908   1.715   0.900
  611SOL    HW2 1854   2.044   1.804   0.893
  612SOL     OW 1855   2.366   1.568   0.910
  612SOL    HW1 1856   2.432   1.642   0.919
  612SOL    HW2 1857   2.410   1.489   0.868
  613SOL     OW 1858   2.864   0.796   1.238
  613SOL    HW1 1859   2.905   0.764   1.324
  613SOL    HW2 1860   2.768   0.769   1.235
  614SOL     OW 1861   1.902   0.544   1.114
  614SOL    HW1 1862   1.987   0.511   1.073
  614SOL    HW2 1863   1.915   0.559   1.212
  615SOL     OW 1864   2.051   0.520   1.722
  615SOL    HW1 1865   2.110   0.480   1.652
  615SOL    HW2 1866   1.993   0.591   1.681
  616SOL     OW 1867   2.677   0.572   0.325
  616SOL    HW1 1868   2.684   0.483   0.279
  616SOL    HW2 1869   2.583   0.606   0.317
  617SOL     OW 1870   2.114   1.564   1.744
  617SOL    HW1 1871   2.084   1.621   1.820
  617SOL    HW2 1872   2.107   1.467   1.770
  618SOL     OW 1873   2.533   0.464   1.269
  618SOL    HW1 1874   2.499   0.375   1.239
  618SOL    HW2 1875   2.559   0.518   1.189
  619SOL     OW 1876   2.792   1.678   1.465
  619SOL    HW1 1877   2.768   1.660   1.370
  619SOL    HW2 1878   2.822   1.772   1.475
  620SOL     OW 1879   2.335   0.500   0.191
  620SOL    HW1 1880   2.396   0.580   0.195
  620SOL    HW2 1881   2.240   0.531   0.198
  621SOL     OW 1882   2.021   1.137   1.466
  621SOL    HW1 1883   2.043   1.076   1.542
  621SOL    HW2 1884   2.031   1.088   1.380
  622SOL     OW 1885   1.945   1.258   1.022
  622SOL    HW1 1886   1.940   1.257   1.122
  622SOL    HW2 1887   1.862   1.217   0.984
  623SOL     OW 1888   2.550   1.662   1.716
  623SOL    HW1 1889   2.494   1.743   1.725
  623SOL    HW2 1890   2.602   1.666   1.630
  624SOL     OW 1891   2.765   0.086   0.133
  624SOL    HW1 1892   2.816   0.087   0.047
  624SOL    HW2 1893   2.821   0.044   0.204
  625SOL     OW 1894   1.992   1.794   1.851
  625SOL    HW1 1895   1.951   1.720   1.904
  625SOL    HW2 1896   2.056   1.845   1.909
  626SOL     OW 1897   3.142   0.927   0.672
  626SOL    HW1 1898   3.202   0.846   0.674
  626SOL    HW2 1899   3.182   0.996   0.612
  627SOL     OW 1900   2.692   1.273   1.422
  627SOL    HW1 1901   2.687   1.306   1.517
  627SOL    HW2 1902   2.606   1.292   1.376
  628SOL     OW 1903   2.534   1.616   0.154
  628SOL    HW1 1904   2.543   1.626   0.055
  628SOL    HW2 1905   2.494   1.527   0.175
  629SOL     OW 1906   2.125   0.326   0.720
  629SOL    HW1 1907   2.046   0.377   0.686
  629SOL    HW2 1908   2.116   0.311   0.818
  630SOL     OW 1909   2.684   1.002   1.372
  630SOL    HW1 1910   2.724   1.001   1.280
  630SOL    HW2 1911   2.694   1.094   1.412
  631SOL     OW 1912   2.778   0.910   0.291
  631SOL    HW1 1913   2.841   0.948   0.223
  631SOL    HW2 1914   2.818   0.827   0.330
  632SOL     OW 1915   2.234   1.288   1.490
  632SOL    HW1 1916   2.221   1.381   1.456
  632SOL    HW2 1917   2.150   1.236   1.477
  633SOL     OW 1918   2.901   1.098   0.696
  633SOL    HW1 1919   2.831   1.051   0.750
  633SOL    HW2 1920   2.960   1.030   0.653
  634SOL     OW 1921   2.876   0.236   0.971
  634SOL    HW1 1922   2.868   0.200   0.878
  634SOL    HW2 1923   2.874   0.160   1.036
  635SOL     OW 1924   2.452   1.487   0.491
  635SOL    HW1 1925   2.494   1.429   0.421
  635SOL    HW2 1926   2.408   1.566   0.447
  636SOL     OW 1927   2.117   1.348   0.290
  636SOL    HW1 1928   2.021   1.349   0.263
  636SOL    HW2 1929   2.129   1.401   0.374
  637SOL     OW 1930   1.967   1.013   1.726
  637SOL    HW1 1931   1.890   0.980   1.780
  637SOL    HW2 1932   2.052   0.983   1.768
  638SOL     OW 1933   2.534   0.203   1.489
  638SOL    HW1 1934   2.624   0.187   1.449
  638SOL    HW2 1935   2.542   0.208   1.588
  639SOL     OW 1936   1.937   0.345   0.033
  639SOL    HW1 1937   1.845   0.317   0.004
  639SOL    HW2 1938   1.968   0.422  -0.023
  640SOL     OW 1939   1.934   0.166   0.318
  640SOL    HW1 1940   1.917   0.249   0.264
  640SOL    HW2 1941   2.024   0.129   0.296
  641SOL     OW 1942   2.475   0.842   1.431
  641SOL    HW1 1943   2.531   0.923   1.414
  641SOL    HW2 1944   2.534   0.762   1.434
  642SOL     OW 1945   2.578   0.565   1.708
  642SOL    HW1 1946   2.597   0.630   1.782
  642SOL    HW2 1947   2.638   0.485   1.717
  643SOL     OW 1948   2.252   1.741   1.560
  643SOL    HW1 1949   2.161   1.782   1.558
  643SOL    HW2 1950   2.245   1.647   1.592
  644SOL     OW 1951   3.087   0.325   0.449
  644SOL    HW1 1952   3.152   0.251   0.438
  644SOL    HW2 1953   3.107   0.375   0.533
  645SOL     OW 1954   2.456   0.745   0.652
  645SOL    HW1 1955   2.506   0.830   0.633
  645SOL    HW2 1956   2.368   0.747   0.604
  646SOL     OW 1957   2.721   1.374   0.016
  646SOL    HW1 1958   2.675   1.389   0.104
  646SOL    HW2 1959   2.765   1.459  -0.014
  647SOL     OW 1960   2.523   1.790   0.953
  647SOL    HW1 1961   2.477   1.878   0.940
  647SOL    HW2 1962   2.622   1.802   0.946
  648SOL     OW 1963   2.721   0.956   0.861
  648SOL    HW1 1964   2.775   0.887   0.909
  648SOL    HW2 1965   2.689   1.025   0.927
  649SOL     OW 1966   2.945   0.984   0.087
  649SOL    HW1 1967   2.922   1.037   0.005
  649SOL    HW2 1968   3.026   0.928   0.068
  650SOL     OW 1969   2.083   1.314   1.844
  650SOL    HW1 1970   2.018   1.241   1.823
  650SOL    HW2 1971   2.087   1.328   1.942
  651SOL     OW 1972   1.941   1.240   0.653
  651SOL    HW1 1973   1.940   1.193   0.741
  651SOL    HW2 1974   2.023   1.212   0.602
  652SOL     OW 1975   2.534   1.391   1.624
  652SOL    HW1 1976   2.456   1.341   1.662
  652SOL    HW2 1977   2.531   1.486   1.655
  653SOL     OW 1978   2.290   0.424   0.520
  653SOL    HW1 1979   2.320   0.352   0.458
  653SOL    HW2 1980   2.251   0.384   0.603
  654SOL     OW 1981   2.179   0.547   1.280
  654SOL    HW1 1982   2.217   0.488   1.352
  654SOL    HW2 1983   2.219   0.521   1.192
  655SOL     OW 1984   2.674   1.586   0.687
  655SOL    HW1 1985   2.706   1.596   0.593
  655SOL    HW2 1986   2.595   1.524   0.689
  656SOL     OW 1987   2.863   0.034   1.154
  656SOL    HW1 1988   2.800  -0.038   1.123
  656SOL    HW2 1989   2.956  -0.002   1.154
  657SOL     OW 1990   2.632   1.330   0.301
  657SOL    HW1 1991   2.586   1.243   0.318
  657SOL    HW2 1992   2.723   1.327   0.342
  658SOL     OW 1993   2.480   1.567   1.284
  658SOL    HW1 1994   2.475   1.649   1.341
  658SOL    HW2 1995   2.569   1.564   1.239
  659SOL     OW 1996   1.901   1.077   0.300
  659SOL    HW1 1997   2.000   1.066   0.291
  659SOL    HW2 1998   1.861   0.991   0.332
  660SOL     OW 1999   2.737   1.646   0.337
  660SOL    HW1 2000   2.660   1.611   0.283
  660SOL    HW2 2001   2.705   1.717   0.399
  661SOL     OW 2002   2.092   0.628   1.975
  661SOL    HW1 2003   1.999   0.626   2.012
  661SOL    HW2 2004   2.093   0.589   1.883
  662SOL     OW 2005   2.087   0.275   2.858
  662SOL    HW1 2006   2.122   0.258   2.950
  662SOL    HW2 2007   1.999   0.230   2.846
  663SOL     OW 2008   1.881   0.368   2.509
  663SOL    HW1 2009   1.799   0.411   2.548
  663SOL    HW2 2010   1.853   0.295   2.446
  664SOL     OW 2011   2.630   1.144   2.885
  664SOL    HW1 2012   2.552   1.161   2.945
  664SOL    HW2 2013   2.664   1.231   2.849
  665SOL     OW 2014   2.547   1.012   2.527
  665SOL    HW1 2015   2.616   0.996   2.597
  665SOL    HW2 2016   2.474   1.069   2.565
  666SOL     OW 2017   2.197   1.435   2.923
  666SOL    HW1 2018   2.119   1.404   2.870
  666SOL    HW2 2019   2.255   1.493   2.866
  667SOL     OW 2020   2.093   1.713   2.345
  667SOL    HW1 2021   2.127   1.790   2.399
  667SOL    HW2 2022   2.137   1.713   2.255
  668SOL     OW 2023   2.092   1.434   2.400
  668SOL    HW1 2024   2.066   1.530   2.400
  668SOL    HW2 2025   2.021   1.380   2.445
  669SOL     OW 2026   2.102   1.091   2.748
  669SOL    HW1 2027   2.116   1.007   2.800
  669SOL    HW2 2028   2.047   1.155   2.803
  670SOL     OW 2029   2.468   0.964   1.985
  670SOL    HW1 2030   2.475   1.048   1.931
  670SOL    HW2 2031   2.514   0.977   2.073
  671SOL     OW 2032   1.984   0.643   2.425
  671SOL    HW1 2033   1.939   0.555   2.442
  671SOL    HW2 2034   1.983   0.697   2.509
  672SOL     OW 2035   1.889   1.596   1.979
  672SOL    HW1 2036   1.870   1.500   2.000
  672SOL    HW2 2037   1.856   1.654   2.054
  673SOL     OW 2038   2.475   1.365   2.588
  673SOL    HW1 2039   2.426   1.278   2.597
  673SOL    HW2 2040   2.452   1.408   2.501
  674SOL     OW 2041   2.671   0.004   2.364
  674SOL    HW1 2042   2.711   0.095   2.355
  674SOL    HW2 2043   2.571   0.012   2.370
  675SOL     OW 2044   2.460   0.729   2.132
  675SOL    HW1 2045   2.484   0.798   2.064
  675SOL    HW2 2046   2.382   0.762   2.186
  676SOL     OW 2047   2.903   0.701   2.291
  676SOL    HW1 2048   2.929   0.697   2.387
  676SOL    HW2 2049   2.818   0.650   2.277
  677SOL     OW 2050   1.938   0.811   2.651
  677SOL    HW1 2051   2.037   0.799   2.660
  677SOL    HW2 2052   1.914   0.906   2.672
  678SOL     OW 2053   2.727   0.348   2.057
  678SOL    HW1 2054   2.786   0.411   2.008
  678SOL    HW2 2055   2.746   0.254   2.028
  679SOL     OW 2056   2.412   0.196   2.747
  679SOL    HW1 2057   2.407   0.191   2.847
  679SOL    HW2 2058   2.414   0.292   2.718
  680SOL     OW 2059   2.870   1.456   2.339
  680SOL    HW1 2060   2.824   1.528   2.287
  680SOL    HW2 2061   2.866   1.476   2.437
  681SOL     OW 2062   2.213   1.801   2.715
  681SOL    HW1 2063   2.263   1.715   2.721
  681SOL    HW2 2064   2.278   1.878   2.712
  682SOL     OW 2065   2.183   0.943   2.104
  682SOL    HW1 2066   2.265   0.982   2.062
  682SOL    HW2 2067   2.156   0.861   2.055
  683SOL     OW 2068   2.326   1.743   2.185
  683SOL    HW1 2069   2.359   1.782   2.271
  683SOL    HW2 2070   2.402   1.736   2.120
  684SOL     OW 2071   2.111   1.785   3.103
  684SOL    HW1 2072   2.168   1.720   3.153
  684SOL    HW2 2073   2.095   1.752   3.010
  685SOL     OW 2074   2.802   1.698   2.766
  685SOL    HW1 2075   2.882   1.641   2.787
  685SOL    HW2 2076   2.753   1.658   2.689
  686SOL     OW 2077   2.244   0.700   2.342
  686SOL    HW1 2078   2.289   0.610   2.339
  686SOL    HW2 2079   2.150   0.689   2.375
  687SOL     OW 2080   2.476   0.122   1.979
  687SOL    HW1 2081   2.574   0.100   1.986
  687SOL    HW2 2082   2.445   0.105   1.886
  688SOL     OW 2083   2.665   1.402   2.786
  688SOL    HW1 2084   2.755   1.416   2.744
  688SOL    HW2 2085   2.594   1.404   2.715
  689SOL     OW 2086   2.784   0.503   2.761
  689SOL    HW1 2087   2.759   0.494   2.665
  689SOL    HW2 2088   2.832   0.421   2.792
  690SOL     OW 2089   2.401   0.064   2.374
  690SOL    HW1 2090   2.320   0.065   2.432
  690SOL    HW2 2091   2.404   0.147   2.319
  691SOL     OW 2092   2.159   0.035   2.033
  691SOL    HW1 2093   2.208   0.119   2.012
  691SOL    HW2 2094   2.221  -0.030   2.078
  692SOL     OW 2095   2.797   0.236   2.342
  692SOL    HW1 2096   2.749   0.277   2.264
  692SOL    HW2 2097   2.896   0.234   2.323
  693SOL     OW 2098   3.089   1.570   2.655
  693SOL    HW1 2099   3.110   1.644   2.590
  693SOL    HW2 2100   3.157   1.570   2.728
  694SOL     OW 2101   2.321   1.152   2.603
  694SOL    HW1 2102   2.250   1.125   2.668
  694SOL    HW2 2103   2.295   1.124   2.510
  695SOL     OW 2104   2.894   0.549   1.878
  695SOL    HW1 2105   2.853   0.631   1.839
  695SOL    HW2 2106   2.958   0.575   1.951
  696SOL     OW 2107   2.728   0.454   2.504
  696SOL    HW1 2108   2.696   0.526   2.442
  696SOL    HW2 2109   2.752   0.373   2.451
  697SOL     OW 2110   2.879   0.039   2.615
  697SOL    HW1 2111   2.807   0.044   2.546
  697SOL    HW2 2112   2.855  -0.030   2.684
  698SOL     OW 2113   2.350   1.385   2.036
  698SOL    HW1 2114   2.263   1.370   2.083
  698SOL    HW2 2115   2.333   1.411   1.941
  699SOL     OW 2116   2.389   0.256   2.190
  699SOL    HW1 2117   2.416   0.197   2.115
  699SOL    HW2 2118   2.389   0.351   2.159
  700SOL     OW 2119   2.567   1.050   2.230
  700SOL    HW1 2120   2.553   1.057   2.329
  700SOL    HW2 2121   2.651   0.999   2.212
  701SOL     OW 2122   2.229   1.100   2.363
  701SOL    HW1 2123   2.222   1.183   2.307
  701SOL    HW2 2124   2.233   1.020   2.303
  702SOL     OW 2125   2.428   0.537   2.727
  702SOL    HW1 2126   2.440   0.603   2.653
  702SOL    HW2 2127   2.474   0.571   2.810
  703SOL     OW 2128   2.435   0.870   2.891
  703SOL    HW1 2129   2.479   0.959   2.882
  703SOL    HW2 2130   2.372   0.870   2.968
  704SOL     OW 2131   3.071   0.525   2.137
  704SOL    HW1 2132   3.084   0.441   2.191
  704SOL    HW2 2133   3.042   0.599   2.197
  705SOL     OW 2134   2.594   0.634   2.926
  705SOL    HW1 2135   2.653   0.608   2.850
  705SOL    HW2 2136   2.566   0.730   2.915
  706SOL     OW 2137   2.169   0.063   2.480
  706SOL    HW1 2138   2.158   0.157   2.513
  706SOL    HW2 2139   2.164   0.000   2.557
  707SOL     OW 2140   2.181   0.810   2.811
  707SOL    HW1 2141   2.274   0.846   2.816
  707SOL    HW2 2142   2.175   0.725   2.863
  708SOL     OW 2143   2.201   0.509   2.868
  708SOL    HW1 2144   2.149   0.426   2.851
  708SOL    HW2 2145   2.278   0.514   2.804
  709SOL     OW 2146   1.870   1.326   2.062
  709SOL    HW1 2147   1.777   1.347   2.031
  709SOL    HW2 2148   1.880   1.227   2.075
  710SOL     OW 2149   1.950   1.801   2.789
  710SOL    HW1 2150   1.908   1.715   2.762
  710SOL    HW2 2151   2.044   1.804   2.755
  711SOL     OW 2152   2.366   1.568   2.772
  711SOL    HW1 2153   2.432   1.642   2.781
  711SOL    HW2 2154   2.410   1.489   2.730
  712SOL     OW 2155   2.864   0.796   3.100
  712SOL    HW1 2156   2.905   0.764   3.186
  712SOL    HW2 2157   2.768   0.769   3.097
  713SOL     OW 2158   2.677   0.572   2.187
  713SOL    HW1 2159   2.684   0.483   2.141
  713SOL    HW2 2160   2.583   0.606   2.179
  714SOL     OW 2161   2.533   0.464   3.131
  714SOL    HW1 2162   2.499   0.375   3.101
  714SOL    HW2 2163   2.559   0.518   3.051
  715SOL     OW 2164   2.335   0.500   2.053
  715SOL    HW1 2165   2.396   0.580   2.057
  715SOL    HW2 2166   2.240   0.531   2.060
  716SOL     OW 2167   1.945   1.258   2.884
  716SOL    HW1 2168   1.940   1.257   2.984
  716SOL    HW2 2169   1.862   1.217   2.846
  717SOL     OW 2170   3.142   0.927   2.534
  717SOL    HW1 2171   3.202   0.846   2.536
  717SOL    HW2 2172   3.182   0.996   2.474
  718SOL     OW 2173   2.534   1.616   2.016
  718SOL    HW1 2174   2.543   1.626   1.917
  718SOL    HW2 2175   2.494   1.527   2.037
  719SOL     OW 2176   2.125   0.326   2.582
  719SOL    HW1 2177   2.046   0.377   2.548
  719SOL    HW2 2178   2.116   0.311   2.680
  720SOL     OW 2179   2.778   0.910   2.153
  720SOL    HW1 2180   2.841   0.948   2.085
  720SOL    HW2 2181   2.818   0.827   2.192
  721SOL     OW 2182   2.901   1.098   2.558
  721SOL    HW1 2183   2.831   1.051   2.612
  721SOL    HW2 2184   2.960   1.030   2.515
  722SOL     OW 2185   2.876   0.236   2.833
  722SOL    HW1 2186   2.868   0.200   2.740
  722SOL    HW2 2187   2.874   0.160   2.898
  723SOL     OW 2188   2.452   1.487   2.353
  723SOL    HW1 2189   2.494   1.429   2.283
  723SOL    HW2 2190   2.408   1.566   2.309
  724SOL     OW 2191   2.117   1.348   2.152
  724SOL    HW1 2192   2.021   1.349   2.125
  724SOL    HW2 2193   2.129   1.401   2.236
  725SOL     OW 2194   1.937   0.345   1.895
  725SOL    HW1 2195   1.845   0.317   1.866
  725SOL    HW2 2196   1.968   0.422   1.839
  726SOL     OW 2197   1.934   0.166   2.180
  726SOL    HW1 2198   1.917   0.249   2.126
  726SOL    HW2 2199   2.024   0.129   2.158
  727SOL     OW 2200   3.087   0.325   2.311
  727SOL    HW1 2201   3.152   0.251   2.300
  727SOL    HW2 2202   3.107   0.375   2.395
  728SOL     OW 2203   2.456   0.745   2.514
  728SOL    HW1 2204   2.506   0.830   2.495
  728SOL    HW2 2205   2.368   0.747   2.466
  729SOL     OW 2206   2.721   1.374   1.878
  729SOL    HW1 2207   2.675   1.389   1.966
  729SOL    HW2 2208   2.765   1.459   1.848
  730SOL     OW 2209   2.523   1.790   2.815
  730SOL    HW1 2210   2.477   1.878   2.802
  730SOL    HW2 2211   2.622   1.802   2.808
  731SOL     OW 2212   2.721   0.956   2.723
  731SOL    HW1 2213   2.775   0.887   2.771
  731SOL    HW2 2214   2.689   1.025   2.789
  732SOL     OW 2215   1.941   1.240   2.515
  732SOL    HW1 2216   1.940   1.193   2.603
  732SOL    HW2 2217   2.023   1.212   2.464
  733SOL     OW 2218   2.290   0.424   2.382
  733SOL    HW1 2219   2.320   0.352   2.320
  733SOL    HW2 2220   2.251   0.384   2.465
  734SOL     OW 2221   2.674   1.586   2.549
  734SOL    HW1 2222   2.706   1.596   2.455
  734SOL    HW2 2223   2.595   1.524   2.551
  735SOL     OW 2224   2.632   1.330   2.163
  735SOL    HW1 2225   2.586   1.243   2.180
  735SOL    HW2 2226   2.723   1.327   2.204
  736SOL     OW 2227   1.901   1.077   2.162
  736SOL    HW1 2228   2.000   1.066   2.153
  736SOL    HW2 2229   1.861   0.991   2.194
  737SOL     OW 2230   2.737   1.646   2.199
  737SOL    HW1 2231   2.660   1.611   2.145
  737SOL    HW2 2232   2.705   1.717   2.261
  738SOL     OW 2233   2.092   2.490   0.113
  738SOL    HW1 2234   1.999   2.488   0.150
  738SOL    HW2 2235   2.093   2.451   0.021
  739SOL     OW 2236   2.087   2.137   0.996
  739SOL    HW1 2237   2.122   2.120   1.088
  739SOL    HW2 2238   1.999   2.092   0.984
  740SOL     OW 2239   1.881   2.230   0.647
  740SOL    HW1 2240   1.799   2.273   0.686
  740SOL    HW2 2241   1.853   2.157   0.584
  741SOL     OW 2242   2.630   3.006   1.023
  741SOL    HW1 2243   2.552   3.023   1.083
  741SOL    HW2 2244   2.664   3.093   0.987
  742SOL     OW 2245   2.712   2.660   1.823
  742SOL    HW1 2246   2.708   2.736   1.888
  742SOL    HW2 2247   2.734   2.696   1.732
  743SOL     OW 2248   2.547   2.874   0.665
  743SOL    HW1 2249   2.616   2.858   0.735
  743SOL    HW2 2250   2.474   2.931   0.703
  744SOL     OW 2251   2.300   2.254   1.499
  744SOL    HW1 2252   2.382   2.198   1.508
  744SOL    HW2 2253   2.219   2.196   1.503
  745SOL     OW 2254   2.102   2.953   0.886
  745SOL    HW1 2255   2.116   2.869   0.938
  745SOL    HW2 2256   2.047   3.017   0.941
  746SOL     OW 2257   2.468   2.826   0.123
  746SOL    HW1 2258   2.475   2.910   0.069
  746SOL    HW2 2259   2.514   2.839   0.211
  747SOL     OW 2260   1.984   2.505   0.563
  747SOL    HW1 2261   1.939   2.417   0.580
  747SOL    HW2 2262   1.983   2.559   0.647
  748SOL     OW 2263   1.975   2.599   1.597
  748SOL    HW1 2264   2.063   2.586   1.642
  748SOL    HW2 2265   1.962   2.696   1.575
  749SOL     OW 2266   2.671   1.866   0.502
  749SOL    HW1 2267   2.711   1.957   0.493
  749SOL    HW2 2268   2.571   1.874   0.508
  750SOL     OW 2269   2.059   2.838   1.264
  750SOL    HW1 2270   2.148   2.793   1.250
  750SOL    HW2 2271   1.986   2.773   1.245
  751SOL     OW 2272   2.179   2.113   1.801
  751SOL    HW1 2273   2.250   2.184   1.807
  751SOL    HW2 2274   2.091   2.152   1.829
  752SOL     OW 2275   2.460   2.591   0.270
  752SOL    HW1 2276   2.484   2.660   0.202
  752SOL    HW2 2277   2.382   2.624   0.324
  753SOL     OW 2278   2.669   2.467   1.465
  753SOL    HW1 2279   2.622   2.464   1.554
  753SOL    HW2 2280   2.618   2.412   1.399
  754SOL     OW 2281   2.835   2.752   1.572
  754SOL    HW1 2282   2.881   2.668   1.543
  754SOL    HW2 2283   2.779   2.786   1.497
  755SOL     OW 2284   2.853   2.272   1.242
  755SOL    HW1 2285   2.776   2.306   1.296
  755SOL    HW2 2286   2.819   2.221   1.163
  756SOL     OW 2287   2.903   2.563   0.429
  756SOL    HW1 2288   2.929   2.559   0.525
  756SOL    HW2 2289   2.818   2.512   0.415
  757SOL     OW 2290   1.938   2.673   0.789
  757SOL    HW1 2291   2.037   2.661   0.798
  757SOL    HW2 2292   1.914   2.768   0.810
  758SOL     OW 2293   2.727   2.210   0.195
  758SOL    HW1 2294   2.786   2.273   0.146
  758SOL    HW2 2295   2.746   2.116   0.166
  759SOL     OW 2296   2.412   2.058   0.885
  759SOL    HW1 2297   2.407   2.053   0.985
  759SOL    HW2 2298   2.414   2.154   0.856
  760SOL     OW 2299   2.064   2.147   1.498
  760SOL    HW1 2300   1.984   2.207   1.485
  760SOL    HW2 2301   2.054   2.098   1.584
  761SOL     OW 2302   2.244   2.562   0.480
  761SOL    HW1 2303   2.289   2.472   0.477
  761SOL    HW2 2304   2.150   2.551   0.513
  762SOL     OW 2305   2.476   1.984   0.117
  762SOL    HW1 2306   2.574   1.962   0.124
  762SOL    HW2 2307   2.445   1.967   0.024
  763SOL     OW 2308   2.643   2.126   1.749
  763SOL    HW1 2309   2.710   2.065   1.792
  763SOL    HW2 2310   2.570   2.145   1.814
  764SOL     OW 2311   2.784   2.365   0.899
  764SOL    HW1 2312   2.759   2.356   0.803
  764SOL    HW2 2313   2.832   2.283   0.930
  765SOL     OW 2314   2.401   1.926   0.512
  765SOL    HW1 2315   2.320   1.927   0.570
  765SOL    HW2 2316   2.404   2.009   0.457
  766SOL     OW 2317   2.797   2.098   0.480
  766SOL    HW1 2318   2.749   2.139   0.402
  766SOL    HW2 2319   2.896   2.096   0.461
  767SOL     OW 2320   2.894   2.411   0.016
  767SOL    HW1 2321   2.853   2.493  -0.023
  767SOL    HW2 2322   2.958   2.437   0.089
  768SOL     OW 2323   1.940   2.418   1.386
  768SOL    HW1 2324   2.032   2.417   1.345
  768SOL    HW2 2325   1.934   2.492   1.453
  769SOL     OW 2326   2.423   2.084   1.147
  769SOL    HW1 2327   2.461   2.000   1.184
  769SOL    HW2 2328   2.335   2.103   1.191
  770SOL     OW 2329   2.728   2.316   0.642
  770SOL    HW1 2330   2.696   2.388   0.580
  770SOL    HW2 2331   2.752   2.235   0.589
  771SOL     OW 2332   2.879   1.901   0.753
  771SOL    HW1 2333   2.807   1.906   0.684
  771SOL    HW2 2334   2.855   1.832   0.822
  772SOL     OW 2335   2.389   2.118   0.328
  772SOL    HW1 2336   2.416   2.059   0.253
  772SOL    HW2 2337   2.389   2.213   0.297
  773SOL     OW 2338   2.777   1.951   1.402
  773SOL    HW1 2339   2.802   1.931   1.307
  773SOL    HW2 2340   2.849   2.007   1.444
  774SOL     OW 2341   2.272   2.675   1.251
  774SOL    HW1 2342   2.358   2.687   1.301
  774SOL    HW2 2343   2.230   2.588   1.278
  775SOL     OW 2344   2.428   2.399   0.865
  775SOL    HW1 2345   2.440   2.465   0.791
  775SOL    HW2 2346   2.474   2.433   0.948
  776SOL     OW 2347   2.264   2.613   1.598
  776SOL    HW1 2348   2.332   2.668   1.551
  776SOL    HW2 2349   2.304   2.525   1.625
  777SOL     OW 2350   2.875   1.967   1.770
  777SOL    HW1 2351   2.881   2.052   1.718
  777SOL    HW2 2352   2.907   1.891   1.713
  778SOL     OW 2353   2.366   1.912   1.740
  778SOL    HW1 2354   2.324   1.855   1.670
  778SOL    HW2 2355   2.300   1.981   1.772
  779SOL     OW 2356   2.435   2.732   1.029
  779SOL    HW1 2357   2.479   2.821   1.020
  779SOL    HW2 2358   2.372   2.732   1.106
  780SOL     OW 2359   3.071   2.387   0.275
  780SOL    HW1 2360   3.084   2.303   0.329
  780SOL    HW2 2361   3.042   2.461   0.335
  781SOL     OW 2362   2.169   2.075   1.231
  781SOL    HW1 2363   2.146   2.112   1.321
  781SOL    HW2 2364   2.139   1.980   1.225
  782SOL     OW 2365   2.594   2.496   1.064
  782SOL    HW1 2366   2.653   2.470   0.988
  782SOL    HW2 2367   2.566   2.592   1.053
  783SOL     OW 2368   2.169   1.925   0.618
  783SOL    HW1 2369   2.158   2.019   0.651
  783SOL    HW2 2370   2.164   1.862   0.695
  784SOL     OW 2371   2.885   2.628   0.966
  784SOL    HW1 2372   2.900   2.649   1.062
  784SOL    HW2 2373   2.855   2.533   0.957
  785SOL     OW 2374   2.212   2.760   1.804
  785SOL    HW1 2375   2.288   2.804   1.852
  785SOL    HW2 2376   2.247   2.713   1.722
  786SOL     OW 2377   2.181   2.672   0.949
  786SOL    HW1 2378   2.274   2.708   0.954
  786SOL    HW2 2379   2.175   2.587   1.001
  787SOL     OW 2380   2.201   2.371   1.006
  787SOL    HW1 2381   2.149   2.288   0.989
  787SOL    HW2 2382   2.278   2.376   0.942
  788SOL     OW 2383   2.864   2.658   1.238
  788SOL    HW1 2384   2.905   2.626   1.324
  788SOL    HW2 2385   2.768   2.631   1.235
  789SOL     OW 2386   1.902   2.406   1.114
  789SOL    HW1 2387   1.987   2.373   1.073
  789SOL    HW2 2388   1.915   2.421   1.212
  790SOL     OW 2389   2.051   2.382   1.722
  790SOL    HW1 2390   2.110   2.342   1.652
  790SOL    HW2 2391   1.993   2.453   1.681
  791SOL     OW 2392   2.677   2.434   0.325
  791SOL    HW1 2393   2.684   2.345   0.279
  791SOL    HW2 2394   2.583   2.468   0.317
  792SOL     OW 2395   2.533   2.326   1.269
  792SOL    HW1 2396   2.499   2.237   1.239
  792SOL    HW2 2397   2.559   2.380   1.189
  793SOL     OW 2398   2.335   2.362   0.191
  793SOL    HW1 2399   2.396   2.442   0.195
  793SOL    HW2 2400   2.240   2.393   0.198
  794SOL     OW 2401   2.021   2.999   1.466
  794SOL    HW1 2402   2.043   2.938   1.542
  794SOL    HW2 2403   2.031   2.950   1.380
  795SOL     OW 2404   2.765   1.948   0.133
  795SOL    HW1 2405   2.816   1.949   0.047
  795SOL    HW2 2406   2.821   1.906   0.204
  796SOL     OW 2407   3.142   2.789   0.672
  796SOL    HW1 2408   3.202   2.708   0.674
  796SOL    HW2 2409   3.182   2.858   0.612
  797SOL     OW 2410   2.125   2.188   0.720
  797SOL    HW1 2411   2.046   2.239   0.686
  797SOL    HW2 2412   2.116   2.173   0.818
  798SOL     OW 2413   2.778   2.772   0.291
  798SOL    HW1 2414   2.841   2.810   0.223
  798SOL    HW2 2415   2.818   2.689   0.330
  799SOL     OW 2416   2.876   2.098   0.971
  799SOL    HW1 2417   2.868   2.062   0.878
  799SOL    HW2 2418   2.874   2.022   1.036
  800SOL     OW 2419   1.967   2.875   1.726
  800SOL    HW1 2420   1.890   2.842   1.780
  800SOL    HW2 2421   2.052   2.845   1.768
  801SOL     OW 2422   2.534   2.065   1.489
  801SOL    HW1 2423   2.624   2.049   1.449
  801SOL    HW2 2424   2.542   2.070   1.588
  802SOL     OW 2425   1.937   2.207   0.033
  802SOL    HW1 2426   1.845   2.179   0.004
  802SOL    HW2 2427   1.968   2.284  -0.023
  803SOL     OW 2428   1.934   2.028   0.318
  803SOL    HW1 2429   1.917   2.111   0.264
  803SOL    HW2 2430   2.024   1.991   0.296
  804SOL     OW 2431   2.475   2.704   1.431
  804SOL    HW1 2432   2.531   2.785   1.414
  804SOL    HW2 2433   2.534   2.624   1.434
  805SOL     OW 2434   2.578   2.427   1.708
  805SOL    HW1 2435   2.597   2.492   1.782
  805SOL    HW2 2436   2.638   2.347   1.717
  806SOL     OW 2437   3.087   2.187   0.449
  806SOL    HW1 2438   3.152   2.113   0.438
  806SOL    HW2 2439   3.107   2.237   0.533
  807SOL     OW 2440   2.456   2.607   0.652
  807SOL    HW1 2441   2.506   2.692   0.633
  807SOL    HW2 2442   2.368   2.609   0.604
  808SOL     OW 2443   2.721   2.818   0.861
  808SOL    HW1 2444   2.775   2.749   0.909
  808SOL    HW2 2445   2.689   2.887   0.927
  809SOL     OW 2446   1.941   3.102   0.653
  809SOL    HW1 2447   1.940   3.055   0.741
  809SOL    HW2 2448   2.023   3.074   0.602
  810SOL     OW 2449   2.290   2.286   0.520
  810SOL    HW1 2450   2.320   2.214   0.458
  810SOL    HW2 2451   2.251   2.246   0.603
  811SOL     OW 2452   2.179   2.409   1.280
  811SOL    HW1 2453   2.217   2.350   1.352
  811SOL    HW2 2454   2.219   2.383   1.192
  812SOL     OW 2455   2.863   1.896   1.154
  812SOL    HW1 2456   2.800   1.824   1.123
  812SOL    HW2 2457   2.956   1.860   1.154
  813SOL     OW 2458   1.901   2.939   0.300
  813SOL    HW1 2459   2.000   2.928   0.291
  813SOL    HW2 2460   1.861   2.853   0.332
  814SOL     OW 2461   2.092   2.490   1.975
  814SOL    HW1 2462   1.999   2.488   2.012
  814SOL    HW2 2463   2.093   2.451   1.883
  815SOL     OW 2464   2.087   2.137   2.858
  815SOL    HW1 2465   2.122   2.120   2.950
  815SOL    HW2 2466   1.999   2.092   2.846
  816SOL     OW 2467   1.881   2.230   2.509
  816SOL    HW1 2468   1.799   2.273   2.548
  816SOL    HW2 2469   1.853   2.157   2.446
  817SOL     OW 2470   2.547   2.874   2.527
  817SOL    HW1 2471   2.616   2.858   2.597
  817SOL    HW2 2472   2.474   2.931   2.565
  818SOL     OW 2473   2.102   2.953   2.748
  818SOL    HW1 2474   2.116   2.869   2.800
  818SOL    HW2 2475   2.047   3.017   2.803
  819SOL     OW 2476   2.468   2.826   1.985
  819SOL    HW1 2477   2.475   2.910   1.931
  819SOL    HW2 2478   2.514   2.839   2.073
  820SOL     OW 2479   1.984   2.505   2.425
  820SOL    HW1 2480   1.939   2.417   2.442
  820SOL    HW2 2481   1.983   2.559   2.509
  821SOL     OW 2482   2.671   1.866   2.364
  821SOL    HW1 2483   2.711   1.957   2.355
  821SOL    HW2 2484   2.571   1.874   2.370
  822SOL     OW 2485   2.059   2.838   3.126
  822SOL    HW1 2486   2.148   2.793   3.112
  822SOL    HW2 2487   1.986   2.773   3.107
  823SOL     OW 2488   2.460   2.591   2.132
  823SOL    HW1 2489   2.484   2.660   2.064
  823SOL    HW2 2490   2.382   2.624   2.186
  824SOL     OW 2491   2.903   2.563   2.291
  824SOL    HW1 2492   2.929   2.559   2.387
  824SOL    HW2 2493   2.818   2.512   2.277
  825SOL     OW 2494   1.938   2.673   2.651
  825SOL    HW1 2495   2.037   2.661   2.660
  825SOL    HW2 2496   1.914   2.768   2.672
  826SOL     OW 2497   2.727   2.210   2.057
  826SOL    HW1 2498   2.786   2.273   2.008
  826SOL    HW2 2499   2.746   2.116   2.028
  827SOL     OW 2500   2.412   2.058   2.747
  827SOL    HW1 2501   2.407   2.053   2.847
  827SOL    HW2 2502   2.414   2.154   2.718
  828SOL     OW 2503   2.244   2.562   2.342
  828SOL    HW1 2504   2.289   2.472   2.339
  828SOL    HW2 2505   2.150   2.551   2.375
  829SOL     OW 2506   2.476   1.984   1.979
  829SOL    HW1 2507   2.574   1.962   1.986
  829SOL    HW2 2508   2.445   1.967   1.886
  830SOL     OW 2509   2.784   2.365   2.761
  830SOL    HW1 2510   2.759   2.356   2.665
  830SOL    HW2 2511   2.832   2.283   2.792
  831SOL     OW 2512   2.401   1.926   2.374
  831SOL    HW1 2513   2.320   1.927   2.432
  831SOL    HW2 2514   2.404   2.009   2.319
  832SOL     OW 2515   2.159   1.897   2.033
  832SOL    HW1 2516   2.208   1.981   2.012
  832SOL    HW2 2517   2.221   1.832   2.078
  833SOL     OW 2518   2.797   2.098   2.342
  833SOL    HW1 2519   2.749   2.139   2.264
  833SOL    HW2 2520   2.896   2.096   2.323
  834SOL     OW 2521   2.894   2.411   1.878
  834SOL    HW1 2522   2.853   2.493   1.839
  834SOL    HW2 2523   2.958   2.437   1.951
  835SOL     OW 2524   2.728   2.316   2.504
  835SOL    HW1 2525   2.696   2.388   2.442
  835SOL    HW2 2526   2.752   2.235   2.451
  836SOL     OW 2527   2.879   1.901   2.615
  836SOL    HW1 2528   2.807   1.906   2.546
  836SOL    HW2 2529   2.855   1.832   2.684
  837SOL     OW 2530   2.389   2.118   2.190
  837SOL    HW1 2531   2.416   2.059   2.115
  837SOL    HW2 2532   2.389   2.213   2.159
  838SOL     OW 2533   2.428   2.399   2.727
  838SOL    HW1 2534   2.440   2.465   2.653
  838SOL    HW2 2535   2.474   2.433   2.810
  839SOL     OW 2536   2.435   2.732   2.891
  839SOL    HW1 2537   2.479   2.821   2.882
  839SOL    HW2 2538   2.372   2.732   2.968
  840SOL     OW 2539   3.071   2.387   2.137
  840SOL    HW1 2540   3.084   2.303   2.191
  840SOL    HW2 2541   3.042   2.461   2.197
  841SOL     OW 2542   2.169   2.075   3.093
  841SOL    HW1 2543   2.146   2.112   3.183
  841SOL    HW2 2544   2.139   1.980   3.087
  842SOL     OW 2545   2.594   2.496   2.926
  842SOL    HW1 2546   2.653   2.470   2.850
  842SOL    HW2 2547   2.566   2.592   2.915
  843SOL     OW 2548   2.169   1.925   2.480
  843SOL    HW1 2549   2.158   2.019   2.513
  843SOL    HW2 2550   2.164   1.862   2.557
  844SOL     OW 2551   2.181   2.672   2.811
  844SOL    HW1 2552   2.274   2.708   2.816
  844SOL    HW2 2553   2.175   2.587   2.863
  845SOL     OW 2554   2.201   2.371   2.868
  845SOL    HW1 2555   2.149   2.288   2.851
  845SOL    HW2 2556   2.278   2.376   2.804
  846SOL     OW 2557   2.864   2.658   3.100
  846SOL    HW1 2558   2.905   2.626   3.186
  846SOL    HW2 2559   2.768   2.631   3.097
  847SOL     OW 2560   2.677   2.434   2.187
  847SOL    HW1 2561   2.684   2.345   2.141
  847SOL    HW2 2562   2.583   2.468   2.179
  848SOL     OW 2563   2.533   2.326   3.131
  848SOL    HW1 2564   2.499   2.237   3.101
  848SOL    HW2 2565   2.559   2.380   3.051
  849SOL     OW 2566   2.335   2.362   2.053
  849SOL    HW1 2567   2.396   2.442   2.057
  849SOL    HW2 2568   2.240   2.393   2.060
  850SOL     OW 2569   3.164   2.717   2.171
  850SOL    HW1 2570   3.078   2.686   2.213
  850SOL    HW2 2571   3.160   2.703   2.072
  851SOL     OW 2572   3.142   2.789   2.534
  851SOL    HW1 2573   3.202   2.708   2.536
  851SOL    HW2 2574   3.182   2.858   2.474
  852SOL     OW 2575   2.125   2.188   2.582
  852SOL    HW1 2576   2.046   2.239   2.548
  852SOL    HW2 2577   2.116   2.173   2.680
  853SOL     OW 2578   2.778   2.772   2.153
  853SOL    HW1 2579   2.841   2.810   2.085
  853SOL    HW2 2580   2.818   2.689   2.192
  854SOL     OW 2581   2.876   2.098   2.833
  854SOL    HW1 2582   2.868   2.062   2.740
  854SOL    HW2 2583   2.874   2.022   2.898
  855SOL     OW 2584   1.937   2.207   1.895
  855SOL    HW1 2585   1.845   2.179   1.866
  855SOL    HW2 2586   1.968   2.284   1.839
  856SOL     OW 2587   1.934   2.028   2.180
  856SOL    HW1 2588   1.917   2.111   2.126
  856SOL    HW2 2589   2.024   1.991   2.158
  857SOL     OW 2590   3.087   2.187   2.311
  857SOL    HW1 2591   3.152   2.113   2.300
  857SOL    HW2 2592   3.107   2.237   2.395
  858SOL     OW 2593   2.456   2.607   2.514
  858SOL    HW1 2594   2.506   2.692   2.495
  858SOL    HW2 2595   2.368   2.609   2.466
  859SOL     OW 2596   2.721   2.818   2.723
  859SOL    HW1 2597   2.775   2.749   2.771
  859SOL    HW2 2598   2.689   2.887   2.789
  860SOL     OW 2599   1.941   3.102   2.515
  860SOL    HW1 2600   1.940   3.055   2.603
  860SOL    HW2 2601   2.023   3.074   2.464
  861SOL     OW 2602   2.290   2.286   2.382
  861SOL    HW1 2603   2.320   2.214   2.320
  861SOL    HW2 2604   2.251   2.246   2.465
  862SOL     OW 2605   1.901   2.939   2.162
  862SOL    HW1 2606   2.000   2.928   2.153
  862SOL    HW2 2607   1.861   2.853   2.194
   2.95283   2.95283   2.95283
