; mobley_4364398_GMX.itp created by acpype (v: 2023.10.27) on Thu May 14 13:34:25 2026

[ atomtypes ]
;name   bond_type     mass     charge   ptype   sigma         epsilon       Amb
 c3       c3          0.00000  0.00000   A     3.39771e-01   4.51035e-01 ; 1.91  0.1078
 i        i           0.00000  0.00000   A     3.84120e-01   2.07317e+00 ; 2.16  0.4955
 h1       h1          0.00000  0.00000   A     2.42200e-01   8.70272e-02 ; 1.36  0.0208

[ moleculetype ]
;name            nrexcl
 mobley_4364398   3

[ atoms ]
;   nr  type  resi  res  atom  cgnr     charge      mass       ; qtot   bond_type
     1   c3     1   MOL    C1    1     0.035800     12.01000 ; qtot 0.036
     2    i     1   MOL    I1    2    -0.241900    126.90000 ; qtot -0.206
     3   h1     1   MOL    H1    3     0.068700      1.00800 ; qtot -0.137
     4   h1     1   MOL    H2    4     0.068700      1.00800 ; qtot -0.069
     5   h1     1   MOL    H3    5     0.068700      1.00800 ; qtot 0.000

[ bonds ]
;   ai     aj funct   r             k
     1      2   1    2.2260e-01    7.7295e+04 ;     C1 - I1    
     1      3   1    1.0969e-01    2.8804e+05 ;     C1 - H1    
     1      4   1    1.0969e-01    2.8804e+05 ;     C1 - H2    
     1      5   1    1.0969e-01    2.8804e+05 ;     C1 - H3    

[ angles ]
;   ai     aj     ak    funct   theta         cth
     2      1      3      1    1.0437e+02    3.1313e+02 ;     I1 - C1     - H1    
     2      1      4      1    1.0437e+02    3.1313e+02 ;     I1 - C1     - H2    
     2      1      5      1    1.0437e+02    3.1313e+02 ;     I1 - C1     - H3    
     3      1      4      1    1.0855e+02    2.9824e+02 ;     H1 - C1     - H2    
     3      1      5      1    1.0855e+02    2.9824e+02 ;     H1 - C1     - H3    
     4      1      5      1    1.0855e+02    2.9824e+02 ;     H2 - C1     - H3    
