mobley_3968739_GMX.gro created by acpype (v: 2023.10.27) on Thu May 14 13:54:47 2026
 2082
    1MOL     C1    1   1.370   1.405   1.103
    1MOL     C2    2   1.263   1.465   1.170
    1MOL     C3    3   1.475   1.349   1.175
    1MOL     C4    4   1.261   1.468   1.310
    1MOL     C5    5   1.473   1.352   1.315
    1MOL     C6    6   1.366   1.411   1.382
    1MOL     C7    7   1.364   1.414   1.527
    1MOL     C8    8   1.485   1.351   1.723
    1MOL     O1    9   1.274   1.465   1.595
    1MOL     O2   10   1.475   1.354   1.580
    1MOL     H1   11   1.371   1.403   0.994
    1MOL     H2   12   1.181   1.509   1.114
    1MOL     H3   13   1.558   1.302   1.123
    1MOL     H4   14   1.177   1.515   1.361
    1MOL     H5   15   1.555   1.307   1.370
    1MOL     H6   16   1.387   1.330   1.766
    1MOL     H7   17   1.522   1.447   1.760
    1MOL     H8   18   1.555   1.272   1.752
    2SOL     OW   19   0.230   0.628   0.113
    2SOL    HW1   20   0.137   0.626   0.150
    2SOL    HW2   21   0.231   0.589   0.021
    3SOL     OW   22   0.225   0.275   0.996
    3SOL    HW1   23   0.260   0.258   1.088
    3SOL    HW2   24   0.137   0.230   0.984
    4SOL     OW   25   0.019   0.368   0.647
    4SOL    HW1   26  -0.063   0.411   0.686
    4SOL    HW2   27  -0.009   0.295   0.584
    5SOL     OW   28   0.569   1.275   1.165
    5SOL    HW1   29   0.476   1.268   1.128
    5SOL    HW2   30   0.580   1.364   1.209
    6SOL     OW   31   1.555   1.511   0.703
    6SOL    HW1   32   1.498   1.495   0.784
    6SOL    HW2   33   1.496   1.521   0.623
    7SOL     OW   34   1.135   0.703   0.717
    7SOL    HW1   35   1.192   0.781   0.692
    7SOL    HW2   36   1.075   0.729   0.793
    8SOL     OW   37   1.755   0.607   0.231
    8SOL    HW1   38   1.743   0.594   0.132
    8SOL    HW2   39   1.725   0.526   0.280
    9SOL     OW   40   0.768   1.144   1.023
    9SOL    HW1   41   0.690   1.161   1.083
    9SOL    HW2   42   0.802   1.231   0.987
   10SOL     OW   43   0.850   0.798   1.823
   10SOL    HW1   44   0.846   0.874   1.888
   10SOL    HW2   45   0.872   0.834   1.732
   11SOL     OW   46   0.685   1.012   0.665
   11SOL    HW1   47   0.754   0.996   0.735
   11SOL    HW2   48   0.612   1.069   0.703
   12SOL     OW   49   0.686   1.161   1.803
   12SOL    HW1   50   0.746   1.240   1.817
   12SOL    HW2   51   0.600   1.192   1.762
   13SOL     OW   52   0.335   1.435   1.061
   13SOL    HW1   53   0.257   1.404   1.008
   13SOL    HW2   54   0.393   1.493   1.004
   14SOL     OW   55   0.438   0.392   1.499
   14SOL    HW1   56   0.520   0.336   1.508
   14SOL    HW2   57   0.357   0.334   1.503
   15SOL     OW   58   1.603   0.447   0.737
   15SOL    HW1   59   1.529   0.493   0.687
   15SOL    HW2   60   1.654   0.515   0.790
   16SOL     OW   61   0.231   1.713   0.483
   16SOL    HW1   62   0.265   1.790   0.537
   16SOL    HW2   63   0.275   1.713   0.393
   17SOL     OW   64   1.127   1.341   1.690
   17SOL    HW1   65   1.174   1.341   1.778
   17SOL    HW2   66   1.079   1.254   1.679
   18SOL     OW   67   0.230   1.434   0.538
   18SOL    HW1   68   0.204   1.530   0.538
   18SOL    HW2   69   0.159   1.380   0.583
   19SOL     OW   70   0.240   1.091   0.886
   19SOL    HW1   71   0.254   1.007   0.938
   19SOL    HW2   72   0.185   1.155   0.941
   20SOL     OW   73   0.620   1.786   1.439
   20SOL    HW1   74   0.528   1.769   1.474
   20SOL    HW2   75   0.648   1.878   1.465
   21SOL     OW   76   0.606   0.964   0.123
   21SOL    HW1   77   0.613   1.048   0.069
   21SOL    HW2   78   0.652   0.977   0.211
   22SOL     OW   79   1.594   0.114   1.480
   22SOL    HW1   80   1.576   0.181   1.408
   22SOL    HW2   81   1.591   0.160   1.569
   23SOL     OW   82   0.122   0.643   0.563
   23SOL    HW1   83   0.077   0.555   0.580
   23SOL    HW2   84   0.121   0.697   0.647
   24SOL     OW   85   1.842   1.767   0.359
   24SOL    HW1   86   1.896   1.738   0.439
   24SOL    HW2   87   1.872   1.857   0.330
   25SOL     OW   88   0.027   1.596   0.117
   25SOL    HW1   89   0.008   1.500   0.138
   25SOL    HW2   90  -0.006   1.654   0.192
   26SOL     OW   91   1.689   0.922   0.612
   26SOL    HW1   92   1.784   0.893   0.620
   26SOL    HW2   93   1.681   0.987   0.537
   27SOL     OW   94   1.641   1.108   0.432
   27SOL    HW1   95   1.727   1.110   0.380
   27SOL    HW2   96   1.655   1.155   0.520
   28SOL     OW   97   0.113   0.737   1.597
   28SOL    HW1   98   0.201   0.724   1.642
   28SOL    HW2   99   0.100   0.834   1.575
   29SOL     OW  100   0.613   1.365   0.726
   29SOL    HW1  101   0.564   1.278   0.735
   29SOL    HW2  102   0.590   1.408   0.639
   30SOL     OW  103   1.293   1.228   1.423
   30SOL    HW1  104   1.330   1.155   1.365
   30SOL    HW2  105   1.345   1.233   1.508
   31SOL     OW  106   0.809   0.004   0.502
   31SOL    HW1  107   0.849   0.095   0.493
   31SOL    HW2  108   0.709   0.012   0.508
   32SOL     OW  109   0.197   0.976   1.264
   32SOL    HW1  110   0.286   0.931   1.250
   32SOL    HW2  111   0.124   0.911   1.245
   33SOL     OW  112   1.525   0.999   0.190
   33SOL    HW1  113   1.462   0.923   0.203
   33SOL    HW2  114   1.573   1.017   0.276
   34SOL     OW  115   1.187   1.792   1.616
   34SOL    HW1  116   1.211   1.852   1.540
   34SOL    HW2  117   1.194   1.697   1.586
   35SOL     OW  118   0.317   0.251   1.801
   35SOL    HW1  119   0.388   0.322   1.807
   35SOL    HW2  120   0.229   0.290   1.829
   36SOL     OW  121   1.667   1.714   0.572
   36SOL    HW1  122   1.626   1.691   0.484
   36SOL    HW2  123   1.649   1.640   0.637
   37SOL     OW  124   0.598   0.729   0.270
   37SOL    HW1  125   0.622   0.798   0.202
   37SOL    HW2  126   0.520   0.762   0.324
   38SOL     OW  127   1.281   0.345   0.944
   38SOL    HW1  128   1.195   0.295   0.931
   38SOL    HW2  129   1.343   0.291   1.000
   39SOL     OW  130   1.576   1.662   0.307
   39SOL    HW1  131   1.665   1.708   0.310
   39SOL    HW2  132   1.555   1.638   0.212
   40SOL     OW  133   0.807   0.605   1.465
   40SOL    HW1  134   0.760   0.602   1.554
   40SOL    HW2  135   0.756   0.550   1.399
   41SOL     OW  136   1.394   0.469   1.674
   41SOL    HW1  137   1.374   0.512   1.762
   41SOL    HW2  138   1.472   0.407   1.683
   42SOL     OW  139   0.973   0.890   1.572
   42SOL    HW1  140   1.019   0.806   1.543
   42SOL    HW2  141   0.917   0.924   1.497
   43SOL     OW  142   0.991   0.410   1.242
   43SOL    HW1  143   0.914   0.444   1.296
   43SOL    HW2  144   0.957   0.359   1.163
   44SOL     OW  145   1.041   0.701   0.429
   44SOL    HW1  146   1.067   0.697   0.525
   44SOL    HW2  147   0.956   0.650   0.415
   45SOL     OW  148   0.076   0.811   0.789
   45SOL    HW1  149   0.175   0.799   0.798
   45SOL    HW2  150   0.052   0.906   0.810
   46SOL     OW  151   0.130   1.821   1.571
   46SOL    HW1  152   0.120   1.806   1.670
   46SOL    HW2  153   0.044   1.857   1.535
   47SOL     OW  154   0.865   0.348   0.195
   47SOL    HW1  155   0.924   0.411   0.146
   47SOL    HW2  156   0.884   0.254   0.166
   48SOL     OW  157   1.719   0.585   1.831
   48SOL    HW1  158   1.693   0.674   1.795
   48SOL    HW2  159   1.717   0.517   1.758
   49SOL     OW  160   1.362   1.144   0.545
   49SOL    HW1  161   1.445   1.115   0.497
   49SOL    HW2  162   1.313   1.211   0.489
   50SOL     OW  163   0.550   0.196   0.885
   50SOL    HW1  164   0.545   0.191   0.985
   50SOL    HW2  165   0.552   0.292   0.856
   51SOL     OW  166   1.008   1.456   0.477
   51SOL    HW1  167   0.962   1.528   0.425
   51SOL    HW2  168   1.004   1.476   0.575
   52SOL     OW  169   0.351   1.801   0.853
   52SOL    HW1  170   0.401   1.715   0.859
   52SOL    HW2  171   0.416   1.878   0.850
   53SOL     OW  172   1.795   1.066   0.873
   53SOL    HW1  173   1.733   1.051   0.797
   53SOL    HW2  174   1.743   1.077   0.958
   54SOL     OW  175   0.321   0.943   0.242
   54SOL    HW1  176   0.403   0.982   0.200
   54SOL    HW2  177   0.294   0.861   0.193
   55SOL     OW  178   1.458   0.735   0.728
   55SOL    HW1  179   1.453   0.670   0.803
   55SOL    HW2  180   1.538   0.794   0.741
   56SOL     OW  181   0.461   1.266   1.727
   56SOL    HW1  182   0.411   1.267   1.641
   56SOL    HW2  183   0.398   1.248   1.803
   57SOL     OW  184   1.111   1.776   0.237
   57SOL    HW1  185   1.051   1.714   0.287
   57SOL    HW2  186   1.142   1.732   0.152
   58SOL     OW  187   0.202   0.285   1.498
   58SOL    HW1  188   0.122   0.345   1.485
   58SOL    HW2  189   0.192   0.236   1.584
   59SOL     OW  190   1.632   1.377   0.081
   59SOL    HW1  191   1.600   1.471   0.071
   59SOL    HW2  192   1.556   1.314   0.069
   60SOL     OW  193   0.464   1.743   0.323
   60SOL    HW1  194   0.497   1.782   0.409
   60SOL    HW2  195   0.540   1.736   0.258
   61SOL     OW  196   1.400   0.107   0.426
   61SOL    HW1  197   1.376   0.070   0.336
   61SOL    HW2  198   1.499   0.123   0.430
   62SOL     OW  199   0.249   1.785   1.241
   62SOL    HW1  200   0.306   1.720   1.291
   62SOL    HW2  201   0.233   1.752   1.148
   63SOL     OW  202   0.940   1.698   0.904
   63SOL    HW1  203   1.020   1.641   0.925
   63SOL    HW2  204   0.891   1.658   0.827
   64SOL     OW  205   0.382   0.700   0.480
   64SOL    HW1  206   0.427   0.610   0.477
   64SOL    HW2  207   0.288   0.689   0.513
   65SOL     OW  208   1.547   0.222   1.729
   65SOL    HW1  209   1.542   0.259   1.821
   65SOL    HW2  210   1.475   0.153   1.717
   66SOL     OW  211   0.614   0.122   0.117
   66SOL    HW1  212   0.712   0.100   0.124
   66SOL    HW2  213   0.583   0.105   0.024
   67SOL     OW  214   0.781   0.264   1.749
   67SOL    HW1  215   0.848   0.203   1.792
   67SOL    HW2  216   0.708   0.283   1.814
   68SOL     OW  217   0.888   1.514   1.195
   68SOL    HW1  218   0.865   1.489   1.101
   68SOL    HW2  219   0.949   1.445   1.234
   69SOL     OW  220   1.351   0.590   1.433
   69SOL    HW1  221   1.379   0.547   1.518
   69SOL    HW2  222   1.376   0.686   1.434
   70SOL     OW  223   0.803   1.402   0.924
   70SOL    HW1  224   0.893   1.416   0.882
   70SOL    HW2  225   0.732   1.404   0.853
   71SOL     OW  226   0.922   0.503   0.899
   71SOL    HW1  227   0.897   0.494   0.803
   71SOL    HW2  228   0.970   0.421   0.930
   72SOL     OW  229   0.539   0.064   0.512
   72SOL    HW1  230   0.458   0.065   0.570
   72SOL    HW2  231   0.542   0.147   0.457
   73SOL     OW  232   1.434   1.188   0.041
   73SOL    HW1  233   1.466   1.112   0.098
   73SOL    HW2  234   1.342   1.215   0.071
   74SOL     OW  235   0.297   0.035   0.171
   74SOL    HW1  236   0.346   0.119   0.150
   74SOL    HW2  237   0.359  -0.030   0.216
   75SOL     OW  238   0.935   0.236   0.480
   75SOL    HW1  239   0.887   0.277   0.402
   75SOL    HW2  240   1.034   0.234   0.461
   76SOL     OW  241   1.076   0.683   1.464
   76SOL    HW1  242   0.996   0.622   1.467
   76SOL    HW2  243   1.157   0.630   1.440
   77SOL     OW  244   1.227   1.570   0.793
   77SOL    HW1  245   1.248   1.644   0.728
   77SOL    HW2  246   1.295   1.570   0.866
   78SOL     OW  247   0.459   1.152   0.741
   78SOL    HW1  248   0.388   1.125   0.806
   78SOL    HW2  249   0.433   1.124   0.648
   79SOL     OW  250   1.271   1.797   0.591
   79SOL    HW1  251   1.315   1.861   0.527
   79SOL    HW2  252   1.221   1.849   0.661
   80SOL     OW  253   1.032   0.549   0.016
   80SOL    HW1  254   0.991   0.631  -0.023
   80SOL    HW2  255   1.096   0.575   0.089
   81SOL     OW  256   0.078   0.556   1.386
   81SOL    HW1  257   0.170   0.555   1.345
   81SOL    HW2  258   0.072   0.630   1.453
   82SOL     OW  259   0.561   0.222   1.147
   82SOL    HW1  260   0.599   0.138   1.184
   82SOL    HW2  261   0.473   0.241   1.191
   83SOL     OW  262   0.866   0.454   0.642
   83SOL    HW1  263   0.834   0.526   0.580
   83SOL    HW2  264   0.890   0.373   0.589
   84SOL     OW  265   1.017   0.039   0.753
   84SOL    HW1  266   0.945   0.044   0.684
   84SOL    HW2  267   0.993  -0.030   0.822
   85SOL     OW  268   1.429   1.173   0.867
   85SOL    HW1  269   1.374   1.089   0.860
   85SOL    HW2  270   1.455   1.202   0.775
   86SOL     OW  271   1.466   0.590   0.992
   86SOL    HW1  272   1.436   0.495   0.999
   86SOL    HW2  273   1.539   0.606   1.058
   87SOL     OW  274   1.857   0.833   0.377
   87SOL    HW1  275   1.899   0.769   0.441
   87SOL    HW2  276   1.819   0.782   0.299
   88SOL     OW  277   0.488   1.385   0.174
   88SOL    HW1  278   0.401   1.370   0.221
   88SOL    HW2  279   0.471   1.411   0.079
   89SOL     OW  280   1.664   1.280   0.657
   89SOL    HW1  281   1.763   1.288   0.671
   89SOL    HW2  282   1.619   1.364   0.688
   90SOL     OW  283   1.390   0.575   0.078
   90SOL    HW1  284   1.336   0.554   0.159
   90SOL    HW2  285   1.481   0.534   0.087
   91SOL     OW  286   0.527   0.256   0.328
   91SOL    HW1  287   0.554   0.197   0.253
   91SOL    HW2  288   0.527   0.351   0.297
   92SOL     OW  289   1.754   1.223   1.588
   92SOL    HW1  290   1.845   1.184   1.575
   92SOL    HW2  291   1.762   1.319   1.612
   93SOL     OW  292   1.064   1.347   1.340
   93SOL    HW1  293   0.984   1.324   1.395
   93SOL    HW2  294   1.147   1.321   1.389
   94SOL     OW  295   1.592   1.629   1.625
   94SOL    HW1  296   1.619   1.663   1.535
   94SOL    HW2  297   1.671   1.591   1.671
   95SOL     OW  298   1.111   1.195   1.100
   95SOL    HW1  299   1.071   1.239   1.181
   95SOL    HW2  300   1.070   1.232   1.017
   96SOL     OW  301   1.638   1.099   1.079
   96SOL    HW1  302   1.643   1.180   1.138
   96SOL    HW2  303   1.552   1.101   1.028
   97SOL     OW  304   0.915   0.089   1.402
   97SOL    HW1  305   0.940   0.069   1.307
   97SOL    HW2  306   0.987   0.145   1.444
   98SOL     OW  307   0.980   1.116   1.719
   98SOL    HW1  308   0.881   1.122   1.729
   98SOL    HW2  309   1.003   1.036   1.663
   99SOL     OW  310   0.705   1.050   0.368
   99SOL    HW1  311   0.691   1.057   0.467
   99SOL    HW2  312   0.789   0.999   0.350
  100SOL     OW  313   0.410   0.813   1.251
  100SOL    HW1  314   0.496   0.825   1.301
  100SOL    HW2  315   0.368   0.726   1.278
  101SOL     OW  316   1.274   0.386   1.262
  101SOL    HW1  317   1.295   0.460   1.326
  101SOL    HW2  318   1.185   0.403   1.219
  102SOL     OW  319   0.064   1.564   1.331
  102SOL    HW1  320   0.018   1.646   1.297
  102SOL    HW2  321   0.162   1.583   1.340
  103SOL     OW  322   0.367   1.100   0.501
  103SOL    HW1  323   0.360   1.183   0.445
  103SOL    HW2  324   0.371   1.020   0.441
  104SOL     OW  325   0.566   0.537   0.865
  104SOL    HW1  326   0.578   0.603   0.791
  104SOL    HW2  327   0.612   0.571   0.948
  105SOL     OW  328   1.252   1.348   0.388
  105SOL    HW1  329   1.302   1.425   0.428
  105SOL    HW2  330   1.157   1.350   0.420
  106SOL     OW  331   1.582   0.639   0.472
  106SOL    HW1  332   1.551   0.700   0.545
  106SOL    HW2  333   1.632   0.691   0.403
  107SOL     OW  334   0.354   1.510   1.329
  107SOL    HW1  335   0.333   1.466   1.242
  107SOL    HW2  336   0.451   1.536   1.332
  108SOL     OW  337   0.402   0.751   1.598
  108SOL    HW1  338   0.470   0.806   1.551
  108SOL    HW2  339   0.442   0.663   1.625
  109SOL     OW  340   1.587   0.779   1.670
  109SOL    HW1  341   1.495   0.817   1.665
  109SOL    HW2  342   1.647   0.826   1.605
  110SOL     OW  343   1.013   0.105   1.770
  110SOL    HW1  344   1.019   0.190   1.718
  110SOL    HW2  345   1.045   0.029   1.713
  111SOL     OW  346   0.504   0.050   1.740
  111SOL    HW1  347   0.462  -0.007   1.670
  111SOL    HW2  348   0.438   0.119   1.772
  112SOL     OW  349   0.573   0.870   1.029
  112SOL    HW1  350   0.617   0.959   1.020
  112SOL    HW2  351   0.510   0.870   1.106
  113SOL     OW  352   1.360   0.862   1.045
  113SOL    HW1  353   1.285   0.862   0.979
  113SOL    HW2  354   1.397   0.770   1.054
  114SOL     OW  355   1.209   0.525   0.275
  114SOL    HW1  356   1.222   0.441   0.329
  114SOL    HW2  357   1.180   0.599   0.335
  115SOL     OW  358   0.307   0.213   1.231
  115SOL    HW1  359   0.284   0.250   1.321
  115SOL    HW2  360   0.277   0.118   1.225
  116SOL     OW  361   0.037   1.310   1.282
  116SOL    HW1  362   0.090   1.261   1.350
  116SOL    HW2  363   0.059   1.408   1.287
  117SOL     OW  364   0.732   0.634   1.064
  117SOL    HW1  365   0.791   0.608   0.988
  117SOL    HW2  366   0.704   0.730   1.053
  118SOL     OW  367   1.728   0.935   1.854
  118SOL    HW1  368   1.682   0.928   1.765
  118SOL    HW2  369   1.666   0.979   1.920
  119SOL     OW  370   0.307   0.063   0.618
  119SOL    HW1  371   0.296   0.157   0.651
  119SOL    HW2  372   0.302   0.000   0.695
  120SOL     OW  373   1.622   0.367   0.374
  120SOL    HW1  374   1.624   0.291   0.438
  120SOL    HW2  375   1.574   0.444   0.414
  121SOL     OW  376   1.023   0.766   0.966
  121SOL    HW1  377   1.038   0.787   1.062
  121SOL    HW2  378   0.993   0.671   0.957
  122SOL     OW  379   0.980   1.573   1.700
  122SOL    HW1  380   0.960   1.617   1.612
  122SOL    HW2  381   1.019   1.482   1.684
  123SOL     OW  382   1.859   1.518   1.605
  123SOL    HW1  383   1.873   1.545   1.510
  123SOL    HW2  384   1.942   1.540   1.658
  124SOL     OW  385   0.350   0.898   1.804
  124SOL    HW1  386   0.426   0.942   1.852
  124SOL    HW2  387   0.385   0.851   1.722
  125SOL     OW  388   1.540   0.274   0.125
  125SOL    HW1  389   1.479   0.199   0.148
  125SOL    HW2  390   1.562   0.326   0.208
  126SOL     OW  391   1.303   0.838   0.042
  126SOL    HW1  392   1.337   0.745   0.057
  126SOL    HW2  393   1.321   0.865  -0.053
  127SOL     OW  394   1.068   1.333   0.849
  127SOL    HW1  395   1.075   1.249   0.794
  127SOL    HW2  396   1.130   1.402   0.813
  128SOL     OW  397   0.319   0.810   0.949
  128SOL    HW1  398   0.412   0.846   0.954
  128SOL    HW2  399   0.313   0.725   1.001
  129SOL     OW  400   0.339   0.509   1.006
  129SOL    HW1  401   0.287   0.426   0.989
  129SOL    HW2  402   0.416   0.514   0.942
  130SOL     OW  403   1.138   0.380   1.678
  130SOL    HW1  404   1.093   0.443   1.742
  130SOL    HW2  405   1.231   0.411   1.661
  131SOL     OW  406   1.160   0.207   1.477
  131SOL    HW1  407   1.160   0.271   1.554
  131SOL    HW2  408   1.188   0.255   1.394
  132SOL     OW  409   0.008   1.326   0.200
  132SOL    HW1  410  -0.085   1.347   0.169
  132SOL    HW2  411   0.018   1.227   0.213
  133SOL     OW  412   0.088   1.801   0.927
  133SOL    HW1  413   0.046   1.715   0.900
  133SOL    HW2  414   0.182   1.804   0.893
  134SOL     OW  415   0.504   1.568   0.910
  134SOL    HW1  416   0.570   1.642   0.919
  134SOL    HW2  417   0.548   1.489   0.868
  135SOL     OW  418   1.002   0.796   1.238
  135SOL    HW1  419   1.043   0.764   1.324
  135SOL    HW2  420   0.906   0.769   1.235
  136SOL     OW  421   0.040   0.544   1.114
  136SOL    HW1  422   0.125   0.511   1.073
  136SOL    HW2  423   0.053   0.559   1.212
  137SOL     OW  424   0.189   0.520   1.722
  137SOL    HW1  425   0.248   0.480   1.652
  137SOL    HW2  426   0.131   0.591   1.681
  138SOL     OW  427   1.369   0.950   1.660
  138SOL    HW1  428   1.408   1.039   1.680
  138SOL    HW2  429   1.379   0.930   1.563
  139SOL     OW  430   0.815   0.572   0.325
  139SOL    HW1  431   0.822   0.483   0.279
  139SOL    HW2  432   0.721   0.606   0.317
  140SOL     OW  433   1.657   0.604   1.206
  140SOL    HW1  434   1.619   0.535   1.268
  140SOL    HW2  435   1.739   0.568   1.162
  141SOL     OW  436   0.252   1.564   1.744
  141SOL    HW1  437   0.222   1.621   1.820
  141SOL    HW2  438   0.245   1.467   1.770
  142SOL     OW  439   0.671   0.464   1.269
  142SOL    HW1  440   0.637   0.375   1.239
  142SOL    HW2  441   0.697   0.518   1.189
  143SOL     OW  442   0.930   1.678   1.465
  143SOL    HW1  443   0.906   1.660   1.370
  143SOL    HW2  444   0.960   1.772   1.475
  144SOL     OW  445   0.473   0.500   0.191
  144SOL    HW1  446   0.534   0.580   0.195
  144SOL    HW2  447   0.378   0.531   0.198
  145SOL     OW  448   0.159   1.137   1.466
  145SOL    HW1  449   0.181   1.076   1.542
  145SOL    HW2  450   0.169   1.088   1.380
  146SOL     OW  451   1.347   1.059   1.234
  146SOL    HW1  452   1.371   0.996   1.160
  146SOL    HW2  453   1.257   1.099   1.216
  147SOL     OW  454   1.302   0.855   0.309
  147SOL    HW1  455   1.216   0.824   0.351
  147SOL    HW2  456   1.298   0.841   0.210
  148SOL     OW  457   1.759   1.747   1.154
  148SOL    HW1  458   1.820   1.777   1.081
  148SOL    HW2  459   1.721   1.658   1.132
  149SOL     OW  460   1.252   1.731   1.128
  149SOL    HW1  461   1.336   1.736   1.074
  149SOL    HW2  462   1.229   1.635   1.146
  150SOL     OW  463   0.083   1.258   1.022
  150SOL    HW1  464   0.078   1.257   1.122
  150SOL    HW2  465   0.000   1.217   0.984
  151SOL     OW  466   0.688   1.662   1.716
  151SOL    HW1  467   0.632   1.743   1.725
  151SOL    HW2  468   0.740   1.666   1.630
  152SOL     OW  469   0.903   0.086   0.133
  152SOL    HW1  470   0.954   0.087   0.047
  152SOL    HW2  471   0.959   0.044   0.204
  153SOL     OW  472   1.726   0.135   0.523
  153SOL    HW1  473   1.799   0.118   0.456
  153SOL    HW2  474   1.695   0.048   0.561
  154SOL     OW  475   1.388   1.573   0.477
  154SOL    HW1  476   1.455   1.585   0.403
  154SOL    HW2  477   1.348   1.662   0.500
  155SOL     OW  478   0.130   1.794   1.851
  155SOL    HW1  479   0.089   1.720   1.904
  155SOL    HW2  480   0.194   1.845   1.909
  156SOL     OW  481   1.280   0.927   0.672
  156SOL    HW1  482   1.340   0.846   0.674
  156SOL    HW2  483   1.320   0.996   0.612
  157SOL     OW  484   0.830   1.273   1.422
  157SOL    HW1  485   0.825   1.306   1.517
  157SOL    HW2  486   0.744   1.292   1.376
  158SOL     OW  487   0.672   1.616   0.154
  158SOL    HW1  488   0.681   1.626   0.055
  158SOL    HW2  489   0.632   1.527   0.175
  159SOL     OW  490   1.650   1.720   1.394
  159SOL    HW1  491   1.703   1.730   1.310
  159SOL    HW2  492   1.623   1.810   1.428
  160SOL     OW  493   1.841   0.175   0.963
  160SOL    HW1  494   1.880   0.090   0.927
  160SOL    HW2  495   1.743   0.177   0.944
  161SOL     OW  496   0.263   0.326   0.720
  161SOL    HW1  497   0.184   0.377   0.686
  161SOL    HW2  498   0.254   0.311   0.818
  162SOL     OW  499   1.194   1.612   0.031
  162SOL    HW1  500   1.200   1.519   0.068
  162SOL    HW2  501   1.135   1.612  -0.049
  163SOL     OW  502   0.822   1.002   1.372
  163SOL    HW1  503   0.862   1.001   1.280
  163SOL    HW2  504   0.832   1.094   1.412
  164SOL     OW  505   0.916   0.910   0.291
  164SOL    HW1  506   0.979   0.948   0.223
  164SOL    HW2  507   0.956   0.827   0.330
  165SOL     OW  508   1.504   1.607   0.044
  165SOL    HW1  509   1.412   1.644   0.051
  165SOL    HW2  510   1.542   1.627  -0.046
  166SOL     OW  511   0.372   1.288   1.490
  166SOL    HW1  512   0.359   1.381   1.456
  166SOL    HW2  513   0.288   1.236   1.477
  167SOL     OW  514   1.039   1.098   0.696
  167SOL    HW1  515   0.969   1.051   0.750
  167SOL    HW2  516   1.098   1.030   0.653
  168SOL     OW  517   1.014   0.236   0.971
  168SOL    HW1  518   1.006   0.200   0.878
  168SOL    HW2  519   1.012   0.160   1.036
  169SOL     OW  520   0.590   1.487   0.491
  169SOL    HW1  521   0.632   1.429   0.421
  169SOL    HW2  522   0.546   1.566   0.447
  170SOL     OW  523   1.709   0.385   1.381
  170SOL    HW1  524   1.782   0.454   1.385
  170SOL    HW2  525   1.737   0.310   1.322
  171SOL     OW  526   0.255   1.348   0.290
  171SOL    HW1  527   0.159   1.349   0.263
  171SOL    HW2  528   0.267   1.401   0.374
  172SOL     OW  529   0.105   1.013   1.726
  172SOL    HW1  530   0.028   0.980   1.780
  172SOL    HW2  531   0.190   0.983   1.768
  173SOL     OW  532   0.672   0.203   1.489
  173SOL    HW1  533   0.762   0.187   1.449
  173SOL    HW2  534   0.680   0.208   1.588
  174SOL     OW  535   0.075   0.345   0.033
  174SOL    HW1  536  -0.017   0.317   0.004
  174SOL    HW2  537   0.106   0.422  -0.023
  175SOL     OW  538   1.440   0.856   1.398
  175SOL    HW1  539   1.383   0.908   1.335
  175SOL    HW2  540   1.536   0.868   1.374
  176SOL     OW  541   0.072   0.166   0.318
  176SOL    HW1  542   0.055   0.249   0.264
  176SOL    HW2  543   0.162   0.129   0.296
  177SOL     OW  544   1.183   1.335   0.119
  177SOL    HW1  545   1.084   1.324   0.121
  177SOL    HW2  546   1.217   1.350   0.212
  178SOL     OW  547   0.613   0.842   1.431
  178SOL    HW1  548   0.669   0.923   1.414
  178SOL    HW2  549   0.672   0.762   1.434
  179SOL     OW  550   1.493   1.767   0.959
  179SOL    HW1  551   1.526   1.831   0.890
  179SOL    HW2  552   1.559   1.761   1.034
  180SOL     OW  553   0.716   0.565   1.708
  180SOL    HW1  554   0.735   0.630   1.782
  180SOL    HW2  555   0.776   0.485   1.717
  181SOL     OW  556   0.390   1.741   1.560
  181SOL    HW1  557   0.299   1.782   1.558
  181SOL    HW2  558   0.383   1.647   1.592
  182SOL     OW  559   1.674   0.883   1.254
  182SOL    HW1  560   1.647   0.794   1.217
  182SOL    HW2  561   1.675   0.951   1.181
  183SOL     OW  562   1.225   0.325   0.449
  183SOL    HW1  563   1.290   0.251   0.438
  183SOL    HW2  564   1.245   0.375   0.533
  184SOL     OW  565   0.594   0.745   0.652
  184SOL    HW1  566   0.644   0.830   0.633
  184SOL    HW2  567   0.506   0.747   0.604
  185SOL     OW  568   1.777   0.342   1.642
  185SOL    HW1  569   1.760   0.373   1.548
  185SOL    HW2  570   1.693   0.305   1.680
  186SOL     OW  571   1.730   0.934   1.517
  186SOL    HW1  572   1.768   1.025   1.532
  186SOL    HW2  573   1.722   0.917   1.418
  187SOL     OW  574   0.859   1.374   0.016
  187SOL    HW1  575   0.813   1.389   0.104
  187SOL    HW2  576   0.903   1.459  -0.014
  188SOL     OW  577   0.661   1.790   0.953
  188SOL    HW1  578   0.615   1.878   0.940
  188SOL    HW2  579   0.760   1.802   0.946
  189SOL     OW  580   0.859   0.956   0.861
  189SOL    HW1  581   0.913   0.887   0.909
  189SOL    HW2  582   0.827   1.025   0.927
  190SOL     OW  583   1.083   0.984   0.087
  190SOL    HW1  584   1.060   1.037   0.005
  190SOL    HW2  585   1.164   0.928   0.068
  191SOL     OW  586   1.861   1.569   0.851
  191SOL    HW1  587   1.790   1.557   0.781
  191SOL    HW2  588   1.862   1.490   0.911
  192SOL     OW  589   0.221   1.314   1.844
  192SOL    HW1  590   0.156   1.241   1.823
  192SOL    HW2  591   0.225   1.328   1.942
  193SOL     OW  592   0.079   1.240   0.653
  193SOL    HW1  593   0.078   1.193   0.741
  193SOL    HW2  594   0.161   1.212   0.602
  194SOL     OW  595   0.672   1.391   1.624
  194SOL    HW1  596   0.594   1.341   1.662
  194SOL    HW2  597   0.669   1.486   1.655
  195SOL     OW  598   1.824   0.192   1.227
  195SOL    HW1  599   1.820   0.102   1.271
  195SOL    HW2  600   1.827   0.181   1.128
  196SOL     OW  601   0.428   0.424   0.520
  196SOL    HW1  602   0.458   0.352   0.458
  196SOL    HW2  603   0.389   0.384   0.603
  197SOL     OW  604   1.705   1.487   1.104
  197SOL    HW1  605   1.612   1.462   1.077
  197SOL    HW2  606   1.731   1.437   1.186
  198SOL     OW  607   0.317   0.547   1.280
  198SOL    HW1  608   0.355   0.488   1.352
  198SOL    HW2  609   0.357   0.521   1.192
  199SOL     OW  610   0.812   1.586   0.687
  199SOL    HW1  611   0.844   1.596   0.593
  199SOL    HW2  612   0.733   1.524   0.689
  200SOL     OW  613   1.424   0.214   1.112
  200SOL    HW1  614   1.476   0.149   1.167
  200SOL    HW2  615   1.375   0.277   1.173
  201SOL     OW  616   1.001   0.034   1.154
  201SOL    HW1  617   0.938  -0.038   1.123
  201SOL    HW2  618   1.094  -0.002   1.154
  202SOL     OW  619   0.770   1.330   0.301
  202SOL    HW1  620   0.724   1.243   0.318
  202SOL    HW2  621   0.861   1.327   0.342
  203SOL     OW  622   0.618   1.567   1.284
  203SOL    HW1  623   0.613   1.649   1.341
  203SOL    HW2  624   0.707   1.564   1.239
  204SOL     OW  625   1.352   0.052   0.168
  204SOL    HW1  626   1.387   0.011   0.084
  204SOL    HW2  627   1.262   0.014   0.188
  205SOL     OW  628   1.300   0.453   0.691
  205SOL    HW1  629   1.241   0.533   0.695
  205SOL    HW2  630   1.315   0.418   0.784
  206SOL     OW  631   1.593   0.221   0.882
  206SOL    HW1  632   1.509   0.220   0.936
  206SOL    HW2  633   1.595   0.304   0.826
  207SOL     OW  634   0.039   1.077   0.300
  207SOL    HW1  635   0.138   1.066   0.291
  207SOL    HW2  636  -0.001   0.991   0.332
  208SOL     OW  637   0.875   1.646   0.337
  208SOL    HW1  638   0.798   1.611   0.283
  208SOL    HW2  639   0.843   1.717   0.399
  209SOL     OW  640   0.230   0.628   1.975
  209SOL    HW1  641   0.137   0.626   2.012
  209SOL    HW2  642   0.231   0.589   1.883
  210SOL     OW  643   0.019   0.368   2.509
  210SOL    HW1  644  -0.063   0.411   2.548
  210SOL    HW2  645  -0.009   0.295   2.446
  211SOL     OW  646   1.555   1.511   2.565
  211SOL    HW1  647   1.498   1.495   2.646
  211SOL    HW2  648   1.496   1.521   2.485
  212SOL     OW  649   1.135   0.703   2.579
  212SOL    HW1  650   1.192   0.781   2.554
  212SOL    HW2  651   1.075   0.729   2.655
  213SOL     OW  652   1.755   0.607   2.093
  213SOL    HW1  653   1.743   0.594   1.994
  213SOL    HW2  654   1.725   0.526   2.142
  214SOL     OW  655   0.768   1.144   2.885
  214SOL    HW1  656   0.690   1.161   2.945
  214SOL    HW2  657   0.802   1.231   2.849
  215SOL     OW  658   0.685   1.012   2.527
  215SOL    HW1  659   0.754   0.996   2.597
  215SOL    HW2  660   0.612   1.069   2.565
  216SOL     OW  661   1.603   0.447   2.599
  216SOL    HW1  662   1.529   0.493   2.549
  216SOL    HW2  663   1.654   0.515   2.652
  217SOL     OW  664   0.231   1.713   2.345
  217SOL    HW1  665   0.265   1.790   2.399
  217SOL    HW2  666   0.275   1.713   2.255
  218SOL     OW  667   0.230   1.434   2.400
  218SOL    HW1  668   0.204   1.530   2.400
  218SOL    HW2  669   0.159   1.380   2.445
  219SOL     OW  670   0.240   1.091   2.748
  219SOL    HW1  671   0.254   1.007   2.800
  219SOL    HW2  672   0.185   1.155   2.803
  220SOL     OW  673   0.606   0.964   1.985
  220SOL    HW1  674   0.613   1.048   1.931
  220SOL    HW2  675   0.652   0.977   2.073
  221SOL     OW  676   0.122   0.643   2.425
  221SOL    HW1  677   0.077   0.555   2.442
  221SOL    HW2  678   0.121   0.697   2.509
  222SOL     OW  679   1.842   1.767   2.221
  222SOL    HW1  680   1.896   1.738   2.301
  222SOL    HW2  681   1.872   1.857   2.192
  223SOL     OW  682   0.027   1.596   1.979
  223SOL    HW1  683   0.008   1.500   2.000
  223SOL    HW2  684  -0.006   1.654   2.054
  224SOL     OW  685   1.689   0.922   2.474
  224SOL    HW1  686   1.784   0.893   2.482
  224SOL    HW2  687   1.681   0.987   2.399
  225SOL     OW  688   1.641   1.108   2.294
  225SOL    HW1  689   1.727   1.110   2.242
  225SOL    HW2  690   1.655   1.155   2.382
  226SOL     OW  691   0.613   1.365   2.588
  226SOL    HW1  692   0.564   1.278   2.597
  226SOL    HW2  693   0.590   1.408   2.501
  227SOL     OW  694   0.809   0.004   2.364
  227SOL    HW1  695   0.849   0.095   2.355
  227SOL    HW2  696   0.709   0.012   2.370
  228SOL     OW  697   1.525   0.999   2.052
  228SOL    HW1  698   1.462   0.923   2.065
  228SOL    HW2  699   1.573   1.017   2.138
  229SOL     OW  700   1.667   1.714   2.434
  229SOL    HW1  701   1.626   1.691   2.346
  229SOL    HW2  702   1.649   1.640   2.499
  230SOL     OW  703   0.598   0.729   2.132
  230SOL    HW1  704   0.622   0.798   2.064
  230SOL    HW2  705   0.520   0.762   2.186
  231SOL     OW  706   1.281   0.345   2.806
  231SOL    HW1  707   1.195   0.295   2.793
  231SOL    HW2  708   1.343   0.291   2.862
  232SOL     OW  709   1.576   1.662   2.169
  232SOL    HW1  710   1.665   1.708   2.172
  232SOL    HW2  711   1.555   1.638   2.074
  233SOL     OW  712   1.041   0.701   2.291
  233SOL    HW1  713   1.067   0.697   2.387
  233SOL    HW2  714   0.956   0.650   2.277
  234SOL     OW  715   0.076   0.811   2.651
  234SOL    HW1  716   0.175   0.799   2.660
  234SOL    HW2  717   0.052   0.906   2.672
  235SOL     OW  718   0.865   0.348   2.057
  235SOL    HW1  719   0.924   0.411   2.008
  235SOL    HW2  720   0.884   0.254   2.028
  236SOL     OW  721   1.362   1.144   2.407
  236SOL    HW1  722   1.445   1.115   2.359
  236SOL    HW2  723   1.313   1.211   2.351
  237SOL     OW  724   1.008   1.456   2.339
  237SOL    HW1  725   0.962   1.528   2.287
  237SOL    HW2  726   1.004   1.476   2.437
  238SOL     OW  727   0.351   1.801   2.715
  238SOL    HW1  728   0.401   1.715   2.721
  238SOL    HW2  729   0.416   1.878   2.712
  239SOL     OW  730   1.795   1.066   2.735
  239SOL    HW1  731   1.733   1.051   2.659
  239SOL    HW2  732   1.743   1.077   2.820
  240SOL     OW  733   0.321   0.943   2.104
  240SOL    HW1  734   0.403   0.982   2.062
  240SOL    HW2  735   0.294   0.861   2.055
  241SOL     OW  736   1.458   0.735   2.590
  241SOL    HW1  737   1.453   0.670   2.665
  241SOL    HW2  738   1.538   0.794   2.603
  242SOL     OW  739   1.111   1.776   2.099
  242SOL    HW1  740   1.051   1.714   2.149
  242SOL    HW2  741   1.142   1.732   2.014
  243SOL     OW  742   1.632   1.377   1.943
  243SOL    HW1  743   1.600   1.471   1.933
  243SOL    HW2  744   1.556   1.314   1.931
  244SOL     OW  745   0.464   1.743   2.185
  244SOL    HW1  746   0.497   1.782   2.271
  244SOL    HW2  747   0.540   1.736   2.120
  245SOL     OW  748   1.400   0.107   2.288
  245SOL    HW1  749   1.376   0.070   2.198
  245SOL    HW2  750   1.499   0.123   2.292
  246SOL     OW  751   0.382   0.700   2.342
  246SOL    HW1  752   0.427   0.610   2.339
  246SOL    HW2  753   0.288   0.689   2.375
  247SOL     OW  754   0.614   0.122   1.979
  247SOL    HW1  755   0.712   0.100   1.986
  247SOL    HW2  756   0.583   0.105   1.886
  248SOL     OW  757   0.539   0.064   2.374
  248SOL    HW1  758   0.458   0.065   2.432
  248SOL    HW2  759   0.542   0.147   2.319
  249SOL     OW  760   1.434   1.188   1.903
  249SOL    HW1  761   1.466   1.112   1.960
  249SOL    HW2  762   1.342   1.215   1.933
  250SOL     OW  763   0.297   0.035   2.033
  250SOL    HW1  764   0.346   0.119   2.012
  250SOL    HW2  765   0.359  -0.030   2.078
  251SOL     OW  766   0.935   0.236   2.342
  251SOL    HW1  767   0.887   0.277   2.264
  251SOL    HW2  768   1.034   0.234   2.323
  252SOL     OW  769   0.459   1.152   2.603
  252SOL    HW1  770   0.388   1.125   2.668
  252SOL    HW2  771   0.433   1.124   2.510
  253SOL     OW  772   1.271   1.797   2.453
  253SOL    HW1  773   1.315   1.861   2.389
  253SOL    HW2  774   1.221   1.849   2.523
  254SOL     OW  775   1.032   0.549   1.878
  254SOL    HW1  776   0.991   0.631   1.839
  254SOL    HW2  777   1.096   0.575   1.951
  255SOL     OW  778   0.866   0.454   2.504
  255SOL    HW1  779   0.834   0.526   2.442
  255SOL    HW2  780   0.890   0.373   2.451
  256SOL     OW  781   1.017   0.039   2.615
  256SOL    HW1  782   0.945   0.044   2.546
  256SOL    HW2  783   0.993  -0.030   2.684
  257SOL     OW  784   1.857   0.833   2.239
  257SOL    HW1  785   1.899   0.769   2.303
  257SOL    HW2  786   1.819   0.782   2.161
  258SOL     OW  787   0.488   1.385   2.036
  258SOL    HW1  788   0.401   1.370   2.083
  258SOL    HW2  789   0.471   1.411   1.941
  259SOL     OW  790   1.664   1.280   2.519
  259SOL    HW1  791   1.763   1.288   2.533
  259SOL    HW2  792   1.619   1.364   2.550
  260SOL     OW  793   1.390   0.575   1.940
  260SOL    HW1  794   1.336   0.554   2.021
  260SOL    HW2  795   1.481   0.534   1.949
  261SOL     OW  796   0.527   0.256   2.190
  261SOL    HW1  797   0.554   0.197   2.115
  261SOL    HW2  798   0.527   0.351   2.159
  262SOL     OW  799   0.705   1.050   2.230
  262SOL    HW1  800   0.691   1.057   2.329
  262SOL    HW2  801   0.789   0.999   2.212
  263SOL     OW  802   0.367   1.100   2.363
  263SOL    HW1  803   0.360   1.183   2.307
  263SOL    HW2  804   0.371   1.020   2.303
  264SOL     OW  805   0.566   0.537   2.727
  264SOL    HW1  806   0.578   0.603   2.653
  264SOL    HW2  807   0.612   0.571   2.810
  265SOL     OW  808   1.252   1.348   2.250
  265SOL    HW1  809   1.302   1.425   2.290
  265SOL    HW2  810   1.157   1.350   2.282
  266SOL     OW  811   1.582   0.639   2.334
  266SOL    HW1  812   1.551   0.700   2.407
  266SOL    HW2  813   1.632   0.691   2.265
  267SOL     OW  814   1.209   0.525   2.137
  267SOL    HW1  815   1.222   0.441   2.191
  267SOL    HW2  816   1.180   0.599   2.197
  268SOL     OW  817   0.307   0.063   2.480
  268SOL    HW1  818   0.296   0.157   2.513
  268SOL    HW2  819   0.302   0.000   2.557
  269SOL     OW  820   1.622   0.367   2.236
  269SOL    HW1  821   1.624   0.291   2.300
  269SOL    HW2  822   1.574   0.444   2.276
  270SOL     OW  823   1.540   0.274   1.987
  270SOL    HW1  824   1.479   0.199   2.010
  270SOL    HW2  825   1.562   0.326   2.070
  271SOL     OW  826   1.303   0.838   1.904
  271SOL    HW1  827   1.337   0.745   1.919
  271SOL    HW2  828   1.321   0.865   1.809
  272SOL     OW  829   1.068   1.333   2.711
  272SOL    HW1  830   1.075   1.249   2.656
  272SOL    HW2  831   1.130   1.402   2.675
  273SOL     OW  832   0.008   1.326   2.062
  273SOL    HW1  833  -0.085   1.347   2.031
  273SOL    HW2  834   0.018   1.227   2.075
  274SOL     OW  835   0.088   1.801   2.789
  274SOL    HW1  836   0.046   1.715   2.762
  274SOL    HW2  837   0.182   1.804   2.755
  275SOL     OW  838   0.815   0.572   2.187
  275SOL    HW1  839   0.822   0.483   2.141
  275SOL    HW2  840   0.721   0.606   2.179
  276SOL     OW  841   0.473   0.500   2.053
  276SOL    HW1  842   0.534   0.580   2.057
  276SOL    HW2  843   0.378   0.531   2.060
  277SOL     OW  844   1.302   0.855   2.171
  277SOL    HW1  845   1.216   0.824   2.213
  277SOL    HW2  846   1.298   0.841   2.072
  278SOL     OW  847   1.726   0.135   2.385
  278SOL    HW1  848   1.799   0.118   2.318
  278SOL    HW2  849   1.695   0.048   2.423
  279SOL     OW  850   1.388   1.573   2.339
  279SOL    HW1  851   1.455   1.585   2.265
  279SOL    HW2  852   1.348   1.662   2.362
  280SOL     OW  853   1.280   0.927   2.534
  280SOL    HW1  854   1.340   0.846   2.536
  280SOL    HW2  855   1.320   0.996   2.474
  281SOL     OW  856   0.672   1.616   2.016
  281SOL    HW1  857   0.681   1.626   1.917
  281SOL    HW2  858   0.632   1.527   2.037
  282SOL     OW  859   1.841   0.175   2.825
  282SOL    HW1  860   1.880   0.090   2.789
  282SOL    HW2  861   1.743   0.177   2.806
  283SOL     OW  862   0.263   0.326   2.582
  283SOL    HW1  863   0.184   0.377   2.548
  283SOL    HW2  864   0.254   0.311   2.680
  284SOL     OW  865   1.194   1.612   1.893
  284SOL    HW1  866   1.200   1.519   1.930
  284SOL    HW2  867   1.135   1.612   1.813
  285SOL     OW  868   0.916   0.910   2.153
  285SOL    HW1  869   0.979   0.948   2.085
  285SOL    HW2  870   0.956   0.827   2.192
  286SOL     OW  871   1.504   1.607   1.906
  286SOL    HW1  872   1.412   1.644   1.913
  286SOL    HW2  873   1.542   1.627   1.816
  287SOL     OW  874   1.039   1.098   2.558
  287SOL    HW1  875   0.969   1.051   2.612
  287SOL    HW2  876   1.098   1.030   2.515
  288SOL     OW  877   0.590   1.487   2.353
  288SOL    HW1  878   0.632   1.429   2.283
  288SOL    HW2  879   0.546   1.566   2.309
  289SOL     OW  880   0.255   1.348   2.152
  289SOL    HW1  881   0.159   1.349   2.125
  289SOL    HW2  882   0.267   1.401   2.236
  290SOL     OW  883   0.075   0.345   1.895
  290SOL    HW1  884  -0.017   0.317   1.866
  290SOL    HW2  885   0.106   0.422   1.839
  291SOL     OW  886   0.072   0.166   2.180
  291SOL    HW1  887   0.055   0.249   2.126
  291SOL    HW2  888   0.162   0.129   2.158
  292SOL     OW  889   1.183   1.335   1.981
  292SOL    HW1  890   1.084   1.324   1.983
  292SOL    HW2  891   1.217   1.350   2.074
  293SOL     OW  892   1.225   0.325   2.311
  293SOL    HW1  893   1.290   0.251   2.300
  293SOL    HW2  894   1.245   0.375   2.395
  294SOL     OW  895   0.594   0.745   2.514
  294SOL    HW1  896   0.644   0.830   2.495
  294SOL    HW2  897   0.506   0.747   2.466
  295SOL     OW  898   0.859   1.374   1.878
  295SOL    HW1  899   0.813   1.389   1.966
  295SOL    HW2  900   0.903   1.459   1.848
  296SOL     OW  901   0.661   1.790   2.815
  296SOL    HW1  902   0.615   1.878   2.802
  296SOL    HW2  903   0.760   1.802   2.808
  297SOL     OW  904   0.859   0.956   2.723
  297SOL    HW1  905   0.913   0.887   2.771
  297SOL    HW2  906   0.827   1.025   2.789
  298SOL     OW  907   1.083   0.984   1.949
  298SOL    HW1  908   1.060   1.037   1.867
  298SOL    HW2  909   1.164   0.928   1.930
  299SOL     OW  910   1.861   1.569   2.713
  299SOL    HW1  911   1.790   1.557   2.643
  299SOL    HW2  912   1.862   1.490   2.773
  300SOL     OW  913   0.079   1.240   2.515
  300SOL    HW1  914   0.078   1.193   2.603
  300SOL    HW2  915   0.161   1.212   2.464
  301SOL     OW  916   0.428   0.424   2.382
  301SOL    HW1  917   0.458   0.352   2.320
  301SOL    HW2  918   0.389   0.384   2.465
  302SOL     OW  919   0.812   1.586   2.549
  302SOL    HW1  920   0.844   1.596   2.455
  302SOL    HW2  921   0.733   1.524   2.551
  303SOL     OW  922   0.770   1.330   2.163
  303SOL    HW1  923   0.724   1.243   2.180
  303SOL    HW2  924   0.861   1.327   2.204
  304SOL     OW  925   1.352   0.052   2.030
  304SOL    HW1  926   1.387   0.011   1.946
  304SOL    HW2  927   1.262   0.014   2.050
  305SOL     OW  928   1.300   0.453   2.553
  305SOL    HW1  929   1.241   0.533   2.557
  305SOL    HW2  930   1.315   0.418   2.646
  306SOL     OW  931   0.039   1.077   2.162
  306SOL    HW1  932   0.138   1.066   2.153
  306SOL    HW2  933  -0.001   0.991   2.194
  307SOL     OW  934   0.875   1.646   2.199
  307SOL    HW1  935   0.798   1.611   2.145
  307SOL    HW2  936   0.843   1.717   2.261
  308SOL     OW  937   0.230   2.490   0.113
  308SOL    HW1  938   0.137   2.488   0.150
  308SOL    HW2  939   0.231   2.451   0.021
  309SOL     OW  940   0.225   2.137   0.996
  309SOL    HW1  941   0.260   2.120   1.088
  309SOL    HW2  942   0.137   2.092   0.984
  310SOL     OW  943   0.019   2.230   0.647
  310SOL    HW1  944  -0.063   2.273   0.686
  310SOL    HW2  945  -0.009   2.157   0.584
  311SOL     OW  946   1.135   2.565   0.717
  311SOL    HW1  947   1.192   2.643   0.692
  311SOL    HW2  948   1.075   2.591   0.793
  312SOL     OW  949   1.755   2.469   0.231
  312SOL    HW1  950   1.743   2.456   0.132
  312SOL    HW2  951   1.725   2.388   0.280
  313SOL     OW  952   0.850   2.660   1.823
  313SOL    HW1  953   0.846   2.736   1.888
  313SOL    HW2  954   0.872   2.696   1.732
  314SOL     OW  955   0.685   2.874   0.665
  314SOL    HW1  956   0.754   2.858   0.735
  314SOL    HW2  957   0.612   2.931   0.703
  315SOL     OW  958   0.438   2.254   1.499
  315SOL    HW1  959   0.520   2.198   1.508
  315SOL    HW2  960   0.357   2.196   1.503
  316SOL     OW  961   1.603   2.309   0.737
  316SOL    HW1  962   1.529   2.355   0.687
  316SOL    HW2  963   1.654   2.377   0.790
  317SOL     OW  964   1.594   1.976   1.480
  317SOL    HW1  965   1.576   2.043   1.408
  317SOL    HW2  966   1.591   2.022   1.569
  318SOL     OW  967   0.122   2.505   0.563
  318SOL    HW1  968   0.077   2.417   0.580
  318SOL    HW2  969   0.121   2.559   0.647
  319SOL     OW  970   0.113   2.599   1.597
  319SOL    HW1  971   0.201   2.586   1.642
  319SOL    HW2  972   0.100   2.696   1.575
  320SOL     OW  973   0.809   1.866   0.502
  320SOL    HW1  974   0.849   1.957   0.493
  320SOL    HW2  975   0.709   1.874   0.508
  321SOL     OW  976   0.317   2.113   1.801
  321SOL    HW1  977   0.388   2.184   1.807
  321SOL    HW2  978   0.229   2.152   1.829
  322SOL     OW  979   0.598   2.591   0.270
  322SOL    HW1  980   0.622   2.660   0.202
  322SOL    HW2  981   0.520   2.624   0.324
  323SOL     OW  982   1.281   2.207   0.944
  323SOL    HW1  983   1.195   2.157   0.931
  323SOL    HW2  984   1.343   2.153   1.000
  324SOL     OW  985   0.807   2.467   1.465
  324SOL    HW1  986   0.760   2.464   1.554
  324SOL    HW2  987   0.756   2.412   1.399
  325SOL     OW  988   1.394   2.331   1.674
  325SOL    HW1  989   1.374   2.374   1.762
  325SOL    HW2  990   1.472   2.269   1.683
  326SOL     OW  991   0.991   2.272   1.242
  326SOL    HW1  992   0.914   2.306   1.296
  326SOL    HW2  993   0.957   2.221   1.163
  327SOL     OW  994   1.041   2.563   0.429
  327SOL    HW1  995   1.067   2.559   0.525
  327SOL    HW2  996   0.956   2.512   0.415
  328SOL     OW  997   0.076   2.673   0.789
  328SOL    HW1  998   0.175   2.661   0.798
  328SOL    HW2  999   0.052   2.768   0.810
  329SOL     OW 1000   0.865   2.210   0.195
  329SOL    HW1 1001   0.924   2.273   0.146
  329SOL    HW2 1002   0.884   2.116   0.166
  330SOL     OW 1003   1.719   2.447   1.831
  330SOL    HW1 1004   1.693   2.536   1.795
  330SOL    HW2 1005   1.717   2.379   1.758
  331SOL     OW 1006   0.550   2.058   0.885
  331SOL    HW1 1007   0.545   2.053   0.985
  331SOL    HW2 1008   0.552   2.154   0.856
  332SOL     OW 1009   1.458   2.597   0.728
  332SOL    HW1 1010   1.453   2.532   0.803
  332SOL    HW2 1011   1.538   2.656   0.741
  333SOL     OW 1012   0.202   2.147   1.498
  333SOL    HW1 1013   0.122   2.207   1.485
  333SOL    HW2 1014   0.192   2.098   1.584
  334SOL     OW 1015   1.400   1.969   0.426
  334SOL    HW1 1016   1.376   1.932   0.336
  334SOL    HW2 1017   1.499   1.985   0.430
  335SOL     OW 1018   0.382   2.562   0.480
  335SOL    HW1 1019   0.427   2.472   0.477
  335SOL    HW2 1020   0.288   2.551   0.513
  336SOL     OW 1021   1.547   2.084   1.729
  336SOL    HW1 1022   1.542   2.121   1.821
  336SOL    HW2 1023   1.475   2.015   1.717
  337SOL     OW 1024   0.781   2.126   1.749
  337SOL    HW1 1025   0.848   2.065   1.792
  337SOL    HW2 1026   0.708   2.145   1.814
  338SOL     OW 1027   1.351   2.452   1.433
  338SOL    HW1 1028   1.379   2.409   1.518
  338SOL    HW2 1029   1.376   2.548   1.434
  339SOL     OW 1030   0.922   2.365   0.899
  339SOL    HW1 1031   0.897   2.356   0.803
  339SOL    HW2 1032   0.970   2.283   0.930
  340SOL     OW 1033   0.539   1.926   0.512
  340SOL    HW1 1034   0.458   1.927   0.570
  340SOL    HW2 1035   0.542   2.009   0.457
  341SOL     OW 1036   0.297   1.897   0.171
  341SOL    HW1 1037   0.346   1.981   0.150
  341SOL    HW2 1038   0.359   1.832   0.216
  342SOL     OW 1039   0.935   2.098   0.480
  342SOL    HW1 1040   0.887   2.139   0.402
  342SOL    HW2 1041   1.034   2.096   0.461
  343SOL     OW 1042   1.076   2.545   1.464
  343SOL    HW1 1043   0.996   2.484   1.467
  343SOL    HW2 1044   1.157   2.492   1.440
  344SOL     OW 1045   1.032   2.411   0.016
  344SOL    HW1 1046   0.991   2.493  -0.023
  344SOL    HW2 1047   1.096   2.437   0.089
  345SOL     OW 1048   0.078   2.418   1.386
  345SOL    HW1 1049   0.170   2.417   1.345
  345SOL    HW2 1050   0.072   2.492   1.453
  346SOL     OW 1051   0.561   2.084   1.147
  346SOL    HW1 1052   0.599   2.000   1.184
  346SOL    HW2 1053   0.473   2.103   1.191
  347SOL     OW 1054   0.866   2.316   0.642
  347SOL    HW1 1055   0.834   2.388   0.580
  347SOL    HW2 1056   0.890   2.235   0.589
  348SOL     OW 1057   1.017   1.901   0.753
  348SOL    HW1 1058   0.945   1.906   0.684
  348SOL    HW2 1059   0.993   1.832   0.822
  349SOL     OW 1060   1.466   2.452   0.992
  349SOL    HW1 1061   1.436   2.357   0.999
  349SOL    HW2 1062   1.539   2.468   1.058
  350SOL     OW 1063   1.857   2.695   0.377
  350SOL    HW1 1064   1.899   2.631   0.441
  350SOL    HW2 1065   1.819   2.644   0.299
  351SOL     OW 1066   1.390   2.437   0.078
  351SOL    HW1 1067   1.336   2.416   0.159
  351SOL    HW2 1068   1.481   2.396   0.087
  352SOL     OW 1069   0.527   2.118   0.328
  352SOL    HW1 1070   0.554   2.059   0.253
  352SOL    HW2 1071   0.527   2.213   0.297
  353SOL     OW 1072   0.915   1.951   1.402
  353SOL    HW1 1073   0.940   1.931   1.307
  353SOL    HW2 1074   0.987   2.007   1.444
  354SOL     OW 1075   0.410   2.675   1.251
  354SOL    HW1 1076   0.496   2.687   1.301
  354SOL    HW2 1077   0.368   2.588   1.278
  355SOL     OW 1078   1.274   2.248   1.262
  355SOL    HW1 1079   1.295   2.322   1.326
  355SOL    HW2 1080   1.185   2.265   1.219
  356SOL     OW 1081   0.566   2.399   0.865
  356SOL    HW1 1082   0.578   2.465   0.791
  356SOL    HW2 1083   0.612   2.433   0.948
  357SOL     OW 1084   1.582   2.501   0.472
  357SOL    HW1 1085   1.551   2.562   0.545
  357SOL    HW2 1086   1.632   2.553   0.403
  358SOL     OW 1087   0.402   2.613   1.598
  358SOL    HW1 1088   0.470   2.668   1.551
  358SOL    HW2 1089   0.442   2.525   1.625
  359SOL     OW 1090   1.587   2.641   1.670
  359SOL    HW1 1091   1.495   2.679   1.665
  359SOL    HW2 1092   1.647   2.688   1.605
  360SOL     OW 1093   1.013   1.967   1.770
  360SOL    HW1 1094   1.019   2.052   1.718
  360SOL    HW2 1095   1.045   1.891   1.713
  361SOL     OW 1096   0.504   1.912   1.740
  361SOL    HW1 1097   0.462   1.855   1.670
  361SOL    HW2 1098   0.438   1.981   1.772
  362SOL     OW 1099   0.573   2.732   1.029
  362SOL    HW1 1100   0.617   2.821   1.020
  362SOL    HW2 1101   0.510   2.732   1.106
  363SOL     OW 1102   1.360   2.724   1.045
  363SOL    HW1 1103   1.285   2.724   0.979
  363SOL    HW2 1104   1.397   2.632   1.054
  364SOL     OW 1105   1.209   2.387   0.275
  364SOL    HW1 1106   1.222   2.303   0.329
  364SOL    HW2 1107   1.180   2.461   0.335
  365SOL     OW 1108   0.307   2.075   1.231
  365SOL    HW1 1109   0.284   2.112   1.321
  365SOL    HW2 1110   0.277   1.980   1.225
  366SOL     OW 1111   0.732   2.496   1.064
  366SOL    HW1 1112   0.791   2.470   0.988
  366SOL    HW2 1113   0.704   2.592   1.053
  367SOL     OW 1114   1.728   2.797   1.854
  367SOL    HW1 1115   1.682   2.790   1.765
  367SOL    HW2 1116   1.666   2.841   1.920
  368SOL     OW 1117   0.307   1.925   0.618
  368SOL    HW1 1118   0.296   2.019   0.651
  368SOL    HW2 1119   0.302   1.862   0.695
  369SOL     OW 1120   1.622   2.229   0.374
  369SOL    HW1 1121   1.624   2.153   0.438
  369SOL    HW2 1122   1.574   2.306   0.414
  370SOL     OW 1123   1.023   2.628   0.966
  370SOL    HW1 1124   1.038   2.649   1.062
  370SOL    HW2 1125   0.993   2.533   0.957
  371SOL     OW 1126   1.540   2.136   0.125
  371SOL    HW1 1127   1.479   2.061   0.148
  371SOL    HW2 1128   1.562   2.188   0.208
  372SOL     OW 1129   0.319   2.672   0.949
  372SOL    HW1 1130   0.412   2.708   0.954
  372SOL    HW2 1131   0.313   2.587   1.001
  373SOL     OW 1132   0.339   2.371   1.006
  373SOL    HW1 1133   0.287   2.288   0.989
  373SOL    HW2 1134   0.416   2.376   0.942
  374SOL     OW 1135   1.138   2.242   1.678
  374SOL    HW1 1136   1.093   2.305   1.742
  374SOL    HW2 1137   1.231   2.273   1.661
  375SOL     OW 1138   1.160   2.069   1.477
  375SOL    HW1 1139   1.160   2.133   1.554
  375SOL    HW2 1140   1.188   2.117   1.394
  376SOL     OW 1141   1.002   2.658   1.238
  376SOL    HW1 1142   1.043   2.626   1.324
  376SOL    HW2 1143   0.906   2.631   1.235
  377SOL     OW 1144   0.040   2.406   1.114
  377SOL    HW1 1145   0.125   2.373   1.073
  377SOL    HW2 1146   0.053   2.421   1.212
  378SOL     OW 1147   0.189   2.382   1.722
  378SOL    HW1 1148   0.248   2.342   1.652
  378SOL    HW2 1149   0.131   2.453   1.681
  379SOL     OW 1150   0.815   2.434   0.325
  379SOL    HW1 1151   0.822   2.345   0.279
  379SOL    HW2 1152   0.721   2.468   0.317
  380SOL     OW 1153   1.657   2.466   1.206
  380SOL    HW1 1154   1.619   2.397   1.268
  380SOL    HW2 1155   1.739   2.430   1.162
  381SOL     OW 1156   0.671   2.326   1.269
  381SOL    HW1 1157   0.637   2.237   1.239
  381SOL    HW2 1158   0.697   2.380   1.189
  382SOL     OW 1159   0.473   2.362   0.191
  382SOL    HW1 1160   0.534   2.442   0.195
  382SOL    HW2 1161   0.378   2.393   0.198
  383SOL     OW 1162   0.903   1.948   0.133
  383SOL    HW1 1163   0.954   1.949   0.047
  383SOL    HW2 1164   0.959   1.906   0.204
  384SOL     OW 1165   1.726   1.997   0.523
  384SOL    HW1 1166   1.799   1.980   0.456
  384SOL    HW2 1167   1.695   1.910   0.561
  385SOL     OW 1168   1.280   2.789   0.672
  385SOL    HW1 1169   1.340   2.708   0.674
  385SOL    HW2 1170   1.320   2.858   0.612
  386SOL     OW 1171   1.841   2.037   0.963
  386SOL    HW1 1172   1.880   1.952   0.927
  386SOL    HW2 1173   1.743   2.039   0.944
  387SOL     OW 1174   0.263   2.188   0.720
  387SOL    HW1 1175   0.184   2.239   0.686
  387SOL    HW2 1176   0.254   2.173   0.818
  388SOL     OW 1177   1.014   2.098   0.971
  388SOL    HW1 1178   1.006   2.062   0.878
  388SOL    HW2 1179   1.012   2.022   1.036
  389SOL     OW 1180   1.709   2.247   1.381
  389SOL    HW1 1181   1.782   2.316   1.385
  389SOL    HW2 1182   1.737   2.172   1.322
  390SOL     OW 1183   0.105   2.875   1.726
  390SOL    HW1 1184   0.028   2.842   1.780
  390SOL    HW2 1185   0.190   2.845   1.768
  391SOL     OW 1186   0.672   2.065   1.489
  391SOL    HW1 1187   0.762   2.049   1.449
  391SOL    HW2 1188   0.680   2.070   1.588
  392SOL     OW 1189   0.075   2.207   0.033
  392SOL    HW1 1190  -0.017   2.179   0.004
  392SOL    HW2 1191   0.106   2.284  -0.023
  393SOL     OW 1192   1.440   2.718   1.398
  393SOL    HW1 1193   1.383   2.770   1.335
  393SOL    HW2 1194   1.536   2.730   1.374
  394SOL     OW 1195   0.072   2.028   0.318
  394SOL    HW1 1196   0.055   2.111   0.264
  394SOL    HW2 1197   0.162   1.991   0.296
  395SOL     OW 1198   0.613   2.704   1.431
  395SOL    HW1 1199   0.669   2.785   1.414
  395SOL    HW2 1200   0.672   2.624   1.434
  396SOL     OW 1201   0.716   2.427   1.708
  396SOL    HW1 1202   0.735   2.492   1.782
  396SOL    HW2 1203   0.776   2.347   1.717
  397SOL     OW 1204   1.674   2.745   1.254
  397SOL    HW1 1205   1.647   2.656   1.217
  397SOL    HW2 1206   1.675   2.813   1.181
  398SOL     OW 1207   1.225   2.187   0.449
  398SOL    HW1 1208   1.290   2.113   0.438
  398SOL    HW2 1209   1.245   2.237   0.533
  399SOL     OW 1210   0.594   2.607   0.652
  399SOL    HW1 1211   0.644   2.692   0.633
  399SOL    HW2 1212   0.506   2.609   0.604
  400SOL     OW 1213   1.777   2.204   1.642
  400SOL    HW1 1214   1.760   2.235   1.548
  400SOL    HW2 1215   1.693   2.167   1.680
  401SOL     OW 1216   1.730   2.796   1.517
  401SOL    HW1 1217   1.768   2.887   1.532
  401SOL    HW2 1218   1.722   2.779   1.418
  402SOL     OW 1219   1.824   2.054   1.227
  402SOL    HW1 1220   1.820   1.964   1.271
  402SOL    HW2 1221   1.827   2.043   1.128
  403SOL     OW 1222   0.428   2.286   0.520
  403SOL    HW1 1223   0.458   2.214   0.458
  403SOL    HW2 1224   0.389   2.246   0.603
  404SOL     OW 1225   0.317   2.409   1.280
  404SOL    HW1 1226   0.355   2.350   1.352
  404SOL    HW2 1227   0.357   2.383   1.192
  405SOL     OW 1228   1.424   2.076   1.112
  405SOL    HW1 1229   1.476   2.011   1.167
  405SOL    HW2 1230   1.375   2.139   1.173
  406SOL     OW 1231   1.001   1.896   1.154
  406SOL    HW1 1232   0.938   1.824   1.123
  406SOL    HW2 1233   1.094   1.860   1.154
  407SOL     OW 1234   1.352   1.914   0.168
  407SOL    HW1 1235   1.387   1.873   0.084
  407SOL    HW2 1236   1.262   1.876   0.188
  408SOL     OW 1237   1.300   2.315   0.691
  408SOL    HW1 1238   1.241   2.395   0.695
  408SOL    HW2 1239   1.315   2.280   0.784
  409SOL     OW 1240   1.593   2.083   0.882
  409SOL    HW1 1241   1.509   2.082   0.936
  409SOL    HW2 1242   1.595   2.166   0.826
  410SOL     OW 1243   0.230   2.490   1.975
  410SOL    HW1 1244   0.137   2.488   2.012
  410SOL    HW2 1245   0.231   2.451   1.883
  411SOL     OW 1246   0.019   2.230   2.509
  411SOL    HW1 1247  -0.063   2.273   2.548
  411SOL    HW2 1248  -0.009   2.157   2.446
  412SOL     OW 1249   1.135   2.565   2.579
  412SOL    HW1 1250   1.192   2.643   2.554
  412SOL    HW2 1251   1.075   2.591   2.655
  413SOL     OW 1252   1.755   2.469   2.093
  413SOL    HW1 1253   1.743   2.456   1.994
  413SOL    HW2 1254   1.725   2.388   2.142
  414SOL     OW 1255   0.685   2.874   2.527
  414SOL    HW1 1256   0.754   2.858   2.597
  414SOL    HW2 1257   0.612   2.931   2.565
  415SOL     OW 1258   1.603   2.309   2.599
  415SOL    HW1 1259   1.529   2.355   2.549
  415SOL    HW2 1260   1.654   2.377   2.652
  416SOL     OW 1261   0.240   2.953   2.748
  416SOL    HW1 1262   0.254   2.869   2.800
  416SOL    HW2 1263   0.185   3.017   2.803
  417SOL     OW 1264   0.122   2.505   2.425
  417SOL    HW1 1265   0.077   2.417   2.442
  417SOL    HW2 1266   0.121   2.559   2.509
  418SOL     OW 1267   0.809   1.866   2.364
  418SOL    HW1 1268   0.849   1.957   2.355
  418SOL    HW2 1269   0.709   1.874   2.370
  419SOL     OW 1270   0.598   2.591   2.132
  419SOL    HW1 1271   0.622   2.660   2.064
  419SOL    HW2 1272   0.520   2.624   2.186
  420SOL     OW 1273   1.281   2.207   2.806
  420SOL    HW1 1274   1.195   2.157   2.793
  420SOL    HW2 1275   1.343   2.153   2.862
  421SOL     OW 1276   1.041   2.563   2.291
  421SOL    HW1 1277   1.067   2.559   2.387
  421SOL    HW2 1278   0.956   2.512   2.277
  422SOL     OW 1279   0.076   2.673   2.651
  422SOL    HW1 1280   0.175   2.661   2.660
  422SOL    HW2 1281   0.052   2.768   2.672
  423SOL     OW 1282   0.865   2.210   2.057
  423SOL    HW1 1283   0.924   2.273   2.008
  423SOL    HW2 1284   0.884   2.116   2.028
  424SOL     OW 1285   0.550   2.058   2.747
  424SOL    HW1 1286   0.545   2.053   2.847
  424SOL    HW2 1287   0.552   2.154   2.718
  425SOL     OW 1288   1.458   2.597   2.590
  425SOL    HW1 1289   1.453   2.532   2.665
  425SOL    HW2 1290   1.538   2.656   2.603
  426SOL     OW 1291   1.400   1.969   2.288
  426SOL    HW1 1292   1.376   1.932   2.198
  426SOL    HW2 1293   1.499   1.985   2.292
  427SOL     OW 1294   0.382   2.562   2.342
  427SOL    HW1 1295   0.427   2.472   2.339
  427SOL    HW2 1296   0.288   2.551   2.375
  428SOL     OW 1297   0.614   1.984   1.979
  428SOL    HW1 1298   0.712   1.962   1.986
  428SOL    HW2 1299   0.583   1.967   1.886
  429SOL     OW 1300   0.539   1.926   2.374
  429SOL    HW1 1301   0.458   1.927   2.432
  429SOL    HW2 1302   0.542   2.009   2.319
  430SOL     OW 1303   0.297   1.897   2.033
  430SOL    HW1 1304   0.346   1.981   2.012
  430SOL    HW2 1305   0.359   1.832   2.078
  431SOL     OW 1306   0.935   2.098   2.342
  431SOL    HW1 1307   0.887   2.139   2.264
  431SOL    HW2 1308   1.034   2.096   2.323
  432SOL     OW 1309   0.459   3.014   2.603
  432SOL    HW1 1310   0.388   2.987   2.668
  432SOL    HW2 1311   0.433   2.986   2.510
  433SOL     OW 1312   1.032   2.411   1.878
  433SOL    HW1 1313   0.991   2.493   1.839
  433SOL    HW2 1314   1.096   2.437   1.951
  434SOL     OW 1315   0.866   2.316   2.504
  434SOL    HW1 1316   0.834   2.388   2.442
  434SOL    HW2 1317   0.890   2.235   2.451
  435SOL     OW 1318   1.017   1.901   2.615
  435SOL    HW1 1319   0.945   1.906   2.546
  435SOL    HW2 1320   0.993   1.832   2.684
  436SOL     OW 1321   1.429   3.035   2.729
  436SOL    HW1 1322   1.374   2.951   2.722
  436SOL    HW2 1323   1.455   3.064   2.637
  437SOL     OW 1324   1.857   2.695   2.239
  437SOL    HW1 1325   1.899   2.631   2.303
  437SOL    HW2 1326   1.819   2.644   2.161
  438SOL     OW 1327   1.390   2.437   1.940
  438SOL    HW1 1328   1.336   2.416   2.021
  438SOL    HW2 1329   1.481   2.396   1.949
  439SOL     OW 1330   0.527   2.118   2.190
  439SOL    HW1 1331   0.554   2.059   2.115
  439SOL    HW2 1332   0.527   2.213   2.159
  440SOL     OW 1333   0.566   2.399   2.727
  440SOL    HW1 1334   0.578   2.465   2.653
  440SOL    HW2 1335   0.612   2.433   2.810
  441SOL     OW 1336   1.582   2.501   2.334
  441SOL    HW1 1337   1.551   2.562   2.407
  441SOL    HW2 1338   1.632   2.553   2.265
  442SOL     OW 1339   1.209   2.387   2.137
  442SOL    HW1 1340   1.222   2.303   2.191
  442SOL    HW2 1341   1.180   2.461   2.197
  443SOL     OW 1342   0.307   1.925   2.480
  443SOL    HW1 1343   0.296   2.019   2.513
  443SOL    HW2 1344   0.302   1.862   2.557
  444SOL     OW 1345   1.622   2.229   2.236
  444SOL    HW1 1346   1.624   2.153   2.300
  444SOL    HW2 1347   1.574   2.306   2.276
  445SOL     OW 1348   1.540   2.136   1.987
  445SOL    HW1 1349   1.479   2.061   2.010
  445SOL    HW2 1350   1.562   2.188   2.070
  446SOL     OW 1351   0.815   2.434   2.187
  446SOL    HW1 1352   0.822   2.345   2.141
  446SOL    HW2 1353   0.721   2.468   2.179
  447SOL     OW 1354   0.473   2.362   2.053
  447SOL    HW1 1355   0.534   2.442   2.057
  447SOL    HW2 1356   0.378   2.393   2.060
  448SOL     OW 1357   1.726   1.997   2.385
  448SOL    HW1 1358   1.799   1.980   2.318
  448SOL    HW2 1359   1.695   1.910   2.423
  449SOL     OW 1360   1.280   2.789   2.534
  449SOL    HW1 1361   1.340   2.708   2.536
  449SOL    HW2 1362   1.320   2.858   2.474
  450SOL     OW 1363   1.841   2.037   2.825
  450SOL    HW1 1364   1.880   1.952   2.789
  450SOL    HW2 1365   1.743   2.039   2.806
  451SOL     OW 1366   0.263   2.188   2.582
  451SOL    HW1 1367   0.184   2.239   2.548
  451SOL    HW2 1368   0.254   2.173   2.680
  452SOL     OW 1369   0.916   2.772   2.153
  452SOL    HW1 1370   0.979   2.810   2.085
  452SOL    HW2 1371   0.956   2.689   2.192
  453SOL     OW 1372   0.075   2.207   1.895
  453SOL    HW1 1373  -0.017   2.179   1.866
  453SOL    HW2 1374   0.106   2.284   1.839
  454SOL     OW 1375   0.072   2.028   2.180
  454SOL    HW1 1376   0.055   2.111   2.126
  454SOL    HW2 1377   0.162   1.991   2.158
  455SOL     OW 1378   1.674   2.745   3.116
  455SOL    HW1 1379   1.647   2.656   3.079
  455SOL    HW2 1380   1.675   2.813   3.043
  456SOL     OW 1381   1.225   2.187   2.311
  456SOL    HW1 1382   1.290   2.113   2.300
  456SOL    HW2 1383   1.245   2.237   2.395
  457SOL     OW 1384   0.594   2.607   2.514
  457SOL    HW1 1385   0.644   2.692   2.495
  457SOL    HW2 1386   0.506   2.609   2.466
  458SOL     OW 1387   0.428   2.286   2.382
  458SOL    HW1 1388   0.458   2.214   2.320
  458SOL    HW2 1389   0.389   2.246   2.465
  459SOL     OW 1390   1.352   1.914   2.030
  459SOL    HW1 1391   1.387   1.873   1.946
  459SOL    HW2 1392   1.262   1.876   2.050
  460SOL     OW 1393   1.300   2.315   2.553
  460SOL    HW1 1394   1.241   2.395   2.557
  460SOL    HW2 1395   1.315   2.280   2.646
  461SOL     OW 1396   2.092   0.628   0.113
  461SOL    HW1 1397   1.999   0.626   0.150
  461SOL    HW2 1398   2.093   0.589   0.021
  462SOL     OW 1399   2.087   0.275   0.996
  462SOL    HW1 1400   2.122   0.258   1.088
  462SOL    HW2 1401   1.999   0.230   0.984
  463SOL     OW 1402   1.881   0.368   0.647
  463SOL    HW1 1403   1.799   0.411   0.686
  463SOL    HW2 1404   1.853   0.295   0.584
  464SOL     OW 1405   2.431   1.275   1.165
  464SOL    HW1 1406   2.338   1.268   1.128
  464SOL    HW2 1407   2.442   1.364   1.209
  465SOL     OW 1408   2.712   0.798   1.823
  465SOL    HW1 1409   2.708   0.874   1.888
  465SOL    HW2 1410   2.734   0.834   1.732
  466SOL     OW 1411   2.547   1.012   0.665
  466SOL    HW1 1412   2.616   0.996   0.735
  466SOL    HW2 1413   2.474   1.069   0.703
  467SOL     OW 1414   2.548   1.161   1.803
  467SOL    HW1 1415   2.608   1.240   1.817
  467SOL    HW2 1416   2.462   1.192   1.762
  468SOL     OW 1417   2.197   1.435   1.061
  468SOL    HW1 1418   2.119   1.404   1.008
  468SOL    HW2 1419   2.255   1.493   1.004
  469SOL     OW 1420   2.300   0.392   1.499
  469SOL    HW1 1421   2.382   0.336   1.508
  469SOL    HW2 1422   2.219   0.334   1.503
  470SOL     OW 1423   2.093   1.713   0.483
  470SOL    HW1 1424   2.127   1.790   0.537
  470SOL    HW2 1425   2.137   1.713   0.393
  471SOL     OW 1426   2.092   1.434   0.538
  471SOL    HW1 1427   2.066   1.530   0.538
  471SOL    HW2 1428   2.021   1.380   0.583
  472SOL     OW 1429   2.102   1.091   0.886
  472SOL    HW1 1430   2.116   1.007   0.938
  472SOL    HW2 1431   2.047   1.155   0.941
  473SOL     OW 1432   2.482   1.786   1.439
  473SOL    HW1 1433   2.390   1.769   1.474
  473SOL    HW2 1434   2.510   1.878   1.465
  474SOL     OW 1435   2.468   0.964   0.123
  474SOL    HW1 1436   2.475   1.048   0.069
  474SOL    HW2 1437   2.514   0.977   0.211
  475SOL     OW 1438   1.984   0.643   0.563
  475SOL    HW1 1439   1.939   0.555   0.580
  475SOL    HW2 1440   1.983   0.697   0.647
  476SOL     OW 1441   1.889   1.596   0.117
  476SOL    HW1 1442   1.870   1.500   0.138
  476SOL    HW2 1443   1.856   1.654   0.192
  477SOL     OW 1444   1.975   0.737   1.597
  477SOL    HW1 1445   2.063   0.724   1.642
  477SOL    HW2 1446   1.962   0.834   1.575
  478SOL     OW 1447   2.475   1.365   0.726
  478SOL    HW1 1448   2.426   1.278   0.735
  478SOL    HW2 1449   2.452   1.408   0.639
  479SOL     OW 1450   2.671   0.004   0.502
  479SOL    HW1 1451   2.711   0.095   0.493
  479SOL    HW2 1452   2.571   0.012   0.508
  480SOL     OW 1453   2.059   0.976   1.264
  480SOL    HW1 1454   2.148   0.931   1.250
  480SOL    HW2 1455   1.986   0.911   1.245
  481SOL     OW 1456   2.179   0.251   1.801
  481SOL    HW1 1457   2.250   0.322   1.807
  481SOL    HW2 1458   2.091   0.290   1.829
  482SOL     OW 1459   2.460   0.729   0.270
  482SOL    HW1 1460   2.484   0.798   0.202
  482SOL    HW2 1461   2.382   0.762   0.324
  483SOL     OW 1462   2.669   0.605   1.465
  483SOL    HW1 1463   2.622   0.602   1.554
  483SOL    HW2 1464   2.618   0.550   1.399
  484SOL     OW 1465   1.938   0.811   0.789
  484SOL    HW1 1466   2.037   0.799   0.798
  484SOL    HW2 1467   1.914   0.906   0.810
  485SOL     OW 1468   1.992   1.821   1.571
  485SOL    HW1 1469   1.982   1.806   1.670
  485SOL    HW2 1470   1.906   1.857   1.535
  486SOL     OW 1471   2.412   0.196   0.885
  486SOL    HW1 1472   2.407   0.191   0.985
  486SOL    HW2 1473   2.414   0.292   0.856
  487SOL     OW 1474   2.213   1.801   0.853
  487SOL    HW1 1475   2.263   1.715   0.859
  487SOL    HW2 1476   2.278   1.878   0.850
  488SOL     OW 1477   2.183   0.943   0.242
  488SOL    HW1 1478   2.265   0.982   0.200
  488SOL    HW2 1479   2.156   0.861   0.193
  489SOL     OW 1480   2.323   1.266   1.727
  489SOL    HW1 1481   2.273   1.267   1.641
  489SOL    HW2 1482   2.260   1.248   1.803
  490SOL     OW 1483   2.973   1.776   0.237
  490SOL    HW1 1484   2.913   1.714   0.287
  490SOL    HW2 1485   3.004   1.732   0.152
  491SOL     OW 1486   2.064   0.285   1.498
  491SOL    HW1 1487   1.984   0.345   1.485
  491SOL    HW2 1488   2.054   0.236   1.584
  492SOL     OW 1489   2.326   1.743   0.323
  492SOL    HW1 1490   2.359   1.782   0.409
  492SOL    HW2 1491   2.402   1.736   0.258
  493SOL     OW 1492   2.111   1.785   1.241
  493SOL    HW1 1493   2.168   1.720   1.291
  493SOL    HW2 1494   2.095   1.752   1.148
  494SOL     OW 1495   2.244   0.700   0.480
  494SOL    HW1 1496   2.289   0.610   0.477
  494SOL    HW2 1497   2.150   0.689   0.513
  495SOL     OW 1498   2.476   0.122   0.117
  495SOL    HW1 1499   2.574   0.100   0.124
  495SOL    HW2 1500   2.445   0.105   0.024
  496SOL     OW 1501   2.643   0.264   1.749
  496SOL    HW1 1502   2.710   0.203   1.792
  496SOL    HW2 1503   2.570   0.283   1.814
  497SOL     OW 1504   2.665   1.402   0.924
  497SOL    HW1 1505   2.755   1.416   0.882
  497SOL    HW2 1506   2.594   1.404   0.853
  498SOL     OW 1507   2.784   0.503   0.899
  498SOL    HW1 1508   2.759   0.494   0.803
  498SOL    HW2 1509   2.832   0.421   0.930
  499SOL     OW 1510   2.401   0.064   0.512
  499SOL    HW1 1511   2.320   0.065   0.570
  499SOL    HW2 1512   2.404   0.147   0.457
  500SOL     OW 1513   2.159   0.035   0.171
  500SOL    HW1 1514   2.208   0.119   0.150
  500SOL    HW2 1515   2.221  -0.030   0.216
  501SOL     OW 1516   2.321   1.152   0.741
  501SOL    HW1 1517   2.250   1.125   0.806
  501SOL    HW2 1518   2.295   1.124   0.648
  502SOL     OW 1519   1.940   0.556   1.386
  502SOL    HW1 1520   2.032   0.555   1.345
  502SOL    HW2 1521   1.934   0.630   1.453
  503SOL     OW 1522   2.423   0.222   1.147
  503SOL    HW1 1523   2.461   0.138   1.184
  503SOL    HW2 1524   2.335   0.241   1.191
  504SOL     OW 1525   2.350   1.385   0.174
  504SOL    HW1 1526   2.263   1.370   0.221
  504SOL    HW2 1527   2.333   1.411   0.079
  505SOL     OW 1528   2.389   0.256   0.328
  505SOL    HW1 1529   2.416   0.197   0.253
  505SOL    HW2 1530   2.389   0.351   0.297
  506SOL     OW 1531   2.777   0.089   1.402
  506SOL    HW1 1532   2.802   0.069   1.307
  506SOL    HW2 1533   2.849   0.145   1.444
  507SOL     OW 1534   2.567   1.050   0.368
  507SOL    HW1 1535   2.553   1.057   0.467
  507SOL    HW2 1536   2.651   0.999   0.350
  508SOL     OW 1537   2.272   0.813   1.251
  508SOL    HW1 1538   2.358   0.825   1.301
  508SOL    HW2 1539   2.230   0.726   1.278
  509SOL     OW 1540   1.926   1.564   1.331
  509SOL    HW1 1541   1.880   1.646   1.297
  509SOL    HW2 1542   2.024   1.583   1.340
  510SOL     OW 1543   2.229   1.100   0.501
  510SOL    HW1 1544   2.222   1.183   0.445
  510SOL    HW2 1545   2.233   1.020   0.441
  511SOL     OW 1546   2.428   0.537   0.865
  511SOL    HW1 1547   2.440   0.603   0.791
  511SOL    HW2 1548   2.474   0.571   0.948
  512SOL     OW 1549   2.216   1.510   1.329
  512SOL    HW1 1550   2.195   1.466   1.242
  512SOL    HW2 1551   2.313   1.536   1.332
  513SOL     OW 1552   2.264   0.751   1.598
  513SOL    HW1 1553   2.332   0.806   1.551
  513SOL    HW2 1554   2.304   0.663   1.625
  514SOL     OW 1555   2.366   0.050   1.740
  514SOL    HW1 1556   2.324  -0.007   1.670
  514SOL    HW2 1557   2.300   0.119   1.772
  515SOL     OW 1558   2.435   0.870   1.029
  515SOL    HW1 1559   2.479   0.959   1.020
  515SOL    HW2 1560   2.372   0.870   1.106
  516SOL     OW 1561   2.169   0.213   1.231
  516SOL    HW1 1562   2.146   0.250   1.321
  516SOL    HW2 1563   2.139   0.118   1.225
  517SOL     OW 1564   1.899   1.310   1.282
  517SOL    HW1 1565   1.952   1.261   1.350
  517SOL    HW2 1566   1.921   1.408   1.287
  518SOL     OW 1567   2.594   0.634   1.064
  518SOL    HW1 1568   2.653   0.608   0.988
  518SOL    HW2 1569   2.566   0.730   1.053
  519SOL     OW 1570   2.169   0.063   0.618
  519SOL    HW1 1571   2.158   0.157   0.651
  519SOL    HW2 1572   2.164   0.000   0.695
  520SOL     OW 1573   2.885   0.766   0.966
  520SOL    HW1 1574   2.900   0.787   1.062
  520SOL    HW2 1575   2.855   0.671   0.957
  521SOL     OW 1576   2.842   1.573   1.700
  521SOL    HW1 1577   2.822   1.617   1.612
  521SOL    HW2 1578   2.881   1.482   1.684
  522SOL     OW 1579   2.212   0.898   1.804
  522SOL    HW1 1580   2.288   0.942   1.852
  522SOL    HW2 1581   2.247   0.851   1.722
  523SOL     OW 1582   2.181   0.810   0.949
  523SOL    HW1 1583   2.274   0.846   0.954
  523SOL    HW2 1584   2.175   0.725   1.001
  524SOL     OW 1585   2.201   0.509   1.006
  524SOL    HW1 1586   2.149   0.426   0.989
  524SOL    HW2 1587   2.278   0.514   0.942
  525SOL     OW 1588   1.870   1.326   0.200
  525SOL    HW1 1589   1.777   1.347   0.169
  525SOL    HW2 1590   1.880   1.227   0.213
  526SOL     OW 1591   1.950   1.801   0.927
  526SOL    HW1 1592   1.908   1.715   0.900
  526SOL    HW2 1593   2.044   1.804   0.893
  527SOL     OW 1594   2.366   1.568   0.910
  527SOL    HW1 1595   2.432   1.642   0.919
  527SOL    HW2 1596   2.410   1.489   0.868
  528SOL     OW 1597   1.902   0.544   1.114
  528SOL    HW1 1598   1.987   0.511   1.073
  528SOL    HW2 1599   1.915   0.559   1.212
  529SOL     OW 1600   2.051   0.520   1.722
  529SOL    HW1 1601   2.110   0.480   1.652
  529SOL    HW2 1602   1.993   0.591   1.681
  530SOL     OW 1603   2.677   0.572   0.325
  530SOL    HW1 1604   2.684   0.483   0.279
  530SOL    HW2 1605   2.583   0.606   0.317
  531SOL     OW 1606   2.114   1.564   1.744
  531SOL    HW1 1607   2.084   1.621   1.820
  531SOL    HW2 1608   2.107   1.467   1.770
  532SOL     OW 1609   2.533   0.464   1.269
  532SOL    HW1 1610   2.499   0.375   1.239
  532SOL    HW2 1611   2.559   0.518   1.189
  533SOL     OW 1612   2.335   0.500   0.191
  533SOL    HW1 1613   2.396   0.580   0.195
  533SOL    HW2 1614   2.240   0.531   0.198
  534SOL     OW 1615   2.021   1.137   1.466
  534SOL    HW1 1616   2.043   1.076   1.542
  534SOL    HW2 1617   2.031   1.088   1.380
  535SOL     OW 1618   1.945   1.258   1.022
  535SOL    HW1 1619   1.940   1.257   1.122
  535SOL    HW2 1620   1.862   1.217   0.984
  536SOL     OW 1621   2.550   1.662   1.716
  536SOL    HW1 1622   2.494   1.743   1.725
  536SOL    HW2 1623   2.602   1.666   1.630
  537SOL     OW 1624   2.765   0.086   0.133
  537SOL    HW1 1625   2.816   0.087   0.047
  537SOL    HW2 1626   2.821   0.044   0.204
  538SOL     OW 1627   1.992   1.794   1.851
  538SOL    HW1 1628   1.951   1.720   1.904
  538SOL    HW2 1629   2.056   1.845   1.909
  539SOL     OW 1630   2.692   1.273   1.422
  539SOL    HW1 1631   2.687   1.306   1.517
  539SOL    HW2 1632   2.606   1.292   1.376
  540SOL     OW 1633   2.534   1.616   0.154
  540SOL    HW1 1634   2.543   1.626   0.055
  540SOL    HW2 1635   2.494   1.527   0.175
  541SOL     OW 1636   2.125   0.326   0.720
  541SOL    HW1 1637   2.046   0.377   0.686
  541SOL    HW2 1638   2.116   0.311   0.818
  542SOL     OW 1639   3.056   1.612   0.031
  542SOL    HW1 1640   3.062   1.519   0.068
  542SOL    HW2 1641   2.997   1.612  -0.049
  543SOL     OW 1642   2.684   1.002   1.372
  543SOL    HW1 1643   2.724   1.001   1.280
  543SOL    HW2 1644   2.694   1.094   1.412
  544SOL     OW 1645   2.234   1.288   1.490
  544SOL    HW1 1646   2.221   1.381   1.456
  544SOL    HW2 1647   2.150   1.236   1.477
  545SOL     OW 1648   2.452   1.487   0.491
  545SOL    HW1 1649   2.494   1.429   0.421
  545SOL    HW2 1650   2.408   1.566   0.447
  546SOL     OW 1651   2.117   1.348   0.290
  546SOL    HW1 1652   2.021   1.349   0.263
  546SOL    HW2 1653   2.129   1.401   0.374
  547SOL     OW 1654   1.967   1.013   1.726
  547SOL    HW1 1655   1.890   0.980   1.780
  547SOL    HW2 1656   2.052   0.983   1.768
  548SOL     OW 1657   2.534   0.203   1.489
  548SOL    HW1 1658   2.624   0.187   1.449
  548SOL    HW2 1659   2.542   0.208   1.588
  549SOL     OW 1660   1.934   0.166   0.318
  549SOL    HW1 1661   1.917   0.249   0.264
  549SOL    HW2 1662   2.024   0.129   0.296
  550SOL     OW 1663   2.475   0.842   1.431
  550SOL    HW1 1664   2.531   0.923   1.414
  550SOL    HW2 1665   2.534   0.762   1.434
  551SOL     OW 1666   2.578   0.565   1.708
  551SOL    HW1 1667   2.597   0.630   1.782
  551SOL    HW2 1668   2.638   0.485   1.717
  552SOL     OW 1669   2.252   1.741   1.560
  552SOL    HW1 1670   2.161   1.782   1.558
  552SOL    HW2 1671   2.245   1.647   1.592
  553SOL     OW 1672   2.456   0.745   0.652
  553SOL    HW1 1673   2.506   0.830   0.633
  553SOL    HW2 1674   2.368   0.747   0.604
  554SOL     OW 1675   2.523   1.790   0.953
  554SOL    HW1 1676   2.477   1.878   0.940
  554SOL    HW2 1677   2.622   1.802   0.946
  555SOL     OW 1678   2.083   1.314   1.844
  555SOL    HW1 1679   2.018   1.241   1.823
  555SOL    HW2 1680   2.087   1.328   1.942
  556SOL     OW 1681   1.941   1.240   0.653
  556SOL    HW1 1682   1.940   1.193   0.741
  556SOL    HW2 1683   2.023   1.212   0.602
  557SOL     OW 1684   2.534   1.391   1.624
  557SOL    HW1 1685   2.456   1.341   1.662
  557SOL    HW2 1686   2.531   1.486   1.655
  558SOL     OW 1687   2.290   0.424   0.520
  558SOL    HW1 1688   2.320   0.352   0.458
  558SOL    HW2 1689   2.251   0.384   0.603
  559SOL     OW 1690   2.179   0.547   1.280
  559SOL    HW1 1691   2.217   0.488   1.352
  559SOL    HW2 1692   2.219   0.521   1.192
  560SOL     OW 1693   2.674   1.586   0.687
  560SOL    HW1 1694   2.706   1.596   0.593
  560SOL    HW2 1695   2.595   1.524   0.689
  561SOL     OW 1696   2.863   0.034   1.154
  561SOL    HW1 1697   2.800  -0.038   1.123
  561SOL    HW2 1698   2.956  -0.002   1.154
  562SOL     OW 1699   2.480   1.567   1.284
  562SOL    HW1 1700   2.475   1.649   1.341
  562SOL    HW2 1701   2.569   1.564   1.239
  563SOL     OW 1702   1.901   1.077   0.300
  563SOL    HW1 1703   2.000   1.066   0.291
  563SOL    HW2 1704   1.861   0.991   0.332
  564SOL     OW 1705   2.092   0.628   1.975
  564SOL    HW1 1706   1.999   0.626   2.012
  564SOL    HW2 1707   2.093   0.589   1.883
  565SOL     OW 1708   2.087   0.275   2.858
  565SOL    HW1 1709   2.122   0.258   2.950
  565SOL    HW2 1710   1.999   0.230   2.846
  566SOL     OW 1711   1.881   0.368   2.509
  566SOL    HW1 1712   1.799   0.411   2.548
  566SOL    HW2 1713   1.853   0.295   2.446
  567SOL     OW 1714   2.630   1.144   2.885
  567SOL    HW1 1715   2.552   1.161   2.945
  567SOL    HW2 1716   2.664   1.231   2.849
  568SOL     OW 1717   2.547   1.012   2.527
  568SOL    HW1 1718   2.616   0.996   2.597
  568SOL    HW2 1719   2.474   1.069   2.565
  569SOL     OW 1720   2.093   1.713   2.345
  569SOL    HW1 1721   2.127   1.790   2.399
  569SOL    HW2 1722   2.137   1.713   2.255
  570SOL     OW 1723   2.092   1.434   2.400
  570SOL    HW1 1724   2.066   1.530   2.400
  570SOL    HW2 1725   2.021   1.380   2.445
  571SOL     OW 1726   2.102   1.091   2.748
  571SOL    HW1 1727   2.116   1.007   2.800
  571SOL    HW2 1728   2.047   1.155   2.803
  572SOL     OW 1729   2.468   0.964   1.985
  572SOL    HW1 1730   2.475   1.048   1.931
  572SOL    HW2 1731   2.514   0.977   2.073
  573SOL     OW 1732   1.984   0.643   2.425
  573SOL    HW1 1733   1.939   0.555   2.442
  573SOL    HW2 1734   1.983   0.697   2.509
  574SOL     OW 1735   1.889   1.596   1.979
  574SOL    HW1 1736   1.870   1.500   2.000
  574SOL    HW2 1737   1.856   1.654   2.054
  575SOL     OW 1738   2.475   1.365   2.588
  575SOL    HW1 1739   2.426   1.278   2.597
  575SOL    HW2 1740   2.452   1.408   2.501
  576SOL     OW 1741   2.671   0.004   2.364
  576SOL    HW1 1742   2.711   0.095   2.355
  576SOL    HW2 1743   2.571   0.012   2.370
  577SOL     OW 1744   2.460   0.729   2.132
  577SOL    HW1 1745   2.484   0.798   2.064
  577SOL    HW2 1746   2.382   0.762   2.186
  578SOL     OW 1747   1.938   0.811   2.651
  578SOL    HW1 1748   2.037   0.799   2.660
  578SOL    HW2 1749   1.914   0.906   2.672
  579SOL     OW 1750   2.213   1.801   2.715
  579SOL    HW1 1751   2.263   1.715   2.721
  579SOL    HW2 1752   2.278   1.878   2.712
  580SOL     OW 1753   2.183   0.943   2.104
  580SOL    HW1 1754   2.265   0.982   2.062
  580SOL    HW2 1755   2.156   0.861   2.055
  581SOL     OW 1756   2.973   1.776   2.099
  581SOL    HW1 1757   2.913   1.714   2.149
  581SOL    HW2 1758   3.004   1.732   2.014
  582SOL     OW 1759   2.326   1.743   2.185
  582SOL    HW1 1760   2.359   1.782   2.271
  582SOL    HW2 1761   2.402   1.736   2.120
  583SOL     OW 1762   2.244   0.700   2.342
  583SOL    HW1 1763   2.289   0.610   2.339
  583SOL    HW2 1764   2.150   0.689   2.375
  584SOL     OW 1765   2.476   0.122   1.979
  584SOL    HW1 1766   2.574   0.100   1.986
  584SOL    HW2 1767   2.445   0.105   1.886
  585SOL     OW 1768   2.665   1.402   2.786
  585SOL    HW1 1769   2.755   1.416   2.744
  585SOL    HW2 1770   2.594   1.404   2.715
  586SOL     OW 1771   2.401   0.064   2.374
  586SOL    HW1 1772   2.320   0.065   2.432
  586SOL    HW2 1773   2.404   0.147   2.319
  587SOL     OW 1774   2.159   0.035   2.033
  587SOL    HW1 1775   2.208   0.119   2.012
  587SOL    HW2 1776   2.221  -0.030   2.078
  588SOL     OW 1777   2.321   1.152   2.603
  588SOL    HW1 1778   2.250   1.125   2.668
  588SOL    HW2 1779   2.295   1.124   2.510
  589SOL     OW 1780   2.350   1.385   2.036
  589SOL    HW1 1781   2.263   1.370   2.083
  589SOL    HW2 1782   2.333   1.411   1.941
  590SOL     OW 1783   2.389   0.256   2.190
  590SOL    HW1 1784   2.416   0.197   2.115
  590SOL    HW2 1785   2.389   0.351   2.159
  591SOL     OW 1786   2.567   1.050   2.230
  591SOL    HW1 1787   2.553   1.057   2.329
  591SOL    HW2 1788   2.651   0.999   2.212
  592SOL     OW 1789   2.229   1.100   2.363
  592SOL    HW1 1790   2.222   1.183   2.307
  592SOL    HW2 1791   2.233   1.020   2.303
  593SOL     OW 1792   2.428   0.537   2.727
  593SOL    HW1 1793   2.440   0.603   2.653
  593SOL    HW2 1794   2.474   0.571   2.810
  594SOL     OW 1795   2.169   0.063   2.480
  594SOL    HW1 1796   2.158   0.157   2.513
  594SOL    HW2 1797   2.164   0.000   2.557
  595SOL     OW 1798   2.885   0.766   2.828
  595SOL    HW1 1799   2.900   0.787   2.924
  595SOL    HW2 1800   2.855   0.671   2.819
  596SOL     OW 1801   1.870   1.326   2.062
  596SOL    HW1 1802   1.777   1.347   2.031
  596SOL    HW2 1803   1.880   1.227   2.075
  597SOL     OW 1804   1.950   1.801   2.789
  597SOL    HW1 1805   1.908   1.715   2.762
  597SOL    HW2 1806   2.044   1.804   2.755
  598SOL     OW 1807   2.677   0.572   2.187
  598SOL    HW1 1808   2.684   0.483   2.141
  598SOL    HW2 1809   2.583   0.606   2.179
  599SOL     OW 1810   2.335   0.500   2.053
  599SOL    HW1 1811   2.396   0.580   2.057
  599SOL    HW2 1812   2.240   0.531   2.060
  600SOL     OW 1813   2.534   1.616   2.016
  600SOL    HW1 1814   2.543   1.626   1.917
  600SOL    HW2 1815   2.494   1.527   2.037
  601SOL     OW 1816   2.125   0.326   2.582
  601SOL    HW1 1817   2.046   0.377   2.548
  601SOL    HW2 1818   2.116   0.311   2.680
  602SOL     OW 1819   2.452   1.487   2.353
  602SOL    HW1 1820   2.494   1.429   2.283
  602SOL    HW2 1821   2.408   1.566   2.309
  603SOL     OW 1822   2.117   1.348   2.152
  603SOL    HW1 1823   2.021   1.349   2.125
  603SOL    HW2 1824   2.129   1.401   2.236
  604SOL     OW 1825   1.937   0.345   1.895
  604SOL    HW1 1826   1.845   0.317   1.866
  604SOL    HW2 1827   1.968   0.422   1.839
  605SOL     OW 1828   1.934   0.166   2.180
  605SOL    HW1 1829   1.917   0.249   2.126
  605SOL    HW2 1830   2.024   0.129   2.158
  606SOL     OW 1831   2.456   0.745   2.514
  606SOL    HW1 1832   2.506   0.830   2.495
  606SOL    HW2 1833   2.368   0.747   2.466
  607SOL     OW 1834   2.523   1.790   2.815
  607SOL    HW1 1835   2.477   1.878   2.802
  607SOL    HW2 1836   2.622   1.802   2.808
  608SOL     OW 1837   1.941   1.240   2.515
  608SOL    HW1 1838   1.940   1.193   2.603
  608SOL    HW2 1839   2.023   1.212   2.464
  609SOL     OW 1840   2.290   0.424   2.382
  609SOL    HW1 1841   2.320   0.352   2.320
  609SOL    HW2 1842   2.251   0.384   2.465
  610SOL     OW 1843   2.674   1.586   2.549
  610SOL    HW1 1844   2.706   1.596   2.455
  610SOL    HW2 1845   2.595   1.524   2.551
  611SOL     OW 1846   1.901   1.077   2.162
  611SOL    HW1 1847   2.000   1.066   2.153
  611SOL    HW2 1848   1.861   0.991   2.194
  612SOL     OW 1849   2.092   2.490   0.113
  612SOL    HW1 1850   1.999   2.488   0.150
  612SOL    HW2 1851   2.093   2.451   0.021
  613SOL     OW 1852   2.087   2.137   0.996
  613SOL    HW1 1853   2.122   2.120   1.088
  613SOL    HW2 1854   1.999   2.092   0.984
  614SOL     OW 1855   1.881   2.230   0.647
  614SOL    HW1 1856   1.799   2.273   0.686
  614SOL    HW2 1857   1.853   2.157   0.584
  615SOL     OW 1858   2.712   2.660   1.823
  615SOL    HW1 1859   2.708   2.736   1.888
  615SOL    HW2 1860   2.734   2.696   1.732
  616SOL     OW 1861   2.547   2.874   0.665
  616SOL    HW1 1862   2.616   2.858   0.735
  616SOL    HW2 1863   2.474   2.931   0.703
  617SOL     OW 1864   2.300   2.254   1.499
  617SOL    HW1 1865   2.382   2.198   1.508
  617SOL    HW2 1866   2.219   2.196   1.503
  618SOL     OW 1867   1.984   2.505   0.563
  618SOL    HW1 1868   1.939   2.417   0.580
  618SOL    HW2 1869   1.983   2.559   0.647
  619SOL     OW 1870   1.975   2.599   1.597
  619SOL    HW1 1871   2.063   2.586   1.642
  619SOL    HW2 1872   1.962   2.696   1.575
  620SOL     OW 1873   2.671   1.866   0.502
  620SOL    HW1 1874   2.711   1.957   0.493
  620SOL    HW2 1875   2.571   1.874   0.508
  621SOL     OW 1876   2.179   2.113   1.801
  621SOL    HW1 1877   2.250   2.184   1.807
  621SOL    HW2 1878   2.091   2.152   1.829
  622SOL     OW 1879   2.460   2.591   0.270
  622SOL    HW1 1880   2.484   2.660   0.202
  622SOL    HW2 1881   2.382   2.624   0.324
  623SOL     OW 1882   2.669   2.467   1.465
  623SOL    HW1 1883   2.622   2.464   1.554
  623SOL    HW2 1884   2.618   2.412   1.399
  624SOL     OW 1885   1.938   2.673   0.789
  624SOL    HW1 1886   2.037   2.661   0.798
  624SOL    HW2 1887   1.914   2.768   0.810
  625SOL     OW 1888   2.412   2.058   0.885
  625SOL    HW1 1889   2.407   2.053   0.985
  625SOL    HW2 1890   2.414   2.154   0.856
  626SOL     OW 1891   2.064   2.147   1.498
  626SOL    HW1 1892   1.984   2.207   1.485
  626SOL    HW2 1893   2.054   2.098   1.584
  627SOL     OW 1894   2.244   2.562   0.480
  627SOL    HW1 1895   2.289   2.472   0.477
  627SOL    HW2 1896   2.150   2.551   0.513
  628SOL     OW 1897   2.643   2.126   1.749
  628SOL    HW1 1898   2.710   2.065   1.792
  628SOL    HW2 1899   2.570   2.145   1.814
  629SOL     OW 1900   2.784   2.365   0.899
  629SOL    HW1 1901   2.759   2.356   0.803
  629SOL    HW2 1902   2.832   2.283   0.930
  630SOL     OW 1903   2.401   1.926   0.512
  630SOL    HW1 1904   2.320   1.927   0.570
  630SOL    HW2 1905   2.404   2.009   0.457
  631SOL     OW 1906   2.159   1.897   0.171
  631SOL    HW1 1907   2.208   1.981   0.150
  631SOL    HW2 1908   2.221   1.832   0.216
  632SOL     OW 1909   1.940   2.418   1.386
  632SOL    HW1 1910   2.032   2.417   1.345
  632SOL    HW2 1911   1.934   2.492   1.453
  633SOL     OW 1912   2.423   2.084   1.147
  633SOL    HW1 1913   2.461   2.000   1.184
  633SOL    HW2 1914   2.335   2.103   1.191
  634SOL     OW 1915   2.389   2.118   0.328
  634SOL    HW1 1916   2.416   2.059   0.253
  634SOL    HW2 1917   2.389   2.213   0.297
  635SOL     OW 1918   2.777   1.951   1.402
  635SOL    HW1 1919   2.802   1.931   1.307
  635SOL    HW2 1920   2.849   2.007   1.444
  636SOL     OW 1921   2.272   2.675   1.251
  636SOL    HW1 1922   2.358   2.687   1.301
  636SOL    HW2 1923   2.230   2.588   1.278
  637SOL     OW 1924   2.428   2.399   0.865
  637SOL    HW1 1925   2.440   2.465   0.791
  637SOL    HW2 1926   2.474   2.433   0.948
  638SOL     OW 1927   2.264   2.613   1.598
  638SOL    HW1 1928   2.332   2.668   1.551
  638SOL    HW2 1929   2.304   2.525   1.625
  639SOL     OW 1930   2.366   1.912   1.740
  639SOL    HW1 1931   2.324   1.855   1.670
  639SOL    HW2 1932   2.300   1.981   1.772
  640SOL     OW 1933   2.435   2.732   1.029
  640SOL    HW1 1934   2.479   2.821   1.020
  640SOL    HW2 1935   2.372   2.732   1.106
  641SOL     OW 1936   2.169   2.075   1.231
  641SOL    HW1 1937   2.146   2.112   1.321
  641SOL    HW2 1938   2.139   1.980   1.225
  642SOL     OW 1939   2.594   2.496   1.064
  642SOL    HW1 1940   2.653   2.470   0.988
  642SOL    HW2 1941   2.566   2.592   1.053
  643SOL     OW 1942   2.169   1.925   0.618
  643SOL    HW1 1943   2.158   2.019   0.651
  643SOL    HW2 1944   2.164   1.862   0.695
  644SOL     OW 1945   2.885   2.628   0.966
  644SOL    HW1 1946   2.900   2.649   1.062
  644SOL    HW2 1947   2.855   2.533   0.957
  645SOL     OW 1948   2.181   2.672   0.949
  645SOL    HW1 1949   2.274   2.708   0.954
  645SOL    HW2 1950   2.175   2.587   1.001
  646SOL     OW 1951   2.201   2.371   1.006
  646SOL    HW1 1952   2.149   2.288   0.989
  646SOL    HW2 1953   2.278   2.376   0.942
  647SOL     OW 1954   2.864   2.658   1.238
  647SOL    HW1 1955   2.905   2.626   1.324
  647SOL    HW2 1956   2.768   2.631   1.235
  648SOL     OW 1957   1.902   2.406   1.114
  648SOL    HW1 1958   1.987   2.373   1.073
  648SOL    HW2 1959   1.915   2.421   1.212
  649SOL     OW 1960   2.051   2.382   1.722
  649SOL    HW1 1961   2.110   2.342   1.652
  649SOL    HW2 1962   1.993   2.453   1.681
  650SOL     OW 1963   2.677   2.434   0.325
  650SOL    HW1 1964   2.684   2.345   0.279
  650SOL    HW2 1965   2.583   2.468   0.317
  651SOL     OW 1966   2.533   2.326   1.269
  651SOL    HW1 1967   2.499   2.237   1.239
  651SOL    HW2 1968   2.559   2.380   1.189
  652SOL     OW 1969   2.335   2.362   0.191
  652SOL    HW1 1970   2.396   2.442   0.195
  652SOL    HW2 1971   2.240   2.393   0.198
  653SOL     OW 1972   2.765   1.948   0.133
  653SOL    HW1 1973   2.816   1.949   0.047
  653SOL    HW2 1974   2.821   1.906   0.204
  654SOL     OW 1975   2.125   2.188   0.720
  654SOL    HW1 1976   2.046   2.239   0.686
  654SOL    HW2 1977   2.116   2.173   0.818
  655SOL     OW 1978   1.967   2.875   1.726
  655SOL    HW1 1979   1.890   2.842   1.780
  655SOL    HW2 1980   2.052   2.845   1.768
  656SOL     OW 1981   2.534   2.065   1.489
  656SOL    HW1 1982   2.624   2.049   1.449
  656SOL    HW2 1983   2.542   2.070   1.588
  657SOL     OW 1984   1.934   2.028   0.318
  657SOL    HW1 1985   1.917   2.111   0.264
  657SOL    HW2 1986   2.024   1.991   0.296
  658SOL     OW 1987   2.475   2.704   1.431
  658SOL    HW1 1988   2.531   2.785   1.414
  658SOL    HW2 1989   2.534   2.624   1.434
  659SOL     OW 1990   2.578   2.427   1.708
  659SOL    HW1 1991   2.597   2.492   1.782
  659SOL    HW2 1992   2.638   2.347   1.717
  660SOL     OW 1993   2.456   2.607   0.652
  660SOL    HW1 1994   2.506   2.692   0.633
  660SOL    HW2 1995   2.368   2.609   0.604
  661SOL     OW 1996   2.290   2.286   0.520
  661SOL    HW1 1997   2.320   2.214   0.458
  661SOL    HW2 1998   2.251   2.246   0.603
  662SOL     OW 1999   2.179   2.409   1.280
  662SOL    HW1 2000   2.217   2.350   1.352
  662SOL    HW2 2001   2.219   2.383   1.192
  663SOL     OW 2002   2.092   2.490   1.975
  663SOL    HW1 2003   1.999   2.488   2.012
  663SOL    HW2 2004   2.093   2.451   1.883
  664SOL     OW 2005   2.087   2.137   2.858
  664SOL    HW1 2006   2.122   2.120   2.950
  664SOL    HW2 2007   1.999   2.092   2.846
  665SOL     OW 2008   1.881   2.230   2.509
  665SOL    HW1 2009   1.799   2.273   2.548
  665SOL    HW2 2010   1.853   2.157   2.446
  666SOL     OW 2011   2.547   2.874   2.527
  666SOL    HW1 2012   2.616   2.858   2.597
  666SOL    HW2 2013   2.474   2.931   2.565
  667SOL     OW 2014   1.984   2.505   2.425
  667SOL    HW1 2015   1.939   2.417   2.442
  667SOL    HW2 2016   1.983   2.559   2.509
  668SOL     OW 2017   2.671   1.866   2.364
  668SOL    HW1 2018   2.711   1.957   2.355
  668SOL    HW2 2019   2.571   1.874   2.370
  669SOL     OW 2020   2.460   2.591   2.132
  669SOL    HW1 2021   2.484   2.660   2.064
  669SOL    HW2 2022   2.382   2.624   2.186
  670SOL     OW 2023   1.938   2.673   2.651
  670SOL    HW1 2024   2.037   2.661   2.660
  670SOL    HW2 2025   1.914   2.768   2.672
  671SOL     OW 2026   2.412   2.058   2.747
  671SOL    HW1 2027   2.407   2.053   2.847
  671SOL    HW2 2028   2.414   2.154   2.718
  672SOL     OW 2029   2.244   2.562   2.342
  672SOL    HW1 2030   2.289   2.472   2.339
  672SOL    HW2 2031   2.150   2.551   2.375
  673SOL     OW 2032   2.476   1.984   1.979
  673SOL    HW1 2033   2.574   1.962   1.986
  673SOL    HW2 2034   2.445   1.967   1.886
  674SOL     OW 2035   2.401   1.926   2.374
  674SOL    HW1 2036   2.320   1.927   2.432
  674SOL    HW2 2037   2.404   2.009   2.319
  675SOL     OW 2038   2.159   1.897   2.033
  675SOL    HW1 2039   2.208   1.981   2.012
  675SOL    HW2 2040   2.221   1.832   2.078
  676SOL     OW 2041   2.321   3.014   2.603
  676SOL    HW1 2042   2.250   2.987   2.668
  676SOL    HW2 2043   2.295   2.986   2.510
  677SOL     OW 2044   2.389   2.118   2.190
  677SOL    HW1 2045   2.416   2.059   2.115
  677SOL    HW2 2046   2.389   2.213   2.159
  678SOL     OW 2047   2.428   2.399   2.727
  678SOL    HW1 2048   2.440   2.465   2.653
  678SOL    HW2 2049   2.474   2.433   2.810
  679SOL     OW 2050   2.169   1.925   2.480
  679SOL    HW1 2051   2.158   2.019   2.513
  679SOL    HW2 2052   2.164   1.862   2.557
  680SOL     OW 2053   2.885   2.628   2.828
  680SOL    HW1 2054   2.900   2.649   2.924
  680SOL    HW2 2055   2.855   2.533   2.819
  681SOL     OW 2056   2.677   2.434   2.187
  681SOL    HW1 2057   2.684   2.345   2.141
  681SOL    HW2 2058   2.583   2.468   2.179
  682SOL     OW 2059   2.335   2.362   2.053
  682SOL    HW1 2060   2.396   2.442   2.057
  682SOL    HW2 2061   2.240   2.393   2.060
  683SOL     OW 2062   2.765   1.948   1.995
  683SOL    HW1 2063   2.816   1.949   1.909
  683SOL    HW2 2064   2.821   1.906   2.066
  684SOL     OW 2065   2.125   2.188   2.582
  684SOL    HW1 2066   2.046   2.239   2.548
  684SOL    HW2 2067   2.116   2.173   2.680
  685SOL     OW 2068   2.778   2.772   2.153
  685SOL    HW1 2069   2.841   2.810   2.085
  685SOL    HW2 2070   2.818   2.689   2.192
  686SOL     OW 2071   1.937   2.207   1.895
  686SOL    HW1 2072   1.845   2.179   1.866
  686SOL    HW2 2073   1.968   2.284   1.839
  687SOL     OW 2074   1.934   2.028   2.180
  687SOL    HW1 2075   1.917   2.111   2.126
  687SOL    HW2 2076   2.024   1.991   2.158
  688SOL     OW 2077   2.456   2.607   2.514
  688SOL    HW1 2078   2.506   2.692   2.495
  688SOL    HW2 2079   2.368   2.609   2.466
  689SOL     OW 2080   2.290   2.286   2.382
  689SOL    HW1 2081   2.320   2.214   2.320
  689SOL    HW2 2082   2.251   2.246   2.465
   2.79094   2.79094   2.79094
