mobley_2972345_GMX.gro created by acpype (v: 2023.10.27) on Thu May 14 13:45:47 2026
 2600
    1MOL     C1    1   1.148   1.544   1.310
    1MOL     C2    2   1.182   1.421   1.253
    1MOL     C3    3   1.793   1.555   1.663
    1MOL     C4    4   1.826   1.433   1.606
    1MOL     C5    5   1.229   1.599   1.409
    1MOL     C6    6   1.296   1.354   1.295
    1MOL     C7    7   1.664   1.606   1.648
    1MOL     C8    8   1.731   1.362   1.534
    1MOL     C9    9   1.345   1.532   1.452
    1MOL    C10   10   1.379   1.408   1.394
    1MOL    C11   11   1.568   1.536   1.574
    1MOL    C12   12   1.601   1.412   1.517
    1MOL    C13   13   1.428   1.592   1.562
    1MOL    C14   14   1.499   1.331   1.441
    1MOL     H1   15   1.059   1.597   1.277
    1MOL     H2   16   1.119   1.378   1.175
    1MOL     H3   17   1.867   1.611   1.720
    1MOL     H4   18   1.926   1.393   1.618
    1MOL     H5   19   1.201   1.694   1.454
    1MOL     H6   20   1.320   1.258   1.250
    1MOL     H7   21   1.639   1.702   1.694
    1MOL     H8   22   1.758   1.265   1.491
    1MOL     H9   23   1.436   1.700   1.545
    1MOL    H10   24   1.376   1.576   1.658
    1MOL    H11   25   1.466   1.249   1.505
    1MOL    H12   26   1.548   1.288   1.353
    2SOL     OW   27   0.230   0.628   0.113
    2SOL    HW1   28   0.137   0.626   0.150
    2SOL    HW2   29   0.231   0.589   0.021
    3SOL     OW   30   0.225   0.275   0.996
    3SOL    HW1   31   0.260   0.258   1.088
    3SOL    HW2   32   0.137   0.230   0.984
    4SOL     OW   33   0.019   0.368   0.647
    4SOL    HW1   34  -0.063   0.411   0.686
    4SOL    HW2   35  -0.009   0.295   0.584
    5SOL     OW   36   0.569   1.275   1.165
    5SOL    HW1   37   0.476   1.268   1.128
    5SOL    HW2   38   0.580   1.364   1.209
    6SOL     OW   39   1.555   1.511   0.703
    6SOL    HW1   40   1.498   1.495   0.784
    6SOL    HW2   41   1.496   1.521   0.623
    7SOL     OW   42   1.135   0.703   0.717
    7SOL    HW1   43   1.192   0.781   0.692
    7SOL    HW2   44   1.075   0.729   0.793
    8SOL     OW   45   1.755   0.607   0.231
    8SOL    HW1   46   1.743   0.594   0.132
    8SOL    HW2   47   1.725   0.526   0.280
    9SOL     OW   48   0.768   1.144   1.023
    9SOL    HW1   49   0.690   1.161   1.083
    9SOL    HW2   50   0.802   1.231   0.987
   10SOL     OW   51   0.850   0.798   1.823
   10SOL    HW1   52   0.846   0.874   1.888
   10SOL    HW2   53   0.872   0.834   1.732
   11SOL     OW   54   0.685   1.012   0.665
   11SOL    HW1   55   0.754   0.996   0.735
   11SOL    HW2   56   0.612   1.069   0.703
   12SOL     OW   57   0.686   1.161   1.803
   12SOL    HW1   58   0.746   1.240   1.817
   12SOL    HW2   59   0.600   1.192   1.762
   13SOL     OW   60   0.335   1.435   1.061
   13SOL    HW1   61   0.257   1.404   1.008
   13SOL    HW2   62   0.393   1.493   1.004
   14SOL     OW   63   0.438   0.392   1.499
   14SOL    HW1   64   0.520   0.336   1.508
   14SOL    HW2   65   0.357   0.334   1.503
   15SOL     OW   66   1.603   0.447   0.737
   15SOL    HW1   67   1.529   0.493   0.687
   15SOL    HW2   68   1.654   0.515   0.790
   16SOL     OW   69   0.231   1.713   0.483
   16SOL    HW1   70   0.265   1.790   0.537
   16SOL    HW2   71   0.275   1.713   0.393
   17SOL     OW   72   1.127   1.341   1.690
   17SOL    HW1   73   1.174   1.341   1.778
   17SOL    HW2   74   1.079   1.254   1.679
   18SOL     OW   75   0.230   1.434   0.538
   18SOL    HW1   76   0.204   1.530   0.538
   18SOL    HW2   77   0.159   1.380   0.583
   19SOL     OW   78   0.240   1.091   0.886
   19SOL    HW1   79   0.254   1.007   0.938
   19SOL    HW2   80   0.185   1.155   0.941
   20SOL     OW   81   0.620   1.786   1.439
   20SOL    HW1   82   0.528   1.769   1.474
   20SOL    HW2   83   0.648   1.878   1.465
   21SOL     OW   84   0.606   0.964   0.123
   21SOL    HW1   85   0.613   1.048   0.069
   21SOL    HW2   86   0.652   0.977   0.211
   22SOL     OW   87   1.594   0.114   1.480
   22SOL    HW1   88   1.576   0.181   1.408
   22SOL    HW2   89   1.591   0.160   1.569
   23SOL     OW   90   0.122   0.643   0.563
   23SOL    HW1   91   0.077   0.555   0.580
   23SOL    HW2   92   0.121   0.697   0.647
   24SOL     OW   93   1.842   1.767   0.359
   24SOL    HW1   94   1.896   1.738   0.439
   24SOL    HW2   95   1.872   1.857   0.330
   25SOL     OW   96   0.027   1.596   0.117
   25SOL    HW1   97   0.008   1.500   0.138
   25SOL    HW2   98  -0.006   1.654   0.192
   26SOL     OW   99   1.689   0.922   0.612
   26SOL    HW1  100   1.784   0.893   0.620
   26SOL    HW2  101   1.681   0.987   0.537
   27SOL     OW  102   1.641   1.108   0.432
   27SOL    HW1  103   1.727   1.110   0.380
   27SOL    HW2  104   1.655   1.155   0.520
   28SOL     OW  105   0.113   0.737   1.597
   28SOL    HW1  106   0.201   0.724   1.642
   28SOL    HW2  107   0.100   0.834   1.575
   29SOL     OW  108   0.613   1.365   0.726
   29SOL    HW1  109   0.564   1.278   0.735
   29SOL    HW2  110   0.590   1.408   0.639
   30SOL     OW  111   0.809   0.004   0.502
   30SOL    HW1  112   0.849   0.095   0.493
   30SOL    HW2  113   0.709   0.012   0.508
   31SOL     OW  114   0.197   0.976   1.264
   31SOL    HW1  115   0.286   0.931   1.250
   31SOL    HW2  116   0.124   0.911   1.245
   32SOL     OW  117   1.525   0.999   0.190
   32SOL    HW1  118   1.462   0.923   0.203
   32SOL    HW2  119   1.573   1.017   0.276
   33SOL     OW  120   0.317   0.251   1.801
   33SOL    HW1  121   0.388   0.322   1.807
   33SOL    HW2  122   0.229   0.290   1.829
   34SOL     OW  123   1.466   1.417   0.953
   34SOL    HW1  124   1.407   1.423   1.033
   34SOL    HW2  125   1.451   1.329   0.907
   35SOL     OW  126   1.667   1.714   0.572
   35SOL    HW1  127   1.626   1.691   0.484
   35SOL    HW2  128   1.649   1.640   0.637
   36SOL     OW  129   0.598   0.729   0.270
   36SOL    HW1  130   0.622   0.798   0.202
   36SOL    HW2  131   0.520   0.762   0.324
   37SOL     OW  132   1.281   0.345   0.944
   37SOL    HW1  133   1.195   0.295   0.931
   37SOL    HW2  134   1.343   0.291   1.000
   38SOL     OW  135   1.576   1.662   0.307
   38SOL    HW1  136   1.665   1.708   0.310
   38SOL    HW2  137   1.555   1.638   0.212
   39SOL     OW  138   0.807   0.605   1.465
   39SOL    HW1  139   0.760   0.602   1.554
   39SOL    HW2  140   0.756   0.550   1.399
   40SOL     OW  141   1.394   0.469   1.674
   40SOL    HW1  142   1.374   0.512   1.762
   40SOL    HW2  143   1.472   0.407   1.683
   41SOL     OW  144   0.973   0.890   1.572
   41SOL    HW1  145   1.019   0.806   1.543
   41SOL    HW2  146   0.917   0.924   1.497
   42SOL     OW  147   0.991   0.410   1.242
   42SOL    HW1  148   0.914   0.444   1.296
   42SOL    HW2  149   0.957   0.359   1.163
   43SOL     OW  150   1.041   0.701   0.429
   43SOL    HW1  151   1.067   0.697   0.525
   43SOL    HW2  152   0.956   0.650   0.415
   44SOL     OW  153   0.076   0.811   0.789
   44SOL    HW1  154   0.175   0.799   0.798
   44SOL    HW2  155   0.052   0.906   0.810
   45SOL     OW  156   0.130   1.821   1.571
   45SOL    HW1  157   0.120   1.806   1.670
   45SOL    HW2  158   0.044   1.857   1.535
   46SOL     OW  159   0.865   0.348   0.195
   46SOL    HW1  160   0.924   0.411   0.146
   46SOL    HW2  161   0.884   0.254   0.166
   47SOL     OW  162   1.719   0.585   1.831
   47SOL    HW1  163   1.693   0.674   1.795
   47SOL    HW2  164   1.717   0.517   1.758
   48SOL     OW  165   1.362   1.144   0.545
   48SOL    HW1  166   1.445   1.115   0.497
   48SOL    HW2  167   1.313   1.211   0.489
   49SOL     OW  168   0.550   0.196   0.885
   49SOL    HW1  169   0.545   0.191   0.985
   49SOL    HW2  170   0.552   0.292   0.856
   50SOL     OW  171   1.008   1.456   0.477
   50SOL    HW1  172   0.962   1.528   0.425
   50SOL    HW2  173   1.004   1.476   0.575
   51SOL     OW  174   0.351   1.801   0.853
   51SOL    HW1  175   0.401   1.715   0.859
   51SOL    HW2  176   0.416   1.878   0.850
   52SOL     OW  177   1.795   1.066   0.873
   52SOL    HW1  178   1.733   1.051   0.797
   52SOL    HW2  179   1.743   1.077   0.958
   53SOL     OW  180   0.321   0.943   0.242
   53SOL    HW1  181   0.403   0.982   0.200
   53SOL    HW2  182   0.294   0.861   0.193
   54SOL     OW  183   1.458   0.735   0.728
   54SOL    HW1  184   1.453   0.670   0.803
   54SOL    HW2  185   1.538   0.794   0.741
   55SOL     OW  186   0.461   1.266   1.727
   55SOL    HW1  187   0.411   1.267   1.641
   55SOL    HW2  188   0.398   1.248   1.803
   56SOL     OW  189   1.111   1.776   0.237
   56SOL    HW1  190   1.051   1.714   0.287
   56SOL    HW2  191   1.142   1.732   0.152
   57SOL     OW  192   0.202   0.285   1.498
   57SOL    HW1  193   0.122   0.345   1.485
   57SOL    HW2  194   0.192   0.236   1.584
   58SOL     OW  195   1.632   1.377   0.081
   58SOL    HW1  196   1.600   1.471   0.071
   58SOL    HW2  197   1.556   1.314   0.069
   59SOL     OW  198   0.464   1.743   0.323
   59SOL    HW1  199   0.497   1.782   0.409
   59SOL    HW2  200   0.540   1.736   0.258
   60SOL     OW  201   1.400   0.107   0.426
   60SOL    HW1  202   1.376   0.070   0.336
   60SOL    HW2  203   1.499   0.123   0.430
   61SOL     OW  204   0.249   1.785   1.241
   61SOL    HW1  205   0.306   1.720   1.291
   61SOL    HW2  206   0.233   1.752   1.148
   62SOL     OW  207   0.940   1.698   0.904
   62SOL    HW1  208   1.020   1.641   0.925
   62SOL    HW2  209   0.891   1.658   0.827
   63SOL     OW  210   0.382   0.700   0.480
   63SOL    HW1  211   0.427   0.610   0.477
   63SOL    HW2  212   0.288   0.689   0.513
   64SOL     OW  213   1.547   0.222   1.729
   64SOL    HW1  214   1.542   0.259   1.821
   64SOL    HW2  215   1.475   0.153   1.717
   65SOL     OW  216   0.614   0.122   0.117
   65SOL    HW1  217   0.712   0.100   0.124
   65SOL    HW2  218   0.583   0.105   0.024
   66SOL     OW  219   0.781   0.264   1.749
   66SOL    HW1  220   0.848   0.203   1.792
   66SOL    HW2  221   0.708   0.283   1.814
   67SOL     OW  222   0.888   1.514   1.195
   67SOL    HW1  223   0.865   1.489   1.101
   67SOL    HW2  224   0.949   1.445   1.234
   68SOL     OW  225   1.351   0.590   1.433
   68SOL    HW1  226   1.379   0.547   1.518
   68SOL    HW2  227   1.376   0.686   1.434
   69SOL     OW  228   0.803   1.402   0.924
   69SOL    HW1  229   0.893   1.416   0.882
   69SOL    HW2  230   0.732   1.404   0.853
   70SOL     OW  231   0.922   0.503   0.899
   70SOL    HW1  232   0.897   0.494   0.803
   70SOL    HW2  233   0.970   0.421   0.930
   71SOL     OW  234   0.539   0.064   0.512
   71SOL    HW1  235   0.458   0.065   0.570
   71SOL    HW2  236   0.542   0.147   0.457
   72SOL     OW  237   1.434   1.188   0.041
   72SOL    HW1  238   1.466   1.112   0.098
   72SOL    HW2  239   1.342   1.215   0.071
   73SOL     OW  240   0.297   0.035   0.171
   73SOL    HW1  241   0.346   0.119   0.150
   73SOL    HW2  242   0.359  -0.030   0.216
   74SOL     OW  243   0.935   0.236   0.480
   74SOL    HW1  244   0.887   0.277   0.402
   74SOL    HW2  245   1.034   0.234   0.461
   75SOL     OW  246   1.076   0.683   1.464
   75SOL    HW1  247   0.996   0.622   1.467
   75SOL    HW2  248   1.157   0.630   1.440
   76SOL     OW  249   1.227   1.570   0.793
   76SOL    HW1  250   1.248   1.644   0.728
   76SOL    HW2  251   1.295   1.570   0.866
   77SOL     OW  252   0.459   1.152   0.741
   77SOL    HW1  253   0.388   1.125   0.806
   77SOL    HW2  254   0.433   1.124   0.648
   78SOL     OW  255   1.271   1.797   0.591
   78SOL    HW1  256   1.315   1.861   0.527
   78SOL    HW2  257   1.221   1.849   0.661
   79SOL     OW  258   1.032   0.549   0.016
   79SOL    HW1  259   0.991   0.631  -0.023
   79SOL    HW2  260   1.096   0.575   0.089
   80SOL     OW  261   0.078   0.556   1.386
   80SOL    HW1  262   0.170   0.555   1.345
   80SOL    HW2  263   0.072   0.630   1.453
   81SOL     OW  264   0.561   0.222   1.147
   81SOL    HW1  265   0.599   0.138   1.184
   81SOL    HW2  266   0.473   0.241   1.191
   82SOL     OW  267   0.866   0.454   0.642
   82SOL    HW1  268   0.834   0.526   0.580
   82SOL    HW2  269   0.890   0.373   0.589
   83SOL     OW  270   1.017   0.039   0.753
   83SOL    HW1  271   0.945   0.044   0.684
   83SOL    HW2  272   0.993  -0.030   0.822
   84SOL     OW  273   1.429   1.173   0.867
   84SOL    HW1  274   1.374   1.089   0.860
   84SOL    HW2  275   1.455   1.202   0.775
   85SOL     OW  276   1.466   0.590   0.992
   85SOL    HW1  277   1.436   0.495   0.999
   85SOL    HW2  278   1.539   0.606   1.058
   86SOL     OW  279   1.857   0.833   0.377
   86SOL    HW1  280   1.899   0.769   0.441
   86SOL    HW2  281   1.819   0.782   0.299
   87SOL     OW  282   0.488   1.385   0.174
   87SOL    HW1  283   0.401   1.370   0.221
   87SOL    HW2  284   0.471   1.411   0.079
   88SOL     OW  285   1.664   1.280   0.657
   88SOL    HW1  286   1.763   1.288   0.671
   88SOL    HW2  287   1.619   1.364   0.688
   89SOL     OW  288   1.390   0.575   0.078
   89SOL    HW1  289   1.336   0.554   0.159
   89SOL    HW2  290   1.481   0.534   0.087
   90SOL     OW  291   0.527   0.256   0.328
   90SOL    HW1  292   0.554   0.197   0.253
   90SOL    HW2  293   0.527   0.351   0.297
   91SOL     OW  294   1.111   1.195   1.100
   91SOL    HW1  295   1.071   1.239   1.181
   91SOL    HW2  296   1.070   1.232   1.017
   92SOL     OW  297   1.638   1.099   1.079
   92SOL    HW1  298   1.643   1.180   1.138
   92SOL    HW2  299   1.552   1.101   1.028
   93SOL     OW  300   0.915   0.089   1.402
   93SOL    HW1  301   0.940   0.069   1.307
   93SOL    HW2  302   0.987   0.145   1.444
   94SOL     OW  303   0.980   1.116   1.719
   94SOL    HW1  304   0.881   1.122   1.729
   94SOL    HW2  305   1.003   1.036   1.663
   95SOL     OW  306   0.705   1.050   0.368
   95SOL    HW1  307   0.691   1.057   0.467
   95SOL    HW2  308   0.789   0.999   0.350
   96SOL     OW  309   0.410   0.813   1.251
   96SOL    HW1  310   0.496   0.825   1.301
   96SOL    HW2  311   0.368   0.726   1.278
   97SOL     OW  312   1.274   0.386   1.262
   97SOL    HW1  313   1.295   0.460   1.326
   97SOL    HW2  314   1.185   0.403   1.219
   98SOL     OW  315   0.064   1.564   1.331
   98SOL    HW1  316   0.018   1.646   1.297
   98SOL    HW2  317   0.162   1.583   1.340
   99SOL     OW  318   0.367   1.100   0.501
   99SOL    HW1  319   0.360   1.183   0.445
   99SOL    HW2  320   0.371   1.020   0.441
  100SOL     OW  321   0.566   0.537   0.865
  100SOL    HW1  322   0.578   0.603   0.791
  100SOL    HW2  323   0.612   0.571   0.948
  101SOL     OW  324   1.252   1.348   0.388
  101SOL    HW1  325   1.302   1.425   0.428
  101SOL    HW2  326   1.157   1.350   0.420
  102SOL     OW  327   1.582   0.639   0.472
  102SOL    HW1  328   1.551   0.700   0.545
  102SOL    HW2  329   1.632   0.691   0.403
  103SOL     OW  330   0.354   1.510   1.329
  103SOL    HW1  331   0.333   1.466   1.242
  103SOL    HW2  332   0.451   1.536   1.332
  104SOL     OW  333   0.402   0.751   1.598
  104SOL    HW1  334   0.470   0.806   1.551
  104SOL    HW2  335   0.442   0.663   1.625
  105SOL     OW  336   1.587   0.779   1.670
  105SOL    HW1  337   1.495   0.817   1.665
  105SOL    HW2  338   1.647   0.826   1.605
  106SOL     OW  339   1.013   0.105   1.770
  106SOL    HW1  340   1.019   0.190   1.718
  106SOL    HW2  341   1.045   0.029   1.713
  107SOL     OW  342   0.504   0.050   1.740
  107SOL    HW1  343   0.462  -0.007   1.670
  107SOL    HW2  344   0.438   0.119   1.772
  108SOL     OW  345   0.573   0.870   1.029
  108SOL    HW1  346   0.617   0.959   1.020
  108SOL    HW2  347   0.510   0.870   1.106
  109SOL     OW  348   1.360   0.862   1.045
  109SOL    HW1  349   1.285   0.862   0.979
  109SOL    HW2  350   1.397   0.770   1.054
  110SOL     OW  351   1.209   0.525   0.275
  110SOL    HW1  352   1.222   0.441   0.329
  110SOL    HW2  353   1.180   0.599   0.335
  111SOL     OW  354   0.307   0.213   1.231
  111SOL    HW1  355   0.284   0.250   1.321
  111SOL    HW2  356   0.277   0.118   1.225
  112SOL     OW  357   0.037   1.310   1.282
  112SOL    HW1  358   0.090   1.261   1.350
  112SOL    HW2  359   0.059   1.408   1.287
  113SOL     OW  360   0.732   0.634   1.064
  113SOL    HW1  361   0.791   0.608   0.988
  113SOL    HW2  362   0.704   0.730   1.053
  114SOL     OW  363   1.728   0.935   1.854
  114SOL    HW1  364   1.682   0.928   1.765
  114SOL    HW2  365   1.666   0.979   1.920
  115SOL     OW  366   0.307   0.063   0.618
  115SOL    HW1  367   0.296   0.157   0.651
  115SOL    HW2  368   0.302   0.000   0.695
  116SOL     OW  369   1.622   0.367   0.374
  116SOL    HW1  370   1.624   0.291   0.438
  116SOL    HW2  371   1.574   0.444   0.414
  117SOL     OW  372   1.023   0.766   0.966
  117SOL    HW1  373   1.038   0.787   1.062
  117SOL    HW2  374   0.993   0.671   0.957
  118SOL     OW  375   0.980   1.573   1.700
  118SOL    HW1  376   0.960   1.617   1.612
  118SOL    HW2  377   1.019   1.482   1.684
  119SOL     OW  378   0.350   0.898   1.804
  119SOL    HW1  379   0.426   0.942   1.852
  119SOL    HW2  380   0.385   0.851   1.722
  120SOL     OW  381   1.540   0.274   0.125
  120SOL    HW1  382   1.479   0.199   0.148
  120SOL    HW2  383   1.562   0.326   0.208
  121SOL     OW  384   1.303   0.838   0.042
  121SOL    HW1  385   1.337   0.745   0.057
  121SOL    HW2  386   1.321   0.865  -0.053
  122SOL     OW  387   1.068   1.333   0.849
  122SOL    HW1  388   1.075   1.249   0.794
  122SOL    HW2  389   1.130   1.402   0.813
  123SOL     OW  390   0.319   0.810   0.949
  123SOL    HW1  391   0.412   0.846   0.954
  123SOL    HW2  392   0.313   0.725   1.001
  124SOL     OW  393   0.339   0.509   1.006
  124SOL    HW1  394   0.287   0.426   0.989
  124SOL    HW2  395   0.416   0.514   0.942
  125SOL     OW  396   1.138   0.380   1.678
  125SOL    HW1  397   1.093   0.443   1.742
  125SOL    HW2  398   1.231   0.411   1.661
  126SOL     OW  399   1.160   0.207   1.477
  126SOL    HW1  400   1.160   0.271   1.554
  126SOL    HW2  401   1.188   0.255   1.394
  127SOL     OW  402   0.008   1.326   0.200
  127SOL    HW1  403  -0.085   1.347   0.169
  127SOL    HW2  404   0.018   1.227   0.213
  128SOL     OW  405   0.088   1.801   0.927
  128SOL    HW1  406   0.046   1.715   0.900
  128SOL    HW2  407   0.182   1.804   0.893
  129SOL     OW  408   0.504   1.568   0.910
  129SOL    HW1  409   0.570   1.642   0.919
  129SOL    HW2  410   0.548   1.489   0.868
  130SOL     OW  411   1.002   0.796   1.238
  130SOL    HW1  412   1.043   0.764   1.324
  130SOL    HW2  413   0.906   0.769   1.235
  131SOL     OW  414   0.040   0.544   1.114
  131SOL    HW1  415   0.125   0.511   1.073
  131SOL    HW2  416   0.053   0.559   1.212
  132SOL     OW  417   0.189   0.520   1.722
  132SOL    HW1  418   0.248   0.480   1.652
  132SOL    HW2  419   0.131   0.591   1.681
  133SOL     OW  420   1.369   0.950   1.660
  133SOL    HW1  421   1.408   1.039   1.680
  133SOL    HW2  422   1.379   0.930   1.563
  134SOL     OW  423   0.815   0.572   0.325
  134SOL    HW1  424   0.822   0.483   0.279
  134SOL    HW2  425   0.721   0.606   0.317
  135SOL     OW  426   1.657   0.604   1.206
  135SOL    HW1  427   1.619   0.535   1.268
  135SOL    HW2  428   1.739   0.568   1.162
  136SOL     OW  429   0.252   1.564   1.744
  136SOL    HW1  430   0.222   1.621   1.820
  136SOL    HW2  431   0.245   1.467   1.770
  137SOL     OW  432   0.671   0.464   1.269
  137SOL    HW1  433   0.637   0.375   1.239
  137SOL    HW2  434   0.697   0.518   1.189
  138SOL     OW  435   0.930   1.678   1.465
  138SOL    HW1  436   0.906   1.660   1.370
  138SOL    HW2  437   0.960   1.772   1.475
  139SOL     OW  438   0.473   0.500   0.191
  139SOL    HW1  439   0.534   0.580   0.195
  139SOL    HW2  440   0.378   0.531   0.198
  140SOL     OW  441   0.159   1.137   1.466
  140SOL    HW1  442   0.181   1.076   1.542
  140SOL    HW2  443   0.169   1.088   1.380
  141SOL     OW  444   1.347   1.059   1.234
  141SOL    HW1  445   1.371   0.996   1.160
  141SOL    HW2  446   1.257   1.099   1.216
  142SOL     OW  447   1.302   0.855   0.309
  142SOL    HW1  448   1.216   0.824   0.351
  142SOL    HW2  449   1.298   0.841   0.210
  143SOL     OW  450   1.759   1.747   1.154
  143SOL    HW1  451   1.820   1.777   1.081
  143SOL    HW2  452   1.721   1.658   1.132
  144SOL     OW  453   1.252   1.731   1.128
  144SOL    HW1  454   1.336   1.736   1.074
  144SOL    HW2  455   1.229   1.635   1.146
  145SOL     OW  456   0.083   1.258   1.022
  145SOL    HW1  457   0.078   1.257   1.122
  145SOL    HW2  458   0.000   1.217   0.984
  146SOL     OW  459   0.688   1.662   1.716
  146SOL    HW1  460   0.632   1.743   1.725
  146SOL    HW2  461   0.740   1.666   1.630
  147SOL     OW  462   0.903   0.086   0.133
  147SOL    HW1  463   0.954   0.087   0.047
  147SOL    HW2  464   0.959   0.044   0.204
  148SOL     OW  465   1.726   0.135   0.523
  148SOL    HW1  466   1.799   0.118   0.456
  148SOL    HW2  467   1.695   0.048   0.561
  149SOL     OW  468   1.388   1.573   0.477
  149SOL    HW1  469   1.455   1.585   0.403
  149SOL    HW2  470   1.348   1.662   0.500
  150SOL     OW  471   0.130   1.794   1.851
  150SOL    HW1  472   0.089   1.720   1.904
  150SOL    HW2  473   0.194   1.845   1.909
  151SOL     OW  474   1.280   0.927   0.672
  151SOL    HW1  475   1.340   0.846   0.674
  151SOL    HW2  476   1.320   0.996   0.612
  152SOL     OW  477   0.830   1.273   1.422
  152SOL    HW1  478   0.825   1.306   1.517
  152SOL    HW2  479   0.744   1.292   1.376
  153SOL     OW  480   0.672   1.616   0.154
  153SOL    HW1  481   0.681   1.626   0.055
  153SOL    HW2  482   0.632   1.527   0.175
  154SOL     OW  483   1.650   1.720   1.394
  154SOL    HW1  484   1.703   1.730   1.310
  154SOL    HW2  485   1.623   1.810   1.428
  155SOL     OW  486   1.841   0.175   0.963
  155SOL    HW1  487   1.880   0.090   0.927
  155SOL    HW2  488   1.743   0.177   0.944
  156SOL     OW  489   0.263   0.326   0.720
  156SOL    HW1  490   0.184   0.377   0.686
  156SOL    HW2  491   0.254   0.311   0.818
  157SOL     OW  492   1.194   1.612   0.031
  157SOL    HW1  493   1.200   1.519   0.068
  157SOL    HW2  494   1.135   1.612  -0.049
  158SOL     OW  495   0.822   1.002   1.372
  158SOL    HW1  496   0.862   1.001   1.280
  158SOL    HW2  497   0.832   1.094   1.412
  159SOL     OW  498   0.916   0.910   0.291
  159SOL    HW1  499   0.979   0.948   0.223
  159SOL    HW2  500   0.956   0.827   0.330
  160SOL     OW  501   1.504   1.607   0.044
  160SOL    HW1  502   1.412   1.644   0.051
  160SOL    HW2  503   1.542   1.627  -0.046
  161SOL     OW  504   0.372   1.288   1.490
  161SOL    HW1  505   0.359   1.381   1.456
  161SOL    HW2  506   0.288   1.236   1.477
  162SOL     OW  507   1.039   1.098   0.696
  162SOL    HW1  508   0.969   1.051   0.750
  162SOL    HW2  509   1.098   1.030   0.653
  163SOL     OW  510   1.014   0.236   0.971
  163SOL    HW1  511   1.006   0.200   0.878
  163SOL    HW2  512   1.012   0.160   1.036
  164SOL     OW  513   0.590   1.487   0.491
  164SOL    HW1  514   0.632   1.429   0.421
  164SOL    HW2  515   0.546   1.566   0.447
  165SOL     OW  516   1.709   0.385   1.381
  165SOL    HW1  517   1.782   0.454   1.385
  165SOL    HW2  518   1.737   0.310   1.322
  166SOL     OW  519   0.255   1.348   0.290
  166SOL    HW1  520   0.159   1.349   0.263
  166SOL    HW2  521   0.267   1.401   0.374
  167SOL     OW  522   0.105   1.013   1.726
  167SOL    HW1  523   0.028   0.980   1.780
  167SOL    HW2  524   0.190   0.983   1.768
  168SOL     OW  525   0.672   0.203   1.489
  168SOL    HW1  526   0.762   0.187   1.449
  168SOL    HW2  527   0.680   0.208   1.588
  169SOL     OW  528   0.075   0.345   0.033
  169SOL    HW1  529  -0.017   0.317   0.004
  169SOL    HW2  530   0.106   0.422  -0.023
  170SOL     OW  531   1.440   0.856   1.398
  170SOL    HW1  532   1.383   0.908   1.335
  170SOL    HW2  533   1.536   0.868   1.374
  171SOL     OW  534   0.072   0.166   0.318
  171SOL    HW1  535   0.055   0.249   0.264
  171SOL    HW2  536   0.162   0.129   0.296
  172SOL     OW  537   1.183   1.335   0.119
  172SOL    HW1  538   1.084   1.324   0.121
  172SOL    HW2  539   1.217   1.350   0.212
  173SOL     OW  540   0.613   0.842   1.431
  173SOL    HW1  541   0.669   0.923   1.414
  173SOL    HW2  542   0.672   0.762   1.434
  174SOL     OW  543   1.493   1.767   0.959
  174SOL    HW1  544   1.526   1.831   0.890
  174SOL    HW2  545   1.559   1.761   1.034
  175SOL     OW  546   0.716   0.565   1.708
  175SOL    HW1  547   0.735   0.630   1.782
  175SOL    HW2  548   0.776   0.485   1.717
  176SOL     OW  549   0.390   1.741   1.560
  176SOL    HW1  550   0.299   1.782   1.558
  176SOL    HW2  551   0.383   1.647   1.592
  177SOL     OW  552   1.674   0.883   1.254
  177SOL    HW1  553   1.647   0.794   1.217
  177SOL    HW2  554   1.675   0.951   1.181
  178SOL     OW  555   1.225   0.325   0.449
  178SOL    HW1  556   1.290   0.251   0.438
  178SOL    HW2  557   1.245   0.375   0.533
  179SOL     OW  558   0.594   0.745   0.652
  179SOL    HW1  559   0.644   0.830   0.633
  179SOL    HW2  560   0.506   0.747   0.604
  180SOL     OW  561   1.777   0.342   1.642
  180SOL    HW1  562   1.760   0.373   1.548
  180SOL    HW2  563   1.693   0.305   1.680
  181SOL     OW  564   1.730   0.934   1.517
  181SOL    HW1  565   1.768   1.025   1.532
  181SOL    HW2  566   1.722   0.917   1.418
  182SOL     OW  567   0.859   1.374   0.016
  182SOL    HW1  568   0.813   1.389   0.104
  182SOL    HW2  569   0.903   1.459  -0.014
  183SOL     OW  570   0.661   1.790   0.953
  183SOL    HW1  571   0.615   1.878   0.940
  183SOL    HW2  572   0.760   1.802   0.946
  184SOL     OW  573   0.859   0.956   0.861
  184SOL    HW1  574   0.913   0.887   0.909
  184SOL    HW2  575   0.827   1.025   0.927
  185SOL     OW  576   1.083   0.984   0.087
  185SOL    HW1  577   1.060   1.037   0.005
  185SOL    HW2  578   1.164   0.928   0.068
  186SOL     OW  579   1.861   1.569   0.851
  186SOL    HW1  580   1.790   1.557   0.781
  186SOL    HW2  581   1.862   1.490   0.911
  187SOL     OW  582   0.221   1.314   1.844
  187SOL    HW1  583   0.156   1.241   1.823
  187SOL    HW2  584   0.225   1.328   1.942
  188SOL     OW  585   0.079   1.240   0.653
  188SOL    HW1  586   0.078   1.193   0.741
  188SOL    HW2  587   0.161   1.212   0.602
  189SOL     OW  588   0.672   1.391   1.624
  189SOL    HW1  589   0.594   1.341   1.662
  189SOL    HW2  590   0.669   1.486   1.655
  190SOL     OW  591   1.824   0.192   1.227
  190SOL    HW1  592   1.820   0.102   1.271
  190SOL    HW2  593   1.827   0.181   1.128
  191SOL     OW  594   0.428   0.424   0.520
  191SOL    HW1  595   0.458   0.352   0.458
  191SOL    HW2  596   0.389   0.384   0.603
  192SOL     OW  597   1.705   1.487   1.104
  192SOL    HW1  598   1.612   1.462   1.077
  192SOL    HW2  599   1.731   1.437   1.186
  193SOL     OW  600   0.317   0.547   1.280
  193SOL    HW1  601   0.355   0.488   1.352
  193SOL    HW2  602   0.357   0.521   1.192
  194SOL     OW  603   0.812   1.586   0.687
  194SOL    HW1  604   0.844   1.596   0.593
  194SOL    HW2  605   0.733   1.524   0.689
  195SOL     OW  606   1.424   0.214   1.112
  195SOL    HW1  607   1.476   0.149   1.167
  195SOL    HW2  608   1.375   0.277   1.173
  196SOL     OW  609   1.001   0.034   1.154
  196SOL    HW1  610   0.938  -0.038   1.123
  196SOL    HW2  611   1.094  -0.002   1.154
  197SOL     OW  612   0.770   1.330   0.301
  197SOL    HW1  613   0.724   1.243   0.318
  197SOL    HW2  614   0.861   1.327   0.342
  198SOL     OW  615   0.618   1.567   1.284
  198SOL    HW1  616   0.613   1.649   1.341
  198SOL    HW2  617   0.707   1.564   1.239
  199SOL     OW  618   1.352   0.052   0.168
  199SOL    HW1  619   1.387   0.011   0.084
  199SOL    HW2  620   1.262   0.014   0.188
  200SOL     OW  621   1.300   0.453   0.691
  200SOL    HW1  622   1.241   0.533   0.695
  200SOL    HW2  623   1.315   0.418   0.784
  201SOL     OW  624   1.593   0.221   0.882
  201SOL    HW1  625   1.509   0.220   0.936
  201SOL    HW2  626   1.595   0.304   0.826
  202SOL     OW  627   0.039   1.077   0.300
  202SOL    HW1  628   0.138   1.066   0.291
  202SOL    HW2  629  -0.001   0.991   0.332
  203SOL     OW  630   0.875   1.646   0.337
  203SOL    HW1  631   0.798   1.611   0.283
  203SOL    HW2  632   0.843   1.717   0.399
  204SOL     OW  633   0.230   0.628   1.975
  204SOL    HW1  634   0.137   0.626   2.012
  204SOL    HW2  635   0.231   0.589   1.883
  205SOL     OW  636   0.225   0.275   2.858
  205SOL    HW1  637   0.260   0.258   2.950
  205SOL    HW2  638   0.137   0.230   2.846
  206SOL     OW  639   0.019   0.368   2.509
  206SOL    HW1  640  -0.063   0.411   2.548
  206SOL    HW2  641  -0.009   0.295   2.446
  207SOL     OW  642   1.555   1.511   2.565
  207SOL    HW1  643   1.498   1.495   2.646
  207SOL    HW2  644   1.496   1.521   2.485
  208SOL     OW  645   1.135   0.703   2.579
  208SOL    HW1  646   1.192   0.781   2.554
  208SOL    HW2  647   1.075   0.729   2.655
  209SOL     OW  648   1.755   0.607   2.093
  209SOL    HW1  649   1.743   0.594   1.994
  209SOL    HW2  650   1.725   0.526   2.142
  210SOL     OW  651   0.768   1.144   2.885
  210SOL    HW1  652   0.690   1.161   2.945
  210SOL    HW2  653   0.802   1.231   2.849
  211SOL     OW  654   0.685   1.012   2.527
  211SOL    HW1  655   0.754   0.996   2.597
  211SOL    HW2  656   0.612   1.069   2.565
  212SOL     OW  657   0.335   1.435   2.923
  212SOL    HW1  658   0.257   1.404   2.870
  212SOL    HW2  659   0.393   1.493   2.866
  213SOL     OW  660   1.603   0.447   2.599
  213SOL    HW1  661   1.529   0.493   2.549
  213SOL    HW2  662   1.654   0.515   2.652
  214SOL     OW  663   0.231   1.713   2.345
  214SOL    HW1  664   0.265   1.790   2.399
  214SOL    HW2  665   0.275   1.713   2.255
  215SOL     OW  666   0.230   1.434   2.400
  215SOL    HW1  667   0.204   1.530   2.400
  215SOL    HW2  668   0.159   1.380   2.445
  216SOL     OW  669   0.240   1.091   2.748
  216SOL    HW1  670   0.254   1.007   2.800
  216SOL    HW2  671   0.185   1.155   2.803
  217SOL     OW  672   0.606   0.964   1.985
  217SOL    HW1  673   0.613   1.048   1.931
  217SOL    HW2  674   0.652   0.977   2.073
  218SOL     OW  675   0.122   0.643   2.425
  218SOL    HW1  676   0.077   0.555   2.442
  218SOL    HW2  677   0.121   0.697   2.509
  219SOL     OW  678   1.842   1.767   2.221
  219SOL    HW1  679   1.896   1.738   2.301
  219SOL    HW2  680   1.872   1.857   2.192
  220SOL     OW  681   0.027   1.596   1.979
  220SOL    HW1  682   0.008   1.500   2.000
  220SOL    HW2  683  -0.006   1.654   2.054
  221SOL     OW  684   1.689   0.922   2.474
  221SOL    HW1  685   1.784   0.893   2.482
  221SOL    HW2  686   1.681   0.987   2.399
  222SOL     OW  687   1.641   1.108   2.294
  222SOL    HW1  688   1.727   1.110   2.242
  222SOL    HW2  689   1.655   1.155   2.382
  223SOL     OW  690   0.613   1.365   2.588
  223SOL    HW1  691   0.564   1.278   2.597
  223SOL    HW2  692   0.590   1.408   2.501
  224SOL     OW  693   0.809   0.004   2.364
  224SOL    HW1  694   0.849   0.095   2.355
  224SOL    HW2  695   0.709   0.012   2.370
  225SOL     OW  696   1.525   0.999   2.052
  225SOL    HW1  697   1.462   0.923   2.065
  225SOL    HW2  698   1.573   1.017   2.138
  226SOL     OW  699   1.466   1.417   2.815
  226SOL    HW1  700   1.407   1.423   2.895
  226SOL    HW2  701   1.451   1.329   2.769
  227SOL     OW  702   1.667   1.714   2.434
  227SOL    HW1  703   1.626   1.691   2.346
  227SOL    HW2  704   1.649   1.640   2.499
  228SOL     OW  705   0.598   0.729   2.132
  228SOL    HW1  706   0.622   0.798   2.064
  228SOL    HW2  707   0.520   0.762   2.186
  229SOL     OW  708   1.281   0.345   2.806
  229SOL    HW1  709   1.195   0.295   2.793
  229SOL    HW2  710   1.343   0.291   2.862
  230SOL     OW  711   1.576   1.662   2.169
  230SOL    HW1  712   1.665   1.708   2.172
  230SOL    HW2  713   1.555   1.638   2.074
  231SOL     OW  714   1.041   0.701   2.291
  231SOL    HW1  715   1.067   0.697   2.387
  231SOL    HW2  716   0.956   0.650   2.277
  232SOL     OW  717   0.076   0.811   2.651
  232SOL    HW1  718   0.175   0.799   2.660
  232SOL    HW2  719   0.052   0.906   2.672
  233SOL     OW  720   0.865   0.348   2.057
  233SOL    HW1  721   0.924   0.411   2.008
  233SOL    HW2  722   0.884   0.254   2.028
  234SOL     OW  723   1.362   1.144   2.407
  234SOL    HW1  724   1.445   1.115   2.359
  234SOL    HW2  725   1.313   1.211   2.351
  235SOL     OW  726   0.550   0.196   2.747
  235SOL    HW1  727   0.545   0.191   2.847
  235SOL    HW2  728   0.552   0.292   2.718
  236SOL     OW  729   1.008   1.456   2.339
  236SOL    HW1  730   0.962   1.528   2.287
  236SOL    HW2  731   1.004   1.476   2.437
  237SOL     OW  732   0.351   1.801   2.715
  237SOL    HW1  733   0.401   1.715   2.721
  237SOL    HW2  734   0.416   1.878   2.712
  238SOL     OW  735   1.795   1.066   2.735
  238SOL    HW1  736   1.733   1.051   2.659
  238SOL    HW2  737   1.743   1.077   2.820
  239SOL     OW  738   0.321   0.943   2.104
  239SOL    HW1  739   0.403   0.982   2.062
  239SOL    HW2  740   0.294   0.861   2.055
  240SOL     OW  741   1.458   0.735   2.590
  240SOL    HW1  742   1.453   0.670   2.665
  240SOL    HW2  743   1.538   0.794   2.603
  241SOL     OW  744   1.111   1.776   2.099
  241SOL    HW1  745   1.051   1.714   2.149
  241SOL    HW2  746   1.142   1.732   2.014
  242SOL     OW  747   1.632   1.377   1.943
  242SOL    HW1  748   1.600   1.471   1.933
  242SOL    HW2  749   1.556   1.314   1.931
  243SOL     OW  750   0.464   1.743   2.185
  243SOL    HW1  751   0.497   1.782   2.271
  243SOL    HW2  752   0.540   1.736   2.120
  244SOL     OW  753   1.400   0.107   2.288
  244SOL    HW1  754   1.376   0.070   2.198
  244SOL    HW2  755   1.499   0.123   2.292
  245SOL     OW  756   0.249   1.785   3.103
  245SOL    HW1  757   0.306   1.720   3.153
  245SOL    HW2  758   0.233   1.752   3.010
  246SOL     OW  759   0.940   1.698   2.766
  246SOL    HW1  760   1.020   1.641   2.787
  246SOL    HW2  761   0.891   1.658   2.689
  247SOL     OW  762   0.382   0.700   2.342
  247SOL    HW1  763   0.427   0.610   2.339
  247SOL    HW2  764   0.288   0.689   2.375
  248SOL     OW  765   0.614   0.122   1.979
  248SOL    HW1  766   0.712   0.100   1.986
  248SOL    HW2  767   0.583   0.105   1.886
  249SOL     OW  768   0.803   1.402   2.786
  249SOL    HW1  769   0.893   1.416   2.744
  249SOL    HW2  770   0.732   1.404   2.715
  250SOL     OW  771   0.922   0.503   2.761
  250SOL    HW1  772   0.897   0.494   2.665
  250SOL    HW2  773   0.970   0.421   2.792
  251SOL     OW  774   0.539   0.064   2.374
  251SOL    HW1  775   0.458   0.065   2.432
  251SOL    HW2  776   0.542   0.147   2.319
  252SOL     OW  777   1.434   1.188   1.903
  252SOL    HW1  778   1.466   1.112   1.960
  252SOL    HW2  779   1.342   1.215   1.933
  253SOL     OW  780   0.297   0.035   2.033
  253SOL    HW1  781   0.346   0.119   2.012
  253SOL    HW2  782   0.359  -0.030   2.078
  254SOL     OW  783   0.935   0.236   2.342
  254SOL    HW1  784   0.887   0.277   2.264
  254SOL    HW2  785   1.034   0.234   2.323
  255SOL     OW  786   1.227   1.570   2.655
  255SOL    HW1  787   1.248   1.644   2.590
  255SOL    HW2  788   1.295   1.570   2.728
  256SOL     OW  789   0.459   1.152   2.603
  256SOL    HW1  790   0.388   1.125   2.668
  256SOL    HW2  791   0.433   1.124   2.510
  257SOL     OW  792   1.271   1.797   2.453
  257SOL    HW1  793   1.315   1.861   2.389
  257SOL    HW2  794   1.221   1.849   2.523
  258SOL     OW  795   1.032   0.549   1.878
  258SOL    HW1  796   0.991   0.631   1.839
  258SOL    HW2  797   1.096   0.575   1.951
  259SOL     OW  798   0.866   0.454   2.504
  259SOL    HW1  799   0.834   0.526   2.442
  259SOL    HW2  800   0.890   0.373   2.451
  260SOL     OW  801   1.017   0.039   2.615
  260SOL    HW1  802   0.945   0.044   2.546
  260SOL    HW2  803   0.993  -0.030   2.684
  261SOL     OW  804   1.429   1.173   2.729
  261SOL    HW1  805   1.374   1.089   2.722
  261SOL    HW2  806   1.455   1.202   2.637
  262SOL     OW  807   1.466   0.590   2.854
  262SOL    HW1  808   1.436   0.495   2.861
  262SOL    HW2  809   1.539   0.606   2.920
  263SOL     OW  810   1.857   0.833   2.239
  263SOL    HW1  811   1.899   0.769   2.303
  263SOL    HW2  812   1.819   0.782   2.161
  264SOL     OW  813   0.488   1.385   2.036
  264SOL    HW1  814   0.401   1.370   2.083
  264SOL    HW2  815   0.471   1.411   1.941
  265SOL     OW  816   1.664   1.280   2.519
  265SOL    HW1  817   1.763   1.288   2.533
  265SOL    HW2  818   1.619   1.364   2.550
  266SOL     OW  819   1.390   0.575   1.940
  266SOL    HW1  820   1.336   0.554   2.021
  266SOL    HW2  821   1.481   0.534   1.949
  267SOL     OW  822   0.527   0.256   2.190
  267SOL    HW1  823   0.554   0.197   2.115
  267SOL    HW2  824   0.527   0.351   2.159
  268SOL     OW  825   1.638   1.099   2.941
  268SOL    HW1  826   1.643   1.180   3.000
  268SOL    HW2  827   1.552   1.101   2.890
  269SOL     OW  828   0.705   1.050   2.230
  269SOL    HW1  829   0.691   1.057   2.329
  269SOL    HW2  830   0.789   0.999   2.212
  270SOL     OW  831   0.367   1.100   2.363
  270SOL    HW1  832   0.360   1.183   2.307
  270SOL    HW2  833   0.371   1.020   2.303
  271SOL     OW  834   0.566   0.537   2.727
  271SOL    HW1  835   0.578   0.603   2.653
  271SOL    HW2  836   0.612   0.571   2.810
  272SOL     OW  837   1.252   1.348   2.250
  272SOL    HW1  838   1.302   1.425   2.290
  272SOL    HW2  839   1.157   1.350   2.282
  273SOL     OW  840   1.582   0.639   2.334
  273SOL    HW1  841   1.551   0.700   2.407
  273SOL    HW2  842   1.632   0.691   2.265
  274SOL     OW  843   0.573   0.870   2.891
  274SOL    HW1  844   0.617   0.959   2.882
  274SOL    HW2  845   0.510   0.870   2.968
  275SOL     OW  846   1.209   0.525   2.137
  275SOL    HW1  847   1.222   0.441   2.191
  275SOL    HW2  848   1.180   0.599   2.197
  276SOL     OW  849   0.732   0.634   2.926
  276SOL    HW1  850   0.791   0.608   2.850
  276SOL    HW2  851   0.704   0.730   2.915
  277SOL     OW  852   0.307   0.063   2.480
  277SOL    HW1  853   0.296   0.157   2.513
  277SOL    HW2  854   0.302   0.000   2.557
  278SOL     OW  855   1.622   0.367   2.236
  278SOL    HW1  856   1.624   0.291   2.300
  278SOL    HW2  857   1.574   0.444   2.276
  279SOL     OW  858   1.540   0.274   1.987
  279SOL    HW1  859   1.479   0.199   2.010
  279SOL    HW2  860   1.562   0.326   2.070
  280SOL     OW  861   1.303   0.838   1.904
  280SOL    HW1  862   1.337   0.745   1.919
  280SOL    HW2  863   1.321   0.865   1.809
  281SOL     OW  864   1.068   1.333   2.711
  281SOL    HW1  865   1.075   1.249   2.656
  281SOL    HW2  866   1.130   1.402   2.675
  282SOL     OW  867   0.319   0.810   2.811
  282SOL    HW1  868   0.412   0.846   2.816
  282SOL    HW2  869   0.313   0.725   2.863
  283SOL     OW  870   0.339   0.509   2.868
  283SOL    HW1  871   0.287   0.426   2.851
  283SOL    HW2  872   0.416   0.514   2.804
  284SOL     OW  873   0.008   1.326   2.062
  284SOL    HW1  874  -0.085   1.347   2.031
  284SOL    HW2  875   0.018   1.227   2.075
  285SOL     OW  876   0.088   1.801   2.789
  285SOL    HW1  877   0.046   1.715   2.762
  285SOL    HW2  878   0.182   1.804   2.755
  286SOL     OW  879   0.504   1.568   2.772
  286SOL    HW1  880   0.570   1.642   2.781
  286SOL    HW2  881   0.548   1.489   2.730
  287SOL     OW  882   1.002   0.796   3.100
  287SOL    HW1  883   1.043   0.764   3.186
  287SOL    HW2  884   0.906   0.769   3.097
  288SOL     OW  885   0.815   0.572   2.187
  288SOL    HW1  886   0.822   0.483   2.141
  288SOL    HW2  887   0.721   0.606   2.179
  289SOL     OW  888   0.671   0.464   3.131
  289SOL    HW1  889   0.637   0.375   3.101
  289SOL    HW2  890   0.697   0.518   3.051
  290SOL     OW  891   0.473   0.500   2.053
  290SOL    HW1  892   0.534   0.580   2.057
  290SOL    HW2  893   0.378   0.531   2.060
  291SOL     OW  894   1.302   0.855   2.171
  291SOL    HW1  895   1.216   0.824   2.213
  291SOL    HW2  896   1.298   0.841   2.072
  292SOL     OW  897   1.759   1.747   3.016
  292SOL    HW1  898   1.820   1.777   2.943
  292SOL    HW2  899   1.721   1.658   2.994
  293SOL     OW  900   0.083   1.258   2.884
  293SOL    HW1  901   0.078   1.257   2.984
  293SOL    HW2  902   0.000   1.217   2.846
  294SOL     OW  903   1.726   0.135   2.385
  294SOL    HW1  904   1.799   0.118   2.318
  294SOL    HW2  905   1.695   0.048   2.423
  295SOL     OW  906   1.388   1.573   2.339
  295SOL    HW1  907   1.455   1.585   2.265
  295SOL    HW2  908   1.348   1.662   2.362
  296SOL     OW  909   1.280   0.927   2.534
  296SOL    HW1  910   1.340   0.846   2.536
  296SOL    HW2  911   1.320   0.996   2.474
  297SOL     OW  912   0.672   1.616   2.016
  297SOL    HW1  913   0.681   1.626   1.917
  297SOL    HW2  914   0.632   1.527   2.037
  298SOL     OW  915   1.841   0.175   2.825
  298SOL    HW1  916   1.880   0.090   2.789
  298SOL    HW2  917   1.743   0.177   2.806
  299SOL     OW  918   0.263   0.326   2.582
  299SOL    HW1  919   0.184   0.377   2.548
  299SOL    HW2  920   0.254   0.311   2.680
  300SOL     OW  921   1.194   1.612   1.893
  300SOL    HW1  922   1.200   1.519   1.930
  300SOL    HW2  923   1.135   1.612   1.813
  301SOL     OW  924   0.916   0.910   2.153
  301SOL    HW1  925   0.979   0.948   2.085
  301SOL    HW2  926   0.956   0.827   2.192
  302SOL     OW  927   1.504   1.607   1.906
  302SOL    HW1  928   1.412   1.644   1.913
  302SOL    HW2  929   1.542   1.627   1.816
  303SOL     OW  930   1.039   1.098   2.558
  303SOL    HW1  931   0.969   1.051   2.612
  303SOL    HW2  932   1.098   1.030   2.515
  304SOL     OW  933   1.014   0.236   2.833
  304SOL    HW1  934   1.006   0.200   2.740
  304SOL    HW2  935   1.012   0.160   2.898
  305SOL     OW  936   0.590   1.487   2.353
  305SOL    HW1  937   0.632   1.429   2.283
  305SOL    HW2  938   0.546   1.566   2.309
  306SOL     OW  939   0.255   1.348   2.152
  306SOL    HW1  940   0.159   1.349   2.125
  306SOL    HW2  941   0.267   1.401   2.236
  307SOL     OW  942   0.075   0.345   1.895
  307SOL    HW1  943  -0.017   0.317   1.866
  307SOL    HW2  944   0.106   0.422   1.839
  308SOL     OW  945   0.072   0.166   2.180
  308SOL    HW1  946   0.055   0.249   2.126
  308SOL    HW2  947   0.162   0.129   2.158
  309SOL     OW  948   1.183   1.335   1.981
  309SOL    HW1  949   1.084   1.324   1.983
  309SOL    HW2  950   1.217   1.350   2.074
  310SOL     OW  951   1.674   0.883   3.116
  310SOL    HW1  952   1.647   0.794   3.079
  310SOL    HW2  953   1.675   0.951   3.043
  311SOL     OW  954   1.225   0.325   2.311
  311SOL    HW1  955   1.290   0.251   2.300
  311SOL    HW2  956   1.245   0.375   2.395
  312SOL     OW  957   0.594   0.745   2.514
  312SOL    HW1  958   0.644   0.830   2.495
  312SOL    HW2  959   0.506   0.747   2.466
  313SOL     OW  960   0.859   1.374   1.878
  313SOL    HW1  961   0.813   1.389   1.966
  313SOL    HW2  962   0.903   1.459   1.848
  314SOL     OW  963   0.661   1.790   2.815
  314SOL    HW1  964   0.615   1.878   2.802
  314SOL    HW2  965   0.760   1.802   2.808
  315SOL     OW  966   0.859   0.956   2.723
  315SOL    HW1  967   0.913   0.887   2.771
  315SOL    HW2  968   0.827   1.025   2.789
  316SOL     OW  969   1.083   0.984   1.949
  316SOL    HW1  970   1.060   1.037   1.867
  316SOL    HW2  971   1.164   0.928   1.930
  317SOL     OW  972   1.861   1.569   2.713
  317SOL    HW1  973   1.790   1.557   2.643
  317SOL    HW2  974   1.862   1.490   2.773
  318SOL     OW  975   0.079   1.240   2.515
  318SOL    HW1  976   0.078   1.193   2.603
  318SOL    HW2  977   0.161   1.212   2.464
  319SOL     OW  978   1.824   0.192   3.089
  319SOL    HW1  979   1.820   0.102   3.133
  319SOL    HW2  980   1.827   0.181   2.990
  320SOL     OW  981   0.428   0.424   2.382
  320SOL    HW1  982   0.458   0.352   2.320
  320SOL    HW2  983   0.389   0.384   2.465
  321SOL     OW  984   0.812   1.586   2.549
  321SOL    HW1  985   0.844   1.596   2.455
  321SOL    HW2  986   0.733   1.524   2.551
  322SOL     OW  987   0.770   1.330   2.163
  322SOL    HW1  988   0.724   1.243   2.180
  322SOL    HW2  989   0.861   1.327   2.204
  323SOL     OW  990   1.352   0.052   2.030
  323SOL    HW1  991   1.387   0.011   1.946
  323SOL    HW2  992   1.262   0.014   2.050
  324SOL     OW  993   1.300   0.453   2.553
  324SOL    HW1  994   1.241   0.533   2.557
  324SOL    HW2  995   1.315   0.418   2.646
  325SOL     OW  996   1.593   0.221   2.744
  325SOL    HW1  997   1.509   0.220   2.798
  325SOL    HW2  998   1.595   0.304   2.688
  326SOL     OW  999   0.039   1.077   2.162
  326SOL    HW1 1000   0.138   1.066   2.153
  326SOL    HW2 1001  -0.001   0.991   2.194
  327SOL     OW 1002   0.875   1.646   2.199
  327SOL    HW1 1003   0.798   1.611   2.145
  327SOL    HW2 1004   0.843   1.717   2.261
  328SOL     OW 1005   0.230   2.490   0.113
  328SOL    HW1 1006   0.137   2.488   0.150
  328SOL    HW2 1007   0.231   2.451   0.021
  329SOL     OW 1008   0.225   2.137   0.996
  329SOL    HW1 1009   0.260   2.120   1.088
  329SOL    HW2 1010   0.137   2.092   0.984
  330SOL     OW 1011   0.019   2.230   0.647
  330SOL    HW1 1012  -0.063   2.273   0.686
  330SOL    HW2 1013  -0.009   2.157   0.584
  331SOL     OW 1014   1.135   2.565   0.717
  331SOL    HW1 1015   1.192   2.643   0.692
  331SOL    HW2 1016   1.075   2.591   0.793
  332SOL     OW 1017   1.755   2.469   0.231
  332SOL    HW1 1018   1.743   2.456   0.132
  332SOL    HW2 1019   1.725   2.388   0.280
  333SOL     OW 1020   0.768   3.006   1.023
  333SOL    HW1 1021   0.690   3.023   1.083
  333SOL    HW2 1022   0.802   3.093   0.987
  334SOL     OW 1023   0.850   2.660   1.823
  334SOL    HW1 1024   0.846   2.736   1.888
  334SOL    HW2 1025   0.872   2.696   1.732
  335SOL     OW 1026   0.685   2.874   0.665
  335SOL    HW1 1027   0.754   2.858   0.735
  335SOL    HW2 1028   0.612   2.931   0.703
  336SOL     OW 1029   0.438   2.254   1.499
  336SOL    HW1 1030   0.520   2.198   1.508
  336SOL    HW2 1031   0.357   2.196   1.503
  337SOL     OW 1032   1.603   2.309   0.737
  337SOL    HW1 1033   1.529   2.355   0.687
  337SOL    HW2 1034   1.654   2.377   0.790
  338SOL     OW 1035   0.240   2.953   0.886
  338SOL    HW1 1036   0.254   2.869   0.938
  338SOL    HW2 1037   0.185   3.017   0.941
  339SOL     OW 1038   0.606   2.826   0.123
  339SOL    HW1 1039   0.613   2.910   0.069
  339SOL    HW2 1040   0.652   2.839   0.211
  340SOL     OW 1041   1.594   1.976   1.480
  340SOL    HW1 1042   1.576   2.043   1.408
  340SOL    HW2 1043   1.591   2.022   1.569
  341SOL     OW 1044   0.122   2.505   0.563
  341SOL    HW1 1045   0.077   2.417   0.580
  341SOL    HW2 1046   0.121   2.559   0.647
  342SOL     OW 1047   1.689   2.784   0.612
  342SOL    HW1 1048   1.784   2.755   0.620
  342SOL    HW2 1049   1.681   2.849   0.537
  343SOL     OW 1050   0.113   2.599   1.597
  343SOL    HW1 1051   0.201   2.586   1.642
  343SOL    HW2 1052   0.100   2.696   1.575
  344SOL     OW 1053   0.809   1.866   0.502
  344SOL    HW1 1054   0.849   1.957   0.493
  344SOL    HW2 1055   0.709   1.874   0.508
  345SOL     OW 1056   0.197   2.838   1.264
  345SOL    HW1 1057   0.286   2.793   1.250
  345SOL    HW2 1058   0.124   2.773   1.245
  346SOL     OW 1059   1.525   2.861   0.190
  346SOL    HW1 1060   1.462   2.785   0.203
  346SOL    HW2 1061   1.573   2.879   0.276
  347SOL     OW 1062   0.317   2.113   1.801
  347SOL    HW1 1063   0.388   2.184   1.807
  347SOL    HW2 1064   0.229   2.152   1.829
  348SOL     OW 1065   0.598   2.591   0.270
  348SOL    HW1 1066   0.622   2.660   0.202
  348SOL    HW2 1067   0.520   2.624   0.324
  349SOL     OW 1068   1.281   2.207   0.944
  349SOL    HW1 1069   1.195   2.157   0.931
  349SOL    HW2 1070   1.343   2.153   1.000
  350SOL     OW 1071   0.807   2.467   1.465
  350SOL    HW1 1072   0.760   2.464   1.554
  350SOL    HW2 1073   0.756   2.412   1.399
  351SOL     OW 1074   1.394   2.331   1.674
  351SOL    HW1 1075   1.374   2.374   1.762
  351SOL    HW2 1076   1.472   2.269   1.683
  352SOL     OW 1077   0.973   2.752   1.572
  352SOL    HW1 1078   1.019   2.668   1.543
  352SOL    HW2 1079   0.917   2.786   1.497
  353SOL     OW 1080   0.991   2.272   1.242
  353SOL    HW1 1081   0.914   2.306   1.296
  353SOL    HW2 1082   0.957   2.221   1.163
  354SOL     OW 1083   1.041   2.563   0.429
  354SOL    HW1 1084   1.067   2.559   0.525
  354SOL    HW2 1085   0.956   2.512   0.415
  355SOL     OW 1086   0.076   2.673   0.789
  355SOL    HW1 1087   0.175   2.661   0.798
  355SOL    HW2 1088   0.052   2.768   0.810
  356SOL     OW 1089   0.865   2.210   0.195
  356SOL    HW1 1090   0.924   2.273   0.146
  356SOL    HW2 1091   0.884   2.116   0.166
  357SOL     OW 1092   1.719   2.447   1.831
  357SOL    HW1 1093   1.693   2.536   1.795
  357SOL    HW2 1094   1.717   2.379   1.758
  358SOL     OW 1095   0.550   2.058   0.885
  358SOL    HW1 1096   0.545   2.053   0.985
  358SOL    HW2 1097   0.552   2.154   0.856
  359SOL     OW 1098   1.458   2.597   0.728
  359SOL    HW1 1099   1.453   2.532   0.803
  359SOL    HW2 1100   1.538   2.656   0.741
  360SOL     OW 1101   0.202   2.147   1.498
  360SOL    HW1 1102   0.122   2.207   1.485
  360SOL    HW2 1103   0.192   2.098   1.584
  361SOL     OW 1104   1.400   1.969   0.426
  361SOL    HW1 1105   1.376   1.932   0.336
  361SOL    HW2 1106   1.499   1.985   0.430
  362SOL     OW 1107   0.382   2.562   0.480
  362SOL    HW1 1108   0.427   2.472   0.477
  362SOL    HW2 1109   0.288   2.551   0.513
  363SOL     OW 1110   1.547   2.084   1.729
  363SOL    HW1 1111   1.542   2.121   1.821
  363SOL    HW2 1112   1.475   2.015   1.717
  364SOL     OW 1113   0.614   1.984   0.117
  364SOL    HW1 1114   0.712   1.962   0.124
  364SOL    HW2 1115   0.583   1.967   0.024
  365SOL     OW 1116   0.781   2.126   1.749
  365SOL    HW1 1117   0.848   2.065   1.792
  365SOL    HW2 1118   0.708   2.145   1.814
  366SOL     OW 1119   1.351   2.452   1.433
  366SOL    HW1 1120   1.379   2.409   1.518
  366SOL    HW2 1121   1.376   2.548   1.434
  367SOL     OW 1122   0.922   2.365   0.899
  367SOL    HW1 1123   0.897   2.356   0.803
  367SOL    HW2 1124   0.970   2.283   0.930
  368SOL     OW 1125   0.539   1.926   0.512
  368SOL    HW1 1126   0.458   1.927   0.570
  368SOL    HW2 1127   0.542   2.009   0.457
  369SOL     OW 1128   0.935   2.098   0.480
  369SOL    HW1 1129   0.887   2.139   0.402
  369SOL    HW2 1130   1.034   2.096   0.461
  370SOL     OW 1131   1.076   2.545   1.464
  370SOL    HW1 1132   0.996   2.484   1.467
  370SOL    HW2 1133   1.157   2.492   1.440
  371SOL     OW 1134   1.032   2.411   0.016
  371SOL    HW1 1135   0.991   2.493  -0.023
  371SOL    HW2 1136   1.096   2.437   0.089
  372SOL     OW 1137   0.078   2.418   1.386
  372SOL    HW1 1138   0.170   2.417   1.345
  372SOL    HW2 1139   0.072   2.492   1.453
  373SOL     OW 1140   0.561   2.084   1.147
  373SOL    HW1 1141   0.599   2.000   1.184
  373SOL    HW2 1142   0.473   2.103   1.191
  374SOL     OW 1143   0.866   2.316   0.642
  374SOL    HW1 1144   0.834   2.388   0.580
  374SOL    HW2 1145   0.890   2.235   0.589
  375SOL     OW 1146   1.017   1.901   0.753
  375SOL    HW1 1147   0.945   1.906   0.684
  375SOL    HW2 1148   0.993   1.832   0.822
  376SOL     OW 1149   1.429   3.035   0.867
  376SOL    HW1 1150   1.374   2.951   0.860
  376SOL    HW2 1151   1.455   3.064   0.775
  377SOL     OW 1152   1.466   2.452   0.992
  377SOL    HW1 1153   1.436   2.357   0.999
  377SOL    HW2 1154   1.539   2.468   1.058
  378SOL     OW 1155   1.857   2.695   0.377
  378SOL    HW1 1156   1.899   2.631   0.441
  378SOL    HW2 1157   1.819   2.644   0.299
  379SOL     OW 1158   1.390   2.437   0.078
  379SOL    HW1 1159   1.336   2.416   0.159
  379SOL    HW2 1160   1.481   2.396   0.087
  380SOL     OW 1161   0.527   2.118   0.328
  380SOL    HW1 1162   0.554   2.059   0.253
  380SOL    HW2 1163   0.527   2.213   0.297
  381SOL     OW 1164   1.638   2.961   1.079
  381SOL    HW1 1165   1.643   3.042   1.138
  381SOL    HW2 1166   1.552   2.963   1.028
  382SOL     OW 1167   0.915   1.951   1.402
  382SOL    HW1 1168   0.940   1.931   1.307
  382SOL    HW2 1169   0.987   2.007   1.444
  383SOL     OW 1170   0.410   2.675   1.251
  383SOL    HW1 1171   0.496   2.687   1.301
  383SOL    HW2 1172   0.368   2.588   1.278
  384SOL     OW 1173   1.274   2.248   1.262
  384SOL    HW1 1174   1.295   2.322   1.326
  384SOL    HW2 1175   1.185   2.265   1.219
  385SOL     OW 1176   0.566   2.399   0.865
  385SOL    HW1 1177   0.578   2.465   0.791
  385SOL    HW2 1178   0.612   2.433   0.948
  386SOL     OW 1179   1.582   2.501   0.472
  386SOL    HW1 1180   1.551   2.562   0.545
  386SOL    HW2 1181   1.632   2.553   0.403
  387SOL     OW 1182   0.402   2.613   1.598
  387SOL    HW1 1183   0.470   2.668   1.551
  387SOL    HW2 1184   0.442   2.525   1.625
  388SOL     OW 1185   1.587   2.641   1.670
  388SOL    HW1 1186   1.495   2.679   1.665
  388SOL    HW2 1187   1.647   2.688   1.605
  389SOL     OW 1188   1.013   1.967   1.770
  389SOL    HW1 1189   1.019   2.052   1.718
  389SOL    HW2 1190   1.045   1.891   1.713
  390SOL     OW 1191   0.504   1.912   1.740
  390SOL    HW1 1192   0.462   1.855   1.670
  390SOL    HW2 1193   0.438   1.981   1.772
  391SOL     OW 1194   0.573   2.732   1.029
  391SOL    HW1 1195   0.617   2.821   1.020
  391SOL    HW2 1196   0.510   2.732   1.106
  392SOL     OW 1197   1.360   2.724   1.045
  392SOL    HW1 1198   1.285   2.724   0.979
  392SOL    HW2 1199   1.397   2.632   1.054
  393SOL     OW 1200   1.209   2.387   0.275
  393SOL    HW1 1201   1.222   2.303   0.329
  393SOL    HW2 1202   1.180   2.461   0.335
  394SOL     OW 1203   0.307   2.075   1.231
  394SOL    HW1 1204   0.284   2.112   1.321
  394SOL    HW2 1205   0.277   1.980   1.225
  395SOL     OW 1206   0.037   3.172   1.282
  395SOL    HW1 1207   0.090   3.123   1.350
  395SOL    HW2 1208   0.059   3.270   1.287
  396SOL     OW 1209   0.732   2.496   1.064
  396SOL    HW1 1210   0.791   2.470   0.988
  396SOL    HW2 1211   0.704   2.592   1.053
  397SOL     OW 1212   1.728   2.797   1.854
  397SOL    HW1 1213   1.682   2.790   1.765
  397SOL    HW2 1214   1.666   2.841   1.920
  398SOL     OW 1215   0.307   1.925   0.618
  398SOL    HW1 1216   0.296   2.019   0.651
  398SOL    HW2 1217   0.302   1.862   0.695
  399SOL     OW 1218   1.622   2.229   0.374
  399SOL    HW1 1219   1.624   2.153   0.438
  399SOL    HW2 1220   1.574   2.306   0.414
  400SOL     OW 1221   1.023   2.628   0.966
  400SOL    HW1 1222   1.038   2.649   1.062
  400SOL    HW2 1223   0.993   2.533   0.957
  401SOL     OW 1224   0.350   2.760   1.804
  401SOL    HW1 1225   0.426   2.804   1.852
  401SOL    HW2 1226   0.385   2.713   1.722
  402SOL     OW 1227   1.540   2.136   0.125
  402SOL    HW1 1228   1.479   2.061   0.148
  402SOL    HW2 1229   1.562   2.188   0.208
  403SOL     OW 1230   1.303   2.700   0.042
  403SOL    HW1 1231   1.337   2.607   0.057
  403SOL    HW2 1232   1.321   2.727  -0.053
  404SOL     OW 1233   0.319   2.672   0.949
  404SOL    HW1 1234   0.412   2.708   0.954
  404SOL    HW2 1235   0.313   2.587   1.001
  405SOL     OW 1236   0.339   2.371   1.006
  405SOL    HW1 1237   0.287   2.288   0.989
  405SOL    HW2 1238   0.416   2.376   0.942
  406SOL     OW 1239   1.138   2.242   1.678
  406SOL    HW1 1240   1.093   2.305   1.742
  406SOL    HW2 1241   1.231   2.273   1.661
  407SOL     OW 1242   1.160   2.069   1.477
  407SOL    HW1 1243   1.160   2.133   1.554
  407SOL    HW2 1244   1.188   2.117   1.394
  408SOL     OW 1245   1.002   2.658   1.238
  408SOL    HW1 1246   1.043   2.626   1.324
  408SOL    HW2 1247   0.906   2.631   1.235
  409SOL     OW 1248   0.040   2.406   1.114
  409SOL    HW1 1249   0.125   2.373   1.073
  409SOL    HW2 1250   0.053   2.421   1.212
  410SOL     OW 1251   0.189   2.382   1.722
  410SOL    HW1 1252   0.248   2.342   1.652
  410SOL    HW2 1253   0.131   2.453   1.681
  411SOL     OW 1254   1.369   2.812   1.660
  411SOL    HW1 1255   1.408   2.901   1.680
  411SOL    HW2 1256   1.379   2.792   1.563
  412SOL     OW 1257   0.815   2.434   0.325
  412SOL    HW1 1258   0.822   2.345   0.279
  412SOL    HW2 1259   0.721   2.468   0.317
  413SOL     OW 1260   1.657   2.466   1.206
  413SOL    HW1 1261   1.619   2.397   1.268
  413SOL    HW2 1262   1.739   2.430   1.162
  414SOL     OW 1263   0.671   2.326   1.269
  414SOL    HW1 1264   0.637   2.237   1.239
  414SOL    HW2 1265   0.697   2.380   1.189
  415SOL     OW 1266   0.473   2.362   0.191
  415SOL    HW1 1267   0.534   2.442   0.195
  415SOL    HW2 1268   0.378   2.393   0.198
  416SOL     OW 1269   0.159   2.999   1.466
  416SOL    HW1 1270   0.181   2.938   1.542
  416SOL    HW2 1271   0.169   2.950   1.380
  417SOL     OW 1272   1.347   2.921   1.234
  417SOL    HW1 1273   1.371   2.858   1.160
  417SOL    HW2 1274   1.257   2.961   1.216
  418SOL     OW 1275   1.302   2.717   0.309
  418SOL    HW1 1276   1.216   2.686   0.351
  418SOL    HW2 1277   1.298   2.703   0.210
  419SOL     OW 1278   0.903   1.948   0.133
  419SOL    HW1 1279   0.954   1.949   0.047
  419SOL    HW2 1280   0.959   1.906   0.204
  420SOL     OW 1281   1.726   1.997   0.523
  420SOL    HW1 1282   1.799   1.980   0.456
  420SOL    HW2 1283   1.695   1.910   0.561
  421SOL     OW 1284   1.280   2.789   0.672
  421SOL    HW1 1285   1.340   2.708   0.674
  421SOL    HW2 1286   1.320   2.858   0.612
  422SOL     OW 1287   1.841   2.037   0.963
  422SOL    HW1 1288   1.880   1.952   0.927
  422SOL    HW2 1289   1.743   2.039   0.944
  423SOL     OW 1290   0.263   2.188   0.720
  423SOL    HW1 1291   0.184   2.239   0.686
  423SOL    HW2 1292   0.254   2.173   0.818
  424SOL     OW 1293   0.916   2.772   0.291
  424SOL    HW1 1294   0.979   2.810   0.223
  424SOL    HW2 1295   0.956   2.689   0.330
  425SOL     OW 1296   1.014   2.098   0.971
  425SOL    HW1 1297   1.006   2.062   0.878
  425SOL    HW2 1298   1.012   2.022   1.036
  426SOL     OW 1299   1.709   2.247   1.381
  426SOL    HW1 1300   1.782   2.316   1.385
  426SOL    HW2 1301   1.737   2.172   1.322
  427SOL     OW 1302   0.105   2.875   1.726
  427SOL    HW1 1303   0.028   2.842   1.780
  427SOL    HW2 1304   0.190   2.845   1.768
  428SOL     OW 1305   0.672   2.065   1.489
  428SOL    HW1 1306   0.762   2.049   1.449
  428SOL    HW2 1307   0.680   2.070   1.588
  429SOL     OW 1308   0.075   2.207   0.033
  429SOL    HW1 1309  -0.017   2.179   0.004
  429SOL    HW2 1310   0.106   2.284  -0.023
  430SOL     OW 1311   1.440   2.718   1.398
  430SOL    HW1 1312   1.383   2.770   1.335
  430SOL    HW2 1313   1.536   2.730   1.374
  431SOL     OW 1314   0.072   2.028   0.318
  431SOL    HW1 1315   0.055   2.111   0.264
  431SOL    HW2 1316   0.162   1.991   0.296
  432SOL     OW 1317   1.183   3.197   0.119
  432SOL    HW1 1318   1.084   3.186   0.121
  432SOL    HW2 1319   1.217   3.212   0.212
  433SOL     OW 1320   0.613   2.704   1.431
  433SOL    HW1 1321   0.669   2.785   1.414
  433SOL    HW2 1322   0.672   2.624   1.434
  434SOL     OW 1323   0.716   2.427   1.708
  434SOL    HW1 1324   0.735   2.492   1.782
  434SOL    HW2 1325   0.776   2.347   1.717
  435SOL     OW 1326   1.674   2.745   1.254
  435SOL    HW1 1327   1.647   2.656   1.217
  435SOL    HW2 1328   1.675   2.813   1.181
  436SOL     OW 1329   1.225   2.187   0.449
  436SOL    HW1 1330   1.290   2.113   0.438
  436SOL    HW2 1331   1.245   2.237   0.533
  437SOL     OW 1332   0.594   2.607   0.652
  437SOL    HW1 1333   0.644   2.692   0.633
  437SOL    HW2 1334   0.506   2.609   0.604
  438SOL     OW 1335   1.777   2.204   1.642
  438SOL    HW1 1336   1.760   2.235   1.548
  438SOL    HW2 1337   1.693   2.167   1.680
  439SOL     OW 1338   1.730   2.796   1.517
  439SOL    HW1 1339   1.768   2.887   1.532
  439SOL    HW2 1340   1.722   2.779   1.418
  440SOL     OW 1341   0.859   2.818   0.861
  440SOL    HW1 1342   0.913   2.749   0.909
  440SOL    HW2 1343   0.827   2.887   0.927
  441SOL     OW 1344   1.083   2.846   0.087
  441SOL    HW1 1345   1.060   2.899   0.005
  441SOL    HW2 1346   1.164   2.790   0.068
  442SOL     OW 1347   0.079   3.102   0.653
  442SOL    HW1 1348   0.078   3.055   0.741
  442SOL    HW2 1349   0.161   3.074   0.602
  443SOL     OW 1350   1.824   2.054   1.227
  443SOL    HW1 1351   1.820   1.964   1.271
  443SOL    HW2 1352   1.827   2.043   1.128
  444SOL     OW 1353   0.428   2.286   0.520
  444SOL    HW1 1354   0.458   2.214   0.458
  444SOL    HW2 1355   0.389   2.246   0.603
  445SOL     OW 1356   0.317   2.409   1.280
  445SOL    HW1 1357   0.355   2.350   1.352
  445SOL    HW2 1358   0.357   2.383   1.192
  446SOL     OW 1359   1.424   2.076   1.112
  446SOL    HW1 1360   1.476   2.011   1.167
  446SOL    HW2 1361   1.375   2.139   1.173
  447SOL     OW 1362   1.001   1.896   1.154
  447SOL    HW1 1363   0.938   1.824   1.123
  447SOL    HW2 1364   1.094   1.860   1.154
  448SOL     OW 1365   1.352   1.914   0.168
  448SOL    HW1 1366   1.387   1.873   0.084
  448SOL    HW2 1367   1.262   1.876   0.188
  449SOL     OW 1368   1.300   2.315   0.691
  449SOL    HW1 1369   1.241   2.395   0.695
  449SOL    HW2 1370   1.315   2.280   0.784
  450SOL     OW 1371   1.593   2.083   0.882
  450SOL    HW1 1372   1.509   2.082   0.936
  450SOL    HW2 1373   1.595   2.166   0.826
  451SOL     OW 1374   0.039   2.939   0.300
  451SOL    HW1 1375   0.138   2.928   0.291
  451SOL    HW2 1376  -0.001   2.853   0.332
  452SOL     OW 1377   0.230   2.490   1.975
  452SOL    HW1 1378   0.137   2.488   2.012
  452SOL    HW2 1379   0.231   2.451   1.883
  453SOL     OW 1380   0.225   2.137   2.858
  453SOL    HW1 1381   0.260   2.120   2.950
  453SOL    HW2 1382   0.137   2.092   2.846
  454SOL     OW 1383   0.019   2.230   2.509
  454SOL    HW1 1384  -0.063   2.273   2.548
  454SOL    HW2 1385  -0.009   2.157   2.446
  455SOL     OW 1386   1.135   2.565   2.579
  455SOL    HW1 1387   1.192   2.643   2.554
  455SOL    HW2 1388   1.075   2.591   2.655
  456SOL     OW 1389   1.755   2.469   2.093
  456SOL    HW1 1390   1.743   2.456   1.994
  456SOL    HW2 1391   1.725   2.388   2.142
  457SOL     OW 1392   0.685   2.874   2.527
  457SOL    HW1 1393   0.754   2.858   2.597
  457SOL    HW2 1394   0.612   2.931   2.565
  458SOL     OW 1395   1.603   2.309   2.599
  458SOL    HW1 1396   1.529   2.355   2.549
  458SOL    HW2 1397   1.654   2.377   2.652
  459SOL     OW 1398   0.240   2.953   2.748
  459SOL    HW1 1399   0.254   2.869   2.800
  459SOL    HW2 1400   0.185   3.017   2.803
  460SOL     OW 1401   0.606   2.826   1.985
  460SOL    HW1 1402   0.613   2.910   1.931
  460SOL    HW2 1403   0.652   2.839   2.073
  461SOL     OW 1404   0.122   2.505   2.425
  461SOL    HW1 1405   0.077   2.417   2.442
  461SOL    HW2 1406   0.121   2.559   2.509
  462SOL     OW 1407   1.689   2.784   2.474
  462SOL    HW1 1408   1.784   2.755   2.482
  462SOL    HW2 1409   1.681   2.849   2.399
  463SOL     OW 1410   0.809   1.866   2.364
  463SOL    HW1 1411   0.849   1.957   2.355
  463SOL    HW2 1412   0.709   1.874   2.370
  464SOL     OW 1413   0.197   2.838   3.126
  464SOL    HW1 1414   0.286   2.793   3.112
  464SOL    HW2 1415   0.124   2.773   3.107
  465SOL     OW 1416   1.525   2.861   2.052
  465SOL    HW1 1417   1.462   2.785   2.065
  465SOL    HW2 1418   1.573   2.879   2.138
  466SOL     OW 1419   0.598   2.591   2.132
  466SOL    HW1 1420   0.622   2.660   2.064
  466SOL    HW2 1421   0.520   2.624   2.186
  467SOL     OW 1422   1.281   2.207   2.806
  467SOL    HW1 1423   1.195   2.157   2.793
  467SOL    HW2 1424   1.343   2.153   2.862
  468SOL     OW 1425   1.041   2.563   2.291
  468SOL    HW1 1426   1.067   2.559   2.387
  468SOL    HW2 1427   0.956   2.512   2.277
  469SOL     OW 1428   0.076   2.673   2.651
  469SOL    HW1 1429   0.175   2.661   2.660
  469SOL    HW2 1430   0.052   2.768   2.672
  470SOL     OW 1431   0.865   2.210   2.057
  470SOL    HW1 1432   0.924   2.273   2.008
  470SOL    HW2 1433   0.884   2.116   2.028
  471SOL     OW 1434   0.550   2.058   2.747
  471SOL    HW1 1435   0.545   2.053   2.847
  471SOL    HW2 1436   0.552   2.154   2.718
  472SOL     OW 1437   1.458   2.597   2.590
  472SOL    HW1 1438   1.453   2.532   2.665
  472SOL    HW2 1439   1.538   2.656   2.603
  473SOL     OW 1440   1.400   1.969   2.288
  473SOL    HW1 1441   1.376   1.932   2.198
  473SOL    HW2 1442   1.499   1.985   2.292
  474SOL     OW 1443   0.382   2.562   2.342
  474SOL    HW1 1444   0.427   2.472   2.339
  474SOL    HW2 1445   0.288   2.551   2.375
  475SOL     OW 1446   0.614   1.984   1.979
  475SOL    HW1 1447   0.712   1.962   1.986
  475SOL    HW2 1448   0.583   1.967   1.886
  476SOL     OW 1449   0.922   2.365   2.761
  476SOL    HW1 1450   0.897   2.356   2.665
  476SOL    HW2 1451   0.970   2.283   2.792
  477SOL     OW 1452   0.539   1.926   2.374
  477SOL    HW1 1453   0.458   1.927   2.432
  477SOL    HW2 1454   0.542   2.009   2.319
  478SOL     OW 1455   0.297   1.897   2.033
  478SOL    HW1 1456   0.346   1.981   2.012
  478SOL    HW2 1457   0.359   1.832   2.078
  479SOL     OW 1458   0.935   2.098   2.342
  479SOL    HW1 1459   0.887   2.139   2.264
  479SOL    HW2 1460   1.034   2.096   2.323
  480SOL     OW 1461   1.032   2.411   1.878
  480SOL    HW1 1462   0.991   2.493   1.839
  480SOL    HW2 1463   1.096   2.437   1.951
  481SOL     OW 1464   0.866   2.316   2.504
  481SOL    HW1 1465   0.834   2.388   2.442
  481SOL    HW2 1466   0.890   2.235   2.451
  482SOL     OW 1467   1.017   1.901   2.615
  482SOL    HW1 1468   0.945   1.906   2.546
  482SOL    HW2 1469   0.993   1.832   2.684
  483SOL     OW 1470   1.429   3.035   2.729
  483SOL    HW1 1471   1.374   2.951   2.722
  483SOL    HW2 1472   1.455   3.064   2.637
  484SOL     OW 1473   1.466   2.452   2.854
  484SOL    HW1 1474   1.436   2.357   2.861
  484SOL    HW2 1475   1.539   2.468   2.920
  485SOL     OW 1476   1.857   2.695   2.239
  485SOL    HW1 1477   1.899   2.631   2.303
  485SOL    HW2 1478   1.819   2.644   2.161
  486SOL     OW 1479   1.390   2.437   1.940
  486SOL    HW1 1480   1.336   2.416   2.021
  486SOL    HW2 1481   1.481   2.396   1.949
  487SOL     OW 1482   0.527   2.118   2.190
  487SOL    HW1 1483   0.554   2.059   2.115
  487SOL    HW2 1484   0.527   2.213   2.159
  488SOL     OW 1485   1.638   2.961   2.941
  488SOL    HW1 1486   1.643   3.042   3.000
  488SOL    HW2 1487   1.552   2.963   2.890
  489SOL     OW 1488   0.566   2.399   2.727
  489SOL    HW1 1489   0.578   2.465   2.653
  489SOL    HW2 1490   0.612   2.433   2.810
  490SOL     OW 1491   1.582   2.501   2.334
  490SOL    HW1 1492   1.551   2.562   2.407
  490SOL    HW2 1493   1.632   2.553   2.265
  491SOL     OW 1494   0.573   2.732   2.891
  491SOL    HW1 1495   0.617   2.821   2.882
  491SOL    HW2 1496   0.510   2.732   2.968
  492SOL     OW 1497   1.209   2.387   2.137
  492SOL    HW1 1498   1.222   2.303   2.191
  492SOL    HW2 1499   1.180   2.461   2.197
  493SOL     OW 1500   0.307   2.075   3.093
  493SOL    HW1 1501   0.284   2.112   3.183
  493SOL    HW2 1502   0.277   1.980   3.087
  494SOL     OW 1503   0.732   2.496   2.926
  494SOL    HW1 1504   0.791   2.470   2.850
  494SOL    HW2 1505   0.704   2.592   2.915
  495SOL     OW 1506   0.307   1.925   2.480
  495SOL    HW1 1507   0.296   2.019   2.513
  495SOL    HW2 1508   0.302   1.862   2.557
  496SOL     OW 1509   1.622   2.229   2.236
  496SOL    HW1 1510   1.624   2.153   2.300
  496SOL    HW2 1511   1.574   2.306   2.276
  497SOL     OW 1512   1.540   2.136   1.987
  497SOL    HW1 1513   1.479   2.061   2.010
  497SOL    HW2 1514   1.562   2.188   2.070
  498SOL     OW 1515   1.303   2.700   1.904
  498SOL    HW1 1516   1.337   2.607   1.919
  498SOL    HW2 1517   1.321   2.727   1.809
  499SOL     OW 1518   0.319   2.672   2.811
  499SOL    HW1 1519   0.412   2.708   2.816
  499SOL    HW2 1520   0.313   2.587   2.863
  500SOL     OW 1521   0.339   2.371   2.868
  500SOL    HW1 1522   0.287   2.288   2.851
  500SOL    HW2 1523   0.416   2.376   2.804
  501SOL     OW 1524   1.002   2.658   3.100
  501SOL    HW1 1525   1.043   2.626   3.186
  501SOL    HW2 1526   0.906   2.631   3.097
  502SOL     OW 1527   0.815   2.434   2.187
  502SOL    HW1 1528   0.822   2.345   2.141
  502SOL    HW2 1529   0.721   2.468   2.179
  503SOL     OW 1530   0.671   2.326   3.131
  503SOL    HW1 1531   0.637   2.237   3.101
  503SOL    HW2 1532   0.697   2.380   3.051
  504SOL     OW 1533   0.473   2.362   2.053
  504SOL    HW1 1534   0.534   2.442   2.057
  504SOL    HW2 1535   0.378   2.393   2.060
  505SOL     OW 1536   1.302   2.717   2.171
  505SOL    HW1 1537   1.216   2.686   2.213
  505SOL    HW2 1538   1.298   2.703   2.072
  506SOL     OW 1539   1.726   1.997   2.385
  506SOL    HW1 1540   1.799   1.980   2.318
  506SOL    HW2 1541   1.695   1.910   2.423
  507SOL     OW 1542   1.280   2.789   2.534
  507SOL    HW1 1543   1.340   2.708   2.536
  507SOL    HW2 1544   1.320   2.858   2.474
  508SOL     OW 1545   1.841   2.037   2.825
  508SOL    HW1 1546   1.880   1.952   2.789
  508SOL    HW2 1547   1.743   2.039   2.806
  509SOL     OW 1548   0.263   2.188   2.582
  509SOL    HW1 1549   0.184   2.239   2.548
  509SOL    HW2 1550   0.254   2.173   2.680
  510SOL     OW 1551   0.916   2.772   2.153
  510SOL    HW1 1552   0.979   2.810   2.085
  510SOL    HW2 1553   0.956   2.689   2.192
  511SOL     OW 1554   1.014   2.098   2.833
  511SOL    HW1 1555   1.006   2.062   2.740
  511SOL    HW2 1556   1.012   2.022   2.898
  512SOL     OW 1557   0.075   2.207   1.895
  512SOL    HW1 1558  -0.017   2.179   1.866
  512SOL    HW2 1559   0.106   2.284   1.839
  513SOL     OW 1560   0.072   2.028   2.180
  513SOL    HW1 1561   0.055   2.111   2.126
  513SOL    HW2 1562   0.162   1.991   2.158
  514SOL     OW 1563   1.183   3.197   1.981
  514SOL    HW1 1564   1.084   3.186   1.983
  514SOL    HW2 1565   1.217   3.212   2.074
  515SOL     OW 1566   1.674   2.745   3.116
  515SOL    HW1 1567   1.647   2.656   3.079
  515SOL    HW2 1568   1.675   2.813   3.043
  516SOL     OW 1569   1.225   2.187   2.311
  516SOL    HW1 1570   1.290   2.113   2.300
  516SOL    HW2 1571   1.245   2.237   2.395
  517SOL     OW 1572   0.594   2.607   2.514
  517SOL    HW1 1573   0.644   2.692   2.495
  517SOL    HW2 1574   0.506   2.609   2.466
  518SOL     OW 1575   0.859   2.818   2.723
  518SOL    HW1 1576   0.913   2.749   2.771
  518SOL    HW2 1577   0.827   2.887   2.789
  519SOL     OW 1578   1.083   2.846   1.949
  519SOL    HW1 1579   1.060   2.899   1.867
  519SOL    HW2 1580   1.164   2.790   1.930
  520SOL     OW 1581   0.079   3.102   2.515
  520SOL    HW1 1582   0.078   3.055   2.603
  520SOL    HW2 1583   0.161   3.074   2.464
  521SOL     OW 1584   1.824   2.054   3.089
  521SOL    HW1 1585   1.820   1.964   3.133
  521SOL    HW2 1586   1.827   2.043   2.990
  522SOL     OW 1587   0.428   2.286   2.382
  522SOL    HW1 1588   0.458   2.214   2.320
  522SOL    HW2 1589   0.389   2.246   2.465
  523SOL     OW 1590   1.352   1.914   2.030
  523SOL    HW1 1591   1.387   1.873   1.946
  523SOL    HW2 1592   1.262   1.876   2.050
  524SOL     OW 1593   1.300   2.315   2.553
  524SOL    HW1 1594   1.241   2.395   2.557
  524SOL    HW2 1595   1.315   2.280   2.646
  525SOL     OW 1596   1.593   2.083   2.744
  525SOL    HW1 1597   1.509   2.082   2.798
  525SOL    HW2 1598   1.595   2.166   2.688
  526SOL     OW 1599   0.039   2.939   2.162
  526SOL    HW1 1600   0.138   2.928   2.153
  526SOL    HW2 1601  -0.001   2.853   2.194
  527SOL     OW 1602   2.092   0.628   0.113
  527SOL    HW1 1603   1.999   0.626   0.150
  527SOL    HW2 1604   2.093   0.589   0.021
  528SOL     OW 1605   2.087   0.275   0.996
  528SOL    HW1 1606   2.122   0.258   1.088
  528SOL    HW2 1607   1.999   0.230   0.984
  529SOL     OW 1608   1.881   0.368   0.647
  529SOL    HW1 1609   1.799   0.411   0.686
  529SOL    HW2 1610   1.853   0.295   0.584
  530SOL     OW 1611   2.431   1.275   1.165
  530SOL    HW1 1612   2.338   1.268   1.128
  530SOL    HW2 1613   2.442   1.364   1.209
  531SOL     OW 1614   2.630   1.144   1.023
  531SOL    HW1 1615   2.552   1.161   1.083
  531SOL    HW2 1616   2.664   1.231   0.987
  532SOL     OW 1617   2.712   0.798   1.823
  532SOL    HW1 1618   2.708   0.874   1.888
  532SOL    HW2 1619   2.734   0.834   1.732
  533SOL     OW 1620   2.547   1.012   0.665
  533SOL    HW1 1621   2.616   0.996   0.735
  533SOL    HW2 1622   2.474   1.069   0.703
  534SOL     OW 1623   2.548   1.161   1.803
  534SOL    HW1 1624   2.608   1.240   1.817
  534SOL    HW2 1625   2.462   1.192   1.762
  535SOL     OW 1626   2.197   1.435   1.061
  535SOL    HW1 1627   2.119   1.404   1.008
  535SOL    HW2 1628   2.255   1.493   1.004
  536SOL     OW 1629   2.300   0.392   1.499
  536SOL    HW1 1630   2.382   0.336   1.508
  536SOL    HW2 1631   2.219   0.334   1.503
  537SOL     OW 1632   2.093   1.713   0.483
  537SOL    HW1 1633   2.127   1.790   0.537
  537SOL    HW2 1634   2.137   1.713   0.393
  538SOL     OW 1635   2.092   1.434   0.538
  538SOL    HW1 1636   2.066   1.530   0.538
  538SOL    HW2 1637   2.021   1.380   0.583
  539SOL     OW 1638   2.102   1.091   0.886
  539SOL    HW1 1639   2.116   1.007   0.938
  539SOL    HW2 1640   2.047   1.155   0.941
  540SOL     OW 1641   2.482   1.786   1.439
  540SOL    HW1 1642   2.390   1.769   1.474
  540SOL    HW2 1643   2.510   1.878   1.465
  541SOL     OW 1644   2.468   0.964   0.123
  541SOL    HW1 1645   2.475   1.048   0.069
  541SOL    HW2 1646   2.514   0.977   0.211
  542SOL     OW 1647   1.984   0.643   0.563
  542SOL    HW1 1648   1.939   0.555   0.580
  542SOL    HW2 1649   1.983   0.697   0.647
  543SOL     OW 1650   1.889   1.596   0.117
  543SOL    HW1 1651   1.870   1.500   0.138
  543SOL    HW2 1652   1.856   1.654   0.192
  544SOL     OW 1653   1.975   0.737   1.597
  544SOL    HW1 1654   2.063   0.724   1.642
  544SOL    HW2 1655   1.962   0.834   1.575
  545SOL     OW 1656   2.475   1.365   0.726
  545SOL    HW1 1657   2.426   1.278   0.735
  545SOL    HW2 1658   2.452   1.408   0.639
  546SOL     OW 1659   2.671   0.004   0.502
  546SOL    HW1 1660   2.711   0.095   0.493
  546SOL    HW2 1661   2.571   0.012   0.508
  547SOL     OW 1662   2.059   0.976   1.264
  547SOL    HW1 1663   2.148   0.931   1.250
  547SOL    HW2 1664   1.986   0.911   1.245
  548SOL     OW 1665   2.179   0.251   1.801
  548SOL    HW1 1666   2.250   0.322   1.807
  548SOL    HW2 1667   2.091   0.290   1.829
  549SOL     OW 1668   2.460   0.729   0.270
  549SOL    HW1 1669   2.484   0.798   0.202
  549SOL    HW2 1670   2.382   0.762   0.324
  550SOL     OW 1671   2.669   0.605   1.465
  550SOL    HW1 1672   2.622   0.602   1.554
  550SOL    HW2 1673   2.618   0.550   1.399
  551SOL     OW 1674   2.835   0.890   1.572
  551SOL    HW1 1675   2.881   0.806   1.543
  551SOL    HW2 1676   2.779   0.924   1.497
  552SOL     OW 1677   2.853   0.410   1.242
  552SOL    HW1 1678   2.776   0.444   1.296
  552SOL    HW2 1679   2.819   0.359   1.163
  553SOL     OW 1680   2.903   0.701   0.429
  553SOL    HW1 1681   2.929   0.697   0.525
  553SOL    HW2 1682   2.818   0.650   0.415
  554SOL     OW 1683   1.938   0.811   0.789
  554SOL    HW1 1684   2.037   0.799   0.798
  554SOL    HW2 1685   1.914   0.906   0.810
  555SOL     OW 1686   1.992   1.821   1.571
  555SOL    HW1 1687   1.982   1.806   1.670
  555SOL    HW2 1688   1.906   1.857   1.535
  556SOL     OW 1689   2.727   0.348   0.195
  556SOL    HW1 1690   2.786   0.411   0.146
  556SOL    HW2 1691   2.746   0.254   0.166
  557SOL     OW 1692   2.412   0.196   0.885
  557SOL    HW1 1693   2.407   0.191   0.985
  557SOL    HW2 1694   2.414   0.292   0.856
  558SOL     OW 1695   2.870   1.456   0.477
  558SOL    HW1 1696   2.824   1.528   0.425
  558SOL    HW2 1697   2.866   1.476   0.575
  559SOL     OW 1698   2.213   1.801   0.853
  559SOL    HW1 1699   2.263   1.715   0.859
  559SOL    HW2 1700   2.278   1.878   0.850
  560SOL     OW 1701   2.183   0.943   0.242
  560SOL    HW1 1702   2.265   0.982   0.200
  560SOL    HW2 1703   2.156   0.861   0.193
  561SOL     OW 1704   2.323   1.266   1.727
  561SOL    HW1 1705   2.273   1.267   1.641
  561SOL    HW2 1706   2.260   1.248   1.803
  562SOL     OW 1707   2.064   0.285   1.498
  562SOL    HW1 1708   1.984   0.345   1.485
  562SOL    HW2 1709   2.054   0.236   1.584
  563SOL     OW 1710   2.326   1.743   0.323
  563SOL    HW1 1711   2.359   1.782   0.409
  563SOL    HW2 1712   2.402   1.736   0.258
  564SOL     OW 1713   2.111   1.785   1.241
  564SOL    HW1 1714   2.168   1.720   1.291
  564SOL    HW2 1715   2.095   1.752   1.148
  565SOL     OW 1716   2.802   1.698   0.904
  565SOL    HW1 1717   2.882   1.641   0.925
  565SOL    HW2 1718   2.753   1.658   0.827
  566SOL     OW 1719   2.244   0.700   0.480
  566SOL    HW1 1720   2.289   0.610   0.477
  566SOL    HW2 1721   2.150   0.689   0.513
  567SOL     OW 1722   2.476   0.122   0.117
  567SOL    HW1 1723   2.574   0.100   0.124
  567SOL    HW2 1724   2.445   0.105   0.024
  568SOL     OW 1725   2.643   0.264   1.749
  568SOL    HW1 1726   2.710   0.203   1.792
  568SOL    HW2 1727   2.570   0.283   1.814
  569SOL     OW 1728   2.750   1.514   1.195
  569SOL    HW1 1729   2.727   1.489   1.101
  569SOL    HW2 1730   2.811   1.445   1.234
  570SOL     OW 1731   2.665   1.402   0.924
  570SOL    HW1 1732   2.755   1.416   0.882
  570SOL    HW2 1733   2.594   1.404   0.853
  571SOL     OW 1734   2.784   0.503   0.899
  571SOL    HW1 1735   2.759   0.494   0.803
  571SOL    HW2 1736   2.832   0.421   0.930
  572SOL     OW 1737   2.401   0.064   0.512
  572SOL    HW1 1738   2.320   0.065   0.570
  572SOL    HW2 1739   2.404   0.147   0.457
  573SOL     OW 1740   3.296   1.188   0.041
  573SOL    HW1 1741   3.328   1.112   0.098
  573SOL    HW2 1742   3.204   1.215   0.071
  574SOL     OW 1743   2.159   0.035   0.171
  574SOL    HW1 1744   2.208   0.119   0.150
  574SOL    HW2 1745   2.221  -0.030   0.216
  575SOL     OW 1746   2.797   0.236   0.480
  575SOL    HW1 1747   2.749   0.277   0.402
  575SOL    HW2 1748   2.896   0.234   0.461
  576SOL     OW 1749   3.089   1.570   0.793
  576SOL    HW1 1750   3.110   1.644   0.728
  576SOL    HW2 1751   3.157   1.570   0.866
  577SOL     OW 1752   2.321   1.152   0.741
  577SOL    HW1 1753   2.250   1.125   0.806
  577SOL    HW2 1754   2.295   1.124   0.648
  578SOL     OW 1755   2.894   0.549   0.016
  578SOL    HW1 1756   2.853   0.631  -0.023
  578SOL    HW2 1757   2.958   0.575   0.089
  579SOL     OW 1758   1.940   0.556   1.386
  579SOL    HW1 1759   2.032   0.555   1.345
  579SOL    HW2 1760   1.934   0.630   1.453
  580SOL     OW 1761   2.423   0.222   1.147
  580SOL    HW1 1762   2.461   0.138   1.184
  580SOL    HW2 1763   2.335   0.241   1.191
  581SOL     OW 1764   2.728   0.454   0.642
  581SOL    HW1 1765   2.696   0.526   0.580
  581SOL    HW2 1766   2.752   0.373   0.589
  582SOL     OW 1767   2.879   0.039   0.753
  582SOL    HW1 1768   2.807   0.044   0.684
  582SOL    HW2 1769   2.855  -0.030   0.822
  583SOL     OW 1770   2.350   1.385   0.174
  583SOL    HW1 1771   2.263   1.370   0.221
  583SOL    HW2 1772   2.333   1.411   0.079
  584SOL     OW 1773   2.389   0.256   0.328
  584SOL    HW1 1774   2.416   0.197   0.253
  584SOL    HW2 1775   2.389   0.351   0.297
  585SOL     OW 1776   2.777   0.089   1.402
  585SOL    HW1 1777   2.802   0.069   1.307
  585SOL    HW2 1778   2.849   0.145   1.444
  586SOL     OW 1779   2.842   1.116   1.719
  586SOL    HW1 1780   2.743   1.122   1.729
  586SOL    HW2 1781   2.865   1.036   1.663
  587SOL     OW 1782   2.567   1.050   0.368
  587SOL    HW1 1783   2.553   1.057   0.467
  587SOL    HW2 1784   2.651   0.999   0.350
  588SOL     OW 1785   2.272   0.813   1.251
  588SOL    HW1 1786   2.358   0.825   1.301
  588SOL    HW2 1787   2.230   0.726   1.278
  589SOL     OW 1788   1.926   1.564   1.331
  589SOL    HW1 1789   1.880   1.646   1.297
  589SOL    HW2 1790   2.024   1.583   1.340
  590SOL     OW 1791   2.229   1.100   0.501
  590SOL    HW1 1792   2.222   1.183   0.445
  590SOL    HW2 1793   2.233   1.020   0.441
  591SOL     OW 1794   2.428   0.537   0.865
  591SOL    HW1 1795   2.440   0.603   0.791
  591SOL    HW2 1796   2.474   0.571   0.948
  592SOL     OW 1797   2.216   1.510   1.329
  592SOL    HW1 1798   2.195   1.466   1.242
  592SOL    HW2 1799   2.313   1.536   1.332
  593SOL     OW 1800   2.264   0.751   1.598
  593SOL    HW1 1801   2.332   0.806   1.551
  593SOL    HW2 1802   2.304   0.663   1.625
  594SOL     OW 1803   2.875   0.105   1.770
  594SOL    HW1 1804   2.881   0.190   1.718
  594SOL    HW2 1805   2.907   0.029   1.713
  595SOL     OW 1806   2.366   0.050   1.740
  595SOL    HW1 1807   2.324  -0.007   1.670
  595SOL    HW2 1808   2.300   0.119   1.772
  596SOL     OW 1809   2.435   0.870   1.029
  596SOL    HW1 1810   2.479   0.959   1.020
  596SOL    HW2 1811   2.372   0.870   1.106
  597SOL     OW 1812   3.071   0.525   0.275
  597SOL    HW1 1813   3.084   0.441   0.329
  597SOL    HW2 1814   3.042   0.599   0.335
  598SOL     OW 1815   2.169   0.213   1.231
  598SOL    HW1 1816   2.146   0.250   1.321
  598SOL    HW2 1817   2.139   0.118   1.225
  599SOL     OW 1818   1.899   1.310   1.282
  599SOL    HW1 1819   1.952   1.261   1.350
  599SOL    HW2 1820   1.921   1.408   1.287
  600SOL     OW 1821   2.594   0.634   1.064
  600SOL    HW1 1822   2.653   0.608   0.988
  600SOL    HW2 1823   2.566   0.730   1.053
  601SOL     OW 1824   2.169   0.063   0.618
  601SOL    HW1 1825   2.158   0.157   0.651
  601SOL    HW2 1826   2.164   0.000   0.695
  602SOL     OW 1827   2.885   0.766   0.966
  602SOL    HW1 1828   2.900   0.787   1.062
  602SOL    HW2 1829   2.855   0.671   0.957
  603SOL     OW 1830   2.842   1.573   1.700
  603SOL    HW1 1831   2.822   1.617   1.612
  603SOL    HW2 1832   2.881   1.482   1.684
  604SOL     OW 1833   2.212   0.898   1.804
  604SOL    HW1 1834   2.288   0.942   1.852
  604SOL    HW2 1835   2.247   0.851   1.722
  605SOL     OW 1836   2.181   0.810   0.949
  605SOL    HW1 1837   2.274   0.846   0.954
  605SOL    HW2 1838   2.175   0.725   1.001
  606SOL     OW 1839   2.201   0.509   1.006
  606SOL    HW1 1840   2.149   0.426   0.989
  606SOL    HW2 1841   2.278   0.514   0.942
  607SOL     OW 1842   1.870   1.326   0.200
  607SOL    HW1 1843   1.777   1.347   0.169
  607SOL    HW2 1844   1.880   1.227   0.213
  608SOL     OW 1845   1.950   1.801   0.927
  608SOL    HW1 1846   1.908   1.715   0.900
  608SOL    HW2 1847   2.044   1.804   0.893
  609SOL     OW 1848   2.366   1.568   0.910
  609SOL    HW1 1849   2.432   1.642   0.919
  609SOL    HW2 1850   2.410   1.489   0.868
  610SOL     OW 1851   2.864   0.796   1.238
  610SOL    HW1 1852   2.905   0.764   1.324
  610SOL    HW2 1853   2.768   0.769   1.235
  611SOL     OW 1854   1.902   0.544   1.114
  611SOL    HW1 1855   1.987   0.511   1.073
  611SOL    HW2 1856   1.915   0.559   1.212
  612SOL     OW 1857   2.051   0.520   1.722
  612SOL    HW1 1858   2.110   0.480   1.652
  612SOL    HW2 1859   1.993   0.591   1.681
  613SOL     OW 1860   2.677   0.572   0.325
  613SOL    HW1 1861   2.684   0.483   0.279
  613SOL    HW2 1862   2.583   0.606   0.317
  614SOL     OW 1863   2.114   1.564   1.744
  614SOL    HW1 1864   2.084   1.621   1.820
  614SOL    HW2 1865   2.107   1.467   1.770
  615SOL     OW 1866   2.533   0.464   1.269
  615SOL    HW1 1867   2.499   0.375   1.239
  615SOL    HW2 1868   2.559   0.518   1.189
  616SOL     OW 1869   2.792   1.678   1.465
  616SOL    HW1 1870   2.768   1.660   1.370
  616SOL    HW2 1871   2.822   1.772   1.475
  617SOL     OW 1872   2.335   0.500   0.191
  617SOL    HW1 1873   2.396   0.580   0.195
  617SOL    HW2 1874   2.240   0.531   0.198
  618SOL     OW 1875   2.021   1.137   1.466
  618SOL    HW1 1876   2.043   1.076   1.542
  618SOL    HW2 1877   2.031   1.088   1.380
  619SOL     OW 1878   1.945   1.258   1.022
  619SOL    HW1 1879   1.940   1.257   1.122
  619SOL    HW2 1880   1.862   1.217   0.984
  620SOL     OW 1881   2.550   1.662   1.716
  620SOL    HW1 1882   2.494   1.743   1.725
  620SOL    HW2 1883   2.602   1.666   1.630
  621SOL     OW 1884   2.765   0.086   0.133
  621SOL    HW1 1885   2.816   0.087   0.047
  621SOL    HW2 1886   2.821   0.044   0.204
  622SOL     OW 1887   1.992   1.794   1.851
  622SOL    HW1 1888   1.951   1.720   1.904
  622SOL    HW2 1889   2.056   1.845   1.909
  623SOL     OW 1890   3.142   0.927   0.672
  623SOL    HW1 1891   3.202   0.846   0.674
  623SOL    HW2 1892   3.182   0.996   0.612
  624SOL     OW 1893   2.692   1.273   1.422
  624SOL    HW1 1894   2.687   1.306   1.517
  624SOL    HW2 1895   2.606   1.292   1.376
  625SOL     OW 1896   2.534   1.616   0.154
  625SOL    HW1 1897   2.543   1.626   0.055
  625SOL    HW2 1898   2.494   1.527   0.175
  626SOL     OW 1899   2.125   0.326   0.720
  626SOL    HW1 1900   2.046   0.377   0.686
  626SOL    HW2 1901   2.116   0.311   0.818
  627SOL     OW 1902   2.684   1.002   1.372
  627SOL    HW1 1903   2.724   1.001   1.280
  627SOL    HW2 1904   2.694   1.094   1.412
  628SOL     OW 1905   2.778   0.910   0.291
  628SOL    HW1 1906   2.841   0.948   0.223
  628SOL    HW2 1907   2.818   0.827   0.330
  629SOL     OW 1908   2.234   1.288   1.490
  629SOL    HW1 1909   2.221   1.381   1.456
  629SOL    HW2 1910   2.150   1.236   1.477
  630SOL     OW 1911   2.901   1.098   0.696
  630SOL    HW1 1912   2.831   1.051   0.750
  630SOL    HW2 1913   2.960   1.030   0.653
  631SOL     OW 1914   2.876   0.236   0.971
  631SOL    HW1 1915   2.868   0.200   0.878
  631SOL    HW2 1916   2.874   0.160   1.036
  632SOL     OW 1917   2.452   1.487   0.491
  632SOL    HW1 1918   2.494   1.429   0.421
  632SOL    HW2 1919   2.408   1.566   0.447
  633SOL     OW 1920   2.117   1.348   0.290
  633SOL    HW1 1921   2.021   1.349   0.263
  633SOL    HW2 1922   2.129   1.401   0.374
  634SOL     OW 1923   1.967   1.013   1.726
  634SOL    HW1 1924   1.890   0.980   1.780
  634SOL    HW2 1925   2.052   0.983   1.768
  635SOL     OW 1926   2.534   0.203   1.489
  635SOL    HW1 1927   2.624   0.187   1.449
  635SOL    HW2 1928   2.542   0.208   1.588
  636SOL     OW 1929   1.937   0.345   0.033
  636SOL    HW1 1930   1.845   0.317   0.004
  636SOL    HW2 1931   1.968   0.422  -0.023
  637SOL     OW 1932   1.934   0.166   0.318
  637SOL    HW1 1933   1.917   0.249   0.264
  637SOL    HW2 1934   2.024   0.129   0.296
  638SOL     OW 1935   2.475   0.842   1.431
  638SOL    HW1 1936   2.531   0.923   1.414
  638SOL    HW2 1937   2.534   0.762   1.434
  639SOL     OW 1938   2.578   0.565   1.708
  639SOL    HW1 1939   2.597   0.630   1.782
  639SOL    HW2 1940   2.638   0.485   1.717
  640SOL     OW 1941   2.252   1.741   1.560
  640SOL    HW1 1942   2.161   1.782   1.558
  640SOL    HW2 1943   2.245   1.647   1.592
  641SOL     OW 1944   3.087   0.325   0.449
  641SOL    HW1 1945   3.152   0.251   0.438
  641SOL    HW2 1946   3.107   0.375   0.533
  642SOL     OW 1947   2.456   0.745   0.652
  642SOL    HW1 1948   2.506   0.830   0.633
  642SOL    HW2 1949   2.368   0.747   0.604
  643SOL     OW 1950   2.721   1.374   0.016
  643SOL    HW1 1951   2.675   1.389   0.104
  643SOL    HW2 1952   2.765   1.459  -0.014
  644SOL     OW 1953   2.523   1.790   0.953
  644SOL    HW1 1954   2.477   1.878   0.940
  644SOL    HW2 1955   2.622   1.802   0.946
  645SOL     OW 1956   2.721   0.956   0.861
  645SOL    HW1 1957   2.775   0.887   0.909
  645SOL    HW2 1958   2.689   1.025   0.927
  646SOL     OW 1959   2.945   0.984   0.087
  646SOL    HW1 1960   2.922   1.037   0.005
  646SOL    HW2 1961   3.026   0.928   0.068
  647SOL     OW 1962   2.083   1.314   1.844
  647SOL    HW1 1963   2.018   1.241   1.823
  647SOL    HW2 1964   2.087   1.328   1.942
  648SOL     OW 1965   1.941   1.240   0.653
  648SOL    HW1 1966   1.940   1.193   0.741
  648SOL    HW2 1967   2.023   1.212   0.602
  649SOL     OW 1968   2.534   1.391   1.624
  649SOL    HW1 1969   2.456   1.341   1.662
  649SOL    HW2 1970   2.531   1.486   1.655
  650SOL     OW 1971   2.290   0.424   0.520
  650SOL    HW1 1972   2.320   0.352   0.458
  650SOL    HW2 1973   2.251   0.384   0.603
  651SOL     OW 1974   2.179   0.547   1.280
  651SOL    HW1 1975   2.217   0.488   1.352
  651SOL    HW2 1976   2.219   0.521   1.192
  652SOL     OW 1977   2.674   1.586   0.687
  652SOL    HW1 1978   2.706   1.596   0.593
  652SOL    HW2 1979   2.595   1.524   0.689
  653SOL     OW 1980   2.863   0.034   1.154
  653SOL    HW1 1981   2.800  -0.038   1.123
  653SOL    HW2 1982   2.956  -0.002   1.154
  654SOL     OW 1983   2.632   1.330   0.301
  654SOL    HW1 1984   2.586   1.243   0.318
  654SOL    HW2 1985   2.723   1.327   0.342
  655SOL     OW 1986   2.480   1.567   1.284
  655SOL    HW1 1987   2.475   1.649   1.341
  655SOL    HW2 1988   2.569   1.564   1.239
  656SOL     OW 1989   1.901   1.077   0.300
  656SOL    HW1 1990   2.000   1.066   0.291
  656SOL    HW2 1991   1.861   0.991   0.332
  657SOL     OW 1992   2.737   1.646   0.337
  657SOL    HW1 1993   2.660   1.611   0.283
  657SOL    HW2 1994   2.705   1.717   0.399
  658SOL     OW 1995   2.092   0.628   1.975
  658SOL    HW1 1996   1.999   0.626   2.012
  658SOL    HW2 1997   2.093   0.589   1.883
  659SOL     OW 1998   2.087   0.275   2.858
  659SOL    HW1 1999   2.122   0.258   2.950
  659SOL    HW2 2000   1.999   0.230   2.846
  660SOL     OW 2001   1.881   0.368   2.509
  660SOL    HW1 2002   1.799   0.411   2.548
  660SOL    HW2 2003   1.853   0.295   2.446
  661SOL     OW 2004   2.630   1.144   2.885
  661SOL    HW1 2005   2.552   1.161   2.945
  661SOL    HW2 2006   2.664   1.231   2.849
  662SOL     OW 2007   2.547   1.012   2.527
  662SOL    HW1 2008   2.616   0.996   2.597
  662SOL    HW2 2009   2.474   1.069   2.565
  663SOL     OW 2010   2.197   1.435   2.923
  663SOL    HW1 2011   2.119   1.404   2.870
  663SOL    HW2 2012   2.255   1.493   2.866
  664SOL     OW 2013   2.093   1.713   2.345
  664SOL    HW1 2014   2.127   1.790   2.399
  664SOL    HW2 2015   2.137   1.713   2.255
  665SOL     OW 2016   2.092   1.434   2.400
  665SOL    HW1 2017   2.066   1.530   2.400
  665SOL    HW2 2018   2.021   1.380   2.445
  666SOL     OW 2019   2.102   1.091   2.748
  666SOL    HW1 2020   2.116   1.007   2.800
  666SOL    HW2 2021   2.047   1.155   2.803
  667SOL     OW 2022   2.468   0.964   1.985
  667SOL    HW1 2023   2.475   1.048   1.931
  667SOL    HW2 2024   2.514   0.977   2.073
  668SOL     OW 2025   1.984   0.643   2.425
  668SOL    HW1 2026   1.939   0.555   2.442
  668SOL    HW2 2027   1.983   0.697   2.509
  669SOL     OW 2028   1.889   1.596   1.979
  669SOL    HW1 2029   1.870   1.500   2.000
  669SOL    HW2 2030   1.856   1.654   2.054
  670SOL     OW 2031   2.475   1.365   2.588
  670SOL    HW1 2032   2.426   1.278   2.597
  670SOL    HW2 2033   2.452   1.408   2.501
  671SOL     OW 2034   2.671   0.004   2.364
  671SOL    HW1 2035   2.711   0.095   2.355
  671SOL    HW2 2036   2.571   0.012   2.370
  672SOL     OW 2037   2.460   0.729   2.132
  672SOL    HW1 2038   2.484   0.798   2.064
  672SOL    HW2 2039   2.382   0.762   2.186
  673SOL     OW 2040   2.903   0.701   2.291
  673SOL    HW1 2041   2.929   0.697   2.387
  673SOL    HW2 2042   2.818   0.650   2.277
  674SOL     OW 2043   1.938   0.811   2.651
  674SOL    HW1 2044   2.037   0.799   2.660
  674SOL    HW2 2045   1.914   0.906   2.672
  675SOL     OW 2046   2.727   0.348   2.057
  675SOL    HW1 2047   2.786   0.411   2.008
  675SOL    HW2 2048   2.746   0.254   2.028
  676SOL     OW 2049   2.412   0.196   2.747
  676SOL    HW1 2050   2.407   0.191   2.847
  676SOL    HW2 2051   2.414   0.292   2.718
  677SOL     OW 2052   2.870   1.456   2.339
  677SOL    HW1 2053   2.824   1.528   2.287
  677SOL    HW2 2054   2.866   1.476   2.437
  678SOL     OW 2055   2.213   1.801   2.715
  678SOL    HW1 2056   2.263   1.715   2.721
  678SOL    HW2 2057   2.278   1.878   2.712
  679SOL     OW 2058   2.183   0.943   2.104
  679SOL    HW1 2059   2.265   0.982   2.062
  679SOL    HW2 2060   2.156   0.861   2.055
  680SOL     OW 2061   2.326   1.743   2.185
  680SOL    HW1 2062   2.359   1.782   2.271
  680SOL    HW2 2063   2.402   1.736   2.120
  681SOL     OW 2064   2.111   1.785   3.103
  681SOL    HW1 2065   2.168   1.720   3.153
  681SOL    HW2 2066   2.095   1.752   3.010
  682SOL     OW 2067   2.802   1.698   2.766
  682SOL    HW1 2068   2.882   1.641   2.787
  682SOL    HW2 2069   2.753   1.658   2.689
  683SOL     OW 2070   2.244   0.700   2.342
  683SOL    HW1 2071   2.289   0.610   2.339
  683SOL    HW2 2072   2.150   0.689   2.375
  684SOL     OW 2073   2.476   0.122   1.979
  684SOL    HW1 2074   2.574   0.100   1.986
  684SOL    HW2 2075   2.445   0.105   1.886
  685SOL     OW 2076   2.665   1.402   2.786
  685SOL    HW1 2077   2.755   1.416   2.744
  685SOL    HW2 2078   2.594   1.404   2.715
  686SOL     OW 2079   2.784   0.503   2.761
  686SOL    HW1 2080   2.759   0.494   2.665
  686SOL    HW2 2081   2.832   0.421   2.792
  687SOL     OW 2082   2.401   0.064   2.374
  687SOL    HW1 2083   2.320   0.065   2.432
  687SOL    HW2 2084   2.404   0.147   2.319
  688SOL     OW 2085   2.159   0.035   2.033
  688SOL    HW1 2086   2.208   0.119   2.012
  688SOL    HW2 2087   2.221  -0.030   2.078
  689SOL     OW 2088   2.797   0.236   2.342
  689SOL    HW1 2089   2.749   0.277   2.264
  689SOL    HW2 2090   2.896   0.234   2.323
  690SOL     OW 2091   3.089   1.570   2.655
  690SOL    HW1 2092   3.110   1.644   2.590
  690SOL    HW2 2093   3.157   1.570   2.728
  691SOL     OW 2094   2.321   1.152   2.603
  691SOL    HW1 2095   2.250   1.125   2.668
  691SOL    HW2 2096   2.295   1.124   2.510
  692SOL     OW 2097   2.894   0.549   1.878
  692SOL    HW1 2098   2.853   0.631   1.839
  692SOL    HW2 2099   2.958   0.575   1.951
  693SOL     OW 2100   2.728   0.454   2.504
  693SOL    HW1 2101   2.696   0.526   2.442
  693SOL    HW2 2102   2.752   0.373   2.451
  694SOL     OW 2103   2.879   0.039   2.615
  694SOL    HW1 2104   2.807   0.044   2.546
  694SOL    HW2 2105   2.855  -0.030   2.684
  695SOL     OW 2106   2.350   1.385   2.036
  695SOL    HW1 2107   2.263   1.370   2.083
  695SOL    HW2 2108   2.333   1.411   1.941
  696SOL     OW 2109   2.389   0.256   2.190
  696SOL    HW1 2110   2.416   0.197   2.115
  696SOL    HW2 2111   2.389   0.351   2.159
  697SOL     OW 2112   2.567   1.050   2.230
  697SOL    HW1 2113   2.553   1.057   2.329
  697SOL    HW2 2114   2.651   0.999   2.212
  698SOL     OW 2115   2.229   1.100   2.363
  698SOL    HW1 2116   2.222   1.183   2.307
  698SOL    HW2 2117   2.233   1.020   2.303
  699SOL     OW 2118   2.428   0.537   2.727
  699SOL    HW1 2119   2.440   0.603   2.653
  699SOL    HW2 2120   2.474   0.571   2.810
  700SOL     OW 2121   2.435   0.870   2.891
  700SOL    HW1 2122   2.479   0.959   2.882
  700SOL    HW2 2123   2.372   0.870   2.968
  701SOL     OW 2124   3.071   0.525   2.137
  701SOL    HW1 2125   3.084   0.441   2.191
  701SOL    HW2 2126   3.042   0.599   2.197
  702SOL     OW 2127   2.594   0.634   2.926
  702SOL    HW1 2128   2.653   0.608   2.850
  702SOL    HW2 2129   2.566   0.730   2.915
  703SOL     OW 2130   2.169   0.063   2.480
  703SOL    HW1 2131   2.158   0.157   2.513
  703SOL    HW2 2132   2.164   0.000   2.557
  704SOL     OW 2133   2.181   0.810   2.811
  704SOL    HW1 2134   2.274   0.846   2.816
  704SOL    HW2 2135   2.175   0.725   2.863
  705SOL     OW 2136   2.201   0.509   2.868
  705SOL    HW1 2137   2.149   0.426   2.851
  705SOL    HW2 2138   2.278   0.514   2.804
  706SOL     OW 2139   1.870   1.326   2.062
  706SOL    HW1 2140   1.777   1.347   2.031
  706SOL    HW2 2141   1.880   1.227   2.075
  707SOL     OW 2142   1.950   1.801   2.789
  707SOL    HW1 2143   1.908   1.715   2.762
  707SOL    HW2 2144   2.044   1.804   2.755
  708SOL     OW 2145   2.366   1.568   2.772
  708SOL    HW1 2146   2.432   1.642   2.781
  708SOL    HW2 2147   2.410   1.489   2.730
  709SOL     OW 2148   2.864   0.796   3.100
  709SOL    HW1 2149   2.905   0.764   3.186
  709SOL    HW2 2150   2.768   0.769   3.097
  710SOL     OW 2151   2.677   0.572   2.187
  710SOL    HW1 2152   2.684   0.483   2.141
  710SOL    HW2 2153   2.583   0.606   2.179
  711SOL     OW 2154   2.533   0.464   3.131
  711SOL    HW1 2155   2.499   0.375   3.101
  711SOL    HW2 2156   2.559   0.518   3.051
  712SOL     OW 2157   2.335   0.500   2.053
  712SOL    HW1 2158   2.396   0.580   2.057
  712SOL    HW2 2159   2.240   0.531   2.060
  713SOL     OW 2160   1.945   1.258   2.884
  713SOL    HW1 2161   1.940   1.257   2.984
  713SOL    HW2 2162   1.862   1.217   2.846
  714SOL     OW 2163   3.142   0.927   2.534
  714SOL    HW1 2164   3.202   0.846   2.536
  714SOL    HW2 2165   3.182   0.996   2.474
  715SOL     OW 2166   2.534   1.616   2.016
  715SOL    HW1 2167   2.543   1.626   1.917
  715SOL    HW2 2168   2.494   1.527   2.037
  716SOL     OW 2169   2.125   0.326   2.582
  716SOL    HW1 2170   2.046   0.377   2.548
  716SOL    HW2 2171   2.116   0.311   2.680
  717SOL     OW 2172   2.778   0.910   2.153
  717SOL    HW1 2173   2.841   0.948   2.085
  717SOL    HW2 2174   2.818   0.827   2.192
  718SOL     OW 2175   2.901   1.098   2.558
  718SOL    HW1 2176   2.831   1.051   2.612
  718SOL    HW2 2177   2.960   1.030   2.515
  719SOL     OW 2178   2.876   0.236   2.833
  719SOL    HW1 2179   2.868   0.200   2.740
  719SOL    HW2 2180   2.874   0.160   2.898
  720SOL     OW 2181   2.452   1.487   2.353
  720SOL    HW1 2182   2.494   1.429   2.283
  720SOL    HW2 2183   2.408   1.566   2.309
  721SOL     OW 2184   2.117   1.348   2.152
  721SOL    HW1 2185   2.021   1.349   2.125
  721SOL    HW2 2186   2.129   1.401   2.236
  722SOL     OW 2187   1.937   0.345   1.895
  722SOL    HW1 2188   1.845   0.317   1.866
  722SOL    HW2 2189   1.968   0.422   1.839
  723SOL     OW 2190   1.934   0.166   2.180
  723SOL    HW1 2191   1.917   0.249   2.126
  723SOL    HW2 2192   2.024   0.129   2.158
  724SOL     OW 2193   3.087   0.325   2.311
  724SOL    HW1 2194   3.152   0.251   2.300
  724SOL    HW2 2195   3.107   0.375   2.395
  725SOL     OW 2196   2.456   0.745   2.514
  725SOL    HW1 2197   2.506   0.830   2.495
  725SOL    HW2 2198   2.368   0.747   2.466
  726SOL     OW 2199   2.721   1.374   1.878
  726SOL    HW1 2200   2.675   1.389   1.966
  726SOL    HW2 2201   2.765   1.459   1.848
  727SOL     OW 2202   2.523   1.790   2.815
  727SOL    HW1 2203   2.477   1.878   2.802
  727SOL    HW2 2204   2.622   1.802   2.808
  728SOL     OW 2205   2.721   0.956   2.723
  728SOL    HW1 2206   2.775   0.887   2.771
  728SOL    HW2 2207   2.689   1.025   2.789
  729SOL     OW 2208   1.941   1.240   2.515
  729SOL    HW1 2209   1.940   1.193   2.603
  729SOL    HW2 2210   2.023   1.212   2.464
  730SOL     OW 2211   2.290   0.424   2.382
  730SOL    HW1 2212   2.320   0.352   2.320
  730SOL    HW2 2213   2.251   0.384   2.465
  731SOL     OW 2214   2.674   1.586   2.549
  731SOL    HW1 2215   2.706   1.596   2.455
  731SOL    HW2 2216   2.595   1.524   2.551
  732SOL     OW 2217   2.632   1.330   2.163
  732SOL    HW1 2218   2.586   1.243   2.180
  732SOL    HW2 2219   2.723   1.327   2.204
  733SOL     OW 2220   1.901   1.077   2.162
  733SOL    HW1 2221   2.000   1.066   2.153
  733SOL    HW2 2222   1.861   0.991   2.194
  734SOL     OW 2223   2.737   1.646   2.199
  734SOL    HW1 2224   2.660   1.611   2.145
  734SOL    HW2 2225   2.705   1.717   2.261
  735SOL     OW 2226   2.092   2.490   0.113
  735SOL    HW1 2227   1.999   2.488   0.150
  735SOL    HW2 2228   2.093   2.451   0.021
  736SOL     OW 2229   2.087   2.137   0.996
  736SOL    HW1 2230   2.122   2.120   1.088
  736SOL    HW2 2231   1.999   2.092   0.984
  737SOL     OW 2232   1.881   2.230   0.647
  737SOL    HW1 2233   1.799   2.273   0.686
  737SOL    HW2 2234   1.853   2.157   0.584
  738SOL     OW 2235   2.630   3.006   1.023
  738SOL    HW1 2236   2.552   3.023   1.083
  738SOL    HW2 2237   2.664   3.093   0.987
  739SOL     OW 2238   2.712   2.660   1.823
  739SOL    HW1 2239   2.708   2.736   1.888
  739SOL    HW2 2240   2.734   2.696   1.732
  740SOL     OW 2241   2.547   2.874   0.665
  740SOL    HW1 2242   2.616   2.858   0.735
  740SOL    HW2 2243   2.474   2.931   0.703
  741SOL     OW 2244   2.300   2.254   1.499
  741SOL    HW1 2245   2.382   2.198   1.508
  741SOL    HW2 2246   2.219   2.196   1.503
  742SOL     OW 2247   2.102   2.953   0.886
  742SOL    HW1 2248   2.116   2.869   0.938
  742SOL    HW2 2249   2.047   3.017   0.941
  743SOL     OW 2250   2.468   2.826   0.123
  743SOL    HW1 2251   2.475   2.910   0.069
  743SOL    HW2 2252   2.514   2.839   0.211
  744SOL     OW 2253   1.984   2.505   0.563
  744SOL    HW1 2254   1.939   2.417   0.580
  744SOL    HW2 2255   1.983   2.559   0.647
  745SOL     OW 2256   1.975   2.599   1.597
  745SOL    HW1 2257   2.063   2.586   1.642
  745SOL    HW2 2258   1.962   2.696   1.575
  746SOL     OW 2259   2.671   1.866   0.502
  746SOL    HW1 2260   2.711   1.957   0.493
  746SOL    HW2 2261   2.571   1.874   0.508
  747SOL     OW 2262   2.059   2.838   1.264
  747SOL    HW1 2263   2.148   2.793   1.250
  747SOL    HW2 2264   1.986   2.773   1.245
  748SOL     OW 2265   2.179   2.113   1.801
  748SOL    HW1 2266   2.250   2.184   1.807
  748SOL    HW2 2267   2.091   2.152   1.829
  749SOL     OW 2268   2.460   2.591   0.270
  749SOL    HW1 2269   2.484   2.660   0.202
  749SOL    HW2 2270   2.382   2.624   0.324
  750SOL     OW 2271   2.669   2.467   1.465
  750SOL    HW1 2272   2.622   2.464   1.554
  750SOL    HW2 2273   2.618   2.412   1.399
  751SOL     OW 2274   2.835   2.752   1.572
  751SOL    HW1 2275   2.881   2.668   1.543
  751SOL    HW2 2276   2.779   2.786   1.497
  752SOL     OW 2277   2.853   2.272   1.242
  752SOL    HW1 2278   2.776   2.306   1.296
  752SOL    HW2 2279   2.819   2.221   1.163
  753SOL     OW 2280   2.903   2.563   0.429
  753SOL    HW1 2281   2.929   2.559   0.525
  753SOL    HW2 2282   2.818   2.512   0.415
  754SOL     OW 2283   1.938   2.673   0.789
  754SOL    HW1 2284   2.037   2.661   0.798
  754SOL    HW2 2285   1.914   2.768   0.810
  755SOL     OW 2286   2.727   2.210   0.195
  755SOL    HW1 2287   2.786   2.273   0.146
  755SOL    HW2 2288   2.746   2.116   0.166
  756SOL     OW 2289   2.412   2.058   0.885
  756SOL    HW1 2290   2.407   2.053   0.985
  756SOL    HW2 2291   2.414   2.154   0.856
  757SOL     OW 2292   2.064   2.147   1.498
  757SOL    HW1 2293   1.984   2.207   1.485
  757SOL    HW2 2294   2.054   2.098   1.584
  758SOL     OW 2295   2.244   2.562   0.480
  758SOL    HW1 2296   2.289   2.472   0.477
  758SOL    HW2 2297   2.150   2.551   0.513
  759SOL     OW 2298   2.476   1.984   0.117
  759SOL    HW1 2299   2.574   1.962   0.124
  759SOL    HW2 2300   2.445   1.967   0.024
  760SOL     OW 2301   2.643   2.126   1.749
  760SOL    HW1 2302   2.710   2.065   1.792
  760SOL    HW2 2303   2.570   2.145   1.814
  761SOL     OW 2304   2.784   2.365   0.899
  761SOL    HW1 2305   2.759   2.356   0.803
  761SOL    HW2 2306   2.832   2.283   0.930
  762SOL     OW 2307   2.401   1.926   0.512
  762SOL    HW1 2308   2.320   1.927   0.570
  762SOL    HW2 2309   2.404   2.009   0.457
  763SOL     OW 2310   2.797   2.098   0.480
  763SOL    HW1 2311   2.749   2.139   0.402
  763SOL    HW2 2312   2.896   2.096   0.461
  764SOL     OW 2313   2.894   2.411   0.016
  764SOL    HW1 2314   2.853   2.493  -0.023
  764SOL    HW2 2315   2.958   2.437   0.089
  765SOL     OW 2316   1.940   2.418   1.386
  765SOL    HW1 2317   2.032   2.417   1.345
  765SOL    HW2 2318   1.934   2.492   1.453
  766SOL     OW 2319   2.423   2.084   1.147
  766SOL    HW1 2320   2.461   2.000   1.184
  766SOL    HW2 2321   2.335   2.103   1.191
  767SOL     OW 2322   2.728   2.316   0.642
  767SOL    HW1 2323   2.696   2.388   0.580
  767SOL    HW2 2324   2.752   2.235   0.589
  768SOL     OW 2325   2.879   1.901   0.753
  768SOL    HW1 2326   2.807   1.906   0.684
  768SOL    HW2 2327   2.855   1.832   0.822
  769SOL     OW 2328   2.389   2.118   0.328
  769SOL    HW1 2329   2.416   2.059   0.253
  769SOL    HW2 2330   2.389   2.213   0.297
  770SOL     OW 2331   2.777   1.951   1.402
  770SOL    HW1 2332   2.802   1.931   1.307
  770SOL    HW2 2333   2.849   2.007   1.444
  771SOL     OW 2334   2.272   2.675   1.251
  771SOL    HW1 2335   2.358   2.687   1.301
  771SOL    HW2 2336   2.230   2.588   1.278
  772SOL     OW 2337   2.428   2.399   0.865
  772SOL    HW1 2338   2.440   2.465   0.791
  772SOL    HW2 2339   2.474   2.433   0.948
  773SOL     OW 2340   2.264   2.613   1.598
  773SOL    HW1 2341   2.332   2.668   1.551
  773SOL    HW2 2342   2.304   2.525   1.625
  774SOL     OW 2343   2.875   1.967   1.770
  774SOL    HW1 2344   2.881   2.052   1.718
  774SOL    HW2 2345   2.907   1.891   1.713
  775SOL     OW 2346   2.366   1.912   1.740
  775SOL    HW1 2347   2.324   1.855   1.670
  775SOL    HW2 2348   2.300   1.981   1.772
  776SOL     OW 2349   2.435   2.732   1.029
  776SOL    HW1 2350   2.479   2.821   1.020
  776SOL    HW2 2351   2.372   2.732   1.106
  777SOL     OW 2352   3.071   2.387   0.275
  777SOL    HW1 2353   3.084   2.303   0.329
  777SOL    HW2 2354   3.042   2.461   0.335
  778SOL     OW 2355   2.169   2.075   1.231
  778SOL    HW1 2356   2.146   2.112   1.321
  778SOL    HW2 2357   2.139   1.980   1.225
  779SOL     OW 2358   2.594   2.496   1.064
  779SOL    HW1 2359   2.653   2.470   0.988
  779SOL    HW2 2360   2.566   2.592   1.053
  780SOL     OW 2361   2.169   1.925   0.618
  780SOL    HW1 2362   2.158   2.019   0.651
  780SOL    HW2 2363   2.164   1.862   0.695
  781SOL     OW 2364   2.885   2.628   0.966
  781SOL    HW1 2365   2.900   2.649   1.062
  781SOL    HW2 2366   2.855   2.533   0.957
  782SOL     OW 2367   2.212   2.760   1.804
  782SOL    HW1 2368   2.288   2.804   1.852
  782SOL    HW2 2369   2.247   2.713   1.722
  783SOL     OW 2370   2.181   2.672   0.949
  783SOL    HW1 2371   2.274   2.708   0.954
  783SOL    HW2 2372   2.175   2.587   1.001
  784SOL     OW 2373   2.201   2.371   1.006
  784SOL    HW1 2374   2.149   2.288   0.989
  784SOL    HW2 2375   2.278   2.376   0.942
  785SOL     OW 2376   2.864   2.658   1.238
  785SOL    HW1 2377   2.905   2.626   1.324
  785SOL    HW2 2378   2.768   2.631   1.235
  786SOL     OW 2379   1.902   2.406   1.114
  786SOL    HW1 2380   1.987   2.373   1.073
  786SOL    HW2 2381   1.915   2.421   1.212
  787SOL     OW 2382   2.051   2.382   1.722
  787SOL    HW1 2383   2.110   2.342   1.652
  787SOL    HW2 2384   1.993   2.453   1.681
  788SOL     OW 2385   2.677   2.434   0.325
  788SOL    HW1 2386   2.684   2.345   0.279
  788SOL    HW2 2387   2.583   2.468   0.317
  789SOL     OW 2388   2.533   2.326   1.269
  789SOL    HW1 2389   2.499   2.237   1.239
  789SOL    HW2 2390   2.559   2.380   1.189
  790SOL     OW 2391   2.335   2.362   0.191
  790SOL    HW1 2392   2.396   2.442   0.195
  790SOL    HW2 2393   2.240   2.393   0.198
  791SOL     OW 2394   2.021   2.999   1.466
  791SOL    HW1 2395   2.043   2.938   1.542
  791SOL    HW2 2396   2.031   2.950   1.380
  792SOL     OW 2397   2.765   1.948   0.133
  792SOL    HW1 2398   2.816   1.949   0.047
  792SOL    HW2 2399   2.821   1.906   0.204
  793SOL     OW 2400   3.142   2.789   0.672
  793SOL    HW1 2401   3.202   2.708   0.674
  793SOL    HW2 2402   3.182   2.858   0.612
  794SOL     OW 2403   2.125   2.188   0.720
  794SOL    HW1 2404   2.046   2.239   0.686
  794SOL    HW2 2405   2.116   2.173   0.818
  795SOL     OW 2406   2.778   2.772   0.291
  795SOL    HW1 2407   2.841   2.810   0.223
  795SOL    HW2 2408   2.818   2.689   0.330
  796SOL     OW 2409   2.876   2.098   0.971
  796SOL    HW1 2410   2.868   2.062   0.878
  796SOL    HW2 2411   2.874   2.022   1.036
  797SOL     OW 2412   1.967   2.875   1.726
  797SOL    HW1 2413   1.890   2.842   1.780
  797SOL    HW2 2414   2.052   2.845   1.768
  798SOL     OW 2415   2.534   2.065   1.489
  798SOL    HW1 2416   2.624   2.049   1.449
  798SOL    HW2 2417   2.542   2.070   1.588
  799SOL     OW 2418   1.937   2.207   0.033
  799SOL    HW1 2419   1.845   2.179   0.004
  799SOL    HW2 2420   1.968   2.284  -0.023
  800SOL     OW 2421   1.934   2.028   0.318
  800SOL    HW1 2422   1.917   2.111   0.264
  800SOL    HW2 2423   2.024   1.991   0.296
  801SOL     OW 2424   2.475   2.704   1.431
  801SOL    HW1 2425   2.531   2.785   1.414
  801SOL    HW2 2426   2.534   2.624   1.434
  802SOL     OW 2427   2.578   2.427   1.708
  802SOL    HW1 2428   2.597   2.492   1.782
  802SOL    HW2 2429   2.638   2.347   1.717
  803SOL     OW 2430   3.087   2.187   0.449
  803SOL    HW1 2431   3.152   2.113   0.438
  803SOL    HW2 2432   3.107   2.237   0.533
  804SOL     OW 2433   2.456   2.607   0.652
  804SOL    HW1 2434   2.506   2.692   0.633
  804SOL    HW2 2435   2.368   2.609   0.604
  805SOL     OW 2436   2.721   2.818   0.861
  805SOL    HW1 2437   2.775   2.749   0.909
  805SOL    HW2 2438   2.689   2.887   0.927
  806SOL     OW 2439   1.941   3.102   0.653
  806SOL    HW1 2440   1.940   3.055   0.741
  806SOL    HW2 2441   2.023   3.074   0.602
  807SOL     OW 2442   2.290   2.286   0.520
  807SOL    HW1 2443   2.320   2.214   0.458
  807SOL    HW2 2444   2.251   2.246   0.603
  808SOL     OW 2445   2.179   2.409   1.280
  808SOL    HW1 2446   2.217   2.350   1.352
  808SOL    HW2 2447   2.219   2.383   1.192
  809SOL     OW 2448   2.863   1.896   1.154
  809SOL    HW1 2449   2.800   1.824   1.123
  809SOL    HW2 2450   2.956   1.860   1.154
  810SOL     OW 2451   1.901   2.939   0.300
  810SOL    HW1 2452   2.000   2.928   0.291
  810SOL    HW2 2453   1.861   2.853   0.332
  811SOL     OW 2454   2.092   2.490   1.975
  811SOL    HW1 2455   1.999   2.488   2.012
  811SOL    HW2 2456   2.093   2.451   1.883
  812SOL     OW 2457   2.087   2.137   2.858
  812SOL    HW1 2458   2.122   2.120   2.950
  812SOL    HW2 2459   1.999   2.092   2.846
  813SOL     OW 2460   1.881   2.230   2.509
  813SOL    HW1 2461   1.799   2.273   2.548
  813SOL    HW2 2462   1.853   2.157   2.446
  814SOL     OW 2463   2.547   2.874   2.527
  814SOL    HW1 2464   2.616   2.858   2.597
  814SOL    HW2 2465   2.474   2.931   2.565
  815SOL     OW 2466   2.102   2.953   2.748
  815SOL    HW1 2467   2.116   2.869   2.800
  815SOL    HW2 2468   2.047   3.017   2.803
  816SOL     OW 2469   2.468   2.826   1.985
  816SOL    HW1 2470   2.475   2.910   1.931
  816SOL    HW2 2471   2.514   2.839   2.073
  817SOL     OW 2472   1.984   2.505   2.425
  817SOL    HW1 2473   1.939   2.417   2.442
  817SOL    HW2 2474   1.983   2.559   2.509
  818SOL     OW 2475   2.671   1.866   2.364
  818SOL    HW1 2476   2.711   1.957   2.355
  818SOL    HW2 2477   2.571   1.874   2.370
  819SOL     OW 2478   2.059   2.838   3.126
  819SOL    HW1 2479   2.148   2.793   3.112
  819SOL    HW2 2480   1.986   2.773   3.107
  820SOL     OW 2481   2.460   2.591   2.132
  820SOL    HW1 2482   2.484   2.660   2.064
  820SOL    HW2 2483   2.382   2.624   2.186
  821SOL     OW 2484   2.903   2.563   2.291
  821SOL    HW1 2485   2.929   2.559   2.387
  821SOL    HW2 2486   2.818   2.512   2.277
  822SOL     OW 2487   1.938   2.673   2.651
  822SOL    HW1 2488   2.037   2.661   2.660
  822SOL    HW2 2489   1.914   2.768   2.672
  823SOL     OW 2490   2.727   2.210   2.057
  823SOL    HW1 2491   2.786   2.273   2.008
  823SOL    HW2 2492   2.746   2.116   2.028
  824SOL     OW 2493   2.412   2.058   2.747
  824SOL    HW1 2494   2.407   2.053   2.847
  824SOL    HW2 2495   2.414   2.154   2.718
  825SOL     OW 2496   2.244   2.562   2.342
  825SOL    HW1 2497   2.289   2.472   2.339
  825SOL    HW2 2498   2.150   2.551   2.375
  826SOL     OW 2499   2.476   1.984   1.979
  826SOL    HW1 2500   2.574   1.962   1.986
  826SOL    HW2 2501   2.445   1.967   1.886
  827SOL     OW 2502   2.784   2.365   2.761
  827SOL    HW1 2503   2.759   2.356   2.665
  827SOL    HW2 2504   2.832   2.283   2.792
  828SOL     OW 2505   2.401   1.926   2.374
  828SOL    HW1 2506   2.320   1.927   2.432
  828SOL    HW2 2507   2.404   2.009   2.319
  829SOL     OW 2508   2.159   1.897   2.033
  829SOL    HW1 2509   2.208   1.981   2.012
  829SOL    HW2 2510   2.221   1.832   2.078
  830SOL     OW 2511   2.797   2.098   2.342
  830SOL    HW1 2512   2.749   2.139   2.264
  830SOL    HW2 2513   2.896   2.096   2.323
  831SOL     OW 2514   2.894   2.411   1.878
  831SOL    HW1 2515   2.853   2.493   1.839
  831SOL    HW2 2516   2.958   2.437   1.951
  832SOL     OW 2517   2.728   2.316   2.504
  832SOL    HW1 2518   2.696   2.388   2.442
  832SOL    HW2 2519   2.752   2.235   2.451
  833SOL     OW 2520   2.879   1.901   2.615
  833SOL    HW1 2521   2.807   1.906   2.546
  833SOL    HW2 2522   2.855   1.832   2.684
  834SOL     OW 2523   2.389   2.118   2.190
  834SOL    HW1 2524   2.416   2.059   2.115
  834SOL    HW2 2525   2.389   2.213   2.159
  835SOL     OW 2526   2.428   2.399   2.727
  835SOL    HW1 2527   2.440   2.465   2.653
  835SOL    HW2 2528   2.474   2.433   2.810
  836SOL     OW 2529   2.435   2.732   2.891
  836SOL    HW1 2530   2.479   2.821   2.882
  836SOL    HW2 2531   2.372   2.732   2.968
  837SOL     OW 2532   3.071   2.387   2.137
  837SOL    HW1 2533   3.084   2.303   2.191
  837SOL    HW2 2534   3.042   2.461   2.197
  838SOL     OW 2535   2.169   2.075   3.093
  838SOL    HW1 2536   2.146   2.112   3.183
  838SOL    HW2 2537   2.139   1.980   3.087
  839SOL     OW 2538   2.594   2.496   2.926
  839SOL    HW1 2539   2.653   2.470   2.850
  839SOL    HW2 2540   2.566   2.592   2.915
  840SOL     OW 2541   2.169   1.925   2.480
  840SOL    HW1 2542   2.158   2.019   2.513
  840SOL    HW2 2543   2.164   1.862   2.557
  841SOL     OW 2544   2.181   2.672   2.811
  841SOL    HW1 2545   2.274   2.708   2.816
  841SOL    HW2 2546   2.175   2.587   2.863
  842SOL     OW 2547   2.201   2.371   2.868
  842SOL    HW1 2548   2.149   2.288   2.851
  842SOL    HW2 2549   2.278   2.376   2.804
  843SOL     OW 2550   2.864   2.658   3.100
  843SOL    HW1 2551   2.905   2.626   3.186
  843SOL    HW2 2552   2.768   2.631   3.097
  844SOL     OW 2553   2.677   2.434   2.187
  844SOL    HW1 2554   2.684   2.345   2.141
  844SOL    HW2 2555   2.583   2.468   2.179
  845SOL     OW 2556   2.533   2.326   3.131
  845SOL    HW1 2557   2.499   2.237   3.101
  845SOL    HW2 2558   2.559   2.380   3.051
  846SOL     OW 2559   2.335   2.362   2.053
  846SOL    HW1 2560   2.396   2.442   2.057
  846SOL    HW2 2561   2.240   2.393   2.060
  847SOL     OW 2562   3.164   2.717   2.171
  847SOL    HW1 2563   3.078   2.686   2.213
  847SOL    HW2 2564   3.160   2.703   2.072
  848SOL     OW 2565   3.142   2.789   2.534
  848SOL    HW1 2566   3.202   2.708   2.536
  848SOL    HW2 2567   3.182   2.858   2.474
  849SOL     OW 2568   2.125   2.188   2.582
  849SOL    HW1 2569   2.046   2.239   2.548
  849SOL    HW2 2570   2.116   2.173   2.680
  850SOL     OW 2571   2.778   2.772   2.153
  850SOL    HW1 2572   2.841   2.810   2.085
  850SOL    HW2 2573   2.818   2.689   2.192
  851SOL     OW 2574   2.876   2.098   2.833
  851SOL    HW1 2575   2.868   2.062   2.740
  851SOL    HW2 2576   2.874   2.022   2.898
  852SOL     OW 2577   1.937   2.207   1.895
  852SOL    HW1 2578   1.845   2.179   1.866
  852SOL    HW2 2579   1.968   2.284   1.839
  853SOL     OW 2580   1.934   2.028   2.180
  853SOL    HW1 2581   1.917   2.111   2.126
  853SOL    HW2 2582   2.024   1.991   2.158
  854SOL     OW 2583   3.087   2.187   2.311
  854SOL    HW1 2584   3.152   2.113   2.300
  854SOL    HW2 2585   3.107   2.237   2.395
  855SOL     OW 2586   2.456   2.607   2.514
  855SOL    HW1 2587   2.506   2.692   2.495
  855SOL    HW2 2588   2.368   2.609   2.466
  856SOL     OW 2589   2.721   2.818   2.723
  856SOL    HW1 2590   2.775   2.749   2.771
  856SOL    HW2 2591   2.689   2.887   2.789
  857SOL     OW 2592   1.941   3.102   2.515
  857SOL    HW1 2593   1.940   3.055   2.603
  857SOL    HW2 2594   2.023   3.074   2.464
  858SOL     OW 2595   2.290   2.286   2.382
  858SOL    HW1 2596   2.320   2.214   2.320
  858SOL    HW2 2597   2.251   2.246   2.465
  859SOL     OW 2598   1.901   2.939   2.162
  859SOL    HW1 2599   2.000   2.928   2.153
  859SOL    HW2 2600   1.861   2.853   2.194
   2.95437   2.95437   2.95437
