; mobley_8827942_GMX.itp created by acpype (v: 2023.10.27) on Thu May 14 13:43:05 2026

[ atomtypes ]
;name   bond_type     mass     charge   ptype   sigma         epsilon       Amb
 ca       ca          0.00000  0.00000   A     3.31521e-01   4.13379e-01 ; 1.86  0.0988
 os       os          0.00000  0.00000   A     3.15610e-01   3.03758e-01 ; 1.77  0.0726
 cl       cl          0.00000  0.00000   A     3.46595e-01   1.10374e+00 ; 1.95  0.2638
 ha       ha          0.00000  0.00000   A     2.62548e-01   6.73624e-02 ; 1.47  0.0161

[ moleculetype ]
;name            nrexcl
 mobley_8827942   3

[ atoms ]
;   nr  type  resi  res  atom  cgnr     charge      mass       ; qtot   bond_type
     1   ca     1   MOL    C1    1    -0.124000     12.01000 ; qtot -0.124
     2   ca     1   MOL    C2    2    -0.124000     12.01000 ; qtot -0.248
     3   ca     1   MOL    C3    3    -0.175300     12.01000 ; qtot -0.423
     4   ca     1   MOL    C4    4    -0.175300     12.01000 ; qtot -0.599
     5   ca     1   MOL    C5    5    -0.116000     12.01000 ; qtot -0.715
     6   ca     1   MOL    C6    6     0.208700     12.01000 ; qtot -0.506
     7   ca     1   MOL    C7    7     0.208700     12.01000 ; qtot -0.297
     8   ca     1   MOL    C8    8     0.227700     12.01000 ; qtot -0.070
     9   ca     1   MOL    C9    9     0.235700     12.01000 ; qtot 0.166
    10   ca     1   MOL   C10   10    -0.036900     12.01000 ; qtot 0.129
    11   ca     1   MOL   C11   11     0.021400     12.01000 ; qtot 0.151
    12   ca     1   MOL   C12   12    -0.042900     12.01000 ; qtot 0.108
    13   os     1   MOL    O1   13    -0.377300     16.00000 ; qtot -0.270
    14   os     1   MOL    O2   14    -0.377300     16.00000 ; qtot -0.647
    15   cl     1   MOL   CL1   15    -0.045400     35.45000 ; qtot -0.692
    16   cl     1   MOL   CL2   16    -0.053400     35.45000 ; qtot -0.746
    17   cl     1   MOL   CL3   17    -0.029400     35.45000 ; qtot -0.775
    18   ha     1   MOL    H1   18     0.143000      1.00800 ; qtot -0.632
    19   ha     1   MOL    H2   19     0.143000      1.00800 ; qtot -0.489
    20   ha     1   MOL    H3   20     0.159000      1.00800 ; qtot -0.330
    21   ha     1   MOL    H4   21     0.159000      1.00800 ; qtot -0.171
    22   ha     1   MOL    H5   22     0.171000      1.00800 ; qtot -0.000

[ bonds ]
;   ai     aj funct   r             k
     1      2   1    1.3986e-01    2.9644e+05 ;     C1 - C2    
     1      3   1    1.3986e-01    2.9644e+05 ;     C1 - C3    
     1     18   1    1.0860e-01    3.0183e+05 ;     C1 - H1    
     2      4   1    1.3986e-01    2.9644e+05 ;     C2 - C4    
     2     19   1    1.0860e-01    3.0183e+05 ;     C2 - H2    
     3      6   1    1.3986e-01    2.9644e+05 ;     C3 - C6    
     3     20   1    1.0860e-01    3.0183e+05 ;     C3 - H3    
     4      7   1    1.3986e-01    2.9644e+05 ;     C4 - C7    
     4     21   1    1.0860e-01    3.0183e+05 ;     C4 - H4    
     5     10   1    1.3986e-01    2.9644e+05 ;     C5 - C10   
     5     11   1    1.3986e-01    2.9644e+05 ;     C5 - C11   
     5     22   1    1.0860e-01    3.0183e+05 ;     C5 - H5    
     6      7   1    1.3986e-01    2.9644e+05 ;     C6 - C7    
     6     13   1    1.3688e-01    2.8731e+05 ;     C6 - O1    
     7     14   1    1.3688e-01    2.8731e+05 ;     C7 - O2    
     8      9   1    1.3986e-01    2.9644e+05 ;     C8 - C9    
     8     10   1    1.3986e-01    2.9644e+05 ;     C8 - C10   
     8     13   1    1.3688e-01    2.8731e+05 ;     C8 - O1    
     9     12   1    1.3986e-01    2.9644e+05 ;     C9 - C12   
     9     14   1    1.3688e-01    2.8731e+05 ;     C9 - O2    
    10     15   1    1.7572e-01    1.5730e+05 ;    C10 - CL1   
    11     12   1    1.3986e-01    2.9644e+05 ;    C11 - C12   
    11     16   1    1.7572e-01    1.5730e+05 ;    C11 - CL2   
    12     17   1    1.7572e-01    1.5730e+05 ;    C12 - CL3   

[ pairs ]
;   ai     aj    funct
     1      7      1 ;     C1 - C7    
     1     13      1 ;     C1 - O1    
     1     21      1 ;     C1 - H4    
     2      6      1 ;     C2 - C6    
     2     14      1 ;     C2 - O2    
     2     20      1 ;     C2 - H3    
     3      4      1 ;     C3 - C4    
     3      8      1 ;     C3 - C8    
     3     14      1 ;     C3 - O2    
     3     19      1 ;     C3 - H2    
     4      9      1 ;     C4 - C9    
     4     13      1 ;     C4 - O1    
     5      9      1 ;     C5 - C9    
     5     13      1 ;     C5 - O1    
     5     17      1 ;     C5 - CL3   
     6      9      1 ;     C6 - C9    
     6     10      1 ;     C6 - C10   
     6     21      1 ;     C6 - H4    
     7      8      1 ;     C7 - C8    
     7     12      1 ;     C7 - C12   
     7     19      1 ;     C7 - H2    
     7     20      1 ;     C7 - H3    
     8     11      1 ;     C8 - C11   
     8     17      1 ;     C8 - CL3   
     8     22      1 ;     C8 - H5    
     9     15      1 ;     C9 - CL1   
     9     16      1 ;     C9 - CL2   
    10     12      1 ;    C10 - C12   
    10     14      1 ;    C10 - O2    
    10     16      1 ;    C10 - CL2   
    11     14      1 ;    C11 - O2    
    11     15      1 ;    C11 - CL1   
    12     13      1 ;    C12 - O1    
    12     22      1 ;    C12 - H5    
    13     14      1 ;     O1 - O2    
    13     15      1 ;     O1 - CL1   
    13     20      1 ;     O1 - H3    
    14     17      1 ;     O2 - CL3   
    14     21      1 ;     O2 - H4    
    15     22      1 ;    CL1 - H5    
    16     17      1 ;    CL2 - CL3   
    16     22      1 ;    CL2 - H5    
    18      4      1 ;     H1 - C4    
    18      6      1 ;     H1 - C6    
    18     19      1 ;     H1 - H2    
    18     20      1 ;     H1 - H3    
    19     21      1 ;     H2 - H4    

[ angles ]
;   ai     aj     ak    funct   theta         cth
     1      2      4      1    1.2002e+02    5.3279e+02 ;     C1 - C2     - C4    
     1      2     19      1    1.1988e+02    3.7572e+02 ;     C1 - C2     - H2    
     1      3      6      1    1.2002e+02    5.3279e+02 ;     C1 - C3     - C6    
     1      3     20      1    1.1988e+02    3.7572e+02 ;     C1 - C3     - H3    
     2      1      3      1    1.2002e+02    5.3279e+02 ;     C2 - C1     - C3    
     2      1     18      1    1.1988e+02    3.7572e+02 ;     C2 - C1     - H1    
     2      4      7      1    1.2002e+02    5.3279e+02 ;     C2 - C4     - C7    
     2      4     21      1    1.1988e+02    3.7572e+02 ;     C2 - C4     - H4    
     3      1     18      1    1.1988e+02    3.7572e+02 ;     C3 - C1     - H1    
     3      6      7      1    1.2002e+02    5.3279e+02 ;     C3 - C6     - C7    
     3      6     13      1    1.1911e+02    6.6107e+02 ;     C3 - C6     - O1    
     4      2     19      1    1.1988e+02    3.7572e+02 ;     C4 - C2     - H2    
     4      7      6      1    1.2002e+02    5.3279e+02 ;     C4 - C7     - C6    
     4      7     14      1    1.1911e+02    6.6107e+02 ;     C4 - C7     - O2    
     5     10      8      1    1.2002e+02    5.3279e+02 ;     C5 - C10    - C8    
     5     10     15      1    1.1938e+02    5.3605e+02 ;     C5 - C10    - CL1   
     5     11     12      1    1.2002e+02    5.3279e+02 ;     C5 - C11    - C12   
     5     11     16      1    1.1938e+02    5.3605e+02 ;     C5 - C11    - CL2   
     6      3     20      1    1.1988e+02    3.7572e+02 ;     C6 - C3     - H3    
     6      7     14      1    1.1911e+02    6.6107e+02 ;     C6 - C7     - O2    
     6     13      8      1    1.1987e+02    7.5036e+02 ;     C6 - O1     - C8    
     7      4     21      1    1.1988e+02    3.7572e+02 ;     C7 - C4     - H4    
     7      6     13      1    1.1911e+02    6.6107e+02 ;     C7 - C6     - O1    
     7     14      9      1    1.1987e+02    7.5036e+02 ;     C7 - O2     - C9    
     8      9     12      1    1.2002e+02    5.3279e+02 ;     C8 - C9     - C12   
     8      9     14      1    1.1911e+02    6.6107e+02 ;     C8 - C9     - O2    
     8     10     15      1    1.1938e+02    5.3605e+02 ;     C8 - C10    - CL1   
     9      8     10      1    1.2002e+02    5.3279e+02 ;     C9 - C8     - C10   
     9      8     13      1    1.1911e+02    6.6107e+02 ;     C9 - C8     - O1    
     9     12     11      1    1.2002e+02    5.3279e+02 ;     C9 - C12    - C11   
     9     12     17      1    1.1938e+02    5.3605e+02 ;     C9 - C12    - CL3   
    10      5     11      1    1.2002e+02    5.3279e+02 ;    C10 - C5     - C11   
    10      5     22      1    1.1988e+02    3.7572e+02 ;    C10 - C5     - H5    
    10      8     13      1    1.1911e+02    6.6107e+02 ;    C10 - C8     - O1    
    11      5     22      1    1.1988e+02    3.7572e+02 ;    C11 - C5     - H5    
    11     12     17      1    1.1938e+02    5.3605e+02 ;    C11 - C12    - CL3   
    12      9     14      1    1.1911e+02    6.6107e+02 ;    C12 - C9     - O2    
    12     11     16      1    1.1938e+02    5.3605e+02 ;    C12 - C11    - CL2   

[ dihedrals ] ; propers
; for gromacs 4.5 or higher, using funct 9
;    i      j      k      l   func   phase     kd      pn
     1      2      4      7      9   180.00  15.16700   2 ;     C1-    C2-    C4-    C7
     1      2      4     21      9   180.00  15.16700   2 ;     C1-    C2-    C4-    H4
     1      3      6      7      9   180.00  15.16700   2 ;     C1-    C3-    C6-    C7
     1      3      6     13      9   180.00  15.16700   2 ;     C1-    C3-    C6-    O1
     2      1      3      6      9   180.00  15.16700   2 ;     C2-    C1-    C3-    C6
     2      1      3     20      9   180.00  15.16700   2 ;     C2-    C1-    C3-    H3
     2      4      7      6      9   180.00  15.16700   2 ;     C2-    C4-    C7-    C6
     2      4      7     14      9   180.00  15.16700   2 ;     C2-    C4-    C7-    O2
     3      1      2      4      9   180.00  15.16700   2 ;     C3-    C1-    C2-    C4
     3      1      2     19      9   180.00  15.16700   2 ;     C3-    C1-    C2-    H2
     3      6      7      4      9   180.00  15.16700   2 ;     C3-    C6-    C7-    C4
     3      6      7     14      9   180.00  15.16700   2 ;     C3-    C6-    C7-    O2
     3      6     13      8      9   180.00   3.76560   2 ;     C3-    C6-    O1-    C8
     4      7      6     13      9   180.00  15.16700   2 ;     C4-    C7-    C6-    O1
     4      7     14      9      9   180.00   3.76560   2 ;     C4-    C7-    O2-    C9
     5     10      8      9      9   180.00  15.16700   2 ;     C5-   C10-    C8-    C9
     5     10      8     13      9   180.00  15.16700   2 ;     C5-   C10-    C8-    O1
     5     11     12      9      9   180.00  15.16700   2 ;     C5-   C11-   C12-    C9
     5     11     12     17      9   180.00  15.16700   2 ;     C5-   C11-   C12-   CL3
     6      7      4     21      9   180.00  15.16700   2 ;     C6-    C7-    C4-    H4
     6      7     14      9      9   180.00   3.76560   2 ;     C6-    C7-    O2-    C9
     6     13      8      9      9   180.00   3.76560   2 ;     C6-    O1-    C8-    C9
     6     13      8     10      9   180.00   3.76560   2 ;     C6-    O1-    C8-   C10
     7      4      2     19      9   180.00  15.16700   2 ;     C7-    C4-    C2-    H2
     7      6      3     20      9   180.00  15.16700   2 ;     C7-    C6-    C3-    H3
     7      6     13      8      9   180.00   3.76560   2 ;     C7-    C6-    O1-    C8
     7     14      9      8      9   180.00   3.76560   2 ;     C7-    O2-    C9-    C8
     7     14      9     12      9   180.00   3.76560   2 ;     C7-    O2-    C9-   C12
     8      9     12     11      9   180.00  15.16700   2 ;     C8-    C9-   C12-   C11
     8      9     12     17      9   180.00  15.16700   2 ;     C8-    C9-   C12-   CL3
     8     10      5     11      9   180.00  15.16700   2 ;     C8-   C10-    C5-   C11
     8     10      5     22      9   180.00  15.16700   2 ;     C8-   C10-    C5-    H5
     9      8     10     15      9   180.00  15.16700   2 ;     C9-    C8-   C10-   CL1
     9     12     11     16      9   180.00  15.16700   2 ;     C9-   C12-   C11-   CL2
    10      5     11     12      9   180.00  15.16700   2 ;    C10-    C5-   C11-   C12
    10      5     11     16      9   180.00  15.16700   2 ;    C10-    C5-   C11-   CL2
    10      8      9     12      9   180.00  15.16700   2 ;    C10-    C8-    C9-   C12
    10      8      9     14      9   180.00  15.16700   2 ;    C10-    C8-    C9-    O2
    11      5     10     15      9   180.00  15.16700   2 ;    C11-    C5-   C10-   CL1
    11     12      9     14      9   180.00  15.16700   2 ;    C11-   C12-    C9-    O2
    12      9      8     13      9   180.00  15.16700   2 ;    C12-    C9-    C8-    O1
    12     11      5     22      9   180.00  15.16700   2 ;    C12-   C11-    C5-    H5
    13      6      3     20      9   180.00  15.16700   2 ;     O1-    C6-    C3-    H3
    13      6      7     14      9   180.00  15.16700   2 ;     O1-    C6-    C7-    O2
    13      8      9     14      9   180.00  15.16700   2 ;     O1-    C8-    C9-    O2
    13      8     10     15      9   180.00  15.16700   2 ;     O1-    C8-   C10-   CL1
    14      7      4     21      9   180.00  15.16700   2 ;     O2-    C7-    C4-    H4
    14      9     12     17      9   180.00  15.16700   2 ;     O2-    C9-   C12-   CL3
    15     10      5     22      9   180.00  15.16700   2 ;    CL1-   C10-    C5-    H5
    16     11      5     22      9   180.00  15.16700   2 ;    CL2-   C11-    C5-    H5
    16     11     12     17      9   180.00  15.16700   2 ;    CL2-   C11-   C12-   CL3
    18      1      2      4      9   180.00  15.16700   2 ;     H1-    C1-    C2-    C4
    18      1      2     19      9   180.00  15.16700   2 ;     H1-    C1-    C2-    H2
    18      1      3      6      9   180.00  15.16700   2 ;     H1-    C1-    C3-    C6
    18      1      3     20      9   180.00  15.16700   2 ;     H1-    C1-    C3-    H3
    19      2      4     21      9   180.00  15.16700   2 ;     H2-    C2-    C4-    H4

[ dihedrals ] ; impropers
; treated as propers in GROMACS to use correct AMBER analytical function
;    i      j      k      l   func   phase     kd      pn
     1      4      2     19      4   180.00   4.60240   2 ;     C1-    C4-    C2-    H2
     1      6      3     20      4   180.00   4.60240   2 ;     C1-    C6-    C3-    H3
     2      7      4     21      4   180.00   4.60240   2 ;     C2-    C7-    C4-    H4
     3      7      6     13      4   180.00   4.60240   2 ;     C3-    C7-    C6-    O1
     4      6      7     14      4   180.00   4.60240   2 ;     C4-    C6-    C7-    O2
     5      8     10     15      4   180.00   4.60240   2 ;     C5-    C8-   C10-   CL1
     5     12     11     16      4   180.00   4.60240   2 ;     C5-   C12-   C11-   CL2
     8     12      9     14      4   180.00   4.60240   2 ;     C8-   C12-    C9-    O2
     9     10      8     13      4   180.00   4.60240   2 ;     C9-   C10-    C8-    O1
     9     11     12     17      4   180.00   4.60240   2 ;     C9-   C11-   C12-   CL3
    10     11      5     22      4   180.00   4.60240   2 ;    C10-   C11-    C5-    H5
    18      1      3      2      4   180.00   4.60240   2 ;     H1-    C1-    C3-    C2
