; mobley_3525176_GMX.itp created by acpype (v: 2023.10.27) on Thu May 14 14:01:39 2026

[ atomtypes ]
;name   bond_type     mass     charge   ptype   sigma         epsilon       Amb
 ca       ca          0.00000  0.00000   A     3.31521e-01   4.13379e-01 ; 1.86  0.0988
 c3       c3          0.00000  0.00000   A     3.39771e-01   4.51035e-01 ; 1.91  0.1078
 ha       ha          0.00000  0.00000   A     2.62548e-01   6.73624e-02 ; 1.47  0.0161
 hc       hc          0.00000  0.00000   A     2.60018e-01   8.70272e-02 ; 1.46  0.0208

[ moleculetype ]
;name            nrexcl
 mobley_3525176   3

[ atoms ]
;   nr  type  resi  res  atom  cgnr     charge      mass       ; qtot   bond_type
     1   ca     1   MOL    C1    1    -0.133000     12.01000 ; qtot -0.133
     2   ca     1   MOL    C2    2    -0.128000     12.01000 ; qtot -0.261
     3   ca     1   MOL    C3    3    -0.128000     12.01000 ; qtot -0.389
     4   ca     1   MOL    C4    4    -0.128000     12.01000 ; qtot -0.517
     5   ca     1   MOL    C5    5    -0.128000     12.01000 ; qtot -0.645
     6   ca     1   MOL    C6    6    -0.077300     12.01000 ; qtot -0.722
     7   c3     1   MOL    C7    7    -0.093100     12.01000 ; qtot -0.815
     8   c3     1   MOL    C8    8    -0.037100     12.01000 ; qtot -0.853
     9   c3     1   MOL    C9    9    -0.080400     12.01000 ; qtot -0.933
    10   c3     1   MOL   C10   10    -0.076400     12.01000 ; qtot -1.009
    11   c3     1   MOL   C11   11    -0.080400     12.01000 ; qtot -1.090
    12   ha     1   MOL    H1   12     0.130000      1.00800 ; qtot -0.960
    13   ha     1   MOL    H2   13     0.130000      1.00800 ; qtot -0.830
    14   ha     1   MOL    H3   14     0.130000      1.00800 ; qtot -0.700
    15   ha     1   MOL    H4   15     0.130500      1.00800 ; qtot -0.569
    16   ha     1   MOL    H5   16     0.130500      1.00800 ; qtot -0.439
    17   hc     1   MOL    H6   17     0.032700      1.00800 ; qtot -0.406
    18   hc     1   MOL    H7   18     0.032700      1.00800 ; qtot -0.373
    19   hc     1   MOL    H8   19     0.032700      1.00800 ; qtot -0.341
    20   hc     1   MOL    H9   20     0.047700      1.00800 ; qtot -0.293
    21   hc     1   MOL   H10   21     0.047700      1.00800 ; qtot -0.245
    22   hc     1   MOL   H11   22     0.039200      1.00800 ; qtot -0.206
    23   hc     1   MOL   H12   23     0.039200      1.00800 ; qtot -0.167
    24   hc     1   MOL   H13   24     0.044200      1.00800 ; qtot -0.123
    25   hc     1   MOL   H14   25     0.044200      1.00800 ; qtot -0.078
    26   hc     1   MOL   H15   26     0.039200      1.00800 ; qtot -0.039
    27   hc     1   MOL   H16   27     0.039200      1.00800 ; qtot -0.000

[ bonds ]
;   ai     aj funct   r             k
     1      2   1    1.3986e-01    2.9644e+05 ;     C1 - C2    
     1      3   1    1.3986e-01    2.9644e+05 ;     C1 - C3    
     1     12   1    1.0860e-01    3.0183e+05 ;     C1 - H1    
     2      4   1    1.3986e-01    2.9644e+05 ;     C2 - C4    
     2     13   1    1.0860e-01    3.0183e+05 ;     C2 - H2    
     3      5   1    1.3986e-01    2.9644e+05 ;     C3 - C5    
     3     14   1    1.0860e-01    3.0183e+05 ;     C3 - H3    
     4      6   1    1.3986e-01    2.9644e+05 ;     C4 - C6    
     4     15   1    1.0860e-01    3.0183e+05 ;     C4 - H4    
     5      6   1    1.3986e-01    2.9644e+05 ;     C5 - C6    
     5     16   1    1.0860e-01    3.0183e+05 ;     C5 - H5    
     6      8   1    1.5147e-01    2.0410e+05 ;     C6 - C8    
     7      9   1    1.5354e-01    1.9154e+05 ;     C7 - C9    
     7     17   1    1.0962e-01    2.8891e+05 ;     C7 - H6    
     7     18   1    1.0962e-01    2.8891e+05 ;     C7 - H7    
     7     19   1    1.0962e-01    2.8891e+05 ;     C7 - H8    
     8     10   1    1.5354e-01    1.9154e+05 ;     C8 - C10   
     8     20   1    1.0962e-01    2.8891e+05 ;     C8 - H9    
     8     21   1    1.0962e-01    2.8891e+05 ;     C8 - H10   
     9     11   1    1.5354e-01    1.9154e+05 ;     C9 - C11   
     9     22   1    1.0962e-01    2.8891e+05 ;     C9 - H11   
     9     23   1    1.0962e-01    2.8891e+05 ;     C9 - H12   
    10     11   1    1.5354e-01    1.9154e+05 ;    C10 - C11   
    10     24   1    1.0962e-01    2.8891e+05 ;    C10 - H13   
    10     25   1    1.0962e-01    2.8891e+05 ;    C10 - H14   
    11     26   1    1.0962e-01    2.8891e+05 ;    C11 - H15   
    11     27   1    1.0962e-01    2.8891e+05 ;    C11 - H16   

[ pairs ]
;   ai     aj    funct
     1      6      1 ;     C1 - C6    
     1     15      1 ;     C1 - H4    
     1     16      1 ;     C1 - H5    
     2      5      1 ;     C2 - C5    
     2      8      1 ;     C2 - C8    
     2     14      1 ;     C2 - H3    
     3      4      1 ;     C3 - C4    
     3      8      1 ;     C3 - C8    
     3     13      1 ;     C3 - H2    
     4     10      1 ;     C4 - C10   
     4     16      1 ;     C4 - H5    
     4     20      1 ;     C4 - H9    
     4     21      1 ;     C4 - H10   
     5     10      1 ;     C5 - C10   
     5     15      1 ;     C5 - H4    
     5     20      1 ;     C5 - H9    
     5     21      1 ;     C5 - H10   
     6     11      1 ;     C6 - C11   
     6     13      1 ;     C6 - H2    
     6     14      1 ;     C6 - H3    
     6     24      1 ;     C6 - H13   
     6     25      1 ;     C6 - H14   
     7     10      1 ;     C7 - C10   
     7     26      1 ;     C7 - H15   
     7     27      1 ;     C7 - H16   
     8      9      1 ;     C8 - C9    
     8     15      1 ;     C8 - H4    
     8     16      1 ;     C8 - H5    
     8     26      1 ;     C8 - H15   
     8     27      1 ;     C8 - H16   
     9     24      1 ;     C9 - H13   
     9     25      1 ;     C9 - H14   
    10     22      1 ;    C10 - H11   
    10     23      1 ;    C10 - H12   
    11     17      1 ;    C11 - H6    
    11     18      1 ;    C11 - H7    
    11     19      1 ;    C11 - H8    
    11     20      1 ;    C11 - H9    
    11     21      1 ;    C11 - H10   
    12      4      1 ;     H1 - C4    
    12      5      1 ;     H1 - C5    
    12     13      1 ;     H1 - H2    
    12     14      1 ;     H1 - H3    
    13     15      1 ;     H2 - H4    
    14     16      1 ;     H3 - H5    
    17     22      1 ;     H6 - H11   
    17     23      1 ;     H6 - H12   
    18     22      1 ;     H7 - H11   
    18     23      1 ;     H7 - H12   
    19     22      1 ;     H8 - H11   
    19     23      1 ;     H8 - H12   
    20     24      1 ;     H9 - H13   
    20     25      1 ;     H9 - H14   
    21     24      1 ;    H10 - H13   
    21     25      1 ;    H10 - H14   
    22     26      1 ;    H11 - H15   
    22     27      1 ;    H11 - H16   
    23     26      1 ;    H12 - H15   
    23     27      1 ;    H12 - H16   
    24     26      1 ;    H13 - H15   
    24     27      1 ;    H13 - H16   
    25     26      1 ;    H14 - H15   
    25     27      1 ;    H14 - H16   

[ angles ]
;   ai     aj     ak    funct   theta         cth
     1      2      4      1    1.2002e+02    5.3279e+02 ;     C1 - C2     - C4    
     1      2     13      1    1.1988e+02    3.7572e+02 ;     C1 - C2     - H2    
     1      3      5      1    1.2002e+02    5.3279e+02 ;     C1 - C3     - C5    
     1      3     14      1    1.1988e+02    3.7572e+02 ;     C1 - C3     - H3    
     2      1      3      1    1.2002e+02    5.3279e+02 ;     C2 - C1     - C3    
     2      1     12      1    1.1988e+02    3.7572e+02 ;     C2 - C1     - H1    
     2      4      6      1    1.2002e+02    5.3279e+02 ;     C2 - C4     - C6    
     2      4     15      1    1.1988e+02    3.7572e+02 ;     C2 - C4     - H4    
     3      1     12      1    1.1988e+02    3.7572e+02 ;     C3 - C1     - H1    
     3      5      6      1    1.2002e+02    5.3279e+02 ;     C3 - C5     - C6    
     3      5     16      1    1.1988e+02    3.7572e+02 ;     C3 - C5     - H5    
     4      2     13      1    1.1988e+02    3.7572e+02 ;     C4 - C2     - H2    
     4      6      5      1    1.2002e+02    5.3279e+02 ;     C4 - C6     - C5    
     4      6      8      1    1.2083e+02    5.0827e+02 ;     C4 - C6     - C8    
     5      3     14      1    1.1988e+02    3.7572e+02 ;     C5 - C3     - H3    
     5      6      8      1    1.2083e+02    5.0827e+02 ;     C5 - C6     - C8    
     6      4     15      1    1.1988e+02    3.7572e+02 ;     C6 - C4     - H4    
     6      5     16      1    1.1988e+02    3.7572e+02 ;     C6 - C5     - H5    
     6      8     10      1    1.1242e+02    5.0484e+02 ;     C6 - C8     - C10   
     6      8     20      1    1.1063e+02    3.6493e+02 ;     C6 - C8     - H9    
     6      8     21      1    1.1063e+02    3.6493e+02 ;     C6 - C8     - H10   
     7      9     11      1    1.1263e+02    5.0099e+02 ;     C7 - C9     - C11   
     7      9     22      1    1.0968e+02    3.6208e+02 ;     C7 - C9     - H11   
     7      9     23      1    1.0968e+02    3.6208e+02 ;     C7 - C9     - H12   
     8     10     11      1    1.1263e+02    5.0099e+02 ;     C8 - C10    - C11   
     8     10     24      1    1.0968e+02    3.6208e+02 ;     C8 - C10    - H13   
     8     10     25      1    1.0968e+02    3.6208e+02 ;     C8 - C10    - H14   
     9      7     17      1    1.0968e+02    3.6208e+02 ;     C9 - C7     - H6    
     9      7     18      1    1.0968e+02    3.6208e+02 ;     C9 - C7     - H7    
     9      7     19      1    1.0968e+02    3.6208e+02 ;     C9 - C7     - H8    
     9     11     10      1    1.1263e+02    5.0099e+02 ;     C9 - C11    - C10   
     9     11     26      1    1.0968e+02    3.6208e+02 ;     C9 - C11    - H15   
     9     11     27      1    1.0968e+02    3.6208e+02 ;     C9 - C11    - H16   
    10      8     20      1    1.0968e+02    3.6208e+02 ;    C10 - C8     - H9    
    10      8     21      1    1.0968e+02    3.6208e+02 ;    C10 - C8     - H10   
    10     11     26      1    1.0968e+02    3.6208e+02 ;    C10 - C11    - H15   
    10     11     27      1    1.0968e+02    3.6208e+02 ;    C10 - C11    - H16   
    11      9     22      1    1.0968e+02    3.6208e+02 ;    C11 - C9     - H11   
    11      9     23      1    1.0968e+02    3.6208e+02 ;    C11 - C9     - H12   
    11     10     24      1    1.0968e+02    3.6208e+02 ;    C11 - C10    - H13   
    11     10     25      1    1.0968e+02    3.6208e+02 ;    C11 - C10    - H14   
    17      7     18      1    1.0773e+02    2.9957e+02 ;     H6 - C7     - H7    
    17      7     19      1    1.0773e+02    2.9957e+02 ;     H6 - C7     - H8    
    18      7     19      1    1.0773e+02    2.9957e+02 ;     H7 - C7     - H8    
    20      8     21      1    1.0773e+02    2.9957e+02 ;     H9 - C8     - H10   
    22      9     23      1    1.0773e+02    2.9957e+02 ;    H11 - C9     - H12   
    24     10     25      1    1.0773e+02    2.9957e+02 ;    H13 - C10    - H14   
    26     11     27      1    1.0773e+02    2.9957e+02 ;    H15 - C11    - H16   

[ dihedrals ] ; propers
; for gromacs 4.5 or higher, using funct 9
;    i      j      k      l   func   phase     kd      pn
     1      2      4      6      9   180.00  15.16700   2 ;     C1-    C2-    C4-    C6
     1      2      4     15      9   180.00  15.16700   2 ;     C1-    C2-    C4-    H4
     1      3      5      6      9   180.00  15.16700   2 ;     C1-    C3-    C5-    C6
     1      3      5     16      9   180.00  15.16700   2 ;     C1-    C3-    C5-    H5
     2      1      3      5      9   180.00  15.16700   2 ;     C2-    C1-    C3-    C5
     2      1      3     14      9   180.00  15.16700   2 ;     C2-    C1-    C3-    H3
     2      4      6      5      9   180.00  15.16700   2 ;     C2-    C4-    C6-    C5
     2      4      6      8      9   180.00  15.16700   2 ;     C2-    C4-    C6-    C8
     3      1      2      4      9   180.00  15.16700   2 ;     C3-    C1-    C2-    C4
     3      1      2     13      9   180.00  15.16700   2 ;     C3-    C1-    C2-    H2
     3      5      6      4      9   180.00  15.16700   2 ;     C3-    C5-    C6-    C4
     3      5      6      8      9   180.00  15.16700   2 ;     C3-    C5-    C6-    C8
     4      6      5     16      9   180.00  15.16700   2 ;     C4-    C6-    C5-    H5
     4      6      8     10      9   180.00   1.00416   2 ;     C4-    C6-    C8-   C10
     4      6      8     20      9     0.00   0.00000   0 ;     C4-    C6-    C8-    H9
     4      6      8     21      9     0.00   0.00000   0 ;     C4-    C6-    C8-   H10
     5      6      4     15      9   180.00  15.16700   2 ;     C5-    C6-    C4-    H4
     5      6      8     10      9   180.00   1.00416   2 ;     C5-    C6-    C8-   C10
     5      6      8     20      9     0.00   0.00000   0 ;     C5-    C6-    C8-    H9
     5      6      8     21      9     0.00   0.00000   0 ;     C5-    C6-    C8-   H10
     6      4      2     13      9   180.00  15.16700   2 ;     C6-    C4-    C2-    H2
     6      5      3     14      9   180.00  15.16700   2 ;     C6-    C5-    C3-    H3
     6      8     10     11      9     0.00   0.65084   3 ;     C6-    C8-   C10-   C11
     6      8     10     24      9     0.00   0.65084   3 ;     C6-    C8-   C10-   H13
     6      8     10     25      9     0.00   0.65084   3 ;     C6-    C8-   C10-   H14
     7      9     11     10      9     0.00   2.17568   3 ;     C7-    C9-   C11-   C10
     7      9     11     26      9     0.00   0.54392   3 ;     C7-    C9-   C11-   H15
     7      9     11     27      9     0.00   0.54392   3 ;     C7-    C9-   C11-   H16
     8      6      4     15      9   180.00  15.16700   2 ;     C8-    C6-    C4-    H4
     8      6      5     16      9   180.00  15.16700   2 ;     C8-    C6-    C5-    H5
     8     10     11      9      9     0.00   2.17568   3 ;     C8-   C10-   C11-    C9
     8     10     11     26      9     0.00   0.54392   3 ;     C8-   C10-   C11-   H15
     8     10     11     27      9     0.00   0.54392   3 ;     C8-   C10-   C11-   H16
     9     11     10     24      9     0.00   0.54392   3 ;     C9-   C11-   C10-   H13
     9     11     10     25      9     0.00   0.54392   3 ;     C9-   C11-   C10-   H14
    10     11      9     22      9     0.00   0.54392   3 ;    C10-   C11-    C9-   H11
    10     11      9     23      9     0.00   0.54392   3 ;    C10-   C11-    C9-   H12
    11      9      7     17      9     0.00   0.54392   3 ;    C11-    C9-    C7-    H6
    11      9      7     18      9     0.00   0.54392   3 ;    C11-    C9-    C7-    H7
    11      9      7     19      9     0.00   0.54392   3 ;    C11-    C9-    C7-    H8
    11     10      8     20      9     0.00   0.54392   3 ;    C11-   C10-    C8-    H9
    11     10      8     21      9     0.00   0.54392   3 ;    C11-   C10-    C8-   H10
    12      1      2      4      9   180.00  15.16700   2 ;     H1-    C1-    C2-    C4
    12      1      2     13      9   180.00  15.16700   2 ;     H1-    C1-    C2-    H2
    12      1      3      5      9   180.00  15.16700   2 ;     H1-    C1-    C3-    C5
    12      1      3     14      9   180.00  15.16700   2 ;     H1-    C1-    C3-    H3
    13      2      4     15      9   180.00  15.16700   2 ;     H2-    C2-    C4-    H4
    14      3      5     16      9   180.00  15.16700   2 ;     H3-    C3-    C5-    H5
    17      7      9     22      9     0.00   0.50208   3 ;     H6-    C7-    C9-   H11
    17      7      9     23      9     0.00   0.50208   3 ;     H6-    C7-    C9-   H12
    18      7      9     22      9     0.00   0.50208   3 ;     H7-    C7-    C9-   H11
    18      7      9     23      9     0.00   0.50208   3 ;     H7-    C7-    C9-   H12
    19      7      9     22      9     0.00   0.50208   3 ;     H8-    C7-    C9-   H11
    19      7      9     23      9     0.00   0.50208   3 ;     H8-    C7-    C9-   H12
    20      8     10     24      9     0.00   0.50208   3 ;     H9-    C8-   C10-   H13
    20      8     10     25      9     0.00   0.50208   3 ;     H9-    C8-   C10-   H14
    21      8     10     24      9     0.00   0.50208   3 ;    H10-    C8-   C10-   H13
    21      8     10     25      9     0.00   0.50208   3 ;    H10-    C8-   C10-   H14
    22      9     11     26      9     0.00   0.50208   3 ;    H11-    C9-   C11-   H15
    22      9     11     27      9     0.00   0.50208   3 ;    H11-    C9-   C11-   H16
    23      9     11     26      9     0.00   0.50208   3 ;    H12-    C9-   C11-   H15
    23      9     11     27      9     0.00   0.50208   3 ;    H12-    C9-   C11-   H16
    24     10     11     26      9     0.00   0.50208   3 ;    H13-   C10-   C11-   H15
    24     10     11     27      9     0.00   0.50208   3 ;    H13-   C10-   C11-   H16
    25     10     11     26      9     0.00   0.50208   3 ;    H14-   C10-   C11-   H15
    25     10     11     27      9     0.00   0.50208   3 ;    H14-   C10-   C11-   H16

[ dihedrals ] ; impropers
; treated as propers in GROMACS to use correct AMBER analytical function
;    i      j      k      l   func   phase     kd      pn
     1      4      2     13      4   180.00   4.60240   2 ;     C1-    C4-    C2-    H2
     1      5      3     14      4   180.00   4.60240   2 ;     C1-    C5-    C3-    H3
     2      6      4     15      4   180.00   4.60240   2 ;     C2-    C6-    C4-    H4
     3      6      5     16      4   180.00   4.60240   2 ;     C3-    C6-    C5-    H5
     4      5      6      8      4   180.00   4.60240   2 ;     C4-    C5-    C6-    C8
    12      1      3      2      4   180.00   4.60240   2 ;     H1-    C1-    C3-    C2
