mobley_6060301_GMX.gro created by acpype (v: 2023.10.27) on Thu May 14 13:16:56 2026
 2287
    1MOL     C1    1   1.430   1.120   1.608
    1MOL     C2    2   1.485   1.261   1.589
    1MOL     C3    3   1.416   1.333   1.473
    1MOL     C4    4   1.474   1.474   1.453
    1MOL     C5    5   1.404   1.553   1.343
    1MOL     C6    6   1.463   1.692   1.321
    1MOL     N1    7   1.392   1.762   1.215
    1MOL     H1    8   1.481   1.071   1.691
    1MOL     H2    9   1.323   1.123   1.629
    1MOL     H3   10   1.446   1.060   1.518
    1MOL     H4   11   1.471   1.318   1.682
    1MOL     H5   12   1.593   1.256   1.570
    1MOL     H6   13   1.308   1.340   1.493
    1MOL     H7   14   1.428   1.274   1.382
    1MOL     H8   15   1.581   1.467   1.431
    1MOL     H9   16   1.465   1.530   1.547
    1MOL    H10   17   1.298   1.563   1.371
    1MOL    H11   18   1.406   1.496   1.249
    1MOL    H12   19   1.456   1.751   1.413
    1MOL    H13   20   1.569   1.685   1.294
    1MOL    H14   21   1.294   1.732   1.215
    1MOL    H15   22   1.431   1.734   1.125
    2SOL     OW   23   0.230   0.628   0.113
    2SOL    HW1   24   0.137   0.626   0.150
    2SOL    HW2   25   0.231   0.589   0.021
    3SOL     OW   26   0.225   0.275   0.996
    3SOL    HW1   27   0.260   0.258   1.088
    3SOL    HW2   28   0.137   0.230   0.984
    4SOL     OW   29   0.019   0.368   0.647
    4SOL    HW1   30  -0.063   0.411   0.686
    4SOL    HW2   31  -0.009   0.295   0.584
    5SOL     OW   32   0.569   1.275   1.165
    5SOL    HW1   33   0.476   1.268   1.128
    5SOL    HW2   34   0.580   1.364   1.209
    6SOL     OW   35   1.555   1.511   0.703
    6SOL    HW1   36   1.498   1.495   0.784
    6SOL    HW2   37   1.496   1.521   0.623
    7SOL     OW   38   1.135   0.703   0.717
    7SOL    HW1   39   1.192   0.781   0.692
    7SOL    HW2   40   1.075   0.729   0.793
    8SOL     OW   41   1.755   0.607   0.231
    8SOL    HW1   42   1.743   0.594   0.132
    8SOL    HW2   43   1.725   0.526   0.280
    9SOL     OW   44   0.768   1.144   1.023
    9SOL    HW1   45   0.690   1.161   1.083
    9SOL    HW2   46   0.802   1.231   0.987
   10SOL     OW   47   0.850   0.798   1.823
   10SOL    HW1   48   0.846   0.874   1.888
   10SOL    HW2   49   0.872   0.834   1.732
   11SOL     OW   50   0.685   1.012   0.665
   11SOL    HW1   51   0.754   0.996   0.735
   11SOL    HW2   52   0.612   1.069   0.703
   12SOL     OW   53   0.686   1.161   1.803
   12SOL    HW1   54   0.746   1.240   1.817
   12SOL    HW2   55   0.600   1.192   1.762
   13SOL     OW   56   0.335   1.435   1.061
   13SOL    HW1   57   0.257   1.404   1.008
   13SOL    HW2   58   0.393   1.493   1.004
   14SOL     OW   59   0.438   0.392   1.499
   14SOL    HW1   60   0.520   0.336   1.508
   14SOL    HW2   61   0.357   0.334   1.503
   15SOL     OW   62   1.603   0.447   0.737
   15SOL    HW1   63   1.529   0.493   0.687
   15SOL    HW2   64   1.654   0.515   0.790
   16SOL     OW   65   0.231   1.713   0.483
   16SOL    HW1   66   0.265   1.790   0.537
   16SOL    HW2   67   0.275   1.713   0.393
   17SOL     OW   68   1.127   1.341   1.690
   17SOL    HW1   69   1.174   1.341   1.778
   17SOL    HW2   70   1.079   1.254   1.679
   18SOL     OW   71   0.230   1.434   0.538
   18SOL    HW1   72   0.204   1.530   0.538
   18SOL    HW2   73   0.159   1.380   0.583
   19SOL     OW   74   0.240   1.091   0.886
   19SOL    HW1   75   0.254   1.007   0.938
   19SOL    HW2   76   0.185   1.155   0.941
   20SOL     OW   77   0.620   1.786   1.439
   20SOL    HW1   78   0.528   1.769   1.474
   20SOL    HW2   79   0.648   1.878   1.465
   21SOL     OW   80   0.606   0.964   0.123
   21SOL    HW1   81   0.613   1.048   0.069
   21SOL    HW2   82   0.652   0.977   0.211
   22SOL     OW   83   1.594   0.114   1.480
   22SOL    HW1   84   1.576   0.181   1.408
   22SOL    HW2   85   1.591   0.160   1.569
   23SOL     OW   86   0.122   0.643   0.563
   23SOL    HW1   87   0.077   0.555   0.580
   23SOL    HW2   88   0.121   0.697   0.647
   24SOL     OW   89   1.842   1.767   0.359
   24SOL    HW1   90   1.896   1.738   0.439
   24SOL    HW2   91   1.872   1.857   0.330
   25SOL     OW   92   0.027   1.596   0.117
   25SOL    HW1   93   0.008   1.500   0.138
   25SOL    HW2   94  -0.006   1.654   0.192
   26SOL     OW   95   1.689   0.922   0.612
   26SOL    HW1   96   1.784   0.893   0.620
   26SOL    HW2   97   1.681   0.987   0.537
   27SOL     OW   98   1.641   1.108   0.432
   27SOL    HW1   99   1.727   1.110   0.380
   27SOL    HW2  100   1.655   1.155   0.520
   28SOL     OW  101   0.113   0.737   1.597
   28SOL    HW1  102   0.201   0.724   1.642
   28SOL    HW2  103   0.100   0.834   1.575
   29SOL     OW  104   0.613   1.365   0.726
   29SOL    HW1  105   0.564   1.278   0.735
   29SOL    HW2  106   0.590   1.408   0.639
   30SOL     OW  107   0.809   0.004   0.502
   30SOL    HW1  108   0.849   0.095   0.493
   30SOL    HW2  109   0.709   0.012   0.508
   31SOL     OW  110   0.197   0.976   1.264
   31SOL    HW1  111   0.286   0.931   1.250
   31SOL    HW2  112   0.124   0.911   1.245
   32SOL     OW  113   1.525   0.999   0.190
   32SOL    HW1  114   1.462   0.923   0.203
   32SOL    HW2  115   1.573   1.017   0.276
   33SOL     OW  116   1.187   1.792   1.616
   33SOL    HW1  117   1.211   1.852   1.540
   33SOL    HW2  118   1.194   1.697   1.586
   34SOL     OW  119   0.317   0.251   1.801
   34SOL    HW1  120   0.388   0.322   1.807
   34SOL    HW2  121   0.229   0.290   1.829
   35SOL     OW  122   1.466   1.417   0.953
   35SOL    HW1  123   1.407   1.423   1.033
   35SOL    HW2  124   1.451   1.329   0.907
   36SOL     OW  125   1.667   1.714   0.572
   36SOL    HW1  126   1.626   1.691   0.484
   36SOL    HW2  127   1.649   1.640   0.637
   37SOL     OW  128   0.598   0.729   0.270
   37SOL    HW1  129   0.622   0.798   0.202
   37SOL    HW2  130   0.520   0.762   0.324
   38SOL     OW  131   1.281   0.345   0.944
   38SOL    HW1  132   1.195   0.295   0.931
   38SOL    HW2  133   1.343   0.291   1.000
   39SOL     OW  134   1.576   1.662   0.307
   39SOL    HW1  135   1.665   1.708   0.310
   39SOL    HW2  136   1.555   1.638   0.212
   40SOL     OW  137   0.807   0.605   1.465
   40SOL    HW1  138   0.760   0.602   1.554
   40SOL    HW2  139   0.756   0.550   1.399
   41SOL     OW  140   1.394   0.469   1.674
   41SOL    HW1  141   1.374   0.512   1.762
   41SOL    HW2  142   1.472   0.407   1.683
   42SOL     OW  143   0.973   0.890   1.572
   42SOL    HW1  144   1.019   0.806   1.543
   42SOL    HW2  145   0.917   0.924   1.497
   43SOL     OW  146   0.991   0.410   1.242
   43SOL    HW1  147   0.914   0.444   1.296
   43SOL    HW2  148   0.957   0.359   1.163
   44SOL     OW  149   1.041   0.701   0.429
   44SOL    HW1  150   1.067   0.697   0.525
   44SOL    HW2  151   0.956   0.650   0.415
   45SOL     OW  152   0.076   0.811   0.789
   45SOL    HW1  153   0.175   0.799   0.798
   45SOL    HW2  154   0.052   0.906   0.810
   46SOL     OW  155   0.130   1.821   1.571
   46SOL    HW1  156   0.120   1.806   1.670
   46SOL    HW2  157   0.044   1.857   1.535
   47SOL     OW  158   0.865   0.348   0.195
   47SOL    HW1  159   0.924   0.411   0.146
   47SOL    HW2  160   0.884   0.254   0.166
   48SOL     OW  161   1.719   0.585   1.831
   48SOL    HW1  162   1.693   0.674   1.795
   48SOL    HW2  163   1.717   0.517   1.758
   49SOL     OW  164   1.362   1.144   0.545
   49SOL    HW1  165   1.445   1.115   0.497
   49SOL    HW2  166   1.313   1.211   0.489
   50SOL     OW  167   0.550   0.196   0.885
   50SOL    HW1  168   0.545   0.191   0.985
   50SOL    HW2  169   0.552   0.292   0.856
   51SOL     OW  170   1.008   1.456   0.477
   51SOL    HW1  171   0.962   1.528   0.425
   51SOL    HW2  172   1.004   1.476   0.575
   52SOL     OW  173   0.351   1.801   0.853
   52SOL    HW1  174   0.401   1.715   0.859
   52SOL    HW2  175   0.416   1.878   0.850
   53SOL     OW  176   1.795   1.066   0.873
   53SOL    HW1  177   1.733   1.051   0.797
   53SOL    HW2  178   1.743   1.077   0.958
   54SOL     OW  179   0.321   0.943   0.242
   54SOL    HW1  180   0.403   0.982   0.200
   54SOL    HW2  181   0.294   0.861   0.193
   55SOL     OW  182   1.458   0.735   0.728
   55SOL    HW1  183   1.453   0.670   0.803
   55SOL    HW2  184   1.538   0.794   0.741
   56SOL     OW  185   0.461   1.266   1.727
   56SOL    HW1  186   0.411   1.267   1.641
   56SOL    HW2  187   0.398   1.248   1.803
   57SOL     OW  188   1.111   1.776   0.237
   57SOL    HW1  189   1.051   1.714   0.287
   57SOL    HW2  190   1.142   1.732   0.152
   58SOL     OW  191   0.202   0.285   1.498
   58SOL    HW1  192   0.122   0.345   1.485
   58SOL    HW2  193   0.192   0.236   1.584
   59SOL     OW  194   1.632   1.377   0.081
   59SOL    HW1  195   1.600   1.471   0.071
   59SOL    HW2  196   1.556   1.314   0.069
   60SOL     OW  197   0.464   1.743   0.323
   60SOL    HW1  198   0.497   1.782   0.409
   60SOL    HW2  199   0.540   1.736   0.258
   61SOL     OW  200   1.400   0.107   0.426
   61SOL    HW1  201   1.376   0.070   0.336
   61SOL    HW2  202   1.499   0.123   0.430
   62SOL     OW  203   0.249   1.785   1.241
   62SOL    HW1  204   0.306   1.720   1.291
   62SOL    HW2  205   0.233   1.752   1.148
   63SOL     OW  206   0.940   1.698   0.904
   63SOL    HW1  207   1.020   1.641   0.925
   63SOL    HW2  208   0.891   1.658   0.827
   64SOL     OW  209   0.382   0.700   0.480
   64SOL    HW1  210   0.427   0.610   0.477
   64SOL    HW2  211   0.288   0.689   0.513
   65SOL     OW  212   1.547   0.222   1.729
   65SOL    HW1  213   1.542   0.259   1.821
   65SOL    HW2  214   1.475   0.153   1.717
   66SOL     OW  215   0.614   0.122   0.117
   66SOL    HW1  216   0.712   0.100   0.124
   66SOL    HW2  217   0.583   0.105   0.024
   67SOL     OW  218   0.781   0.264   1.749
   67SOL    HW1  219   0.848   0.203   1.792
   67SOL    HW2  220   0.708   0.283   1.814
   68SOL     OW  221   0.888   1.514   1.195
   68SOL    HW1  222   0.865   1.489   1.101
   68SOL    HW2  223   0.949   1.445   1.234
   69SOL     OW  224   1.351   0.590   1.433
   69SOL    HW1  225   1.379   0.547   1.518
   69SOL    HW2  226   1.376   0.686   1.434
   70SOL     OW  227   0.803   1.402   0.924
   70SOL    HW1  228   0.893   1.416   0.882
   70SOL    HW2  229   0.732   1.404   0.853
   71SOL     OW  230   0.922   0.503   0.899
   71SOL    HW1  231   0.897   0.494   0.803
   71SOL    HW2  232   0.970   0.421   0.930
   72SOL     OW  233   0.539   0.064   0.512
   72SOL    HW1  234   0.458   0.065   0.570
   72SOL    HW2  235   0.542   0.147   0.457
   73SOL     OW  236   1.434   1.188   0.041
   73SOL    HW1  237   1.466   1.112   0.098
   73SOL    HW2  238   1.342   1.215   0.071
   74SOL     OW  239   0.297   0.035   0.171
   74SOL    HW1  240   0.346   0.119   0.150
   74SOL    HW2  241   0.359  -0.030   0.216
   75SOL     OW  242   0.935   0.236   0.480
   75SOL    HW1  243   0.887   0.277   0.402
   75SOL    HW2  244   1.034   0.234   0.461
   76SOL     OW  245   1.076   0.683   1.464
   76SOL    HW1  246   0.996   0.622   1.467
   76SOL    HW2  247   1.157   0.630   1.440
   77SOL     OW  248   1.227   1.570   0.793
   77SOL    HW1  249   1.248   1.644   0.728
   77SOL    HW2  250   1.295   1.570   0.866
   78SOL     OW  251   0.459   1.152   0.741
   78SOL    HW1  252   0.388   1.125   0.806
   78SOL    HW2  253   0.433   1.124   0.648
   79SOL     OW  254   1.271   1.797   0.591
   79SOL    HW1  255   1.315   1.861   0.527
   79SOL    HW2  256   1.221   1.849   0.661
   80SOL     OW  257   1.032   0.549   0.016
   80SOL    HW1  258   0.991   0.631  -0.023
   80SOL    HW2  259   1.096   0.575   0.089
   81SOL     OW  260   0.078   0.556   1.386
   81SOL    HW1  261   0.170   0.555   1.345
   81SOL    HW2  262   0.072   0.630   1.453
   82SOL     OW  263   0.561   0.222   1.147
   82SOL    HW1  264   0.599   0.138   1.184
   82SOL    HW2  265   0.473   0.241   1.191
   83SOL     OW  266   0.866   0.454   0.642
   83SOL    HW1  267   0.834   0.526   0.580
   83SOL    HW2  268   0.890   0.373   0.589
   84SOL     OW  269   1.017   0.039   0.753
   84SOL    HW1  270   0.945   0.044   0.684
   84SOL    HW2  271   0.993  -0.030   0.822
   85SOL     OW  272   1.429   1.173   0.867
   85SOL    HW1  273   1.374   1.089   0.860
   85SOL    HW2  274   1.455   1.202   0.775
   86SOL     OW  275   1.466   0.590   0.992
   86SOL    HW1  276   1.436   0.495   0.999
   86SOL    HW2  277   1.539   0.606   1.058
   87SOL     OW  278   1.857   0.833   0.377
   87SOL    HW1  279   1.899   0.769   0.441
   87SOL    HW2  280   1.819   0.782   0.299
   88SOL     OW  281   0.488   1.385   0.174
   88SOL    HW1  282   0.401   1.370   0.221
   88SOL    HW2  283   0.471   1.411   0.079
   89SOL     OW  284   1.664   1.280   0.657
   89SOL    HW1  285   1.763   1.288   0.671
   89SOL    HW2  286   1.619   1.364   0.688
   90SOL     OW  287   1.390   0.575   0.078
   90SOL    HW1  288   1.336   0.554   0.159
   90SOL    HW2  289   1.481   0.534   0.087
   91SOL     OW  290   0.527   0.256   0.328
   91SOL    HW1  291   0.554   0.197   0.253
   91SOL    HW2  292   0.527   0.351   0.297
   92SOL     OW  293   1.754   1.223   1.588
   92SOL    HW1  294   1.845   1.184   1.575
   92SOL    HW2  295   1.762   1.319   1.612
   93SOL     OW  296   1.064   1.347   1.340
   93SOL    HW1  297   0.984   1.324   1.395
   93SOL    HW2  298   1.147   1.321   1.389
   94SOL     OW  299   1.592   1.629   1.625
   94SOL    HW1  300   1.619   1.663   1.535
   94SOL    HW2  301   1.671   1.591   1.671
   95SOL     OW  302   1.111   1.195   1.100
   95SOL    HW1  303   1.071   1.239   1.181
   95SOL    HW2  304   1.070   1.232   1.017
   96SOL     OW  305   1.638   1.099   1.079
   96SOL    HW1  306   1.643   1.180   1.138
   96SOL    HW2  307   1.552   1.101   1.028
   97SOL     OW  308   0.915   0.089   1.402
   97SOL    HW1  309   0.940   0.069   1.307
   97SOL    HW2  310   0.987   0.145   1.444
   98SOL     OW  311   0.980   1.116   1.719
   98SOL    HW1  312   0.881   1.122   1.729
   98SOL    HW2  313   1.003   1.036   1.663
   99SOL     OW  314   0.705   1.050   0.368
   99SOL    HW1  315   0.691   1.057   0.467
   99SOL    HW2  316   0.789   0.999   0.350
  100SOL     OW  317   0.410   0.813   1.251
  100SOL    HW1  318   0.496   0.825   1.301
  100SOL    HW2  319   0.368   0.726   1.278
  101SOL     OW  320   1.274   0.386   1.262
  101SOL    HW1  321   1.295   0.460   1.326
  101SOL    HW2  322   1.185   0.403   1.219
  102SOL     OW  323   0.064   1.564   1.331
  102SOL    HW1  324   0.018   1.646   1.297
  102SOL    HW2  325   0.162   1.583   1.340
  103SOL     OW  326   0.367   1.100   0.501
  103SOL    HW1  327   0.360   1.183   0.445
  103SOL    HW2  328   0.371   1.020   0.441
  104SOL     OW  329   0.566   0.537   0.865
  104SOL    HW1  330   0.578   0.603   0.791
  104SOL    HW2  331   0.612   0.571   0.948
  105SOL     OW  332   1.252   1.348   0.388
  105SOL    HW1  333   1.302   1.425   0.428
  105SOL    HW2  334   1.157   1.350   0.420
  106SOL     OW  335   1.582   0.639   0.472
  106SOL    HW1  336   1.551   0.700   0.545
  106SOL    HW2  337   1.632   0.691   0.403
  107SOL     OW  338   0.354   1.510   1.329
  107SOL    HW1  339   0.333   1.466   1.242
  107SOL    HW2  340   0.451   1.536   1.332
  108SOL     OW  341   0.402   0.751   1.598
  108SOL    HW1  342   0.470   0.806   1.551
  108SOL    HW2  343   0.442   0.663   1.625
  109SOL     OW  344   1.587   0.779   1.670
  109SOL    HW1  345   1.495   0.817   1.665
  109SOL    HW2  346   1.647   0.826   1.605
  110SOL     OW  347   1.013   0.105   1.770
  110SOL    HW1  348   1.019   0.190   1.718
  110SOL    HW2  349   1.045   0.029   1.713
  111SOL     OW  350   0.504   0.050   1.740
  111SOL    HW1  351   0.462  -0.007   1.670
  111SOL    HW2  352   0.438   0.119   1.772
  112SOL     OW  353   0.573   0.870   1.029
  112SOL    HW1  354   0.617   0.959   1.020
  112SOL    HW2  355   0.510   0.870   1.106
  113SOL     OW  356   1.360   0.862   1.045
  113SOL    HW1  357   1.285   0.862   0.979
  113SOL    HW2  358   1.397   0.770   1.054
  114SOL     OW  359   1.209   0.525   0.275
  114SOL    HW1  360   1.222   0.441   0.329
  114SOL    HW2  361   1.180   0.599   0.335
  115SOL     OW  362   0.307   0.213   1.231
  115SOL    HW1  363   0.284   0.250   1.321
  115SOL    HW2  364   0.277   0.118   1.225
  116SOL     OW  365   0.037   1.310   1.282
  116SOL    HW1  366   0.090   1.261   1.350
  116SOL    HW2  367   0.059   1.408   1.287
  117SOL     OW  368   0.732   0.634   1.064
  117SOL    HW1  369   0.791   0.608   0.988
  117SOL    HW2  370   0.704   0.730   1.053
  118SOL     OW  371   1.728   0.935   1.854
  118SOL    HW1  372   1.682   0.928   1.765
  118SOL    HW2  373   1.666   0.979   1.920
  119SOL     OW  374   0.307   0.063   0.618
  119SOL    HW1  375   0.296   0.157   0.651
  119SOL    HW2  376   0.302   0.000   0.695
  120SOL     OW  377   1.622   0.367   0.374
  120SOL    HW1  378   1.624   0.291   0.438
  120SOL    HW2  379   1.574   0.444   0.414
  121SOL     OW  380   1.023   0.766   0.966
  121SOL    HW1  381   1.038   0.787   1.062
  121SOL    HW2  382   0.993   0.671   0.957
  122SOL     OW  383   0.980   1.573   1.700
  122SOL    HW1  384   0.960   1.617   1.612
  122SOL    HW2  385   1.019   1.482   1.684
  123SOL     OW  386   1.859   1.518   1.605
  123SOL    HW1  387   1.873   1.545   1.510
  123SOL    HW2  388   1.942   1.540   1.658
  124SOL     OW  389   0.350   0.898   1.804
  124SOL    HW1  390   0.426   0.942   1.852
  124SOL    HW2  391   0.385   0.851   1.722
  125SOL     OW  392   1.540   0.274   0.125
  125SOL    HW1  393   1.479   0.199   0.148
  125SOL    HW2  394   1.562   0.326   0.208
  126SOL     OW  395   1.303   0.838   0.042
  126SOL    HW1  396   1.337   0.745   0.057
  126SOL    HW2  397   1.321   0.865  -0.053
  127SOL     OW  398   1.068   1.333   0.849
  127SOL    HW1  399   1.075   1.249   0.794
  127SOL    HW2  400   1.130   1.402   0.813
  128SOL     OW  401   0.319   0.810   0.949
  128SOL    HW1  402   0.412   0.846   0.954
  128SOL    HW2  403   0.313   0.725   1.001
  129SOL     OW  404   0.339   0.509   1.006
  129SOL    HW1  405   0.287   0.426   0.989
  129SOL    HW2  406   0.416   0.514   0.942
  130SOL     OW  407   1.138   0.380   1.678
  130SOL    HW1  408   1.093   0.443   1.742
  130SOL    HW2  409   1.231   0.411   1.661
  131SOL     OW  410   1.160   0.207   1.477
  131SOL    HW1  411   1.160   0.271   1.554
  131SOL    HW2  412   1.188   0.255   1.394
  132SOL     OW  413   0.008   1.326   0.200
  132SOL    HW1  414  -0.085   1.347   0.169
  132SOL    HW2  415   0.018   1.227   0.213
  133SOL     OW  416   0.088   1.801   0.927
  133SOL    HW1  417   0.046   1.715   0.900
  133SOL    HW2  418   0.182   1.804   0.893
  134SOL     OW  419   0.504   1.568   0.910
  134SOL    HW1  420   0.570   1.642   0.919
  134SOL    HW2  421   0.548   1.489   0.868
  135SOL     OW  422   1.002   0.796   1.238
  135SOL    HW1  423   1.043   0.764   1.324
  135SOL    HW2  424   0.906   0.769   1.235
  136SOL     OW  425   0.040   0.544   1.114
  136SOL    HW1  426   0.125   0.511   1.073
  136SOL    HW2  427   0.053   0.559   1.212
  137SOL     OW  428   0.189   0.520   1.722
  137SOL    HW1  429   0.248   0.480   1.652
  137SOL    HW2  430   0.131   0.591   1.681
  138SOL     OW  431   0.815   0.572   0.325
  138SOL    HW1  432   0.822   0.483   0.279
  138SOL    HW2  433   0.721   0.606   0.317
  139SOL     OW  434   1.657   0.604   1.206
  139SOL    HW1  435   1.619   0.535   1.268
  139SOL    HW2  436   1.739   0.568   1.162
  140SOL     OW  437   0.252   1.564   1.744
  140SOL    HW1  438   0.222   1.621   1.820
  140SOL    HW2  439   0.245   1.467   1.770
  141SOL     OW  440   0.671   0.464   1.269
  141SOL    HW1  441   0.637   0.375   1.239
  141SOL    HW2  442   0.697   0.518   1.189
  142SOL     OW  443   0.930   1.678   1.465
  142SOL    HW1  444   0.906   1.660   1.370
  142SOL    HW2  445   0.960   1.772   1.475
  143SOL     OW  446   0.473   0.500   0.191
  143SOL    HW1  447   0.534   0.580   0.195
  143SOL    HW2  448   0.378   0.531   0.198
  144SOL     OW  449   0.159   1.137   1.466
  144SOL    HW1  450   0.181   1.076   1.542
  144SOL    HW2  451   0.169   1.088   1.380
  145SOL     OW  452   1.347   1.059   1.234
  145SOL    HW1  453   1.371   0.996   1.160
  145SOL    HW2  454   1.257   1.099   1.216
  146SOL     OW  455   1.302   0.855   0.309
  146SOL    HW1  456   1.216   0.824   0.351
  146SOL    HW2  457   1.298   0.841   0.210
  147SOL     OW  458   1.759   1.747   1.154
  147SOL    HW1  459   1.820   1.777   1.081
  147SOL    HW2  460   1.721   1.658   1.132
  148SOL     OW  461   0.083   1.258   1.022
  148SOL    HW1  462   0.078   1.257   1.122
  148SOL    HW2  463   0.000   1.217   0.984
  149SOL     OW  464   0.688   1.662   1.716
  149SOL    HW1  465   0.632   1.743   1.725
  149SOL    HW2  466   0.740   1.666   1.630
  150SOL     OW  467   0.903   0.086   0.133
  150SOL    HW1  468   0.954   0.087   0.047
  150SOL    HW2  469   0.959   0.044   0.204
  151SOL     OW  470   1.726   0.135   0.523
  151SOL    HW1  471   1.799   0.118   0.456
  151SOL    HW2  472   1.695   0.048   0.561
  152SOL     OW  473   1.388   1.573   0.477
  152SOL    HW1  474   1.455   1.585   0.403
  152SOL    HW2  475   1.348   1.662   0.500
  153SOL     OW  476   0.130   1.794   1.851
  153SOL    HW1  477   0.089   1.720   1.904
  153SOL    HW2  478   0.194   1.845   1.909
  154SOL     OW  479   1.280   0.927   0.672
  154SOL    HW1  480   1.340   0.846   0.674
  154SOL    HW2  481   1.320   0.996   0.612
  155SOL     OW  482   0.830   1.273   1.422
  155SOL    HW1  483   0.825   1.306   1.517
  155SOL    HW2  484   0.744   1.292   1.376
  156SOL     OW  485   0.672   1.616   0.154
  156SOL    HW1  486   0.681   1.626   0.055
  156SOL    HW2  487   0.632   1.527   0.175
  157SOL     OW  488   1.841   0.175   0.963
  157SOL    HW1  489   1.880   0.090   0.927
  157SOL    HW2  490   1.743   0.177   0.944
  158SOL     OW  491   0.263   0.326   0.720
  158SOL    HW1  492   0.184   0.377   0.686
  158SOL    HW2  493   0.254   0.311   0.818
  159SOL     OW  494   1.194   1.612   0.031
  159SOL    HW1  495   1.200   1.519   0.068
  159SOL    HW2  496   1.135   1.612  -0.049
  160SOL     OW  497   0.822   1.002   1.372
  160SOL    HW1  498   0.862   1.001   1.280
  160SOL    HW2  499   0.832   1.094   1.412
  161SOL     OW  500   0.916   0.910   0.291
  161SOL    HW1  501   0.979   0.948   0.223
  161SOL    HW2  502   0.956   0.827   0.330
  162SOL     OW  503   1.504   1.607   0.044
  162SOL    HW1  504   1.412   1.644   0.051
  162SOL    HW2  505   1.542   1.627  -0.046
  163SOL     OW  506   0.372   1.288   1.490
  163SOL    HW1  507   0.359   1.381   1.456
  163SOL    HW2  508   0.288   1.236   1.477
  164SOL     OW  509   1.614   1.292   1.289
  164SOL    HW1  510   1.674   1.295   1.369
  164SOL    HW2  511   1.539   1.356   1.302
  165SOL     OW  512   1.039   1.098   0.696
  165SOL    HW1  513   0.969   1.051   0.750
  165SOL    HW2  514   1.098   1.030   0.653
  166SOL     OW  515   1.014   0.236   0.971
  166SOL    HW1  516   1.006   0.200   0.878
  166SOL    HW2  517   1.012   0.160   1.036
  167SOL     OW  518   0.590   1.487   0.491
  167SOL    HW1  519   0.632   1.429   0.421
  167SOL    HW2  520   0.546   1.566   0.447
  168SOL     OW  521   1.709   0.385   1.381
  168SOL    HW1  522   1.782   0.454   1.385
  168SOL    HW2  523   1.737   0.310   1.322
  169SOL     OW  524   0.255   1.348   0.290
  169SOL    HW1  525   0.159   1.349   0.263
  169SOL    HW2  526   0.267   1.401   0.374
  170SOL     OW  527   0.105   1.013   1.726
  170SOL    HW1  528   0.028   0.980   1.780
  170SOL    HW2  529   0.190   0.983   1.768
  171SOL     OW  530   0.672   0.203   1.489
  171SOL    HW1  531   0.762   0.187   1.449
  171SOL    HW2  532   0.680   0.208   1.588
  172SOL     OW  533   0.075   0.345   0.033
  172SOL    HW1  534  -0.017   0.317   0.004
  172SOL    HW2  535   0.106   0.422  -0.023
  173SOL     OW  536   1.440   0.856   1.398
  173SOL    HW1  537   1.383   0.908   1.335
  173SOL    HW2  538   1.536   0.868   1.374
  174SOL     OW  539   0.072   0.166   0.318
  174SOL    HW1  540   0.055   0.249   0.264
  174SOL    HW2  541   0.162   0.129   0.296
  175SOL     OW  542   1.183   1.335   0.119
  175SOL    HW1  543   1.084   1.324   0.121
  175SOL    HW2  544   1.217   1.350   0.212
  176SOL     OW  545   0.613   0.842   1.431
  176SOL    HW1  546   0.669   0.923   1.414
  176SOL    HW2  547   0.672   0.762   1.434
  177SOL     OW  548   1.493   1.767   0.959
  177SOL    HW1  549   1.526   1.831   0.890
  177SOL    HW2  550   1.559   1.761   1.034
  178SOL     OW  551   0.716   0.565   1.708
  178SOL    HW1  552   0.735   0.630   1.782
  178SOL    HW2  553   0.776   0.485   1.717
  179SOL     OW  554   0.390   1.741   1.560
  179SOL    HW1  555   0.299   1.782   1.558
  179SOL    HW2  556   0.383   1.647   1.592
  180SOL     OW  557   1.674   0.883   1.254
  180SOL    HW1  558   1.647   0.794   1.217
  180SOL    HW2  559   1.675   0.951   1.181
  181SOL     OW  560   1.225   0.325   0.449
  181SOL    HW1  561   1.290   0.251   0.438
  181SOL    HW2  562   1.245   0.375   0.533
  182SOL     OW  563   0.594   0.745   0.652
  182SOL    HW1  564   0.644   0.830   0.633
  182SOL    HW2  565   0.506   0.747   0.604
  183SOL     OW  566   1.777   0.342   1.642
  183SOL    HW1  567   1.760   0.373   1.548
  183SOL    HW2  568   1.693   0.305   1.680
  184SOL     OW  569   1.730   0.934   1.517
  184SOL    HW1  570   1.768   1.025   1.532
  184SOL    HW2  571   1.722   0.917   1.418
  185SOL     OW  572   0.859   1.374   0.016
  185SOL    HW1  573   0.813   1.389   0.104
  185SOL    HW2  574   0.903   1.459  -0.014
  186SOL     OW  575   0.661   1.790   0.953
  186SOL    HW1  576   0.615   1.878   0.940
  186SOL    HW2  577   0.760   1.802   0.946
  187SOL     OW  578   0.859   0.956   0.861
  187SOL    HW1  579   0.913   0.887   0.909
  187SOL    HW2  580   0.827   1.025   0.927
  188SOL     OW  581   1.083   0.984   0.087
  188SOL    HW1  582   1.060   1.037   0.005
  188SOL    HW2  583   1.164   0.928   0.068
  189SOL     OW  584   1.861   1.569   0.851
  189SOL    HW1  585   1.790   1.557   0.781
  189SOL    HW2  586   1.862   1.490   0.911
  190SOL     OW  587   0.221   1.314   1.844
  190SOL    HW1  588   0.156   1.241   1.823
  190SOL    HW2  589   0.225   1.328   1.942
  191SOL     OW  590   0.079   1.240   0.653
  191SOL    HW1  591   0.078   1.193   0.741
  191SOL    HW2  592   0.161   1.212   0.602
  192SOL     OW  593   0.672   1.391   1.624
  192SOL    HW1  594   0.594   1.341   1.662
  192SOL    HW2  595   0.669   1.486   1.655
  193SOL     OW  596   1.824   0.192   1.227
  193SOL    HW1  597   1.820   0.102   1.271
  193SOL    HW2  598   1.827   0.181   1.128
  194SOL     OW  599   0.428   0.424   0.520
  194SOL    HW1  600   0.458   0.352   0.458
  194SOL    HW2  601   0.389   0.384   0.603
  195SOL     OW  602   1.705   1.487   1.104
  195SOL    HW1  603   1.612   1.462   1.077
  195SOL    HW2  604   1.731   1.437   1.186
  196SOL     OW  605   0.317   0.547   1.280
  196SOL    HW1  606   0.355   0.488   1.352
  196SOL    HW2  607   0.357   0.521   1.192
  197SOL     OW  608   0.812   1.586   0.687
  197SOL    HW1  609   0.844   1.596   0.593
  197SOL    HW2  610   0.733   1.524   0.689
  198SOL     OW  611   1.424   0.214   1.112
  198SOL    HW1  612   1.476   0.149   1.167
  198SOL    HW2  613   1.375   0.277   1.173
  199SOL     OW  614   1.001   0.034   1.154
  199SOL    HW1  615   0.938  -0.038   1.123
  199SOL    HW2  616   1.094  -0.002   1.154
  200SOL     OW  617   0.770   1.330   0.301
  200SOL    HW1  618   0.724   1.243   0.318
  200SOL    HW2  619   0.861   1.327   0.342
  201SOL     OW  620   0.618   1.567   1.284
  201SOL    HW1  621   0.613   1.649   1.341
  201SOL    HW2  622   0.707   1.564   1.239
  202SOL     OW  623   1.352   0.052   0.168
  202SOL    HW1  624   1.387   0.011   0.084
  202SOL    HW2  625   1.262   0.014   0.188
  203SOL     OW  626   1.300   0.453   0.691
  203SOL    HW1  627   1.241   0.533   0.695
  203SOL    HW2  628   1.315   0.418   0.784
  204SOL     OW  629   1.593   0.221   0.882
  204SOL    HW1  630   1.509   0.220   0.936
  204SOL    HW2  631   1.595   0.304   0.826
  205SOL     OW  632   0.039   1.077   0.300
  205SOL    HW1  633   0.138   1.066   0.291
  205SOL    HW2  634  -0.001   0.991   0.332
  206SOL     OW  635   0.875   1.646   0.337
  206SOL    HW1  636   0.798   1.611   0.283
  206SOL    HW2  637   0.843   1.717   0.399
  207SOL     OW  638   0.230   0.628   1.975
  207SOL    HW1  639   0.137   0.626   2.012
  207SOL    HW2  640   0.231   0.589   1.883
  208SOL     OW  641   0.019   0.368   2.509
  208SOL    HW1  642  -0.063   0.411   2.548
  208SOL    HW2  643  -0.009   0.295   2.446
  209SOL     OW  644   1.555   1.511   2.565
  209SOL    HW1  645   1.498   1.495   2.646
  209SOL    HW2  646   1.496   1.521   2.485
  210SOL     OW  647   1.135   0.703   2.579
  210SOL    HW1  648   1.192   0.781   2.554
  210SOL    HW2  649   1.075   0.729   2.655
  211SOL     OW  650   1.755   0.607   2.093
  211SOL    HW1  651   1.743   0.594   1.994
  211SOL    HW2  652   1.725   0.526   2.142
  212SOL     OW  653   0.685   1.012   2.527
  212SOL    HW1  654   0.754   0.996   2.597
  212SOL    HW2  655   0.612   1.069   2.565
  213SOL     OW  656   1.603   0.447   2.599
  213SOL    HW1  657   1.529   0.493   2.549
  213SOL    HW2  658   1.654   0.515   2.652
  214SOL     OW  659   0.231   1.713   2.345
  214SOL    HW1  660   0.265   1.790   2.399
  214SOL    HW2  661   0.275   1.713   2.255
  215SOL     OW  662   0.230   1.434   2.400
  215SOL    HW1  663   0.204   1.530   2.400
  215SOL    HW2  664   0.159   1.380   2.445
  216SOL     OW  665   0.240   1.091   2.748
  216SOL    HW1  666   0.254   1.007   2.800
  216SOL    HW2  667   0.185   1.155   2.803
  217SOL     OW  668   0.606   0.964   1.985
  217SOL    HW1  669   0.613   1.048   1.931
  217SOL    HW2  670   0.652   0.977   2.073
  218SOL     OW  671   0.122   0.643   2.425
  218SOL    HW1  672   0.077   0.555   2.442
  218SOL    HW2  673   0.121   0.697   2.509
  219SOL     OW  674   1.842   1.767   2.221
  219SOL    HW1  675   1.896   1.738   2.301
  219SOL    HW2  676   1.872   1.857   2.192
  220SOL     OW  677   0.027   1.596   1.979
  220SOL    HW1  678   0.008   1.500   2.000
  220SOL    HW2  679  -0.006   1.654   2.054
  221SOL     OW  680   1.689   0.922   2.474
  221SOL    HW1  681   1.784   0.893   2.482
  221SOL    HW2  682   1.681   0.987   2.399
  222SOL     OW  683   1.641   1.108   2.294
  222SOL    HW1  684   1.727   1.110   2.242
  222SOL    HW2  685   1.655   1.155   2.382
  223SOL     OW  686   0.613   1.365   2.588
  223SOL    HW1  687   0.564   1.278   2.597
  223SOL    HW2  688   0.590   1.408   2.501
  224SOL     OW  689   0.809   0.004   2.364
  224SOL    HW1  690   0.849   0.095   2.355
  224SOL    HW2  691   0.709   0.012   2.370
  225SOL     OW  692   1.525   0.999   2.052
  225SOL    HW1  693   1.462   0.923   2.065
  225SOL    HW2  694   1.573   1.017   2.138
  226SOL     OW  695   1.466   1.417   2.815
  226SOL    HW1  696   1.407   1.423   2.895
  226SOL    HW2  697   1.451   1.329   2.769
  227SOL     OW  698   1.667   1.714   2.434
  227SOL    HW1  699   1.626   1.691   2.346
  227SOL    HW2  700   1.649   1.640   2.499
  228SOL     OW  701   0.598   0.729   2.132
  228SOL    HW1  702   0.622   0.798   2.064
  228SOL    HW2  703   0.520   0.762   2.186
  229SOL     OW  704   1.281   0.345   2.806
  229SOL    HW1  705   1.195   0.295   2.793
  229SOL    HW2  706   1.343   0.291   2.862
  230SOL     OW  707   1.576   1.662   2.169
  230SOL    HW1  708   1.665   1.708   2.172
  230SOL    HW2  709   1.555   1.638   2.074
  231SOL     OW  710   1.041   0.701   2.291
  231SOL    HW1  711   1.067   0.697   2.387
  231SOL    HW2  712   0.956   0.650   2.277
  232SOL     OW  713   0.076   0.811   2.651
  232SOL    HW1  714   0.175   0.799   2.660
  232SOL    HW2  715   0.052   0.906   2.672
  233SOL     OW  716   0.865   0.348   2.057
  233SOL    HW1  717   0.924   0.411   2.008
  233SOL    HW2  718   0.884   0.254   2.028
  234SOL     OW  719   1.362   1.144   2.407
  234SOL    HW1  720   1.445   1.115   2.359
  234SOL    HW2  721   1.313   1.211   2.351
  235SOL     OW  722   1.008   1.456   2.339
  235SOL    HW1  723   0.962   1.528   2.287
  235SOL    HW2  724   1.004   1.476   2.437
  236SOL     OW  725   0.351   1.801   2.715
  236SOL    HW1  726   0.401   1.715   2.721
  236SOL    HW2  727   0.416   1.878   2.712
  237SOL     OW  728   1.795   1.066   2.735
  237SOL    HW1  729   1.733   1.051   2.659
  237SOL    HW2  730   1.743   1.077   2.820
  238SOL     OW  731   0.321   0.943   2.104
  238SOL    HW1  732   0.403   0.982   2.062
  238SOL    HW2  733   0.294   0.861   2.055
  239SOL     OW  734   1.458   0.735   2.590
  239SOL    HW1  735   1.453   0.670   2.665
  239SOL    HW2  736   1.538   0.794   2.603
  240SOL     OW  737   1.111   1.776   2.099
  240SOL    HW1  738   1.051   1.714   2.149
  240SOL    HW2  739   1.142   1.732   2.014
  241SOL     OW  740   1.632   1.377   1.943
  241SOL    HW1  741   1.600   1.471   1.933
  241SOL    HW2  742   1.556   1.314   1.931
  242SOL     OW  743   0.464   1.743   2.185
  242SOL    HW1  744   0.497   1.782   2.271
  242SOL    HW2  745   0.540   1.736   2.120
  243SOL     OW  746   1.400   0.107   2.288
  243SOL    HW1  747   1.376   0.070   2.198
  243SOL    HW2  748   1.499   0.123   2.292
  244SOL     OW  749   0.382   0.700   2.342
  244SOL    HW1  750   0.427   0.610   2.339
  244SOL    HW2  751   0.288   0.689   2.375
  245SOL     OW  752   0.614   0.122   1.979
  245SOL    HW1  753   0.712   0.100   1.986
  245SOL    HW2  754   0.583   0.105   1.886
  246SOL     OW  755   0.922   0.503   2.761
  246SOL    HW1  756   0.897   0.494   2.665
  246SOL    HW2  757   0.970   0.421   2.792
  247SOL     OW  758   0.539   0.064   2.374
  247SOL    HW1  759   0.458   0.065   2.432
  247SOL    HW2  760   0.542   0.147   2.319
  248SOL     OW  761   1.434   1.188   1.903
  248SOL    HW1  762   1.466   1.112   1.960
  248SOL    HW2  763   1.342   1.215   1.933
  249SOL     OW  764   0.297   0.035   2.033
  249SOL    HW1  765   0.346   0.119   2.012
  249SOL    HW2  766   0.359  -0.030   2.078
  250SOL     OW  767   0.935   0.236   2.342
  250SOL    HW1  768   0.887   0.277   2.264
  250SOL    HW2  769   1.034   0.234   2.323
  251SOL     OW  770   1.227   1.570   2.655
  251SOL    HW1  771   1.248   1.644   2.590
  251SOL    HW2  772   1.295   1.570   2.728
  252SOL     OW  773   0.459   1.152   2.603
  252SOL    HW1  774   0.388   1.125   2.668
  252SOL    HW2  775   0.433   1.124   2.510
  253SOL     OW  776   1.271   1.797   2.453
  253SOL    HW1  777   1.315   1.861   2.389
  253SOL    HW2  778   1.221   1.849   2.523
  254SOL     OW  779   1.032   0.549   1.878
  254SOL    HW1  780   0.991   0.631   1.839
  254SOL    HW2  781   1.096   0.575   1.951
  255SOL     OW  782   0.866   0.454   2.504
  255SOL    HW1  783   0.834   0.526   2.442
  255SOL    HW2  784   0.890   0.373   2.451
  256SOL     OW  785   1.017   0.039   2.615
  256SOL    HW1  786   0.945   0.044   2.546
  256SOL    HW2  787   0.993  -0.030   2.684
  257SOL     OW  788   1.429   1.173   2.729
  257SOL    HW1  789   1.374   1.089   2.722
  257SOL    HW2  790   1.455   1.202   2.637
  258SOL     OW  791   1.857   0.833   2.239
  258SOL    HW1  792   1.899   0.769   2.303
  258SOL    HW2  793   1.819   0.782   2.161
  259SOL     OW  794   0.488   1.385   2.036
  259SOL    HW1  795   0.401   1.370   2.083
  259SOL    HW2  796   0.471   1.411   1.941
  260SOL     OW  797   1.664   1.280   2.519
  260SOL    HW1  798   1.763   1.288   2.533
  260SOL    HW2  799   1.619   1.364   2.550
  261SOL     OW  800   1.390   0.575   1.940
  261SOL    HW1  801   1.336   0.554   2.021
  261SOL    HW2  802   1.481   0.534   1.949
  262SOL     OW  803   0.527   0.256   2.190
  262SOL    HW1  804   0.554   0.197   2.115
  262SOL    HW2  805   0.527   0.351   2.159
  263SOL     OW  806   0.705   1.050   2.230
  263SOL    HW1  807   0.691   1.057   2.329
  263SOL    HW2  808   0.789   0.999   2.212
  264SOL     OW  809   0.367   1.100   2.363
  264SOL    HW1  810   0.360   1.183   2.307
  264SOL    HW2  811   0.371   1.020   2.303
  265SOL     OW  812   0.566   0.537   2.727
  265SOL    HW1  813   0.578   0.603   2.653
  265SOL    HW2  814   0.612   0.571   2.810
  266SOL     OW  815   1.252   1.348   2.250
  266SOL    HW1  816   1.302   1.425   2.290
  266SOL    HW2  817   1.157   1.350   2.282
  267SOL     OW  818   1.582   0.639   2.334
  267SOL    HW1  819   1.551   0.700   2.407
  267SOL    HW2  820   1.632   0.691   2.265
  268SOL     OW  821   1.209   0.525   2.137
  268SOL    HW1  822   1.222   0.441   2.191
  268SOL    HW2  823   1.180   0.599   2.197
  269SOL     OW  824   0.732   0.634   2.926
  269SOL    HW1  825   0.791   0.608   2.850
  269SOL    HW2  826   0.704   0.730   2.915
  270SOL     OW  827   0.307   0.063   2.480
  270SOL    HW1  828   0.296   0.157   2.513
  270SOL    HW2  829   0.302   0.000   2.557
  271SOL     OW  830   1.622   0.367   2.236
  271SOL    HW1  831   1.624   0.291   2.300
  271SOL    HW2  832   1.574   0.444   2.276
  272SOL     OW  833   1.540   0.274   1.987
  272SOL    HW1  834   1.479   0.199   2.010
  272SOL    HW2  835   1.562   0.326   2.070
  273SOL     OW  836   1.303   0.838   1.904
  273SOL    HW1  837   1.337   0.745   1.919
  273SOL    HW2  838   1.321   0.865   1.809
  274SOL     OW  839   1.068   1.333   2.711
  274SOL    HW1  840   1.075   1.249   2.656
  274SOL    HW2  841   1.130   1.402   2.675
  275SOL     OW  842   0.319   0.810   2.811
  275SOL    HW1  843   0.412   0.846   2.816
  275SOL    HW2  844   0.313   0.725   2.863
  276SOL     OW  845   0.008   1.326   2.062
  276SOL    HW1  846  -0.085   1.347   2.031
  276SOL    HW2  847   0.018   1.227   2.075
  277SOL     OW  848   0.088   1.801   2.789
  277SOL    HW1  849   0.046   1.715   2.762
  277SOL    HW2  850   0.182   1.804   2.755
  278SOL     OW  851   0.504   1.568   2.772
  278SOL    HW1  852   0.570   1.642   2.781
  278SOL    HW2  853   0.548   1.489   2.730
  279SOL     OW  854   0.815   0.572   2.187
  279SOL    HW1  855   0.822   0.483   2.141
  279SOL    HW2  856   0.721   0.606   2.179
  280SOL     OW  857   0.473   0.500   2.053
  280SOL    HW1  858   0.534   0.580   2.057
  280SOL    HW2  859   0.378   0.531   2.060
  281SOL     OW  860   1.302   0.855   2.171
  281SOL    HW1  861   1.216   0.824   2.213
  281SOL    HW2  862   1.298   0.841   2.072
  282SOL     OW  863   1.759   1.747   3.016
  282SOL    HW1  864   1.820   1.777   2.943
  282SOL    HW2  865   1.721   1.658   2.994
  283SOL     OW  866   1.726   0.135   2.385
  283SOL    HW1  867   1.799   0.118   2.318
  283SOL    HW2  868   1.695   0.048   2.423
  284SOL     OW  869   1.388   1.573   2.339
  284SOL    HW1  870   1.455   1.585   2.265
  284SOL    HW2  871   1.348   1.662   2.362
  285SOL     OW  872   1.280   0.927   2.534
  285SOL    HW1  873   1.340   0.846   2.536
  285SOL    HW2  874   1.320   0.996   2.474
  286SOL     OW  875   0.672   1.616   2.016
  286SOL    HW1  876   0.681   1.626   1.917
  286SOL    HW2  877   0.632   1.527   2.037
  287SOL     OW  878   1.841   0.175   2.825
  287SOL    HW1  879   1.880   0.090   2.789
  287SOL    HW2  880   1.743   0.177   2.806
  288SOL     OW  881   0.263   0.326   2.582
  288SOL    HW1  882   0.184   0.377   2.548
  288SOL    HW2  883   0.254   0.311   2.680
  289SOL     OW  884   1.194   1.612   1.893
  289SOL    HW1  885   1.200   1.519   1.930
  289SOL    HW2  886   1.135   1.612   1.813
  290SOL     OW  887   0.916   0.910   2.153
  290SOL    HW1  888   0.979   0.948   2.085
  290SOL    HW2  889   0.956   0.827   2.192
  291SOL     OW  890   1.504   1.607   1.906
  291SOL    HW1  891   1.412   1.644   1.913
  291SOL    HW2  892   1.542   1.627   1.816
  292SOL     OW  893   1.039   1.098   2.558
  292SOL    HW1  894   0.969   1.051   2.612
  292SOL    HW2  895   1.098   1.030   2.515
  293SOL     OW  896   0.590   1.487   2.353
  293SOL    HW1  897   0.632   1.429   2.283
  293SOL    HW2  898   0.546   1.566   2.309
  294SOL     OW  899   0.255   1.348   2.152
  294SOL    HW1  900   0.159   1.349   2.125
  294SOL    HW2  901   0.267   1.401   2.236
  295SOL     OW  902   0.075   0.345   1.895
  295SOL    HW1  903  -0.017   0.317   1.866
  295SOL    HW2  904   0.106   0.422   1.839
  296SOL     OW  905   0.072   0.166   2.180
  296SOL    HW1  906   0.055   0.249   2.126
  296SOL    HW2  907   0.162   0.129   2.158
  297SOL     OW  908   1.183   1.335   1.981
  297SOL    HW1  909   1.084   1.324   1.983
  297SOL    HW2  910   1.217   1.350   2.074
  298SOL     OW  911   1.674   0.883   3.116
  298SOL    HW1  912   1.647   0.794   3.079
  298SOL    HW2  913   1.675   0.951   3.043
  299SOL     OW  914   1.225   0.325   2.311
  299SOL    HW1  915   1.290   0.251   2.300
  299SOL    HW2  916   1.245   0.375   2.395
  300SOL     OW  917   0.594   0.745   2.514
  300SOL    HW1  918   0.644   0.830   2.495
  300SOL    HW2  919   0.506   0.747   2.466
  301SOL     OW  920   0.859   1.374   1.878
  301SOL    HW1  921   0.813   1.389   1.966
  301SOL    HW2  922   0.903   1.459   1.848
  302SOL     OW  923   0.661   1.790   2.815
  302SOL    HW1  924   0.615   1.878   2.802
  302SOL    HW2  925   0.760   1.802   2.808
  303SOL     OW  926   0.859   0.956   2.723
  303SOL    HW1  927   0.913   0.887   2.771
  303SOL    HW2  928   0.827   1.025   2.789
  304SOL     OW  929   1.083   0.984   1.949
  304SOL    HW1  930   1.060   1.037   1.867
  304SOL    HW2  931   1.164   0.928   1.930
  305SOL     OW  932   1.861   1.569   2.713
  305SOL    HW1  933   1.790   1.557   2.643
  305SOL    HW2  934   1.862   1.490   2.773
  306SOL     OW  935   0.079   1.240   2.515
  306SOL    HW1  936   0.078   1.193   2.603
  306SOL    HW2  937   0.161   1.212   2.464
  307SOL     OW  938   1.824   0.192   3.089
  307SOL    HW1  939   1.820   0.102   3.133
  307SOL    HW2  940   1.827   0.181   2.990
  308SOL     OW  941   0.428   0.424   2.382
  308SOL    HW1  942   0.458   0.352   2.320
  308SOL    HW2  943   0.389   0.384   2.465
  309SOL     OW  944   0.812   1.586   2.549
  309SOL    HW1  945   0.844   1.596   2.455
  309SOL    HW2  946   0.733   1.524   2.551
  310SOL     OW  947   0.770   1.330   2.163
  310SOL    HW1  948   0.724   1.243   2.180
  310SOL    HW2  949   0.861   1.327   2.204
  311SOL     OW  950   1.352   0.052   2.030
  311SOL    HW1  951   1.387   0.011   1.946
  311SOL    HW2  952   1.262   0.014   2.050
  312SOL     OW  953   1.300   0.453   2.553
  312SOL    HW1  954   1.241   0.533   2.557
  312SOL    HW2  955   1.315   0.418   2.646
  313SOL     OW  956   1.593   0.221   2.744
  313SOL    HW1  957   1.509   0.220   2.798
  313SOL    HW2  958   1.595   0.304   2.688
  314SOL     OW  959   0.039   1.077   2.162
  314SOL    HW1  960   0.138   1.066   2.153
  314SOL    HW2  961  -0.001   0.991   2.194
  315SOL     OW  962   0.875   1.646   2.199
  315SOL    HW1  963   0.798   1.611   2.145
  315SOL    HW2  964   0.843   1.717   2.261
  316SOL     OW  965   0.230   2.490   0.113
  316SOL    HW1  966   0.137   2.488   0.150
  316SOL    HW2  967   0.231   2.451   0.021
  317SOL     OW  968   0.225   2.137   0.996
  317SOL    HW1  969   0.260   2.120   1.088
  317SOL    HW2  970   0.137   2.092   0.984
  318SOL     OW  971   0.019   2.230   0.647
  318SOL    HW1  972  -0.063   2.273   0.686
  318SOL    HW2  973  -0.009   2.157   0.584
  319SOL     OW  974   1.135   2.565   0.717
  319SOL    HW1  975   1.192   2.643   0.692
  319SOL    HW2  976   1.075   2.591   0.793
  320SOL     OW  977   1.755   2.469   0.231
  320SOL    HW1  978   1.743   2.456   0.132
  320SOL    HW2  979   1.725   2.388   0.280
  321SOL     OW  980   0.850   2.660   1.823
  321SOL    HW1  981   0.846   2.736   1.888
  321SOL    HW2  982   0.872   2.696   1.732
  322SOL     OW  983   0.685   2.874   0.665
  322SOL    HW1  984   0.754   2.858   0.735
  322SOL    HW2  985   0.612   2.931   0.703
  323SOL     OW  986   0.438   2.254   1.499
  323SOL    HW1  987   0.520   2.198   1.508
  323SOL    HW2  988   0.357   2.196   1.503
  324SOL     OW  989   1.603   2.309   0.737
  324SOL    HW1  990   1.529   2.355   0.687
  324SOL    HW2  991   1.654   2.377   0.790
  325SOL     OW  992   1.594   1.976   1.480
  325SOL    HW1  993   1.576   2.043   1.408
  325SOL    HW2  994   1.591   2.022   1.569
  326SOL     OW  995   0.122   2.505   0.563
  326SOL    HW1  996   0.077   2.417   0.580
  326SOL    HW2  997   0.121   2.559   0.647
  327SOL     OW  998   0.113   2.599   1.597
  327SOL    HW1  999   0.201   2.586   1.642
  327SOL    HW2 1000   0.100   2.696   1.575
  328SOL     OW 1001   0.809   1.866   0.502
  328SOL    HW1 1002   0.849   1.957   0.493
  328SOL    HW2 1003   0.709   1.874   0.508
  329SOL     OW 1004   0.197   2.838   1.264
  329SOL    HW1 1005   0.286   2.793   1.250
  329SOL    HW2 1006   0.124   2.773   1.245
  330SOL     OW 1007   1.525   2.861   0.190
  330SOL    HW1 1008   1.462   2.785   0.203
  330SOL    HW2 1009   1.573   2.879   0.276
  331SOL     OW 1010   0.317   2.113   1.801
  331SOL    HW1 1011   0.388   2.184   1.807
  331SOL    HW2 1012   0.229   2.152   1.829
  332SOL     OW 1013   0.598   2.591   0.270
  332SOL    HW1 1014   0.622   2.660   0.202
  332SOL    HW2 1015   0.520   2.624   0.324
  333SOL     OW 1016   1.281   2.207   0.944
  333SOL    HW1 1017   1.195   2.157   0.931
  333SOL    HW2 1018   1.343   2.153   1.000
  334SOL     OW 1019   0.807   2.467   1.465
  334SOL    HW1 1020   0.760   2.464   1.554
  334SOL    HW2 1021   0.756   2.412   1.399
  335SOL     OW 1022   1.394   2.331   1.674
  335SOL    HW1 1023   1.374   2.374   1.762
  335SOL    HW2 1024   1.472   2.269   1.683
  336SOL     OW 1025   0.973   2.752   1.572
  336SOL    HW1 1026   1.019   2.668   1.543
  336SOL    HW2 1027   0.917   2.786   1.497
  337SOL     OW 1028   0.991   2.272   1.242
  337SOL    HW1 1029   0.914   2.306   1.296
  337SOL    HW2 1030   0.957   2.221   1.163
  338SOL     OW 1031   1.041   2.563   0.429
  338SOL    HW1 1032   1.067   2.559   0.525
  338SOL    HW2 1033   0.956   2.512   0.415
  339SOL     OW 1034   0.076   2.673   0.789
  339SOL    HW1 1035   0.175   2.661   0.798
  339SOL    HW2 1036   0.052   2.768   0.810
  340SOL     OW 1037   0.865   2.210   0.195
  340SOL    HW1 1038   0.924   2.273   0.146
  340SOL    HW2 1039   0.884   2.116   0.166
  341SOL     OW 1040   1.719   2.447   1.831
  341SOL    HW1 1041   1.693   2.536   1.795
  341SOL    HW2 1042   1.717   2.379   1.758
  342SOL     OW 1043   0.550   2.058   0.885
  342SOL    HW1 1044   0.545   2.053   0.985
  342SOL    HW2 1045   0.552   2.154   0.856
  343SOL     OW 1046   1.458   2.597   0.728
  343SOL    HW1 1047   1.453   2.532   0.803
  343SOL    HW2 1048   1.538   2.656   0.741
  344SOL     OW 1049   0.202   2.147   1.498
  344SOL    HW1 1050   0.122   2.207   1.485
  344SOL    HW2 1051   0.192   2.098   1.584
  345SOL     OW 1052   1.400   1.969   0.426
  345SOL    HW1 1053   1.376   1.932   0.336
  345SOL    HW2 1054   1.499   1.985   0.430
  346SOL     OW 1055   0.382   2.562   0.480
  346SOL    HW1 1056   0.427   2.472   0.477
  346SOL    HW2 1057   0.288   2.551   0.513
  347SOL     OW 1058   1.547   2.084   1.729
  347SOL    HW1 1059   1.542   2.121   1.821
  347SOL    HW2 1060   1.475   2.015   1.717
  348SOL     OW 1061   0.781   2.126   1.749
  348SOL    HW1 1062   0.848   2.065   1.792
  348SOL    HW2 1063   0.708   2.145   1.814
  349SOL     OW 1064   1.351   2.452   1.433
  349SOL    HW1 1065   1.379   2.409   1.518
  349SOL    HW2 1066   1.376   2.548   1.434
  350SOL     OW 1067   0.922   2.365   0.899
  350SOL    HW1 1068   0.897   2.356   0.803
  350SOL    HW2 1069   0.970   2.283   0.930
  351SOL     OW 1070   0.539   1.926   0.512
  351SOL    HW1 1071   0.458   1.927   0.570
  351SOL    HW2 1072   0.542   2.009   0.457
  352SOL     OW 1073   0.297   1.897   0.171
  352SOL    HW1 1074   0.346   1.981   0.150
  352SOL    HW2 1075   0.359   1.832   0.216
  353SOL     OW 1076   0.935   2.098   0.480
  353SOL    HW1 1077   0.887   2.139   0.402
  353SOL    HW2 1078   1.034   2.096   0.461
  354SOL     OW 1079   1.076   2.545   1.464
  354SOL    HW1 1080   0.996   2.484   1.467
  354SOL    HW2 1081   1.157   2.492   1.440
  355SOL     OW 1082   1.032   2.411   0.016
  355SOL    HW1 1083   0.991   2.493  -0.023
  355SOL    HW2 1084   1.096   2.437   0.089
  356SOL     OW 1085   0.078   2.418   1.386
  356SOL    HW1 1086   0.170   2.417   1.345
  356SOL    HW2 1087   0.072   2.492   1.453
  357SOL     OW 1088   0.561   2.084   1.147
  357SOL    HW1 1089   0.599   2.000   1.184
  357SOL    HW2 1090   0.473   2.103   1.191
  358SOL     OW 1091   0.866   2.316   0.642
  358SOL    HW1 1092   0.834   2.388   0.580
  358SOL    HW2 1093   0.890   2.235   0.589
  359SOL     OW 1094   1.017   1.901   0.753
  359SOL    HW1 1095   0.945   1.906   0.684
  359SOL    HW2 1096   0.993   1.832   0.822
  360SOL     OW 1097   1.466   2.452   0.992
  360SOL    HW1 1098   1.436   2.357   0.999
  360SOL    HW2 1099   1.539   2.468   1.058
  361SOL     OW 1100   1.857   2.695   0.377
  361SOL    HW1 1101   1.899   2.631   0.441
  361SOL    HW2 1102   1.819   2.644   0.299
  362SOL     OW 1103   1.390   2.437   0.078
  362SOL    HW1 1104   1.336   2.416   0.159
  362SOL    HW2 1105   1.481   2.396   0.087
  363SOL     OW 1106   0.527   2.118   0.328
  363SOL    HW1 1107   0.554   2.059   0.253
  363SOL    HW2 1108   0.527   2.213   0.297
  364SOL     OW 1109   1.638   2.961   1.079
  364SOL    HW1 1110   1.643   3.042   1.138
  364SOL    HW2 1111   1.552   2.963   1.028
  365SOL     OW 1112   0.915   1.951   1.402
  365SOL    HW1 1113   0.940   1.931   1.307
  365SOL    HW2 1114   0.987   2.007   1.444
  366SOL     OW 1115   0.410   2.675   1.251
  366SOL    HW1 1116   0.496   2.687   1.301
  366SOL    HW2 1117   0.368   2.588   1.278
  367SOL     OW 1118   1.274   2.248   1.262
  367SOL    HW1 1119   1.295   2.322   1.326
  367SOL    HW2 1120   1.185   2.265   1.219
  368SOL     OW 1121   0.566   2.399   0.865
  368SOL    HW1 1122   0.578   2.465   0.791
  368SOL    HW2 1123   0.612   2.433   0.948
  369SOL     OW 1124   1.582   2.501   0.472
  369SOL    HW1 1125   1.551   2.562   0.545
  369SOL    HW2 1126   1.632   2.553   0.403
  370SOL     OW 1127   0.402   2.613   1.598
  370SOL    HW1 1128   0.470   2.668   1.551
  370SOL    HW2 1129   0.442   2.525   1.625
  371SOL     OW 1130   1.587   2.641   1.670
  371SOL    HW1 1131   1.495   2.679   1.665
  371SOL    HW2 1132   1.647   2.688   1.605
  372SOL     OW 1133   1.013   1.967   1.770
  372SOL    HW1 1134   1.019   2.052   1.718
  372SOL    HW2 1135   1.045   1.891   1.713
  373SOL     OW 1136   0.504   1.912   1.740
  373SOL    HW1 1137   0.462   1.855   1.670
  373SOL    HW2 1138   0.438   1.981   1.772
  374SOL     OW 1139   0.573   2.732   1.029
  374SOL    HW1 1140   0.617   2.821   1.020
  374SOL    HW2 1141   0.510   2.732   1.106
  375SOL     OW 1142   1.360   2.724   1.045
  375SOL    HW1 1143   1.285   2.724   0.979
  375SOL    HW2 1144   1.397   2.632   1.054
  376SOL     OW 1145   1.209   2.387   0.275
  376SOL    HW1 1146   1.222   2.303   0.329
  376SOL    HW2 1147   1.180   2.461   0.335
  377SOL     OW 1148   0.307   2.075   1.231
  377SOL    HW1 1149   0.284   2.112   1.321
  377SOL    HW2 1150   0.277   1.980   1.225
  378SOL     OW 1151   0.037   3.172   1.282
  378SOL    HW1 1152   0.090   3.123   1.350
  378SOL    HW2 1153   0.059   3.270   1.287
  379SOL     OW 1154   0.732   2.496   1.064
  379SOL    HW1 1155   0.791   2.470   0.988
  379SOL    HW2 1156   0.704   2.592   1.053
  380SOL     OW 1157   1.728   2.797   1.854
  380SOL    HW1 1158   1.682   2.790   1.765
  380SOL    HW2 1159   1.666   2.841   1.920
  381SOL     OW 1160   0.307   1.925   0.618
  381SOL    HW1 1161   0.296   2.019   0.651
  381SOL    HW2 1162   0.302   1.862   0.695
  382SOL     OW 1163   1.622   2.229   0.374
  382SOL    HW1 1164   1.624   2.153   0.438
  382SOL    HW2 1165   1.574   2.306   0.414
  383SOL     OW 1166   1.023   2.628   0.966
  383SOL    HW1 1167   1.038   2.649   1.062
  383SOL    HW2 1168   0.993   2.533   0.957
  384SOL     OW 1169   0.350   2.760   1.804
  384SOL    HW1 1170   0.426   2.804   1.852
  384SOL    HW2 1171   0.385   2.713   1.722
  385SOL     OW 1172   1.540   2.136   0.125
  385SOL    HW1 1173   1.479   2.061   0.148
  385SOL    HW2 1174   1.562   2.188   0.208
  386SOL     OW 1175   1.303   2.700   0.042
  386SOL    HW1 1176   1.337   2.607   0.057
  386SOL    HW2 1177   1.321   2.727  -0.053
  387SOL     OW 1178   0.319   2.672   0.949
  387SOL    HW1 1179   0.412   2.708   0.954
  387SOL    HW2 1180   0.313   2.587   1.001
  388SOL     OW 1181   0.339   2.371   1.006
  388SOL    HW1 1182   0.287   2.288   0.989
  388SOL    HW2 1183   0.416   2.376   0.942
  389SOL     OW 1184   1.138   2.242   1.678
  389SOL    HW1 1185   1.093   2.305   1.742
  389SOL    HW2 1186   1.231   2.273   1.661
  390SOL     OW 1187   1.160   2.069   1.477
  390SOL    HW1 1188   1.160   2.133   1.554
  390SOL    HW2 1189   1.188   2.117   1.394
  391SOL     OW 1190   1.002   2.658   1.238
  391SOL    HW1 1191   1.043   2.626   1.324
  391SOL    HW2 1192   0.906   2.631   1.235
  392SOL     OW 1193   0.040   2.406   1.114
  392SOL    HW1 1194   0.125   2.373   1.073
  392SOL    HW2 1195   0.053   2.421   1.212
  393SOL     OW 1196   0.189   2.382   1.722
  393SOL    HW1 1197   0.248   2.342   1.652
  393SOL    HW2 1198   0.131   2.453   1.681
  394SOL     OW 1199   1.369   2.812   1.660
  394SOL    HW1 1200   1.408   2.901   1.680
  394SOL    HW2 1201   1.379   2.792   1.563
  395SOL     OW 1202   0.815   2.434   0.325
  395SOL    HW1 1203   0.822   2.345   0.279
  395SOL    HW2 1204   0.721   2.468   0.317
  396SOL     OW 1205   1.657   2.466   1.206
  396SOL    HW1 1206   1.619   2.397   1.268
  396SOL    HW2 1207   1.739   2.430   1.162
  397SOL     OW 1208   0.671   2.326   1.269
  397SOL    HW1 1209   0.637   2.237   1.239
  397SOL    HW2 1210   0.697   2.380   1.189
  398SOL     OW 1211   0.473   2.362   0.191
  398SOL    HW1 1212   0.534   2.442   0.195
  398SOL    HW2 1213   0.378   2.393   0.198
  399SOL     OW 1214   1.347   2.921   1.234
  399SOL    HW1 1215   1.371   2.858   1.160
  399SOL    HW2 1216   1.257   2.961   1.216
  400SOL     OW 1217   1.302   2.717   0.309
  400SOL    HW1 1218   1.216   2.686   0.351
  400SOL    HW2 1219   1.298   2.703   0.210
  401SOL     OW 1220   0.903   1.948   0.133
  401SOL    HW1 1221   0.954   1.949   0.047
  401SOL    HW2 1222   0.959   1.906   0.204
  402SOL     OW 1223   1.726   1.997   0.523
  402SOL    HW1 1224   1.799   1.980   0.456
  402SOL    HW2 1225   1.695   1.910   0.561
  403SOL     OW 1226   1.280   2.789   0.672
  403SOL    HW1 1227   1.340   2.708   0.674
  403SOL    HW2 1228   1.320   2.858   0.612
  404SOL     OW 1229   1.841   2.037   0.963
  404SOL    HW1 1230   1.880   1.952   0.927
  404SOL    HW2 1231   1.743   2.039   0.944
  405SOL     OW 1232   0.263   2.188   0.720
  405SOL    HW1 1233   0.184   2.239   0.686
  405SOL    HW2 1234   0.254   2.173   0.818
  406SOL     OW 1235   1.014   2.098   0.971
  406SOL    HW1 1236   1.006   2.062   0.878
  406SOL    HW2 1237   1.012   2.022   1.036
  407SOL     OW 1238   1.709   2.247   1.381
  407SOL    HW1 1239   1.782   2.316   1.385
  407SOL    HW2 1240   1.737   2.172   1.322
  408SOL     OW 1241   0.105   2.875   1.726
  408SOL    HW1 1242   0.028   2.842   1.780
  408SOL    HW2 1243   0.190   2.845   1.768
  409SOL     OW 1244   0.672   2.065   1.489
  409SOL    HW1 1245   0.762   2.049   1.449
  409SOL    HW2 1246   0.680   2.070   1.588
  410SOL     OW 1247   0.075   2.207   0.033
  410SOL    HW1 1248  -0.017   2.179   0.004
  410SOL    HW2 1249   0.106   2.284  -0.023
  411SOL     OW 1250   1.440   2.718   1.398
  411SOL    HW1 1251   1.383   2.770   1.335
  411SOL    HW2 1252   1.536   2.730   1.374
  412SOL     OW 1253   0.072   2.028   0.318
  412SOL    HW1 1254   0.055   2.111   0.264
  412SOL    HW2 1255   0.162   1.991   0.296
  413SOL     OW 1256   0.613   2.704   1.431
  413SOL    HW1 1257   0.669   2.785   1.414
  413SOL    HW2 1258   0.672   2.624   1.434
  414SOL     OW 1259   0.716   2.427   1.708
  414SOL    HW1 1260   0.735   2.492   1.782
  414SOL    HW2 1261   0.776   2.347   1.717
  415SOL     OW 1262   1.674   2.745   1.254
  415SOL    HW1 1263   1.647   2.656   1.217
  415SOL    HW2 1264   1.675   2.813   1.181
  416SOL     OW 1265   1.225   2.187   0.449
  416SOL    HW1 1266   1.290   2.113   0.438
  416SOL    HW2 1267   1.245   2.237   0.533
  417SOL     OW 1268   0.594   2.607   0.652
  417SOL    HW1 1269   0.644   2.692   0.633
  417SOL    HW2 1270   0.506   2.609   0.604
  418SOL     OW 1271   1.777   2.204   1.642
  418SOL    HW1 1272   1.760   2.235   1.548
  418SOL    HW2 1273   1.693   2.167   1.680
  419SOL     OW 1274   1.730   2.796   1.517
  419SOL    HW1 1275   1.768   2.887   1.532
  419SOL    HW2 1276   1.722   2.779   1.418
  420SOL     OW 1277   1.824   2.054   1.227
  420SOL    HW1 1278   1.820   1.964   1.271
  420SOL    HW2 1279   1.827   2.043   1.128
  421SOL     OW 1280   0.428   2.286   0.520
  421SOL    HW1 1281   0.458   2.214   0.458
  421SOL    HW2 1282   0.389   2.246   0.603
  422SOL     OW 1283   0.317   2.409   1.280
  422SOL    HW1 1284   0.355   2.350   1.352
  422SOL    HW2 1285   0.357   2.383   1.192
  423SOL     OW 1286   1.424   2.076   1.112
  423SOL    HW1 1287   1.476   2.011   1.167
  423SOL    HW2 1288   1.375   2.139   1.173
  424SOL     OW 1289   1.001   1.896   1.154
  424SOL    HW1 1290   0.938   1.824   1.123
  424SOL    HW2 1291   1.094   1.860   1.154
  425SOL     OW 1292   1.352   1.914   0.168
  425SOL    HW1 1293   1.387   1.873   0.084
  425SOL    HW2 1294   1.262   1.876   0.188
  426SOL     OW 1295   1.300   2.315   0.691
  426SOL    HW1 1296   1.241   2.395   0.695
  426SOL    HW2 1297   1.315   2.280   0.784
  427SOL     OW 1298   1.593   2.083   0.882
  427SOL    HW1 1299   1.509   2.082   0.936
  427SOL    HW2 1300   1.595   2.166   0.826
  428SOL     OW 1301   0.230   2.490   1.975
  428SOL    HW1 1302   0.137   2.488   2.012
  428SOL    HW2 1303   0.231   2.451   1.883
  429SOL     OW 1304   0.019   2.230   2.509
  429SOL    HW1 1305  -0.063   2.273   2.548
  429SOL    HW2 1306  -0.009   2.157   2.446
  430SOL     OW 1307   1.135   2.565   2.579
  430SOL    HW1 1308   1.192   2.643   2.554
  430SOL    HW2 1309   1.075   2.591   2.655
  431SOL     OW 1310   1.755   2.469   2.093
  431SOL    HW1 1311   1.743   2.456   1.994
  431SOL    HW2 1312   1.725   2.388   2.142
  432SOL     OW 1313   0.685   2.874   2.527
  432SOL    HW1 1314   0.754   2.858   2.597
  432SOL    HW2 1315   0.612   2.931   2.565
  433SOL     OW 1316   1.603   2.309   2.599
  433SOL    HW1 1317   1.529   2.355   2.549
  433SOL    HW2 1318   1.654   2.377   2.652
  434SOL     OW 1319   0.240   2.953   2.748
  434SOL    HW1 1320   0.254   2.869   2.800
  434SOL    HW2 1321   0.185   3.017   2.803
  435SOL     OW 1322   0.122   2.505   2.425
  435SOL    HW1 1323   0.077   2.417   2.442
  435SOL    HW2 1324   0.121   2.559   2.509
  436SOL     OW 1325   0.809   1.866   2.364
  436SOL    HW1 1326   0.849   1.957   2.355
  436SOL    HW2 1327   0.709   1.874   2.370
  437SOL     OW 1328   1.525   2.861   2.052
  437SOL    HW1 1329   1.462   2.785   2.065
  437SOL    HW2 1330   1.573   2.879   2.138
  438SOL     OW 1331   0.598   2.591   2.132
  438SOL    HW1 1332   0.622   2.660   2.064
  438SOL    HW2 1333   0.520   2.624   2.186
  439SOL     OW 1334   1.281   2.207   2.806
  439SOL    HW1 1335   1.195   2.157   2.793
  439SOL    HW2 1336   1.343   2.153   2.862
  440SOL     OW 1337   1.041   2.563   2.291
  440SOL    HW1 1338   1.067   2.559   2.387
  440SOL    HW2 1339   0.956   2.512   2.277
  441SOL     OW 1340   0.076   2.673   2.651
  441SOL    HW1 1341   0.175   2.661   2.660
  441SOL    HW2 1342   0.052   2.768   2.672
  442SOL     OW 1343   0.865   2.210   2.057
  442SOL    HW1 1344   0.924   2.273   2.008
  442SOL    HW2 1345   0.884   2.116   2.028
  443SOL     OW 1346   0.550   2.058   2.747
  443SOL    HW1 1347   0.545   2.053   2.847
  443SOL    HW2 1348   0.552   2.154   2.718
  444SOL     OW 1349   1.458   2.597   2.590
  444SOL    HW1 1350   1.453   2.532   2.665
  444SOL    HW2 1351   1.538   2.656   2.603
  445SOL     OW 1352   1.400   1.969   2.288
  445SOL    HW1 1353   1.376   1.932   2.198
  445SOL    HW2 1354   1.499   1.985   2.292
  446SOL     OW 1355   0.382   2.562   2.342
  446SOL    HW1 1356   0.427   2.472   2.339
  446SOL    HW2 1357   0.288   2.551   2.375
  447SOL     OW 1358   0.614   1.984   1.979
  447SOL    HW1 1359   0.712   1.962   1.986
  447SOL    HW2 1360   0.583   1.967   1.886
  448SOL     OW 1361   0.922   2.365   2.761
  448SOL    HW1 1362   0.897   2.356   2.665
  448SOL    HW2 1363   0.970   2.283   2.792
  449SOL     OW 1364   0.539   1.926   2.374
  449SOL    HW1 1365   0.458   1.927   2.432
  449SOL    HW2 1366   0.542   2.009   2.319
  450SOL     OW 1367   0.297   1.897   2.033
  450SOL    HW1 1368   0.346   1.981   2.012
  450SOL    HW2 1369   0.359   1.832   2.078
  451SOL     OW 1370   0.935   2.098   2.342
  451SOL    HW1 1371   0.887   2.139   2.264
  451SOL    HW2 1372   1.034   2.096   2.323
  452SOL     OW 1373   1.032   2.411   1.878
  452SOL    HW1 1374   0.991   2.493   1.839
  452SOL    HW2 1375   1.096   2.437   1.951
  453SOL     OW 1376   0.866   2.316   2.504
  453SOL    HW1 1377   0.834   2.388   2.442
  453SOL    HW2 1378   0.890   2.235   2.451
  454SOL     OW 1379   1.017   1.901   2.615
  454SOL    HW1 1380   0.945   1.906   2.546
  454SOL    HW2 1381   0.993   1.832   2.684
  455SOL     OW 1382   1.857   2.695   2.239
  455SOL    HW1 1383   1.899   2.631   2.303
  455SOL    HW2 1384   1.819   2.644   2.161
  456SOL     OW 1385   1.390   2.437   1.940
  456SOL    HW1 1386   1.336   2.416   2.021
  456SOL    HW2 1387   1.481   2.396   1.949
  457SOL     OW 1388   0.527   2.118   2.190
  457SOL    HW1 1389   0.554   2.059   2.115
  457SOL    HW2 1390   0.527   2.213   2.159
  458SOL     OW 1391   1.111   3.057   2.962
  458SOL    HW1 1392   1.071   3.101   3.043
  458SOL    HW2 1393   1.070   3.094   2.879
  459SOL     OW 1394   0.566   2.399   2.727
  459SOL    HW1 1395   0.578   2.465   2.653
  459SOL    HW2 1396   0.612   2.433   2.810
  460SOL     OW 1397   1.582   2.501   2.334
  460SOL    HW1 1398   1.551   2.562   2.407
  460SOL    HW2 1399   1.632   2.553   2.265
  461SOL     OW 1400   0.573   2.732   2.891
  461SOL    HW1 1401   0.617   2.821   2.882
  461SOL    HW2 1402   0.510   2.732   2.968
  462SOL     OW 1403   1.209   2.387   2.137
  462SOL    HW1 1404   1.222   2.303   2.191
  462SOL    HW2 1405   1.180   2.461   2.197
  463SOL     OW 1406   0.732   2.496   2.926
  463SOL    HW1 1407   0.791   2.470   2.850
  463SOL    HW2 1408   0.704   2.592   2.915
  464SOL     OW 1409   0.307   1.925   2.480
  464SOL    HW1 1410   0.296   2.019   2.513
  464SOL    HW2 1411   0.302   1.862   2.557
  465SOL     OW 1412   1.622   2.229   2.236
  465SOL    HW1 1413   1.624   2.153   2.300
  465SOL    HW2 1414   1.574   2.306   2.276
  466SOL     OW 1415   1.540   2.136   1.987
  466SOL    HW1 1416   1.479   2.061   2.010
  466SOL    HW2 1417   1.562   2.188   2.070
  467SOL     OW 1418   1.303   2.700   1.904
  467SOL    HW1 1419   1.337   2.607   1.919
  467SOL    HW2 1420   1.321   2.727   1.809
  468SOL     OW 1421   0.319   2.672   2.811
  468SOL    HW1 1422   0.412   2.708   2.816
  468SOL    HW2 1423   0.313   2.587   2.863
  469SOL     OW 1424   0.815   2.434   2.187
  469SOL    HW1 1425   0.822   2.345   2.141
  469SOL    HW2 1426   0.721   2.468   2.179
  470SOL     OW 1427   0.473   2.362   2.053
  470SOL    HW1 1428   0.534   2.442   2.057
  470SOL    HW2 1429   0.378   2.393   2.060
  471SOL     OW 1430   1.302   2.717   2.171
  471SOL    HW1 1431   1.216   2.686   2.213
  471SOL    HW2 1432   1.298   2.703   2.072
  472SOL     OW 1433   1.726   1.997   2.385
  472SOL    HW1 1434   1.799   1.980   2.318
  472SOL    HW2 1435   1.695   1.910   2.423
  473SOL     OW 1436   1.280   2.789   2.534
  473SOL    HW1 1437   1.340   2.708   2.536
  473SOL    HW2 1438   1.320   2.858   2.474
  474SOL     OW 1439   1.841   2.037   2.825
  474SOL    HW1 1440   1.880   1.952   2.789
  474SOL    HW2 1441   1.743   2.039   2.806
  475SOL     OW 1442   0.263   2.188   2.582
  475SOL    HW1 1443   0.184   2.239   2.548
  475SOL    HW2 1444   0.254   2.173   2.680
  476SOL     OW 1445   0.916   2.772   2.153
  476SOL    HW1 1446   0.979   2.810   2.085
  476SOL    HW2 1447   0.956   2.689   2.192
  477SOL     OW 1448   0.075   2.207   1.895
  477SOL    HW1 1449  -0.017   2.179   1.866
  477SOL    HW2 1450   0.106   2.284   1.839
  478SOL     OW 1451   0.072   2.028   2.180
  478SOL    HW1 1452   0.055   2.111   2.126
  478SOL    HW2 1453   0.162   1.991   2.158
  479SOL     OW 1454   1.674   2.745   3.116
  479SOL    HW1 1455   1.647   2.656   3.079
  479SOL    HW2 1456   1.675   2.813   3.043
  480SOL     OW 1457   1.225   2.187   2.311
  480SOL    HW1 1458   1.290   2.113   2.300
  480SOL    HW2 1459   1.245   2.237   2.395
  481SOL     OW 1460   0.594   2.607   2.514
  481SOL    HW1 1461   0.644   2.692   2.495
  481SOL    HW2 1462   0.506   2.609   2.466
  482SOL     OW 1463   1.824   2.054   3.089
  482SOL    HW1 1464   1.820   1.964   3.133
  482SOL    HW2 1465   1.827   2.043   2.990
  483SOL     OW 1466   0.428   2.286   2.382
  483SOL    HW1 1467   0.458   2.214   2.320
  483SOL    HW2 1468   0.389   2.246   2.465
  484SOL     OW 1469   1.352   1.914   2.030
  484SOL    HW1 1470   1.387   1.873   1.946
  484SOL    HW2 1471   1.262   1.876   2.050
  485SOL     OW 1472   1.300   2.315   2.553
  485SOL    HW1 1473   1.241   2.395   2.557
  485SOL    HW2 1474   1.315   2.280   2.646
  486SOL     OW 1475   1.593   2.083   2.744
  486SOL    HW1 1476   1.509   2.082   2.798
  486SOL    HW2 1477   1.595   2.166   2.688
  487SOL     OW 1478   2.092   0.628   0.113
  487SOL    HW1 1479   1.999   0.626   0.150
  487SOL    HW2 1480   2.093   0.589   0.021
  488SOL     OW 1481   2.087   0.275   0.996
  488SOL    HW1 1482   2.122   0.258   1.088
  488SOL    HW2 1483   1.999   0.230   0.984
  489SOL     OW 1484   1.881   0.368   0.647
  489SOL    HW1 1485   1.799   0.411   0.686
  489SOL    HW2 1486   1.853   0.295   0.584
  490SOL     OW 1487   2.431   1.275   1.165
  490SOL    HW1 1488   2.338   1.268   1.128
  490SOL    HW2 1489   2.442   1.364   1.209
  491SOL     OW 1490   2.630   1.144   1.023
  491SOL    HW1 1491   2.552   1.161   1.083
  491SOL    HW2 1492   2.664   1.231   0.987
  492SOL     OW 1493   2.712   0.798   1.823
  492SOL    HW1 1494   2.708   0.874   1.888
  492SOL    HW2 1495   2.734   0.834   1.732
  493SOL     OW 1496   2.547   1.012   0.665
  493SOL    HW1 1497   2.616   0.996   0.735
  493SOL    HW2 1498   2.474   1.069   0.703
  494SOL     OW 1499   2.548   1.161   1.803
  494SOL    HW1 1500   2.608   1.240   1.817
  494SOL    HW2 1501   2.462   1.192   1.762
  495SOL     OW 1502   2.197   1.435   1.061
  495SOL    HW1 1503   2.119   1.404   1.008
  495SOL    HW2 1504   2.255   1.493   1.004
  496SOL     OW 1505   2.300   0.392   1.499
  496SOL    HW1 1506   2.382   0.336   1.508
  496SOL    HW2 1507   2.219   0.334   1.503
  497SOL     OW 1508   2.093   1.713   0.483
  497SOL    HW1 1509   2.127   1.790   0.537
  497SOL    HW2 1510   2.137   1.713   0.393
  498SOL     OW 1511   2.092   1.434   0.538
  498SOL    HW1 1512   2.066   1.530   0.538
  498SOL    HW2 1513   2.021   1.380   0.583
  499SOL     OW 1514   2.102   1.091   0.886
  499SOL    HW1 1515   2.116   1.007   0.938
  499SOL    HW2 1516   2.047   1.155   0.941
  500SOL     OW 1517   2.482   1.786   1.439
  500SOL    HW1 1518   2.390   1.769   1.474
  500SOL    HW2 1519   2.510   1.878   1.465
  501SOL     OW 1520   2.468   0.964   0.123
  501SOL    HW1 1521   2.475   1.048   0.069
  501SOL    HW2 1522   2.514   0.977   0.211
  502SOL     OW 1523   1.984   0.643   0.563
  502SOL    HW1 1524   1.939   0.555   0.580
  502SOL    HW2 1525   1.983   0.697   0.647
  503SOL     OW 1526   1.975   0.737   1.597
  503SOL    HW1 1527   2.063   0.724   1.642
  503SOL    HW2 1528   1.962   0.834   1.575
  504SOL     OW 1529   2.475   1.365   0.726
  504SOL    HW1 1530   2.426   1.278   0.735
  504SOL    HW2 1531   2.452   1.408   0.639
  505SOL     OW 1532   2.671   0.004   0.502
  505SOL    HW1 1533   2.711   0.095   0.493
  505SOL    HW2 1534   2.571   0.012   0.508
  506SOL     OW 1535   2.059   0.976   1.264
  506SOL    HW1 1536   2.148   0.931   1.250
  506SOL    HW2 1537   1.986   0.911   1.245
  507SOL     OW 1538   2.179   0.251   1.801
  507SOL    HW1 1539   2.250   0.322   1.807
  507SOL    HW2 1540   2.091   0.290   1.829
  508SOL     OW 1541   2.460   0.729   0.270
  508SOL    HW1 1542   2.484   0.798   0.202
  508SOL    HW2 1543   2.382   0.762   0.324
  509SOL     OW 1544   2.669   0.605   1.465
  509SOL    HW1 1545   2.622   0.602   1.554
  509SOL    HW2 1546   2.618   0.550   1.399
  510SOL     OW 1547   1.938   0.811   0.789
  510SOL    HW1 1548   2.037   0.799   0.798
  510SOL    HW2 1549   1.914   0.906   0.810
  511SOL     OW 1550   1.992   1.821   1.571
  511SOL    HW1 1551   1.982   1.806   1.670
  511SOL    HW2 1552   1.906   1.857   1.535
  512SOL     OW 1553   2.727   0.348   0.195
  512SOL    HW1 1554   2.786   0.411   0.146
  512SOL    HW2 1555   2.746   0.254   0.166
  513SOL     OW 1556   2.412   0.196   0.885
  513SOL    HW1 1557   2.407   0.191   0.985
  513SOL    HW2 1558   2.414   0.292   0.856
  514SOL     OW 1559   2.870   1.456   0.477
  514SOL    HW1 1560   2.824   1.528   0.425
  514SOL    HW2 1561   2.866   1.476   0.575
  515SOL     OW 1562   2.213   1.801   0.853
  515SOL    HW1 1563   2.263   1.715   0.859
  515SOL    HW2 1564   2.278   1.878   0.850
  516SOL     OW 1565   2.183   0.943   0.242
  516SOL    HW1 1566   2.265   0.982   0.200
  516SOL    HW2 1567   2.156   0.861   0.193
  517SOL     OW 1568   2.323   1.266   1.727
  517SOL    HW1 1569   2.273   1.267   1.641
  517SOL    HW2 1570   2.260   1.248   1.803
  518SOL     OW 1571   2.064   0.285   1.498
  518SOL    HW1 1572   1.984   0.345   1.485
  518SOL    HW2 1573   2.054   0.236   1.584
  519SOL     OW 1574   2.326   1.743   0.323
  519SOL    HW1 1575   2.359   1.782   0.409
  519SOL    HW2 1576   2.402   1.736   0.258
  520SOL     OW 1577   2.111   1.785   1.241
  520SOL    HW1 1578   2.168   1.720   1.291
  520SOL    HW2 1579   2.095   1.752   1.148
  521SOL     OW 1580   2.244   0.700   0.480
  521SOL    HW1 1581   2.289   0.610   0.477
  521SOL    HW2 1582   2.150   0.689   0.513
  522SOL     OW 1583   2.476   0.122   0.117
  522SOL    HW1 1584   2.574   0.100   0.124
  522SOL    HW2 1585   2.445   0.105   0.024
  523SOL     OW 1586   2.643   0.264   1.749
  523SOL    HW1 1587   2.710   0.203   1.792
  523SOL    HW2 1588   2.570   0.283   1.814
  524SOL     OW 1589   2.750   1.514   1.195
  524SOL    HW1 1590   2.727   1.489   1.101
  524SOL    HW2 1591   2.811   1.445   1.234
  525SOL     OW 1592   2.665   1.402   0.924
  525SOL    HW1 1593   2.755   1.416   0.882
  525SOL    HW2 1594   2.594   1.404   0.853
  526SOL     OW 1595   2.784   0.503   0.899
  526SOL    HW1 1596   2.759   0.494   0.803
  526SOL    HW2 1597   2.832   0.421   0.930
  527SOL     OW 1598   2.401   0.064   0.512
  527SOL    HW1 1599   2.320   0.065   0.570
  527SOL    HW2 1600   2.404   0.147   0.457
  528SOL     OW 1601   2.159   0.035   0.171
  528SOL    HW1 1602   2.208   0.119   0.150
  528SOL    HW2 1603   2.221  -0.030   0.216
  529SOL     OW 1604   3.089   1.570   0.793
  529SOL    HW1 1605   3.110   1.644   0.728
  529SOL    HW2 1606   3.157   1.570   0.866
  530SOL     OW 1607   2.321   1.152   0.741
  530SOL    HW1 1608   2.250   1.125   0.806
  530SOL    HW2 1609   2.295   1.124   0.648
  531SOL     OW 1610   1.940   0.556   1.386
  531SOL    HW1 1611   2.032   0.555   1.345
  531SOL    HW2 1612   1.934   0.630   1.453
  532SOL     OW 1613   2.423   0.222   1.147
  532SOL    HW1 1614   2.461   0.138   1.184
  532SOL    HW2 1615   2.335   0.241   1.191
  533SOL     OW 1616   2.350   1.385   0.174
  533SOL    HW1 1617   2.263   1.370   0.221
  533SOL    HW2 1618   2.333   1.411   0.079
  534SOL     OW 1619   2.389   0.256   0.328
  534SOL    HW1 1620   2.416   0.197   0.253
  534SOL    HW2 1621   2.389   0.351   0.297
  535SOL     OW 1622   2.777   0.089   1.402
  535SOL    HW1 1623   2.802   0.069   1.307
  535SOL    HW2 1624   2.849   0.145   1.444
  536SOL     OW 1625   2.567   1.050   0.368
  536SOL    HW1 1626   2.553   1.057   0.467
  536SOL    HW2 1627   2.651   0.999   0.350
  537SOL     OW 1628   2.272   0.813   1.251
  537SOL    HW1 1629   2.358   0.825   1.301
  537SOL    HW2 1630   2.230   0.726   1.278
  538SOL     OW 1631   1.926   1.564   1.331
  538SOL    HW1 1632   1.880   1.646   1.297
  538SOL    HW2 1633   2.024   1.583   1.340
  539SOL     OW 1634   2.229   1.100   0.501
  539SOL    HW1 1635   2.222   1.183   0.445
  539SOL    HW2 1636   2.233   1.020   0.441
  540SOL     OW 1637   2.428   0.537   0.865
  540SOL    HW1 1638   2.440   0.603   0.791
  540SOL    HW2 1639   2.474   0.571   0.948
  541SOL     OW 1640   2.216   1.510   1.329
  541SOL    HW1 1641   2.195   1.466   1.242
  541SOL    HW2 1642   2.313   1.536   1.332
  542SOL     OW 1643   2.264   0.751   1.598
  542SOL    HW1 1644   2.332   0.806   1.551
  542SOL    HW2 1645   2.304   0.663   1.625
  543SOL     OW 1646   2.366   0.050   1.740
  543SOL    HW1 1647   2.324  -0.007   1.670
  543SOL    HW2 1648   2.300   0.119   1.772
  544SOL     OW 1649   2.435   0.870   1.029
  544SOL    HW1 1650   2.479   0.959   1.020
  544SOL    HW2 1651   2.372   0.870   1.106
  545SOL     OW 1652   3.071   0.525   0.275
  545SOL    HW1 1653   3.084   0.441   0.329
  545SOL    HW2 1654   3.042   0.599   0.335
  546SOL     OW 1655   2.169   0.213   1.231
  546SOL    HW1 1656   2.146   0.250   1.321
  546SOL    HW2 1657   2.139   0.118   1.225
  547SOL     OW 1658   1.899   1.310   1.282
  547SOL    HW1 1659   1.952   1.261   1.350
  547SOL    HW2 1660   1.921   1.408   1.287
  548SOL     OW 1661   2.594   0.634   1.064
  548SOL    HW1 1662   2.653   0.608   0.988
  548SOL    HW2 1663   2.566   0.730   1.053
  549SOL     OW 1664   2.169   0.063   0.618
  549SOL    HW1 1665   2.158   0.157   0.651
  549SOL    HW2 1666   2.164   0.000   0.695
  550SOL     OW 1667   2.885   0.766   0.966
  550SOL    HW1 1668   2.900   0.787   1.062
  550SOL    HW2 1669   2.855   0.671   0.957
  551SOL     OW 1670   2.842   1.573   1.700
  551SOL    HW1 1671   2.822   1.617   1.612
  551SOL    HW2 1672   2.881   1.482   1.684
  552SOL     OW 1673   2.212   0.898   1.804
  552SOL    HW1 1674   2.288   0.942   1.852
  552SOL    HW2 1675   2.247   0.851   1.722
  553SOL     OW 1676   2.181   0.810   0.949
  553SOL    HW1 1677   2.274   0.846   0.954
  553SOL    HW2 1678   2.175   0.725   1.001
  554SOL     OW 1679   2.201   0.509   1.006
  554SOL    HW1 1680   2.149   0.426   0.989
  554SOL    HW2 1681   2.278   0.514   0.942
  555SOL     OW 1682   1.870   1.326   0.200
  555SOL    HW1 1683   1.777   1.347   0.169
  555SOL    HW2 1684   1.880   1.227   0.213
  556SOL     OW 1685   1.950   1.801   0.927
  556SOL    HW1 1686   1.908   1.715   0.900
  556SOL    HW2 1687   2.044   1.804   0.893
  557SOL     OW 1688   2.366   1.568   0.910
  557SOL    HW1 1689   2.432   1.642   0.919
  557SOL    HW2 1690   2.410   1.489   0.868
  558SOL     OW 1691   2.864   0.796   1.238
  558SOL    HW1 1692   2.905   0.764   1.324
  558SOL    HW2 1693   2.768   0.769   1.235
  559SOL     OW 1694   1.902   0.544   1.114
  559SOL    HW1 1695   1.987   0.511   1.073
  559SOL    HW2 1696   1.915   0.559   1.212
  560SOL     OW 1697   2.051   0.520   1.722
  560SOL    HW1 1698   2.110   0.480   1.652
  560SOL    HW2 1699   1.993   0.591   1.681
  561SOL     OW 1700   2.677   0.572   0.325
  561SOL    HW1 1701   2.684   0.483   0.279
  561SOL    HW2 1702   2.583   0.606   0.317
  562SOL     OW 1703   2.114   1.564   1.744
  562SOL    HW1 1704   2.084   1.621   1.820
  562SOL    HW2 1705   2.107   1.467   1.770
  563SOL     OW 1706   2.533   0.464   1.269
  563SOL    HW1 1707   2.499   0.375   1.239
  563SOL    HW2 1708   2.559   0.518   1.189
  564SOL     OW 1709   2.792   1.678   1.465
  564SOL    HW1 1710   2.768   1.660   1.370
  564SOL    HW2 1711   2.822   1.772   1.475
  565SOL     OW 1712   2.335   0.500   0.191
  565SOL    HW1 1713   2.396   0.580   0.195
  565SOL    HW2 1714   2.240   0.531   0.198
  566SOL     OW 1715   2.021   1.137   1.466
  566SOL    HW1 1716   2.043   1.076   1.542
  566SOL    HW2 1717   2.031   1.088   1.380
  567SOL     OW 1718   1.945   1.258   1.022
  567SOL    HW1 1719   1.940   1.257   1.122
  567SOL    HW2 1720   1.862   1.217   0.984
  568SOL     OW 1721   2.550   1.662   1.716
  568SOL    HW1 1722   2.494   1.743   1.725
  568SOL    HW2 1723   2.602   1.666   1.630
  569SOL     OW 1724   2.765   0.086   0.133
  569SOL    HW1 1725   2.816   0.087   0.047
  569SOL    HW2 1726   2.821   0.044   0.204
  570SOL     OW 1727   1.992   1.794   1.851
  570SOL    HW1 1728   1.951   1.720   1.904
  570SOL    HW2 1729   2.056   1.845   1.909
  571SOL     OW 1730   2.692   1.273   1.422
  571SOL    HW1 1731   2.687   1.306   1.517
  571SOL    HW2 1732   2.606   1.292   1.376
  572SOL     OW 1733   2.534   1.616   0.154
  572SOL    HW1 1734   2.543   1.626   0.055
  572SOL    HW2 1735   2.494   1.527   0.175
  573SOL     OW 1736   2.125   0.326   0.720
  573SOL    HW1 1737   2.046   0.377   0.686
  573SOL    HW2 1738   2.116   0.311   0.818
  574SOL     OW 1739   3.056   1.612   0.031
  574SOL    HW1 1740   3.062   1.519   0.068
  574SOL    HW2 1741   2.997   1.612  -0.049
  575SOL     OW 1742   2.684   1.002   1.372
  575SOL    HW1 1743   2.724   1.001   1.280
  575SOL    HW2 1744   2.694   1.094   1.412
  576SOL     OW 1745   2.234   1.288   1.490
  576SOL    HW1 1746   2.221   1.381   1.456
  576SOL    HW2 1747   2.150   1.236   1.477
  577SOL     OW 1748   2.452   1.487   0.491
  577SOL    HW1 1749   2.494   1.429   0.421
  577SOL    HW2 1750   2.408   1.566   0.447
  578SOL     OW 1751   2.117   1.348   0.290
  578SOL    HW1 1752   2.021   1.349   0.263
  578SOL    HW2 1753   2.129   1.401   0.374
  579SOL     OW 1754   1.967   1.013   1.726
  579SOL    HW1 1755   1.890   0.980   1.780
  579SOL    HW2 1756   2.052   0.983   1.768
  580SOL     OW 1757   2.534   0.203   1.489
  580SOL    HW1 1758   2.624   0.187   1.449
  580SOL    HW2 1759   2.542   0.208   1.588
  581SOL     OW 1760   2.475   0.842   1.431
  581SOL    HW1 1761   2.531   0.923   1.414
  581SOL    HW2 1762   2.534   0.762   1.434
  582SOL     OW 1763   2.578   0.565   1.708
  582SOL    HW1 1764   2.597   0.630   1.782
  582SOL    HW2 1765   2.638   0.485   1.717
  583SOL     OW 1766   2.252   1.741   1.560
  583SOL    HW1 1767   2.161   1.782   1.558
  583SOL    HW2 1768   2.245   1.647   1.592
  584SOL     OW 1769   3.087   0.325   0.449
  584SOL    HW1 1770   3.152   0.251   0.438
  584SOL    HW2 1771   3.107   0.375   0.533
  585SOL     OW 1772   2.456   0.745   0.652
  585SOL    HW1 1773   2.506   0.830   0.633
  585SOL    HW2 1774   2.368   0.747   0.604
  586SOL     OW 1775   2.721   1.374   0.016
  586SOL    HW1 1776   2.675   1.389   0.104
  586SOL    HW2 1777   2.765   1.459  -0.014
  587SOL     OW 1778   2.523   1.790   0.953
  587SOL    HW1 1779   2.477   1.878   0.940
  587SOL    HW2 1780   2.622   1.802   0.946
  588SOL     OW 1781   2.721   0.956   0.861
  588SOL    HW1 1782   2.775   0.887   0.909
  588SOL    HW2 1783   2.689   1.025   0.927
  589SOL     OW 1784   2.945   0.984   0.087
  589SOL    HW1 1785   2.922   1.037   0.005
  589SOL    HW2 1786   3.026   0.928   0.068
  590SOL     OW 1787   2.083   1.314   1.844
  590SOL    HW1 1788   2.018   1.241   1.823
  590SOL    HW2 1789   2.087   1.328   1.942
  591SOL     OW 1790   1.941   1.240   0.653
  591SOL    HW1 1791   1.940   1.193   0.741
  591SOL    HW2 1792   2.023   1.212   0.602
  592SOL     OW 1793   2.534   1.391   1.624
  592SOL    HW1 1794   2.456   1.341   1.662
  592SOL    HW2 1795   2.531   1.486   1.655
  593SOL     OW 1796   2.290   0.424   0.520
  593SOL    HW1 1797   2.320   0.352   0.458
  593SOL    HW2 1798   2.251   0.384   0.603
  594SOL     OW 1799   2.179   0.547   1.280
  594SOL    HW1 1800   2.217   0.488   1.352
  594SOL    HW2 1801   2.219   0.521   1.192
  595SOL     OW 1802   2.674   1.586   0.687
  595SOL    HW1 1803   2.706   1.596   0.593
  595SOL    HW2 1804   2.595   1.524   0.689
  596SOL     OW 1805   2.863   0.034   1.154
  596SOL    HW1 1806   2.800  -0.038   1.123
  596SOL    HW2 1807   2.956  -0.002   1.154
  597SOL     OW 1808   2.632   1.330   0.301
  597SOL    HW1 1809   2.586   1.243   0.318
  597SOL    HW2 1810   2.723   1.327   0.342
  598SOL     OW 1811   2.480   1.567   1.284
  598SOL    HW1 1812   2.475   1.649   1.341
  598SOL    HW2 1813   2.569   1.564   1.239
  599SOL     OW 1814   1.901   1.077   0.300
  599SOL    HW1 1815   2.000   1.066   0.291
  599SOL    HW2 1816   1.861   0.991   0.332
  600SOL     OW 1817   2.737   1.646   0.337
  600SOL    HW1 1818   2.660   1.611   0.283
  600SOL    HW2 1819   2.705   1.717   0.399
  601SOL     OW 1820   2.092   0.628   1.975
  601SOL    HW1 1821   1.999   0.626   2.012
  601SOL    HW2 1822   2.093   0.589   1.883
  602SOL     OW 1823   2.087   0.275   2.858
  602SOL    HW1 1824   2.122   0.258   2.950
  602SOL    HW2 1825   1.999   0.230   2.846
  603SOL     OW 1826   1.881   0.368   2.509
  603SOL    HW1 1827   1.799   0.411   2.548
  603SOL    HW2 1828   1.853   0.295   2.446
  604SOL     OW 1829   2.547   1.012   2.527
  604SOL    HW1 1830   2.616   0.996   2.597
  604SOL    HW2 1831   2.474   1.069   2.565
  605SOL     OW 1832   2.093   1.713   2.345
  605SOL    HW1 1833   2.127   1.790   2.399
  605SOL    HW2 1834   2.137   1.713   2.255
  606SOL     OW 1835   2.092   1.434   2.400
  606SOL    HW1 1836   2.066   1.530   2.400
  606SOL    HW2 1837   2.021   1.380   2.445
  607SOL     OW 1838   2.102   1.091   2.748
  607SOL    HW1 1839   2.116   1.007   2.800
  607SOL    HW2 1840   2.047   1.155   2.803
  608SOL     OW 1841   2.468   0.964   1.985
  608SOL    HW1 1842   2.475   1.048   1.931
  608SOL    HW2 1843   2.514   0.977   2.073
  609SOL     OW 1844   1.984   0.643   2.425
  609SOL    HW1 1845   1.939   0.555   2.442
  609SOL    HW2 1846   1.983   0.697   2.509
  610SOL     OW 1847   1.889   1.596   1.979
  610SOL    HW1 1848   1.870   1.500   2.000
  610SOL    HW2 1849   1.856   1.654   2.054
  611SOL     OW 1850   2.475   1.365   2.588
  611SOL    HW1 1851   2.426   1.278   2.597
  611SOL    HW2 1852   2.452   1.408   2.501
  612SOL     OW 1853   2.671   0.004   2.364
  612SOL    HW1 1854   2.711   0.095   2.355
  612SOL    HW2 1855   2.571   0.012   2.370
  613SOL     OW 1856   2.460   0.729   2.132
  613SOL    HW1 1857   2.484   0.798   2.064
  613SOL    HW2 1858   2.382   0.762   2.186
  614SOL     OW 1859   1.938   0.811   2.651
  614SOL    HW1 1860   2.037   0.799   2.660
  614SOL    HW2 1861   1.914   0.906   2.672
  615SOL     OW 1862   2.727   0.348   2.057
  615SOL    HW1 1863   2.786   0.411   2.008
  615SOL    HW2 1864   2.746   0.254   2.028
  616SOL     OW 1865   2.870   1.456   2.339
  616SOL    HW1 1866   2.824   1.528   2.287
  616SOL    HW2 1867   2.866   1.476   2.437
  617SOL     OW 1868   2.213   1.801   2.715
  617SOL    HW1 1869   2.263   1.715   2.721
  617SOL    HW2 1870   2.278   1.878   2.712
  618SOL     OW 1871   2.183   0.943   2.104
  618SOL    HW1 1872   2.265   0.982   2.062
  618SOL    HW2 1873   2.156   0.861   2.055
  619SOL     OW 1874   2.326   1.743   2.185
  619SOL    HW1 1875   2.359   1.782   2.271
  619SOL    HW2 1876   2.402   1.736   2.120
  620SOL     OW 1877   2.244   0.700   2.342
  620SOL    HW1 1878   2.289   0.610   2.339
  620SOL    HW2 1879   2.150   0.689   2.375
  621SOL     OW 1880   2.476   0.122   1.979
  621SOL    HW1 1881   2.574   0.100   1.986
  621SOL    HW2 1882   2.445   0.105   1.886
  622SOL     OW 1883   2.401   0.064   2.374
  622SOL    HW1 1884   2.320   0.065   2.432
  622SOL    HW2 1885   2.404   0.147   2.319
  623SOL     OW 1886   2.159   0.035   2.033
  623SOL    HW1 1887   2.208   0.119   2.012
  623SOL    HW2 1888   2.221  -0.030   2.078
  624SOL     OW 1889   3.089   1.570   2.655
  624SOL    HW1 1890   3.110   1.644   2.590
  624SOL    HW2 1891   3.157   1.570   2.728
  625SOL     OW 1892   2.321   1.152   2.603
  625SOL    HW1 1893   2.250   1.125   2.668
  625SOL    HW2 1894   2.295   1.124   2.510
  626SOL     OW 1895   2.350   1.385   2.036
  626SOL    HW1 1896   2.263   1.370   2.083
  626SOL    HW2 1897   2.333   1.411   1.941
  627SOL     OW 1898   2.389   0.256   2.190
  627SOL    HW1 1899   2.416   0.197   2.115
  627SOL    HW2 1900   2.389   0.351   2.159
  628SOL     OW 1901   2.567   1.050   2.230
  628SOL    HW1 1902   2.553   1.057   2.329
  628SOL    HW2 1903   2.651   0.999   2.212
  629SOL     OW 1904   2.229   1.100   2.363
  629SOL    HW1 1905   2.222   1.183   2.307
  629SOL    HW2 1906   2.233   1.020   2.303
  630SOL     OW 1907   2.428   0.537   2.727
  630SOL    HW1 1908   2.440   0.603   2.653
  630SOL    HW2 1909   2.474   0.571   2.810
  631SOL     OW 1910   3.071   0.525   2.137
  631SOL    HW1 1911   3.084   0.441   2.191
  631SOL    HW2 1912   3.042   0.599   2.197
  632SOL     OW 1913   2.594   0.634   2.926
  632SOL    HW1 1914   2.653   0.608   2.850
  632SOL    HW2 1915   2.566   0.730   2.915
  633SOL     OW 1916   2.169   0.063   2.480
  633SOL    HW1 1917   2.158   0.157   2.513
  633SOL    HW2 1918   2.164   0.000   2.557
  634SOL     OW 1919   2.885   0.766   2.828
  634SOL    HW1 1920   2.900   0.787   2.924
  634SOL    HW2 1921   2.855   0.671   2.819
  635SOL     OW 1922   2.181   0.810   2.811
  635SOL    HW1 1923   2.274   0.846   2.816
  635SOL    HW2 1924   2.175   0.725   2.863
  636SOL     OW 1925   1.870   1.326   2.062
  636SOL    HW1 1926   1.777   1.347   2.031
  636SOL    HW2 1927   1.880   1.227   2.075
  637SOL     OW 1928   1.950   1.801   2.789
  637SOL    HW1 1929   1.908   1.715   2.762
  637SOL    HW2 1930   2.044   1.804   2.755
  638SOL     OW 1931   2.366   1.568   2.772
  638SOL    HW1 1932   2.432   1.642   2.781
  638SOL    HW2 1933   2.410   1.489   2.730
  639SOL     OW 1934   2.864   0.796   3.100
  639SOL    HW1 1935   2.905   0.764   3.186
  639SOL    HW2 1936   2.768   0.769   3.097
  640SOL     OW 1937   2.677   0.572   2.187
  640SOL    HW1 1938   2.684   0.483   2.141
  640SOL    HW2 1939   2.583   0.606   2.179
  641SOL     OW 1940   2.335   0.500   2.053
  641SOL    HW1 1941   2.396   0.580   2.057
  641SOL    HW2 1942   2.240   0.531   2.060
  642SOL     OW 1943   2.765   0.086   1.995
  642SOL    HW1 1944   2.816   0.087   1.909
  642SOL    HW2 1945   2.821   0.044   2.066
  643SOL     OW 1946   2.534   1.616   2.016
  643SOL    HW1 1947   2.543   1.626   1.917
  643SOL    HW2 1948   2.494   1.527   2.037
  644SOL     OW 1949   2.125   0.326   2.582
  644SOL    HW1 1950   2.046   0.377   2.548
  644SOL    HW2 1951   2.116   0.311   2.680
  645SOL     OW 1952   2.452   1.487   2.353
  645SOL    HW1 1953   2.494   1.429   2.283
  645SOL    HW2 1954   2.408   1.566   2.309
  646SOL     OW 1955   2.117   1.348   2.152
  646SOL    HW1 1956   2.021   1.349   2.125
  646SOL    HW2 1957   2.129   1.401   2.236
  647SOL     OW 1958   1.937   0.345   1.895
  647SOL    HW1 1959   1.845   0.317   1.866
  647SOL    HW2 1960   1.968   0.422   1.839
  648SOL     OW 1961   1.934   0.166   2.180
  648SOL    HW1 1962   1.917   0.249   2.126
  648SOL    HW2 1963   2.024   0.129   2.158
  649SOL     OW 1964   3.087   0.325   2.311
  649SOL    HW1 1965   3.152   0.251   2.300
  649SOL    HW2 1966   3.107   0.375   2.395
  650SOL     OW 1967   2.456   0.745   2.514
  650SOL    HW1 1968   2.506   0.830   2.495
  650SOL    HW2 1969   2.368   0.747   2.466
  651SOL     OW 1970   2.721   1.374   1.878
  651SOL    HW1 1971   2.675   1.389   1.966
  651SOL    HW2 1972   2.765   1.459   1.848
  652SOL     OW 1973   2.523   1.790   2.815
  652SOL    HW1 1974   2.477   1.878   2.802
  652SOL    HW2 1975   2.622   1.802   2.808
  653SOL     OW 1976   2.721   0.956   2.723
  653SOL    HW1 1977   2.775   0.887   2.771
  653SOL    HW2 1978   2.689   1.025   2.789
  654SOL     OW 1979   1.941   1.240   2.515
  654SOL    HW1 1980   1.940   1.193   2.603
  654SOL    HW2 1981   2.023   1.212   2.464
  655SOL     OW 1982   2.290   0.424   2.382
  655SOL    HW1 1983   2.320   0.352   2.320
  655SOL    HW2 1984   2.251   0.384   2.465
  656SOL     OW 1985   2.674   1.586   2.549
  656SOL    HW1 1986   2.706   1.596   2.455
  656SOL    HW2 1987   2.595   1.524   2.551
  657SOL     OW 1988   2.632   1.330   2.163
  657SOL    HW1 1989   2.586   1.243   2.180
  657SOL    HW2 1990   2.723   1.327   2.204
  658SOL     OW 1991   1.901   1.077   2.162
  658SOL    HW1 1992   2.000   1.066   2.153
  658SOL    HW2 1993   1.861   0.991   2.194
  659SOL     OW 1994   2.737   1.646   2.199
  659SOL    HW1 1995   2.660   1.611   2.145
  659SOL    HW2 1996   2.705   1.717   2.261
  660SOL     OW 1997   2.092   2.490   0.113
  660SOL    HW1 1998   1.999   2.488   0.150
  660SOL    HW2 1999   2.093   2.451   0.021
  661SOL     OW 2000   2.087   2.137   0.996
  661SOL    HW1 2001   2.122   2.120   1.088
  661SOL    HW2 2002   1.999   2.092   0.984
  662SOL     OW 2003   1.881   2.230   0.647
  662SOL    HW1 2004   1.799   2.273   0.686
  662SOL    HW2 2005   1.853   2.157   0.584
  663SOL     OW 2006   2.712   2.660   1.823
  663SOL    HW1 2007   2.708   2.736   1.888
  663SOL    HW2 2008   2.734   2.696   1.732
  664SOL     OW 2009   2.547   2.874   0.665
  664SOL    HW1 2010   2.616   2.858   0.735
  664SOL    HW2 2011   2.474   2.931   0.703
  665SOL     OW 2012   2.300   2.254   1.499
  665SOL    HW1 2013   2.382   2.198   1.508
  665SOL    HW2 2014   2.219   2.196   1.503
  666SOL     OW 2015   1.984   2.505   0.563
  666SOL    HW1 2016   1.939   2.417   0.580
  666SOL    HW2 2017   1.983   2.559   0.647
  667SOL     OW 2018   1.975   2.599   1.597
  667SOL    HW1 2019   2.063   2.586   1.642
  667SOL    HW2 2020   1.962   2.696   1.575
  668SOL     OW 2021   2.671   1.866   0.502
  668SOL    HW1 2022   2.711   1.957   0.493
  668SOL    HW2 2023   2.571   1.874   0.508
  669SOL     OW 2024   2.059   2.838   1.264
  669SOL    HW1 2025   2.148   2.793   1.250
  669SOL    HW2 2026   1.986   2.773   1.245
  670SOL     OW 2027   2.179   2.113   1.801
  670SOL    HW1 2028   2.250   2.184   1.807
  670SOL    HW2 2029   2.091   2.152   1.829
  671SOL     OW 2030   2.460   2.591   0.270
  671SOL    HW1 2031   2.484   2.660   0.202
  671SOL    HW2 2032   2.382   2.624   0.324
  672SOL     OW 2033   2.669   2.467   1.465
  672SOL    HW1 2034   2.622   2.464   1.554
  672SOL    HW2 2035   2.618   2.412   1.399
  673SOL     OW 2036   2.853   2.272   1.242
  673SOL    HW1 2037   2.776   2.306   1.296
  673SOL    HW2 2038   2.819   2.221   1.163
  674SOL     OW 2039   1.938   2.673   0.789
  674SOL    HW1 2040   2.037   2.661   0.798
  674SOL    HW2 2041   1.914   2.768   0.810
  675SOL     OW 2042   2.727   2.210   0.195
  675SOL    HW1 2043   2.786   2.273   0.146
  675SOL    HW2 2044   2.746   2.116   0.166
  676SOL     OW 2045   2.412   2.058   0.885
  676SOL    HW1 2046   2.407   2.053   0.985
  676SOL    HW2 2047   2.414   2.154   0.856
  677SOL     OW 2048   2.064   2.147   1.498
  677SOL    HW1 2049   1.984   2.207   1.485
  677SOL    HW2 2050   2.054   2.098   1.584
  678SOL     OW 2051   2.244   2.562   0.480
  678SOL    HW1 2052   2.289   2.472   0.477
  678SOL    HW2 2053   2.150   2.551   0.513
  679SOL     OW 2054   2.643   2.126   1.749
  679SOL    HW1 2055   2.710   2.065   1.792
  679SOL    HW2 2056   2.570   2.145   1.814
  680SOL     OW 2057   2.784   2.365   0.899
  680SOL    HW1 2058   2.759   2.356   0.803
  680SOL    HW2 2059   2.832   2.283   0.930
  681SOL     OW 2060   2.401   1.926   0.512
  681SOL    HW1 2061   2.320   1.927   0.570
  681SOL    HW2 2062   2.404   2.009   0.457
  682SOL     OW 2063   2.159   1.897   0.171
  682SOL    HW1 2064   2.208   1.981   0.150
  682SOL    HW2 2065   2.221   1.832   0.216
  683SOL     OW 2066   1.940   2.418   1.386
  683SOL    HW1 2067   2.032   2.417   1.345
  683SOL    HW2 2068   1.934   2.492   1.453
  684SOL     OW 2069   2.423   2.084   1.147
  684SOL    HW1 2070   2.461   2.000   1.184
  684SOL    HW2 2071   2.335   2.103   1.191
  685SOL     OW 2072   2.389   2.118   0.328
  685SOL    HW1 2073   2.416   2.059   0.253
  685SOL    HW2 2074   2.389   2.213   0.297
  686SOL     OW 2075   2.777   1.951   1.402
  686SOL    HW1 2076   2.802   1.931   1.307
  686SOL    HW2 2077   2.849   2.007   1.444
  687SOL     OW 2078   2.272   2.675   1.251
  687SOL    HW1 2079   2.358   2.687   1.301
  687SOL    HW2 2080   2.230   2.588   1.278
  688SOL     OW 2081   2.428   2.399   0.865
  688SOL    HW1 2082   2.440   2.465   0.791
  688SOL    HW2 2083   2.474   2.433   0.948
  689SOL     OW 2084   2.264   2.613   1.598
  689SOL    HW1 2085   2.332   2.668   1.551
  689SOL    HW2 2086   2.304   2.525   1.625
  690SOL     OW 2087   2.366   1.912   1.740
  690SOL    HW1 2088   2.324   1.855   1.670
  690SOL    HW2 2089   2.300   1.981   1.772
  691SOL     OW 2090   2.435   2.732   1.029
  691SOL    HW1 2091   2.479   2.821   1.020
  691SOL    HW2 2092   2.372   2.732   1.106
  692SOL     OW 2093   3.071   2.387   0.275
  692SOL    HW1 2094   3.084   2.303   0.329
  692SOL    HW2 2095   3.042   2.461   0.335
  693SOL     OW 2096   2.169   2.075   1.231
  693SOL    HW1 2097   2.146   2.112   1.321
  693SOL    HW2 2098   2.139   1.980   1.225
  694SOL     OW 2099   2.594   2.496   1.064
  694SOL    HW1 2100   2.653   2.470   0.988
  694SOL    HW2 2101   2.566   2.592   1.053
  695SOL     OW 2102   2.169   1.925   0.618
  695SOL    HW1 2103   2.158   2.019   0.651
  695SOL    HW2 2104   2.164   1.862   0.695
  696SOL     OW 2105   2.885   2.628   0.966
  696SOL    HW1 2106   2.900   2.649   1.062
  696SOL    HW2 2107   2.855   2.533   0.957
  697SOL     OW 2108   2.212   2.760   1.804
  697SOL    HW1 2109   2.288   2.804   1.852
  697SOL    HW2 2110   2.247   2.713   1.722
  698SOL     OW 2111   2.930   3.195   0.849
  698SOL    HW1 2112   2.937   3.111   0.794
  698SOL    HW2 2113   2.992   3.264   0.813
  699SOL     OW 2114   2.181   2.672   0.949
  699SOL    HW1 2115   2.274   2.708   0.954
  699SOL    HW2 2116   2.175   2.587   1.001
  700SOL     OW 2117   2.201   2.371   1.006
  700SOL    HW1 2118   2.149   2.288   0.989
  700SOL    HW2 2119   2.278   2.376   0.942
  701SOL     OW 2120   2.864   2.658   1.238
  701SOL    HW1 2121   2.905   2.626   1.324
  701SOL    HW2 2122   2.768   2.631   1.235
  702SOL     OW 2123   1.902   2.406   1.114
  702SOL    HW1 2124   1.987   2.373   1.073
  702SOL    HW2 2125   1.915   2.421   1.212
  703SOL     OW 2126   2.051   2.382   1.722
  703SOL    HW1 2127   2.110   2.342   1.652
  703SOL    HW2 2128   1.993   2.453   1.681
  704SOL     OW 2129   2.677   2.434   0.325
  704SOL    HW1 2130   2.684   2.345   0.279
  704SOL    HW2 2131   2.583   2.468   0.317
  705SOL     OW 2132   2.533   2.326   1.269
  705SOL    HW1 2133   2.499   2.237   1.239
  705SOL    HW2 2134   2.559   2.380   1.189
  706SOL     OW 2135   2.335   2.362   0.191
  706SOL    HW1 2136   2.396   2.442   0.195
  706SOL    HW2 2137   2.240   2.393   0.198
  707SOL     OW 2138   3.164   2.717   0.309
  707SOL    HW1 2139   3.078   2.686   0.351
  707SOL    HW2 2140   3.160   2.703   0.210
  708SOL     OW 2141   2.765   1.948   0.133
  708SOL    HW1 2142   2.816   1.949   0.047
  708SOL    HW2 2143   2.821   1.906   0.204
  709SOL     OW 2144   2.125   2.188   0.720
  709SOL    HW1 2145   2.046   2.239   0.686
  709SOL    HW2 2146   2.116   2.173   0.818
  710SOL     OW 2147   2.901   2.960   0.696
  710SOL    HW1 2148   2.831   2.913   0.750
  710SOL    HW2 2149   2.960   2.892   0.653
  711SOL     OW 2150   1.967   2.875   1.726
  711SOL    HW1 2151   1.890   2.842   1.780
  711SOL    HW2 2152   2.052   2.845   1.768
  712SOL     OW 2153   2.534   2.065   1.489
  712SOL    HW1 2154   2.624   2.049   1.449
  712SOL    HW2 2155   2.542   2.070   1.588
  713SOL     OW 2156   2.475   2.704   1.431
  713SOL    HW1 2157   2.531   2.785   1.414
  713SOL    HW2 2158   2.534   2.624   1.434
  714SOL     OW 2159   2.578   2.427   1.708
  714SOL    HW1 2160   2.597   2.492   1.782
  714SOL    HW2 2161   2.638   2.347   1.717
  715SOL     OW 2162   3.087   2.187   0.449
  715SOL    HW1 2163   3.152   2.113   0.438
  715SOL    HW2 2164   3.107   2.237   0.533
  716SOL     OW 2165   2.456   2.607   0.652
  716SOL    HW1 2166   2.506   2.692   0.633
  716SOL    HW2 2167   2.368   2.609   0.604
  717SOL     OW 2168   2.721   2.818   0.861
  717SOL    HW1 2169   2.775   2.749   0.909
  717SOL    HW2 2170   2.689   2.887   0.927
  718SOL     OW 2171   2.290   2.286   0.520
  718SOL    HW1 2172   2.320   2.214   0.458
  718SOL    HW2 2173   2.251   2.246   0.603
  719SOL     OW 2174   2.179   2.409   1.280
  719SOL    HW1 2175   2.217   2.350   1.352
  719SOL    HW2 2176   2.219   2.383   1.192
  720SOL     OW 2177   2.863   1.896   1.154
  720SOL    HW1 2178   2.800   1.824   1.123
  720SOL    HW2 2179   2.956   1.860   1.154
  721SOL     OW 2180   2.092   2.490   1.975
  721SOL    HW1 2181   1.999   2.488   2.012
  721SOL    HW2 2182   2.093   2.451   1.883
  722SOL     OW 2183   2.087   2.137   2.858
  722SOL    HW1 2184   2.122   2.120   2.950
  722SOL    HW2 2185   1.999   2.092   2.846
  723SOL     OW 2186   1.881   2.230   2.509
  723SOL    HW1 2187   1.799   2.273   2.548
  723SOL    HW2 2188   1.853   2.157   2.446
  724SOL     OW 2189   2.547   2.874   2.527
  724SOL    HW1 2190   2.616   2.858   2.597
  724SOL    HW2 2191   2.474   2.931   2.565
  725SOL     OW 2192   1.984   2.505   2.425
  725SOL    HW1 2193   1.939   2.417   2.442
  725SOL    HW2 2194   1.983   2.559   2.509
  726SOL     OW 2195   2.671   1.866   2.364
  726SOL    HW1 2196   2.711   1.957   2.355
  726SOL    HW2 2197   2.571   1.874   2.370
  727SOL     OW 2198   2.460   2.591   2.132
  727SOL    HW1 2199   2.484   2.660   2.064
  727SOL    HW2 2200   2.382   2.624   2.186
  728SOL     OW 2201   1.938   2.673   2.651
  728SOL    HW1 2202   2.037   2.661   2.660
  728SOL    HW2 2203   1.914   2.768   2.672
  729SOL     OW 2204   2.727   2.210   2.057
  729SOL    HW1 2205   2.786   2.273   2.008
  729SOL    HW2 2206   2.746   2.116   2.028
  730SOL     OW 2207   2.412   2.058   2.747
  730SOL    HW1 2208   2.407   2.053   2.847
  730SOL    HW2 2209   2.414   2.154   2.718
  731SOL     OW 2210   2.244   2.562   2.342
  731SOL    HW1 2211   2.289   2.472   2.339
  731SOL    HW2 2212   2.150   2.551   2.375
  732SOL     OW 2213   2.476   1.984   1.979
  732SOL    HW1 2214   2.574   1.962   1.986
  732SOL    HW2 2215   2.445   1.967   1.886
  733SOL     OW 2216   2.401   1.926   2.374
  733SOL    HW1 2217   2.320   1.927   2.432
  733SOL    HW2 2218   2.404   2.009   2.319
  734SOL     OW 2219   2.159   1.897   2.033
  734SOL    HW1 2220   2.208   1.981   2.012
  734SOL    HW2 2221   2.221   1.832   2.078
  735SOL     OW 2222   2.389   2.118   2.190
  735SOL    HW1 2223   2.416   2.059   2.115
  735SOL    HW2 2224   2.389   2.213   2.159
  736SOL     OW 2225   2.428   2.399   2.727
  736SOL    HW1 2226   2.440   2.465   2.653
  736SOL    HW2 2227   2.474   2.433   2.810
  737SOL     OW 2228   2.435   2.732   2.891
  737SOL    HW1 2229   2.479   2.821   2.882
  737SOL    HW2 2230   2.372   2.732   2.968
  738SOL     OW 2231   3.071   2.387   2.137
  738SOL    HW1 2232   3.084   2.303   2.191
  738SOL    HW2 2233   3.042   2.461   2.197
  739SOL     OW 2234   2.594   2.496   2.926
  739SOL    HW1 2235   2.653   2.470   2.850
  739SOL    HW2 2236   2.566   2.592   2.915
  740SOL     OW 2237   2.169   1.925   2.480
  740SOL    HW1 2238   2.158   2.019   2.513
  740SOL    HW2 2239   2.164   1.862   2.557
  741SOL     OW 2240   2.885   2.628   2.828
  741SOL    HW1 2241   2.900   2.649   2.924
  741SOL    HW2 2242   2.855   2.533   2.819
  742SOL     OW 2243   2.930   3.195   2.711
  742SOL    HW1 2244   2.937   3.111   2.656
  742SOL    HW2 2245   2.992   3.264   2.675
  743SOL     OW 2246   2.181   2.672   2.811
  743SOL    HW1 2247   2.274   2.708   2.816
  743SOL    HW2 2248   2.175   2.587   2.863
  744SOL     OW 2249   2.864   2.658   3.100
  744SOL    HW1 2250   2.905   2.626   3.186
  744SOL    HW2 2251   2.768   2.631   3.097
  745SOL     OW 2252   2.677   2.434   2.187
  745SOL    HW1 2253   2.684   2.345   2.141
  745SOL    HW2 2254   2.583   2.468   2.179
  746SOL     OW 2255   2.335   2.362   2.053
  746SOL    HW1 2256   2.396   2.442   2.057
  746SOL    HW2 2257   2.240   2.393   2.060
  747SOL     OW 2258   3.164   2.717   2.171
  747SOL    HW1 2259   3.078   2.686   2.213
  747SOL    HW2 2260   3.160   2.703   2.072
  748SOL     OW 2261   2.765   1.948   1.995
  748SOL    HW1 2262   2.816   1.949   1.909
  748SOL    HW2 2263   2.821   1.906   2.066
  749SOL     OW 2264   2.125   2.188   2.582
  749SOL    HW1 2265   2.046   2.239   2.548
  749SOL    HW2 2266   2.116   2.173   2.680
  750SOL     OW 2267   2.901   2.960   2.558
  750SOL    HW1 2268   2.831   2.913   2.612
  750SOL    HW2 2269   2.960   2.892   2.515
  751SOL     OW 2270   1.937   2.207   1.895
  751SOL    HW1 2271   1.845   2.179   1.866
  751SOL    HW2 2272   1.968   2.284   1.839
  752SOL     OW 2273   1.934   2.028   2.180
  752SOL    HW1 2274   1.917   2.111   2.126
  752SOL    HW2 2275   2.024   1.991   2.158
  753SOL     OW 2276   3.087   2.187   2.311
  753SOL    HW1 2277   3.152   2.113   2.300
  753SOL    HW2 2278   3.107   2.237   2.395
  754SOL     OW 2279   2.456   2.607   2.514
  754SOL    HW1 2280   2.506   2.692   2.495
  754SOL    HW2 2281   2.368   2.609   2.466
  755SOL     OW 2282   2.721   2.818   2.723
  755SOL    HW1 2283   2.775   2.749   2.771
  755SOL    HW2 2284   2.689   2.887   2.789
  756SOL     OW 2285   2.290   2.286   2.382
  756SOL    HW1 2286   2.320   2.214   2.320
  756SOL    HW2 2287   2.251   2.246   2.465
   2.87317   2.87317   2.87317
