mobley_2390199_GMX.gro created by acpype (v: 2023.10.27) on Thu May 14 13:16:59 2026
 2527
    1MOL     C1    1   1.431   1.476   1.498
    1MOL     C2    2   1.267   1.255   1.225
    1MOL     C3    3   1.714   1.671   1.677
    1MOL     C4    4   1.418   1.394   1.371
    1MOL     C5    5   1.569   1.537   1.523
    1MOL     C6    6   1.279   1.334   1.354
    1MOL     C7    7   1.575   1.615   1.653
    1MOL     O1    8   1.337   1.493   1.575
    1MOL     H1    9   1.339   1.172   1.223
    1MOL     H2   10   1.167   1.212   1.215
    1MOL     H3   11   1.286   1.318   1.138
    1MOL     H4   12   1.744   1.739   1.597
    1MOL     H5   13   1.717   1.728   1.771
    1MOL     H6   14   1.788   1.591   1.684
    1MOL     H7   15   1.441   1.459   1.286
    1MOL     H8   16   1.493   1.314   1.375
    1MOL     H9   17   1.592   1.602   1.438
    1MOL    H10   18   1.641   1.455   1.525
    1MOL    H11   19   1.256   1.268   1.439
    1MOL    H12   20   1.203   1.414   1.354
    1MOL    H13   21   1.503   1.698   1.651
    1MOL    H14   22   1.547   1.551   1.737
    2SOL     OW   23   0.230   0.628   0.113
    2SOL    HW1   24   0.137   0.626   0.150
    2SOL    HW2   25   0.231   0.589   0.021
    3SOL     OW   26   0.225   0.275   0.996
    3SOL    HW1   27   0.260   0.258   1.088
    3SOL    HW2   28   0.137   0.230   0.984
    4SOL     OW   29   0.019   0.368   0.647
    4SOL    HW1   30  -0.063   0.411   0.686
    4SOL    HW2   31  -0.009   0.295   0.584
    5SOL     OW   32   0.569   1.275   1.165
    5SOL    HW1   33   0.476   1.268   1.128
    5SOL    HW2   34   0.580   1.364   1.209
    6SOL     OW   35   1.555   1.511   0.703
    6SOL    HW1   36   1.498   1.495   0.784
    6SOL    HW2   37   1.496   1.521   0.623
    7SOL     OW   38   1.135   0.703   0.717
    7SOL    HW1   39   1.192   0.781   0.692
    7SOL    HW2   40   1.075   0.729   0.793
    8SOL     OW   41   1.755   0.607   0.231
    8SOL    HW1   42   1.743   0.594   0.132
    8SOL    HW2   43   1.725   0.526   0.280
    9SOL     OW   44   0.768   1.144   1.023
    9SOL    HW1   45   0.690   1.161   1.083
    9SOL    HW2   46   0.802   1.231   0.987
   10SOL     OW   47   0.850   0.798   1.823
   10SOL    HW1   48   0.846   0.874   1.888
   10SOL    HW2   49   0.872   0.834   1.732
   11SOL     OW   50   0.685   1.012   0.665
   11SOL    HW1   51   0.754   0.996   0.735
   11SOL    HW2   52   0.612   1.069   0.703
   12SOL     OW   53   0.686   1.161   1.803
   12SOL    HW1   54   0.746   1.240   1.817
   12SOL    HW2   55   0.600   1.192   1.762
   13SOL     OW   56   0.335   1.435   1.061
   13SOL    HW1   57   0.257   1.404   1.008
   13SOL    HW2   58   0.393   1.493   1.004
   14SOL     OW   59   0.438   0.392   1.499
   14SOL    HW1   60   0.520   0.336   1.508
   14SOL    HW2   61   0.357   0.334   1.503
   15SOL     OW   62   1.603   0.447   0.737
   15SOL    HW1   63   1.529   0.493   0.687
   15SOL    HW2   64   1.654   0.515   0.790
   16SOL     OW   65   0.231   1.713   0.483
   16SOL    HW1   66   0.265   1.790   0.537
   16SOL    HW2   67   0.275   1.713   0.393
   17SOL     OW   68   1.127   1.341   1.690
   17SOL    HW1   69   1.174   1.341   1.778
   17SOL    HW2   70   1.079   1.254   1.679
   18SOL     OW   71   0.230   1.434   0.538
   18SOL    HW1   72   0.204   1.530   0.538
   18SOL    HW2   73   0.159   1.380   0.583
   19SOL     OW   74   0.240   1.091   0.886
   19SOL    HW1   75   0.254   1.007   0.938
   19SOL    HW2   76   0.185   1.155   0.941
   20SOL     OW   77   0.620   1.786   1.439
   20SOL    HW1   78   0.528   1.769   1.474
   20SOL    HW2   79   0.648   1.878   1.465
   21SOL     OW   80   0.606   0.964   0.123
   21SOL    HW1   81   0.613   1.048   0.069
   21SOL    HW2   82   0.652   0.977   0.211
   22SOL     OW   83   1.594   0.114   1.480
   22SOL    HW1   84   1.576   0.181   1.408
   22SOL    HW2   85   1.591   0.160   1.569
   23SOL     OW   86   0.122   0.643   0.563
   23SOL    HW1   87   0.077   0.555   0.580
   23SOL    HW2   88   0.121   0.697   0.647
   24SOL     OW   89   1.842   1.767   0.359
   24SOL    HW1   90   1.896   1.738   0.439
   24SOL    HW2   91   1.872   1.857   0.330
   25SOL     OW   92   0.027   1.596   0.117
   25SOL    HW1   93   0.008   1.500   0.138
   25SOL    HW2   94  -0.006   1.654   0.192
   26SOL     OW   95   1.689   0.922   0.612
   26SOL    HW1   96   1.784   0.893   0.620
   26SOL    HW2   97   1.681   0.987   0.537
   27SOL     OW   98   1.641   1.108   0.432
   27SOL    HW1   99   1.727   1.110   0.380
   27SOL    HW2  100   1.655   1.155   0.520
   28SOL     OW  101   0.113   0.737   1.597
   28SOL    HW1  102   0.201   0.724   1.642
   28SOL    HW2  103   0.100   0.834   1.575
   29SOL     OW  104   0.613   1.365   0.726
   29SOL    HW1  105   0.564   1.278   0.735
   29SOL    HW2  106   0.590   1.408   0.639
   30SOL     OW  107   0.809   0.004   0.502
   30SOL    HW1  108   0.849   0.095   0.493
   30SOL    HW2  109   0.709   0.012   0.508
   31SOL     OW  110   0.197   0.976   1.264
   31SOL    HW1  111   0.286   0.931   1.250
   31SOL    HW2  112   0.124   0.911   1.245
   32SOL     OW  113   1.525   0.999   0.190
   32SOL    HW1  114   1.462   0.923   0.203
   32SOL    HW2  115   1.573   1.017   0.276
   33SOL     OW  116   1.187   1.792   1.616
   33SOL    HW1  117   1.211   1.852   1.540
   33SOL    HW2  118   1.194   1.697   1.586
   34SOL     OW  119   0.317   0.251   1.801
   34SOL    HW1  120   0.388   0.322   1.807
   34SOL    HW2  121   0.229   0.290   1.829
   35SOL     OW  122   1.466   1.417   0.953
   35SOL    HW1  123   1.407   1.423   1.033
   35SOL    HW2  124   1.451   1.329   0.907
   36SOL     OW  125   1.667   1.714   0.572
   36SOL    HW1  126   1.626   1.691   0.484
   36SOL    HW2  127   1.649   1.640   0.637
   37SOL     OW  128   0.598   0.729   0.270
   37SOL    HW1  129   0.622   0.798   0.202
   37SOL    HW2  130   0.520   0.762   0.324
   38SOL     OW  131   1.281   0.345   0.944
   38SOL    HW1  132   1.195   0.295   0.931
   38SOL    HW2  133   1.343   0.291   1.000
   39SOL     OW  134   1.576   1.662   0.307
   39SOL    HW1  135   1.665   1.708   0.310
   39SOL    HW2  136   1.555   1.638   0.212
   40SOL     OW  137   0.807   0.605   1.465
   40SOL    HW1  138   0.760   0.602   1.554
   40SOL    HW2  139   0.756   0.550   1.399
   41SOL     OW  140   1.394   0.469   1.674
   41SOL    HW1  141   1.374   0.512   1.762
   41SOL    HW2  142   1.472   0.407   1.683
   42SOL     OW  143   0.973   0.890   1.572
   42SOL    HW1  144   1.019   0.806   1.543
   42SOL    HW2  145   0.917   0.924   1.497
   43SOL     OW  146   0.991   0.410   1.242
   43SOL    HW1  147   0.914   0.444   1.296
   43SOL    HW2  148   0.957   0.359   1.163
   44SOL     OW  149   1.041   0.701   0.429
   44SOL    HW1  150   1.067   0.697   0.525
   44SOL    HW2  151   0.956   0.650   0.415
   45SOL     OW  152   0.076   0.811   0.789
   45SOL    HW1  153   0.175   0.799   0.798
   45SOL    HW2  154   0.052   0.906   0.810
   46SOL     OW  155   0.130   1.821   1.571
   46SOL    HW1  156   0.120   1.806   1.670
   46SOL    HW2  157   0.044   1.857   1.535
   47SOL     OW  158   0.865   0.348   0.195
   47SOL    HW1  159   0.924   0.411   0.146
   47SOL    HW2  160   0.884   0.254   0.166
   48SOL     OW  161   1.719   0.585   1.831
   48SOL    HW1  162   1.693   0.674   1.795
   48SOL    HW2  163   1.717   0.517   1.758
   49SOL     OW  164   1.362   1.144   0.545
   49SOL    HW1  165   1.445   1.115   0.497
   49SOL    HW2  166   1.313   1.211   0.489
   50SOL     OW  167   0.550   0.196   0.885
   50SOL    HW1  168   0.545   0.191   0.985
   50SOL    HW2  169   0.552   0.292   0.856
   51SOL     OW  170   1.008   1.456   0.477
   51SOL    HW1  171   0.962   1.528   0.425
   51SOL    HW2  172   1.004   1.476   0.575
   52SOL     OW  173   0.351   1.801   0.853
   52SOL    HW1  174   0.401   1.715   0.859
   52SOL    HW2  175   0.416   1.878   0.850
   53SOL     OW  176   1.795   1.066   0.873
   53SOL    HW1  177   1.733   1.051   0.797
   53SOL    HW2  178   1.743   1.077   0.958
   54SOL     OW  179   0.321   0.943   0.242
   54SOL    HW1  180   0.403   0.982   0.200
   54SOL    HW2  181   0.294   0.861   0.193
   55SOL     OW  182   1.458   0.735   0.728
   55SOL    HW1  183   1.453   0.670   0.803
   55SOL    HW2  184   1.538   0.794   0.741
   56SOL     OW  185   0.461   1.266   1.727
   56SOL    HW1  186   0.411   1.267   1.641
   56SOL    HW2  187   0.398   1.248   1.803
   57SOL     OW  188   1.111   1.776   0.237
   57SOL    HW1  189   1.051   1.714   0.287
   57SOL    HW2  190   1.142   1.732   0.152
   58SOL     OW  191   0.202   0.285   1.498
   58SOL    HW1  192   0.122   0.345   1.485
   58SOL    HW2  193   0.192   0.236   1.584
   59SOL     OW  194   1.632   1.377   0.081
   59SOL    HW1  195   1.600   1.471   0.071
   59SOL    HW2  196   1.556   1.314   0.069
   60SOL     OW  197   0.464   1.743   0.323
   60SOL    HW1  198   0.497   1.782   0.409
   60SOL    HW2  199   0.540   1.736   0.258
   61SOL     OW  200   1.400   0.107   0.426
   61SOL    HW1  201   1.376   0.070   0.336
   61SOL    HW2  202   1.499   0.123   0.430
   62SOL     OW  203   0.249   1.785   1.241
   62SOL    HW1  204   0.306   1.720   1.291
   62SOL    HW2  205   0.233   1.752   1.148
   63SOL     OW  206   0.940   1.698   0.904
   63SOL    HW1  207   1.020   1.641   0.925
   63SOL    HW2  208   0.891   1.658   0.827
   64SOL     OW  209   0.382   0.700   0.480
   64SOL    HW1  210   0.427   0.610   0.477
   64SOL    HW2  211   0.288   0.689   0.513
   65SOL     OW  212   1.547   0.222   1.729
   65SOL    HW1  213   1.542   0.259   1.821
   65SOL    HW2  214   1.475   0.153   1.717
   66SOL     OW  215   0.614   0.122   0.117
   66SOL    HW1  216   0.712   0.100   0.124
   66SOL    HW2  217   0.583   0.105   0.024
   67SOL     OW  218   0.781   0.264   1.749
   67SOL    HW1  219   0.848   0.203   1.792
   67SOL    HW2  220   0.708   0.283   1.814
   68SOL     OW  221   0.888   1.514   1.195
   68SOL    HW1  222   0.865   1.489   1.101
   68SOL    HW2  223   0.949   1.445   1.234
   69SOL     OW  224   1.351   0.590   1.433
   69SOL    HW1  225   1.379   0.547   1.518
   69SOL    HW2  226   1.376   0.686   1.434
   70SOL     OW  227   0.803   1.402   0.924
   70SOL    HW1  228   0.893   1.416   0.882
   70SOL    HW2  229   0.732   1.404   0.853
   71SOL     OW  230   0.922   0.503   0.899
   71SOL    HW1  231   0.897   0.494   0.803
   71SOL    HW2  232   0.970   0.421   0.930
   72SOL     OW  233   0.539   0.064   0.512
   72SOL    HW1  234   0.458   0.065   0.570
   72SOL    HW2  235   0.542   0.147   0.457
   73SOL     OW  236   1.434   1.188   0.041
   73SOL    HW1  237   1.466   1.112   0.098
   73SOL    HW2  238   1.342   1.215   0.071
   74SOL     OW  239   0.297   0.035   0.171
   74SOL    HW1  240   0.346   0.119   0.150
   74SOL    HW2  241   0.359  -0.030   0.216
   75SOL     OW  242   0.935   0.236   0.480
   75SOL    HW1  243   0.887   0.277   0.402
   75SOL    HW2  244   1.034   0.234   0.461
   76SOL     OW  245   1.076   0.683   1.464
   76SOL    HW1  246   0.996   0.622   1.467
   76SOL    HW2  247   1.157   0.630   1.440
   77SOL     OW  248   1.227   1.570   0.793
   77SOL    HW1  249   1.248   1.644   0.728
   77SOL    HW2  250   1.295   1.570   0.866
   78SOL     OW  251   0.459   1.152   0.741
   78SOL    HW1  252   0.388   1.125   0.806
   78SOL    HW2  253   0.433   1.124   0.648
   79SOL     OW  254   1.271   1.797   0.591
   79SOL    HW1  255   1.315   1.861   0.527
   79SOL    HW2  256   1.221   1.849   0.661
   80SOL     OW  257   1.032   0.549   0.016
   80SOL    HW1  258   0.991   0.631  -0.023
   80SOL    HW2  259   1.096   0.575   0.089
   81SOL     OW  260   0.078   0.556   1.386
   81SOL    HW1  261   0.170   0.555   1.345
   81SOL    HW2  262   0.072   0.630   1.453
   82SOL     OW  263   0.561   0.222   1.147
   82SOL    HW1  264   0.599   0.138   1.184
   82SOL    HW2  265   0.473   0.241   1.191
   83SOL     OW  266   0.866   0.454   0.642
   83SOL    HW1  267   0.834   0.526   0.580
   83SOL    HW2  268   0.890   0.373   0.589
   84SOL     OW  269   1.017   0.039   0.753
   84SOL    HW1  270   0.945   0.044   0.684
   84SOL    HW2  271   0.993  -0.030   0.822
   85SOL     OW  272   1.429   1.173   0.867
   85SOL    HW1  273   1.374   1.089   0.860
   85SOL    HW2  274   1.455   1.202   0.775
   86SOL     OW  275   1.466   0.590   0.992
   86SOL    HW1  276   1.436   0.495   0.999
   86SOL    HW2  277   1.539   0.606   1.058
   87SOL     OW  278   1.857   0.833   0.377
   87SOL    HW1  279   1.899   0.769   0.441
   87SOL    HW2  280   1.819   0.782   0.299
   88SOL     OW  281   0.488   1.385   0.174
   88SOL    HW1  282   0.401   1.370   0.221
   88SOL    HW2  283   0.471   1.411   0.079
   89SOL     OW  284   1.664   1.280   0.657
   89SOL    HW1  285   1.763   1.288   0.671
   89SOL    HW2  286   1.619   1.364   0.688
   90SOL     OW  287   1.390   0.575   0.078
   90SOL    HW1  288   1.336   0.554   0.159
   90SOL    HW2  289   1.481   0.534   0.087
   91SOL     OW  290   0.527   0.256   0.328
   91SOL    HW1  291   0.554   0.197   0.253
   91SOL    HW2  292   0.527   0.351   0.297
   92SOL     OW  293   1.754   1.223   1.588
   92SOL    HW1  294   1.845   1.184   1.575
   92SOL    HW2  295   1.762   1.319   1.612
   93SOL     OW  296   1.638   1.099   1.079
   93SOL    HW1  297   1.643   1.180   1.138
   93SOL    HW2  298   1.552   1.101   1.028
   94SOL     OW  299   0.915   0.089   1.402
   94SOL    HW1  300   0.940   0.069   1.307
   94SOL    HW2  301   0.987   0.145   1.444
   95SOL     OW  302   0.980   1.116   1.719
   95SOL    HW1  303   0.881   1.122   1.729
   95SOL    HW2  304   1.003   1.036   1.663
   96SOL     OW  305   0.705   1.050   0.368
   96SOL    HW1  306   0.691   1.057   0.467
   96SOL    HW2  307   0.789   0.999   0.350
   97SOL     OW  308   0.410   0.813   1.251
   97SOL    HW1  309   0.496   0.825   1.301
   97SOL    HW2  310   0.368   0.726   1.278
   98SOL     OW  311   1.274   0.386   1.262
   98SOL    HW1  312   1.295   0.460   1.326
   98SOL    HW2  313   1.185   0.403   1.219
   99SOL     OW  314   0.064   1.564   1.331
   99SOL    HW1  315   0.018   1.646   1.297
   99SOL    HW2  316   0.162   1.583   1.340
  100SOL     OW  317   0.367   1.100   0.501
  100SOL    HW1  318   0.360   1.183   0.445
  100SOL    HW2  319   0.371   1.020   0.441
  101SOL     OW  320   0.566   0.537   0.865
  101SOL    HW1  321   0.578   0.603   0.791
  101SOL    HW2  322   0.612   0.571   0.948
  102SOL     OW  323   1.252   1.348   0.388
  102SOL    HW1  324   1.302   1.425   0.428
  102SOL    HW2  325   1.157   1.350   0.420
  103SOL     OW  326   1.582   0.639   0.472
  103SOL    HW1  327   1.551   0.700   0.545
  103SOL    HW2  328   1.632   0.691   0.403
  104SOL     OW  329   0.354   1.510   1.329
  104SOL    HW1  330   0.333   1.466   1.242
  104SOL    HW2  331   0.451   1.536   1.332
  105SOL     OW  332   0.402   0.751   1.598
  105SOL    HW1  333   0.470   0.806   1.551
  105SOL    HW2  334   0.442   0.663   1.625
  106SOL     OW  335   1.587   0.779   1.670
  106SOL    HW1  336   1.495   0.817   1.665
  106SOL    HW2  337   1.647   0.826   1.605
  107SOL     OW  338   1.013   0.105   1.770
  107SOL    HW1  339   1.019   0.190   1.718
  107SOL    HW2  340   1.045   0.029   1.713
  108SOL     OW  341   0.504   0.050   1.740
  108SOL    HW1  342   0.462  -0.007   1.670
  108SOL    HW2  343   0.438   0.119   1.772
  109SOL     OW  344   0.573   0.870   1.029
  109SOL    HW1  345   0.617   0.959   1.020
  109SOL    HW2  346   0.510   0.870   1.106
  110SOL     OW  347   1.360   0.862   1.045
  110SOL    HW1  348   1.285   0.862   0.979
  110SOL    HW2  349   1.397   0.770   1.054
  111SOL     OW  350   1.209   0.525   0.275
  111SOL    HW1  351   1.222   0.441   0.329
  111SOL    HW2  352   1.180   0.599   0.335
  112SOL     OW  353   0.307   0.213   1.231
  112SOL    HW1  354   0.284   0.250   1.321
  112SOL    HW2  355   0.277   0.118   1.225
  113SOL     OW  356   0.037   1.310   1.282
  113SOL    HW1  357   0.090   1.261   1.350
  113SOL    HW2  358   0.059   1.408   1.287
  114SOL     OW  359   0.732   0.634   1.064
  114SOL    HW1  360   0.791   0.608   0.988
  114SOL    HW2  361   0.704   0.730   1.053
  115SOL     OW  362   1.728   0.935   1.854
  115SOL    HW1  363   1.682   0.928   1.765
  115SOL    HW2  364   1.666   0.979   1.920
  116SOL     OW  365   0.307   0.063   0.618
  116SOL    HW1  366   0.296   0.157   0.651
  116SOL    HW2  367   0.302   0.000   0.695
  117SOL     OW  368   1.622   0.367   0.374
  117SOL    HW1  369   1.624   0.291   0.438
  117SOL    HW2  370   1.574   0.444   0.414
  118SOL     OW  371   1.023   0.766   0.966
  118SOL    HW1  372   1.038   0.787   1.062
  118SOL    HW2  373   0.993   0.671   0.957
  119SOL     OW  374   0.980   1.573   1.700
  119SOL    HW1  375   0.960   1.617   1.612
  119SOL    HW2  376   1.019   1.482   1.684
  120SOL     OW  377   0.350   0.898   1.804
  120SOL    HW1  378   0.426   0.942   1.852
  120SOL    HW2  379   0.385   0.851   1.722
  121SOL     OW  380   1.540   0.274   0.125
  121SOL    HW1  381   1.479   0.199   0.148
  121SOL    HW2  382   1.562   0.326   0.208
  122SOL     OW  383   1.303   0.838   0.042
  122SOL    HW1  384   1.337   0.745   0.057
  122SOL    HW2  385   1.321   0.865  -0.053
  123SOL     OW  386   1.068   1.333   0.849
  123SOL    HW1  387   1.075   1.249   0.794
  123SOL    HW2  388   1.130   1.402   0.813
  124SOL     OW  389   0.319   0.810   0.949
  124SOL    HW1  390   0.412   0.846   0.954
  124SOL    HW2  391   0.313   0.725   1.001
  125SOL     OW  392   0.339   0.509   1.006
  125SOL    HW1  393   0.287   0.426   0.989
  125SOL    HW2  394   0.416   0.514   0.942
  126SOL     OW  395   1.138   0.380   1.678
  126SOL    HW1  396   1.093   0.443   1.742
  126SOL    HW2  397   1.231   0.411   1.661
  127SOL     OW  398   1.160   0.207   1.477
  127SOL    HW1  399   1.160   0.271   1.554
  127SOL    HW2  400   1.188   0.255   1.394
  128SOL     OW  401   0.008   1.326   0.200
  128SOL    HW1  402  -0.085   1.347   0.169
  128SOL    HW2  403   0.018   1.227   0.213
  129SOL     OW  404   0.088   1.801   0.927
  129SOL    HW1  405   0.046   1.715   0.900
  129SOL    HW2  406   0.182   1.804   0.893
  130SOL     OW  407   0.504   1.568   0.910
  130SOL    HW1  408   0.570   1.642   0.919
  130SOL    HW2  409   0.548   1.489   0.868
  131SOL     OW  410   1.002   0.796   1.238
  131SOL    HW1  411   1.043   0.764   1.324
  131SOL    HW2  412   0.906   0.769   1.235
  132SOL     OW  413   0.040   0.544   1.114
  132SOL    HW1  414   0.125   0.511   1.073
  132SOL    HW2  415   0.053   0.559   1.212
  133SOL     OW  416   0.189   0.520   1.722
  133SOL    HW1  417   0.248   0.480   1.652
  133SOL    HW2  418   0.131   0.591   1.681
  134SOL     OW  419   1.369   0.950   1.660
  134SOL    HW1  420   1.408   1.039   1.680
  134SOL    HW2  421   1.379   0.930   1.563
  135SOL     OW  422   0.815   0.572   0.325
  135SOL    HW1  423   0.822   0.483   0.279
  135SOL    HW2  424   0.721   0.606   0.317
  136SOL     OW  425   1.657   0.604   1.206
  136SOL    HW1  426   1.619   0.535   1.268
  136SOL    HW2  427   1.739   0.568   1.162
  137SOL     OW  428   0.252   1.564   1.744
  137SOL    HW1  429   0.222   1.621   1.820
  137SOL    HW2  430   0.245   1.467   1.770
  138SOL     OW  431   0.671   0.464   1.269
  138SOL    HW1  432   0.637   0.375   1.239
  138SOL    HW2  433   0.697   0.518   1.189
  139SOL     OW  434   0.930   1.678   1.465
  139SOL    HW1  435   0.906   1.660   1.370
  139SOL    HW2  436   0.960   1.772   1.475
  140SOL     OW  437   0.473   0.500   0.191
  140SOL    HW1  438   0.534   0.580   0.195
  140SOL    HW2  439   0.378   0.531   0.198
  141SOL     OW  440   0.159   1.137   1.466
  141SOL    HW1  441   0.181   1.076   1.542
  141SOL    HW2  442   0.169   1.088   1.380
  142SOL     OW  443   1.302   0.855   0.309
  142SOL    HW1  444   1.216   0.824   0.351
  142SOL    HW2  445   1.298   0.841   0.210
  143SOL     OW  446   1.759   1.747   1.154
  143SOL    HW1  447   1.820   1.777   1.081
  143SOL    HW2  448   1.721   1.658   1.132
  144SOL     OW  449   1.252   1.731   1.128
  144SOL    HW1  450   1.336   1.736   1.074
  144SOL    HW2  451   1.229   1.635   1.146
  145SOL     OW  452   0.083   1.258   1.022
  145SOL    HW1  453   0.078   1.257   1.122
  145SOL    HW2  454   0.000   1.217   0.984
  146SOL     OW  455   0.688   1.662   1.716
  146SOL    HW1  456   0.632   1.743   1.725
  146SOL    HW2  457   0.740   1.666   1.630
  147SOL     OW  458   0.903   0.086   0.133
  147SOL    HW1  459   0.954   0.087   0.047
  147SOL    HW2  460   0.959   0.044   0.204
  148SOL     OW  461   1.726   0.135   0.523
  148SOL    HW1  462   1.799   0.118   0.456
  148SOL    HW2  463   1.695   0.048   0.561
  149SOL     OW  464   1.388   1.573   0.477
  149SOL    HW1  465   1.455   1.585   0.403
  149SOL    HW2  466   1.348   1.662   0.500
  150SOL     OW  467   0.130   1.794   1.851
  150SOL    HW1  468   0.089   1.720   1.904
  150SOL    HW2  469   0.194   1.845   1.909
  151SOL     OW  470   1.280   0.927   0.672
  151SOL    HW1  471   1.340   0.846   0.674
  151SOL    HW2  472   1.320   0.996   0.612
  152SOL     OW  473   0.830   1.273   1.422
  152SOL    HW1  474   0.825   1.306   1.517
  152SOL    HW2  475   0.744   1.292   1.376
  153SOL     OW  476   0.672   1.616   0.154
  153SOL    HW1  477   0.681   1.626   0.055
  153SOL    HW2  478   0.632   1.527   0.175
  154SOL     OW  479   1.841   0.175   0.963
  154SOL    HW1  480   1.880   0.090   0.927
  154SOL    HW2  481   1.743   0.177   0.944
  155SOL     OW  482   0.263   0.326   0.720
  155SOL    HW1  483   0.184   0.377   0.686
  155SOL    HW2  484   0.254   0.311   0.818
  156SOL     OW  485   1.194   1.612   0.031
  156SOL    HW1  486   1.200   1.519   0.068
  156SOL    HW2  487   1.135   1.612  -0.049
  157SOL     OW  488   0.822   1.002   1.372
  157SOL    HW1  489   0.862   1.001   1.280
  157SOL    HW2  490   0.832   1.094   1.412
  158SOL     OW  491   0.916   0.910   0.291
  158SOL    HW1  492   0.979   0.948   0.223
  158SOL    HW2  493   0.956   0.827   0.330
  159SOL     OW  494   1.504   1.607   0.044
  159SOL    HW1  495   1.412   1.644   0.051
  159SOL    HW2  496   1.542   1.627  -0.046
  160SOL     OW  497   0.372   1.288   1.490
  160SOL    HW1  498   0.359   1.381   1.456
  160SOL    HW2  499   0.288   1.236   1.477
  161SOL     OW  500   1.039   1.098   0.696
  161SOL    HW1  501   0.969   1.051   0.750
  161SOL    HW2  502   1.098   1.030   0.653
  162SOL     OW  503   1.014   0.236   0.971
  162SOL    HW1  504   1.006   0.200   0.878
  162SOL    HW2  505   1.012   0.160   1.036
  163SOL     OW  506   0.590   1.487   0.491
  163SOL    HW1  507   0.632   1.429   0.421
  163SOL    HW2  508   0.546   1.566   0.447
  164SOL     OW  509   1.709   0.385   1.381
  164SOL    HW1  510   1.782   0.454   1.385
  164SOL    HW2  511   1.737   0.310   1.322
  165SOL     OW  512   0.255   1.348   0.290
  165SOL    HW1  513   0.159   1.349   0.263
  165SOL    HW2  514   0.267   1.401   0.374
  166SOL     OW  515   0.105   1.013   1.726
  166SOL    HW1  516   0.028   0.980   1.780
  166SOL    HW2  517   0.190   0.983   1.768
  167SOL     OW  518   0.672   0.203   1.489
  167SOL    HW1  519   0.762   0.187   1.449
  167SOL    HW2  520   0.680   0.208   1.588
  168SOL     OW  521   0.075   0.345   0.033
  168SOL    HW1  522  -0.017   0.317   0.004
  168SOL    HW2  523   0.106   0.422  -0.023
  169SOL     OW  524   1.440   0.856   1.398
  169SOL    HW1  525   1.383   0.908   1.335
  169SOL    HW2  526   1.536   0.868   1.374
  170SOL     OW  527   0.072   0.166   0.318
  170SOL    HW1  528   0.055   0.249   0.264
  170SOL    HW2  529   0.162   0.129   0.296
  171SOL     OW  530   1.183   1.335   0.119
  171SOL    HW1  531   1.084   1.324   0.121
  171SOL    HW2  532   1.217   1.350   0.212
  172SOL     OW  533   0.613   0.842   1.431
  172SOL    HW1  534   0.669   0.923   1.414
  172SOL    HW2  535   0.672   0.762   1.434
  173SOL     OW  536   1.493   1.767   0.959
  173SOL    HW1  537   1.526   1.831   0.890
  173SOL    HW2  538   1.559   1.761   1.034
  174SOL     OW  539   0.716   0.565   1.708
  174SOL    HW1  540   0.735   0.630   1.782
  174SOL    HW2  541   0.776   0.485   1.717
  175SOL     OW  542   1.450   1.220   1.633
  175SOL    HW1  543   1.441   1.210   1.732
  175SOL    HW2  544   1.546   1.213   1.607
  176SOL     OW  545   0.390   1.741   1.560
  176SOL    HW1  546   0.299   1.782   1.558
  176SOL    HW2  547   0.383   1.647   1.592
  177SOL     OW  548   1.674   0.883   1.254
  177SOL    HW1  549   1.647   0.794   1.217
  177SOL    HW2  550   1.675   0.951   1.181
  178SOL     OW  551   1.225   0.325   0.449
  178SOL    HW1  552   1.290   0.251   0.438
  178SOL    HW2  553   1.245   0.375   0.533
  179SOL     OW  554   0.594   0.745   0.652
  179SOL    HW1  555   0.644   0.830   0.633
  179SOL    HW2  556   0.506   0.747   0.604
  180SOL     OW  557   1.777   0.342   1.642
  180SOL    HW1  558   1.760   0.373   1.548
  180SOL    HW2  559   1.693   0.305   1.680
  181SOL     OW  560   1.730   0.934   1.517
  181SOL    HW1  561   1.768   1.025   1.532
  181SOL    HW2  562   1.722   0.917   1.418
  182SOL     OW  563   0.859   1.374   0.016
  182SOL    HW1  564   0.813   1.389   0.104
  182SOL    HW2  565   0.903   1.459  -0.014
  183SOL     OW  566   0.661   1.790   0.953
  183SOL    HW1  567   0.615   1.878   0.940
  183SOL    HW2  568   0.760   1.802   0.946
  184SOL     OW  569   0.859   0.956   0.861
  184SOL    HW1  570   0.913   0.887   0.909
  184SOL    HW2  571   0.827   1.025   0.927
  185SOL     OW  572   1.083   0.984   0.087
  185SOL    HW1  573   1.060   1.037   0.005
  185SOL    HW2  574   1.164   0.928   0.068
  186SOL     OW  575   1.861   1.569   0.851
  186SOL    HW1  576   1.790   1.557   0.781
  186SOL    HW2  577   1.862   1.490   0.911
  187SOL     OW  578   0.221   1.314   1.844
  187SOL    HW1  579   0.156   1.241   1.823
  187SOL    HW2  580   0.225   1.328   1.942
  188SOL     OW  581   0.079   1.240   0.653
  188SOL    HW1  582   0.078   1.193   0.741
  188SOL    HW2  583   0.161   1.212   0.602
  189SOL     OW  584   0.672   1.391   1.624
  189SOL    HW1  585   0.594   1.341   1.662
  189SOL    HW2  586   0.669   1.486   1.655
  190SOL     OW  587   1.824   0.192   1.227
  190SOL    HW1  588   1.820   0.102   1.271
  190SOL    HW2  589   1.827   0.181   1.128
  191SOL     OW  590   0.428   0.424   0.520
  191SOL    HW1  591   0.458   0.352   0.458
  191SOL    HW2  592   0.389   0.384   0.603
  192SOL     OW  593   1.705   1.487   1.104
  192SOL    HW1  594   1.612   1.462   1.077
  192SOL    HW2  595   1.731   1.437   1.186
  193SOL     OW  596   0.317   0.547   1.280
  193SOL    HW1  597   0.355   0.488   1.352
  193SOL    HW2  598   0.357   0.521   1.192
  194SOL     OW  599   0.812   1.586   0.687
  194SOL    HW1  600   0.844   1.596   0.593
  194SOL    HW2  601   0.733   1.524   0.689
  195SOL     OW  602   1.424   0.214   1.112
  195SOL    HW1  603   1.476   0.149   1.167
  195SOL    HW2  604   1.375   0.277   1.173
  196SOL     OW  605   1.001   0.034   1.154
  196SOL    HW1  606   0.938  -0.038   1.123
  196SOL    HW2  607   1.094  -0.002   1.154
  197SOL     OW  608   0.770   1.330   0.301
  197SOL    HW1  609   0.724   1.243   0.318
  197SOL    HW2  610   0.861   1.327   0.342
  198SOL     OW  611   0.618   1.567   1.284
  198SOL    HW1  612   0.613   1.649   1.341
  198SOL    HW2  613   0.707   1.564   1.239
  199SOL     OW  614   1.352   0.052   0.168
  199SOL    HW1  615   1.387   0.011   0.084
  199SOL    HW2  616   1.262   0.014   0.188
  200SOL     OW  617   1.300   0.453   0.691
  200SOL    HW1  618   1.241   0.533   0.695
  200SOL    HW2  619   1.315   0.418   0.784
  201SOL     OW  620   1.593   0.221   0.882
  201SOL    HW1  621   1.509   0.220   0.936
  201SOL    HW2  622   1.595   0.304   0.826
  202SOL     OW  623   0.039   1.077   0.300
  202SOL    HW1  624   0.138   1.066   0.291
  202SOL    HW2  625  -0.001   0.991   0.332
  203SOL     OW  626   0.875   1.646   0.337
  203SOL    HW1  627   0.798   1.611   0.283
  203SOL    HW2  628   0.843   1.717   0.399
  204SOL     OW  629   0.230   0.628   1.975
  204SOL    HW1  630   0.137   0.626   2.012
  204SOL    HW2  631   0.231   0.589   1.883
  205SOL     OW  632   0.225   0.275   2.858
  205SOL    HW1  633   0.260   0.258   2.950
  205SOL    HW2  634   0.137   0.230   2.846
  206SOL     OW  635   0.019   0.368   2.509
  206SOL    HW1  636  -0.063   0.411   2.548
  206SOL    HW2  637  -0.009   0.295   2.446
  207SOL     OW  638   1.555   1.511   2.565
  207SOL    HW1  639   1.498   1.495   2.646
  207SOL    HW2  640   1.496   1.521   2.485
  208SOL     OW  641   1.135   0.703   2.579
  208SOL    HW1  642   1.192   0.781   2.554
  208SOL    HW2  643   1.075   0.729   2.655
  209SOL     OW  644   1.755   0.607   2.093
  209SOL    HW1  645   1.743   0.594   1.994
  209SOL    HW2  646   1.725   0.526   2.142
  210SOL     OW  647   0.768   1.144   2.885
  210SOL    HW1  648   0.690   1.161   2.945
  210SOL    HW2  649   0.802   1.231   2.849
  211SOL     OW  650   0.685   1.012   2.527
  211SOL    HW1  651   0.754   0.996   2.597
  211SOL    HW2  652   0.612   1.069   2.565
  212SOL     OW  653   0.335   1.435   2.923
  212SOL    HW1  654   0.257   1.404   2.870
  212SOL    HW2  655   0.393   1.493   2.866
  213SOL     OW  656   1.603   0.447   2.599
  213SOL    HW1  657   1.529   0.493   2.549
  213SOL    HW2  658   1.654   0.515   2.652
  214SOL     OW  659   0.231   1.713   2.345
  214SOL    HW1  660   0.265   1.790   2.399
  214SOL    HW2  661   0.275   1.713   2.255
  215SOL     OW  662   0.230   1.434   2.400
  215SOL    HW1  663   0.204   1.530   2.400
  215SOL    HW2  664   0.159   1.380   2.445
  216SOL     OW  665   0.240   1.091   2.748
  216SOL    HW1  666   0.254   1.007   2.800
  216SOL    HW2  667   0.185   1.155   2.803
  217SOL     OW  668   0.606   0.964   1.985
  217SOL    HW1  669   0.613   1.048   1.931
  217SOL    HW2  670   0.652   0.977   2.073
  218SOL     OW  671   0.122   0.643   2.425
  218SOL    HW1  672   0.077   0.555   2.442
  218SOL    HW2  673   0.121   0.697   2.509
  219SOL     OW  674   1.842   1.767   2.221
  219SOL    HW1  675   1.896   1.738   2.301
  219SOL    HW2  676   1.872   1.857   2.192
  220SOL     OW  677   0.027   1.596   1.979
  220SOL    HW1  678   0.008   1.500   2.000
  220SOL    HW2  679  -0.006   1.654   2.054
  221SOL     OW  680   1.689   0.922   2.474
  221SOL    HW1  681   1.784   0.893   2.482
  221SOL    HW2  682   1.681   0.987   2.399
  222SOL     OW  683   1.641   1.108   2.294
  222SOL    HW1  684   1.727   1.110   2.242
  222SOL    HW2  685   1.655   1.155   2.382
  223SOL     OW  686   0.613   1.365   2.588
  223SOL    HW1  687   0.564   1.278   2.597
  223SOL    HW2  688   0.590   1.408   2.501
  224SOL     OW  689   0.809   0.004   2.364
  224SOL    HW1  690   0.849   0.095   2.355
  224SOL    HW2  691   0.709   0.012   2.370
  225SOL     OW  692   1.525   0.999   2.052
  225SOL    HW1  693   1.462   0.923   2.065
  225SOL    HW2  694   1.573   1.017   2.138
  226SOL     OW  695   1.466   1.417   2.815
  226SOL    HW1  696   1.407   1.423   2.895
  226SOL    HW2  697   1.451   1.329   2.769
  227SOL     OW  698   1.667   1.714   2.434
  227SOL    HW1  699   1.626   1.691   2.346
  227SOL    HW2  700   1.649   1.640   2.499
  228SOL     OW  701   0.598   0.729   2.132
  228SOL    HW1  702   0.622   0.798   2.064
  228SOL    HW2  703   0.520   0.762   2.186
  229SOL     OW  704   1.281   0.345   2.806
  229SOL    HW1  705   1.195   0.295   2.793
  229SOL    HW2  706   1.343   0.291   2.862
  230SOL     OW  707   1.576   1.662   2.169
  230SOL    HW1  708   1.665   1.708   2.172
  230SOL    HW2  709   1.555   1.638   2.074
  231SOL     OW  710   1.041   0.701   2.291
  231SOL    HW1  711   1.067   0.697   2.387
  231SOL    HW2  712   0.956   0.650   2.277
  232SOL     OW  713   0.076   0.811   2.651
  232SOL    HW1  714   0.175   0.799   2.660
  232SOL    HW2  715   0.052   0.906   2.672
  233SOL     OW  716   0.865   0.348   2.057
  233SOL    HW1  717   0.924   0.411   2.008
  233SOL    HW2  718   0.884   0.254   2.028
  234SOL     OW  719   1.362   1.144   2.407
  234SOL    HW1  720   1.445   1.115   2.359
  234SOL    HW2  721   1.313   1.211   2.351
  235SOL     OW  722   0.550   0.196   2.747
  235SOL    HW1  723   0.545   0.191   2.847
  235SOL    HW2  724   0.552   0.292   2.718
  236SOL     OW  725   1.008   1.456   2.339
  236SOL    HW1  726   0.962   1.528   2.287
  236SOL    HW2  727   1.004   1.476   2.437
  237SOL     OW  728   0.351   1.801   2.715
  237SOL    HW1  729   0.401   1.715   2.721
  237SOL    HW2  730   0.416   1.878   2.712
  238SOL     OW  731   1.795   1.066   2.735
  238SOL    HW1  732   1.733   1.051   2.659
  238SOL    HW2  733   1.743   1.077   2.820
  239SOL     OW  734   0.321   0.943   2.104
  239SOL    HW1  735   0.403   0.982   2.062
  239SOL    HW2  736   0.294   0.861   2.055
  240SOL     OW  737   1.458   0.735   2.590
  240SOL    HW1  738   1.453   0.670   2.665
  240SOL    HW2  739   1.538   0.794   2.603
  241SOL     OW  740   1.111   1.776   2.099
  241SOL    HW1  741   1.051   1.714   2.149
  241SOL    HW2  742   1.142   1.732   2.014
  242SOL     OW  743   1.632   1.377   1.943
  242SOL    HW1  744   1.600   1.471   1.933
  242SOL    HW2  745   1.556   1.314   1.931
  243SOL     OW  746   0.464   1.743   2.185
  243SOL    HW1  747   0.497   1.782   2.271
  243SOL    HW2  748   0.540   1.736   2.120
  244SOL     OW  749   1.400   0.107   2.288
  244SOL    HW1  750   1.376   0.070   2.198
  244SOL    HW2  751   1.499   0.123   2.292
  245SOL     OW  752   0.249   1.785   3.103
  245SOL    HW1  753   0.306   1.720   3.153
  245SOL    HW2  754   0.233   1.752   3.010
  246SOL     OW  755   0.940   1.698   2.766
  246SOL    HW1  756   1.020   1.641   2.787
  246SOL    HW2  757   0.891   1.658   2.689
  247SOL     OW  758   0.382   0.700   2.342
  247SOL    HW1  759   0.427   0.610   2.339
  247SOL    HW2  760   0.288   0.689   2.375
  248SOL     OW  761   0.614   0.122   1.979
  248SOL    HW1  762   0.712   0.100   1.986
  248SOL    HW2  763   0.583   0.105   1.886
  249SOL     OW  764   0.803   1.402   2.786
  249SOL    HW1  765   0.893   1.416   2.744
  249SOL    HW2  766   0.732   1.404   2.715
  250SOL     OW  767   0.922   0.503   2.761
  250SOL    HW1  768   0.897   0.494   2.665
  250SOL    HW2  769   0.970   0.421   2.792
  251SOL     OW  770   0.539   0.064   2.374
  251SOL    HW1  771   0.458   0.065   2.432
  251SOL    HW2  772   0.542   0.147   2.319
  252SOL     OW  773   1.434   1.188   1.903
  252SOL    HW1  774   1.466   1.112   1.960
  252SOL    HW2  775   1.342   1.215   1.933
  253SOL     OW  776   0.297   0.035   2.033
  253SOL    HW1  777   0.346   0.119   2.012
  253SOL    HW2  778   0.359  -0.030   2.078
  254SOL     OW  779   0.935   0.236   2.342
  254SOL    HW1  780   0.887   0.277   2.264
  254SOL    HW2  781   1.034   0.234   2.323
  255SOL     OW  782   1.227   1.570   2.655
  255SOL    HW1  783   1.248   1.644   2.590
  255SOL    HW2  784   1.295   1.570   2.728
  256SOL     OW  785   0.459   1.152   2.603
  256SOL    HW1  786   0.388   1.125   2.668
  256SOL    HW2  787   0.433   1.124   2.510
  257SOL     OW  788   1.271   1.797   2.453
  257SOL    HW1  789   1.315   1.861   2.389
  257SOL    HW2  790   1.221   1.849   2.523
  258SOL     OW  791   1.032   0.549   1.878
  258SOL    HW1  792   0.991   0.631   1.839
  258SOL    HW2  793   1.096   0.575   1.951
  259SOL     OW  794   0.866   0.454   2.504
  259SOL    HW1  795   0.834   0.526   2.442
  259SOL    HW2  796   0.890   0.373   2.451
  260SOL     OW  797   1.017   0.039   2.615
  260SOL    HW1  798   0.945   0.044   2.546
  260SOL    HW2  799   0.993  -0.030   2.684
  261SOL     OW  800   1.429   1.173   2.729
  261SOL    HW1  801   1.374   1.089   2.722
  261SOL    HW2  802   1.455   1.202   2.637
  262SOL     OW  803   1.466   0.590   2.854
  262SOL    HW1  804   1.436   0.495   2.861
  262SOL    HW2  805   1.539   0.606   2.920
  263SOL     OW  806   1.857   0.833   2.239
  263SOL    HW1  807   1.899   0.769   2.303
  263SOL    HW2  808   1.819   0.782   2.161
  264SOL     OW  809   0.488   1.385   2.036
  264SOL    HW1  810   0.401   1.370   2.083
  264SOL    HW2  811   0.471   1.411   1.941
  265SOL     OW  812   1.664   1.280   2.519
  265SOL    HW1  813   1.763   1.288   2.533
  265SOL    HW2  814   1.619   1.364   2.550
  266SOL     OW  815   1.390   0.575   1.940
  266SOL    HW1  816   1.336   0.554   2.021
  266SOL    HW2  817   1.481   0.534   1.949
  267SOL     OW  818   0.527   0.256   2.190
  267SOL    HW1  819   0.554   0.197   2.115
  267SOL    HW2  820   0.527   0.351   2.159
  268SOL     OW  821   1.638   1.099   2.941
  268SOL    HW1  822   1.643   1.180   3.000
  268SOL    HW2  823   1.552   1.101   2.890
  269SOL     OW  824   0.705   1.050   2.230
  269SOL    HW1  825   0.691   1.057   2.329
  269SOL    HW2  826   0.789   0.999   2.212
  270SOL     OW  827   0.367   1.100   2.363
  270SOL    HW1  828   0.360   1.183   2.307
  270SOL    HW2  829   0.371   1.020   2.303
  271SOL     OW  830   0.566   0.537   2.727
  271SOL    HW1  831   0.578   0.603   2.653
  271SOL    HW2  832   0.612   0.571   2.810
  272SOL     OW  833   1.252   1.348   2.250
  272SOL    HW1  834   1.302   1.425   2.290
  272SOL    HW2  835   1.157   1.350   2.282
  273SOL     OW  836   1.582   0.639   2.334
  273SOL    HW1  837   1.551   0.700   2.407
  273SOL    HW2  838   1.632   0.691   2.265
  274SOL     OW  839   0.573   0.870   2.891
  274SOL    HW1  840   0.617   0.959   2.882
  274SOL    HW2  841   0.510   0.870   2.968
  275SOL     OW  842   1.209   0.525   2.137
  275SOL    HW1  843   1.222   0.441   2.191
  275SOL    HW2  844   1.180   0.599   2.197
  276SOL     OW  845   0.732   0.634   2.926
  276SOL    HW1  846   0.791   0.608   2.850
  276SOL    HW2  847   0.704   0.730   2.915
  277SOL     OW  848   0.307   0.063   2.480
  277SOL    HW1  849   0.296   0.157   2.513
  277SOL    HW2  850   0.302   0.000   2.557
  278SOL     OW  851   1.622   0.367   2.236
  278SOL    HW1  852   1.624   0.291   2.300
  278SOL    HW2  853   1.574   0.444   2.276
  279SOL     OW  854   1.540   0.274   1.987
  279SOL    HW1  855   1.479   0.199   2.010
  279SOL    HW2  856   1.562   0.326   2.070
  280SOL     OW  857   1.303   0.838   1.904
  280SOL    HW1  858   1.337   0.745   1.919
  280SOL    HW2  859   1.321   0.865   1.809
  281SOL     OW  860   1.068   1.333   2.711
  281SOL    HW1  861   1.075   1.249   2.656
  281SOL    HW2  862   1.130   1.402   2.675
  282SOL     OW  863   0.319   0.810   2.811
  282SOL    HW1  864   0.412   0.846   2.816
  282SOL    HW2  865   0.313   0.725   2.863
  283SOL     OW  866   0.339   0.509   2.868
  283SOL    HW1  867   0.287   0.426   2.851
  283SOL    HW2  868   0.416   0.514   2.804
  284SOL     OW  869   0.008   1.326   2.062
  284SOL    HW1  870  -0.085   1.347   2.031
  284SOL    HW2  871   0.018   1.227   2.075
  285SOL     OW  872   0.088   1.801   2.789
  285SOL    HW1  873   0.046   1.715   2.762
  285SOL    HW2  874   0.182   1.804   2.755
  286SOL     OW  875   0.504   1.568   2.772
  286SOL    HW1  876   0.570   1.642   2.781
  286SOL    HW2  877   0.548   1.489   2.730
  287SOL     OW  878   0.815   0.572   2.187
  287SOL    HW1  879   0.822   0.483   2.141
  287SOL    HW2  880   0.721   0.606   2.179
  288SOL     OW  881   0.671   0.464   3.131
  288SOL    HW1  882   0.637   0.375   3.101
  288SOL    HW2  883   0.697   0.518   3.051
  289SOL     OW  884   0.473   0.500   2.053
  289SOL    HW1  885   0.534   0.580   2.057
  289SOL    HW2  886   0.378   0.531   2.060
  290SOL     OW  887   1.302   0.855   2.171
  290SOL    HW1  888   1.216   0.824   2.213
  290SOL    HW2  889   1.298   0.841   2.072
  291SOL     OW  890   1.759   1.747   3.016
  291SOL    HW1  891   1.820   1.777   2.943
  291SOL    HW2  892   1.721   1.658   2.994
  292SOL     OW  893   0.083   1.258   2.884
  292SOL    HW1  894   0.078   1.257   2.984
  292SOL    HW2  895   0.000   1.217   2.846
  293SOL     OW  896   1.726   0.135   2.385
  293SOL    HW1  897   1.799   0.118   2.318
  293SOL    HW2  898   1.695   0.048   2.423
  294SOL     OW  899   1.388   1.573   2.339
  294SOL    HW1  900   1.455   1.585   2.265
  294SOL    HW2  901   1.348   1.662   2.362
  295SOL     OW  902   1.280   0.927   2.534
  295SOL    HW1  903   1.340   0.846   2.536
  295SOL    HW2  904   1.320   0.996   2.474
  296SOL     OW  905   0.672   1.616   2.016
  296SOL    HW1  906   0.681   1.626   1.917
  296SOL    HW2  907   0.632   1.527   2.037
  297SOL     OW  908   1.841   0.175   2.825
  297SOL    HW1  909   1.880   0.090   2.789
  297SOL    HW2  910   1.743   0.177   2.806
  298SOL     OW  911   0.263   0.326   2.582
  298SOL    HW1  912   0.184   0.377   2.548
  298SOL    HW2  913   0.254   0.311   2.680
  299SOL     OW  914   1.194   1.612   1.893
  299SOL    HW1  915   1.200   1.519   1.930
  299SOL    HW2  916   1.135   1.612   1.813
  300SOL     OW  917   0.916   0.910   2.153
  300SOL    HW1  918   0.979   0.948   2.085
  300SOL    HW2  919   0.956   0.827   2.192
  301SOL     OW  920   1.039   1.098   2.558
  301SOL    HW1  921   0.969   1.051   2.612
  301SOL    HW2  922   1.098   1.030   2.515
  302SOL     OW  923   0.590   1.487   2.353
  302SOL    HW1  924   0.632   1.429   2.283
  302SOL    HW2  925   0.546   1.566   2.309
  303SOL     OW  926   0.255   1.348   2.152
  303SOL    HW1  927   0.159   1.349   2.125
  303SOL    HW2  928   0.267   1.401   2.236
  304SOL     OW  929   0.075   0.345   1.895
  304SOL    HW1  930  -0.017   0.317   1.866
  304SOL    HW2  931   0.106   0.422   1.839
  305SOL     OW  932   0.072   0.166   2.180
  305SOL    HW1  933   0.055   0.249   2.126
  305SOL    HW2  934   0.162   0.129   2.158
  306SOL     OW  935   1.183   1.335   1.981
  306SOL    HW1  936   1.084   1.324   1.983
  306SOL    HW2  937   1.217   1.350   2.074
  307SOL     OW  938   1.674   0.883   3.116
  307SOL    HW1  939   1.647   0.794   3.079
  307SOL    HW2  940   1.675   0.951   3.043
  308SOL     OW  941   1.225   0.325   2.311
  308SOL    HW1  942   1.290   0.251   2.300
  308SOL    HW2  943   1.245   0.375   2.395
  309SOL     OW  944   0.594   0.745   2.514
  309SOL    HW1  945   0.644   0.830   2.495
  309SOL    HW2  946   0.506   0.747   2.466
  310SOL     OW  947   0.859   1.374   1.878
  310SOL    HW1  948   0.813   1.389   1.966
  310SOL    HW2  949   0.903   1.459   1.848
  311SOL     OW  950   0.661   1.790   2.815
  311SOL    HW1  951   0.615   1.878   2.802
  311SOL    HW2  952   0.760   1.802   2.808
  312SOL     OW  953   0.859   0.956   2.723
  312SOL    HW1  954   0.913   0.887   2.771
  312SOL    HW2  955   0.827   1.025   2.789
  313SOL     OW  956   1.083   0.984   1.949
  313SOL    HW1  957   1.060   1.037   1.867
  313SOL    HW2  958   1.164   0.928   1.930
  314SOL     OW  959   1.861   1.569   2.713
  314SOL    HW1  960   1.790   1.557   2.643
  314SOL    HW2  961   1.862   1.490   2.773
  315SOL     OW  962   0.079   1.240   2.515
  315SOL    HW1  963   0.078   1.193   2.603
  315SOL    HW2  964   0.161   1.212   2.464
  316SOL     OW  965   1.824   0.192   3.089
  316SOL    HW1  966   1.820   0.102   3.133
  316SOL    HW2  967   1.827   0.181   2.990
  317SOL     OW  968   0.428   0.424   2.382
  317SOL    HW1  969   0.458   0.352   2.320
  317SOL    HW2  970   0.389   0.384   2.465
  318SOL     OW  971   0.812   1.586   2.549
  318SOL    HW1  972   0.844   1.596   2.455
  318SOL    HW2  973   0.733   1.524   2.551
  319SOL     OW  974   0.770   1.330   2.163
  319SOL    HW1  975   0.724   1.243   2.180
  319SOL    HW2  976   0.861   1.327   2.204
  320SOL     OW  977   1.352   0.052   2.030
  320SOL    HW1  978   1.387   0.011   1.946
  320SOL    HW2  979   1.262   0.014   2.050
  321SOL     OW  980   1.300   0.453   2.553
  321SOL    HW1  981   1.241   0.533   2.557
  321SOL    HW2  982   1.315   0.418   2.646
  322SOL     OW  983   1.593   0.221   2.744
  322SOL    HW1  984   1.509   0.220   2.798
  322SOL    HW2  985   1.595   0.304   2.688
  323SOL     OW  986   0.039   1.077   2.162
  323SOL    HW1  987   0.138   1.066   2.153
  323SOL    HW2  988  -0.001   0.991   2.194
  324SOL     OW  989   0.875   1.646   2.199
  324SOL    HW1  990   0.798   1.611   2.145
  324SOL    HW2  991   0.843   1.717   2.261
  325SOL     OW  992   0.230   2.490   0.113
  325SOL    HW1  993   0.137   2.488   0.150
  325SOL    HW2  994   0.231   2.451   0.021
  326SOL     OW  995   0.225   2.137   0.996
  326SOL    HW1  996   0.260   2.120   1.088
  326SOL    HW2  997   0.137   2.092   0.984
  327SOL     OW  998   0.019   2.230   0.647
  327SOL    HW1  999  -0.063   2.273   0.686
  327SOL    HW2 1000  -0.009   2.157   0.584
  328SOL     OW 1001   1.135   2.565   0.717
  328SOL    HW1 1002   1.192   2.643   0.692
  328SOL    HW2 1003   1.075   2.591   0.793
  329SOL     OW 1004   1.755   2.469   0.231
  329SOL    HW1 1005   1.743   2.456   0.132
  329SOL    HW2 1006   1.725   2.388   0.280
  330SOL     OW 1007   0.768   3.006   1.023
  330SOL    HW1 1008   0.690   3.023   1.083
  330SOL    HW2 1009   0.802   3.093   0.987
  331SOL     OW 1010   0.850   2.660   1.823
  331SOL    HW1 1011   0.846   2.736   1.888
  331SOL    HW2 1012   0.872   2.696   1.732
  332SOL     OW 1013   0.685   2.874   0.665
  332SOL    HW1 1014   0.754   2.858   0.735
  332SOL    HW2 1015   0.612   2.931   0.703
  333SOL     OW 1016   0.438   2.254   1.499
  333SOL    HW1 1017   0.520   2.198   1.508
  333SOL    HW2 1018   0.357   2.196   1.503
  334SOL     OW 1019   1.603   2.309   0.737
  334SOL    HW1 1020   1.529   2.355   0.687
  334SOL    HW2 1021   1.654   2.377   0.790
  335SOL     OW 1022   0.240   2.953   0.886
  335SOL    HW1 1023   0.254   2.869   0.938
  335SOL    HW2 1024   0.185   3.017   0.941
  336SOL     OW 1025   0.606   2.826   0.123
  336SOL    HW1 1026   0.613   2.910   0.069
  336SOL    HW2 1027   0.652   2.839   0.211
  337SOL     OW 1028   1.594   1.976   1.480
  337SOL    HW1 1029   1.576   2.043   1.408
  337SOL    HW2 1030   1.591   2.022   1.569
  338SOL     OW 1031   0.122   2.505   0.563
  338SOL    HW1 1032   0.077   2.417   0.580
  338SOL    HW2 1033   0.121   2.559   0.647
  339SOL     OW 1034   1.689   2.784   0.612
  339SOL    HW1 1035   1.784   2.755   0.620
  339SOL    HW2 1036   1.681   2.849   0.537
  340SOL     OW 1037   0.113   2.599   1.597
  340SOL    HW1 1038   0.201   2.586   1.642
  340SOL    HW2 1039   0.100   2.696   1.575
  341SOL     OW 1040   0.809   1.866   0.502
  341SOL    HW1 1041   0.849   1.957   0.493
  341SOL    HW2 1042   0.709   1.874   0.508
  342SOL     OW 1043   0.197   2.838   1.264
  342SOL    HW1 1044   0.286   2.793   1.250
  342SOL    HW2 1045   0.124   2.773   1.245
  343SOL     OW 1046   1.525   2.861   0.190
  343SOL    HW1 1047   1.462   2.785   0.203
  343SOL    HW2 1048   1.573   2.879   0.276
  344SOL     OW 1049   0.317   2.113   1.801
  344SOL    HW1 1050   0.388   2.184   1.807
  344SOL    HW2 1051   0.229   2.152   1.829
  345SOL     OW 1052   0.598   2.591   0.270
  345SOL    HW1 1053   0.622   2.660   0.202
  345SOL    HW2 1054   0.520   2.624   0.324
  346SOL     OW 1055   1.281   2.207   0.944
  346SOL    HW1 1056   1.195   2.157   0.931
  346SOL    HW2 1057   1.343   2.153   1.000
  347SOL     OW 1058   0.807   2.467   1.465
  347SOL    HW1 1059   0.760   2.464   1.554
  347SOL    HW2 1060   0.756   2.412   1.399
  348SOL     OW 1061   1.394   2.331   1.674
  348SOL    HW1 1062   1.374   2.374   1.762
  348SOL    HW2 1063   1.472   2.269   1.683
  349SOL     OW 1064   0.973   2.752   1.572
  349SOL    HW1 1065   1.019   2.668   1.543
  349SOL    HW2 1066   0.917   2.786   1.497
  350SOL     OW 1067   0.991   2.272   1.242
  350SOL    HW1 1068   0.914   2.306   1.296
  350SOL    HW2 1069   0.957   2.221   1.163
  351SOL     OW 1070   1.041   2.563   0.429
  351SOL    HW1 1071   1.067   2.559   0.525
  351SOL    HW2 1072   0.956   2.512   0.415
  352SOL     OW 1073   0.076   2.673   0.789
  352SOL    HW1 1074   0.175   2.661   0.798
  352SOL    HW2 1075   0.052   2.768   0.810
  353SOL     OW 1076   0.865   2.210   0.195
  353SOL    HW1 1077   0.924   2.273   0.146
  353SOL    HW2 1078   0.884   2.116   0.166
  354SOL     OW 1079   1.719   2.447   1.831
  354SOL    HW1 1080   1.693   2.536   1.795
  354SOL    HW2 1081   1.717   2.379   1.758
  355SOL     OW 1082   0.550   2.058   0.885
  355SOL    HW1 1083   0.545   2.053   0.985
  355SOL    HW2 1084   0.552   2.154   0.856
  356SOL     OW 1085   1.458   2.597   0.728
  356SOL    HW1 1086   1.453   2.532   0.803
  356SOL    HW2 1087   1.538   2.656   0.741
  357SOL     OW 1088   0.202   2.147   1.498
  357SOL    HW1 1089   0.122   2.207   1.485
  357SOL    HW2 1090   0.192   2.098   1.584
  358SOL     OW 1091   1.400   1.969   0.426
  358SOL    HW1 1092   1.376   1.932   0.336
  358SOL    HW2 1093   1.499   1.985   0.430
  359SOL     OW 1094   0.382   2.562   0.480
  359SOL    HW1 1095   0.427   2.472   0.477
  359SOL    HW2 1096   0.288   2.551   0.513
  360SOL     OW 1097   1.547   2.084   1.729
  360SOL    HW1 1098   1.542   2.121   1.821
  360SOL    HW2 1099   1.475   2.015   1.717
  361SOL     OW 1100   0.614   1.984   0.117
  361SOL    HW1 1101   0.712   1.962   0.124
  361SOL    HW2 1102   0.583   1.967   0.024
  362SOL     OW 1103   0.781   2.126   1.749
  362SOL    HW1 1104   0.848   2.065   1.792
  362SOL    HW2 1105   0.708   2.145   1.814
  363SOL     OW 1106   1.351   2.452   1.433
  363SOL    HW1 1107   1.379   2.409   1.518
  363SOL    HW2 1108   1.376   2.548   1.434
  364SOL     OW 1109   0.922   2.365   0.899
  364SOL    HW1 1110   0.897   2.356   0.803
  364SOL    HW2 1111   0.970   2.283   0.930
  365SOL     OW 1112   0.539   1.926   0.512
  365SOL    HW1 1113   0.458   1.927   0.570
  365SOL    HW2 1114   0.542   2.009   0.457
  366SOL     OW 1115   0.935   2.098   0.480
  366SOL    HW1 1116   0.887   2.139   0.402
  366SOL    HW2 1117   1.034   2.096   0.461
  367SOL     OW 1118   1.076   2.545   1.464
  367SOL    HW1 1119   0.996   2.484   1.467
  367SOL    HW2 1120   1.157   2.492   1.440
  368SOL     OW 1121   1.032   2.411   0.016
  368SOL    HW1 1122   0.991   2.493  -0.023
  368SOL    HW2 1123   1.096   2.437   0.089
  369SOL     OW 1124   0.078   2.418   1.386
  369SOL    HW1 1125   0.170   2.417   1.345
  369SOL    HW2 1126   0.072   2.492   1.453
  370SOL     OW 1127   0.561   2.084   1.147
  370SOL    HW1 1128   0.599   2.000   1.184
  370SOL    HW2 1129   0.473   2.103   1.191
  371SOL     OW 1130   0.866   2.316   0.642
  371SOL    HW1 1131   0.834   2.388   0.580
  371SOL    HW2 1132   0.890   2.235   0.589
  372SOL     OW 1133   1.017   1.901   0.753
  372SOL    HW1 1134   0.945   1.906   0.684
  372SOL    HW2 1135   0.993   1.832   0.822
  373SOL     OW 1136   1.429   3.035   0.867
  373SOL    HW1 1137   1.374   2.951   0.860
  373SOL    HW2 1138   1.455   3.064   0.775
  374SOL     OW 1139   1.466   2.452   0.992
  374SOL    HW1 1140   1.436   2.357   0.999
  374SOL    HW2 1141   1.539   2.468   1.058
  375SOL     OW 1142   1.857   2.695   0.377
  375SOL    HW1 1143   1.899   2.631   0.441
  375SOL    HW2 1144   1.819   2.644   0.299
  376SOL     OW 1145   1.390   2.437   0.078
  376SOL    HW1 1146   1.336   2.416   0.159
  376SOL    HW2 1147   1.481   2.396   0.087
  377SOL     OW 1148   0.527   2.118   0.328
  377SOL    HW1 1149   0.554   2.059   0.253
  377SOL    HW2 1150   0.527   2.213   0.297
  378SOL     OW 1151   1.638   2.961   1.079
  378SOL    HW1 1152   1.643   3.042   1.138
  378SOL    HW2 1153   1.552   2.963   1.028
  379SOL     OW 1154   0.915   1.951   1.402
  379SOL    HW1 1155   0.940   1.931   1.307
  379SOL    HW2 1156   0.987   2.007   1.444
  380SOL     OW 1157   0.410   2.675   1.251
  380SOL    HW1 1158   0.496   2.687   1.301
  380SOL    HW2 1159   0.368   2.588   1.278
  381SOL     OW 1160   1.274   2.248   1.262
  381SOL    HW1 1161   1.295   2.322   1.326
  381SOL    HW2 1162   1.185   2.265   1.219
  382SOL     OW 1163   0.566   2.399   0.865
  382SOL    HW1 1164   0.578   2.465   0.791
  382SOL    HW2 1165   0.612   2.433   0.948
  383SOL     OW 1166   1.582   2.501   0.472
  383SOL    HW1 1167   1.551   2.562   0.545
  383SOL    HW2 1168   1.632   2.553   0.403
  384SOL     OW 1169   0.402   2.613   1.598
  384SOL    HW1 1170   0.470   2.668   1.551
  384SOL    HW2 1171   0.442   2.525   1.625
  385SOL     OW 1172   1.587   2.641   1.670
  385SOL    HW1 1173   1.495   2.679   1.665
  385SOL    HW2 1174   1.647   2.688   1.605
  386SOL     OW 1175   1.013   1.967   1.770
  386SOL    HW1 1176   1.019   2.052   1.718
  386SOL    HW2 1177   1.045   1.891   1.713
  387SOL     OW 1178   0.504   1.912   1.740
  387SOL    HW1 1179   0.462   1.855   1.670
  387SOL    HW2 1180   0.438   1.981   1.772
  388SOL     OW 1181   0.573   2.732   1.029
  388SOL    HW1 1182   0.617   2.821   1.020
  388SOL    HW2 1183   0.510   2.732   1.106
  389SOL     OW 1184   1.360   2.724   1.045
  389SOL    HW1 1185   1.285   2.724   0.979
  389SOL    HW2 1186   1.397   2.632   1.054
  390SOL     OW 1187   1.209   2.387   0.275
  390SOL    HW1 1188   1.222   2.303   0.329
  390SOL    HW2 1189   1.180   2.461   0.335
  391SOL     OW 1190   0.307   2.075   1.231
  391SOL    HW1 1191   0.284   2.112   1.321
  391SOL    HW2 1192   0.277   1.980   1.225
  392SOL     OW 1193   0.037   3.172   1.282
  392SOL    HW1 1194   0.090   3.123   1.350
  392SOL    HW2 1195   0.059   3.270   1.287
  393SOL     OW 1196   0.732   2.496   1.064
  393SOL    HW1 1197   0.791   2.470   0.988
  393SOL    HW2 1198   0.704   2.592   1.053
  394SOL     OW 1199   1.728   2.797   1.854
  394SOL    HW1 1200   1.682   2.790   1.765
  394SOL    HW2 1201   1.666   2.841   1.920
  395SOL     OW 1202   0.307   1.925   0.618
  395SOL    HW1 1203   0.296   2.019   0.651
  395SOL    HW2 1204   0.302   1.862   0.695
  396SOL     OW 1205   1.622   2.229   0.374
  396SOL    HW1 1206   1.624   2.153   0.438
  396SOL    HW2 1207   1.574   2.306   0.414
  397SOL     OW 1208   1.023   2.628   0.966
  397SOL    HW1 1209   1.038   2.649   1.062
  397SOL    HW2 1210   0.993   2.533   0.957
  398SOL     OW 1211   0.350   2.760   1.804
  398SOL    HW1 1212   0.426   2.804   1.852
  398SOL    HW2 1213   0.385   2.713   1.722
  399SOL     OW 1214   1.540   2.136   0.125
  399SOL    HW1 1215   1.479   2.061   0.148
  399SOL    HW2 1216   1.562   2.188   0.208
  400SOL     OW 1217   1.303   2.700   0.042
  400SOL    HW1 1218   1.337   2.607   0.057
  400SOL    HW2 1219   1.321   2.727  -0.053
  401SOL     OW 1220   0.319   2.672   0.949
  401SOL    HW1 1221   0.412   2.708   0.954
  401SOL    HW2 1222   0.313   2.587   1.001
  402SOL     OW 1223   0.339   2.371   1.006
  402SOL    HW1 1224   0.287   2.288   0.989
  402SOL    HW2 1225   0.416   2.376   0.942
  403SOL     OW 1226   1.138   2.242   1.678
  403SOL    HW1 1227   1.093   2.305   1.742
  403SOL    HW2 1228   1.231   2.273   1.661
  404SOL     OW 1229   1.160   2.069   1.477
  404SOL    HW1 1230   1.160   2.133   1.554
  404SOL    HW2 1231   1.188   2.117   1.394
  405SOL     OW 1232   1.002   2.658   1.238
  405SOL    HW1 1233   1.043   2.626   1.324
  405SOL    HW2 1234   0.906   2.631   1.235
  406SOL     OW 1235   0.040   2.406   1.114
  406SOL    HW1 1236   0.125   2.373   1.073
  406SOL    HW2 1237   0.053   2.421   1.212
  407SOL     OW 1238   0.189   2.382   1.722
  407SOL    HW1 1239   0.248   2.342   1.652
  407SOL    HW2 1240   0.131   2.453   1.681
  408SOL     OW 1241   1.369   2.812   1.660
  408SOL    HW1 1242   1.408   2.901   1.680
  408SOL    HW2 1243   1.379   2.792   1.563
  409SOL     OW 1244   0.815   2.434   0.325
  409SOL    HW1 1245   0.822   2.345   0.279
  409SOL    HW2 1246   0.721   2.468   0.317
  410SOL     OW 1247   1.657   2.466   1.206
  410SOL    HW1 1248   1.619   2.397   1.268
  410SOL    HW2 1249   1.739   2.430   1.162
  411SOL     OW 1250   0.671   2.326   1.269
  411SOL    HW1 1251   0.637   2.237   1.239
  411SOL    HW2 1252   0.697   2.380   1.189
  412SOL     OW 1253   0.473   2.362   0.191
  412SOL    HW1 1254   0.534   2.442   0.195
  412SOL    HW2 1255   0.378   2.393   0.198
  413SOL     OW 1256   0.159   2.999   1.466
  413SOL    HW1 1257   0.181   2.938   1.542
  413SOL    HW2 1258   0.169   2.950   1.380
  414SOL     OW 1259   1.347   2.921   1.234
  414SOL    HW1 1260   1.371   2.858   1.160
  414SOL    HW2 1261   1.257   2.961   1.216
  415SOL     OW 1262   1.302   2.717   0.309
  415SOL    HW1 1263   1.216   2.686   0.351
  415SOL    HW2 1264   1.298   2.703   0.210
  416SOL     OW 1265   0.903   1.948   0.133
  416SOL    HW1 1266   0.954   1.949   0.047
  416SOL    HW2 1267   0.959   1.906   0.204
  417SOL     OW 1268   1.726   1.997   0.523
  417SOL    HW1 1269   1.799   1.980   0.456
  417SOL    HW2 1270   1.695   1.910   0.561
  418SOL     OW 1271   1.280   2.789   0.672
  418SOL    HW1 1272   1.340   2.708   0.674
  418SOL    HW2 1273   1.320   2.858   0.612
  419SOL     OW 1274   1.841   2.037   0.963
  419SOL    HW1 1275   1.880   1.952   0.927
  419SOL    HW2 1276   1.743   2.039   0.944
  420SOL     OW 1277   0.263   2.188   0.720
  420SOL    HW1 1278   0.184   2.239   0.686
  420SOL    HW2 1279   0.254   2.173   0.818
  421SOL     OW 1280   0.916   2.772   0.291
  421SOL    HW1 1281   0.979   2.810   0.223
  421SOL    HW2 1282   0.956   2.689   0.330
  422SOL     OW 1283   1.014   2.098   0.971
  422SOL    HW1 1284   1.006   2.062   0.878
  422SOL    HW2 1285   1.012   2.022   1.036
  423SOL     OW 1286   1.709   2.247   1.381
  423SOL    HW1 1287   1.782   2.316   1.385
  423SOL    HW2 1288   1.737   2.172   1.322
  424SOL     OW 1289   0.105   2.875   1.726
  424SOL    HW1 1290   0.028   2.842   1.780
  424SOL    HW2 1291   0.190   2.845   1.768
  425SOL     OW 1292   0.672   2.065   1.489
  425SOL    HW1 1293   0.762   2.049   1.449
  425SOL    HW2 1294   0.680   2.070   1.588
  426SOL     OW 1295   0.075   2.207   0.033
  426SOL    HW1 1296  -0.017   2.179   0.004
  426SOL    HW2 1297   0.106   2.284  -0.023
  427SOL     OW 1298   1.440   2.718   1.398
  427SOL    HW1 1299   1.383   2.770   1.335
  427SOL    HW2 1300   1.536   2.730   1.374
  428SOL     OW 1301   0.072   2.028   0.318
  428SOL    HW1 1302   0.055   2.111   0.264
  428SOL    HW2 1303   0.162   1.991   0.296
  429SOL     OW 1304   1.183   3.197   0.119
  429SOL    HW1 1305   1.084   3.186   0.121
  429SOL    HW2 1306   1.217   3.212   0.212
  430SOL     OW 1307   0.613   2.704   1.431
  430SOL    HW1 1308   0.669   2.785   1.414
  430SOL    HW2 1309   0.672   2.624   1.434
  431SOL     OW 1310   0.716   2.427   1.708
  431SOL    HW1 1311   0.735   2.492   1.782
  431SOL    HW2 1312   0.776   2.347   1.717
  432SOL     OW 1313   1.674   2.745   1.254
  432SOL    HW1 1314   1.647   2.656   1.217
  432SOL    HW2 1315   1.675   2.813   1.181
  433SOL     OW 1316   1.225   2.187   0.449
  433SOL    HW1 1317   1.290   2.113   0.438
  433SOL    HW2 1318   1.245   2.237   0.533
  434SOL     OW 1319   0.594   2.607   0.652
  434SOL    HW1 1320   0.644   2.692   0.633
  434SOL    HW2 1321   0.506   2.609   0.604
  435SOL     OW 1322   1.777   2.204   1.642
  435SOL    HW1 1323   1.760   2.235   1.548
  435SOL    HW2 1324   1.693   2.167   1.680
  436SOL     OW 1325   1.730   2.796   1.517
  436SOL    HW1 1326   1.768   2.887   1.532
  436SOL    HW2 1327   1.722   2.779   1.418
  437SOL     OW 1328   0.859   2.818   0.861
  437SOL    HW1 1329   0.913   2.749   0.909
  437SOL    HW2 1330   0.827   2.887   0.927
  438SOL     OW 1331   1.083   2.846   0.087
  438SOL    HW1 1332   1.060   2.899   0.005
  438SOL    HW2 1333   1.164   2.790   0.068
  439SOL     OW 1334   0.079   3.102   0.653
  439SOL    HW1 1335   0.078   3.055   0.741
  439SOL    HW2 1336   0.161   3.074   0.602
  440SOL     OW 1337   1.824   2.054   1.227
  440SOL    HW1 1338   1.820   1.964   1.271
  440SOL    HW2 1339   1.827   2.043   1.128
  441SOL     OW 1340   0.428   2.286   0.520
  441SOL    HW1 1341   0.458   2.214   0.458
  441SOL    HW2 1342   0.389   2.246   0.603
  442SOL     OW 1343   0.317   2.409   1.280
  442SOL    HW1 1344   0.355   2.350   1.352
  442SOL    HW2 1345   0.357   2.383   1.192
  443SOL     OW 1346   1.424   2.076   1.112
  443SOL    HW1 1347   1.476   2.011   1.167
  443SOL    HW2 1348   1.375   2.139   1.173
  444SOL     OW 1349   1.001   1.896   1.154
  444SOL    HW1 1350   0.938   1.824   1.123
  444SOL    HW2 1351   1.094   1.860   1.154
  445SOL     OW 1352   1.352   1.914   0.168
  445SOL    HW1 1353   1.387   1.873   0.084
  445SOL    HW2 1354   1.262   1.876   0.188
  446SOL     OW 1355   1.300   2.315   0.691
  446SOL    HW1 1356   1.241   2.395   0.695
  446SOL    HW2 1357   1.315   2.280   0.784
  447SOL     OW 1358   1.593   2.083   0.882
  447SOL    HW1 1359   1.509   2.082   0.936
  447SOL    HW2 1360   1.595   2.166   0.826
  448SOL     OW 1361   0.230   2.490   1.975
  448SOL    HW1 1362   0.137   2.488   2.012
  448SOL    HW2 1363   0.231   2.451   1.883
  449SOL     OW 1364   0.225   2.137   2.858
  449SOL    HW1 1365   0.260   2.120   2.950
  449SOL    HW2 1366   0.137   2.092   2.846
  450SOL     OW 1367   0.019   2.230   2.509
  450SOL    HW1 1368  -0.063   2.273   2.548
  450SOL    HW2 1369  -0.009   2.157   2.446
  451SOL     OW 1370   1.135   2.565   2.579
  451SOL    HW1 1371   1.192   2.643   2.554
  451SOL    HW2 1372   1.075   2.591   2.655
  452SOL     OW 1373   1.755   2.469   2.093
  452SOL    HW1 1374   1.743   2.456   1.994
  452SOL    HW2 1375   1.725   2.388   2.142
  453SOL     OW 1376   0.685   2.874   2.527
  453SOL    HW1 1377   0.754   2.858   2.597
  453SOL    HW2 1378   0.612   2.931   2.565
  454SOL     OW 1379   1.603   2.309   2.599
  454SOL    HW1 1380   1.529   2.355   2.549
  454SOL    HW2 1381   1.654   2.377   2.652
  455SOL     OW 1382   0.240   2.953   2.748
  455SOL    HW1 1383   0.254   2.869   2.800
  455SOL    HW2 1384   0.185   3.017   2.803
  456SOL     OW 1385   0.606   2.826   1.985
  456SOL    HW1 1386   0.613   2.910   1.931
  456SOL    HW2 1387   0.652   2.839   2.073
  457SOL     OW 1388   0.122   2.505   2.425
  457SOL    HW1 1389   0.077   2.417   2.442
  457SOL    HW2 1390   0.121   2.559   2.509
  458SOL     OW 1391   1.689   2.784   2.474
  458SOL    HW1 1392   1.784   2.755   2.482
  458SOL    HW2 1393   1.681   2.849   2.399
  459SOL     OW 1394   0.809   1.866   2.364
  459SOL    HW1 1395   0.849   1.957   2.355
  459SOL    HW2 1396   0.709   1.874   2.370
  460SOL     OW 1397   1.525   2.861   2.052
  460SOL    HW1 1398   1.462   2.785   2.065
  460SOL    HW2 1399   1.573   2.879   2.138
  461SOL     OW 1400   0.598   2.591   2.132
  461SOL    HW1 1401   0.622   2.660   2.064
  461SOL    HW2 1402   0.520   2.624   2.186
  462SOL     OW 1403   1.281   2.207   2.806
  462SOL    HW1 1404   1.195   2.157   2.793
  462SOL    HW2 1405   1.343   2.153   2.862
  463SOL     OW 1406   1.041   2.563   2.291
  463SOL    HW1 1407   1.067   2.559   2.387
  463SOL    HW2 1408   0.956   2.512   2.277
  464SOL     OW 1409   0.076   2.673   2.651
  464SOL    HW1 1410   0.175   2.661   2.660
  464SOL    HW2 1411   0.052   2.768   2.672
  465SOL     OW 1412   0.865   2.210   2.057
  465SOL    HW1 1413   0.924   2.273   2.008
  465SOL    HW2 1414   0.884   2.116   2.028
  466SOL     OW 1415   0.550   2.058   2.747
  466SOL    HW1 1416   0.545   2.053   2.847
  466SOL    HW2 1417   0.552   2.154   2.718
  467SOL     OW 1418   1.458   2.597   2.590
  467SOL    HW1 1419   1.453   2.532   2.665
  467SOL    HW2 1420   1.538   2.656   2.603
  468SOL     OW 1421   1.400   1.969   2.288
  468SOL    HW1 1422   1.376   1.932   2.198
  468SOL    HW2 1423   1.499   1.985   2.292
  469SOL     OW 1424   0.382   2.562   2.342
  469SOL    HW1 1425   0.427   2.472   2.339
  469SOL    HW2 1426   0.288   2.551   2.375
  470SOL     OW 1427   0.614   1.984   1.979
  470SOL    HW1 1428   0.712   1.962   1.986
  470SOL    HW2 1429   0.583   1.967   1.886
  471SOL     OW 1430   0.922   2.365   2.761
  471SOL    HW1 1431   0.897   2.356   2.665
  471SOL    HW2 1432   0.970   2.283   2.792
  472SOL     OW 1433   0.539   1.926   2.374
  472SOL    HW1 1434   0.458   1.927   2.432
  472SOL    HW2 1435   0.542   2.009   2.319
  473SOL     OW 1436   0.297   1.897   2.033
  473SOL    HW1 1437   0.346   1.981   2.012
  473SOL    HW2 1438   0.359   1.832   2.078
  474SOL     OW 1439   0.935   2.098   2.342
  474SOL    HW1 1440   0.887   2.139   2.264
  474SOL    HW2 1441   1.034   2.096   2.323
  475SOL     OW 1442   1.032   2.411   1.878
  475SOL    HW1 1443   0.991   2.493   1.839
  475SOL    HW2 1444   1.096   2.437   1.951
  476SOL     OW 1445   0.866   2.316   2.504
  476SOL    HW1 1446   0.834   2.388   2.442
  476SOL    HW2 1447   0.890   2.235   2.451
  477SOL     OW 1448   1.017   1.901   2.615
  477SOL    HW1 1449   0.945   1.906   2.546
  477SOL    HW2 1450   0.993   1.832   2.684
  478SOL     OW 1451   1.429   3.035   2.729
  478SOL    HW1 1452   1.374   2.951   2.722
  478SOL    HW2 1453   1.455   3.064   2.637
  479SOL     OW 1454   1.466   2.452   2.854
  479SOL    HW1 1455   1.436   2.357   2.861
  479SOL    HW2 1456   1.539   2.468   2.920
  480SOL     OW 1457   1.857   2.695   2.239
  480SOL    HW1 1458   1.899   2.631   2.303
  480SOL    HW2 1459   1.819   2.644   2.161
  481SOL     OW 1460   1.390   2.437   1.940
  481SOL    HW1 1461   1.336   2.416   2.021
  481SOL    HW2 1462   1.481   2.396   1.949
  482SOL     OW 1463   0.527   2.118   2.190
  482SOL    HW1 1464   0.554   2.059   2.115
  482SOL    HW2 1465   0.527   2.213   2.159
  483SOL     OW 1466   1.638   2.961   2.941
  483SOL    HW1 1467   1.643   3.042   3.000
  483SOL    HW2 1468   1.552   2.963   2.890
  484SOL     OW 1469   0.566   2.399   2.727
  484SOL    HW1 1470   0.578   2.465   2.653
  484SOL    HW2 1471   0.612   2.433   2.810
  485SOL     OW 1472   1.582   2.501   2.334
  485SOL    HW1 1473   1.551   2.562   2.407
  485SOL    HW2 1474   1.632   2.553   2.265
  486SOL     OW 1475   0.573   2.732   2.891
  486SOL    HW1 1476   0.617   2.821   2.882
  486SOL    HW2 1477   0.510   2.732   2.968
  487SOL     OW 1478   1.209   2.387   2.137
  487SOL    HW1 1479   1.222   2.303   2.191
  487SOL    HW2 1480   1.180   2.461   2.197
  488SOL     OW 1481   0.307   2.075   3.093
  488SOL    HW1 1482   0.284   2.112   3.183
  488SOL    HW2 1483   0.277   1.980   3.087
  489SOL     OW 1484   0.732   2.496   2.926
  489SOL    HW1 1485   0.791   2.470   2.850
  489SOL    HW2 1486   0.704   2.592   2.915
  490SOL     OW 1487   0.307   1.925   2.480
  490SOL    HW1 1488   0.296   2.019   2.513
  490SOL    HW2 1489   0.302   1.862   2.557
  491SOL     OW 1490   1.622   2.229   2.236
  491SOL    HW1 1491   1.624   2.153   2.300
  491SOL    HW2 1492   1.574   2.306   2.276
  492SOL     OW 1493   1.540   2.136   1.987
  492SOL    HW1 1494   1.479   2.061   2.010
  492SOL    HW2 1495   1.562   2.188   2.070
  493SOL     OW 1496   1.303   2.700   1.904
  493SOL    HW1 1497   1.337   2.607   1.919
  493SOL    HW2 1498   1.321   2.727   1.809
  494SOL     OW 1499   0.319   2.672   2.811
  494SOL    HW1 1500   0.412   2.708   2.816
  494SOL    HW2 1501   0.313   2.587   2.863
  495SOL     OW 1502   0.339   2.371   2.868
  495SOL    HW1 1503   0.287   2.288   2.851
  495SOL    HW2 1504   0.416   2.376   2.804
  496SOL     OW 1505   0.815   2.434   2.187
  496SOL    HW1 1506   0.822   2.345   2.141
  496SOL    HW2 1507   0.721   2.468   2.179
  497SOL     OW 1508   0.671   2.326   3.131
  497SOL    HW1 1509   0.637   2.237   3.101
  497SOL    HW2 1510   0.697   2.380   3.051
  498SOL     OW 1511   0.473   2.362   2.053
  498SOL    HW1 1512   0.534   2.442   2.057
  498SOL    HW2 1513   0.378   2.393   2.060
  499SOL     OW 1514   1.302   2.717   2.171
  499SOL    HW1 1515   1.216   2.686   2.213
  499SOL    HW2 1516   1.298   2.703   2.072
  500SOL     OW 1517   1.726   1.997   2.385
  500SOL    HW1 1518   1.799   1.980   2.318
  500SOL    HW2 1519   1.695   1.910   2.423
  501SOL     OW 1520   1.280   2.789   2.534
  501SOL    HW1 1521   1.340   2.708   2.536
  501SOL    HW2 1522   1.320   2.858   2.474
  502SOL     OW 1523   1.841   2.037   2.825
  502SOL    HW1 1524   1.880   1.952   2.789
  502SOL    HW2 1525   1.743   2.039   2.806
  503SOL     OW 1526   0.263   2.188   2.582
  503SOL    HW1 1527   0.184   2.239   2.548
  503SOL    HW2 1528   0.254   2.173   2.680
  504SOL     OW 1529   0.916   2.772   2.153
  504SOL    HW1 1530   0.979   2.810   2.085
  504SOL    HW2 1531   0.956   2.689   2.192
  505SOL     OW 1532   0.075   2.207   1.895
  505SOL    HW1 1533  -0.017   2.179   1.866
  505SOL    HW2 1534   0.106   2.284   1.839
  506SOL     OW 1535   0.072   2.028   2.180
  506SOL    HW1 1536   0.055   2.111   2.126
  506SOL    HW2 1537   0.162   1.991   2.158
  507SOL     OW 1538   1.183   3.197   1.981
  507SOL    HW1 1539   1.084   3.186   1.983
  507SOL    HW2 1540   1.217   3.212   2.074
  508SOL     OW 1541   1.674   2.745   3.116
  508SOL    HW1 1542   1.647   2.656   3.079
  508SOL    HW2 1543   1.675   2.813   3.043
  509SOL     OW 1544   1.225   2.187   2.311
  509SOL    HW1 1545   1.290   2.113   2.300
  509SOL    HW2 1546   1.245   2.237   2.395
  510SOL     OW 1547   0.594   2.607   2.514
  510SOL    HW1 1548   0.644   2.692   2.495
  510SOL    HW2 1549   0.506   2.609   2.466
  511SOL     OW 1550   0.859   2.818   2.723
  511SOL    HW1 1551   0.913   2.749   2.771
  511SOL    HW2 1552   0.827   2.887   2.789
  512SOL     OW 1553   1.083   2.846   1.949
  512SOL    HW1 1554   1.060   2.899   1.867
  512SOL    HW2 1555   1.164   2.790   1.930
  513SOL     OW 1556   0.079   3.102   2.515
  513SOL    HW1 1557   0.078   3.055   2.603
  513SOL    HW2 1558   0.161   3.074   2.464
  514SOL     OW 1559   1.824   2.054   3.089
  514SOL    HW1 1560   1.820   1.964   3.133
  514SOL    HW2 1561   1.827   2.043   2.990
  515SOL     OW 1562   0.428   2.286   2.382
  515SOL    HW1 1563   0.458   2.214   2.320
  515SOL    HW2 1564   0.389   2.246   2.465
  516SOL     OW 1565   1.352   1.914   2.030
  516SOL    HW1 1566   1.387   1.873   1.946
  516SOL    HW2 1567   1.262   1.876   2.050
  517SOL     OW 1568   1.300   2.315   2.553
  517SOL    HW1 1569   1.241   2.395   2.557
  517SOL    HW2 1570   1.315   2.280   2.646
  518SOL     OW 1571   1.593   2.083   2.744
  518SOL    HW1 1572   1.509   2.082   2.798
  518SOL    HW2 1573   1.595   2.166   2.688
  519SOL     OW 1574   2.092   0.628   0.113
  519SOL    HW1 1575   1.999   0.626   0.150
  519SOL    HW2 1576   2.093   0.589   0.021
  520SOL     OW 1577   2.087   0.275   0.996
  520SOL    HW1 1578   2.122   0.258   1.088
  520SOL    HW2 1579   1.999   0.230   0.984
  521SOL     OW 1580   1.881   0.368   0.647
  521SOL    HW1 1581   1.799   0.411   0.686
  521SOL    HW2 1582   1.853   0.295   0.584
  522SOL     OW 1583   2.431   1.275   1.165
  522SOL    HW1 1584   2.338   1.268   1.128
  522SOL    HW2 1585   2.442   1.364   1.209
  523SOL     OW 1586   2.630   1.144   1.023
  523SOL    HW1 1587   2.552   1.161   1.083
  523SOL    HW2 1588   2.664   1.231   0.987
  524SOL     OW 1589   2.712   0.798   1.823
  524SOL    HW1 1590   2.708   0.874   1.888
  524SOL    HW2 1591   2.734   0.834   1.732
  525SOL     OW 1592   2.547   1.012   0.665
  525SOL    HW1 1593   2.616   0.996   0.735
  525SOL    HW2 1594   2.474   1.069   0.703
  526SOL     OW 1595   2.548   1.161   1.803
  526SOL    HW1 1596   2.608   1.240   1.817
  526SOL    HW2 1597   2.462   1.192   1.762
  527SOL     OW 1598   2.197   1.435   1.061
  527SOL    HW1 1599   2.119   1.404   1.008
  527SOL    HW2 1600   2.255   1.493   1.004
  528SOL     OW 1601   2.300   0.392   1.499
  528SOL    HW1 1602   2.382   0.336   1.508
  528SOL    HW2 1603   2.219   0.334   1.503
  529SOL     OW 1604   2.093   1.713   0.483
  529SOL    HW1 1605   2.127   1.790   0.537
  529SOL    HW2 1606   2.137   1.713   0.393
  530SOL     OW 1607   2.092   1.434   0.538
  530SOL    HW1 1608   2.066   1.530   0.538
  530SOL    HW2 1609   2.021   1.380   0.583
  531SOL     OW 1610   2.102   1.091   0.886
  531SOL    HW1 1611   2.116   1.007   0.938
  531SOL    HW2 1612   2.047   1.155   0.941
  532SOL     OW 1613   2.482   1.786   1.439
  532SOL    HW1 1614   2.390   1.769   1.474
  532SOL    HW2 1615   2.510   1.878   1.465
  533SOL     OW 1616   2.468   0.964   0.123
  533SOL    HW1 1617   2.475   1.048   0.069
  533SOL    HW2 1618   2.514   0.977   0.211
  534SOL     OW 1619   1.984   0.643   0.563
  534SOL    HW1 1620   1.939   0.555   0.580
  534SOL    HW2 1621   1.983   0.697   0.647
  535SOL     OW 1622   1.889   1.596   0.117
  535SOL    HW1 1623   1.870   1.500   0.138
  535SOL    HW2 1624   1.856   1.654   0.192
  536SOL     OW 1625   1.975   0.737   1.597
  536SOL    HW1 1626   2.063   0.724   1.642
  536SOL    HW2 1627   1.962   0.834   1.575
  537SOL     OW 1628   2.475   1.365   0.726
  537SOL    HW1 1629   2.426   1.278   0.735
  537SOL    HW2 1630   2.452   1.408   0.639
  538SOL     OW 1631   2.671   0.004   0.502
  538SOL    HW1 1632   2.711   0.095   0.493
  538SOL    HW2 1633   2.571   0.012   0.508
  539SOL     OW 1634   2.059   0.976   1.264
  539SOL    HW1 1635   2.148   0.931   1.250
  539SOL    HW2 1636   1.986   0.911   1.245
  540SOL     OW 1637   2.179   0.251   1.801
  540SOL    HW1 1638   2.250   0.322   1.807
  540SOL    HW2 1639   2.091   0.290   1.829
  541SOL     OW 1640   2.460   0.729   0.270
  541SOL    HW1 1641   2.484   0.798   0.202
  541SOL    HW2 1642   2.382   0.762   0.324
  542SOL     OW 1643   2.669   0.605   1.465
  542SOL    HW1 1644   2.622   0.602   1.554
  542SOL    HW2 1645   2.618   0.550   1.399
  543SOL     OW 1646   2.835   0.890   1.572
  543SOL    HW1 1647   2.881   0.806   1.543
  543SOL    HW2 1648   2.779   0.924   1.497
  544SOL     OW 1649   2.853   0.410   1.242
  544SOL    HW1 1650   2.776   0.444   1.296
  544SOL    HW2 1651   2.819   0.359   1.163
  545SOL     OW 1652   1.938   0.811   0.789
  545SOL    HW1 1653   2.037   0.799   0.798
  545SOL    HW2 1654   1.914   0.906   0.810
  546SOL     OW 1655   1.992   1.821   1.571
  546SOL    HW1 1656   1.982   1.806   1.670
  546SOL    HW2 1657   1.906   1.857   1.535
  547SOL     OW 1658   2.727   0.348   0.195
  547SOL    HW1 1659   2.786   0.411   0.146
  547SOL    HW2 1660   2.746   0.254   0.166
  548SOL     OW 1661   2.412   0.196   0.885
  548SOL    HW1 1662   2.407   0.191   0.985
  548SOL    HW2 1663   2.414   0.292   0.856
  549SOL     OW 1664   2.870   1.456   0.477
  549SOL    HW1 1665   2.824   1.528   0.425
  549SOL    HW2 1666   2.866   1.476   0.575
  550SOL     OW 1667   2.213   1.801   0.853
  550SOL    HW1 1668   2.263   1.715   0.859
  550SOL    HW2 1669   2.278   1.878   0.850
  551SOL     OW 1670   2.183   0.943   0.242
  551SOL    HW1 1671   2.265   0.982   0.200
  551SOL    HW2 1672   2.156   0.861   0.193
  552SOL     OW 1673   2.323   1.266   1.727
  552SOL    HW1 1674   2.273   1.267   1.641
  552SOL    HW2 1675   2.260   1.248   1.803
  553SOL     OW 1676   2.064   0.285   1.498
  553SOL    HW1 1677   1.984   0.345   1.485
  553SOL    HW2 1678   2.054   0.236   1.584
  554SOL     OW 1679   2.326   1.743   0.323
  554SOL    HW1 1680   2.359   1.782   0.409
  554SOL    HW2 1681   2.402   1.736   0.258
  555SOL     OW 1682   2.111   1.785   1.241
  555SOL    HW1 1683   2.168   1.720   1.291
  555SOL    HW2 1684   2.095   1.752   1.148
  556SOL     OW 1685   2.244   0.700   0.480
  556SOL    HW1 1686   2.289   0.610   0.477
  556SOL    HW2 1687   2.150   0.689   0.513
  557SOL     OW 1688   2.476   0.122   0.117
  557SOL    HW1 1689   2.574   0.100   0.124
  557SOL    HW2 1690   2.445   0.105   0.024
  558SOL     OW 1691   2.643   0.264   1.749
  558SOL    HW1 1692   2.710   0.203   1.792
  558SOL    HW2 1693   2.570   0.283   1.814
  559SOL     OW 1694   2.750   1.514   1.195
  559SOL    HW1 1695   2.727   1.489   1.101
  559SOL    HW2 1696   2.811   1.445   1.234
  560SOL     OW 1697   2.665   1.402   0.924
  560SOL    HW1 1698   2.755   1.416   0.882
  560SOL    HW2 1699   2.594   1.404   0.853
  561SOL     OW 1700   2.784   0.503   0.899
  561SOL    HW1 1701   2.759   0.494   0.803
  561SOL    HW2 1702   2.832   0.421   0.930
  562SOL     OW 1703   2.401   0.064   0.512
  562SOL    HW1 1704   2.320   0.065   0.570
  562SOL    HW2 1705   2.404   0.147   0.457
  563SOL     OW 1706   2.159   0.035   0.171
  563SOL    HW1 1707   2.208   0.119   0.150
  563SOL    HW2 1708   2.221  -0.030   0.216
  564SOL     OW 1709   2.797   0.236   0.480
  564SOL    HW1 1710   2.749   0.277   0.402
  564SOL    HW2 1711   2.896   0.234   0.461
  565SOL     OW 1712   3.089   1.570   0.793
  565SOL    HW1 1713   3.110   1.644   0.728
  565SOL    HW2 1714   3.157   1.570   0.866
  566SOL     OW 1715   2.321   1.152   0.741
  566SOL    HW1 1716   2.250   1.125   0.806
  566SOL    HW2 1717   2.295   1.124   0.648
  567SOL     OW 1718   2.894   0.549   0.016
  567SOL    HW1 1719   2.853   0.631  -0.023
  567SOL    HW2 1720   2.958   0.575   0.089
  568SOL     OW 1721   1.940   0.556   1.386
  568SOL    HW1 1722   2.032   0.555   1.345
  568SOL    HW2 1723   1.934   0.630   1.453
  569SOL     OW 1724   2.423   0.222   1.147
  569SOL    HW1 1725   2.461   0.138   1.184
  569SOL    HW2 1726   2.335   0.241   1.191
  570SOL     OW 1727   2.728   0.454   0.642
  570SOL    HW1 1728   2.696   0.526   0.580
  570SOL    HW2 1729   2.752   0.373   0.589
  571SOL     OW 1730   2.879   0.039   0.753
  571SOL    HW1 1731   2.807   0.044   0.684
  571SOL    HW2 1732   2.855  -0.030   0.822
  572SOL     OW 1733   2.350   1.385   0.174
  572SOL    HW1 1734   2.263   1.370   0.221
  572SOL    HW2 1735   2.333   1.411   0.079
  573SOL     OW 1736   2.389   0.256   0.328
  573SOL    HW1 1737   2.416   0.197   0.253
  573SOL    HW2 1738   2.389   0.351   0.297
  574SOL     OW 1739   2.777   0.089   1.402
  574SOL    HW1 1740   2.802   0.069   1.307
  574SOL    HW2 1741   2.849   0.145   1.444
  575SOL     OW 1742   2.842   1.116   1.719
  575SOL    HW1 1743   2.743   1.122   1.729
  575SOL    HW2 1744   2.865   1.036   1.663
  576SOL     OW 1745   2.567   1.050   0.368
  576SOL    HW1 1746   2.553   1.057   0.467
  576SOL    HW2 1747   2.651   0.999   0.350
  577SOL     OW 1748   2.272   0.813   1.251
  577SOL    HW1 1749   2.358   0.825   1.301
  577SOL    HW2 1750   2.230   0.726   1.278
  578SOL     OW 1751   1.926   1.564   1.331
  578SOL    HW1 1752   1.880   1.646   1.297
  578SOL    HW2 1753   2.024   1.583   1.340
  579SOL     OW 1754   2.229   1.100   0.501
  579SOL    HW1 1755   2.222   1.183   0.445
  579SOL    HW2 1756   2.233   1.020   0.441
  580SOL     OW 1757   2.428   0.537   0.865
  580SOL    HW1 1758   2.440   0.603   0.791
  580SOL    HW2 1759   2.474   0.571   0.948
  581SOL     OW 1760   2.216   1.510   1.329
  581SOL    HW1 1761   2.195   1.466   1.242
  581SOL    HW2 1762   2.313   1.536   1.332
  582SOL     OW 1763   2.264   0.751   1.598
  582SOL    HW1 1764   2.332   0.806   1.551
  582SOL    HW2 1765   2.304   0.663   1.625
  583SOL     OW 1766   2.875   0.105   1.770
  583SOL    HW1 1767   2.881   0.190   1.718
  583SOL    HW2 1768   2.907   0.029   1.713
  584SOL     OW 1769   2.366   0.050   1.740
  584SOL    HW1 1770   2.324  -0.007   1.670
  584SOL    HW2 1771   2.300   0.119   1.772
  585SOL     OW 1772   2.435   0.870   1.029
  585SOL    HW1 1773   2.479   0.959   1.020
  585SOL    HW2 1774   2.372   0.870   1.106
  586SOL     OW 1775   3.071   0.525   0.275
  586SOL    HW1 1776   3.084   0.441   0.329
  586SOL    HW2 1777   3.042   0.599   0.335
  587SOL     OW 1778   2.169   0.213   1.231
  587SOL    HW1 1779   2.146   0.250   1.321
  587SOL    HW2 1780   2.139   0.118   1.225
  588SOL     OW 1781   1.899   1.310   1.282
  588SOL    HW1 1782   1.952   1.261   1.350
  588SOL    HW2 1783   1.921   1.408   1.287
  589SOL     OW 1784   2.594   0.634   1.064
  589SOL    HW1 1785   2.653   0.608   0.988
  589SOL    HW2 1786   2.566   0.730   1.053
  590SOL     OW 1787   2.169   0.063   0.618
  590SOL    HW1 1788   2.158   0.157   0.651
  590SOL    HW2 1789   2.164   0.000   0.695
  591SOL     OW 1790   2.885   0.766   0.966
  591SOL    HW1 1791   2.900   0.787   1.062
  591SOL    HW2 1792   2.855   0.671   0.957
  592SOL     OW 1793   2.842   1.573   1.700
  592SOL    HW1 1794   2.822   1.617   1.612
  592SOL    HW2 1795   2.881   1.482   1.684
  593SOL     OW 1796   2.212   0.898   1.804
  593SOL    HW1 1797   2.288   0.942   1.852
  593SOL    HW2 1798   2.247   0.851   1.722
  594SOL     OW 1799   2.181   0.810   0.949
  594SOL    HW1 1800   2.274   0.846   0.954
  594SOL    HW2 1801   2.175   0.725   1.001
  595SOL     OW 1802   2.201   0.509   1.006
  595SOL    HW1 1803   2.149   0.426   0.989
  595SOL    HW2 1804   2.278   0.514   0.942
  596SOL     OW 1805   1.870   1.326   0.200
  596SOL    HW1 1806   1.777   1.347   0.169
  596SOL    HW2 1807   1.880   1.227   0.213
  597SOL     OW 1808   1.950   1.801   0.927
  597SOL    HW1 1809   1.908   1.715   0.900
  597SOL    HW2 1810   2.044   1.804   0.893
  598SOL     OW 1811   2.366   1.568   0.910
  598SOL    HW1 1812   2.432   1.642   0.919
  598SOL    HW2 1813   2.410   1.489   0.868
  599SOL     OW 1814   2.864   0.796   1.238
  599SOL    HW1 1815   2.905   0.764   1.324
  599SOL    HW2 1816   2.768   0.769   1.235
  600SOL     OW 1817   1.902   0.544   1.114
  600SOL    HW1 1818   1.987   0.511   1.073
  600SOL    HW2 1819   1.915   0.559   1.212
  601SOL     OW 1820   2.051   0.520   1.722
  601SOL    HW1 1821   2.110   0.480   1.652
  601SOL    HW2 1822   1.993   0.591   1.681
  602SOL     OW 1823   2.677   0.572   0.325
  602SOL    HW1 1824   2.684   0.483   0.279
  602SOL    HW2 1825   2.583   0.606   0.317
  603SOL     OW 1826   2.114   1.564   1.744
  603SOL    HW1 1827   2.084   1.621   1.820
  603SOL    HW2 1828   2.107   1.467   1.770
  604SOL     OW 1829   2.533   0.464   1.269
  604SOL    HW1 1830   2.499   0.375   1.239
  604SOL    HW2 1831   2.559   0.518   1.189
  605SOL     OW 1832   2.792   1.678   1.465
  605SOL    HW1 1833   2.768   1.660   1.370
  605SOL    HW2 1834   2.822   1.772   1.475
  606SOL     OW 1835   2.335   0.500   0.191
  606SOL    HW1 1836   2.396   0.580   0.195
  606SOL    HW2 1837   2.240   0.531   0.198
  607SOL     OW 1838   2.021   1.137   1.466
  607SOL    HW1 1839   2.043   1.076   1.542
  607SOL    HW2 1840   2.031   1.088   1.380
  608SOL     OW 1841   1.945   1.258   1.022
  608SOL    HW1 1842   1.940   1.257   1.122
  608SOL    HW2 1843   1.862   1.217   0.984
  609SOL     OW 1844   2.550   1.662   1.716
  609SOL    HW1 1845   2.494   1.743   1.725
  609SOL    HW2 1846   2.602   1.666   1.630
  610SOL     OW 1847   2.765   0.086   0.133
  610SOL    HW1 1848   2.816   0.087   0.047
  610SOL    HW2 1849   2.821   0.044   0.204
  611SOL     OW 1850   1.992   1.794   1.851
  611SOL    HW1 1851   1.951   1.720   1.904
  611SOL    HW2 1852   2.056   1.845   1.909
  612SOL     OW 1853   3.142   0.927   0.672
  612SOL    HW1 1854   3.202   0.846   0.674
  612SOL    HW2 1855   3.182   0.996   0.612
  613SOL     OW 1856   2.692   1.273   1.422
  613SOL    HW1 1857   2.687   1.306   1.517
  613SOL    HW2 1858   2.606   1.292   1.376
  614SOL     OW 1859   2.534   1.616   0.154
  614SOL    HW1 1860   2.543   1.626   0.055
  614SOL    HW2 1861   2.494   1.527   0.175
  615SOL     OW 1862   2.125   0.326   0.720
  615SOL    HW1 1863   2.046   0.377   0.686
  615SOL    HW2 1864   2.116   0.311   0.818
  616SOL     OW 1865   2.684   1.002   1.372
  616SOL    HW1 1866   2.724   1.001   1.280
  616SOL    HW2 1867   2.694   1.094   1.412
  617SOL     OW 1868   2.778   0.910   0.291
  617SOL    HW1 1869   2.841   0.948   0.223
  617SOL    HW2 1870   2.818   0.827   0.330
  618SOL     OW 1871   2.234   1.288   1.490
  618SOL    HW1 1872   2.221   1.381   1.456
  618SOL    HW2 1873   2.150   1.236   1.477
  619SOL     OW 1874   2.876   0.236   0.971
  619SOL    HW1 1875   2.868   0.200   0.878
  619SOL    HW2 1876   2.874   0.160   1.036
  620SOL     OW 1877   2.452   1.487   0.491
  620SOL    HW1 1878   2.494   1.429   0.421
  620SOL    HW2 1879   2.408   1.566   0.447
  621SOL     OW 1880   2.117   1.348   0.290
  621SOL    HW1 1881   2.021   1.349   0.263
  621SOL    HW2 1882   2.129   1.401   0.374
  622SOL     OW 1883   1.967   1.013   1.726
  622SOL    HW1 1884   1.890   0.980   1.780
  622SOL    HW2 1885   2.052   0.983   1.768
  623SOL     OW 1886   2.534   0.203   1.489
  623SOL    HW1 1887   2.624   0.187   1.449
  623SOL    HW2 1888   2.542   0.208   1.588
  624SOL     OW 1889   1.937   0.345   0.033
  624SOL    HW1 1890   1.845   0.317   0.004
  624SOL    HW2 1891   1.968   0.422  -0.023
  625SOL     OW 1892   1.934   0.166   0.318
  625SOL    HW1 1893   1.917   0.249   0.264
  625SOL    HW2 1894   2.024   0.129   0.296
  626SOL     OW 1895   2.475   0.842   1.431
  626SOL    HW1 1896   2.531   0.923   1.414
  626SOL    HW2 1897   2.534   0.762   1.434
  627SOL     OW 1898   2.578   0.565   1.708
  627SOL    HW1 1899   2.597   0.630   1.782
  627SOL    HW2 1900   2.638   0.485   1.717
  628SOL     OW 1901   2.252   1.741   1.560
  628SOL    HW1 1902   2.161   1.782   1.558
  628SOL    HW2 1903   2.245   1.647   1.592
  629SOL     OW 1904   3.087   0.325   0.449
  629SOL    HW1 1905   3.152   0.251   0.438
  629SOL    HW2 1906   3.107   0.375   0.533
  630SOL     OW 1907   2.456   0.745   0.652
  630SOL    HW1 1908   2.506   0.830   0.633
  630SOL    HW2 1909   2.368   0.747   0.604
  631SOL     OW 1910   2.721   1.374   0.016
  631SOL    HW1 1911   2.675   1.389   0.104
  631SOL    HW2 1912   2.765   1.459  -0.014
  632SOL     OW 1913   2.523   1.790   0.953
  632SOL    HW1 1914   2.477   1.878   0.940
  632SOL    HW2 1915   2.622   1.802   0.946
  633SOL     OW 1916   2.721   0.956   0.861
  633SOL    HW1 1917   2.775   0.887   0.909
  633SOL    HW2 1918   2.689   1.025   0.927
  634SOL     OW 1919   2.945   0.984   0.087
  634SOL    HW1 1920   2.922   1.037   0.005
  634SOL    HW2 1921   3.026   0.928   0.068
  635SOL     OW 1922   2.083   1.314   1.844
  635SOL    HW1 1923   2.018   1.241   1.823
  635SOL    HW2 1924   2.087   1.328   1.942
  636SOL     OW 1925   1.941   1.240   0.653
  636SOL    HW1 1926   1.940   1.193   0.741
  636SOL    HW2 1927   2.023   1.212   0.602
  637SOL     OW 1928   2.534   1.391   1.624
  637SOL    HW1 1929   2.456   1.341   1.662
  637SOL    HW2 1930   2.531   1.486   1.655
  638SOL     OW 1931   2.290   0.424   0.520
  638SOL    HW1 1932   2.320   0.352   0.458
  638SOL    HW2 1933   2.251   0.384   0.603
  639SOL     OW 1934   2.179   0.547   1.280
  639SOL    HW1 1935   2.217   0.488   1.352
  639SOL    HW2 1936   2.219   0.521   1.192
  640SOL     OW 1937   2.674   1.586   0.687
  640SOL    HW1 1938   2.706   1.596   0.593
  640SOL    HW2 1939   2.595   1.524   0.689
  641SOL     OW 1940   2.863   0.034   1.154
  641SOL    HW1 1941   2.800  -0.038   1.123
  641SOL    HW2 1942   2.956  -0.002   1.154
  642SOL     OW 1943   2.632   1.330   0.301
  642SOL    HW1 1944   2.586   1.243   0.318
  642SOL    HW2 1945   2.723   1.327   0.342
  643SOL     OW 1946   2.480   1.567   1.284
  643SOL    HW1 1947   2.475   1.649   1.341
  643SOL    HW2 1948   2.569   1.564   1.239
  644SOL     OW 1949   1.901   1.077   0.300
  644SOL    HW1 1950   2.000   1.066   0.291
  644SOL    HW2 1951   1.861   0.991   0.332
  645SOL     OW 1952   2.737   1.646   0.337
  645SOL    HW1 1953   2.660   1.611   0.283
  645SOL    HW2 1954   2.705   1.717   0.399
  646SOL     OW 1955   2.092   0.628   1.975
  646SOL    HW1 1956   1.999   0.626   2.012
  646SOL    HW2 1957   2.093   0.589   1.883
  647SOL     OW 1958   2.087   0.275   2.858
  647SOL    HW1 1959   2.122   0.258   2.950
  647SOL    HW2 1960   1.999   0.230   2.846
  648SOL     OW 1961   1.881   0.368   2.509
  648SOL    HW1 1962   1.799   0.411   2.548
  648SOL    HW2 1963   1.853   0.295   2.446
  649SOL     OW 1964   2.630   1.144   2.885
  649SOL    HW1 1965   2.552   1.161   2.945
  649SOL    HW2 1966   2.664   1.231   2.849
  650SOL     OW 1967   2.547   1.012   2.527
  650SOL    HW1 1968   2.616   0.996   2.597
  650SOL    HW2 1969   2.474   1.069   2.565
  651SOL     OW 1970   2.197   1.435   2.923
  651SOL    HW1 1971   2.119   1.404   2.870
  651SOL    HW2 1972   2.255   1.493   2.866
  652SOL     OW 1973   2.093   1.713   2.345
  652SOL    HW1 1974   2.127   1.790   2.399
  652SOL    HW2 1975   2.137   1.713   2.255
  653SOL     OW 1976   2.092   1.434   2.400
  653SOL    HW1 1977   2.066   1.530   2.400
  653SOL    HW2 1978   2.021   1.380   2.445
  654SOL     OW 1979   2.102   1.091   2.748
  654SOL    HW1 1980   2.116   1.007   2.800
  654SOL    HW2 1981   2.047   1.155   2.803
  655SOL     OW 1982   2.468   0.964   1.985
  655SOL    HW1 1983   2.475   1.048   1.931
  655SOL    HW2 1984   2.514   0.977   2.073
  656SOL     OW 1985   1.984   0.643   2.425
  656SOL    HW1 1986   1.939   0.555   2.442
  656SOL    HW2 1987   1.983   0.697   2.509
  657SOL     OW 1988   1.889   1.596   1.979
  657SOL    HW1 1989   1.870   1.500   2.000
  657SOL    HW2 1990   1.856   1.654   2.054
  658SOL     OW 1991   2.475   1.365   2.588
  658SOL    HW1 1992   2.426   1.278   2.597
  658SOL    HW2 1993   2.452   1.408   2.501
  659SOL     OW 1994   2.671   0.004   2.364
  659SOL    HW1 1995   2.711   0.095   2.355
  659SOL    HW2 1996   2.571   0.012   2.370
  660SOL     OW 1997   2.460   0.729   2.132
  660SOL    HW1 1998   2.484   0.798   2.064
  660SOL    HW2 1999   2.382   0.762   2.186
  661SOL     OW 2000   1.938   0.811   2.651
  661SOL    HW1 2001   2.037   0.799   2.660
  661SOL    HW2 2002   1.914   0.906   2.672
  662SOL     OW 2003   2.727   0.348   2.057
  662SOL    HW1 2004   2.786   0.411   2.008
  662SOL    HW2 2005   2.746   0.254   2.028
  663SOL     OW 2006   2.412   0.196   2.747
  663SOL    HW1 2007   2.407   0.191   2.847
  663SOL    HW2 2008   2.414   0.292   2.718
  664SOL     OW 2009   2.870   1.456   2.339
  664SOL    HW1 2010   2.824   1.528   2.287
  664SOL    HW2 2011   2.866   1.476   2.437
  665SOL     OW 2012   2.213   1.801   2.715
  665SOL    HW1 2013   2.263   1.715   2.721
  665SOL    HW2 2014   2.278   1.878   2.712
  666SOL     OW 2015   2.183   0.943   2.104
  666SOL    HW1 2016   2.265   0.982   2.062
  666SOL    HW2 2017   2.156   0.861   2.055
  667SOL     OW 2018   2.326   1.743   2.185
  667SOL    HW1 2019   2.359   1.782   2.271
  667SOL    HW2 2020   2.402   1.736   2.120
  668SOL     OW 2021   2.111   1.785   3.103
  668SOL    HW1 2022   2.168   1.720   3.153
  668SOL    HW2 2023   2.095   1.752   3.010
  669SOL     OW 2024   2.244   0.700   2.342
  669SOL    HW1 2025   2.289   0.610   2.339
  669SOL    HW2 2026   2.150   0.689   2.375
  670SOL     OW 2027   2.476   0.122   1.979
  670SOL    HW1 2028   2.574   0.100   1.986
  670SOL    HW2 2029   2.445   0.105   1.886
  671SOL     OW 2030   2.665   1.402   2.786
  671SOL    HW1 2031   2.755   1.416   2.744
  671SOL    HW2 2032   2.594   1.404   2.715
  672SOL     OW 2033   2.784   0.503   2.761
  672SOL    HW1 2034   2.759   0.494   2.665
  672SOL    HW2 2035   2.832   0.421   2.792
  673SOL     OW 2036   2.401   0.064   2.374
  673SOL    HW1 2037   2.320   0.065   2.432
  673SOL    HW2 2038   2.404   0.147   2.319
  674SOL     OW 2039   2.159   0.035   2.033
  674SOL    HW1 2040   2.208   0.119   2.012
  674SOL    HW2 2041   2.221  -0.030   2.078
  675SOL     OW 2042   2.797   0.236   2.342
  675SOL    HW1 2043   2.749   0.277   2.264
  675SOL    HW2 2044   2.896   0.234   2.323
  676SOL     OW 2045   3.089   1.570   2.655
  676SOL    HW1 2046   3.110   1.644   2.590
  676SOL    HW2 2047   3.157   1.570   2.728
  677SOL     OW 2048   2.321   1.152   2.603
  677SOL    HW1 2049   2.250   1.125   2.668
  677SOL    HW2 2050   2.295   1.124   2.510
  678SOL     OW 2051   2.894   0.549   1.878
  678SOL    HW1 2052   2.853   0.631   1.839
  678SOL    HW2 2053   2.958   0.575   1.951
  679SOL     OW 2054   2.728   0.454   2.504
  679SOL    HW1 2055   2.696   0.526   2.442
  679SOL    HW2 2056   2.752   0.373   2.451
  680SOL     OW 2057   2.879   0.039   2.615
  680SOL    HW1 2058   2.807   0.044   2.546
  680SOL    HW2 2059   2.855  -0.030   2.684
  681SOL     OW 2060   2.350   1.385   2.036
  681SOL    HW1 2061   2.263   1.370   2.083
  681SOL    HW2 2062   2.333   1.411   1.941
  682SOL     OW 2063   2.389   0.256   2.190
  682SOL    HW1 2064   2.416   0.197   2.115
  682SOL    HW2 2065   2.389   0.351   2.159
  683SOL     OW 2066   2.567   1.050   2.230
  683SOL    HW1 2067   2.553   1.057   2.329
  683SOL    HW2 2068   2.651   0.999   2.212
  684SOL     OW 2069   2.229   1.100   2.363
  684SOL    HW1 2070   2.222   1.183   2.307
  684SOL    HW2 2071   2.233   1.020   2.303
  685SOL     OW 2072   2.428   0.537   2.727
  685SOL    HW1 2073   2.440   0.603   2.653
  685SOL    HW2 2074   2.474   0.571   2.810
  686SOL     OW 2075   2.435   0.870   2.891
  686SOL    HW1 2076   2.479   0.959   2.882
  686SOL    HW2 2077   2.372   0.870   2.968
  687SOL     OW 2078   3.071   0.525   2.137
  687SOL    HW1 2079   3.084   0.441   2.191
  687SOL    HW2 2080   3.042   0.599   2.197
  688SOL     OW 2081   2.594   0.634   2.926
  688SOL    HW1 2082   2.653   0.608   2.850
  688SOL    HW2 2083   2.566   0.730   2.915
  689SOL     OW 2084   2.169   0.063   2.480
  689SOL    HW1 2085   2.158   0.157   2.513
  689SOL    HW2 2086   2.164   0.000   2.557
  690SOL     OW 2087   2.181   0.810   2.811
  690SOL    HW1 2088   2.274   0.846   2.816
  690SOL    HW2 2089   2.175   0.725   2.863
  691SOL     OW 2090   2.201   0.509   2.868
  691SOL    HW1 2091   2.149   0.426   2.851
  691SOL    HW2 2092   2.278   0.514   2.804
  692SOL     OW 2093   1.870   1.326   2.062
  692SOL    HW1 2094   1.777   1.347   2.031
  692SOL    HW2 2095   1.880   1.227   2.075
  693SOL     OW 2096   1.950   1.801   2.789
  693SOL    HW1 2097   1.908   1.715   2.762
  693SOL    HW2 2098   2.044   1.804   2.755
  694SOL     OW 2099   2.366   1.568   2.772
  694SOL    HW1 2100   2.432   1.642   2.781
  694SOL    HW2 2101   2.410   1.489   2.730
  695SOL     OW 2102   2.677   0.572   2.187
  695SOL    HW1 2103   2.684   0.483   2.141
  695SOL    HW2 2104   2.583   0.606   2.179
  696SOL     OW 2105   2.533   0.464   3.131
  696SOL    HW1 2106   2.499   0.375   3.101
  696SOL    HW2 2107   2.559   0.518   3.051
  697SOL     OW 2108   2.335   0.500   2.053
  697SOL    HW1 2109   2.396   0.580   2.057
  697SOL    HW2 2110   2.240   0.531   2.060
  698SOL     OW 2111   1.945   1.258   2.884
  698SOL    HW1 2112   1.940   1.257   2.984
  698SOL    HW2 2113   1.862   1.217   2.846
  699SOL     OW 2114   3.142   0.927   2.534
  699SOL    HW1 2115   3.202   0.846   2.536
  699SOL    HW2 2116   3.182   0.996   2.474
  700SOL     OW 2117   2.534   1.616   2.016
  700SOL    HW1 2118   2.543   1.626   1.917
  700SOL    HW2 2119   2.494   1.527   2.037
  701SOL     OW 2120   2.125   0.326   2.582
  701SOL    HW1 2121   2.046   0.377   2.548
  701SOL    HW2 2122   2.116   0.311   2.680
  702SOL     OW 2123   2.778   0.910   2.153
  702SOL    HW1 2124   2.841   0.948   2.085
  702SOL    HW2 2125   2.818   0.827   2.192
  703SOL     OW 2126   2.452   1.487   2.353
  703SOL    HW1 2127   2.494   1.429   2.283
  703SOL    HW2 2128   2.408   1.566   2.309
  704SOL     OW 2129   2.117   1.348   2.152
  704SOL    HW1 2130   2.021   1.349   2.125
  704SOL    HW2 2131   2.129   1.401   2.236
  705SOL     OW 2132   1.937   0.345   1.895
  705SOL    HW1 2133   1.845   0.317   1.866
  705SOL    HW2 2134   1.968   0.422   1.839
  706SOL     OW 2135   1.934   0.166   2.180
  706SOL    HW1 2136   1.917   0.249   2.126
  706SOL    HW2 2137   2.024   0.129   2.158
  707SOL     OW 2138   3.087   0.325   2.311
  707SOL    HW1 2139   3.152   0.251   2.300
  707SOL    HW2 2140   3.107   0.375   2.395
  708SOL     OW 2141   2.456   0.745   2.514
  708SOL    HW1 2142   2.506   0.830   2.495
  708SOL    HW2 2143   2.368   0.747   2.466
  709SOL     OW 2144   2.721   1.374   1.878
  709SOL    HW1 2145   2.675   1.389   1.966
  709SOL    HW2 2146   2.765   1.459   1.848
  710SOL     OW 2147   2.523   1.790   2.815
  710SOL    HW1 2148   2.477   1.878   2.802
  710SOL    HW2 2149   2.622   1.802   2.808
  711SOL     OW 2150   2.721   0.956   2.723
  711SOL    HW1 2151   2.775   0.887   2.771
  711SOL    HW2 2152   2.689   1.025   2.789
  712SOL     OW 2153   1.941   1.240   2.515
  712SOL    HW1 2154   1.940   1.193   2.603
  712SOL    HW2 2155   2.023   1.212   2.464
  713SOL     OW 2156   2.290   0.424   2.382
  713SOL    HW1 2157   2.320   0.352   2.320
  713SOL    HW2 2158   2.251   0.384   2.465
  714SOL     OW 2159   2.674   1.586   2.549
  714SOL    HW1 2160   2.706   1.596   2.455
  714SOL    HW2 2161   2.595   1.524   2.551
  715SOL     OW 2162   2.632   1.330   2.163
  715SOL    HW1 2163   2.586   1.243   2.180
  715SOL    HW2 2164   2.723   1.327   2.204
  716SOL     OW 2165   1.901   1.077   2.162
  716SOL    HW1 2166   2.000   1.066   2.153
  716SOL    HW2 2167   1.861   0.991   2.194
  717SOL     OW 2168   2.737   1.646   2.199
  717SOL    HW1 2169   2.660   1.611   2.145
  717SOL    HW2 2170   2.705   1.717   2.261
  718SOL     OW 2171   2.092   2.490   0.113
  718SOL    HW1 2172   1.999   2.488   0.150
  718SOL    HW2 2173   2.093   2.451   0.021
  719SOL     OW 2174   2.087   2.137   0.996
  719SOL    HW1 2175   2.122   2.120   1.088
  719SOL    HW2 2176   1.999   2.092   0.984
  720SOL     OW 2177   1.881   2.230   0.647
  720SOL    HW1 2178   1.799   2.273   0.686
  720SOL    HW2 2179   1.853   2.157   0.584
  721SOL     OW 2180   2.630   3.006   1.023
  721SOL    HW1 2181   2.552   3.023   1.083
  721SOL    HW2 2182   2.664   3.093   0.987
  722SOL     OW 2183   2.712   2.660   1.823
  722SOL    HW1 2184   2.708   2.736   1.888
  722SOL    HW2 2185   2.734   2.696   1.732
  723SOL     OW 2186   2.547   2.874   0.665
  723SOL    HW1 2187   2.616   2.858   0.735
  723SOL    HW2 2188   2.474   2.931   0.703
  724SOL     OW 2189   2.300   2.254   1.499
  724SOL    HW1 2190   2.382   2.198   1.508
  724SOL    HW2 2191   2.219   2.196   1.503
  725SOL     OW 2192   2.102   2.953   0.886
  725SOL    HW1 2193   2.116   2.869   0.938
  725SOL    HW2 2194   2.047   3.017   0.941
  726SOL     OW 2195   2.468   2.826   0.123
  726SOL    HW1 2196   2.475   2.910   0.069
  726SOL    HW2 2197   2.514   2.839   0.211
  727SOL     OW 2198   1.984   2.505   0.563
  727SOL    HW1 2199   1.939   2.417   0.580
  727SOL    HW2 2200   1.983   2.559   0.647
  728SOL     OW 2201   1.975   2.599   1.597
  728SOL    HW1 2202   2.063   2.586   1.642
  728SOL    HW2 2203   1.962   2.696   1.575
  729SOL     OW 2204   2.671   1.866   0.502
  729SOL    HW1 2205   2.711   1.957   0.493
  729SOL    HW2 2206   2.571   1.874   0.508
  730SOL     OW 2207   2.059   2.838   1.264
  730SOL    HW1 2208   2.148   2.793   1.250
  730SOL    HW2 2209   1.986   2.773   1.245
  731SOL     OW 2210   2.179   2.113   1.801
  731SOL    HW1 2211   2.250   2.184   1.807
  731SOL    HW2 2212   2.091   2.152   1.829
  732SOL     OW 2213   2.460   2.591   0.270
  732SOL    HW1 2214   2.484   2.660   0.202
  732SOL    HW2 2215   2.382   2.624   0.324
  733SOL     OW 2216   2.669   2.467   1.465
  733SOL    HW1 2217   2.622   2.464   1.554
  733SOL    HW2 2218   2.618   2.412   1.399
  734SOL     OW 2219   2.835   2.752   1.572
  734SOL    HW1 2220   2.881   2.668   1.543
  734SOL    HW2 2221   2.779   2.786   1.497
  735SOL     OW 2222   2.853   2.272   1.242
  735SOL    HW1 2223   2.776   2.306   1.296
  735SOL    HW2 2224   2.819   2.221   1.163
  736SOL     OW 2225   1.938   2.673   0.789
  736SOL    HW1 2226   2.037   2.661   0.798
  736SOL    HW2 2227   1.914   2.768   0.810
  737SOL     OW 2228   2.727   2.210   0.195
  737SOL    HW1 2229   2.786   2.273   0.146
  737SOL    HW2 2230   2.746   2.116   0.166
  738SOL     OW 2231   2.412   2.058   0.885
  738SOL    HW1 2232   2.407   2.053   0.985
  738SOL    HW2 2233   2.414   2.154   0.856
  739SOL     OW 2234   2.064   2.147   1.498
  739SOL    HW1 2235   1.984   2.207   1.485
  739SOL    HW2 2236   2.054   2.098   1.584
  740SOL     OW 2237   2.244   2.562   0.480
  740SOL    HW1 2238   2.289   2.472   0.477
  740SOL    HW2 2239   2.150   2.551   0.513
  741SOL     OW 2240   2.476   1.984   0.117
  741SOL    HW1 2241   2.574   1.962   0.124
  741SOL    HW2 2242   2.445   1.967   0.024
  742SOL     OW 2243   2.643   2.126   1.749
  742SOL    HW1 2244   2.710   2.065   1.792
  742SOL    HW2 2245   2.570   2.145   1.814
  743SOL     OW 2246   2.784   2.365   0.899
  743SOL    HW1 2247   2.759   2.356   0.803
  743SOL    HW2 2248   2.832   2.283   0.930
  744SOL     OW 2249   2.401   1.926   0.512
  744SOL    HW1 2250   2.320   1.927   0.570
  744SOL    HW2 2251   2.404   2.009   0.457
  745SOL     OW 2252   2.797   2.098   0.480
  745SOL    HW1 2253   2.749   2.139   0.402
  745SOL    HW2 2254   2.896   2.096   0.461
  746SOL     OW 2255   2.894   2.411   0.016
  746SOL    HW1 2256   2.853   2.493  -0.023
  746SOL    HW2 2257   2.958   2.437   0.089
  747SOL     OW 2258   1.940   2.418   1.386
  747SOL    HW1 2259   2.032   2.417   1.345
  747SOL    HW2 2260   1.934   2.492   1.453
  748SOL     OW 2261   2.423   2.084   1.147
  748SOL    HW1 2262   2.461   2.000   1.184
  748SOL    HW2 2263   2.335   2.103   1.191
  749SOL     OW 2264   2.728   2.316   0.642
  749SOL    HW1 2265   2.696   2.388   0.580
  749SOL    HW2 2266   2.752   2.235   0.589
  750SOL     OW 2267   2.879   1.901   0.753
  750SOL    HW1 2268   2.807   1.906   0.684
  750SOL    HW2 2269   2.855   1.832   0.822
  751SOL     OW 2270   2.389   2.118   0.328
  751SOL    HW1 2271   2.416   2.059   0.253
  751SOL    HW2 2272   2.389   2.213   0.297
  752SOL     OW 2273   2.777   1.951   1.402
  752SOL    HW1 2274   2.802   1.931   1.307
  752SOL    HW2 2275   2.849   2.007   1.444
  753SOL     OW 2276   2.272   2.675   1.251
  753SOL    HW1 2277   2.358   2.687   1.301
  753SOL    HW2 2278   2.230   2.588   1.278
  754SOL     OW 2279   2.428   2.399   0.865
  754SOL    HW1 2280   2.440   2.465   0.791
  754SOL    HW2 2281   2.474   2.433   0.948
  755SOL     OW 2282   2.264   2.613   1.598
  755SOL    HW1 2283   2.332   2.668   1.551
  755SOL    HW2 2284   2.304   2.525   1.625
  756SOL     OW 2285   2.875   1.967   1.770
  756SOL    HW1 2286   2.881   2.052   1.718
  756SOL    HW2 2287   2.907   1.891   1.713
  757SOL     OW 2288   2.366   1.912   1.740
  757SOL    HW1 2289   2.324   1.855   1.670
  757SOL    HW2 2290   2.300   1.981   1.772
  758SOL     OW 2291   2.435   2.732   1.029
  758SOL    HW1 2292   2.479   2.821   1.020
  758SOL    HW2 2293   2.372   2.732   1.106
  759SOL     OW 2294   3.071   2.387   0.275
  759SOL    HW1 2295   3.084   2.303   0.329
  759SOL    HW2 2296   3.042   2.461   0.335
  760SOL     OW 2297   2.169   2.075   1.231
  760SOL    HW1 2298   2.146   2.112   1.321
  760SOL    HW2 2299   2.139   1.980   1.225
  761SOL     OW 2300   2.594   2.496   1.064
  761SOL    HW1 2301   2.653   2.470   0.988
  761SOL    HW2 2302   2.566   2.592   1.053
  762SOL     OW 2303   2.169   1.925   0.618
  762SOL    HW1 2304   2.158   2.019   0.651
  762SOL    HW2 2305   2.164   1.862   0.695
  763SOL     OW 2306   2.885   2.628   0.966
  763SOL    HW1 2307   2.900   2.649   1.062
  763SOL    HW2 2308   2.855   2.533   0.957
  764SOL     OW 2309   2.212   2.760   1.804
  764SOL    HW1 2310   2.288   2.804   1.852
  764SOL    HW2 2311   2.247   2.713   1.722
  765SOL     OW 2312   2.181   2.672   0.949
  765SOL    HW1 2313   2.274   2.708   0.954
  765SOL    HW2 2314   2.175   2.587   1.001
  766SOL     OW 2315   2.201   2.371   1.006
  766SOL    HW1 2316   2.149   2.288   0.989
  766SOL    HW2 2317   2.278   2.376   0.942
  767SOL     OW 2318   2.864   2.658   1.238
  767SOL    HW1 2319   2.905   2.626   1.324
  767SOL    HW2 2320   2.768   2.631   1.235
  768SOL     OW 2321   1.902   2.406   1.114
  768SOL    HW1 2322   1.987   2.373   1.073
  768SOL    HW2 2323   1.915   2.421   1.212
  769SOL     OW 2324   2.051   2.382   1.722
  769SOL    HW1 2325   2.110   2.342   1.652
  769SOL    HW2 2326   1.993   2.453   1.681
  770SOL     OW 2327   2.677   2.434   0.325
  770SOL    HW1 2328   2.684   2.345   0.279
  770SOL    HW2 2329   2.583   2.468   0.317
  771SOL     OW 2330   2.533   2.326   1.269
  771SOL    HW1 2331   2.499   2.237   1.239
  771SOL    HW2 2332   2.559   2.380   1.189
  772SOL     OW 2333   2.335   2.362   0.191
  772SOL    HW1 2334   2.396   2.442   0.195
  772SOL    HW2 2335   2.240   2.393   0.198
  773SOL     OW 2336   2.021   2.999   1.466
  773SOL    HW1 2337   2.043   2.938   1.542
  773SOL    HW2 2338   2.031   2.950   1.380
  774SOL     OW 2339   3.164   2.717   0.309
  774SOL    HW1 2340   3.078   2.686   0.351
  774SOL    HW2 2341   3.160   2.703   0.210
  775SOL     OW 2342   2.765   1.948   0.133
  775SOL    HW1 2343   2.816   1.949   0.047
  775SOL    HW2 2344   2.821   1.906   0.204
  776SOL     OW 2345   2.125   2.188   0.720
  776SOL    HW1 2346   2.046   2.239   0.686
  776SOL    HW2 2347   2.116   2.173   0.818
  777SOL     OW 2348   2.778   2.772   0.291
  777SOL    HW1 2349   2.841   2.810   0.223
  777SOL    HW2 2350   2.818   2.689   0.330
  778SOL     OW 2351   2.876   2.098   0.971
  778SOL    HW1 2352   2.868   2.062   0.878
  778SOL    HW2 2353   2.874   2.022   1.036
  779SOL     OW 2354   1.967   2.875   1.726
  779SOL    HW1 2355   1.890   2.842   1.780
  779SOL    HW2 2356   2.052   2.845   1.768
  780SOL     OW 2357   2.534   2.065   1.489
  780SOL    HW1 2358   2.624   2.049   1.449
  780SOL    HW2 2359   2.542   2.070   1.588
  781SOL     OW 2360   1.937   2.207   0.033
  781SOL    HW1 2361   1.845   2.179   0.004
  781SOL    HW2 2362   1.968   2.284  -0.023
  782SOL     OW 2363   1.934   2.028   0.318
  782SOL    HW1 2364   1.917   2.111   0.264
  782SOL    HW2 2365   2.024   1.991   0.296
  783SOL     OW 2366   2.475   2.704   1.431
  783SOL    HW1 2367   2.531   2.785   1.414
  783SOL    HW2 2368   2.534   2.624   1.434
  784SOL     OW 2369   2.578   2.427   1.708
  784SOL    HW1 2370   2.597   2.492   1.782
  784SOL    HW2 2371   2.638   2.347   1.717
  785SOL     OW 2372   3.087   2.187   0.449
  785SOL    HW1 2373   3.152   2.113   0.438
  785SOL    HW2 2374   3.107   2.237   0.533
  786SOL     OW 2375   2.456   2.607   0.652
  786SOL    HW1 2376   2.506   2.692   0.633
  786SOL    HW2 2377   2.368   2.609   0.604
  787SOL     OW 2378   2.721   2.818   0.861
  787SOL    HW1 2379   2.775   2.749   0.909
  787SOL    HW2 2380   2.689   2.887   0.927
  788SOL     OW 2381   2.945   2.846   0.087
  788SOL    HW1 2382   2.922   2.899   0.005
  788SOL    HW2 2383   3.026   2.790   0.068
  789SOL     OW 2384   1.941   3.102   0.653
  789SOL    HW1 2385   1.940   3.055   0.741
  789SOL    HW2 2386   2.023   3.074   0.602
  790SOL     OW 2387   2.290   2.286   0.520
  790SOL    HW1 2388   2.320   2.214   0.458
  790SOL    HW2 2389   2.251   2.246   0.603
  791SOL     OW 2390   2.179   2.409   1.280
  791SOL    HW1 2391   2.217   2.350   1.352
  791SOL    HW2 2392   2.219   2.383   1.192
  792SOL     OW 2393   2.863   1.896   1.154
  792SOL    HW1 2394   2.800   1.824   1.123
  792SOL    HW2 2395   2.956   1.860   1.154
  793SOL     OW 2396   2.092   2.490   1.975
  793SOL    HW1 2397   1.999   2.488   2.012
  793SOL    HW2 2398   2.093   2.451   1.883
  794SOL     OW 2399   2.087   2.137   2.858
  794SOL    HW1 2400   2.122   2.120   2.950
  794SOL    HW2 2401   1.999   2.092   2.846
  795SOL     OW 2402   1.881   2.230   2.509
  795SOL    HW1 2403   1.799   2.273   2.548
  795SOL    HW2 2404   1.853   2.157   2.446
  796SOL     OW 2405   2.547   2.874   2.527
  796SOL    HW1 2406   2.616   2.858   2.597
  796SOL    HW2 2407   2.474   2.931   2.565
  797SOL     OW 2408   2.102   2.953   2.748
  797SOL    HW1 2409   2.116   2.869   2.800
  797SOL    HW2 2410   2.047   3.017   2.803
  798SOL     OW 2411   2.468   2.826   1.985
  798SOL    HW1 2412   2.475   2.910   1.931
  798SOL    HW2 2413   2.514   2.839   2.073
  799SOL     OW 2414   1.984   2.505   2.425
  799SOL    HW1 2415   1.939   2.417   2.442
  799SOL    HW2 2416   1.983   2.559   2.509
  800SOL     OW 2417   2.671   1.866   2.364
  800SOL    HW1 2418   2.711   1.957   2.355
  800SOL    HW2 2419   2.571   1.874   2.370
  801SOL     OW 2420   2.460   2.591   2.132
  801SOL    HW1 2421   2.484   2.660   2.064
  801SOL    HW2 2422   2.382   2.624   2.186
  802SOL     OW 2423   1.938   2.673   2.651
  802SOL    HW1 2424   2.037   2.661   2.660
  802SOL    HW2 2425   1.914   2.768   2.672
  803SOL     OW 2426   2.727   2.210   2.057
  803SOL    HW1 2427   2.786   2.273   2.008
  803SOL    HW2 2428   2.746   2.116   2.028
  804SOL     OW 2429   2.412   2.058   2.747
  804SOL    HW1 2430   2.407   2.053   2.847
  804SOL    HW2 2431   2.414   2.154   2.718
  805SOL     OW 2432   2.244   2.562   2.342
  805SOL    HW1 2433   2.289   2.472   2.339
  805SOL    HW2 2434   2.150   2.551   2.375
  806SOL     OW 2435   2.476   1.984   1.979
  806SOL    HW1 2436   2.574   1.962   1.986
  806SOL    HW2 2437   2.445   1.967   1.886
  807SOL     OW 2438   2.784   2.365   2.761
  807SOL    HW1 2439   2.759   2.356   2.665
  807SOL    HW2 2440   2.832   2.283   2.792
  808SOL     OW 2441   2.401   1.926   2.374
  808SOL    HW1 2442   2.320   1.927   2.432
  808SOL    HW2 2443   2.404   2.009   2.319
  809SOL     OW 2444   2.159   1.897   2.033
  809SOL    HW1 2445   2.208   1.981   2.012
  809SOL    HW2 2446   2.221   1.832   2.078
  810SOL     OW 2447   2.797   2.098   2.342
  810SOL    HW1 2448   2.749   2.139   2.264
  810SOL    HW2 2449   2.896   2.096   2.323
  811SOL     OW 2450   2.894   2.411   1.878
  811SOL    HW1 2451   2.853   2.493   1.839
  811SOL    HW2 2452   2.958   2.437   1.951
  812SOL     OW 2453   2.728   2.316   2.504
  812SOL    HW1 2454   2.696   2.388   2.442
  812SOL    HW2 2455   2.752   2.235   2.451
  813SOL     OW 2456   2.879   1.901   2.615
  813SOL    HW1 2457   2.807   1.906   2.546
  813SOL    HW2 2458   2.855   1.832   2.684
  814SOL     OW 2459   2.389   2.118   2.190
  814SOL    HW1 2460   2.416   2.059   2.115
  814SOL    HW2 2461   2.389   2.213   2.159
  815SOL     OW 2462   2.973   3.057   2.962
  815SOL    HW1 2463   2.933   3.101   3.043
  815SOL    HW2 2464   2.932   3.094   2.879
  816SOL     OW 2465   2.428   2.399   2.727
  816SOL    HW1 2466   2.440   2.465   2.653
  816SOL    HW2 2467   2.474   2.433   2.810
  817SOL     OW 2468   2.435   2.732   2.891
  817SOL    HW1 2469   2.479   2.821   2.882
  817SOL    HW2 2470   2.372   2.732   2.968
  818SOL     OW 2471   3.071   2.387   2.137
  818SOL    HW1 2472   3.084   2.303   2.191
  818SOL    HW2 2473   3.042   2.461   2.197
  819SOL     OW 2474   2.169   2.075   3.093
  819SOL    HW1 2475   2.146   2.112   3.183
  819SOL    HW2 2476   2.139   1.980   3.087
  820SOL     OW 2477   2.594   2.496   2.926
  820SOL    HW1 2478   2.653   2.470   2.850
  820SOL    HW2 2479   2.566   2.592   2.915
  821SOL     OW 2480   2.169   1.925   2.480
  821SOL    HW1 2481   2.158   2.019   2.513
  821SOL    HW2 2482   2.164   1.862   2.557
  822SOL     OW 2483   2.181   2.672   2.811
  822SOL    HW1 2484   2.274   2.708   2.816
  822SOL    HW2 2485   2.175   2.587   2.863
  823SOL     OW 2486   2.201   2.371   2.868
  823SOL    HW1 2487   2.149   2.288   2.851
  823SOL    HW2 2488   2.278   2.376   2.804
  824SOL     OW 2489   2.677   2.434   2.187
  824SOL    HW1 2490   2.684   2.345   2.141
  824SOL    HW2 2491   2.583   2.468   2.179
  825SOL     OW 2492   2.533   2.326   3.131
  825SOL    HW1 2493   2.499   2.237   3.101
  825SOL    HW2 2494   2.559   2.380   3.051
  826SOL     OW 2495   2.335   2.362   2.053
  826SOL    HW1 2496   2.396   2.442   2.057
  826SOL    HW2 2497   2.240   2.393   2.060
  827SOL     OW 2498   3.164   2.717   2.171
  827SOL    HW1 2499   3.078   2.686   2.213
  827SOL    HW2 2500   3.160   2.703   2.072
  828SOL     OW 2501   2.125   2.188   2.582
  828SOL    HW1 2502   2.046   2.239   2.548
  828SOL    HW2 2503   2.116   2.173   2.680
  829SOL     OW 2504   2.778   2.772   2.153
  829SOL    HW1 2505   2.841   2.810   2.085
  829SOL    HW2 2506   2.818   2.689   2.192
  830SOL     OW 2507   1.937   2.207   1.895
  830SOL    HW1 2508   1.845   2.179   1.866
  830SOL    HW2 2509   1.968   2.284   1.839
  831SOL     OW 2510   1.934   2.028   2.180
  831SOL    HW1 2511   1.917   2.111   2.126
  831SOL    HW2 2512   2.024   1.991   2.158
  832SOL     OW 2513   3.087   2.187   2.311
  832SOL    HW1 2514   3.152   2.113   2.300
  832SOL    HW2 2515   3.107   2.237   2.395
  833SOL     OW 2516   2.456   2.607   2.514
  833SOL    HW1 2517   2.506   2.692   2.495
  833SOL    HW2 2518   2.368   2.609   2.466
  834SOL     OW 2519   2.721   2.818   2.723
  834SOL    HW1 2520   2.775   2.749   2.771
  834SOL    HW2 2521   2.689   2.887   2.789
  835SOL     OW 2522   1.941   3.102   2.515
  835SOL    HW1 2523   1.940   3.055   2.603
  835SOL    HW2 2524   2.023   3.074   2.464
  836SOL     OW 2525   2.290   2.286   2.382
  836SOL    HW1 2526   2.320   2.214   2.320
  836SOL    HW2 2527   2.251   2.246   2.465
   2.93696   2.93696   2.93696
