mobley_8713762_GMX.gro created by acpype (v: 2023.10.27) on Thu May 14 13:46:38 2026
 2968
    1MOL     C1    1   1.553   1.550   1.626
    1MOL     C2    2   1.703   1.701   1.203
    1MOL     C3    3   1.272   1.909   1.668
    1MOL     C4    4   1.714   1.077   1.787
    1MOL     C5    5   1.685   1.703   1.354
    1MOL     C6    6   1.324   1.780   1.607
    1MOL     C7    7   1.697   1.165   1.664
    1MOL     C8    8   1.545   1.656   1.394
    1MOL     C9    9   1.477   1.780   1.599
    1MOL    C10   10   1.639   1.301   1.702
    1MOL     N1   11   1.527   1.656   1.540
    1MOL     O1   12   1.532   1.554   1.747
    1MOL     S1   13   1.620   1.404   1.553
    1MOL     H1   14   1.690   1.600   1.163
    1MOL     H2   15   1.631   1.767   1.154
    1MOL     H3   16   1.804   1.736   1.177
    1MOL     H4   17   1.309   1.922   1.770
    1MOL     H5   18   1.302   1.996   1.609
    1MOL     H6   19   1.162   1.908   1.673
    1MOL     H7   20   1.782   1.124   1.860
    1MOL     H8   21   1.618   1.059   1.837
    1MOL     H9   22   1.756   0.980   1.759
    1MOL    H10   23   1.703   1.804   1.391
    1MOL    H11   24   1.762   1.639   1.400
    1MOL    H12   25   1.281   1.769   1.506
    1MOL    H13   26   1.289   1.695   1.666
    1MOL    H14   27   1.631   1.114   1.593
    1MOL    H15   28   1.795   1.178   1.616
    1MOL    H16   29   1.469   1.721   1.350
    1MOL    H17   30   1.526   1.556   1.354
    1MOL    H18   31   1.513   1.865   1.541
    1MOL    H19   32   1.518   1.791   1.700
    1MOL    H20   33   1.541   1.288   1.749
    1MOL    H21   34   1.705   1.352   1.773
    2SOL     OW   35   0.230   0.628   0.113
    2SOL    HW1   36   0.137   0.626   0.150
    2SOL    HW2   37   0.231   0.589   0.021
    3SOL     OW   38   0.225   0.275   0.996
    3SOL    HW1   39   0.260   0.258   1.088
    3SOL    HW2   40   0.137   0.230   0.984
    4SOL     OW   41   0.019   0.368   0.647
    4SOL    HW1   42  -0.063   0.411   0.686
    4SOL    HW2   43  -0.009   0.295   0.584
    5SOL     OW   44   0.569   1.275   1.165
    5SOL    HW1   45   0.476   1.268   1.128
    5SOL    HW2   46   0.580   1.364   1.209
    6SOL     OW   47   1.555   1.511   0.703
    6SOL    HW1   48   1.498   1.495   0.784
    6SOL    HW2   49   1.496   1.521   0.623
    7SOL     OW   50   1.135   0.703   0.717
    7SOL    HW1   51   1.192   0.781   0.692
    7SOL    HW2   52   1.075   0.729   0.793
    8SOL     OW   53   1.755   0.607   0.231
    8SOL    HW1   54   1.743   0.594   0.132
    8SOL    HW2   55   1.725   0.526   0.280
    9SOL     OW   56   0.768   1.144   1.023
    9SOL    HW1   57   0.690   1.161   1.083
    9SOL    HW2   58   0.802   1.231   0.987
   10SOL     OW   59   0.850   0.798   1.823
   10SOL    HW1   60   0.846   0.874   1.888
   10SOL    HW2   61   0.872   0.834   1.732
   11SOL     OW   62   0.685   1.012   0.665
   11SOL    HW1   63   0.754   0.996   0.735
   11SOL    HW2   64   0.612   1.069   0.703
   12SOL     OW   65   0.686   1.161   1.803
   12SOL    HW1   66   0.746   1.240   1.817
   12SOL    HW2   67   0.600   1.192   1.762
   13SOL     OW   68   0.335   1.435   1.061
   13SOL    HW1   69   0.257   1.404   1.008
   13SOL    HW2   70   0.393   1.493   1.004
   14SOL     OW   71   0.438   0.392   1.499
   14SOL    HW1   72   0.520   0.336   1.508
   14SOL    HW2   73   0.357   0.334   1.503
   15SOL     OW   74   1.603   0.447   0.737
   15SOL    HW1   75   1.529   0.493   0.687
   15SOL    HW2   76   1.654   0.515   0.790
   16SOL     OW   77   0.231   1.713   0.483
   16SOL    HW1   78   0.265   1.790   0.537
   16SOL    HW2   79   0.275   1.713   0.393
   17SOL     OW   80   1.127   1.341   1.690
   17SOL    HW1   81   1.174   1.341   1.778
   17SOL    HW2   82   1.079   1.254   1.679
   18SOL     OW   83   0.230   1.434   0.538
   18SOL    HW1   84   0.204   1.530   0.538
   18SOL    HW2   85   0.159   1.380   0.583
   19SOL     OW   86   0.240   1.091   0.886
   19SOL    HW1   87   0.254   1.007   0.938
   19SOL    HW2   88   0.185   1.155   0.941
   20SOL     OW   89   0.620   1.786   1.439
   20SOL    HW1   90   0.528   1.769   1.474
   20SOL    HW2   91   0.648   1.878   1.465
   21SOL     OW   92   0.606   0.964   0.123
   21SOL    HW1   93   0.613   1.048   0.069
   21SOL    HW2   94   0.652   0.977   0.211
   22SOL     OW   95   1.594   0.114   1.480
   22SOL    HW1   96   1.576   0.181   1.408
   22SOL    HW2   97   1.591   0.160   1.569
   23SOL     OW   98   0.122   0.643   0.563
   23SOL    HW1   99   0.077   0.555   0.580
   23SOL    HW2  100   0.121   0.697   0.647
   24SOL     OW  101   1.842   1.767   0.359
   24SOL    HW1  102   1.896   1.738   0.439
   24SOL    HW2  103   1.872   1.857   0.330
   25SOL     OW  104   0.027   1.596   0.117
   25SOL    HW1  105   0.008   1.500   0.138
   25SOL    HW2  106  -0.006   1.654   0.192
   26SOL     OW  107   1.689   0.922   0.612
   26SOL    HW1  108   1.784   0.893   0.620
   26SOL    HW2  109   1.681   0.987   0.537
   27SOL     OW  110   1.641   1.108   0.432
   27SOL    HW1  111   1.727   1.110   0.380
   27SOL    HW2  112   1.655   1.155   0.520
   28SOL     OW  113   0.113   0.737   1.597
   28SOL    HW1  114   0.201   0.724   1.642
   28SOL    HW2  115   0.100   0.834   1.575
   29SOL     OW  116   0.613   1.365   0.726
   29SOL    HW1  117   0.564   1.278   0.735
   29SOL    HW2  118   0.590   1.408   0.639
   30SOL     OW  119   1.293   1.228   1.423
   30SOL    HW1  120   1.330   1.155   1.365
   30SOL    HW2  121   1.345   1.233   1.508
   31SOL     OW  122   0.809   0.004   0.502
   31SOL    HW1  123   0.849   0.095   0.493
   31SOL    HW2  124   0.709   0.012   0.508
   32SOL     OW  125   0.197   0.976   1.264
   32SOL    HW1  126   0.286   0.931   1.250
   32SOL    HW2  127   0.124   0.911   1.245
   33SOL     OW  128   1.525   0.999   0.190
   33SOL    HW1  129   1.462   0.923   0.203
   33SOL    HW2  130   1.573   1.017   0.276
   34SOL     OW  131   0.317   0.251   1.801
   34SOL    HW1  132   0.388   0.322   1.807
   34SOL    HW2  133   0.229   0.290   1.829
   35SOL     OW  134   1.466   1.417   0.953
   35SOL    HW1  135   1.407   1.423   1.033
   35SOL    HW2  136   1.451   1.329   0.907
   36SOL     OW  137   1.667   1.714   0.572
   36SOL    HW1  138   1.626   1.691   0.484
   36SOL    HW2  139   1.649   1.640   0.637
   37SOL     OW  140   0.598   0.729   0.270
   37SOL    HW1  141   0.622   0.798   0.202
   37SOL    HW2  142   0.520   0.762   0.324
   38SOL     OW  143   1.281   0.345   0.944
   38SOL    HW1  144   1.195   0.295   0.931
   38SOL    HW2  145   1.343   0.291   1.000
   39SOL     OW  146   1.576   1.662   0.307
   39SOL    HW1  147   1.665   1.708   0.310
   39SOL    HW2  148   1.555   1.638   0.212
   40SOL     OW  149   0.807   0.605   1.465
   40SOL    HW1  150   0.760   0.602   1.554
   40SOL    HW2  151   0.756   0.550   1.399
   41SOL     OW  152   1.394   0.469   1.674
   41SOL    HW1  153   1.374   0.512   1.762
   41SOL    HW2  154   1.472   0.407   1.683
   42SOL     OW  155   0.973   0.890   1.572
   42SOL    HW1  156   1.019   0.806   1.543
   42SOL    HW2  157   0.917   0.924   1.497
   43SOL     OW  158   0.991   0.410   1.242
   43SOL    HW1  159   0.914   0.444   1.296
   43SOL    HW2  160   0.957   0.359   1.163
   44SOL     OW  161   1.041   0.701   0.429
   44SOL    HW1  162   1.067   0.697   0.525
   44SOL    HW2  163   0.956   0.650   0.415
   45SOL     OW  164   0.076   0.811   0.789
   45SOL    HW1  165   0.175   0.799   0.798
   45SOL    HW2  166   0.052   0.906   0.810
   46SOL     OW  167   0.130   1.821   1.571
   46SOL    HW1  168   0.120   1.806   1.670
   46SOL    HW2  169   0.044   1.857   1.535
   47SOL     OW  170   0.865   0.348   0.195
   47SOL    HW1  171   0.924   0.411   0.146
   47SOL    HW2  172   0.884   0.254   0.166
   48SOL     OW  173   1.719   0.585   1.831
   48SOL    HW1  174   1.693   0.674   1.795
   48SOL    HW2  175   1.717   0.517   1.758
   49SOL     OW  176   1.362   1.144   0.545
   49SOL    HW1  177   1.445   1.115   0.497
   49SOL    HW2  178   1.313   1.211   0.489
   50SOL     OW  179   0.550   0.196   0.885
   50SOL    HW1  180   0.545   0.191   0.985
   50SOL    HW2  181   0.552   0.292   0.856
   51SOL     OW  182   1.008   1.456   0.477
   51SOL    HW1  183   0.962   1.528   0.425
   51SOL    HW2  184   1.004   1.476   0.575
   52SOL     OW  185   0.351   1.801   0.853
   52SOL    HW1  186   0.401   1.715   0.859
   52SOL    HW2  187   0.416   1.878   0.850
   53SOL     OW  188   1.795   1.066   0.873
   53SOL    HW1  189   1.733   1.051   0.797
   53SOL    HW2  190   1.743   1.077   0.958
   54SOL     OW  191   1.227   1.550   1.506
   54SOL    HW1  192   1.233   1.473   1.570
   54SOL    HW2  193   1.175   1.524   1.426
   55SOL     OW  194   0.321   0.943   0.242
   55SOL    HW1  195   0.403   0.982   0.200
   55SOL    HW2  196   0.294   0.861   0.193
   56SOL     OW  197   1.458   0.735   0.728
   56SOL    HW1  198   1.453   0.670   0.803
   56SOL    HW2  199   1.538   0.794   0.741
   57SOL     OW  200   0.461   1.266   1.727
   57SOL    HW1  201   0.411   1.267   1.641
   57SOL    HW2  202   0.398   1.248   1.803
   58SOL     OW  203   1.111   1.776   0.237
   58SOL    HW1  204   1.051   1.714   0.287
   58SOL    HW2  205   1.142   1.732   0.152
   59SOL     OW  206   0.202   0.285   1.498
   59SOL    HW1  207   0.122   0.345   1.485
   59SOL    HW2  208   0.192   0.236   1.584
   60SOL     OW  209   1.632   1.377   0.081
   60SOL    HW1  210   1.600   1.471   0.071
   60SOL    HW2  211   1.556   1.314   0.069
   61SOL     OW  212   0.464   1.743   0.323
   61SOL    HW1  213   0.497   1.782   0.409
   61SOL    HW2  214   0.540   1.736   0.258
   62SOL     OW  215   1.400   0.107   0.426
   62SOL    HW1  216   1.376   0.070   0.336
   62SOL    HW2  217   1.499   0.123   0.430
   63SOL     OW  218   0.249   1.785   1.241
   63SOL    HW1  219   0.306   1.720   1.291
   63SOL    HW2  220   0.233   1.752   1.148
   64SOL     OW  221   0.940   1.698   0.904
   64SOL    HW1  222   1.020   1.641   0.925
   64SOL    HW2  223   0.891   1.658   0.827
   65SOL     OW  224   0.382   0.700   0.480
   65SOL    HW1  225   0.427   0.610   0.477
   65SOL    HW2  226   0.288   0.689   0.513
   66SOL     OW  227   1.547   0.222   1.729
   66SOL    HW1  228   1.542   0.259   1.821
   66SOL    HW2  229   1.475   0.153   1.717
   67SOL     OW  230   0.614   0.122   0.117
   67SOL    HW1  231   0.712   0.100   0.124
   67SOL    HW2  232   0.583   0.105   0.024
   68SOL     OW  233   0.781   0.264   1.749
   68SOL    HW1  234   0.848   0.203   1.792
   68SOL    HW2  235   0.708   0.283   1.814
   69SOL     OW  236   0.888   1.514   1.195
   69SOL    HW1  237   0.865   1.489   1.101
   69SOL    HW2  238   0.949   1.445   1.234
   70SOL     OW  239   1.351   0.590   1.433
   70SOL    HW1  240   1.379   0.547   1.518
   70SOL    HW2  241   1.376   0.686   1.434
   71SOL     OW  242   0.803   1.402   0.924
   71SOL    HW1  243   0.893   1.416   0.882
   71SOL    HW2  244   0.732   1.404   0.853
   72SOL     OW  245   0.922   0.503   0.899
   72SOL    HW1  246   0.897   0.494   0.803
   72SOL    HW2  247   0.970   0.421   0.930
   73SOL     OW  248   0.539   0.064   0.512
   73SOL    HW1  249   0.458   0.065   0.570
   73SOL    HW2  250   0.542   0.147   0.457
   74SOL     OW  251   1.434   1.188   0.041
   74SOL    HW1  252   1.466   1.112   0.098
   74SOL    HW2  253   1.342   1.215   0.071
   75SOL     OW  254   0.297   0.035   0.171
   75SOL    HW1  255   0.346   0.119   0.150
   75SOL    HW2  256   0.359  -0.030   0.216
   76SOL     OW  257   0.935   0.236   0.480
   76SOL    HW1  258   0.887   0.277   0.402
   76SOL    HW2  259   1.034   0.234   0.461
   77SOL     OW  260   1.076   0.683   1.464
   77SOL    HW1  261   0.996   0.622   1.467
   77SOL    HW2  262   1.157   0.630   1.440
   78SOL     OW  263   1.227   1.570   0.793
   78SOL    HW1  264   1.248   1.644   0.728
   78SOL    HW2  265   1.295   1.570   0.866
   79SOL     OW  266   0.459   1.152   0.741
   79SOL    HW1  267   0.388   1.125   0.806
   79SOL    HW2  268   0.433   1.124   0.648
   80SOL     OW  269   1.271   1.797   0.591
   80SOL    HW1  270   1.315   1.861   0.527
   80SOL    HW2  271   1.221   1.849   0.661
   81SOL     OW  272   1.032   0.549   0.016
   81SOL    HW1  273   0.991   0.631  -0.023
   81SOL    HW2  274   1.096   0.575   0.089
   82SOL     OW  275   0.078   0.556   1.386
   82SOL    HW1  276   0.170   0.555   1.345
   82SOL    HW2  277   0.072   0.630   1.453
   83SOL     OW  278   0.561   0.222   1.147
   83SOL    HW1  279   0.599   0.138   1.184
   83SOL    HW2  280   0.473   0.241   1.191
   84SOL     OW  281   0.866   0.454   0.642
   84SOL    HW1  282   0.834   0.526   0.580
   84SOL    HW2  283   0.890   0.373   0.589
   85SOL     OW  284   1.017   0.039   0.753
   85SOL    HW1  285   0.945   0.044   0.684
   85SOL    HW2  286   0.993  -0.030   0.822
   86SOL     OW  287   1.429   1.173   0.867
   86SOL    HW1  288   1.374   1.089   0.860
   86SOL    HW2  289   1.455   1.202   0.775
   87SOL     OW  290   1.466   0.590   0.992
   87SOL    HW1  291   1.436   0.495   0.999
   87SOL    HW2  292   1.539   0.606   1.058
   88SOL     OW  293   1.857   0.833   0.377
   88SOL    HW1  294   1.899   0.769   0.441
   88SOL    HW2  295   1.819   0.782   0.299
   89SOL     OW  296   0.488   1.385   0.174
   89SOL    HW1  297   0.401   1.370   0.221
   89SOL    HW2  298   0.471   1.411   0.079
   90SOL     OW  299   1.664   1.280   0.657
   90SOL    HW1  300   1.763   1.288   0.671
   90SOL    HW2  301   1.619   1.364   0.688
   91SOL     OW  302   1.390   0.575   0.078
   91SOL    HW1  303   1.336   0.554   0.159
   91SOL    HW2  304   1.481   0.534   0.087
   92SOL     OW  305   0.527   0.256   0.328
   92SOL    HW1  306   0.554   0.197   0.253
   92SOL    HW2  307   0.527   0.351   0.297
   93SOL     OW  308   1.064   1.347   1.340
   93SOL    HW1  309   0.984   1.324   1.395
   93SOL    HW2  310   1.147   1.321   1.389
   94SOL     OW  311   1.111   1.195   1.100
   94SOL    HW1  312   1.071   1.239   1.181
   94SOL    HW2  313   1.070   1.232   1.017
   95SOL     OW  314   1.638   1.099   1.079
   95SOL    HW1  315   1.643   1.180   1.138
   95SOL    HW2  316   1.552   1.101   1.028
   96SOL     OW  317   0.915   0.089   1.402
   96SOL    HW1  318   0.940   0.069   1.307
   96SOL    HW2  319   0.987   0.145   1.444
   97SOL     OW  320   0.980   1.116   1.719
   97SOL    HW1  321   0.881   1.122   1.729
   97SOL    HW2  322   1.003   1.036   1.663
   98SOL     OW  323   0.705   1.050   0.368
   98SOL    HW1  324   0.691   1.057   0.467
   98SOL    HW2  325   0.789   0.999   0.350
   99SOL     OW  326   0.410   0.813   1.251
   99SOL    HW1  327   0.496   0.825   1.301
   99SOL    HW2  328   0.368   0.726   1.278
  100SOL     OW  329   1.274   0.386   1.262
  100SOL    HW1  330   1.295   0.460   1.326
  100SOL    HW2  331   1.185   0.403   1.219
  101SOL     OW  332   0.064   1.564   1.331
  101SOL    HW1  333   0.018   1.646   1.297
  101SOL    HW2  334   0.162   1.583   1.340
  102SOL     OW  335   0.367   1.100   0.501
  102SOL    HW1  336   0.360   1.183   0.445
  102SOL    HW2  337   0.371   1.020   0.441
  103SOL     OW  338   0.566   0.537   0.865
  103SOL    HW1  339   0.578   0.603   0.791
  103SOL    HW2  340   0.612   0.571   0.948
  104SOL     OW  341   1.252   1.348   0.388
  104SOL    HW1  342   1.302   1.425   0.428
  104SOL    HW2  343   1.157   1.350   0.420
  105SOL     OW  344   1.272   1.445   1.142
  105SOL    HW1  345   1.319   1.458   1.229
  105SOL    HW2  346   1.206   1.371   1.151
  106SOL     OW  347   1.582   0.639   0.472
  106SOL    HW1  348   1.551   0.700   0.545
  106SOL    HW2  349   1.632   0.691   0.403
  107SOL     OW  350   0.354   1.510   1.329
  107SOL    HW1  351   0.333   1.466   1.242
  107SOL    HW2  352   0.451   1.536   1.332
  108SOL     OW  353   0.402   0.751   1.598
  108SOL    HW1  354   0.470   0.806   1.551
  108SOL    HW2  355   0.442   0.663   1.625
  109SOL     OW  356   1.587   0.779   1.670
  109SOL    HW1  357   1.495   0.817   1.665
  109SOL    HW2  358   1.647   0.826   1.605
  110SOL     OW  359   1.013   0.105   1.770
  110SOL    HW1  360   1.019   0.190   1.718
  110SOL    HW2  361   1.045   0.029   1.713
  111SOL     OW  362   0.504   0.050   1.740
  111SOL    HW1  363   0.462  -0.007   1.670
  111SOL    HW2  364   0.438   0.119   1.772
  112SOL     OW  365   0.573   0.870   1.029
  112SOL    HW1  366   0.617   0.959   1.020
  112SOL    HW2  367   0.510   0.870   1.106
  113SOL     OW  368   1.360   0.862   1.045
  113SOL    HW1  369   1.285   0.862   0.979
  113SOL    HW2  370   1.397   0.770   1.054
  114SOL     OW  371   1.209   0.525   0.275
  114SOL    HW1  372   1.222   0.441   0.329
  114SOL    HW2  373   1.180   0.599   0.335
  115SOL     OW  374   0.307   0.213   1.231
  115SOL    HW1  375   0.284   0.250   1.321
  115SOL    HW2  376   0.277   0.118   1.225
  116SOL     OW  377   0.037   1.310   1.282
  116SOL    HW1  378   0.090   1.261   1.350
  116SOL    HW2  379   0.059   1.408   1.287
  117SOL     OW  380   0.732   0.634   1.064
  117SOL    HW1  381   0.791   0.608   0.988
  117SOL    HW2  382   0.704   0.730   1.053
  118SOL     OW  383   0.307   0.063   0.618
  118SOL    HW1  384   0.296   0.157   0.651
  118SOL    HW2  385   0.302   0.000   0.695
  119SOL     OW  386   1.622   0.367   0.374
  119SOL    HW1  387   1.624   0.291   0.438
  119SOL    HW2  388   1.574   0.444   0.414
  120SOL     OW  389   1.023   0.766   0.966
  120SOL    HW1  390   1.038   0.787   1.062
  120SOL    HW2  391   0.993   0.671   0.957
  121SOL     OW  392   0.980   1.573   1.700
  121SOL    HW1  393   0.960   1.617   1.612
  121SOL    HW2  394   1.019   1.482   1.684
  122SOL     OW  395   1.859   1.518   1.605
  122SOL    HW1  396   1.873   1.545   1.510
  122SOL    HW2  397   1.942   1.540   1.658
  123SOL     OW  398   0.350   0.898   1.804
  123SOL    HW1  399   0.426   0.942   1.852
  123SOL    HW2  400   0.385   0.851   1.722
  124SOL     OW  401   1.540   0.274   0.125
  124SOL    HW1  402   1.479   0.199   0.148
  124SOL    HW2  403   1.562   0.326   0.208
  125SOL     OW  404   1.303   0.838   0.042
  125SOL    HW1  405   1.337   0.745   0.057
  125SOL    HW2  406   1.321   0.865  -0.053
  126SOL     OW  407   1.068   1.333   0.849
  126SOL    HW1  408   1.075   1.249   0.794
  126SOL    HW2  409   1.130   1.402   0.813
  127SOL     OW  410   0.319   0.810   0.949
  127SOL    HW1  411   0.412   0.846   0.954
  127SOL    HW2  412   0.313   0.725   1.001
  128SOL     OW  413   0.339   0.509   1.006
  128SOL    HW1  414   0.287   0.426   0.989
  128SOL    HW2  415   0.416   0.514   0.942
  129SOL     OW  416   1.138   0.380   1.678
  129SOL    HW1  417   1.093   0.443   1.742
  129SOL    HW2  418   1.231   0.411   1.661
  130SOL     OW  419   1.160   0.207   1.477
  130SOL    HW1  420   1.160   0.271   1.554
  130SOL    HW2  421   1.188   0.255   1.394
  131SOL     OW  422   0.008   1.326   0.200
  131SOL    HW1  423  -0.085   1.347   0.169
  131SOL    HW2  424   0.018   1.227   0.213
  132SOL     OW  425   0.088   1.801   0.927
  132SOL    HW1  426   0.046   1.715   0.900
  132SOL    HW2  427   0.182   1.804   0.893
  133SOL     OW  428   0.504   1.568   0.910
  133SOL    HW1  429   0.570   1.642   0.919
  133SOL    HW2  430   0.548   1.489   0.868
  134SOL     OW  431   1.002   0.796   1.238
  134SOL    HW1  432   1.043   0.764   1.324
  134SOL    HW2  433   0.906   0.769   1.235
  135SOL     OW  434   0.040   0.544   1.114
  135SOL    HW1  435   0.125   0.511   1.073
  135SOL    HW2  436   0.053   0.559   1.212
  136SOL     OW  437   0.189   0.520   1.722
  136SOL    HW1  438   0.248   0.480   1.652
  136SOL    HW2  439   0.131   0.591   1.681
  137SOL     OW  440   1.369   0.950   1.660
  137SOL    HW1  441   1.408   1.039   1.680
  137SOL    HW2  442   1.379   0.930   1.563
  138SOL     OW  443   0.815   0.572   0.325
  138SOL    HW1  444   0.822   0.483   0.279
  138SOL    HW2  445   0.721   0.606   0.317
  139SOL     OW  446   1.657   0.604   1.206
  139SOL    HW1  447   1.619   0.535   1.268
  139SOL    HW2  448   1.739   0.568   1.162
  140SOL     OW  449   0.252   1.564   1.744
  140SOL    HW1  450   0.222   1.621   1.820
  140SOL    HW2  451   0.245   1.467   1.770
  141SOL     OW  452   0.671   0.464   1.269
  141SOL    HW1  453   0.637   0.375   1.239
  141SOL    HW2  454   0.697   0.518   1.189
  142SOL     OW  455   0.930   1.678   1.465
  142SOL    HW1  456   0.906   1.660   1.370
  142SOL    HW2  457   0.960   1.772   1.475
  143SOL     OW  458   0.473   0.500   0.191
  143SOL    HW1  459   0.534   0.580   0.195
  143SOL    HW2  460   0.378   0.531   0.198
  144SOL     OW  461   0.159   1.137   1.466
  144SOL    HW1  462   0.181   1.076   1.542
  144SOL    HW2  463   0.169   1.088   1.380
  145SOL     OW  464   1.347   1.059   1.234
  145SOL    HW1  465   1.371   0.996   1.160
  145SOL    HW2  466   1.257   1.099   1.216
  146SOL     OW  467   1.302   0.855   0.309
  146SOL    HW1  468   1.216   0.824   0.351
  146SOL    HW2  469   1.298   0.841   0.210
  147SOL     OW  470   1.252   1.731   1.128
  147SOL    HW1  471   1.336   1.736   1.074
  147SOL    HW2  472   1.229   1.635   1.146
  148SOL     OW  473   0.083   1.258   1.022
  148SOL    HW1  474   0.078   1.257   1.122
  148SOL    HW2  475   0.000   1.217   0.984
  149SOL     OW  476   0.688   1.662   1.716
  149SOL    HW1  477   0.632   1.743   1.725
  149SOL    HW2  478   0.740   1.666   1.630
  150SOL     OW  479   0.903   0.086   0.133
  150SOL    HW1  480   0.954   0.087   0.047
  150SOL    HW2  481   0.959   0.044   0.204
  151SOL     OW  482   1.726   0.135   0.523
  151SOL    HW1  483   1.799   0.118   0.456
  151SOL    HW2  484   1.695   0.048   0.561
  152SOL     OW  485   1.388   1.573   0.477
  152SOL    HW1  486   1.455   1.585   0.403
  152SOL    HW2  487   1.348   1.662   0.500
  153SOL     OW  488   0.130   1.794   1.851
  153SOL    HW1  489   0.089   1.720   1.904
  153SOL    HW2  490   0.194   1.845   1.909
  154SOL     OW  491   1.280   0.927   0.672
  154SOL    HW1  492   1.340   0.846   0.674
  154SOL    HW2  493   1.320   0.996   0.612
  155SOL     OW  494   0.830   1.273   1.422
  155SOL    HW1  495   0.825   1.306   1.517
  155SOL    HW2  496   0.744   1.292   1.376
  156SOL     OW  497   0.672   1.616   0.154
  156SOL    HW1  498   0.681   1.626   0.055
  156SOL    HW2  499   0.632   1.527   0.175
  157SOL     OW  500   1.841   0.175   0.963
  157SOL    HW1  501   1.880   0.090   0.927
  157SOL    HW2  502   1.743   0.177   0.944
  158SOL     OW  503   0.263   0.326   0.720
  158SOL    HW1  504   0.184   0.377   0.686
  158SOL    HW2  505   0.254   0.311   0.818
  159SOL     OW  506   1.194   1.612   0.031
  159SOL    HW1  507   1.200   1.519   0.068
  159SOL    HW2  508   1.135   1.612  -0.049
  160SOL     OW  509   0.822   1.002   1.372
  160SOL    HW1  510   0.862   1.001   1.280
  160SOL    HW2  511   0.832   1.094   1.412
  161SOL     OW  512   0.916   0.910   0.291
  161SOL    HW1  513   0.979   0.948   0.223
  161SOL    HW2  514   0.956   0.827   0.330
  162SOL     OW  515   1.504   1.607   0.044
  162SOL    HW1  516   1.412   1.644   0.051
  162SOL    HW2  517   1.542   1.627  -0.046
  163SOL     OW  518   0.372   1.288   1.490
  163SOL    HW1  519   0.359   1.381   1.456
  163SOL    HW2  520   0.288   1.236   1.477
  164SOL     OW  521   1.614   1.292   1.289
  164SOL    HW1  522   1.674   1.295   1.369
  164SOL    HW2  523   1.539   1.356   1.302
  165SOL     OW  524   1.039   1.098   0.696
  165SOL    HW1  525   0.969   1.051   0.750
  165SOL    HW2  526   1.098   1.030   0.653
  166SOL     OW  527   1.014   0.236   0.971
  166SOL    HW1  528   1.006   0.200   0.878
  166SOL    HW2  529   1.012   0.160   1.036
  167SOL     OW  530   0.590   1.487   0.491
  167SOL    HW1  531   0.632   1.429   0.421
  167SOL    HW2  532   0.546   1.566   0.447
  168SOL     OW  533   1.709   0.385   1.381
  168SOL    HW1  534   1.782   0.454   1.385
  168SOL    HW2  535   1.737   0.310   1.322
  169SOL     OW  536   0.255   1.348   0.290
  169SOL    HW1  537   0.159   1.349   0.263
  169SOL    HW2  538   0.267   1.401   0.374
  170SOL     OW  539   0.105   1.013   1.726
  170SOL    HW1  540   0.028   0.980   1.780
  170SOL    HW2  541   0.190   0.983   1.768
  171SOL     OW  542   0.672   0.203   1.489
  171SOL    HW1  543   0.762   0.187   1.449
  171SOL    HW2  544   0.680   0.208   1.588
  172SOL     OW  545   0.075   0.345   0.033
  172SOL    HW1  546  -0.017   0.317   0.004
  172SOL    HW2  547   0.106   0.422  -0.023
  173SOL     OW  548   1.440   0.856   1.398
  173SOL    HW1  549   1.383   0.908   1.335
  173SOL    HW2  550   1.536   0.868   1.374
  174SOL     OW  551   0.072   0.166   0.318
  174SOL    HW1  552   0.055   0.249   0.264
  174SOL    HW2  553   0.162   0.129   0.296
  175SOL     OW  554   1.183   1.335   0.119
  175SOL    HW1  555   1.084   1.324   0.121
  175SOL    HW2  556   1.217   1.350   0.212
  176SOL     OW  557   0.613   0.842   1.431
  176SOL    HW1  558   0.669   0.923   1.414
  176SOL    HW2  559   0.672   0.762   1.434
  177SOL     OW  560   1.493   1.767   0.959
  177SOL    HW1  561   1.526   1.831   0.890
  177SOL    HW2  562   1.559   1.761   1.034
  178SOL     OW  563   0.716   0.565   1.708
  178SOL    HW1  564   0.735   0.630   1.782
  178SOL    HW2  565   0.776   0.485   1.717
  179SOL     OW  566   0.390   1.741   1.560
  179SOL    HW1  567   0.299   1.782   1.558
  179SOL    HW2  568   0.383   1.647   1.592
  180SOL     OW  569   1.674   0.883   1.254
  180SOL    HW1  570   1.647   0.794   1.217
  180SOL    HW2  571   1.675   0.951   1.181
  181SOL     OW  572   1.225   0.325   0.449
  181SOL    HW1  573   1.290   0.251   0.438
  181SOL    HW2  574   1.245   0.375   0.533
  182SOL     OW  575   0.594   0.745   0.652
  182SOL    HW1  576   0.644   0.830   0.633
  182SOL    HW2  577   0.506   0.747   0.604
  183SOL     OW  578   1.777   0.342   1.642
  183SOL    HW1  579   1.760   0.373   1.548
  183SOL    HW2  580   1.693   0.305   1.680
  184SOL     OW  581   1.730   0.934   1.517
  184SOL    HW1  582   1.768   1.025   1.532
  184SOL    HW2  583   1.722   0.917   1.418
  185SOL     OW  584   0.859   1.374   0.016
  185SOL    HW1  585   0.813   1.389   0.104
  185SOL    HW2  586   0.903   1.459  -0.014
  186SOL     OW  587   0.661   1.790   0.953
  186SOL    HW1  588   0.615   1.878   0.940
  186SOL    HW2  589   0.760   1.802   0.946
  187SOL     OW  590   0.859   0.956   0.861
  187SOL    HW1  591   0.913   0.887   0.909
  187SOL    HW2  592   0.827   1.025   0.927
  188SOL     OW  593   1.083   0.984   0.087
  188SOL    HW1  594   1.060   1.037   0.005
  188SOL    HW2  595   1.164   0.928   0.068
  189SOL     OW  596   1.861   1.569   0.851
  189SOL    HW1  597   1.790   1.557   0.781
  189SOL    HW2  598   1.862   1.490   0.911
  190SOL     OW  599   0.221   1.314   1.844
  190SOL    HW1  600   0.156   1.241   1.823
  190SOL    HW2  601   0.225   1.328   1.942
  191SOL     OW  602   0.079   1.240   0.653
  191SOL    HW1  603   0.078   1.193   0.741
  191SOL    HW2  604   0.161   1.212   0.602
  192SOL     OW  605   0.672   1.391   1.624
  192SOL    HW1  606   0.594   1.341   1.662
  192SOL    HW2  607   0.669   1.486   1.655
  193SOL     OW  608   1.824   0.192   1.227
  193SOL    HW1  609   1.820   0.102   1.271
  193SOL    HW2  610   1.827   0.181   1.128
  194SOL     OW  611   0.428   0.424   0.520
  194SOL    HW1  612   0.458   0.352   0.458
  194SOL    HW2  613   0.389   0.384   0.603
  195SOL     OW  614   0.317   0.547   1.280
  195SOL    HW1  615   0.355   0.488   1.352
  195SOL    HW2  616   0.357   0.521   1.192
  196SOL     OW  617   0.812   1.586   0.687
  196SOL    HW1  618   0.844   1.596   0.593
  196SOL    HW2  619   0.733   1.524   0.689
  197SOL     OW  620   1.424   0.214   1.112
  197SOL    HW1  621   1.476   0.149   1.167
  197SOL    HW2  622   1.375   0.277   1.173
  198SOL     OW  623   1.001   0.034   1.154
  198SOL    HW1  624   0.938  -0.038   1.123
  198SOL    HW2  625   1.094  -0.002   1.154
  199SOL     OW  626   0.770   1.330   0.301
  199SOL    HW1  627   0.724   1.243   0.318
  199SOL    HW2  628   0.861   1.327   0.342
  200SOL     OW  629   0.618   1.567   1.284
  200SOL    HW1  630   0.613   1.649   1.341
  200SOL    HW2  631   0.707   1.564   1.239
  201SOL     OW  632   1.352   0.052   0.168
  201SOL    HW1  633   1.387   0.011   0.084
  201SOL    HW2  634   1.262   0.014   0.188
  202SOL     OW  635   1.300   0.453   0.691
  202SOL    HW1  636   1.241   0.533   0.695
  202SOL    HW2  637   1.315   0.418   0.784
  203SOL     OW  638   1.593   0.221   0.882
  203SOL    HW1  639   1.509   0.220   0.936
  203SOL    HW2  640   1.595   0.304   0.826
  204SOL     OW  641   0.039   1.077   0.300
  204SOL    HW1  642   0.138   1.066   0.291
  204SOL    HW2  643  -0.001   0.991   0.332
  205SOL     OW  644   0.875   1.646   0.337
  205SOL    HW1  645   0.798   1.611   0.283
  205SOL    HW2  646   0.843   1.717   0.399
  206SOL     OW  647   0.230   0.628   1.975
  206SOL    HW1  648   0.137   0.626   2.012
  206SOL    HW2  649   0.231   0.589   1.883
  207SOL     OW  650   0.225   0.275   2.858
  207SOL    HW1  651   0.260   0.258   2.950
  207SOL    HW2  652   0.137   0.230   2.846
  208SOL     OW  653   0.019   0.368   2.509
  208SOL    HW1  654  -0.063   0.411   2.548
  208SOL    HW2  655  -0.009   0.295   2.446
  209SOL     OW  656   0.569   1.275   3.027
  209SOL    HW1  657   0.476   1.268   2.990
  209SOL    HW2  658   0.580   1.364   3.071
  210SOL     OW  659   1.555   1.511   2.565
  210SOL    HW1  660   1.498   1.495   2.646
  210SOL    HW2  661   1.496   1.521   2.485
  211SOL     OW  662   1.135   0.703   2.579
  211SOL    HW1  663   1.192   0.781   2.554
  211SOL    HW2  664   1.075   0.729   2.655
  212SOL     OW  665   1.755   0.607   2.093
  212SOL    HW1  666   1.743   0.594   1.994
  212SOL    HW2  667   1.725   0.526   2.142
  213SOL     OW  668   0.768   1.144   2.885
  213SOL    HW1  669   0.690   1.161   2.945
  213SOL    HW2  670   0.802   1.231   2.849
  214SOL     OW  671   0.685   1.012   2.527
  214SOL    HW1  672   0.754   0.996   2.597
  214SOL    HW2  673   0.612   1.069   2.565
  215SOL     OW  674   0.335   1.435   2.923
  215SOL    HW1  675   0.257   1.404   2.870
  215SOL    HW2  676   0.393   1.493   2.866
  216SOL     OW  677   1.603   0.447   2.599
  216SOL    HW1  678   1.529   0.493   2.549
  216SOL    HW2  679   1.654   0.515   2.652
  217SOL     OW  680   0.231   1.713   2.345
  217SOL    HW1  681   0.265   1.790   2.399
  217SOL    HW2  682   0.275   1.713   2.255
  218SOL     OW  683   0.230   1.434   2.400
  218SOL    HW1  684   0.204   1.530   2.400
  218SOL    HW2  685   0.159   1.380   2.445
  219SOL     OW  686   0.240   1.091   2.748
  219SOL    HW1  687   0.254   1.007   2.800
  219SOL    HW2  688   0.185   1.155   2.803
  220SOL     OW  689   0.606   0.964   1.985
  220SOL    HW1  690   0.613   1.048   1.931
  220SOL    HW2  691   0.652   0.977   2.073
  221SOL     OW  692   0.122   0.643   2.425
  221SOL    HW1  693   0.077   0.555   2.442
  221SOL    HW2  694   0.121   0.697   2.509
  222SOL     OW  695   1.842   1.767   2.221
  222SOL    HW1  696   1.896   1.738   2.301
  222SOL    HW2  697   1.872   1.857   2.192
  223SOL     OW  698   0.027   1.596   1.979
  223SOL    HW1  699   0.008   1.500   2.000
  223SOL    HW2  700  -0.006   1.654   2.054
  224SOL     OW  701   1.689   0.922   2.474
  224SOL    HW1  702   1.784   0.893   2.482
  224SOL    HW2  703   1.681   0.987   2.399
  225SOL     OW  704   1.641   1.108   2.294
  225SOL    HW1  705   1.727   1.110   2.242
  225SOL    HW2  706   1.655   1.155   2.382
  226SOL     OW  707   0.613   1.365   2.588
  226SOL    HW1  708   0.564   1.278   2.597
  226SOL    HW2  709   0.590   1.408   2.501
  227SOL     OW  710   0.809   0.004   2.364
  227SOL    HW1  711   0.849   0.095   2.355
  227SOL    HW2  712   0.709   0.012   2.370
  228SOL     OW  713   0.197   0.976   3.126
  228SOL    HW1  714   0.286   0.931   3.112
  228SOL    HW2  715   0.124   0.911   3.107
  229SOL     OW  716   1.525   0.999   2.052
  229SOL    HW1  717   1.462   0.923   2.065
  229SOL    HW2  718   1.573   1.017   2.138
  230SOL     OW  719   1.466   1.417   2.815
  230SOL    HW1  720   1.407   1.423   2.895
  230SOL    HW2  721   1.451   1.329   2.769
  231SOL     OW  722   1.667   1.714   2.434
  231SOL    HW1  723   1.626   1.691   2.346
  231SOL    HW2  724   1.649   1.640   2.499
  232SOL     OW  725   0.598   0.729   2.132
  232SOL    HW1  726   0.622   0.798   2.064
  232SOL    HW2  727   0.520   0.762   2.186
  233SOL     OW  728   1.281   0.345   2.806
  233SOL    HW1  729   1.195   0.295   2.793
  233SOL    HW2  730   1.343   0.291   2.862
  234SOL     OW  731   1.576   1.662   2.169
  234SOL    HW1  732   1.665   1.708   2.172
  234SOL    HW2  733   1.555   1.638   2.074
  235SOL     OW  734   1.041   0.701   2.291
  235SOL    HW1  735   1.067   0.697   2.387
  235SOL    HW2  736   0.956   0.650   2.277
  236SOL     OW  737   0.076   0.811   2.651
  236SOL    HW1  738   0.175   0.799   2.660
  236SOL    HW2  739   0.052   0.906   2.672
  237SOL     OW  740   0.865   0.348   2.057
  237SOL    HW1  741   0.924   0.411   2.008
  237SOL    HW2  742   0.884   0.254   2.028
  238SOL     OW  743   1.362   1.144   2.407
  238SOL    HW1  744   1.445   1.115   2.359
  238SOL    HW2  745   1.313   1.211   2.351
  239SOL     OW  746   0.550   0.196   2.747
  239SOL    HW1  747   0.545   0.191   2.847
  239SOL    HW2  748   0.552   0.292   2.718
  240SOL     OW  749   1.008   1.456   2.339
  240SOL    HW1  750   0.962   1.528   2.287
  240SOL    HW2  751   1.004   1.476   2.437
  241SOL     OW  752   0.351   1.801   2.715
  241SOL    HW1  753   0.401   1.715   2.721
  241SOL    HW2  754   0.416   1.878   2.712
  242SOL     OW  755   1.795   1.066   2.735
  242SOL    HW1  756   1.733   1.051   2.659
  242SOL    HW2  757   1.743   1.077   2.820
  243SOL     OW  758   0.321   0.943   2.104
  243SOL    HW1  759   0.403   0.982   2.062
  243SOL    HW2  760   0.294   0.861   2.055
  244SOL     OW  761   1.458   0.735   2.590
  244SOL    HW1  762   1.453   0.670   2.665
  244SOL    HW2  763   1.538   0.794   2.603
  245SOL     OW  764   1.111   1.776   2.099
  245SOL    HW1  765   1.051   1.714   2.149
  245SOL    HW2  766   1.142   1.732   2.014
  246SOL     OW  767   1.632   1.377   1.943
  246SOL    HW1  768   1.600   1.471   1.933
  246SOL    HW2  769   1.556   1.314   1.931
  247SOL     OW  770   0.464   1.743   2.185
  247SOL    HW1  771   0.497   1.782   2.271
  247SOL    HW2  772   0.540   1.736   2.120
  248SOL     OW  773   1.400   0.107   2.288
  248SOL    HW1  774   1.376   0.070   2.198
  248SOL    HW2  775   1.499   0.123   2.292
  249SOL     OW  776   0.249   1.785   3.103
  249SOL    HW1  777   0.306   1.720   3.153
  249SOL    HW2  778   0.233   1.752   3.010
  250SOL     OW  779   0.940   1.698   2.766
  250SOL    HW1  780   1.020   1.641   2.787
  250SOL    HW2  781   0.891   1.658   2.689
  251SOL     OW  782   0.382   0.700   2.342
  251SOL    HW1  783   0.427   0.610   2.339
  251SOL    HW2  784   0.288   0.689   2.375
  252SOL     OW  785   0.614   0.122   1.979
  252SOL    HW1  786   0.712   0.100   1.986
  252SOL    HW2  787   0.583   0.105   1.886
  253SOL     OW  788   0.803   1.402   2.786
  253SOL    HW1  789   0.893   1.416   2.744
  253SOL    HW2  790   0.732   1.404   2.715
  254SOL     OW  791   0.922   0.503   2.761
  254SOL    HW1  792   0.897   0.494   2.665
  254SOL    HW2  793   0.970   0.421   2.792
  255SOL     OW  794   0.539   0.064   2.374
  255SOL    HW1  795   0.458   0.065   2.432
  255SOL    HW2  796   0.542   0.147   2.319
  256SOL     OW  797   1.434   1.188   1.903
  256SOL    HW1  798   1.466   1.112   1.960
  256SOL    HW2  799   1.342   1.215   1.933
  257SOL     OW  800   0.297   0.035   2.033
  257SOL    HW1  801   0.346   0.119   2.012
  257SOL    HW2  802   0.359  -0.030   2.078
  258SOL     OW  803   0.935   0.236   2.342
  258SOL    HW1  804   0.887   0.277   2.264
  258SOL    HW2  805   1.034   0.234   2.323
  259SOL     OW  806   1.227   1.570   2.655
  259SOL    HW1  807   1.248   1.644   2.590
  259SOL    HW2  808   1.295   1.570   2.728
  260SOL     OW  809   0.459   1.152   2.603
  260SOL    HW1  810   0.388   1.125   2.668
  260SOL    HW2  811   0.433   1.124   2.510
  261SOL     OW  812   1.271   1.797   2.453
  261SOL    HW1  813   1.315   1.861   2.389
  261SOL    HW2  814   1.221   1.849   2.523
  262SOL     OW  815   1.032   0.549   1.878
  262SOL    HW1  816   0.991   0.631   1.839
  262SOL    HW2  817   1.096   0.575   1.951
  263SOL     OW  818   0.866   0.454   2.504
  263SOL    HW1  819   0.834   0.526   2.442
  263SOL    HW2  820   0.890   0.373   2.451
  264SOL     OW  821   1.017   0.039   2.615
  264SOL    HW1  822   0.945   0.044   2.546
  264SOL    HW2  823   0.993  -0.030   2.684
  265SOL     OW  824   1.429   1.173   2.729
  265SOL    HW1  825   1.374   1.089   2.722
  265SOL    HW2  826   1.455   1.202   2.637
  266SOL     OW  827   1.466   0.590   2.854
  266SOL    HW1  828   1.436   0.495   2.861
  266SOL    HW2  829   1.539   0.606   2.920
  267SOL     OW  830   1.857   0.833   2.239
  267SOL    HW1  831   1.899   0.769   2.303
  267SOL    HW2  832   1.819   0.782   2.161
  268SOL     OW  833   0.488   1.385   2.036
  268SOL    HW1  834   0.401   1.370   2.083
  268SOL    HW2  835   0.471   1.411   1.941
  269SOL     OW  836   1.664   1.280   2.519
  269SOL    HW1  837   1.763   1.288   2.533
  269SOL    HW2  838   1.619   1.364   2.550
  270SOL     OW  839   1.390   0.575   1.940
  270SOL    HW1  840   1.336   0.554   2.021
  270SOL    HW2  841   1.481   0.534   1.949
  271SOL     OW  842   0.527   0.256   2.190
  271SOL    HW1  843   0.554   0.197   2.115
  271SOL    HW2  844   0.527   0.351   2.159
  272SOL     OW  845   1.111   1.195   2.962
  272SOL    HW1  846   1.071   1.239   3.043
  272SOL    HW2  847   1.070   1.232   2.879
  273SOL     OW  848   1.638   1.099   2.941
  273SOL    HW1  849   1.643   1.180   3.000
  273SOL    HW2  850   1.552   1.101   2.890
  274SOL     OW  851   0.705   1.050   2.230
  274SOL    HW1  852   0.691   1.057   2.329
  274SOL    HW2  853   0.789   0.999   2.212
  275SOL     OW  854   0.410   0.813   3.113
  275SOL    HW1  855   0.496   0.825   3.163
  275SOL    HW2  856   0.368   0.726   3.140
  276SOL     OW  857   0.367   1.100   2.363
  276SOL    HW1  858   0.360   1.183   2.307
  276SOL    HW2  859   0.371   1.020   2.303
  277SOL     OW  860   0.566   0.537   2.727
  277SOL    HW1  861   0.578   0.603   2.653
  277SOL    HW2  862   0.612   0.571   2.810
  278SOL     OW  863   1.252   1.348   2.250
  278SOL    HW1  864   1.302   1.425   2.290
  278SOL    HW2  865   1.157   1.350   2.282
  279SOL     OW  866   1.272   1.445   3.004
  279SOL    HW1  867   1.319   1.458   3.091
  279SOL    HW2  868   1.206   1.371   3.013
  280SOL     OW  869   1.582   0.639   2.334
  280SOL    HW1  870   1.551   0.700   2.407
  280SOL    HW2  871   1.632   0.691   2.265
  281SOL     OW  872   0.573   0.870   2.891
  281SOL    HW1  873   0.617   0.959   2.882
  281SOL    HW2  874   0.510   0.870   2.968
  282SOL     OW  875   1.360   0.862   2.907
  282SOL    HW1  876   1.285   0.862   2.841
  282SOL    HW2  877   1.397   0.770   2.916
  283SOL     OW  878   1.209   0.525   2.137
  283SOL    HW1  879   1.222   0.441   2.191
  283SOL    HW2  880   1.180   0.599   2.197
  284SOL     OW  881   0.307   0.213   3.093
  284SOL    HW1  882   0.284   0.250   3.183
  284SOL    HW2  883   0.277   0.118   3.087
  285SOL     OW  884   0.732   0.634   2.926
  285SOL    HW1  885   0.791   0.608   2.850
  285SOL    HW2  886   0.704   0.730   2.915
  286SOL     OW  887   0.307   0.063   2.480
  286SOL    HW1  888   0.296   0.157   2.513
  286SOL    HW2  889   0.302   0.000   2.557
  287SOL     OW  890   1.622   0.367   2.236
  287SOL    HW1  891   1.624   0.291   2.300
  287SOL    HW2  892   1.574   0.444   2.276
  288SOL     OW  893   1.023   0.766   2.828
  288SOL    HW1  894   1.038   0.787   2.924
  288SOL    HW2  895   0.993   0.671   2.819
  289SOL     OW  896   1.540   0.274   1.987
  289SOL    HW1  897   1.479   0.199   2.010
  289SOL    HW2  898   1.562   0.326   2.070
  290SOL     OW  899   1.303   0.838   1.904
  290SOL    HW1  900   1.337   0.745   1.919
  290SOL    HW2  901   1.321   0.865   1.809
  291SOL     OW  902   1.068   1.333   2.711
  291SOL    HW1  903   1.075   1.249   2.656
  291SOL    HW2  904   1.130   1.402   2.675
  292SOL     OW  905   0.319   0.810   2.811
  292SOL    HW1  906   0.412   0.846   2.816
  292SOL    HW2  907   0.313   0.725   2.863
  293SOL     OW  908   0.339   0.509   2.868
  293SOL    HW1  909   0.287   0.426   2.851
  293SOL    HW2  910   0.416   0.514   2.804
  294SOL     OW  911   1.160   0.207   3.339
  294SOL    HW1  912   1.160   0.271   3.416
  294SOL    HW2  913   1.188   0.255   3.256
  295SOL     OW  914   0.008   1.326   2.062
  295SOL    HW1  915  -0.085   1.347   2.031
  295SOL    HW2  916   0.018   1.227   2.075
  296SOL     OW  917   0.088   1.801   2.789
  296SOL    HW1  918   0.046   1.715   2.762
  296SOL    HW2  919   0.182   1.804   2.755
  297SOL     OW  920   0.504   1.568   2.772
  297SOL    HW1  921   0.570   1.642   2.781
  297SOL    HW2  922   0.548   1.489   2.730
  298SOL     OW  923   1.002   0.796   3.100
  298SOL    HW1  924   1.043   0.764   3.186
  298SOL    HW2  925   0.906   0.769   3.097
  299SOL     OW  926   0.040   0.544   2.976
  299SOL    HW1  927   0.125   0.511   2.935
  299SOL    HW2  928   0.053   0.559   3.074
  300SOL     OW  929   0.815   0.572   2.187
  300SOL    HW1  930   0.822   0.483   2.141
  300SOL    HW2  931   0.721   0.606   2.179
  301SOL     OW  932   1.657   0.604   3.068
  301SOL    HW1  933   1.619   0.535   3.130
  301SOL    HW2  934   1.739   0.568   3.024
  302SOL     OW  935   0.671   0.464   3.131
  302SOL    HW1  936   0.637   0.375   3.101
  302SOL    HW2  937   0.697   0.518   3.051
  303SOL     OW  938   0.473   0.500   2.053
  303SOL    HW1  939   0.534   0.580   2.057
  303SOL    HW2  940   0.378   0.531   2.060
  304SOL     OW  941   1.302   0.855   2.171
  304SOL    HW1  942   1.216   0.824   2.213
  304SOL    HW2  943   1.298   0.841   2.072
  305SOL     OW  944   1.759   1.747   3.016
  305SOL    HW1  945   1.820   1.777   2.943
  305SOL    HW2  946   1.721   1.658   2.994
  306SOL     OW  947   0.083   1.258   2.884
  306SOL    HW1  948   0.078   1.257   2.984
  306SOL    HW2  949   0.000   1.217   2.846
  307SOL     OW  950   1.726   0.135   2.385
  307SOL    HW1  951   1.799   0.118   2.318
  307SOL    HW2  952   1.695   0.048   2.423
  308SOL     OW  953   1.388   1.573   2.339
  308SOL    HW1  954   1.455   1.585   2.265
  308SOL    HW2  955   1.348   1.662   2.362
  309SOL     OW  956   1.280   0.927   2.534
  309SOL    HW1  957   1.340   0.846   2.536
  309SOL    HW2  958   1.320   0.996   2.474
  310SOL     OW  959   0.672   1.616   2.016
  310SOL    HW1  960   0.681   1.626   1.917
  310SOL    HW2  961   0.632   1.527   2.037
  311SOL     OW  962   1.841   0.175   2.825
  311SOL    HW1  963   1.880   0.090   2.789
  311SOL    HW2  964   1.743   0.177   2.806
  312SOL     OW  965   0.263   0.326   2.582
  312SOL    HW1  966   0.184   0.377   2.548
  312SOL    HW2  967   0.254   0.311   2.680
  313SOL     OW  968   1.194   1.612   1.893
  313SOL    HW1  969   1.200   1.519   1.930
  313SOL    HW2  970   1.135   1.612   1.813
  314SOL     OW  971   0.822   1.002   3.234
  314SOL    HW1  972   0.862   1.001   3.142
  314SOL    HW2  973   0.832   1.094   3.274
  315SOL     OW  974   0.916   0.910   2.153
  315SOL    HW1  975   0.979   0.948   2.085
  315SOL    HW2  976   0.956   0.827   2.192
  316SOL     OW  977   1.039   1.098   2.558
  316SOL    HW1  978   0.969   1.051   2.612
  316SOL    HW2  979   1.098   1.030   2.515
  317SOL     OW  980   1.014   0.236   2.833
  317SOL    HW1  981   1.006   0.200   2.740
  317SOL    HW2  982   1.012   0.160   2.898
  318SOL     OW  983   0.590   1.487   2.353
  318SOL    HW1  984   0.632   1.429   2.283
  318SOL    HW2  985   0.546   1.566   2.309
  319SOL     OW  986   1.709   0.385   3.243
  319SOL    HW1  987   1.782   0.454   3.247
  319SOL    HW2  988   1.737   0.310   3.184
  320SOL     OW  989   0.255   1.348   2.152
  320SOL    HW1  990   0.159   1.349   2.125
  320SOL    HW2  991   0.267   1.401   2.236
  321SOL     OW  992   0.075   0.345   1.895
  321SOL    HW1  993  -0.017   0.317   1.866
  321SOL    HW2  994   0.106   0.422   1.839
  322SOL     OW  995   0.072   0.166   2.180
  322SOL    HW1  996   0.055   0.249   2.126
  322SOL    HW2  997   0.162   0.129   2.158
  323SOL     OW  998   1.183   1.335   1.981
  323SOL    HW1  999   1.084   1.324   1.983
  323SOL    HW2 1000   1.217   1.350   2.074
  324SOL     OW 1001   1.493   1.767   2.821
  324SOL    HW1 1002   1.526   1.831   2.752
  324SOL    HW2 1003   1.559   1.761   2.896
  325SOL     OW 1004   1.674   0.883   3.116
  325SOL    HW1 1005   1.647   0.794   3.079
  325SOL    HW2 1006   1.675   0.951   3.043
  326SOL     OW 1007   1.225   0.325   2.311
  326SOL    HW1 1008   1.290   0.251   2.300
  326SOL    HW2 1009   1.245   0.375   2.395
  327SOL     OW 1010   0.594   0.745   2.514
  327SOL    HW1 1011   0.644   0.830   2.495
  327SOL    HW2 1012   0.506   0.747   2.466
  328SOL     OW 1013   1.730   0.934   3.379
  328SOL    HW1 1014   1.768   1.025   3.394
  328SOL    HW2 1015   1.722   0.917   3.280
  329SOL     OW 1016   0.859   1.374   1.878
  329SOL    HW1 1017   0.813   1.389   1.966
  329SOL    HW2 1018   0.903   1.459   1.848
  330SOL     OW 1019   0.661   1.790   2.815
  330SOL    HW1 1020   0.615   1.878   2.802
  330SOL    HW2 1021   0.760   1.802   2.808
  331SOL     OW 1022   0.859   0.956   2.723
  331SOL    HW1 1023   0.913   0.887   2.771
  331SOL    HW2 1024   0.827   1.025   2.789
  332SOL     OW 1025   1.083   0.984   1.949
  332SOL    HW1 1026   1.060   1.037   1.867
  332SOL    HW2 1027   1.164   0.928   1.930
  333SOL     OW 1028   1.861   1.569   2.713
  333SOL    HW1 1029   1.790   1.557   2.643
  333SOL    HW2 1030   1.862   1.490   2.773
  334SOL     OW 1031   0.079   1.240   2.515
  334SOL    HW1 1032   0.078   1.193   2.603
  334SOL    HW2 1033   0.161   1.212   2.464
  335SOL     OW 1034   1.824   0.192   3.089
  335SOL    HW1 1035   1.820   0.102   3.133
  335SOL    HW2 1036   1.827   0.181   2.990
  336SOL     OW 1037   0.428   0.424   2.382
  336SOL    HW1 1038   0.458   0.352   2.320
  336SOL    HW2 1039   0.389   0.384   2.465
  337SOL     OW 1040   1.705   1.487   2.966
  337SOL    HW1 1041   1.612   1.462   2.939
  337SOL    HW2 1042   1.731   1.437   3.048
  338SOL     OW 1043   0.812   1.586   2.549
  338SOL    HW1 1044   0.844   1.596   2.455
  338SOL    HW2 1045   0.733   1.524   2.551
  339SOL     OW 1046   1.424   0.214   2.974
  339SOL    HW1 1047   1.476   0.149   3.029
  339SOL    HW2 1048   1.375   0.277   3.035
  340SOL     OW 1049   1.001   0.034   3.016
  340SOL    HW1 1050   0.938  -0.038   2.985
  340SOL    HW2 1051   1.094  -0.002   3.016
  341SOL     OW 1052   0.770   1.330   2.163
  341SOL    HW1 1053   0.724   1.243   2.180
  341SOL    HW2 1054   0.861   1.327   2.204
  342SOL     OW 1055   1.352   0.052   2.030
  342SOL    HW1 1056   1.387   0.011   1.946
  342SOL    HW2 1057   1.262   0.014   2.050
  343SOL     OW 1058   1.300   0.453   2.553
  343SOL    HW1 1059   1.241   0.533   2.557
  343SOL    HW2 1060   1.315   0.418   2.646
  344SOL     OW 1061   1.593   0.221   2.744
  344SOL    HW1 1062   1.509   0.220   2.798
  344SOL    HW2 1063   1.595   0.304   2.688
  345SOL     OW 1064   0.039   1.077   2.162
  345SOL    HW1 1065   0.138   1.066   2.153
  345SOL    HW2 1066  -0.001   0.991   2.194
  346SOL     OW 1067   0.875   1.646   2.199
  346SOL    HW1 1068   0.798   1.611   2.145
  346SOL    HW2 1069   0.843   1.717   2.261
  347SOL     OW 1070   0.230   2.490   0.113
  347SOL    HW1 1071   0.137   2.488   0.150
  347SOL    HW2 1072   0.231   2.451   0.021
  348SOL     OW 1073   0.225   2.137   0.996
  348SOL    HW1 1074   0.260   2.120   1.088
  348SOL    HW2 1075   0.137   2.092   0.984
  349SOL     OW 1076   0.019   2.230   0.647
  349SOL    HW1 1077  -0.063   2.273   0.686
  349SOL    HW2 1078  -0.009   2.157   0.584
  350SOL     OW 1079   1.135   2.565   0.717
  350SOL    HW1 1080   1.192   2.643   0.692
  350SOL    HW2 1081   1.075   2.591   0.793
  351SOL     OW 1082   1.755   2.469   0.231
  351SOL    HW1 1083   1.743   2.456   0.132
  351SOL    HW2 1084   1.725   2.388   0.280
  352SOL     OW 1085   0.768   3.006   1.023
  352SOL    HW1 1086   0.690   3.023   1.083
  352SOL    HW2 1087   0.802   3.093   0.987
  353SOL     OW 1088   0.850   2.660   1.823
  353SOL    HW1 1089   0.846   2.736   1.888
  353SOL    HW2 1090   0.872   2.696   1.732
  354SOL     OW 1091   0.685   2.874   0.665
  354SOL    HW1 1092   0.754   2.858   0.735
  354SOL    HW2 1093   0.612   2.931   0.703
  355SOL     OW 1094   0.438   2.254   1.499
  355SOL    HW1 1095   0.520   2.198   1.508
  355SOL    HW2 1096   0.357   2.196   1.503
  356SOL     OW 1097   1.603   2.309   0.737
  356SOL    HW1 1098   1.529   2.355   0.687
  356SOL    HW2 1099   1.654   2.377   0.790
  357SOL     OW 1100   0.240   2.953   0.886
  357SOL    HW1 1101   0.254   2.869   0.938
  357SOL    HW2 1102   0.185   3.017   0.941
  358SOL     OW 1103   0.606   2.826   0.123
  358SOL    HW1 1104   0.613   2.910   0.069
  358SOL    HW2 1105   0.652   2.839   0.211
  359SOL     OW 1106   0.122   2.505   0.563
  359SOL    HW1 1107   0.077   2.417   0.580
  359SOL    HW2 1108   0.121   2.559   0.647
  360SOL     OW 1109   1.689   2.784   0.612
  360SOL    HW1 1110   1.784   2.755   0.620
  360SOL    HW2 1111   1.681   2.849   0.537
  361SOL     OW 1112   1.641   2.970   0.432
  361SOL    HW1 1113   1.727   2.972   0.380
  361SOL    HW2 1114   1.655   3.017   0.520
  362SOL     OW 1115   0.113   2.599   1.597
  362SOL    HW1 1116   0.201   2.586   1.642
  362SOL    HW2 1117   0.100   2.696   1.575
  363SOL     OW 1118   0.613   3.227   0.726
  363SOL    HW1 1119   0.564   3.140   0.735
  363SOL    HW2 1120   0.590   3.270   0.639
  364SOL     OW 1121   1.293   3.090   1.423
  364SOL    HW1 1122   1.330   3.017   1.365
  364SOL    HW2 1123   1.345   3.095   1.508
  365SOL     OW 1124   0.809   1.866   0.502
  365SOL    HW1 1125   0.849   1.957   0.493
  365SOL    HW2 1126   0.709   1.874   0.508
  366SOL     OW 1127   0.197   2.838   1.264
  366SOL    HW1 1128   0.286   2.793   1.250
  366SOL    HW2 1129   0.124   2.773   1.245
  367SOL     OW 1130   1.525   2.861   0.190
  367SOL    HW1 1131   1.462   2.785   0.203
  367SOL    HW2 1132   1.573   2.879   0.276
  368SOL     OW 1133   0.317   2.113   1.801
  368SOL    HW1 1134   0.388   2.184   1.807
  368SOL    HW2 1135   0.229   2.152   1.829
  369SOL     OW 1136   0.598   2.591   0.270
  369SOL    HW1 1137   0.622   2.660   0.202
  369SOL    HW2 1138   0.520   2.624   0.324
  370SOL     OW 1139   1.281   2.207   0.944
  370SOL    HW1 1140   1.195   2.157   0.931
  370SOL    HW2 1141   1.343   2.153   1.000
  371SOL     OW 1142   0.807   2.467   1.465
  371SOL    HW1 1143   0.760   2.464   1.554
  371SOL    HW2 1144   0.756   2.412   1.399
  372SOL     OW 1145   1.394   2.331   1.674
  372SOL    HW1 1146   1.374   2.374   1.762
  372SOL    HW2 1147   1.472   2.269   1.683
  373SOL     OW 1148   0.973   2.752   1.572
  373SOL    HW1 1149   1.019   2.668   1.543
  373SOL    HW2 1150   0.917   2.786   1.497
  374SOL     OW 1151   0.991   2.272   1.242
  374SOL    HW1 1152   0.914   2.306   1.296
  374SOL    HW2 1153   0.957   2.221   1.163
  375SOL     OW 1154   1.041   2.563   0.429
  375SOL    HW1 1155   1.067   2.559   0.525
  375SOL    HW2 1156   0.956   2.512   0.415
  376SOL     OW 1157   0.076   2.673   0.789
  376SOL    HW1 1158   0.175   2.661   0.798
  376SOL    HW2 1159   0.052   2.768   0.810
  377SOL     OW 1160   0.865   2.210   0.195
  377SOL    HW1 1161   0.924   2.273   0.146
  377SOL    HW2 1162   0.884   2.116   0.166
  378SOL     OW 1163   1.719   2.447   1.831
  378SOL    HW1 1164   1.693   2.536   1.795
  378SOL    HW2 1165   1.717   2.379   1.758
  379SOL     OW 1166   1.362   3.006   0.545
  379SOL    HW1 1167   1.445   2.977   0.497
  379SOL    HW2 1168   1.313   3.073   0.489
  380SOL     OW 1169   0.550   2.058   0.885
  380SOL    HW1 1170   0.545   2.053   0.985
  380SOL    HW2 1171   0.552   2.154   0.856
  381SOL     OW 1172   1.795   2.928   0.873
  381SOL    HW1 1173   1.733   2.913   0.797
  381SOL    HW2 1174   1.743   2.939   0.958
  382SOL     OW 1175   0.321   2.805   0.242
  382SOL    HW1 1176   0.403   2.844   0.200
  382SOL    HW2 1177   0.294   2.723   0.193
  383SOL     OW 1178   1.458   2.597   0.728
  383SOL    HW1 1179   1.453   2.532   0.803
  383SOL    HW2 1180   1.538   2.656   0.741
  384SOL     OW 1181   0.202   2.147   1.498
  384SOL    HW1 1182   0.122   2.207   1.485
  384SOL    HW2 1183   0.192   2.098   1.584
  385SOL     OW 1184   1.400   1.969   0.426
  385SOL    HW1 1185   1.376   1.932   0.336
  385SOL    HW2 1186   1.499   1.985   0.430
  386SOL     OW 1187   0.382   2.562   0.480
  386SOL    HW1 1188   0.427   2.472   0.477
  386SOL    HW2 1189   0.288   2.551   0.513
  387SOL     OW 1190   1.547   2.084   1.729
  387SOL    HW1 1191   1.542   2.121   1.821
  387SOL    HW2 1192   1.475   2.015   1.717
  388SOL     OW 1193   0.614   1.984   0.117
  388SOL    HW1 1194   0.712   1.962   0.124
  388SOL    HW2 1195   0.583   1.967   0.024
  389SOL     OW 1196   0.781   2.126   1.749
  389SOL    HW1 1197   0.848   2.065   1.792
  389SOL    HW2 1198   0.708   2.145   1.814
  390SOL     OW 1199   1.351   2.452   1.433
  390SOL    HW1 1200   1.379   2.409   1.518
  390SOL    HW2 1201   1.376   2.548   1.434
  391SOL     OW 1202   0.922   2.365   0.899
  391SOL    HW1 1203   0.897   2.356   0.803
  391SOL    HW2 1204   0.970   2.283   0.930
  392SOL     OW 1205   0.539   1.926   0.512
  392SOL    HW1 1206   0.458   1.927   0.570
  392SOL    HW2 1207   0.542   2.009   0.457
  393SOL     OW 1208   0.297   1.897   0.171
  393SOL    HW1 1209   0.346   1.981   0.150
  393SOL    HW2 1210   0.359   1.832   0.216
  394SOL     OW 1211   0.935   2.098   0.480
  394SOL    HW1 1212   0.887   2.139   0.402
  394SOL    HW2 1213   1.034   2.096   0.461
  395SOL     OW 1214   1.076   2.545   1.464
  395SOL    HW1 1215   0.996   2.484   1.467
  395SOL    HW2 1216   1.157   2.492   1.440
  396SOL     OW 1217   0.459   3.014   0.741
  396SOL    HW1 1218   0.388   2.987   0.806
  396SOL    HW2 1219   0.433   2.986   0.648
  397SOL     OW 1220   1.032   2.411   0.016
  397SOL    HW1 1221   0.991   2.493  -0.023
  397SOL    HW2 1222   1.096   2.437   0.089
  398SOL     OW 1223   0.078   2.418   1.386
  398SOL    HW1 1224   0.170   2.417   1.345
  398SOL    HW2 1225   0.072   2.492   1.453
  399SOL     OW 1226   0.561   2.084   1.147
  399SOL    HW1 1227   0.599   2.000   1.184
  399SOL    HW2 1228   0.473   2.103   1.191
  400SOL     OW 1229   0.866   2.316   0.642
  400SOL    HW1 1230   0.834   2.388   0.580
  400SOL    HW2 1231   0.890   2.235   0.589
  401SOL     OW 1232   1.017   1.901   0.753
  401SOL    HW1 1233   0.945   1.906   0.684
  401SOL    HW2 1234   0.993   1.832   0.822
  402SOL     OW 1235   1.429   3.035   0.867
  402SOL    HW1 1236   1.374   2.951   0.860
  402SOL    HW2 1237   1.455   3.064   0.775
  403SOL     OW 1238   1.466   2.452   0.992
  403SOL    HW1 1239   1.436   2.357   0.999
  403SOL    HW2 1240   1.539   2.468   1.058
  404SOL     OW 1241   1.857   2.695   0.377
  404SOL    HW1 1242   1.899   2.631   0.441
  404SOL    HW2 1243   1.819   2.644   0.299
  405SOL     OW 1244   1.390   2.437   0.078
  405SOL    HW1 1245   1.336   2.416   0.159
  405SOL    HW2 1246   1.481   2.396   0.087
  406SOL     OW 1247   0.527   2.118   0.328
  406SOL    HW1 1248   0.554   2.059   0.253
  406SOL    HW2 1249   0.527   2.213   0.297
  407SOL     OW 1250   1.754   3.085   1.588
  407SOL    HW1 1251   1.845   3.046   1.575
  407SOL    HW2 1252   1.762   3.181   1.612
  408SOL     OW 1253   1.638   2.961   1.079
  408SOL    HW1 1254   1.643   3.042   1.138
  408SOL    HW2 1255   1.552   2.963   1.028
  409SOL     OW 1256   0.915   1.951   1.402
  409SOL    HW1 1257   0.940   1.931   1.307
  409SOL    HW2 1258   0.987   2.007   1.444
  410SOL     OW 1259   0.980   2.978   1.719
  410SOL    HW1 1260   0.881   2.984   1.729
  410SOL    HW2 1261   1.003   2.898   1.663
  411SOL     OW 1262   0.705   2.912   0.368
  411SOL    HW1 1263   0.691   2.919   0.467
  411SOL    HW2 1264   0.789   2.861   0.350
  412SOL     OW 1265   0.410   2.675   1.251
  412SOL    HW1 1266   0.496   2.687   1.301
  412SOL    HW2 1267   0.368   2.588   1.278
  413SOL     OW 1268   1.274   2.248   1.262
  413SOL    HW1 1269   1.295   2.322   1.326
  413SOL    HW2 1270   1.185   2.265   1.219
  414SOL     OW 1271   0.367   2.962   0.501
  414SOL    HW1 1272   0.360   3.045   0.445
  414SOL    HW2 1273   0.371   2.882   0.441
  415SOL     OW 1274   0.566   2.399   0.865
  415SOL    HW1 1275   0.578   2.465   0.791
  415SOL    HW2 1276   0.612   2.433   0.948
  416SOL     OW 1277   1.582   2.501   0.472
  416SOL    HW1 1278   1.551   2.562   0.545
  416SOL    HW2 1279   1.632   2.553   0.403
  417SOL     OW 1280   0.402   2.613   1.598
  417SOL    HW1 1281   0.470   2.668   1.551
  417SOL    HW2 1282   0.442   2.525   1.625
  418SOL     OW 1283   1.587   2.641   1.670
  418SOL    HW1 1284   1.495   2.679   1.665
  418SOL    HW2 1285   1.647   2.688   1.605
  419SOL     OW 1286   0.504   1.912   1.740
  419SOL    HW1 1287   0.462   1.855   1.670
  419SOL    HW2 1288   0.438   1.981   1.772
  420SOL     OW 1289   0.573   2.732   1.029
  420SOL    HW1 1290   0.617   2.821   1.020
  420SOL    HW2 1291   0.510   2.732   1.106
  421SOL     OW 1292   1.360   2.724   1.045
  421SOL    HW1 1293   1.285   2.724   0.979
  421SOL    HW2 1294   1.397   2.632   1.054
  422SOL     OW 1295   1.209   2.387   0.275
  422SOL    HW1 1296   1.222   2.303   0.329
  422SOL    HW2 1297   1.180   2.461   0.335
  423SOL     OW 1298   0.307   2.075   1.231
  423SOL    HW1 1299   0.284   2.112   1.321
  423SOL    HW2 1300   0.277   1.980   1.225
  424SOL     OW 1301   0.037   3.172   1.282
  424SOL    HW1 1302   0.090   3.123   1.350
  424SOL    HW2 1303   0.059   3.270   1.287
  425SOL     OW 1304   0.732   2.496   1.064
  425SOL    HW1 1305   0.791   2.470   0.988
  425SOL    HW2 1306   0.704   2.592   1.053
  426SOL     OW 1307   1.728   2.797   1.854
  426SOL    HW1 1308   1.682   2.790   1.765
  426SOL    HW2 1309   1.666   2.841   1.920
  427SOL     OW 1310   0.307   1.925   0.618
  427SOL    HW1 1311   0.296   2.019   0.651
  427SOL    HW2 1312   0.302   1.862   0.695
  428SOL     OW 1313   1.622   2.229   0.374
  428SOL    HW1 1314   1.624   2.153   0.438
  428SOL    HW2 1315   1.574   2.306   0.414
  429SOL     OW 1316   1.023   2.628   0.966
  429SOL    HW1 1317   1.038   2.649   1.062
  429SOL    HW2 1318   0.993   2.533   0.957
  430SOL     OW 1319   0.350   2.760   1.804
  430SOL    HW1 1320   0.426   2.804   1.852
  430SOL    HW2 1321   0.385   2.713   1.722
  431SOL     OW 1322   1.540   2.136   0.125
  431SOL    HW1 1323   1.479   2.061   0.148
  431SOL    HW2 1324   1.562   2.188   0.208
  432SOL     OW 1325   1.303   2.700   0.042
  432SOL    HW1 1326   1.337   2.607   0.057
  432SOL    HW2 1327   1.321   2.727  -0.053
  433SOL     OW 1328   0.319   2.672   0.949
  433SOL    HW1 1329   0.412   2.708   0.954
  433SOL    HW2 1330   0.313   2.587   1.001
  434SOL     OW 1331   0.339   2.371   1.006
  434SOL    HW1 1332   0.287   2.288   0.989
  434SOL    HW2 1333   0.416   2.376   0.942
  435SOL     OW 1334   1.138   2.242   1.678
  435SOL    HW1 1335   1.093   2.305   1.742
  435SOL    HW2 1336   1.231   2.273   1.661
  436SOL     OW 1337   1.160   2.069   1.477
  436SOL    HW1 1338   1.160   2.133   1.554
  436SOL    HW2 1339   1.188   2.117   1.394
  437SOL     OW 1340   1.002   2.658   1.238
  437SOL    HW1 1341   1.043   2.626   1.324
  437SOL    HW2 1342   0.906   2.631   1.235
  438SOL     OW 1343   0.040   2.406   1.114
  438SOL    HW1 1344   0.125   2.373   1.073
  438SOL    HW2 1345   0.053   2.421   1.212
  439SOL     OW 1346   0.189   2.382   1.722
  439SOL    HW1 1347   0.248   2.342   1.652
  439SOL    HW2 1348   0.131   2.453   1.681
  440SOL     OW 1349   1.369   2.812   1.660
  440SOL    HW1 1350   1.408   2.901   1.680
  440SOL    HW2 1351   1.379   2.792   1.563
  441SOL     OW 1352   0.815   2.434   0.325
  441SOL    HW1 1353   0.822   2.345   0.279
  441SOL    HW2 1354   0.721   2.468   0.317
  442SOL     OW 1355   1.657   2.466   1.206
  442SOL    HW1 1356   1.619   2.397   1.268
  442SOL    HW2 1357   1.739   2.430   1.162
  443SOL     OW 1358   0.671   2.326   1.269
  443SOL    HW1 1359   0.637   2.237   1.239
  443SOL    HW2 1360   0.697   2.380   1.189
  444SOL     OW 1361   0.473   2.362   0.191
  444SOL    HW1 1362   0.534   2.442   0.195
  444SOL    HW2 1363   0.378   2.393   0.198
  445SOL     OW 1364   0.159   2.999   1.466
  445SOL    HW1 1365   0.181   2.938   1.542
  445SOL    HW2 1366   0.169   2.950   1.380
  446SOL     OW 1367   1.347   2.921   1.234
  446SOL    HW1 1368   1.371   2.858   1.160
  446SOL    HW2 1369   1.257   2.961   1.216
  447SOL     OW 1370   1.302   2.717   0.309
  447SOL    HW1 1371   1.216   2.686   0.351
  447SOL    HW2 1372   1.298   2.703   0.210
  448SOL     OW 1373   0.083   3.120   1.022
  448SOL    HW1 1374   0.078   3.119   1.122
  448SOL    HW2 1375   0.000   3.079   0.984
  449SOL     OW 1376   0.903   1.948   0.133
  449SOL    HW1 1377   0.954   1.949   0.047
  449SOL    HW2 1378   0.959   1.906   0.204
  450SOL     OW 1379   1.726   1.997   0.523
  450SOL    HW1 1380   1.799   1.980   0.456
  450SOL    HW2 1381   1.695   1.910   0.561
  451SOL     OW 1382   1.280   2.789   0.672
  451SOL    HW1 1383   1.340   2.708   0.674
  451SOL    HW2 1384   1.320   2.858   0.612
  452SOL     OW 1385   1.841   2.037   0.963
  452SOL    HW1 1386   1.880   1.952   0.927
  452SOL    HW2 1387   1.743   2.039   0.944
  453SOL     OW 1388   0.263   2.188   0.720
  453SOL    HW1 1389   0.184   2.239   0.686
  453SOL    HW2 1390   0.254   2.173   0.818
  454SOL     OW 1391   0.822   2.864   1.372
  454SOL    HW1 1392   0.862   2.863   1.280
  454SOL    HW2 1393   0.832   2.956   1.412
  455SOL     OW 1394   0.916   2.772   0.291
  455SOL    HW1 1395   0.979   2.810   0.223
  455SOL    HW2 1396   0.956   2.689   0.330
  456SOL     OW 1397   0.372   3.150   1.490
  456SOL    HW1 1398   0.359   3.243   1.456
  456SOL    HW2 1399   0.288   3.098   1.477
  457SOL     OW 1400   1.614   3.154   1.289
  457SOL    HW1 1401   1.674   3.157   1.369
  457SOL    HW2 1402   1.539   3.218   1.302
  458SOL     OW 1403   1.039   2.960   0.696
  458SOL    HW1 1404   0.969   2.913   0.750
  458SOL    HW2 1405   1.098   2.892   0.653
  459SOL     OW 1406   1.014   2.098   0.971
  459SOL    HW1 1407   1.006   2.062   0.878
  459SOL    HW2 1408   1.012   2.022   1.036
  460SOL     OW 1409   1.709   2.247   1.381
  460SOL    HW1 1410   1.782   2.316   1.385
  460SOL    HW2 1411   1.737   2.172   1.322
  461SOL     OW 1412   0.105   2.875   1.726
  461SOL    HW1 1413   0.028   2.842   1.780
  461SOL    HW2 1414   0.190   2.845   1.768
  462SOL     OW 1415   0.672   2.065   1.489
  462SOL    HW1 1416   0.762   2.049   1.449
  462SOL    HW2 1417   0.680   2.070   1.588
  463SOL     OW 1418   0.075   2.207   0.033
  463SOL    HW1 1419  -0.017   2.179   0.004
  463SOL    HW2 1420   0.106   2.284  -0.023
  464SOL     OW 1421   1.440   2.718   1.398
  464SOL    HW1 1422   1.383   2.770   1.335
  464SOL    HW2 1423   1.536   2.730   1.374
  465SOL     OW 1424   0.072   2.028   0.318
  465SOL    HW1 1425   0.055   2.111   0.264
  465SOL    HW2 1426   0.162   1.991   0.296
  466SOL     OW 1427   0.613   2.704   1.431
  466SOL    HW1 1428   0.669   2.785   1.414
  466SOL    HW2 1429   0.672   2.624   1.434
  467SOL     OW 1430   0.716   2.427   1.708
  467SOL    HW1 1431   0.735   2.492   1.782
  467SOL    HW2 1432   0.776   2.347   1.717
  468SOL     OW 1433   1.450   3.082   1.633
  468SOL    HW1 1434   1.441   3.072   1.732
  468SOL    HW2 1435   1.546   3.075   1.607
  469SOL     OW 1436   1.674   2.745   1.254
  469SOL    HW1 1437   1.647   2.656   1.217
  469SOL    HW2 1438   1.675   2.813   1.181
  470SOL     OW 1439   1.225   2.187   0.449
  470SOL    HW1 1440   1.290   2.113   0.438
  470SOL    HW2 1441   1.245   2.237   0.533
  471SOL     OW 1442   0.594   2.607   0.652
  471SOL    HW1 1443   0.644   2.692   0.633
  471SOL    HW2 1444   0.506   2.609   0.604
  472SOL     OW 1445   1.777   2.204   1.642
  472SOL    HW1 1446   1.760   2.235   1.548
  472SOL    HW2 1447   1.693   2.167   1.680
  473SOL     OW 1448   1.730   2.796   1.517
  473SOL    HW1 1449   1.768   2.887   1.532
  473SOL    HW2 1450   1.722   2.779   1.418
  474SOL     OW 1451   0.859   2.818   0.861
  474SOL    HW1 1452   0.913   2.749   0.909
  474SOL    HW2 1453   0.827   2.887   0.927
  475SOL     OW 1454   1.083   2.846   0.087
  475SOL    HW1 1455   1.060   2.899   0.005
  475SOL    HW2 1456   1.164   2.790   0.068
  476SOL     OW 1457   0.079   3.102   0.653
  476SOL    HW1 1458   0.078   3.055   0.741
  476SOL    HW2 1459   0.161   3.074   0.602
  477SOL     OW 1460   1.824   2.054   1.227
  477SOL    HW1 1461   1.820   1.964   1.271
  477SOL    HW2 1462   1.827   2.043   1.128
  478SOL     OW 1463   0.428   2.286   0.520
  478SOL    HW1 1464   0.458   2.214   0.458
  478SOL    HW2 1465   0.389   2.246   0.603
  479SOL     OW 1466   0.317   2.409   1.280
  479SOL    HW1 1467   0.355   2.350   1.352
  479SOL    HW2 1468   0.357   2.383   1.192
  480SOL     OW 1469   1.424   2.076   1.112
  480SOL    HW1 1470   1.476   2.011   1.167
  480SOL    HW2 1471   1.375   2.139   1.173
  481SOL     OW 1472   1.001   1.896   1.154
  481SOL    HW1 1473   0.938   1.824   1.123
  481SOL    HW2 1474   1.094   1.860   1.154
  482SOL     OW 1475   0.770   3.192   0.301
  482SOL    HW1 1476   0.724   3.105   0.318
  482SOL    HW2 1477   0.861   3.189   0.342
  483SOL     OW 1478   1.352   1.914   0.168
  483SOL    HW1 1479   1.387   1.873   0.084
  483SOL    HW2 1480   1.262   1.876   0.188
  484SOL     OW 1481   1.300   2.315   0.691
  484SOL    HW1 1482   1.241   2.395   0.695
  484SOL    HW2 1483   1.315   2.280   0.784
  485SOL     OW 1484   1.593   2.083   0.882
  485SOL    HW1 1485   1.509   2.082   0.936
  485SOL    HW2 1486   1.595   2.166   0.826
  486SOL     OW 1487   0.039   2.939   0.300
  486SOL    HW1 1488   0.138   2.928   0.291
  486SOL    HW2 1489  -0.001   2.853   0.332
  487SOL     OW 1490   0.230   2.490   1.975
  487SOL    HW1 1491   0.137   2.488   2.012
  487SOL    HW2 1492   0.231   2.451   1.883
  488SOL     OW 1493   0.225   2.137   2.858
  488SOL    HW1 1494   0.260   2.120   2.950
  488SOL    HW2 1495   0.137   2.092   2.846
  489SOL     OW 1496   0.019   2.230   2.509
  489SOL    HW1 1497  -0.063   2.273   2.548
  489SOL    HW2 1498  -0.009   2.157   2.446
  490SOL     OW 1499   1.135   2.565   2.579
  490SOL    HW1 1500   1.192   2.643   2.554
  490SOL    HW2 1501   1.075   2.591   2.655
  491SOL     OW 1502   1.755   2.469   2.093
  491SOL    HW1 1503   1.743   2.456   1.994
  491SOL    HW2 1504   1.725   2.388   2.142
  492SOL     OW 1505   0.768   3.006   2.885
  492SOL    HW1 1506   0.690   3.023   2.945
  492SOL    HW2 1507   0.802   3.093   2.849
  493SOL     OW 1508   0.685   2.874   2.527
  493SOL    HW1 1509   0.754   2.858   2.597
  493SOL    HW2 1510   0.612   2.931   2.565
  494SOL     OW 1511   1.603   2.309   2.599
  494SOL    HW1 1512   1.529   2.355   2.549
  494SOL    HW2 1513   1.654   2.377   2.652
  495SOL     OW 1514   0.240   2.953   2.748
  495SOL    HW1 1515   0.254   2.869   2.800
  495SOL    HW2 1516   0.185   3.017   2.803
  496SOL     OW 1517   0.606   2.826   1.985
  496SOL    HW1 1518   0.613   2.910   1.931
  496SOL    HW2 1519   0.652   2.839   2.073
  497SOL     OW 1520   0.122   2.505   2.425
  497SOL    HW1 1521   0.077   2.417   2.442
  497SOL    HW2 1522   0.121   2.559   2.509
  498SOL     OW 1523   1.689   2.784   2.474
  498SOL    HW1 1524   1.784   2.755   2.482
  498SOL    HW2 1525   1.681   2.849   2.399
  499SOL     OW 1526   1.641   2.970   2.294
  499SOL    HW1 1527   1.727   2.972   2.242
  499SOL    HW2 1528   1.655   3.017   2.382
  500SOL     OW 1529   0.613   3.227   2.588
  500SOL    HW1 1530   0.564   3.140   2.597
  500SOL    HW2 1531   0.590   3.270   2.501
  501SOL     OW 1532   0.809   1.866   2.364
  501SOL    HW1 1533   0.849   1.957   2.355
  501SOL    HW2 1534   0.709   1.874   2.370
  502SOL     OW 1535   0.197   2.838   3.126
  502SOL    HW1 1536   0.286   2.793   3.112
  502SOL    HW2 1537   0.124   2.773   3.107
  503SOL     OW 1538   1.525   2.861   2.052
  503SOL    HW1 1539   1.462   2.785   2.065
  503SOL    HW2 1540   1.573   2.879   2.138
  504SOL     OW 1541   0.598   2.591   2.132
  504SOL    HW1 1542   0.622   2.660   2.064
  504SOL    HW2 1543   0.520   2.624   2.186
  505SOL     OW 1544   1.281   2.207   2.806
  505SOL    HW1 1545   1.195   2.157   2.793
  505SOL    HW2 1546   1.343   2.153   2.862
  506SOL     OW 1547   1.041   2.563   2.291
  506SOL    HW1 1548   1.067   2.559   2.387
  506SOL    HW2 1549   0.956   2.512   2.277
  507SOL     OW 1550   0.076   2.673   2.651
  507SOL    HW1 1551   0.175   2.661   2.660
  507SOL    HW2 1552   0.052   2.768   2.672
  508SOL     OW 1553   0.865   2.210   2.057
  508SOL    HW1 1554   0.924   2.273   2.008
  508SOL    HW2 1555   0.884   2.116   2.028
  509SOL     OW 1556   1.362   3.006   2.407
  509SOL    HW1 1557   1.445   2.977   2.359
  509SOL    HW2 1558   1.313   3.073   2.351
  510SOL     OW 1559   0.550   2.058   2.747
  510SOL    HW1 1560   0.545   2.053   2.847
  510SOL    HW2 1561   0.552   2.154   2.718
  511SOL     OW 1562   1.795   2.928   2.735
  511SOL    HW1 1563   1.733   2.913   2.659
  511SOL    HW2 1564   1.743   2.939   2.820
  512SOL     OW 1565   0.321   2.805   2.104
  512SOL    HW1 1566   0.403   2.844   2.062
  512SOL    HW2 1567   0.294   2.723   2.055
  513SOL     OW 1568   1.458   2.597   2.590
  513SOL    HW1 1569   1.453   2.532   2.665
  513SOL    HW2 1570   1.538   2.656   2.603
  514SOL     OW 1571   1.400   1.969   2.288
  514SOL    HW1 1572   1.376   1.932   2.198
  514SOL    HW2 1573   1.499   1.985   2.292
  515SOL     OW 1574   0.382   2.562   2.342
  515SOL    HW1 1575   0.427   2.472   2.339
  515SOL    HW2 1576   0.288   2.551   2.375
  516SOL     OW 1577   0.614   1.984   1.979
  516SOL    HW1 1578   0.712   1.962   1.986
  516SOL    HW2 1579   0.583   1.967   1.886
  517SOL     OW 1580   0.922   2.365   2.761
  517SOL    HW1 1581   0.897   2.356   2.665
  517SOL    HW2 1582   0.970   2.283   2.792
  518SOL     OW 1583   0.539   1.926   2.374
  518SOL    HW1 1584   0.458   1.927   2.432
  518SOL    HW2 1585   0.542   2.009   2.319
  519SOL     OW 1586   0.297   1.897   2.033
  519SOL    HW1 1587   0.346   1.981   2.012
  519SOL    HW2 1588   0.359   1.832   2.078
  520SOL     OW 1589   0.935   2.098   2.342
  520SOL    HW1 1590   0.887   2.139   2.264
  520SOL    HW2 1591   1.034   2.096   2.323
  521SOL     OW 1592   0.459   3.014   2.603
  521SOL    HW1 1593   0.388   2.987   2.668
  521SOL    HW2 1594   0.433   2.986   2.510
  522SOL     OW 1595   1.032   2.411   1.878
  522SOL    HW1 1596   0.991   2.493   1.839
  522SOL    HW2 1597   1.096   2.437   1.951
  523SOL     OW 1598   0.866   2.316   2.504
  523SOL    HW1 1599   0.834   2.388   2.442
  523SOL    HW2 1600   0.890   2.235   2.451
  524SOL     OW 1601   1.017   1.901   2.615
  524SOL    HW1 1602   0.945   1.906   2.546
  524SOL    HW2 1603   0.993   1.832   2.684
  525SOL     OW 1604   1.429   3.035   2.729
  525SOL    HW1 1605   1.374   2.951   2.722
  525SOL    HW2 1606   1.455   3.064   2.637
  526SOL     OW 1607   1.466   2.452   2.854
  526SOL    HW1 1608   1.436   2.357   2.861
  526SOL    HW2 1609   1.539   2.468   2.920
  527SOL     OW 1610   1.857   2.695   2.239
  527SOL    HW1 1611   1.899   2.631   2.303
  527SOL    HW2 1612   1.819   2.644   2.161
  528SOL     OW 1613   1.390   2.437   1.940
  528SOL    HW1 1614   1.336   2.416   2.021
  528SOL    HW2 1615   1.481   2.396   1.949
  529SOL     OW 1616   0.527   2.118   2.190
  529SOL    HW1 1617   0.554   2.059   2.115
  529SOL    HW2 1618   0.527   2.213   2.159
  530SOL     OW 1619   1.638   2.961   2.941
  530SOL    HW1 1620   1.643   3.042   3.000
  530SOL    HW2 1621   1.552   2.963   2.890
  531SOL     OW 1622   0.705   2.912   2.230
  531SOL    HW1 1623   0.691   2.919   2.329
  531SOL    HW2 1624   0.789   2.861   2.212
  532SOL     OW 1625   0.410   2.675   3.113
  532SOL    HW1 1626   0.496   2.687   3.163
  532SOL    HW2 1627   0.368   2.588   3.140
  533SOL     OW 1628   0.367   2.962   2.363
  533SOL    HW1 1629   0.360   3.045   2.307
  533SOL    HW2 1630   0.371   2.882   2.303
  534SOL     OW 1631   0.566   2.399   2.727
  534SOL    HW1 1632   0.578   2.465   2.653
  534SOL    HW2 1633   0.612   2.433   2.810
  535SOL     OW 1634   1.582   2.501   2.334
  535SOL    HW1 1635   1.551   2.562   2.407
  535SOL    HW2 1636   1.632   2.553   2.265
  536SOL     OW 1637   0.573   2.732   2.891
  536SOL    HW1 1638   0.617   2.821   2.882
  536SOL    HW2 1639   0.510   2.732   2.968
  537SOL     OW 1640   1.360   2.724   2.907
  537SOL    HW1 1641   1.285   2.724   2.841
  537SOL    HW2 1642   1.397   2.632   2.916
  538SOL     OW 1643   1.209   2.387   2.137
  538SOL    HW1 1644   1.222   2.303   2.191
  538SOL    HW2 1645   1.180   2.461   2.197
  539SOL     OW 1646   0.307   2.075   3.093
  539SOL    HW1 1647   0.284   2.112   3.183
  539SOL    HW2 1648   0.277   1.980   3.087
  540SOL     OW 1649   0.037   3.172   3.144
  540SOL    HW1 1650   0.090   3.123   3.212
  540SOL    HW2 1651   0.059   3.270   3.149
  541SOL     OW 1652   0.732   2.496   2.926
  541SOL    HW1 1653   0.791   2.470   2.850
  541SOL    HW2 1654   0.704   2.592   2.915
  542SOL     OW 1655   0.307   1.925   2.480
  542SOL    HW1 1656   0.296   2.019   2.513
  542SOL    HW2 1657   0.302   1.862   2.557
  543SOL     OW 1658   1.622   2.229   2.236
  543SOL    HW1 1659   1.624   2.153   2.300
  543SOL    HW2 1660   1.574   2.306   2.276
  544SOL     OW 1661   1.023   2.628   2.828
  544SOL    HW1 1662   1.038   2.649   2.924
  544SOL    HW2 1663   0.993   2.533   2.819
  545SOL     OW 1664   1.540   2.136   1.987
  545SOL    HW1 1665   1.479   2.061   2.010
  545SOL    HW2 1666   1.562   2.188   2.070
  546SOL     OW 1667   1.303   2.700   1.904
  546SOL    HW1 1668   1.337   2.607   1.919
  546SOL    HW2 1669   1.321   2.727   1.809
  547SOL     OW 1670   0.319   2.672   2.811
  547SOL    HW1 1671   0.412   2.708   2.816
  547SOL    HW2 1672   0.313   2.587   2.863
  548SOL     OW 1673   0.339   2.371   2.868
  548SOL    HW1 1674   0.287   2.288   2.851
  548SOL    HW2 1675   0.416   2.376   2.804
  549SOL     OW 1676   1.160   2.069   3.339
  549SOL    HW1 1677   1.160   2.133   3.416
  549SOL    HW2 1678   1.188   2.117   3.256
  550SOL     OW 1679   1.002   2.658   3.100
  550SOL    HW1 1680   1.043   2.626   3.186
  550SOL    HW2 1681   0.906   2.631   3.097
  551SOL     OW 1682   0.040   2.406   2.976
  551SOL    HW1 1683   0.125   2.373   2.935
  551SOL    HW2 1684   0.053   2.421   3.074
  552SOL     OW 1685   0.815   2.434   2.187
  552SOL    HW1 1686   0.822   2.345   2.141
  552SOL    HW2 1687   0.721   2.468   2.179
  553SOL     OW 1688   1.657   2.466   3.068
  553SOL    HW1 1689   1.619   2.397   3.130
  553SOL    HW2 1690   1.739   2.430   3.024
  554SOL     OW 1691   0.671   2.326   3.131
  554SOL    HW1 1692   0.637   2.237   3.101
  554SOL    HW2 1693   0.697   2.380   3.051
  555SOL     OW 1694   0.473   2.362   2.053
  555SOL    HW1 1695   0.534   2.442   2.057
  555SOL    HW2 1696   0.378   2.393   2.060
  556SOL     OW 1697   1.347   2.921   3.096
  556SOL    HW1 1698   1.371   2.858   3.022
  556SOL    HW2 1699   1.257   2.961   3.078
  557SOL     OW 1700   1.302   2.717   2.171
  557SOL    HW1 1701   1.216   2.686   2.213
  557SOL    HW2 1702   1.298   2.703   2.072
  558SOL     OW 1703   0.083   3.120   2.884
  558SOL    HW1 1704   0.078   3.119   2.984
  558SOL    HW2 1705   0.000   3.079   2.846
  559SOL     OW 1706   1.726   1.997   2.385
  559SOL    HW1 1707   1.799   1.980   2.318
  559SOL    HW2 1708   1.695   1.910   2.423
  560SOL     OW 1709   1.280   2.789   2.534
  560SOL    HW1 1710   1.340   2.708   2.536
  560SOL    HW2 1711   1.320   2.858   2.474
  561SOL     OW 1712   1.841   2.037   2.825
  561SOL    HW1 1713   1.880   1.952   2.789
  561SOL    HW2 1714   1.743   2.039   2.806
  562SOL     OW 1715   0.263   2.188   2.582
  562SOL    HW1 1716   0.184   2.239   2.548
  562SOL    HW2 1717   0.254   2.173   2.680
  563SOL     OW 1718   0.822   2.864   3.234
  563SOL    HW1 1719   0.862   2.863   3.142
  563SOL    HW2 1720   0.832   2.956   3.274
  564SOL     OW 1721   0.916   2.772   2.153
  564SOL    HW1 1722   0.979   2.810   2.085
  564SOL    HW2 1723   0.956   2.689   2.192
  565SOL     OW 1724   1.614   3.154   3.151
  565SOL    HW1 1725   1.674   3.157   3.231
  565SOL    HW2 1726   1.539   3.218   3.164
  566SOL     OW 1727   1.039   2.960   2.558
  566SOL    HW1 1728   0.969   2.913   2.612
  566SOL    HW2 1729   1.098   2.892   2.515
  567SOL     OW 1730   1.014   2.098   2.833
  567SOL    HW1 1731   1.006   2.062   2.740
  567SOL    HW2 1732   1.012   2.022   2.898
  568SOL     OW 1733   1.709   2.247   3.243
  568SOL    HW1 1734   1.782   2.316   3.247
  568SOL    HW2 1735   1.737   2.172   3.184
  569SOL     OW 1736   0.075   2.207   1.895
  569SOL    HW1 1737  -0.017   2.179   1.866
  569SOL    HW2 1738   0.106   2.284   1.839
  570SOL     OW 1739   0.072   2.028   2.180
  570SOL    HW1 1740   0.055   2.111   2.126
  570SOL    HW2 1741   0.162   1.991   2.158
  571SOL     OW 1742   1.674   2.745   3.116
  571SOL    HW1 1743   1.647   2.656   3.079
  571SOL    HW2 1744   1.675   2.813   3.043
  572SOL     OW 1745   1.225   2.187   2.311
  572SOL    HW1 1746   1.290   2.113   2.300
  572SOL    HW2 1747   1.245   2.237   2.395
  573SOL     OW 1748   0.594   2.607   2.514
  573SOL    HW1 1749   0.644   2.692   2.495
  573SOL    HW2 1750   0.506   2.609   2.466
  574SOL     OW 1751   1.730   2.796   3.379
  574SOL    HW1 1752   1.768   2.887   3.394
  574SOL    HW2 1753   1.722   2.779   3.280
  575SOL     OW 1754   0.859   2.818   2.723
  575SOL    HW1 1755   0.913   2.749   2.771
  575SOL    HW2 1756   0.827   2.887   2.789
  576SOL     OW 1757   1.083   2.846   1.949
  576SOL    HW1 1758   1.060   2.899   1.867
  576SOL    HW2 1759   1.164   2.790   1.930
  577SOL     OW 1760   0.079   3.102   2.515
  577SOL    HW1 1761   0.078   3.055   2.603
  577SOL    HW2 1762   0.161   3.074   2.464
  578SOL     OW 1763   1.824   2.054   3.089
  578SOL    HW1 1764   1.820   1.964   3.133
  578SOL    HW2 1765   1.827   2.043   2.990
  579SOL     OW 1766   0.428   2.286   2.382
  579SOL    HW1 1767   0.458   2.214   2.320
  579SOL    HW2 1768   0.389   2.246   2.465
  580SOL     OW 1769   1.424   2.076   2.974
  580SOL    HW1 1770   1.476   2.011   3.029
  580SOL    HW2 1771   1.375   2.139   3.035
  581SOL     OW 1772   1.001   1.896   3.016
  581SOL    HW1 1773   0.938   1.824   2.985
  581SOL    HW2 1774   1.094   1.860   3.016
  582SOL     OW 1775   0.770   3.192   2.163
  582SOL    HW1 1776   0.724   3.105   2.180
  582SOL    HW2 1777   0.861   3.189   2.204
  583SOL     OW 1778   1.352   1.914   2.030
  583SOL    HW1 1779   1.387   1.873   1.946
  583SOL    HW2 1780   1.262   1.876   2.050
  584SOL     OW 1781   1.300   2.315   2.553
  584SOL    HW1 1782   1.241   2.395   2.557
  584SOL    HW2 1783   1.315   2.280   2.646
  585SOL     OW 1784   1.593   2.083   2.744
  585SOL    HW1 1785   1.509   2.082   2.798
  585SOL    HW2 1786   1.595   2.166   2.688
  586SOL     OW 1787   0.039   2.939   2.162
  586SOL    HW1 1788   0.138   2.928   2.153
  586SOL    HW2 1789  -0.001   2.853   2.194
  587SOL     OW 1790   2.092   0.628   0.113
  587SOL    HW1 1791   1.999   0.626   0.150
  587SOL    HW2 1792   2.093   0.589   0.021
  588SOL     OW 1793   2.087   0.275   0.996
  588SOL    HW1 1794   2.122   0.258   1.088
  588SOL    HW2 1795   1.999   0.230   0.984
  589SOL     OW 1796   1.881   0.368   0.647
  589SOL    HW1 1797   1.799   0.411   0.686
  589SOL    HW2 1798   1.853   0.295   0.584
  590SOL     OW 1799   2.431   1.275   1.165
  590SOL    HW1 1800   2.338   1.268   1.128
  590SOL    HW2 1801   2.442   1.364   1.209
  591SOL     OW 1802   2.997   0.703   0.717
  591SOL    HW1 1803   3.054   0.781   0.692
  591SOL    HW2 1804   2.937   0.729   0.793
  592SOL     OW 1805   2.630   1.144   1.023
  592SOL    HW1 1806   2.552   1.161   1.083
  592SOL    HW2 1807   2.664   1.231   0.987
  593SOL     OW 1808   2.712   0.798   1.823
  593SOL    HW1 1809   2.708   0.874   1.888
  593SOL    HW2 1810   2.734   0.834   1.732
  594SOL     OW 1811   2.547   1.012   0.665
  594SOL    HW1 1812   2.616   0.996   0.735
  594SOL    HW2 1813   2.474   1.069   0.703
  595SOL     OW 1814   2.548   1.161   1.803
  595SOL    HW1 1815   2.608   1.240   1.817
  595SOL    HW2 1816   2.462   1.192   1.762
  596SOL     OW 1817   2.197   1.435   1.061
  596SOL    HW1 1818   2.119   1.404   1.008
  596SOL    HW2 1819   2.255   1.493   1.004
  597SOL     OW 1820   2.300   0.392   1.499
  597SOL    HW1 1821   2.382   0.336   1.508
  597SOL    HW2 1822   2.219   0.334   1.503
  598SOL     OW 1823   2.093   1.713   0.483
  598SOL    HW1 1824   2.127   1.790   0.537
  598SOL    HW2 1825   2.137   1.713   0.393
  599SOL     OW 1826   2.989   1.341   1.690
  599SOL    HW1 1827   3.036   1.341   1.778
  599SOL    HW2 1828   2.941   1.254   1.679
  600SOL     OW 1829   2.092   1.434   0.538
  600SOL    HW1 1830   2.066   1.530   0.538
  600SOL    HW2 1831   2.021   1.380   0.583
  601SOL     OW 1832   2.102   1.091   0.886
  601SOL    HW1 1833   2.116   1.007   0.938
  601SOL    HW2 1834   2.047   1.155   0.941
  602SOL     OW 1835   2.482   1.786   1.439
  602SOL    HW1 1836   2.390   1.769   1.474
  602SOL    HW2 1837   2.510   1.878   1.465
  603SOL     OW 1838   2.468   0.964   0.123
  603SOL    HW1 1839   2.475   1.048   0.069
  603SOL    HW2 1840   2.514   0.977   0.211
  604SOL     OW 1841   1.984   0.643   0.563
  604SOL    HW1 1842   1.939   0.555   0.580
  604SOL    HW2 1843   1.983   0.697   0.647
  605SOL     OW 1844   1.889   1.596   0.117
  605SOL    HW1 1845   1.870   1.500   0.138
  605SOL    HW2 1846   1.856   1.654   0.192
  606SOL     OW 1847   1.975   0.737   1.597
  606SOL    HW1 1848   2.063   0.724   1.642
  606SOL    HW2 1849   1.962   0.834   1.575
  607SOL     OW 1850   2.475   1.365   0.726
  607SOL    HW1 1851   2.426   1.278   0.735
  607SOL    HW2 1852   2.452   1.408   0.639
  608SOL     OW 1853   2.671   0.004   0.502
  608SOL    HW1 1854   2.711   0.095   0.493
  608SOL    HW2 1855   2.571   0.012   0.508
  609SOL     OW 1856   2.059   0.976   1.264
  609SOL    HW1 1857   2.148   0.931   1.250
  609SOL    HW2 1858   1.986   0.911   1.245
  610SOL     OW 1859   2.179   0.251   1.801
  610SOL    HW1 1860   2.250   0.322   1.807
  610SOL    HW2 1861   2.091   0.290   1.829
  611SOL     OW 1862   2.460   0.729   0.270
  611SOL    HW1 1863   2.484   0.798   0.202
  611SOL    HW2 1864   2.382   0.762   0.324
  612SOL     OW 1865   2.669   0.605   1.465
  612SOL    HW1 1866   2.622   0.602   1.554
  612SOL    HW2 1867   2.618   0.550   1.399
  613SOL     OW 1868   2.835   0.890   1.572
  613SOL    HW1 1869   2.881   0.806   1.543
  613SOL    HW2 1870   2.779   0.924   1.497
  614SOL     OW 1871   2.853   0.410   1.242
  614SOL    HW1 1872   2.776   0.444   1.296
  614SOL    HW2 1873   2.819   0.359   1.163
  615SOL     OW 1874   2.903   0.701   0.429
  615SOL    HW1 1875   2.929   0.697   0.525
  615SOL    HW2 1876   2.818   0.650   0.415
  616SOL     OW 1877   1.938   0.811   0.789
  616SOL    HW1 1878   2.037   0.799   0.798
  616SOL    HW2 1879   1.914   0.906   0.810
  617SOL     OW 1880   1.992   1.821   1.571
  617SOL    HW1 1881   1.982   1.806   1.670
  617SOL    HW2 1882   1.906   1.857   1.535
  618SOL     OW 1883   2.727   0.348   0.195
  618SOL    HW1 1884   2.786   0.411   0.146
  618SOL    HW2 1885   2.746   0.254   0.166
  619SOL     OW 1886   2.412   0.196   0.885
  619SOL    HW1 1887   2.407   0.191   0.985
  619SOL    HW2 1888   2.414   0.292   0.856
  620SOL     OW 1889   2.870   1.456   0.477
  620SOL    HW1 1890   2.824   1.528   0.425
  620SOL    HW2 1891   2.866   1.476   0.575
  621SOL     OW 1892   2.213   1.801   0.853
  621SOL    HW1 1893   2.263   1.715   0.859
  621SOL    HW2 1894   2.278   1.878   0.850
  622SOL     OW 1895   3.089   1.550   1.506
  622SOL    HW1 1896   3.095   1.473   1.570
  622SOL    HW2 1897   3.037   1.524   1.426
  623SOL     OW 1898   2.183   0.943   0.242
  623SOL    HW1 1899   2.265   0.982   0.200
  623SOL    HW2 1900   2.156   0.861   0.193
  624SOL     OW 1901   2.323   1.266   1.727
  624SOL    HW1 1902   2.273   1.267   1.641
  624SOL    HW2 1903   2.260   1.248   1.803
  625SOL     OW 1904   2.973   1.776   0.237
  625SOL    HW1 1905   2.913   1.714   0.287
  625SOL    HW2 1906   3.004   1.732   0.152
  626SOL     OW 1907   2.064   0.285   1.498
  626SOL    HW1 1908   1.984   0.345   1.485
  626SOL    HW2 1909   2.054   0.236   1.584
  627SOL     OW 1910   2.326   1.743   0.323
  627SOL    HW1 1911   2.359   1.782   0.409
  627SOL    HW2 1912   2.402   1.736   0.258
  628SOL     OW 1913   2.111   1.785   1.241
  628SOL    HW1 1914   2.168   1.720   1.291
  628SOL    HW2 1915   2.095   1.752   1.148
  629SOL     OW 1916   2.802   1.698   0.904
  629SOL    HW1 1917   2.882   1.641   0.925
  629SOL    HW2 1918   2.753   1.658   0.827
  630SOL     OW 1919   2.244   0.700   0.480
  630SOL    HW1 1920   2.289   0.610   0.477
  630SOL    HW2 1921   2.150   0.689   0.513
  631SOL     OW 1922   2.476   0.122   0.117
  631SOL    HW1 1923   2.574   0.100   0.124
  631SOL    HW2 1924   2.445   0.105   0.024
  632SOL     OW 1925   2.643   0.264   1.749
  632SOL    HW1 1926   2.710   0.203   1.792
  632SOL    HW2 1927   2.570   0.283   1.814
  633SOL     OW 1928   2.750   1.514   1.195
  633SOL    HW1 1929   2.727   1.489   1.101
  633SOL    HW2 1930   2.811   1.445   1.234
  634SOL     OW 1931   2.665   1.402   0.924
  634SOL    HW1 1932   2.755   1.416   0.882
  634SOL    HW2 1933   2.594   1.404   0.853
  635SOL     OW 1934   2.784   0.503   0.899
  635SOL    HW1 1935   2.759   0.494   0.803
  635SOL    HW2 1936   2.832   0.421   0.930
  636SOL     OW 1937   2.401   0.064   0.512
  636SOL    HW1 1938   2.320   0.065   0.570
  636SOL    HW2 1939   2.404   0.147   0.457
  637SOL     OW 1940   3.296   1.188   0.041
  637SOL    HW1 1941   3.328   1.112   0.098
  637SOL    HW2 1942   3.204   1.215   0.071
  638SOL     OW 1943   2.159   0.035   0.171
  638SOL    HW1 1944   2.208   0.119   0.150
  638SOL    HW2 1945   2.221  -0.030   0.216
  639SOL     OW 1946   2.797   0.236   0.480
  639SOL    HW1 1947   2.749   0.277   0.402
  639SOL    HW2 1948   2.896   0.234   0.461
  640SOL     OW 1949   2.938   0.683   1.464
  640SOL    HW1 1950   2.858   0.622   1.467
  640SOL    HW2 1951   3.019   0.630   1.440
  641SOL     OW 1952   3.089   1.570   0.793
  641SOL    HW1 1953   3.110   1.644   0.728
  641SOL    HW2 1954   3.157   1.570   0.866
  642SOL     OW 1955   2.321   1.152   0.741
  642SOL    HW1 1956   2.250   1.125   0.806
  642SOL    HW2 1957   2.295   1.124   0.648
  643SOL     OW 1958   3.133   1.797   0.591
  643SOL    HW1 1959   3.177   1.861   0.527
  643SOL    HW2 1960   3.083   1.849   0.661
  644SOL     OW 1961   2.894   0.549   0.016
  644SOL    HW1 1962   2.853   0.631  -0.023
  644SOL    HW2 1963   2.958   0.575   0.089
  645SOL     OW 1964   1.940   0.556   1.386
  645SOL    HW1 1965   2.032   0.555   1.345
  645SOL    HW2 1966   1.934   0.630   1.453
  646SOL     OW 1967   2.423   0.222   1.147
  646SOL    HW1 1968   2.461   0.138   1.184
  646SOL    HW2 1969   2.335   0.241   1.191
  647SOL     OW 1970   2.728   0.454   0.642
  647SOL    HW1 1971   2.696   0.526   0.580
  647SOL    HW2 1972   2.752   0.373   0.589
  648SOL     OW 1973   2.879   0.039   0.753
  648SOL    HW1 1974   2.807   0.044   0.684
  648SOL    HW2 1975   2.855  -0.030   0.822
  649SOL     OW 1976   2.350   1.385   0.174
  649SOL    HW1 1977   2.263   1.370   0.221
  649SOL    HW2 1978   2.333   1.411   0.079
  650SOL     OW 1979   2.389   0.256   0.328
  650SOL    HW1 1980   2.416   0.197   0.253
  650SOL    HW2 1981   2.389   0.351   0.297
  651SOL     OW 1982   2.926   1.347   1.340
  651SOL    HW1 1983   2.846   1.324   1.395
  651SOL    HW2 1984   3.009   1.321   1.389
  652SOL     OW 1985   2.973   1.195   1.100
  652SOL    HW1 1986   2.933   1.239   1.181
  652SOL    HW2 1987   2.932   1.232   1.017
  653SOL     OW 1988   2.777   0.089   1.402
  653SOL    HW1 1989   2.802   0.069   1.307
  653SOL    HW2 1990   2.849   0.145   1.444
  654SOL     OW 1991   2.842   1.116   1.719
  654SOL    HW1 1992   2.743   1.122   1.729
  654SOL    HW2 1993   2.865   1.036   1.663
  655SOL     OW 1994   2.567   1.050   0.368
  655SOL    HW1 1995   2.553   1.057   0.467
  655SOL    HW2 1996   2.651   0.999   0.350
  656SOL     OW 1997   2.272   0.813   1.251
  656SOL    HW1 1998   2.358   0.825   1.301
  656SOL    HW2 1999   2.230   0.726   1.278
  657SOL     OW 2000   1.926   1.564   1.331
  657SOL    HW1 2001   1.880   1.646   1.297
  657SOL    HW2 2002   2.024   1.583   1.340
  658SOL     OW 2003   2.229   1.100   0.501
  658SOL    HW1 2004   2.222   1.183   0.445
  658SOL    HW2 2005   2.233   1.020   0.441
  659SOL     OW 2006   2.428   0.537   0.865
  659SOL    HW1 2007   2.440   0.603   0.791
  659SOL    HW2 2008   2.474   0.571   0.948
  660SOL     OW 2009   3.114   1.348   0.388
  660SOL    HW1 2010   3.164   1.425   0.428
  660SOL    HW2 2011   3.019   1.350   0.420
  661SOL     OW 2012   2.216   1.510   1.329
  661SOL    HW1 2013   2.195   1.466   1.242
  661SOL    HW2 2014   2.313   1.536   1.332
  662SOL     OW 2015   2.264   0.751   1.598
  662SOL    HW1 2016   2.332   0.806   1.551
  662SOL    HW2 2017   2.304   0.663   1.625
  663SOL     OW 2018   2.875   0.105   1.770
  663SOL    HW1 2019   2.881   0.190   1.718
  663SOL    HW2 2020   2.907   0.029   1.713
  664SOL     OW 2021   2.366   0.050   1.740
  664SOL    HW1 2022   2.324  -0.007   1.670
  664SOL    HW2 2023   2.300   0.119   1.772
  665SOL     OW 2024   2.435   0.870   1.029
  665SOL    HW1 2025   2.479   0.959   1.020
  665SOL    HW2 2026   2.372   0.870   1.106
  666SOL     OW 2027   3.222   0.862   1.045
  666SOL    HW1 2028   3.147   0.862   0.979
  666SOL    HW2 2029   3.259   0.770   1.054
  667SOL     OW 2030   3.071   0.525   0.275
  667SOL    HW1 2031   3.084   0.441   0.329
  667SOL    HW2 2032   3.042   0.599   0.335
  668SOL     OW 2033   2.169   0.213   1.231
  668SOL    HW1 2034   2.146   0.250   1.321
  668SOL    HW2 2035   2.139   0.118   1.225
  669SOL     OW 2036   1.899   1.310   1.282
  669SOL    HW1 2037   1.952   1.261   1.350
  669SOL    HW2 2038   1.921   1.408   1.287
  670SOL     OW 2039   2.594   0.634   1.064
  670SOL    HW1 2040   2.653   0.608   0.988
  670SOL    HW2 2041   2.566   0.730   1.053
  671SOL     OW 2042   2.169   0.063   0.618
  671SOL    HW1 2043   2.158   0.157   0.651
  671SOL    HW2 2044   2.164   0.000   0.695
  672SOL     OW 2045   2.885   0.766   0.966
  672SOL    HW1 2046   2.900   0.787   1.062
  672SOL    HW2 2047   2.855   0.671   0.957
  673SOL     OW 2048   2.842   1.573   1.700
  673SOL    HW1 2049   2.822   1.617   1.612
  673SOL    HW2 2050   2.881   1.482   1.684
  674SOL     OW 2051   2.212   0.898   1.804
  674SOL    HW1 2052   2.288   0.942   1.852
  674SOL    HW2 2053   2.247   0.851   1.722
  675SOL     OW 2054   2.930   1.333   0.849
  675SOL    HW1 2055   2.937   1.249   0.794
  675SOL    HW2 2056   2.992   1.402   0.813
  676SOL     OW 2057   2.181   0.810   0.949
  676SOL    HW1 2058   2.274   0.846   0.954
  676SOL    HW2 2059   2.175   0.725   1.001
  677SOL     OW 2060   2.201   0.509   1.006
  677SOL    HW1 2061   2.149   0.426   0.989
  677SOL    HW2 2062   2.278   0.514   0.942
  678SOL     OW 2063   3.000   0.380   1.678
  678SOL    HW1 2064   2.955   0.443   1.742
  678SOL    HW2 2065   3.093   0.411   1.661
  679SOL     OW 2066   3.022   0.207   1.477
  679SOL    HW1 2067   3.022   0.271   1.554
  679SOL    HW2 2068   3.050   0.255   1.394
  680SOL     OW 2069   1.870   1.326   0.200
  680SOL    HW1 2070   1.777   1.347   0.169
  680SOL    HW2 2071   1.880   1.227   0.213
  681SOL     OW 2072   1.950   1.801   0.927
  681SOL    HW1 2073   1.908   1.715   0.900
  681SOL    HW2 2074   2.044   1.804   0.893
  682SOL     OW 2075   2.366   1.568   0.910
  682SOL    HW1 2076   2.432   1.642   0.919
  682SOL    HW2 2077   2.410   1.489   0.868
  683SOL     OW 2078   2.864   0.796   1.238
  683SOL    HW1 2079   2.905   0.764   1.324
  683SOL    HW2 2080   2.768   0.769   1.235
  684SOL     OW 2081   1.902   0.544   1.114
  684SOL    HW1 2082   1.987   0.511   1.073
  684SOL    HW2 2083   1.915   0.559   1.212
  685SOL     OW 2084   2.051   0.520   1.722
  685SOL    HW1 2085   2.110   0.480   1.652
  685SOL    HW2 2086   1.993   0.591   1.681
  686SOL     OW 2087   2.677   0.572   0.325
  686SOL    HW1 2088   2.684   0.483   0.279
  686SOL    HW2 2089   2.583   0.606   0.317
  687SOL     OW 2090   2.114   1.564   1.744
  687SOL    HW1 2091   2.084   1.621   1.820
  687SOL    HW2 2092   2.107   1.467   1.770
  688SOL     OW 2093   2.533   0.464   1.269
  688SOL    HW1 2094   2.499   0.375   1.239
  688SOL    HW2 2095   2.559   0.518   1.189
  689SOL     OW 2096   2.792   1.678   1.465
  689SOL    HW1 2097   2.768   1.660   1.370
  689SOL    HW2 2098   2.822   1.772   1.475
  690SOL     OW 2099   2.335   0.500   0.191
  690SOL    HW1 2100   2.396   0.580   0.195
  690SOL    HW2 2101   2.240   0.531   0.198
  691SOL     OW 2102   2.021   1.137   1.466
  691SOL    HW1 2103   2.043   1.076   1.542
  691SOL    HW2 2104   2.031   1.088   1.380
  692SOL     OW 2105   3.114   1.731   1.128
  692SOL    HW1 2106   3.198   1.736   1.074
  692SOL    HW2 2107   3.091   1.635   1.146
  693SOL     OW 2108   1.945   1.258   1.022
  693SOL    HW1 2109   1.940   1.257   1.122
  693SOL    HW2 2110   1.862   1.217   0.984
  694SOL     OW 2111   2.550   1.662   1.716
  694SOL    HW1 2112   2.494   1.743   1.725
  694SOL    HW2 2113   2.602   1.666   1.630
  695SOL     OW 2114   2.765   0.086   0.133
  695SOL    HW1 2115   2.816   0.087   0.047
  695SOL    HW2 2116   2.821   0.044   0.204
  696SOL     OW 2117   1.992   1.794   1.851
  696SOL    HW1 2118   1.951   1.720   1.904
  696SOL    HW2 2119   2.056   1.845   1.909
  697SOL     OW 2120   2.692   1.273   1.422
  697SOL    HW1 2121   2.687   1.306   1.517
  697SOL    HW2 2122   2.606   1.292   1.376
  698SOL     OW 2123   2.534   1.616   0.154
  698SOL    HW1 2124   2.543   1.626   0.055
  698SOL    HW2 2125   2.494   1.527   0.175
  699SOL     OW 2126   2.125   0.326   0.720
  699SOL    HW1 2127   2.046   0.377   0.686
  699SOL    HW2 2128   2.116   0.311   0.818
  700SOL     OW 2129   2.684   1.002   1.372
  700SOL    HW1 2130   2.724   1.001   1.280
  700SOL    HW2 2131   2.694   1.094   1.412
  701SOL     OW 2132   2.778   0.910   0.291
  701SOL    HW1 2133   2.841   0.948   0.223
  701SOL    HW2 2134   2.818   0.827   0.330
  702SOL     OW 2135   2.234   1.288   1.490
  702SOL    HW1 2136   2.221   1.381   1.456
  702SOL    HW2 2137   2.150   1.236   1.477
  703SOL     OW 2138   2.901   1.098   0.696
  703SOL    HW1 2139   2.831   1.051   0.750
  703SOL    HW2 2140   2.960   1.030   0.653
  704SOL     OW 2141   2.876   0.236   0.971
  704SOL    HW1 2142   2.868   0.200   0.878
  704SOL    HW2 2143   2.874   0.160   1.036
  705SOL     OW 2144   2.452   1.487   0.491
  705SOL    HW1 2145   2.494   1.429   0.421
  705SOL    HW2 2146   2.408   1.566   0.447
  706SOL     OW 2147   2.117   1.348   0.290
  706SOL    HW1 2148   2.021   1.349   0.263
  706SOL    HW2 2149   2.129   1.401   0.374
  707SOL     OW 2150   2.534   0.203   1.489
  707SOL    HW1 2151   2.624   0.187   1.449
  707SOL    HW2 2152   2.542   0.208   1.588
  708SOL     OW 2153   1.934   0.166   0.318
  708SOL    HW1 2154   1.917   0.249   0.264
  708SOL    HW2 2155   2.024   0.129   0.296
  709SOL     OW 2156   2.475   0.842   1.431
  709SOL    HW1 2157   2.531   0.923   1.414
  709SOL    HW2 2158   2.534   0.762   1.434
  710SOL     OW 2159   2.578   0.565   1.708
  710SOL    HW1 2160   2.597   0.630   1.782
  710SOL    HW2 2161   2.638   0.485   1.717
  711SOL     OW 2162   2.252   1.741   1.560
  711SOL    HW1 2163   2.161   1.782   1.558
  711SOL    HW2 2164   2.245   1.647   1.592
  712SOL     OW 2165   2.456   0.745   0.652
  712SOL    HW1 2166   2.506   0.830   0.633
  712SOL    HW2 2167   2.368   0.747   0.604
  713SOL     OW 2168   2.721   1.374   0.016
  713SOL    HW1 2169   2.675   1.389   0.104
  713SOL    HW2 2170   2.765   1.459  -0.014
  714SOL     OW 2171   2.523   1.790   0.953
  714SOL    HW1 2172   2.477   1.878   0.940
  714SOL    HW2 2173   2.622   1.802   0.946
  715SOL     OW 2174   2.721   0.956   0.861
  715SOL    HW1 2175   2.775   0.887   0.909
  715SOL    HW2 2176   2.689   1.025   0.927
  716SOL     OW 2177   2.945   0.984   0.087
  716SOL    HW1 2178   2.922   1.037   0.005
  716SOL    HW2 2179   3.026   0.928   0.068
  717SOL     OW 2180   2.083   1.314   1.844
  717SOL    HW1 2181   2.018   1.241   1.823
  717SOL    HW2 2182   2.087   1.328   1.942
  718SOL     OW 2183   1.941   1.240   0.653
  718SOL    HW1 2184   1.940   1.193   0.741
  718SOL    HW2 2185   2.023   1.212   0.602
  719SOL     OW 2186   2.534   1.391   1.624
  719SOL    HW1 2187   2.456   1.341   1.662
  719SOL    HW2 2188   2.531   1.486   1.655
  720SOL     OW 2189   2.290   0.424   0.520
  720SOL    HW1 2190   2.320   0.352   0.458
  720SOL    HW2 2191   2.251   0.384   0.603
  721SOL     OW 2192   2.179   0.547   1.280
  721SOL    HW1 2193   2.217   0.488   1.352
  721SOL    HW2 2194   2.219   0.521   1.192
  722SOL     OW 2195   2.674   1.586   0.687
  722SOL    HW1 2196   2.706   1.596   0.593
  722SOL    HW2 2197   2.595   1.524   0.689
  723SOL     OW 2198   2.863   0.034   1.154
  723SOL    HW1 2199   2.800  -0.038   1.123
  723SOL    HW2 2200   2.956  -0.002   1.154
  724SOL     OW 2201   2.632   1.330   0.301
  724SOL    HW1 2202   2.586   1.243   0.318
  724SOL    HW2 2203   2.723   1.327   0.342
  725SOL     OW 2204   2.480   1.567   1.284
  725SOL    HW1 2205   2.475   1.649   1.341
  725SOL    HW2 2206   2.569   1.564   1.239
  726SOL     OW 2207   2.737   1.646   0.337
  726SOL    HW1 2208   2.660   1.611   0.283
  726SOL    HW2 2209   2.705   1.717   0.399
  727SOL     OW 2210   2.092   0.628   1.975
  727SOL    HW1 2211   1.999   0.626   2.012
  727SOL    HW2 2212   2.093   0.589   1.883
  728SOL     OW 2213   2.087   0.275   2.858
  728SOL    HW1 2214   2.122   0.258   2.950
  728SOL    HW2 2215   1.999   0.230   2.846
  729SOL     OW 2216   1.881   0.368   2.509
  729SOL    HW1 2217   1.799   0.411   2.548
  729SOL    HW2 2218   1.853   0.295   2.446
  730SOL     OW 2219   2.431   1.275   3.027
  730SOL    HW1 2220   2.338   1.268   2.990
  730SOL    HW2 2221   2.442   1.364   3.071
  731SOL     OW 2222   2.997   0.703   2.579
  731SOL    HW1 2223   3.054   0.781   2.554
  731SOL    HW2 2224   2.937   0.729   2.655
  732SOL     OW 2225   2.630   1.144   2.885
  732SOL    HW1 2226   2.552   1.161   2.945
  732SOL    HW2 2227   2.664   1.231   2.849
  733SOL     OW 2228   2.547   1.012   2.527
  733SOL    HW1 2229   2.616   0.996   2.597
  733SOL    HW2 2230   2.474   1.069   2.565
  734SOL     OW 2231   2.197   1.435   2.923
  734SOL    HW1 2232   2.119   1.404   2.870
  734SOL    HW2 2233   2.255   1.493   2.866
  735SOL     OW 2234   3.322   1.505   3.201
  735SOL    HW1 2235   3.346   1.599   3.227
  735SOL    HW2 2236   3.306   1.451   3.283
  736SOL     OW 2237   2.093   1.713   2.345
  736SOL    HW1 2238   2.127   1.790   2.399
  736SOL    HW2 2239   2.137   1.713   2.255
  737SOL     OW 2240   2.092   1.434   2.400
  737SOL    HW1 2241   2.066   1.530   2.400
  737SOL    HW2 2242   2.021   1.380   2.445
  738SOL     OW 2243   2.102   1.091   2.748
  738SOL    HW1 2244   2.116   1.007   2.800
  738SOL    HW2 2245   2.047   1.155   2.803
  739SOL     OW 2246   2.468   0.964   1.985
  739SOL    HW1 2247   2.475   1.048   1.931
  739SOL    HW2 2248   2.514   0.977   2.073
  740SOL     OW 2249   1.984   0.643   2.425
  740SOL    HW1 2250   1.939   0.555   2.442
  740SOL    HW2 2251   1.983   0.697   2.509
  741SOL     OW 2252   1.889   1.596   1.979
  741SOL    HW1 2253   1.870   1.500   2.000
  741SOL    HW2 2254   1.856   1.654   2.054
  742SOL     OW 2255   2.475   1.365   2.588
  742SOL    HW1 2256   2.426   1.278   2.597
  742SOL    HW2 2257   2.452   1.408   2.501
  743SOL     OW 2258   2.671   0.004   2.364
  743SOL    HW1 2259   2.711   0.095   2.355
  743SOL    HW2 2260   2.571   0.012   2.370
  744SOL     OW 2261   2.059   0.976   3.126
  744SOL    HW1 2262   2.148   0.931   3.112
  744SOL    HW2 2263   1.986   0.911   3.107
  745SOL     OW 2264   2.460   0.729   2.132
  745SOL    HW1 2265   2.484   0.798   2.064
  745SOL    HW2 2266   2.382   0.762   2.186
  746SOL     OW 2267   2.903   0.701   2.291
  746SOL    HW1 2268   2.929   0.697   2.387
  746SOL    HW2 2269   2.818   0.650   2.277
  747SOL     OW 2270   1.938   0.811   2.651
  747SOL    HW1 2271   2.037   0.799   2.660
  747SOL    HW2 2272   1.914   0.906   2.672
  748SOL     OW 2273   2.727   0.348   2.057
  748SOL    HW1 2274   2.786   0.411   2.008
  748SOL    HW2 2275   2.746   0.254   2.028
  749SOL     OW 2276   2.412   0.196   2.747
  749SOL    HW1 2277   2.407   0.191   2.847
  749SOL    HW2 2278   2.414   0.292   2.718
  750SOL     OW 2279   2.870   1.456   2.339
  750SOL    HW1 2280   2.824   1.528   2.287
  750SOL    HW2 2281   2.866   1.476   2.437
  751SOL     OW 2282   2.213   1.801   2.715
  751SOL    HW1 2283   2.263   1.715   2.721
  751SOL    HW2 2284   2.278   1.878   2.712
  752SOL     OW 2285   2.183   0.943   2.104
  752SOL    HW1 2286   2.265   0.982   2.062
  752SOL    HW2 2287   2.156   0.861   2.055
  753SOL     OW 2288   2.973   1.776   2.099
  753SOL    HW1 2289   2.913   1.714   2.149
  753SOL    HW2 2290   3.004   1.732   2.014
  754SOL     OW 2291   2.326   1.743   2.185
  754SOL    HW1 2292   2.359   1.782   2.271
  754SOL    HW2 2293   2.402   1.736   2.120
  755SOL     OW 2294   2.111   1.785   3.103
  755SOL    HW1 2295   2.168   1.720   3.153
  755SOL    HW2 2296   2.095   1.752   3.010
  756SOL     OW 2297   2.802   1.698   2.766
  756SOL    HW1 2298   2.882   1.641   2.787
  756SOL    HW2 2299   2.753   1.658   2.689
  757SOL     OW 2300   2.244   0.700   2.342
  757SOL    HW1 2301   2.289   0.610   2.339
  757SOL    HW2 2302   2.150   0.689   2.375
  758SOL     OW 2303   2.476   0.122   1.979
  758SOL    HW1 2304   2.574   0.100   1.986
  758SOL    HW2 2305   2.445   0.105   1.886
  759SOL     OW 2306   2.665   1.402   2.786
  759SOL    HW1 2307   2.755   1.416   2.744
  759SOL    HW2 2308   2.594   1.404   2.715
  760SOL     OW 2309   2.784   0.503   2.761
  760SOL    HW1 2310   2.759   0.494   2.665
  760SOL    HW2 2311   2.832   0.421   2.792
  761SOL     OW 2312   2.401   0.064   2.374
  761SOL    HW1 2313   2.320   0.065   2.432
  761SOL    HW2 2314   2.404   0.147   2.319
  762SOL     OW 2315   2.159   0.035   2.033
  762SOL    HW1 2316   2.208   0.119   2.012
  762SOL    HW2 2317   2.221  -0.030   2.078
  763SOL     OW 2318   2.797   0.236   2.342
  763SOL    HW1 2319   2.749   0.277   2.264
  763SOL    HW2 2320   2.896   0.234   2.323
  764SOL     OW 2321   3.089   1.570   2.655
  764SOL    HW1 2322   3.110   1.644   2.590
  764SOL    HW2 2323   3.157   1.570   2.728
  765SOL     OW 2324   2.321   1.152   2.603
  765SOL    HW1 2325   2.250   1.125   2.668
  765SOL    HW2 2326   2.295   1.124   2.510
  766SOL     OW 2327   3.133   1.797   2.453
  766SOL    HW1 2328   3.177   1.861   2.389
  766SOL    HW2 2329   3.083   1.849   2.523
  767SOL     OW 2330   2.894   0.549   1.878
  767SOL    HW1 2331   2.853   0.631   1.839
  767SOL    HW2 2332   2.958   0.575   1.951
  768SOL     OW 2333   2.728   0.454   2.504
  768SOL    HW1 2334   2.696   0.526   2.442
  768SOL    HW2 2335   2.752   0.373   2.451
  769SOL     OW 2336   2.879   0.039   2.615
  769SOL    HW1 2337   2.807   0.044   2.546
  769SOL    HW2 2338   2.855  -0.030   2.684
  770SOL     OW 2339   2.350   1.385   2.036
  770SOL    HW1 2340   2.263   1.370   2.083
  770SOL    HW2 2341   2.333   1.411   1.941
  771SOL     OW 2342   2.389   0.256   2.190
  771SOL    HW1 2343   2.416   0.197   2.115
  771SOL    HW2 2344   2.389   0.351   2.159
  772SOL     OW 2345   2.973   1.195   2.962
  772SOL    HW1 2346   2.933   1.239   3.043
  772SOL    HW2 2347   2.932   1.232   2.879
  773SOL     OW 2348   2.567   1.050   2.230
  773SOL    HW1 2349   2.553   1.057   2.329
  773SOL    HW2 2350   2.651   0.999   2.212
  774SOL     OW 2351   2.272   0.813   3.113
  774SOL    HW1 2352   2.358   0.825   3.163
  774SOL    HW2 2353   2.230   0.726   3.140
  775SOL     OW 2354   2.229   1.100   2.363
  775SOL    HW1 2355   2.222   1.183   2.307
  775SOL    HW2 2356   2.233   1.020   2.303
  776SOL     OW 2357   2.428   0.537   2.727
  776SOL    HW1 2358   2.440   0.603   2.653
  776SOL    HW2 2359   2.474   0.571   2.810
  777SOL     OW 2360   3.114   1.348   2.250
  777SOL    HW1 2361   3.164   1.425   2.290
  777SOL    HW2 2362   3.019   1.350   2.282
  778SOL     OW 2363   3.134   1.445   3.004
  778SOL    HW1 2364   3.181   1.458   3.091
  778SOL    HW2 2365   3.068   1.371   3.013
  779SOL     OW 2366   2.435   0.870   2.891
  779SOL    HW1 2367   2.479   0.959   2.882
  779SOL    HW2 2368   2.372   0.870   2.968
  780SOL     OW 2369   3.222   0.862   2.907
  780SOL    HW1 2370   3.147   0.862   2.841
  780SOL    HW2 2371   3.259   0.770   2.916
  781SOL     OW 2372   3.071   0.525   2.137
  781SOL    HW1 2373   3.084   0.441   2.191
  781SOL    HW2 2374   3.042   0.599   2.197
  782SOL     OW 2375   2.169   0.213   3.093
  782SOL    HW1 2376   2.146   0.250   3.183
  782SOL    HW2 2377   2.139   0.118   3.087
  783SOL     OW 2378   2.594   0.634   2.926
  783SOL    HW1 2379   2.653   0.608   2.850
  783SOL    HW2 2380   2.566   0.730   2.915
  784SOL     OW 2381   2.169   0.063   2.480
  784SOL    HW1 2382   2.158   0.157   2.513
  784SOL    HW2 2383   2.164   0.000   2.557
  785SOL     OW 2384   2.885   0.766   2.828
  785SOL    HW1 2385   2.900   0.787   2.924
  785SOL    HW2 2386   2.855   0.671   2.819
  786SOL     OW 2387   3.402   0.274   1.987
  786SOL    HW1 2388   3.341   0.199   2.010
  786SOL    HW2 2389   3.424   0.326   2.070
  787SOL     OW 2390   2.930   1.333   2.711
  787SOL    HW1 2391   2.937   1.249   2.656
  787SOL    HW2 2392   2.992   1.402   2.675
  788SOL     OW 2393   2.181   0.810   2.811
  788SOL    HW1 2394   2.274   0.846   2.816
  788SOL    HW2 2395   2.175   0.725   2.863
  789SOL     OW 2396   2.201   0.509   2.868
  789SOL    HW1 2397   2.149   0.426   2.851
  789SOL    HW2 2398   2.278   0.514   2.804
  790SOL     OW 2399   3.022   0.207   3.339
  790SOL    HW1 2400   3.022   0.271   3.416
  790SOL    HW2 2401   3.050   0.255   3.256
  791SOL     OW 2402   1.870   1.326   2.062
  791SOL    HW1 2403   1.777   1.347   2.031
  791SOL    HW2 2404   1.880   1.227   2.075
  792SOL     OW 2405   1.950   1.801   2.789
  792SOL    HW1 2406   1.908   1.715   2.762
  792SOL    HW2 2407   2.044   1.804   2.755
  793SOL     OW 2408   2.366   1.568   2.772
  793SOL    HW1 2409   2.432   1.642   2.781
  793SOL    HW2 2410   2.410   1.489   2.730
  794SOL     OW 2411   2.864   0.796   3.100
  794SOL    HW1 2412   2.905   0.764   3.186
  794SOL    HW2 2413   2.768   0.769   3.097
  795SOL     OW 2414   1.902   0.544   2.976
  795SOL    HW1 2415   1.987   0.511   2.935
  795SOL    HW2 2416   1.915   0.559   3.074
  796SOL     OW 2417   2.677   0.572   2.187
  796SOL    HW1 2418   2.684   0.483   2.141
  796SOL    HW2 2419   2.583   0.606   2.179
  797SOL     OW 2420   2.533   0.464   3.131
  797SOL    HW1 2421   2.499   0.375   3.101
  797SOL    HW2 2422   2.559   0.518   3.051
  798SOL     OW 2423   2.335   0.500   2.053
  798SOL    HW1 2424   2.396   0.580   2.057
  798SOL    HW2 2425   2.240   0.531   2.060
  799SOL     OW 2426   2.021   1.137   3.328
  799SOL    HW1 2427   2.043   1.076   3.404
  799SOL    HW2 2428   2.031   1.088   3.242
  800SOL     OW 2429   3.114   1.731   2.990
  800SOL    HW1 2430   3.198   1.736   2.936
  800SOL    HW2 2431   3.091   1.635   3.008
  801SOL     OW 2432   1.945   1.258   2.884
  801SOL    HW1 2433   1.940   1.257   2.984
  801SOL    HW2 2434   1.862   1.217   2.846
  802SOL     OW 2435   2.534   1.616   2.016
  802SOL    HW1 2436   2.543   1.626   1.917
  802SOL    HW2 2437   2.494   1.527   2.037
  803SOL     OW 2438   2.125   0.326   2.582
  803SOL    HW1 2439   2.046   0.377   2.548
  803SOL    HW2 2440   2.116   0.311   2.680
  804SOL     OW 2441   2.684   1.002   3.234
  804SOL    HW1 2442   2.724   1.001   3.142
  804SOL    HW2 2443   2.694   1.094   3.274
  805SOL     OW 2444   2.778   0.910   2.153
  805SOL    HW1 2445   2.841   0.948   2.085
  805SOL    HW2 2446   2.818   0.827   2.192
  806SOL     OW 2447   2.901   1.098   2.558
  806SOL    HW1 2448   2.831   1.051   2.612
  806SOL    HW2 2449   2.960   1.030   2.515
  807SOL     OW 2450   2.876   0.236   2.833
  807SOL    HW1 2451   2.868   0.200   2.740
  807SOL    HW2 2452   2.874   0.160   2.898
  808SOL     OW 2453   2.452   1.487   2.353
  808SOL    HW1 2454   2.494   1.429   2.283
  808SOL    HW2 2455   2.408   1.566   2.309
  809SOL     OW 2456   2.117   1.348   2.152
  809SOL    HW1 2457   2.021   1.349   2.125
  809SOL    HW2 2458   2.129   1.401   2.236
  810SOL     OW 2459   1.937   0.345   1.895
  810SOL    HW1 2460   1.845   0.317   1.866
  810SOL    HW2 2461   1.968   0.422   1.839
  811SOL     OW 2462   1.934   0.166   2.180
  811SOL    HW1 2463   1.917   0.249   2.126
  811SOL    HW2 2464   2.024   0.129   2.158
  812SOL     OW 2465   2.456   0.745   2.514
  812SOL    HW1 2466   2.506   0.830   2.495
  812SOL    HW2 2467   2.368   0.747   2.466
  813SOL     OW 2468   2.721   1.374   1.878
  813SOL    HW1 2469   2.675   1.389   1.966
  813SOL    HW2 2470   2.765   1.459   1.848
  814SOL     OW 2471   2.523   1.790   2.815
  814SOL    HW1 2472   2.477   1.878   2.802
  814SOL    HW2 2473   2.622   1.802   2.808
  815SOL     OW 2474   2.721   0.956   2.723
  815SOL    HW1 2475   2.775   0.887   2.771
  815SOL    HW2 2476   2.689   1.025   2.789
  816SOL     OW 2477   2.945   0.984   1.949
  816SOL    HW1 2478   2.922   1.037   1.867
  816SOL    HW2 2479   3.026   0.928   1.930
  817SOL     OW 2480   1.941   1.240   2.515
  817SOL    HW1 2481   1.940   1.193   2.603
  817SOL    HW2 2482   2.023   1.212   2.464
  818SOL     OW 2483   2.290   0.424   2.382
  818SOL    HW1 2484   2.320   0.352   2.320
  818SOL    HW2 2485   2.251   0.384   2.465
  819SOL     OW 2486   2.674   1.586   2.549
  819SOL    HW1 2487   2.706   1.596   2.455
  819SOL    HW2 2488   2.595   1.524   2.551
  820SOL     OW 2489   2.863   0.034   3.016
  820SOL    HW1 2490   2.800  -0.038   2.985
  820SOL    HW2 2491   2.956  -0.002   3.016
  821SOL     OW 2492   2.632   1.330   2.163
  821SOL    HW1 2493   2.586   1.243   2.180
  821SOL    HW2 2494   2.723   1.327   2.204
  822SOL     OW 2495   3.214   0.052   2.030
  822SOL    HW1 2496   3.249   0.011   1.946
  822SOL    HW2 2497   3.124   0.014   2.050
  823SOL     OW 2498   1.901   1.077   2.162
  823SOL    HW1 2499   2.000   1.066   2.153
  823SOL    HW2 2500   1.861   0.991   2.194
  824SOL     OW 2501   2.737   1.646   2.199
  824SOL    HW1 2502   2.660   1.611   2.145
  824SOL    HW2 2503   2.705   1.717   2.261
  825SOL     OW 2504   2.092   2.490   0.113
  825SOL    HW1 2505   1.999   2.488   0.150
  825SOL    HW2 2506   2.093   2.451   0.021
  826SOL     OW 2507   2.087   2.137   0.996
  826SOL    HW1 2508   2.122   2.120   1.088
  826SOL    HW2 2509   1.999   2.092   0.984
  827SOL     OW 2510   1.881   2.230   0.647
  827SOL    HW1 2511   1.799   2.273   0.686
  827SOL    HW2 2512   1.853   2.157   0.584
  828SOL     OW 2513   2.997   2.565   0.717
  828SOL    HW1 2514   3.054   2.643   0.692
  828SOL    HW2 2515   2.937   2.591   0.793
  829SOL     OW 2516   2.630   3.006   1.023
  829SOL    HW1 2517   2.552   3.023   1.083
  829SOL    HW2 2518   2.664   3.093   0.987
  830SOL     OW 2519   2.712   2.660   1.823
  830SOL    HW1 2520   2.708   2.736   1.888
  830SOL    HW2 2521   2.734   2.696   1.732
  831SOL     OW 2522   2.547   2.874   0.665
  831SOL    HW1 2523   2.616   2.858   0.735
  831SOL    HW2 2524   2.474   2.931   0.703
  832SOL     OW 2525   2.300   2.254   1.499
  832SOL    HW1 2526   2.382   2.198   1.508
  832SOL    HW2 2527   2.219   2.196   1.503
  833SOL     OW 2528   2.102   2.953   0.886
  833SOL    HW1 2529   2.116   2.869   0.938
  833SOL    HW2 2530   2.047   3.017   0.941
  834SOL     OW 2531   2.468   2.826   0.123
  834SOL    HW1 2532   2.475   2.910   0.069
  834SOL    HW2 2533   2.514   2.839   0.211
  835SOL     OW 2534   1.984   2.505   0.563
  835SOL    HW1 2535   1.939   2.417   0.580
  835SOL    HW2 2536   1.983   2.559   0.647
  836SOL     OW 2537   1.975   2.599   1.597
  836SOL    HW1 2538   2.063   2.586   1.642
  836SOL    HW2 2539   1.962   2.696   1.575
  837SOL     OW 2540   2.475   3.227   0.726
  837SOL    HW1 2541   2.426   3.140   0.735
  837SOL    HW2 2542   2.452   3.270   0.639
  838SOL     OW 2543   2.671   1.866   0.502
  838SOL    HW1 2544   2.711   1.957   0.493
  838SOL    HW2 2545   2.571   1.874   0.508
  839SOL     OW 2546   2.059   2.838   1.264
  839SOL    HW1 2547   2.148   2.793   1.250
  839SOL    HW2 2548   1.986   2.773   1.245
  840SOL     OW 2549   2.179   2.113   1.801
  840SOL    HW1 2550   2.250   2.184   1.807
  840SOL    HW2 2551   2.091   2.152   1.829
  841SOL     OW 2552   2.460   2.591   0.270
  841SOL    HW1 2553   2.484   2.660   0.202
  841SOL    HW2 2554   2.382   2.624   0.324
  842SOL     OW 2555   2.669   2.467   1.465
  842SOL    HW1 2556   2.622   2.464   1.554
  842SOL    HW2 2557   2.618   2.412   1.399
  843SOL     OW 2558   2.835   2.752   1.572
  843SOL    HW1 2559   2.881   2.668   1.543
  843SOL    HW2 2560   2.779   2.786   1.497
  844SOL     OW 2561   2.853   2.272   1.242
  844SOL    HW1 2562   2.776   2.306   1.296
  844SOL    HW2 2563   2.819   2.221   1.163
  845SOL     OW 2564   2.903   2.563   0.429
  845SOL    HW1 2565   2.929   2.559   0.525
  845SOL    HW2 2566   2.818   2.512   0.415
  846SOL     OW 2567   1.938   2.673   0.789
  846SOL    HW1 2568   2.037   2.661   0.798
  846SOL    HW2 2569   1.914   2.768   0.810
  847SOL     OW 2570   2.727   2.210   0.195
  847SOL    HW1 2571   2.786   2.273   0.146
  847SOL    HW2 2572   2.746   2.116   0.166
  848SOL     OW 2573   2.412   2.058   0.885
  848SOL    HW1 2574   2.407   2.053   0.985
  848SOL    HW2 2575   2.414   2.154   0.856
  849SOL     OW 2576   2.183   2.805   0.242
  849SOL    HW1 2577   2.265   2.844   0.200
  849SOL    HW2 2578   2.156   2.723   0.193
  850SOL     OW 2579   2.064   2.147   1.498
  850SOL    HW1 2580   1.984   2.207   1.485
  850SOL    HW2 2581   2.054   2.098   1.584
  851SOL     OW 2582   2.244   2.562   0.480
  851SOL    HW1 2583   2.289   2.472   0.477
  851SOL    HW2 2584   2.150   2.551   0.513
  852SOL     OW 2585   2.476   1.984   0.117
  852SOL    HW1 2586   2.574   1.962   0.124
  852SOL    HW2 2587   2.445   1.967   0.024
  853SOL     OW 2588   2.643   2.126   1.749
  853SOL    HW1 2589   2.710   2.065   1.792
  853SOL    HW2 2590   2.570   2.145   1.814
  854SOL     OW 2591   2.784   2.365   0.899
  854SOL    HW1 2592   2.759   2.356   0.803
  854SOL    HW2 2593   2.832   2.283   0.930
  855SOL     OW 2594   2.401   1.926   0.512
  855SOL    HW1 2595   2.320   1.927   0.570
  855SOL    HW2 2596   2.404   2.009   0.457
  856SOL     OW 2597   2.159   1.897   0.171
  856SOL    HW1 2598   2.208   1.981   0.150
  856SOL    HW2 2599   2.221   1.832   0.216
  857SOL     OW 2600   2.797   2.098   0.480
  857SOL    HW1 2601   2.749   2.139   0.402
  857SOL    HW2 2602   2.896   2.096   0.461
  858SOL     OW 2603   2.938   2.545   1.464
  858SOL    HW1 2604   2.858   2.484   1.467
  858SOL    HW2 2605   3.019   2.492   1.440
  859SOL     OW 2606   2.321   3.014   0.741
  859SOL    HW1 2607   2.250   2.987   0.806
  859SOL    HW2 2608   2.295   2.986   0.648
  860SOL     OW 2609   2.894   2.411   0.016
  860SOL    HW1 2610   2.853   2.493  -0.023
  860SOL    HW2 2611   2.958   2.437   0.089
  861SOL     OW 2612   1.940   2.418   1.386
  861SOL    HW1 2613   2.032   2.417   1.345
  861SOL    HW2 2614   1.934   2.492   1.453
  862SOL     OW 2615   2.423   2.084   1.147
  862SOL    HW1 2616   2.461   2.000   1.184
  862SOL    HW2 2617   2.335   2.103   1.191
  863SOL     OW 2618   2.728   2.316   0.642
  863SOL    HW1 2619   2.696   2.388   0.580
  863SOL    HW2 2620   2.752   2.235   0.589
  864SOL     OW 2621   2.879   1.901   0.753
  864SOL    HW1 2622   2.807   1.906   0.684
  864SOL    HW2 2623   2.855   1.832   0.822
  865SOL     OW 2624   2.389   2.118   0.328
  865SOL    HW1 2625   2.416   2.059   0.253
  865SOL    HW2 2626   2.389   2.213   0.297
  866SOL     OW 2627   2.777   1.951   1.402
  866SOL    HW1 2628   2.802   1.931   1.307
  866SOL    HW2 2629   2.849   2.007   1.444
  867SOL     OW 2630   2.842   2.978   1.719
  867SOL    HW1 2631   2.743   2.984   1.729
  867SOL    HW2 2632   2.865   2.898   1.663
  868SOL     OW 2633   2.567   2.912   0.368
  868SOL    HW1 2634   2.553   2.919   0.467
  868SOL    HW2 2635   2.651   2.861   0.350
  869SOL     OW 2636   2.272   2.675   1.251
  869SOL    HW1 2637   2.358   2.687   1.301
  869SOL    HW2 2638   2.230   2.588   1.278
  870SOL     OW 2639   2.229   2.962   0.501
  870SOL    HW1 2640   2.222   3.045   0.445
  870SOL    HW2 2641   2.233   2.882   0.441
  871SOL     OW 2642   2.428   2.399   0.865
  871SOL    HW1 2643   2.440   2.465   0.791
  871SOL    HW2 2644   2.474   2.433   0.948
  872SOL     OW 2645   2.264   2.613   1.598
  872SOL    HW1 2646   2.332   2.668   1.551
  872SOL    HW2 2647   2.304   2.525   1.625
  873SOL     OW 2648   2.875   1.967   1.770
  873SOL    HW1 2649   2.881   2.052   1.718
  873SOL    HW2 2650   2.907   1.891   1.713
  874SOL     OW 2651   2.366   1.912   1.740
  874SOL    HW1 2652   2.324   1.855   1.670
  874SOL    HW2 2653   2.300   1.981   1.772
  875SOL     OW 2654   2.435   2.732   1.029
  875SOL    HW1 2655   2.479   2.821   1.020
  875SOL    HW2 2656   2.372   2.732   1.106
  876SOL     OW 2657   3.222   2.724   1.045
  876SOL    HW1 2658   3.147   2.724   0.979
  876SOL    HW2 2659   3.259   2.632   1.054
  877SOL     OW 2660   3.071   2.387   0.275
  877SOL    HW1 2661   3.084   2.303   0.329
  877SOL    HW2 2662   3.042   2.461   0.335
  878SOL     OW 2663   2.169   2.075   1.231
  878SOL    HW1 2664   2.146   2.112   1.321
  878SOL    HW2 2665   2.139   1.980   1.225
  879SOL     OW 2666   2.594   2.496   1.064
  879SOL    HW1 2667   2.653   2.470   0.988
  879SOL    HW2 2668   2.566   2.592   1.053
  880SOL     OW 2669   2.169   1.925   0.618
  880SOL    HW1 2670   2.158   2.019   0.651
  880SOL    HW2 2671   2.164   1.862   0.695
  881SOL     OW 2672   2.885   2.628   0.966
  881SOL    HW1 2673   2.900   2.649   1.062
  881SOL    HW2 2674   2.855   2.533   0.957
  882SOL     OW 2675   2.212   2.760   1.804
  882SOL    HW1 2676   2.288   2.804   1.852
  882SOL    HW2 2677   2.247   2.713   1.722
  883SOL     OW 2678   2.181   2.672   0.949
  883SOL    HW1 2679   2.274   2.708   0.954
  883SOL    HW2 2680   2.175   2.587   1.001
  884SOL     OW 2681   2.201   2.371   1.006
  884SOL    HW1 2682   2.149   2.288   0.989
  884SOL    HW2 2683   2.278   2.376   0.942
  885SOL     OW 2684   3.000   2.242   1.678
  885SOL    HW1 2685   2.955   2.305   1.742
  885SOL    HW2 2686   3.093   2.273   1.661
  886SOL     OW 2687   3.022   2.069   1.477
  886SOL    HW1 2688   3.022   2.133   1.554
  886SOL    HW2 2689   3.050   2.117   1.394
  887SOL     OW 2690   2.864   2.658   1.238
  887SOL    HW1 2691   2.905   2.626   1.324
  887SOL    HW2 2692   2.768   2.631   1.235
  888SOL     OW 2693   1.902   2.406   1.114
  888SOL    HW1 2694   1.987   2.373   1.073
  888SOL    HW2 2695   1.915   2.421   1.212
  889SOL     OW 2696   2.051   2.382   1.722
  889SOL    HW1 2697   2.110   2.342   1.652
  889SOL    HW2 2698   1.993   2.453   1.681
  890SOL     OW 2699   2.677   2.434   0.325
  890SOL    HW1 2700   2.684   2.345   0.279
  890SOL    HW2 2701   2.583   2.468   0.317
  891SOL     OW 2702   2.533   2.326   1.269
  891SOL    HW1 2703   2.499   2.237   1.239
  891SOL    HW2 2704   2.559   2.380   1.189
  892SOL     OW 2705   2.335   2.362   0.191
  892SOL    HW1 2706   2.396   2.442   0.195
  892SOL    HW2 2707   2.240   2.393   0.198
  893SOL     OW 2708   2.021   2.999   1.466
  893SOL    HW1 2709   2.043   2.938   1.542
  893SOL    HW2 2710   2.031   2.950   1.380
  894SOL     OW 2711   2.765   1.948   0.133
  894SOL    HW1 2712   2.816   1.949   0.047
  894SOL    HW2 2713   2.821   1.906   0.204
  895SOL     OW 2714   2.125   2.188   0.720
  895SOL    HW1 2715   2.046   2.239   0.686
  895SOL    HW2 2716   2.116   2.173   0.818
  896SOL     OW 2717   2.684   2.864   1.372
  896SOL    HW1 2718   2.724   2.863   1.280
  896SOL    HW2 2719   2.694   2.956   1.412
  897SOL     OW 2720   2.778   2.772   0.291
  897SOL    HW1 2721   2.841   2.810   0.223
  897SOL    HW2 2722   2.818   2.689   0.330
  898SOL     OW 2723   2.234   3.150   1.490
  898SOL    HW1 2724   2.221   3.243   1.456
  898SOL    HW2 2725   2.150   3.098   1.477
  899SOL     OW 2726   2.901   2.960   0.696
  899SOL    HW1 2727   2.831   2.913   0.750
  899SOL    HW2 2728   2.960   2.892   0.653
  900SOL     OW 2729   2.876   2.098   0.971
  900SOL    HW1 2730   2.868   2.062   0.878
  900SOL    HW2 2731   2.874   2.022   1.036
  901SOL     OW 2732   1.967   2.875   1.726
  901SOL    HW1 2733   1.890   2.842   1.780
  901SOL    HW2 2734   2.052   2.845   1.768
  902SOL     OW 2735   2.534   2.065   1.489
  902SOL    HW1 2736   2.624   2.049   1.449
  902SOL    HW2 2737   2.542   2.070   1.588
  903SOL     OW 2738   1.934   2.028   0.318
  903SOL    HW1 2739   1.917   2.111   0.264
  903SOL    HW2 2740   2.024   1.991   0.296
  904SOL     OW 2741   2.475   2.704   1.431
  904SOL    HW1 2742   2.531   2.785   1.414
  904SOL    HW2 2743   2.534   2.624   1.434
  905SOL     OW 2744   2.578   2.427   1.708
  905SOL    HW1 2745   2.597   2.492   1.782
  905SOL    HW2 2746   2.638   2.347   1.717
  906SOL     OW 2747   2.456   2.607   0.652
  906SOL    HW1 2748   2.506   2.692   0.633
  906SOL    HW2 2749   2.368   2.609   0.604
  907SOL     OW 2750   2.721   2.818   0.861
  907SOL    HW1 2751   2.775   2.749   0.909
  907SOL    HW2 2752   2.689   2.887   0.927
  908SOL     OW 2753   2.945   2.846   0.087
  908SOL    HW1 2754   2.922   2.899   0.005
  908SOL    HW2 2755   3.026   2.790   0.068
  909SOL     OW 2756   1.941   3.102   0.653
  909SOL    HW1 2757   1.940   3.055   0.741
  909SOL    HW2 2758   2.023   3.074   0.602
  910SOL     OW 2759   2.290   2.286   0.520
  910SOL    HW1 2760   2.320   2.214   0.458
  910SOL    HW2 2761   2.251   2.246   0.603
  911SOL     OW 2762   2.179   2.409   1.280
  911SOL    HW1 2763   2.217   2.350   1.352
  911SOL    HW2 2764   2.219   2.383   1.192
  912SOL     OW 2765   2.863   1.896   1.154
  912SOL    HW1 2766   2.800   1.824   1.123
  912SOL    HW2 2767   2.956   1.860   1.154
  913SOL     OW 2768   2.632   3.192   0.301
  913SOL    HW1 2769   2.586   3.105   0.318
  913SOL    HW2 2770   2.723   3.189   0.342
  914SOL     OW 2771   3.214   1.914   0.168
  914SOL    HW1 2772   3.249   1.873   0.084
  914SOL    HW2 2773   3.124   1.876   0.188
  915SOL     OW 2774   2.092   2.490   1.975
  915SOL    HW1 2775   1.999   2.488   2.012
  915SOL    HW2 2776   2.093   2.451   1.883
  916SOL     OW 2777   2.087   2.137   2.858
  916SOL    HW1 2778   2.122   2.120   2.950
  916SOL    HW2 2779   1.999   2.092   2.846
  917SOL     OW 2780   1.881   2.230   2.509
  917SOL    HW1 2781   1.799   2.273   2.548
  917SOL    HW2 2782   1.853   2.157   2.446
  918SOL     OW 2783   2.997   2.565   2.579
  918SOL    HW1 2784   3.054   2.643   2.554
  918SOL    HW2 2785   2.937   2.591   2.655
  919SOL     OW 2786   2.630   3.006   2.885
  919SOL    HW1 2787   2.552   3.023   2.945
  919SOL    HW2 2788   2.664   3.093   2.849
  920SOL     OW 2789   2.547   2.874   2.527
  920SOL    HW1 2790   2.616   2.858   2.597
  920SOL    HW2 2791   2.474   2.931   2.565
  921SOL     OW 2792   2.102   2.953   2.748
  921SOL    HW1 2793   2.116   2.869   2.800
  921SOL    HW2 2794   2.047   3.017   2.803
  922SOL     OW 2795   2.468   2.826   1.985
  922SOL    HW1 2796   2.475   2.910   1.931
  922SOL    HW2 2797   2.514   2.839   2.073
  923SOL     OW 2798   1.984   2.505   2.425
  923SOL    HW1 2799   1.939   2.417   2.442
  923SOL    HW2 2800   1.983   2.559   2.509
  924SOL     OW 2801   2.475   3.227   2.588
  924SOL    HW1 2802   2.426   3.140   2.597
  924SOL    HW2 2803   2.452   3.270   2.501
  925SOL     OW 2804   2.671   1.866   2.364
  925SOL    HW1 2805   2.711   1.957   2.355
  925SOL    HW2 2806   2.571   1.874   2.370
  926SOL     OW 2807   2.059   2.838   3.126
  926SOL    HW1 2808   2.148   2.793   3.112
  926SOL    HW2 2809   1.986   2.773   3.107
  927SOL     OW 2810   2.460   2.591   2.132
  927SOL    HW1 2811   2.484   2.660   2.064
  927SOL    HW2 2812   2.382   2.624   2.186
  928SOL     OW 2813   2.903   2.563   2.291
  928SOL    HW1 2814   2.929   2.559   2.387
  928SOL    HW2 2815   2.818   2.512   2.277
  929SOL     OW 2816   1.938   2.673   2.651
  929SOL    HW1 2817   2.037   2.661   2.660
  929SOL    HW2 2818   1.914   2.768   2.672
  930SOL     OW 2819   2.727   2.210   2.057
  930SOL    HW1 2820   2.786   2.273   2.008
  930SOL    HW2 2821   2.746   2.116   2.028
  931SOL     OW 2822   2.412   2.058   2.747
  931SOL    HW1 2823   2.407   2.053   2.847
  931SOL    HW2 2824   2.414   2.154   2.718
  932SOL     OW 2825   2.183   2.805   2.104
  932SOL    HW1 2826   2.265   2.844   2.062
  932SOL    HW2 2827   2.156   2.723   2.055
  933SOL     OW 2828   2.244   2.562   2.342
  933SOL    HW1 2829   2.289   2.472   2.339
  933SOL    HW2 2830   2.150   2.551   2.375
  934SOL     OW 2831   2.476   1.984   1.979
  934SOL    HW1 2832   2.574   1.962   1.986
  934SOL    HW2 2833   2.445   1.967   1.886
  935SOL     OW 2834   2.784   2.365   2.761
  935SOL    HW1 2835   2.759   2.356   2.665
  935SOL    HW2 2836   2.832   2.283   2.792
  936SOL     OW 2837   2.401   1.926   2.374
  936SOL    HW1 2838   2.320   1.927   2.432
  936SOL    HW2 2839   2.404   2.009   2.319
  937SOL     OW 2840   2.159   1.897   2.033
  937SOL    HW1 2841   2.208   1.981   2.012
  937SOL    HW2 2842   2.221   1.832   2.078
  938SOL     OW 2843   2.797   2.098   2.342
  938SOL    HW1 2844   2.749   2.139   2.264
  938SOL    HW2 2845   2.896   2.096   2.323
  939SOL     OW 2846   2.321   3.014   2.603
  939SOL    HW1 2847   2.250   2.987   2.668
  939SOL    HW2 2848   2.295   2.986   2.510
  940SOL     OW 2849   2.894   2.411   1.878
  940SOL    HW1 2850   2.853   2.493   1.839
  940SOL    HW2 2851   2.958   2.437   1.951
  941SOL     OW 2852   2.728   2.316   2.504
  941SOL    HW1 2853   2.696   2.388   2.442
  941SOL    HW2 2854   2.752   2.235   2.451
  942SOL     OW 2855   2.879   1.901   2.615
  942SOL    HW1 2856   2.807   1.906   2.546
  942SOL    HW2 2857   2.855   1.832   2.684
  943SOL     OW 2858   2.389   2.118   2.190
  943SOL    HW1 2859   2.416   2.059   2.115
  943SOL    HW2 2860   2.389   2.213   2.159
  944SOL     OW 2861   2.567   2.912   2.230
  944SOL    HW1 2862   2.553   2.919   2.329
  944SOL    HW2 2863   2.651   2.861   2.212
  945SOL     OW 2864   2.272   2.675   3.113
  945SOL    HW1 2865   2.358   2.687   3.163
  945SOL    HW2 2866   2.230   2.588   3.140
  946SOL     OW 2867   2.229   2.962   2.363
  946SOL    HW1 2868   2.222   3.045   2.307
  946SOL    HW2 2869   2.233   2.882   2.303
  947SOL     OW 2870   2.428   2.399   2.727
  947SOL    HW1 2871   2.440   2.465   2.653
  947SOL    HW2 2872   2.474   2.433   2.810
  948SOL     OW 2873   2.435   2.732   2.891
  948SOL    HW1 2874   2.479   2.821   2.882
  948SOL    HW2 2875   2.372   2.732   2.968
  949SOL     OW 2876   3.222   2.724   2.907
  949SOL    HW1 2877   3.147   2.724   2.841
  949SOL    HW2 2878   3.259   2.632   2.916
  950SOL     OW 2879   3.071   2.387   2.137
  950SOL    HW1 2880   3.084   2.303   2.191
  950SOL    HW2 2881   3.042   2.461   2.197
  951SOL     OW 2882   2.169   2.075   3.093
  951SOL    HW1 2883   2.146   2.112   3.183
  951SOL    HW2 2884   2.139   1.980   3.087
  952SOL     OW 2885   2.594   2.496   2.926
  952SOL    HW1 2886   2.653   2.470   2.850
  952SOL    HW2 2887   2.566   2.592   2.915
  953SOL     OW 2888   2.169   1.925   2.480
  953SOL    HW1 2889   2.158   2.019   2.513
  953SOL    HW2 2890   2.164   1.862   2.557
  954SOL     OW 2891   2.885   2.628   2.828
  954SOL    HW1 2892   2.900   2.649   2.924
  954SOL    HW2 2893   2.855   2.533   2.819
  955SOL     OW 2894   3.402   2.136   1.987
  955SOL    HW1 2895   3.341   2.061   2.010
  955SOL    HW2 2896   3.424   2.188   2.070
  956SOL     OW 2897   2.181   2.672   2.811
  956SOL    HW1 2898   2.274   2.708   2.816
  956SOL    HW2 2899   2.175   2.587   2.863
  957SOL     OW 2900   2.201   2.371   2.868
  957SOL    HW1 2901   2.149   2.288   2.851
  957SOL    HW2 2902   2.278   2.376   2.804
  958SOL     OW 2903   3.022   2.069   3.339
  958SOL    HW1 2904   3.022   2.133   3.416
  958SOL    HW2 2905   3.050   2.117   3.256
  959SOL     OW 2906   2.864   2.658   3.100
  959SOL    HW1 2907   2.905   2.626   3.186
  959SOL    HW2 2908   2.768   2.631   3.097
  960SOL     OW 2909   1.902   2.406   2.976
  960SOL    HW1 2910   1.987   2.373   2.935
  960SOL    HW2 2911   1.915   2.421   3.074
  961SOL     OW 2912   2.677   2.434   2.187
  961SOL    HW1 2913   2.684   2.345   2.141
  961SOL    HW2 2914   2.583   2.468   2.179
  962SOL     OW 2915   2.533   2.326   3.131
  962SOL    HW1 2916   2.499   2.237   3.101
  962SOL    HW2 2917   2.559   2.380   3.051
  963SOL     OW 2918   2.335   2.362   2.053
  963SOL    HW1 2919   2.396   2.442   2.057
  963SOL    HW2 2920   2.240   2.393   2.060
  964SOL     OW 2921   2.021   2.999   3.328
  964SOL    HW1 2922   2.043   2.938   3.404
  964SOL    HW2 2923   2.031   2.950   3.242
  965SOL     OW 2924   2.125   2.188   2.582
  965SOL    HW1 2925   2.046   2.239   2.548
  965SOL    HW2 2926   2.116   2.173   2.680
  966SOL     OW 2927   2.684   2.864   3.234
  966SOL    HW1 2928   2.724   2.863   3.142
  966SOL    HW2 2929   2.694   2.956   3.274
  967SOL     OW 2930   2.778   2.772   2.153
  967SOL    HW1 2931   2.841   2.810   2.085
  967SOL    HW2 2932   2.818   2.689   2.192
  968SOL     OW 2933   2.901   2.960   2.558
  968SOL    HW1 2934   2.831   2.913   2.612
  968SOL    HW2 2935   2.960   2.892   2.515
  969SOL     OW 2936   2.876   2.098   2.833
  969SOL    HW1 2937   2.868   2.062   2.740
  969SOL    HW2 2938   2.874   2.022   2.898
  970SOL     OW 2939   1.937   2.207   1.895
  970SOL    HW1 2940   1.845   2.179   1.866
  970SOL    HW2 2941   1.968   2.284   1.839
  971SOL     OW 2942   1.934   2.028   2.180
  971SOL    HW1 2943   1.917   2.111   2.126
  971SOL    HW2 2944   2.024   1.991   2.158
  972SOL     OW 2945   2.456   2.607   2.514
  972SOL    HW1 2946   2.506   2.692   2.495
  972SOL    HW2 2947   2.368   2.609   2.466
  973SOL     OW 2948   2.721   2.818   2.723
  973SOL    HW1 2949   2.775   2.749   2.771
  973SOL    HW2 2950   2.689   2.887   2.789
  974SOL     OW 2951   2.945   2.846   1.949
  974SOL    HW1 2952   2.922   2.899   1.867
  974SOL    HW2 2953   3.026   2.790   1.930
  975SOL     OW 2954   1.941   3.102   2.515
  975SOL    HW1 2955   1.940   3.055   2.603
  975SOL    HW2 2956   2.023   3.074   2.464
  976SOL     OW 2957   2.290   2.286   2.382
  976SOL    HW1 2958   2.320   2.214   2.320
  976SOL    HW2 2959   2.251   2.246   2.465
  977SOL     OW 2960   2.863   1.896   3.016
  977SOL    HW1 2961   2.800   1.824   2.985
  977SOL    HW2 2962   2.956   1.860   3.016
  978SOL     OW 2963   2.632   3.192   2.163
  978SOL    HW1 2964   2.586   3.105   2.180
  978SOL    HW2 2965   2.723   3.189   2.204
  979SOL     OW 2966   1.901   2.939   2.162
  979SOL    HW1 2967   2.000   2.928   2.153
  979SOL    HW2 2968   1.861   2.853   2.194
   3.12289   3.12289   3.12289
