; mobley_7768165_GMX.itp created by acpype (v: 2023.10.27) on Thu May 14 13:52:13 2026

[ atomtypes ]
;name   bond_type     mass     charge   ptype   sigma         epsilon       Amb
 c3       c3          0.00000  0.00000   A     3.39771e-01   4.51035e-01 ; 1.91  0.1078
 cl       cl          0.00000  0.00000   A     3.46595e-01   1.10374e+00 ; 1.95  0.2638
 br       br          0.00000  0.00000   A     3.61259e-01   1.64515e+00 ; 2.03  0.3932
 h1       h1          0.00000  0.00000   A     2.42200e-01   8.70272e-02 ; 1.36  0.0208

[ moleculetype ]
;name            nrexcl
 mobley_7768165   3

[ atoms ]
;   nr  type  resi  res  atom  cgnr     charge      mass       ; qtot   bond_type
     1   c3     1   MOL    C1    1     0.034000     12.01000 ; qtot 0.034
     2   c3     1   MOL    C2    2    -0.028000     12.01000 ; qtot 0.006
     3   cl     1   MOL   CL1    3    -0.184400     35.45000 ; qtot -0.178
     4   br     1   MOL   BR1    4    -0.158400     79.90000 ; qtot -0.337
     5   h1     1   MOL    H1    5     0.079700      1.00800 ; qtot -0.257
     6   h1     1   MOL    H2    6     0.079700      1.00800 ; qtot -0.177
     7   h1     1   MOL    H3    7     0.088700      1.00800 ; qtot -0.089
     8   h1     1   MOL    H4    8     0.088700      1.00800 ; qtot 0.000

[ bonds ]
;   ai     aj funct   r             k
     1      2   1    1.5354e-01    1.9154e+05 ;     C1 - C2    
     1      3   1    1.8092e-01    1.3724e+05 ;     C1 - CL1   
     1      5   1    1.0969e-01    2.8804e+05 ;     C1 - H1    
     1      6   1    1.0969e-01    2.8804e+05 ;     C1 - H2    
     2      4   1    1.9805e-01    1.0319e+05 ;     C2 - BR1   
     2      7   1    1.0969e-01    2.8804e+05 ;     C2 - H3    
     2      8   1    1.0969e-01    2.8804e+05 ;     C2 - H4    

[ pairs ]
;   ai     aj    funct
     3      4      1 ;    CL1 - BR1   
     3      7      1 ;    CL1 - H3    
     3      8      1 ;    CL1 - H4    
     5      4      1 ;     H1 - BR1   
     5      7      1 ;     H1 - H3    
     5      8      1 ;     H1 - H4    
     6      4      1 ;     H2 - BR1   
     6      7      1 ;     H2 - H3    
     6      8      1 ;     H2 - H4    

[ angles ]
;   ai     aj     ak    funct   theta         cth
     1      2      4      1    1.1047e+02    5.1020e+02 ;     C1 - C2     - BR1   
     1      2      7      1    1.0959e+02    3.6217e+02 ;     C1 - C2     - H3    
     1      2      8      1    1.0959e+02    3.6217e+02 ;     C1 - C2     - H4    
     2      1      3      1    1.1039e+02    5.3254e+02 ;     C2 - C1     - CL1   
     2      1      5      1    1.0959e+02    3.6217e+02 ;     C2 - C1     - H1    
     2      1      6      1    1.0959e+02    3.6217e+02 ;     C2 - C1     - H2    
     3      1      5      1    1.0682e+02    3.6183e+02 ;    CL1 - C1     - H1    
     3      1      6      1    1.0682e+02    3.6183e+02 ;    CL1 - C1     - H2    
     4      2      7      1    1.0552e+02    3.3748e+02 ;    BR1 - C2     - H3    
     4      2      8      1    1.0552e+02    3.3748e+02 ;    BR1 - C2     - H4    
     5      1      6      1    1.0855e+02    2.9824e+02 ;     H1 - C1     - H2    
     7      2      8      1    1.0855e+02    2.9824e+02 ;     H3 - C2     - H4    

[ dihedrals ] ; propers
; for gromacs 4.5 or higher, using funct 9
;    i      j      k      l   func   phase     kd      pn
     3      1      2      4      9     0.00   0.65084   3 ;    CL1-    C1-    C2-   BR1
     3      1      2      7      9     0.00   0.00000   0 ;    CL1-    C1-    C2-    H3
     3      1      2      7      9     0.00   1.04600   1 ;    CL1-    C1-    C2-    H3
     3      1      2      8      9     0.00   0.00000   0 ;    CL1-    C1-    C2-    H4
     3      1      2      8      9     0.00   1.04600   1 ;    CL1-    C1-    C2-    H4
     5      1      2      4      9     0.00   0.00000   0 ;     H1-    C1-    C2-   BR1
     5      1      2      4      9     0.00   2.30120   1 ;     H1-    C1-    C2-   BR1
     5      1      2      7      9     0.00   0.65084   3 ;     H1-    C1-    C2-    H3
     5      1      2      8      9     0.00   0.65084   3 ;     H1-    C1-    C2-    H4
     6      1      2      4      9     0.00   0.00000   0 ;     H2-    C1-    C2-   BR1
     6      1      2      4      9     0.00   2.30120   1 ;     H2-    C1-    C2-   BR1
     6      1      2      7      9     0.00   0.65084   3 ;     H2-    C1-    C2-    H3
     6      1      2      8      9     0.00   0.65084   3 ;     H2-    C1-    C2-    H4
