; mobley_1976156_GMX.itp created by acpype (v: 2023.10.27) on Thu May 14 14:00:59 2026

[ atomtypes ]
;name   bond_type     mass     charge   ptype   sigma         epsilon       Amb
 c        c           0.00000  0.00000   A     3.31521e-01   4.13379e-01 ; 1.86  0.0988
 c3       c3          0.00000  0.00000   A     3.39771e-01   4.51035e-01 ; 1.91  0.1078
 o        o           0.00000  0.00000   A     3.04812e-01   6.12119e-01 ; 1.71  0.1463
 h4       h4          0.00000  0.00000   A     2.53639e-01   6.73624e-02 ; 1.42  0.0161
 hc       hc          0.00000  0.00000   A     2.60018e-01   8.70272e-02 ; 1.46  0.0208

[ moleculetype ]
;name            nrexcl
 mobley_1976156   3

[ atoms ]
;   nr  type  resi  res  atom  cgnr     charge      mass       ; qtot   bond_type
     1    c     1   MOL    C1    1     0.561900     12.01000 ; qtot 0.562
     2   c3     1   MOL    C2    2    -0.093100     12.01000 ; qtot 0.469
     3   c3     1   MOL    C3    3    -0.198400     12.01000 ; qtot 0.270
     4   c3     1   MOL    C4    4    -0.080400     12.01000 ; qtot 0.190
     5   c3     1   MOL    C5    5    -0.075400     12.01000 ; qtot 0.115
     6   c3     1   MOL    C6    6    -0.079400     12.01000 ; qtot 0.035
     7   c3     1   MOL    C7    7    -0.078400     12.01000 ; qtot -0.043
     8   c3     1   MOL    C8    8    -0.079400     12.01000 ; qtot -0.123
     9   c3     1   MOL    C9    9    -0.078400     12.01000 ; qtot -0.201
    10    o     1   MOL    O1   10    -0.524100     16.00000 ; qtot -0.725
    11   h4     1   MOL    H1   11    -0.010800      1.00800 ; qtot -0.736
    12   hc     1   MOL    H2   12     0.032700      1.00800 ; qtot -0.703
    13   hc     1   MOL    H3   13     0.032700      1.00800 ; qtot -0.671
    14   hc     1   MOL    H4   14     0.032700      1.00800 ; qtot -0.638
    15   hc     1   MOL    H5   15     0.066700      1.00800 ; qtot -0.571
    16   hc     1   MOL    H6   16     0.066700      1.00800 ; qtot -0.504
    17   hc     1   MOL    H7   17     0.037700      1.00800 ; qtot -0.467
    18   hc     1   MOL    H8   18     0.037700      1.00800 ; qtot -0.429
    19   hc     1   MOL    H9   19     0.054700      1.00800 ; qtot -0.374
    20   hc     1   MOL   H10   20     0.054700      1.00800 ; qtot -0.320
    21   hc     1   MOL   H11   21     0.040700      1.00800 ; qtot -0.279
    22   hc     1   MOL   H12   22     0.040700      1.00800 ; qtot -0.238
    23   hc     1   MOL   H13   23     0.037700      1.00800 ; qtot -0.201
    24   hc     1   MOL   H14   24     0.037700      1.00800 ; qtot -0.163
    25   hc     1   MOL   H15   25     0.038700      1.00800 ; qtot -0.124
    26   hc     1   MOL   H16   26     0.038700      1.00800 ; qtot -0.085
    27   hc     1   MOL   H17   27     0.042700      1.00800 ; qtot -0.043
    28   hc     1   MOL   H18   28     0.042700      1.00800 ; qtot -0.000

[ bonds ]
;   ai     aj funct   r             k
     1      3   1    1.5270e-01    1.9652e+05 ;     C1 - C3    
     1     10   1    1.2190e-01    4.9421e+05 ;     C1 - O1    
     1     11   1    1.1123e-01    2.6984e+05 ;     C1 - H1    
     2      4   1    1.5354e-01    1.9154e+05 ;     C2 - C4    
     2     12   1    1.0962e-01    2.8891e+05 ;     C2 - H2    
     2     13   1    1.0962e-01    2.8891e+05 ;     C2 - H3    
     2     14   1    1.0962e-01    2.8891e+05 ;     C2 - H4    
     3      5   1    1.5354e-01    1.9154e+05 ;     C3 - C5    
     3     15   1    1.0962e-01    2.8891e+05 ;     C3 - H5    
     3     16   1    1.0962e-01    2.8891e+05 ;     C3 - H6    
     4      6   1    1.5354e-01    1.9154e+05 ;     C4 - C6    
     4     17   1    1.0962e-01    2.8891e+05 ;     C4 - H7    
     4     18   1    1.0962e-01    2.8891e+05 ;     C4 - H8    
     5      7   1    1.5354e-01    1.9154e+05 ;     C5 - C7    
     5     19   1    1.0962e-01    2.8891e+05 ;     C5 - H9    
     5     20   1    1.0962e-01    2.8891e+05 ;     C5 - H10   
     6      8   1    1.5354e-01    1.9154e+05 ;     C6 - C8    
     6     21   1    1.0962e-01    2.8891e+05 ;     C6 - H11   
     6     22   1    1.0962e-01    2.8891e+05 ;     C6 - H12   
     7      9   1    1.5354e-01    1.9154e+05 ;     C7 - C9    
     7     23   1    1.0962e-01    2.8891e+05 ;     C7 - H13   
     7     24   1    1.0962e-01    2.8891e+05 ;     C7 - H14   
     8      9   1    1.5354e-01    1.9154e+05 ;     C8 - C9    
     8     25   1    1.0962e-01    2.8891e+05 ;     C8 - H15   
     8     26   1    1.0962e-01    2.8891e+05 ;     C8 - H16   
     9     27   1    1.0962e-01    2.8891e+05 ;     C9 - H17   
     9     28   1    1.0962e-01    2.8891e+05 ;     C9 - H18   

[ pairs ]
;   ai     aj    funct
     1      7      1 ;     C1 - C7    
     1     19      1 ;     C1 - H9    
     1     20      1 ;     C1 - H10   
     2      8      1 ;     C2 - C8    
     2     21      1 ;     C2 - H11   
     2     22      1 ;     C2 - H12   
     3      9      1 ;     C3 - C9    
     3     23      1 ;     C3 - H13   
     3     24      1 ;     C3 - H14   
     4      9      1 ;     C4 - C9    
     4     25      1 ;     C4 - H15   
     4     26      1 ;     C4 - H16   
     5      8      1 ;     C5 - C8    
     5     27      1 ;     C5 - H17   
     5     28      1 ;     C5 - H18   
     6      7      1 ;     C6 - C7    
     6     12      1 ;     C6 - H2    
     6     13      1 ;     C6 - H3    
     6     14      1 ;     C6 - H4    
     6     27      1 ;     C6 - H17   
     6     28      1 ;     C6 - H18   
     7     15      1 ;     C7 - H5    
     7     16      1 ;     C7 - H6    
     7     25      1 ;     C7 - H15   
     7     26      1 ;     C7 - H16   
     8     17      1 ;     C8 - H7    
     8     18      1 ;     C8 - H8    
     8     23      1 ;     C8 - H13   
     8     24      1 ;     C8 - H14   
     9     19      1 ;     C9 - H9    
     9     20      1 ;     C9 - H10   
     9     21      1 ;     C9 - H11   
     9     22      1 ;     C9 - H12   
    10      5      1 ;     O1 - C5    
    10     15      1 ;     O1 - H5    
    10     16      1 ;     O1 - H6    
    11      5      1 ;     H1 - C5    
    11     15      1 ;     H1 - H5    
    11     16      1 ;     H1 - H6    
    12     17      1 ;     H2 - H7    
    12     18      1 ;     H2 - H8    
    13     17      1 ;     H3 - H7    
    13     18      1 ;     H3 - H8    
    14     17      1 ;     H4 - H7    
    14     18      1 ;     H4 - H8    
    15     19      1 ;     H5 - H9    
    15     20      1 ;     H5 - H10   
    16     19      1 ;     H6 - H9    
    16     20      1 ;     H6 - H10   
    17     21      1 ;     H7 - H11   
    17     22      1 ;     H7 - H12   
    18     21      1 ;     H8 - H11   
    18     22      1 ;     H8 - H12   
    19     23      1 ;     H9 - H13   
    19     24      1 ;     H9 - H14   
    20     23      1 ;    H10 - H13   
    20     24      1 ;    H10 - H14   
    21     25      1 ;    H11 - H15   
    21     26      1 ;    H11 - H16   
    22     25      1 ;    H12 - H15   
    22     26      1 ;    H12 - H16   
    23     27      1 ;    H13 - H17   
    23     28      1 ;    H13 - H18   
    24     27      1 ;    H14 - H17   
    24     28      1 ;    H14 - H18   
    25     27      1 ;    H15 - H17   
    25     28      1 ;    H15 - H18   
    26     27      1 ;    H16 - H17   
    26     28      1 ;    H16 - H18   

[ angles ]
;   ai     aj     ak    funct   theta         cth
     1      3      5      1    1.1143e+02    5.0509e+02 ;     C1 - C3     - C5    
     1      3     15      1    1.0895e+02    3.6510e+02 ;     C1 - C3     - H5    
     1      3     16      1    1.0895e+02    3.6510e+02 ;     C1 - C3     - H6    
     2      4      6      1    1.1263e+02    5.0099e+02 ;     C2 - C4     - C6    
     2      4     17      1    1.0968e+02    3.6208e+02 ;     C2 - C4     - H7    
     2      4     18      1    1.0968e+02    3.6208e+02 ;     C2 - C4     - H8    
     3      1     10      1    1.2290e+02    6.3973e+02 ;     C3 - C1     - O1    
     3      1     11      1    1.1471e+02    3.5522e+02 ;     C3 - C1     - H1    
     3      5      7      1    1.1263e+02    5.0099e+02 ;     C3 - C5     - C7    
     3      5     19      1    1.0968e+02    3.6208e+02 ;     C3 - C5     - H9    
     3      5     20      1    1.0968e+02    3.6208e+02 ;     C3 - C5     - H10   
     4      2     12      1    1.0968e+02    3.6208e+02 ;     C4 - C2     - H2    
     4      2     13      1    1.0968e+02    3.6208e+02 ;     C4 - C2     - H3    
     4      2     14      1    1.0968e+02    3.6208e+02 ;     C4 - C2     - H4    
     4      6      8      1    1.1263e+02    5.0099e+02 ;     C4 - C6     - C8    
     4      6     21      1    1.0968e+02    3.6208e+02 ;     C4 - C6     - H11   
     4      6     22      1    1.0968e+02    3.6208e+02 ;     C4 - C6     - H12   
     5      3     15      1    1.0968e+02    3.6208e+02 ;     C5 - C3     - H5    
     5      3     16      1    1.0968e+02    3.6208e+02 ;     C5 - C3     - H6    
     5      7      9      1    1.1263e+02    5.0099e+02 ;     C5 - C7     - C9    
     5      7     23      1    1.0968e+02    3.6208e+02 ;     C5 - C7     - H13   
     5      7     24      1    1.0968e+02    3.6208e+02 ;     C5 - C7     - H14   
     6      4     17      1    1.0968e+02    3.6208e+02 ;     C6 - C4     - H7    
     6      4     18      1    1.0968e+02    3.6208e+02 ;     C6 - C4     - H8    
     6      8      9      1    1.1263e+02    5.0099e+02 ;     C6 - C8     - C9    
     6      8     25      1    1.0968e+02    3.6208e+02 ;     C6 - C8     - H15   
     6      8     26      1    1.0968e+02    3.6208e+02 ;     C6 - C8     - H16   
     7      5     19      1    1.0968e+02    3.6208e+02 ;     C7 - C5     - H9    
     7      5     20      1    1.0968e+02    3.6208e+02 ;     C7 - C5     - H10   
     7      9      8      1    1.1263e+02    5.0099e+02 ;     C7 - C9     - C8    
     7      9     27      1    1.0968e+02    3.6208e+02 ;     C7 - C9     - H17   
     7      9     28      1    1.0968e+02    3.6208e+02 ;     C7 - C9     - H18   
     8      6     21      1    1.0968e+02    3.6208e+02 ;     C8 - C6     - H11   
     8      6     22      1    1.0968e+02    3.6208e+02 ;     C8 - C6     - H12   
     8      9     27      1    1.0968e+02    3.6208e+02 ;     C8 - C9     - H17   
     8      9     28      1    1.0968e+02    3.6208e+02 ;     C8 - C9     - H18   
     9      7     23      1    1.0968e+02    3.6208e+02 ;     C9 - C7     - H13   
     9      7     24      1    1.0968e+02    3.6208e+02 ;     C9 - C7     - H14   
     9      8     25      1    1.0968e+02    3.6208e+02 ;     C9 - C8     - H15   
     9      8     26      1    1.0968e+02    3.6208e+02 ;     C9 - C8     - H16   
    10      1     11      1    1.2062e+02    5.0191e+02 ;     O1 - C1     - H1    
    12      2     13      1    1.0773e+02    2.9957e+02 ;     H2 - C2     - H3    
    12      2     14      1    1.0773e+02    2.9957e+02 ;     H2 - C2     - H4    
    13      2     14      1    1.0773e+02    2.9957e+02 ;     H3 - C2     - H4    
    15      3     16      1    1.0773e+02    2.9957e+02 ;     H5 - C3     - H6    
    17      4     18      1    1.0773e+02    2.9957e+02 ;     H7 - C4     - H8    
    19      5     20      1    1.0773e+02    2.9957e+02 ;     H9 - C5     - H10   
    21      6     22      1    1.0773e+02    2.9957e+02 ;    H11 - C6     - H12   
    23      7     24      1    1.0773e+02    2.9957e+02 ;    H13 - C7     - H14   
    25      8     26      1    1.0773e+02    2.9957e+02 ;    H15 - C8     - H16   
    27      9     28      1    1.0773e+02    2.9957e+02 ;    H17 - C9     - H18   

[ dihedrals ] ; propers
; for gromacs 4.5 or higher, using funct 9
;    i      j      k      l   func   phase     kd      pn
     1      3      5      7      9     0.00   0.00000   0 ;     C1-    C3-    C5-    C7
     1      3      5      7      9     0.00   0.16736   2 ;     C1-    C3-    C5-    C7
     1      3      5      7      9   180.00   1.92464   1 ;     C1-    C3-    C5-    C7
     1      3      5     19      9     0.00   0.65084   3 ;     C1-    C3-    C5-    H9
     1      3      5     20      9     0.00   0.65084   3 ;     C1-    C3-    C5-   H10
     2      4      6      8      9     0.00   2.17568   3 ;     C2-    C4-    C6-    C8
     2      4      6     21      9     0.00   0.54392   3 ;     C2-    C4-    C6-   H11
     2      4      6     22      9     0.00   0.54392   3 ;     C2-    C4-    C6-   H12
     3      5      7      9      9     0.00   2.17568   3 ;     C3-    C5-    C7-    C9
     3      5      7     23      9     0.00   0.54392   3 ;     C3-    C5-    C7-   H13
     3      5      7     24      9     0.00   0.54392   3 ;     C3-    C5-    C7-   H14
     4      6      8      9      9     0.00   2.17568   3 ;     C4-    C6-    C8-    C9
     4      6      8     25      9     0.00   0.54392   3 ;     C4-    C6-    C8-   H15
     4      6      8     26      9     0.00   0.54392   3 ;     C4-    C6-    C8-   H16
     5      7      9      8      9     0.00   2.17568   3 ;     C5-    C7-    C9-    C8
     5      7      9     27      9     0.00   0.54392   3 ;     C5-    C7-    C9-   H17
     5      7      9     28      9     0.00   0.54392   3 ;     C5-    C7-    C9-   H18
     6      4      2     12      9     0.00   0.54392   3 ;     C6-    C4-    C2-    H2
     6      4      2     13      9     0.00   0.54392   3 ;     C6-    C4-    C2-    H3
     6      4      2     14      9     0.00   0.54392   3 ;     C6-    C4-    C2-    H4
     6      8      9      7      9     0.00   2.17568   3 ;     C6-    C8-    C9-    C7
     6      8      9     27      9     0.00   0.54392   3 ;     C6-    C8-    C9-   H17
     6      8      9     28      9     0.00   0.54392   3 ;     C6-    C8-    C9-   H18
     7      5      3     15      9     0.00   0.54392   3 ;     C7-    C5-    C3-    H5
     7      5      3     16      9     0.00   0.54392   3 ;     C7-    C5-    C3-    H6
     7      9      8     25      9     0.00   0.54392   3 ;     C7-    C9-    C8-   H15
     7      9      8     26      9     0.00   0.54392   3 ;     C7-    C9-    C8-   H16
     8      6      4     17      9     0.00   0.54392   3 ;     C8-    C6-    C4-    H7
     8      6      4     18      9     0.00   0.54392   3 ;     C8-    C6-    C4-    H8
     8      9      7     23      9     0.00   0.54392   3 ;     C8-    C9-    C7-   H13
     8      9      7     24      9     0.00   0.54392   3 ;     C8-    C9-    C7-   H14
     9      7      5     19      9     0.00   0.54392   3 ;     C9-    C7-    C5-    H9
     9      7      5     20      9     0.00   0.54392   3 ;     C9-    C7-    C5-   H10
     9      8      6     21      9     0.00   0.54392   3 ;     C9-    C8-    C6-   H11
     9      8      6     22      9     0.00   0.54392   3 ;     C9-    C8-    C6-   H12
    10      1      3      5      9     0.00   2.84512   1 ;     O1-    C1-    C3-    C5
    10      1      3      5      9   180.00   0.83680   2 ;     O1-    C1-    C3-    C5
    10      1      3      5      9   180.00   1.84096   3 ;     O1-    C1-    C3-    C5
    10      1      3     15      9     0.00  16.86152   1 ;     O1-    C1-    C3-    H5
    10      1      3     15      9   180.00  15.31344   2 ;     O1-    C1-    C3-    H5
    10      1      3     16      9     0.00  16.86152   1 ;     O1-    C1-    C3-    H6
    10      1      3     16      9   180.00  15.31344   2 ;     O1-    C1-    C3-    H6
    11      1      3      5      9   180.00   0.00000   2 ;     H1-    C1-    C3-    C5
    11      1      3     15      9   180.00   0.00000   2 ;     H1-    C1-    C3-    H5
    11      1      3     16      9   180.00   0.00000   2 ;     H1-    C1-    C3-    H6
    12      2      4     17      9     0.00   0.50208   3 ;     H2-    C2-    C4-    H7
    12      2      4     18      9     0.00   0.50208   3 ;     H2-    C2-    C4-    H8
    13      2      4     17      9     0.00   0.50208   3 ;     H3-    C2-    C4-    H7
    13      2      4     18      9     0.00   0.50208   3 ;     H3-    C2-    C4-    H8
    14      2      4     17      9     0.00   0.50208   3 ;     H4-    C2-    C4-    H7
    14      2      4     18      9     0.00   0.50208   3 ;     H4-    C2-    C4-    H8
    15      3      5     19      9     0.00   0.50208   3 ;     H5-    C3-    C5-    H9
    15      3      5     20      9     0.00   0.50208   3 ;     H5-    C3-    C5-   H10
    16      3      5     19      9     0.00   0.50208   3 ;     H6-    C3-    C5-    H9
    16      3      5     20      9     0.00   0.50208   3 ;     H6-    C3-    C5-   H10
    17      4      6     21      9     0.00   0.50208   3 ;     H7-    C4-    C6-   H11
    17      4      6     22      9     0.00   0.50208   3 ;     H7-    C4-    C6-   H12
    18      4      6     21      9     0.00   0.50208   3 ;     H8-    C4-    C6-   H11
    18      4      6     22      9     0.00   0.50208   3 ;     H8-    C4-    C6-   H12
    19      5      7     23      9     0.00   0.50208   3 ;     H9-    C5-    C7-   H13
    19      5      7     24      9     0.00   0.50208   3 ;     H9-    C5-    C7-   H14
    20      5      7     23      9     0.00   0.50208   3 ;    H10-    C5-    C7-   H13
    20      5      7     24      9     0.00   0.50208   3 ;    H10-    C5-    C7-   H14
    21      6      8     25      9     0.00   0.50208   3 ;    H11-    C6-    C8-   H15
    21      6      8     26      9     0.00   0.50208   3 ;    H11-    C6-    C8-   H16
    22      6      8     25      9     0.00   0.50208   3 ;    H12-    C6-    C8-   H15
    22      6      8     26      9     0.00   0.50208   3 ;    H12-    C6-    C8-   H16
    23      7      9     27      9     0.00   0.50208   3 ;    H13-    C7-    C9-   H17
    23      7      9     28      9     0.00   0.50208   3 ;    H13-    C7-    C9-   H18
    24      7      9     27      9     0.00   0.50208   3 ;    H14-    C7-    C9-   H17
    24      7      9     28      9     0.00   0.50208   3 ;    H14-    C7-    C9-   H18
    25      8      9     27      9     0.00   0.50208   3 ;    H15-    C8-    C9-   H17
    25      8      9     28      9     0.00   0.50208   3 ;    H15-    C8-    C9-   H18
    26      8      9     27      9     0.00   0.50208   3 ;    H16-    C8-    C9-   H17
    26      8      9     28      9     0.00   0.50208   3 ;    H16-    C8-    C9-   H18

[ dihedrals ] ; impropers
; treated as propers in GROMACS to use correct AMBER analytical function
;    i      j      k      l   func   phase     kd      pn
    10      1     11      3      4   180.00   4.60240   2 ;     O1-    C1-    H1-    C3
