mobley_4983965_GMX.gro created by acpype (v: 2023.10.27) on Thu May 14 13:40:14 2026
 1950
    1MOL     C1    1   1.097   1.358   1.448
    1MOL     C2    2   1.596   1.418   1.249
    1MOL     C3    3   1.232   1.301   1.407
    1MOL     C4    4   1.485   1.332   1.307
    1MOL     S1    5   1.340   1.433   1.343
    1MOL     H1    6   1.107   1.433   1.527
    1MOL     H2    7   1.046   1.403   1.363
    1MOL     H3    8   1.033   1.277   1.486
    1MOL     H4    9   1.566   1.466   1.156
    1MOL     H5   10   1.628   1.496   1.320
    1MOL     H6   11   1.684   1.356   1.228
    1MOL     H7   12   1.220   1.225   1.330
    1MOL     H8   13   1.281   1.255   1.494
    1MOL     H9   14   1.519   1.283   1.399
    1MOL    H10   15   1.457   1.254   1.235
    2SOL     OW   16   0.230   0.628   0.113
    2SOL    HW1   17   0.137   0.626   0.150
    2SOL    HW2   18   0.231   0.589   0.021
    3SOL     OW   19   0.225   0.275   0.996
    3SOL    HW1   20   0.260   0.258   1.088
    3SOL    HW2   21   0.137   0.230   0.984
    4SOL     OW   22   0.019   0.368   0.647
    4SOL    HW1   23  -0.063   0.411   0.686
    4SOL    HW2   24  -0.009   0.295   0.584
    5SOL     OW   25   0.569   1.275   1.165
    5SOL    HW1   26   0.476   1.268   1.128
    5SOL    HW2   27   0.580   1.364   1.209
    6SOL     OW   28   1.555   1.511   0.703
    6SOL    HW1   29   1.498   1.495   0.784
    6SOL    HW2   30   1.496   1.521   0.623
    7SOL     OW   31   1.135   0.703   0.717
    7SOL    HW1   32   1.192   0.781   0.692
    7SOL    HW2   33   1.075   0.729   0.793
    8SOL     OW   34   1.755   0.607   0.231
    8SOL    HW1   35   1.743   0.594   0.132
    8SOL    HW2   36   1.725   0.526   0.280
    9SOL     OW   37   0.768   1.144   1.023
    9SOL    HW1   38   0.690   1.161   1.083
    9SOL    HW2   39   0.802   1.231   0.987
   10SOL     OW   40   0.850   0.798   1.823
   10SOL    HW1   41   0.846   0.874   1.888
   10SOL    HW2   42   0.872   0.834   1.732
   11SOL     OW   43   0.685   1.012   0.665
   11SOL    HW1   44   0.754   0.996   0.735
   11SOL    HW2   45   0.612   1.069   0.703
   12SOL     OW   46   0.686   1.161   1.803
   12SOL    HW1   47   0.746   1.240   1.817
   12SOL    HW2   48   0.600   1.192   1.762
   13SOL     OW   49   0.335   1.435   1.061
   13SOL    HW1   50   0.257   1.404   1.008
   13SOL    HW2   51   0.393   1.493   1.004
   14SOL     OW   52   0.438   0.392   1.499
   14SOL    HW1   53   0.520   0.336   1.508
   14SOL    HW2   54   0.357   0.334   1.503
   15SOL     OW   55   1.603   0.447   0.737
   15SOL    HW1   56   1.529   0.493   0.687
   15SOL    HW2   57   1.654   0.515   0.790
   16SOL     OW   58   0.231   1.713   0.483
   16SOL    HW1   59   0.265   1.790   0.537
   16SOL    HW2   60   0.275   1.713   0.393
   17SOL     OW   61   1.127   1.341   1.690
   17SOL    HW1   62   1.174   1.341   1.778
   17SOL    HW2   63   1.079   1.254   1.679
   18SOL     OW   64   0.230   1.434   0.538
   18SOL    HW1   65   0.204   1.530   0.538
   18SOL    HW2   66   0.159   1.380   0.583
   19SOL     OW   67   0.240   1.091   0.886
   19SOL    HW1   68   0.254   1.007   0.938
   19SOL    HW2   69   0.185   1.155   0.941
   20SOL     OW   70   0.620   1.786   1.439
   20SOL    HW1   71   0.528   1.769   1.474
   20SOL    HW2   72   0.648   1.878   1.465
   21SOL     OW   73   0.606   0.964   0.123
   21SOL    HW1   74   0.613   1.048   0.069
   21SOL    HW2   75   0.652   0.977   0.211
   22SOL     OW   76   1.594   0.114   1.480
   22SOL    HW1   77   1.576   0.181   1.408
   22SOL    HW2   78   1.591   0.160   1.569
   23SOL     OW   79   0.122   0.643   0.563
   23SOL    HW1   80   0.077   0.555   0.580
   23SOL    HW2   81   0.121   0.697   0.647
   24SOL     OW   82   1.842   1.767   0.359
   24SOL    HW1   83   1.896   1.738   0.439
   24SOL    HW2   84   1.872   1.857   0.330
   25SOL     OW   85   0.027   1.596   0.117
   25SOL    HW1   86   0.008   1.500   0.138
   25SOL    HW2   87  -0.006   1.654   0.192
   26SOL     OW   88   1.689   0.922   0.612
   26SOL    HW1   89   1.784   0.893   0.620
   26SOL    HW2   90   1.681   0.987   0.537
   27SOL     OW   91   1.641   1.108   0.432
   27SOL    HW1   92   1.727   1.110   0.380
   27SOL    HW2   93   1.655   1.155   0.520
   28SOL     OW   94   0.113   0.737   1.597
   28SOL    HW1   95   0.201   0.724   1.642
   28SOL    HW2   96   0.100   0.834   1.575
   29SOL     OW   97   0.613   1.365   0.726
   29SOL    HW1   98   0.564   1.278   0.735
   29SOL    HW2   99   0.590   1.408   0.639
   30SOL     OW  100   0.809   0.004   0.502
   30SOL    HW1  101   0.849   0.095   0.493
   30SOL    HW2  102   0.709   0.012   0.508
   31SOL     OW  103   0.197   0.976   1.264
   31SOL    HW1  104   0.286   0.931   1.250
   31SOL    HW2  105   0.124   0.911   1.245
   32SOL     OW  106   1.525   0.999   0.190
   32SOL    HW1  107   1.462   0.923   0.203
   32SOL    HW2  108   1.573   1.017   0.276
   33SOL     OW  109   1.187   1.792   1.616
   33SOL    HW1  110   1.211   1.852   1.540
   33SOL    HW2  111   1.194   1.697   1.586
   34SOL     OW  112   0.317   0.251   1.801
   34SOL    HW1  113   0.388   0.322   1.807
   34SOL    HW2  114   0.229   0.290   1.829
   35SOL     OW  115   1.466   1.417   0.953
   35SOL    HW1  116   1.407   1.423   1.033
   35SOL    HW2  117   1.451   1.329   0.907
   36SOL     OW  118   1.667   1.714   0.572
   36SOL    HW1  119   1.626   1.691   0.484
   36SOL    HW2  120   1.649   1.640   0.637
   37SOL     OW  121   0.598   0.729   0.270
   37SOL    HW1  122   0.622   0.798   0.202
   37SOL    HW2  123   0.520   0.762   0.324
   38SOL     OW  124   1.281   0.345   0.944
   38SOL    HW1  125   1.195   0.295   0.931
   38SOL    HW2  126   1.343   0.291   1.000
   39SOL     OW  127   1.576   1.662   0.307
   39SOL    HW1  128   1.665   1.708   0.310
   39SOL    HW2  129   1.555   1.638   0.212
   40SOL     OW  130   0.807   0.605   1.465
   40SOL    HW1  131   0.760   0.602   1.554
   40SOL    HW2  132   0.756   0.550   1.399
   41SOL     OW  133   1.394   0.469   1.674
   41SOL    HW1  134   1.374   0.512   1.762
   41SOL    HW2  135   1.472   0.407   1.683
   42SOL     OW  136   0.973   0.890   1.572
   42SOL    HW1  137   1.019   0.806   1.543
   42SOL    HW2  138   0.917   0.924   1.497
   43SOL     OW  139   0.991   0.410   1.242
   43SOL    HW1  140   0.914   0.444   1.296
   43SOL    HW2  141   0.957   0.359   1.163
   44SOL     OW  142   1.041   0.701   0.429
   44SOL    HW1  143   1.067   0.697   0.525
   44SOL    HW2  144   0.956   0.650   0.415
   45SOL     OW  145   0.076   0.811   0.789
   45SOL    HW1  146   0.175   0.799   0.798
   45SOL    HW2  147   0.052   0.906   0.810
   46SOL     OW  148   0.130   1.821   1.571
   46SOL    HW1  149   0.120   1.806   1.670
   46SOL    HW2  150   0.044   1.857   1.535
   47SOL     OW  151   0.865   0.348   0.195
   47SOL    HW1  152   0.924   0.411   0.146
   47SOL    HW2  153   0.884   0.254   0.166
   48SOL     OW  154   1.719   0.585   1.831
   48SOL    HW1  155   1.693   0.674   1.795
   48SOL    HW2  156   1.717   0.517   1.758
   49SOL     OW  157   1.362   1.144   0.545
   49SOL    HW1  158   1.445   1.115   0.497
   49SOL    HW2  159   1.313   1.211   0.489
   50SOL     OW  160   0.550   0.196   0.885
   50SOL    HW1  161   0.545   0.191   0.985
   50SOL    HW2  162   0.552   0.292   0.856
   51SOL     OW  163   1.008   1.456   0.477
   51SOL    HW1  164   0.962   1.528   0.425
   51SOL    HW2  165   1.004   1.476   0.575
   52SOL     OW  166   0.351   1.801   0.853
   52SOL    HW1  167   0.401   1.715   0.859
   52SOL    HW2  168   0.416   1.878   0.850
   53SOL     OW  169   1.795   1.066   0.873
   53SOL    HW1  170   1.733   1.051   0.797
   53SOL    HW2  171   1.743   1.077   0.958
   54SOL     OW  172   1.227   1.550   1.506
   54SOL    HW1  173   1.233   1.473   1.570
   54SOL    HW2  174   1.175   1.524   1.426
   55SOL     OW  175   0.321   0.943   0.242
   55SOL    HW1  176   0.403   0.982   0.200
   55SOL    HW2  177   0.294   0.861   0.193
   56SOL     OW  178   1.458   0.735   0.728
   56SOL    HW1  179   1.453   0.670   0.803
   56SOL    HW2  180   1.538   0.794   0.741
   57SOL     OW  181   0.461   1.266   1.727
   57SOL    HW1  182   0.411   1.267   1.641
   57SOL    HW2  183   0.398   1.248   1.803
   58SOL     OW  184   1.111   1.776   0.237
   58SOL    HW1  185   1.051   1.714   0.287
   58SOL    HW2  186   1.142   1.732   0.152
   59SOL     OW  187   0.202   0.285   1.498
   59SOL    HW1  188   0.122   0.345   1.485
   59SOL    HW2  189   0.192   0.236   1.584
   60SOL     OW  190   1.632   1.377   0.081
   60SOL    HW1  191   1.600   1.471   0.071
   60SOL    HW2  192   1.556   1.314   0.069
   61SOL     OW  193   0.464   1.743   0.323
   61SOL    HW1  194   0.497   1.782   0.409
   61SOL    HW2  195   0.540   1.736   0.258
   62SOL     OW  196   1.400   0.107   0.426
   62SOL    HW1  197   1.376   0.070   0.336
   62SOL    HW2  198   1.499   0.123   0.430
   63SOL     OW  199   0.249   1.785   1.241
   63SOL    HW1  200   0.306   1.720   1.291
   63SOL    HW2  201   0.233   1.752   1.148
   64SOL     OW  202   0.940   1.698   0.904
   64SOL    HW1  203   1.020   1.641   0.925
   64SOL    HW2  204   0.891   1.658   0.827
   65SOL     OW  205   0.382   0.700   0.480
   65SOL    HW1  206   0.427   0.610   0.477
   65SOL    HW2  207   0.288   0.689   0.513
   66SOL     OW  208   1.547   0.222   1.729
   66SOL    HW1  209   1.542   0.259   1.821
   66SOL    HW2  210   1.475   0.153   1.717
   67SOL     OW  211   0.614   0.122   0.117
   67SOL    HW1  212   0.712   0.100   0.124
   67SOL    HW2  213   0.583   0.105   0.024
   68SOL     OW  214   0.781   0.264   1.749
   68SOL    HW1  215   0.848   0.203   1.792
   68SOL    HW2  216   0.708   0.283   1.814
   69SOL     OW  217   0.888   1.514   1.195
   69SOL    HW1  218   0.865   1.489   1.101
   69SOL    HW2  219   0.949   1.445   1.234
   70SOL     OW  220   1.351   0.590   1.433
   70SOL    HW1  221   1.379   0.547   1.518
   70SOL    HW2  222   1.376   0.686   1.434
   71SOL     OW  223   0.803   1.402   0.924
   71SOL    HW1  224   0.893   1.416   0.882
   71SOL    HW2  225   0.732   1.404   0.853
   72SOL     OW  226   0.922   0.503   0.899
   72SOL    HW1  227   0.897   0.494   0.803
   72SOL    HW2  228   0.970   0.421   0.930
   73SOL     OW  229   0.539   0.064   0.512
   73SOL    HW1  230   0.458   0.065   0.570
   73SOL    HW2  231   0.542   0.147   0.457
   74SOL     OW  232   1.434   1.188   0.041
   74SOL    HW1  233   1.466   1.112   0.098
   74SOL    HW2  234   1.342   1.215   0.071
   75SOL     OW  235   0.297   0.035   0.171
   75SOL    HW1  236   0.346   0.119   0.150
   75SOL    HW2  237   0.359  -0.030   0.216
   76SOL     OW  238   0.935   0.236   0.480
   76SOL    HW1  239   0.887   0.277   0.402
   76SOL    HW2  240   1.034   0.234   0.461
   77SOL     OW  241   1.076   0.683   1.464
   77SOL    HW1  242   0.996   0.622   1.467
   77SOL    HW2  243   1.157   0.630   1.440
   78SOL     OW  244   1.227   1.570   0.793
   78SOL    HW1  245   1.248   1.644   0.728
   78SOL    HW2  246   1.295   1.570   0.866
   79SOL     OW  247   0.459   1.152   0.741
   79SOL    HW1  248   0.388   1.125   0.806
   79SOL    HW2  249   0.433   1.124   0.648
   80SOL     OW  250   1.271   1.797   0.591
   80SOL    HW1  251   1.315   1.861   0.527
   80SOL    HW2  252   1.221   1.849   0.661
   81SOL     OW  253   1.032   0.549   0.016
   81SOL    HW1  254   0.991   0.631  -0.023
   81SOL    HW2  255   1.096   0.575   0.089
   82SOL     OW  256   0.078   0.556   1.386
   82SOL    HW1  257   0.170   0.555   1.345
   82SOL    HW2  258   0.072   0.630   1.453
   83SOL     OW  259   0.561   0.222   1.147
   83SOL    HW1  260   0.599   0.138   1.184
   83SOL    HW2  261   0.473   0.241   1.191
   84SOL     OW  262   0.866   0.454   0.642
   84SOL    HW1  263   0.834   0.526   0.580
   84SOL    HW2  264   0.890   0.373   0.589
   85SOL     OW  265   1.017   0.039   0.753
   85SOL    HW1  266   0.945   0.044   0.684
   85SOL    HW2  267   0.993  -0.030   0.822
   86SOL     OW  268   1.429   1.173   0.867
   86SOL    HW1  269   1.374   1.089   0.860
   86SOL    HW2  270   1.455   1.202   0.775
   87SOL     OW  271   1.466   0.590   0.992
   87SOL    HW1  272   1.436   0.495   0.999
   87SOL    HW2  273   1.539   0.606   1.058
   88SOL     OW  274   1.857   0.833   0.377
   88SOL    HW1  275   1.899   0.769   0.441
   88SOL    HW2  276   1.819   0.782   0.299
   89SOL     OW  277   0.488   1.385   0.174
   89SOL    HW1  278   0.401   1.370   0.221
   89SOL    HW2  279   0.471   1.411   0.079
   90SOL     OW  280   1.664   1.280   0.657
   90SOL    HW1  281   1.763   1.288   0.671
   90SOL    HW2  282   1.619   1.364   0.688
   91SOL     OW  283   1.390   0.575   0.078
   91SOL    HW1  284   1.336   0.554   0.159
   91SOL    HW2  285   1.481   0.534   0.087
   92SOL     OW  286   0.527   0.256   0.328
   92SOL    HW1  287   0.554   0.197   0.253
   92SOL    HW2  288   0.527   0.351   0.297
   93SOL     OW  289   1.754   1.223   1.588
   93SOL    HW1  290   1.845   1.184   1.575
   93SOL    HW2  291   1.762   1.319   1.612
   94SOL     OW  292   1.592   1.629   1.625
   94SOL    HW1  293   1.619   1.663   1.535
   94SOL    HW2  294   1.671   1.591   1.671
   95SOL     OW  295   1.111   1.195   1.100
   95SOL    HW1  296   1.071   1.239   1.181
   95SOL    HW2  297   1.070   1.232   1.017
   96SOL     OW  298   1.638   1.099   1.079
   96SOL    HW1  299   1.643   1.180   1.138
   96SOL    HW2  300   1.552   1.101   1.028
   97SOL     OW  301   0.915   0.089   1.402
   97SOL    HW1  302   0.940   0.069   1.307
   97SOL    HW2  303   0.987   0.145   1.444
   98SOL     OW  304   0.980   1.116   1.719
   98SOL    HW1  305   0.881   1.122   1.729
   98SOL    HW2  306   1.003   1.036   1.663
   99SOL     OW  307   0.705   1.050   0.368
   99SOL    HW1  308   0.691   1.057   0.467
   99SOL    HW2  309   0.789   0.999   0.350
  100SOL     OW  310   0.410   0.813   1.251
  100SOL    HW1  311   0.496   0.825   1.301
  100SOL    HW2  312   0.368   0.726   1.278
  101SOL     OW  313   1.274   0.386   1.262
  101SOL    HW1  314   1.295   0.460   1.326
  101SOL    HW2  315   1.185   0.403   1.219
  102SOL     OW  316   0.064   1.564   1.331
  102SOL    HW1  317   0.018   1.646   1.297
  102SOL    HW2  318   0.162   1.583   1.340
  103SOL     OW  319   0.367   1.100   0.501
  103SOL    HW1  320   0.360   1.183   0.445
  103SOL    HW2  321   0.371   1.020   0.441
  104SOL     OW  322   0.566   0.537   0.865
  104SOL    HW1  323   0.578   0.603   0.791
  104SOL    HW2  324   0.612   0.571   0.948
  105SOL     OW  325   1.252   1.348   0.388
  105SOL    HW1  326   1.302   1.425   0.428
  105SOL    HW2  327   1.157   1.350   0.420
  106SOL     OW  328   1.582   0.639   0.472
  106SOL    HW1  329   1.551   0.700   0.545
  106SOL    HW2  330   1.632   0.691   0.403
  107SOL     OW  331   0.354   1.510   1.329
  107SOL    HW1  332   0.333   1.466   1.242
  107SOL    HW2  333   0.451   1.536   1.332
  108SOL     OW  334   0.402   0.751   1.598
  108SOL    HW1  335   0.470   0.806   1.551
  108SOL    HW2  336   0.442   0.663   1.625
  109SOL     OW  337   1.587   0.779   1.670
  109SOL    HW1  338   1.495   0.817   1.665
  109SOL    HW2  339   1.647   0.826   1.605
  110SOL     OW  340   1.013   0.105   1.770
  110SOL    HW1  341   1.019   0.190   1.718
  110SOL    HW2  342   1.045   0.029   1.713
  111SOL     OW  343   0.504   0.050   1.740
  111SOL    HW1  344   0.462  -0.007   1.670
  111SOL    HW2  345   0.438   0.119   1.772
  112SOL     OW  346   0.573   0.870   1.029
  112SOL    HW1  347   0.617   0.959   1.020
  112SOL    HW2  348   0.510   0.870   1.106
  113SOL     OW  349   1.360   0.862   1.045
  113SOL    HW1  350   1.285   0.862   0.979
  113SOL    HW2  351   1.397   0.770   1.054
  114SOL     OW  352   1.209   0.525   0.275
  114SOL    HW1  353   1.222   0.441   0.329
  114SOL    HW2  354   1.180   0.599   0.335
  115SOL     OW  355   0.307   0.213   1.231
  115SOL    HW1  356   0.284   0.250   1.321
  115SOL    HW2  357   0.277   0.118   1.225
  116SOL     OW  358   0.037   1.310   1.282
  116SOL    HW1  359   0.090   1.261   1.350
  116SOL    HW2  360   0.059   1.408   1.287
  117SOL     OW  361   0.732   0.634   1.064
  117SOL    HW1  362   0.791   0.608   0.988
  117SOL    HW2  363   0.704   0.730   1.053
  118SOL     OW  364   1.728   0.935   1.854
  118SOL    HW1  365   1.682   0.928   1.765
  118SOL    HW2  366   1.666   0.979   1.920
  119SOL     OW  367   0.307   0.063   0.618
  119SOL    HW1  368   0.296   0.157   0.651
  119SOL    HW2  369   0.302   0.000   0.695
  120SOL     OW  370   1.622   0.367   0.374
  120SOL    HW1  371   1.624   0.291   0.438
  120SOL    HW2  372   1.574   0.444   0.414
  121SOL     OW  373   1.023   0.766   0.966
  121SOL    HW1  374   1.038   0.787   1.062
  121SOL    HW2  375   0.993   0.671   0.957
  122SOL     OW  376   0.980   1.573   1.700
  122SOL    HW1  377   0.960   1.617   1.612
  122SOL    HW2  378   1.019   1.482   1.684
  123SOL     OW  379   1.859   1.518   1.605
  123SOL    HW1  380   1.873   1.545   1.510
  123SOL    HW2  381   1.942   1.540   1.658
  124SOL     OW  382   0.350   0.898   1.804
  124SOL    HW1  383   0.426   0.942   1.852
  124SOL    HW2  384   0.385   0.851   1.722
  125SOL     OW  385   1.540   0.274   0.125
  125SOL    HW1  386   1.479   0.199   0.148
  125SOL    HW2  387   1.562   0.326   0.208
  126SOL     OW  388   1.303   0.838   0.042
  126SOL    HW1  389   1.337   0.745   0.057
  126SOL    HW2  390   1.321   0.865  -0.053
  127SOL     OW  391   1.068   1.333   0.849
  127SOL    HW1  392   1.075   1.249   0.794
  127SOL    HW2  393   1.130   1.402   0.813
  128SOL     OW  394   0.319   0.810   0.949
  128SOL    HW1  395   0.412   0.846   0.954
  128SOL    HW2  396   0.313   0.725   1.001
  129SOL     OW  397   0.339   0.509   1.006
  129SOL    HW1  398   0.287   0.426   0.989
  129SOL    HW2  399   0.416   0.514   0.942
  130SOL     OW  400   1.138   0.380   1.678
  130SOL    HW1  401   1.093   0.443   1.742
  130SOL    HW2  402   1.231   0.411   1.661
  131SOL     OW  403   1.160   0.207   1.477
  131SOL    HW1  404   1.160   0.271   1.554
  131SOL    HW2  405   1.188   0.255   1.394
  132SOL     OW  406   0.008   1.326   0.200
  132SOL    HW1  407  -0.085   1.347   0.169
  132SOL    HW2  408   0.018   1.227   0.213
  133SOL     OW  409   0.088   1.801   0.927
  133SOL    HW1  410   0.046   1.715   0.900
  133SOL    HW2  411   0.182   1.804   0.893
  134SOL     OW  412   0.504   1.568   0.910
  134SOL    HW1  413   0.570   1.642   0.919
  134SOL    HW2  414   0.548   1.489   0.868
  135SOL     OW  415   1.002   0.796   1.238
  135SOL    HW1  416   1.043   0.764   1.324
  135SOL    HW2  417   0.906   0.769   1.235
  136SOL     OW  418   0.040   0.544   1.114
  136SOL    HW1  419   0.125   0.511   1.073
  136SOL    HW2  420   0.053   0.559   1.212
  137SOL     OW  421   0.189   0.520   1.722
  137SOL    HW1  422   0.248   0.480   1.652
  137SOL    HW2  423   0.131   0.591   1.681
  138SOL     OW  424   1.369   0.950   1.660
  138SOL    HW1  425   1.408   1.039   1.680
  138SOL    HW2  426   1.379   0.930   1.563
  139SOL     OW  427   0.815   0.572   0.325
  139SOL    HW1  428   0.822   0.483   0.279
  139SOL    HW2  429   0.721   0.606   0.317
  140SOL     OW  430   1.657   0.604   1.206
  140SOL    HW1  431   1.619   0.535   1.268
  140SOL    HW2  432   1.739   0.568   1.162
  141SOL     OW  433   0.252   1.564   1.744
  141SOL    HW1  434   0.222   1.621   1.820
  141SOL    HW2  435   0.245   1.467   1.770
  142SOL     OW  436   0.671   0.464   1.269
  142SOL    HW1  437   0.637   0.375   1.239
  142SOL    HW2  438   0.697   0.518   1.189
  143SOL     OW  439   0.930   1.678   1.465
  143SOL    HW1  440   0.906   1.660   1.370
  143SOL    HW2  441   0.960   1.772   1.475
  144SOL     OW  442   0.473   0.500   0.191
  144SOL    HW1  443   0.534   0.580   0.195
  144SOL    HW2  444   0.378   0.531   0.198
  145SOL     OW  445   0.159   1.137   1.466
  145SOL    HW1  446   0.181   1.076   1.542
  145SOL    HW2  447   0.169   1.088   1.380
  146SOL     OW  448   1.347   1.059   1.234
  146SOL    HW1  449   1.371   0.996   1.160
  146SOL    HW2  450   1.257   1.099   1.216
  147SOL     OW  451   1.302   0.855   0.309
  147SOL    HW1  452   1.216   0.824   0.351
  147SOL    HW2  453   1.298   0.841   0.210
  148SOL     OW  454   1.759   1.747   1.154
  148SOL    HW1  455   1.820   1.777   1.081
  148SOL    HW2  456   1.721   1.658   1.132
  149SOL     OW  457   1.252   1.731   1.128
  149SOL    HW1  458   1.336   1.736   1.074
  149SOL    HW2  459   1.229   1.635   1.146
  150SOL     OW  460   0.083   1.258   1.022
  150SOL    HW1  461   0.078   1.257   1.122
  150SOL    HW2  462   0.000   1.217   0.984
  151SOL     OW  463   0.688   1.662   1.716
  151SOL    HW1  464   0.632   1.743   1.725
  151SOL    HW2  465   0.740   1.666   1.630
  152SOL     OW  466   0.903   0.086   0.133
  152SOL    HW1  467   0.954   0.087   0.047
  152SOL    HW2  468   0.959   0.044   0.204
  153SOL     OW  469   1.726   0.135   0.523
  153SOL    HW1  470   1.799   0.118   0.456
  153SOL    HW2  471   1.695   0.048   0.561
  154SOL     OW  472   1.388   1.573   0.477
  154SOL    HW1  473   1.455   1.585   0.403
  154SOL    HW2  474   1.348   1.662   0.500
  155SOL     OW  475   0.130   1.794   1.851
  155SOL    HW1  476   0.089   1.720   1.904
  155SOL    HW2  477   0.194   1.845   1.909
  156SOL     OW  478   1.280   0.927   0.672
  156SOL    HW1  479   1.340   0.846   0.674
  156SOL    HW2  480   1.320   0.996   0.612
  157SOL     OW  481   0.830   1.273   1.422
  157SOL    HW1  482   0.825   1.306   1.517
  157SOL    HW2  483   0.744   1.292   1.376
  158SOL     OW  484   0.672   1.616   0.154
  158SOL    HW1  485   0.681   1.626   0.055
  158SOL    HW2  486   0.632   1.527   0.175
  159SOL     OW  487   1.650   1.720   1.394
  159SOL    HW1  488   1.703   1.730   1.310
  159SOL    HW2  489   1.623   1.810   1.428
  160SOL     OW  490   1.841   0.175   0.963
  160SOL    HW1  491   1.880   0.090   0.927
  160SOL    HW2  492   1.743   0.177   0.944
  161SOL     OW  493   0.263   0.326   0.720
  161SOL    HW1  494   0.184   0.377   0.686
  161SOL    HW2  495   0.254   0.311   0.818
  162SOL     OW  496   1.194   1.612   0.031
  162SOL    HW1  497   1.200   1.519   0.068
  162SOL    HW2  498   1.135   1.612  -0.049
  163SOL     OW  499   0.822   1.002   1.372
  163SOL    HW1  500   0.862   1.001   1.280
  163SOL    HW2  501   0.832   1.094   1.412
  164SOL     OW  502   0.916   0.910   0.291
  164SOL    HW1  503   0.979   0.948   0.223
  164SOL    HW2  504   0.956   0.827   0.330
  165SOL     OW  505   1.504   1.607   0.044
  165SOL    HW1  506   1.412   1.644   0.051
  165SOL    HW2  507   1.542   1.627  -0.046
  166SOL     OW  508   0.372   1.288   1.490
  166SOL    HW1  509   0.359   1.381   1.456
  166SOL    HW2  510   0.288   1.236   1.477
  167SOL     OW  511   1.039   1.098   0.696
  167SOL    HW1  512   0.969   1.051   0.750
  167SOL    HW2  513   1.098   1.030   0.653
  168SOL     OW  514   1.014   0.236   0.971
  168SOL    HW1  515   1.006   0.200   0.878
  168SOL    HW2  516   1.012   0.160   1.036
  169SOL     OW  517   0.590   1.487   0.491
  169SOL    HW1  518   0.632   1.429   0.421
  169SOL    HW2  519   0.546   1.566   0.447
  170SOL     OW  520   1.709   0.385   1.381
  170SOL    HW1  521   1.782   0.454   1.385
  170SOL    HW2  522   1.737   0.310   1.322
  171SOL     OW  523   0.255   1.348   0.290
  171SOL    HW1  524   0.159   1.349   0.263
  171SOL    HW2  525   0.267   1.401   0.374
  172SOL     OW  526   0.105   1.013   1.726
  172SOL    HW1  527   0.028   0.980   1.780
  172SOL    HW2  528   0.190   0.983   1.768
  173SOL     OW  529   0.672   0.203   1.489
  173SOL    HW1  530   0.762   0.187   1.449
  173SOL    HW2  531   0.680   0.208   1.588
  174SOL     OW  532   0.075   0.345   0.033
  174SOL    HW1  533  -0.017   0.317   0.004
  174SOL    HW2  534   0.106   0.422  -0.023
  175SOL     OW  535   1.440   0.856   1.398
  175SOL    HW1  536   1.383   0.908   1.335
  175SOL    HW2  537   1.536   0.868   1.374
  176SOL     OW  538   0.072   0.166   0.318
  176SOL    HW1  539   0.055   0.249   0.264
  176SOL    HW2  540   0.162   0.129   0.296
  177SOL     OW  541   1.183   1.335   0.119
  177SOL    HW1  542   1.084   1.324   0.121
  177SOL    HW2  543   1.217   1.350   0.212
  178SOL     OW  544   0.613   0.842   1.431
  178SOL    HW1  545   0.669   0.923   1.414
  178SOL    HW2  546   0.672   0.762   1.434
  179SOL     OW  547   1.493   1.767   0.959
  179SOL    HW1  548   1.526   1.831   0.890
  179SOL    HW2  549   1.559   1.761   1.034
  180SOL     OW  550   0.716   0.565   1.708
  180SOL    HW1  551   0.735   0.630   1.782
  180SOL    HW2  552   0.776   0.485   1.717
  181SOL     OW  553   1.450   1.220   1.633
  181SOL    HW1  554   1.441   1.210   1.732
  181SOL    HW2  555   1.546   1.213   1.607
  182SOL     OW  556   0.390   1.741   1.560
  182SOL    HW1  557   0.299   1.782   1.558
  182SOL    HW2  558   0.383   1.647   1.592
  183SOL     OW  559   1.674   0.883   1.254
  183SOL    HW1  560   1.647   0.794   1.217
  183SOL    HW2  561   1.675   0.951   1.181
  184SOL     OW  562   1.225   0.325   0.449
  184SOL    HW1  563   1.290   0.251   0.438
  184SOL    HW2  564   1.245   0.375   0.533
  185SOL     OW  565   0.594   0.745   0.652
  185SOL    HW1  566   0.644   0.830   0.633
  185SOL    HW2  567   0.506   0.747   0.604
  186SOL     OW  568   1.777   0.342   1.642
  186SOL    HW1  569   1.760   0.373   1.548
  186SOL    HW2  570   1.693   0.305   1.680
  187SOL     OW  571   1.730   0.934   1.517
  187SOL    HW1  572   1.768   1.025   1.532
  187SOL    HW2  573   1.722   0.917   1.418
  188SOL     OW  574   0.859   1.374   0.016
  188SOL    HW1  575   0.813   1.389   0.104
  188SOL    HW2  576   0.903   1.459  -0.014
  189SOL     OW  577   0.661   1.790   0.953
  189SOL    HW1  578   0.615   1.878   0.940
  189SOL    HW2  579   0.760   1.802   0.946
  190SOL     OW  580   0.859   0.956   0.861
  190SOL    HW1  581   0.913   0.887   0.909
  190SOL    HW2  582   0.827   1.025   0.927
  191SOL     OW  583   1.083   0.984   0.087
  191SOL    HW1  584   1.060   1.037   0.005
  191SOL    HW2  585   1.164   0.928   0.068
  192SOL     OW  586   1.861   1.569   0.851
  192SOL    HW1  587   1.790   1.557   0.781
  192SOL    HW2  588   1.862   1.490   0.911
  193SOL     OW  589   0.221   1.314   1.844
  193SOL    HW1  590   0.156   1.241   1.823
  193SOL    HW2  591   0.225   1.328   1.942
  194SOL     OW  592   0.079   1.240   0.653
  194SOL    HW1  593   0.078   1.193   0.741
  194SOL    HW2  594   0.161   1.212   0.602
  195SOL     OW  595   0.672   1.391   1.624
  195SOL    HW1  596   0.594   1.341   1.662
  195SOL    HW2  597   0.669   1.486   1.655
  196SOL     OW  598   1.824   0.192   1.227
  196SOL    HW1  599   1.820   0.102   1.271
  196SOL    HW2  600   1.827   0.181   1.128
  197SOL     OW  601   0.428   0.424   0.520
  197SOL    HW1  602   0.458   0.352   0.458
  197SOL    HW2  603   0.389   0.384   0.603
  198SOL     OW  604   0.317   0.547   1.280
  198SOL    HW1  605   0.355   0.488   1.352
  198SOL    HW2  606   0.357   0.521   1.192
  199SOL     OW  607   0.812   1.586   0.687
  199SOL    HW1  608   0.844   1.596   0.593
  199SOL    HW2  609   0.733   1.524   0.689
  200SOL     OW  610   1.424   0.214   1.112
  200SOL    HW1  611   1.476   0.149   1.167
  200SOL    HW2  612   1.375   0.277   1.173
  201SOL     OW  613   1.001   0.034   1.154
  201SOL    HW1  614   0.938  -0.038   1.123
  201SOL    HW2  615   1.094  -0.002   1.154
  202SOL     OW  616   0.770   1.330   0.301
  202SOL    HW1  617   0.724   1.243   0.318
  202SOL    HW2  618   0.861   1.327   0.342
  203SOL     OW  619   0.618   1.567   1.284
  203SOL    HW1  620   0.613   1.649   1.341
  203SOL    HW2  621   0.707   1.564   1.239
  204SOL     OW  622   1.352   0.052   0.168
  204SOL    HW1  623   1.387   0.011   0.084
  204SOL    HW2  624   1.262   0.014   0.188
  205SOL     OW  625   1.300   0.453   0.691
  205SOL    HW1  626   1.241   0.533   0.695
  205SOL    HW2  627   1.315   0.418   0.784
  206SOL     OW  628   1.593   0.221   0.882
  206SOL    HW1  629   1.509   0.220   0.936
  206SOL    HW2  630   1.595   0.304   0.826
  207SOL     OW  631   0.039   1.077   0.300
  207SOL    HW1  632   0.138   1.066   0.291
  207SOL    HW2  633  -0.001   0.991   0.332
  208SOL     OW  634   0.875   1.646   0.337
  208SOL    HW1  635   0.798   1.611   0.283
  208SOL    HW2  636   0.843   1.717   0.399
  209SOL     OW  637   0.230   0.628   1.975
  209SOL    HW1  638   0.137   0.626   2.012
  209SOL    HW2  639   0.231   0.589   1.883
  210SOL     OW  640   0.225   0.275   2.858
  210SOL    HW1  641   0.260   0.258   2.950
  210SOL    HW2  642   0.137   0.230   2.846
  211SOL     OW  643   0.019   0.368   2.509
  211SOL    HW1  644  -0.063   0.411   2.548
  211SOL    HW2  645  -0.009   0.295   2.446
  212SOL     OW  646   1.755   0.607   2.093
  212SOL    HW1  647   1.743   0.594   1.994
  212SOL    HW2  648   1.725   0.526   2.142
  213SOL     OW  649   0.685   1.012   2.527
  213SOL    HW1  650   0.754   0.996   2.597
  213SOL    HW2  651   0.612   1.069   2.565
  214SOL     OW  652   1.603   0.447   2.599
  214SOL    HW1  653   1.529   0.493   2.549
  214SOL    HW2  654   1.654   0.515   2.652
  215SOL     OW  655   0.231   1.713   2.345
  215SOL    HW1  656   0.265   1.790   2.399
  215SOL    HW2  657   0.275   1.713   2.255
  216SOL     OW  658   0.230   1.434   2.400
  216SOL    HW1  659   0.204   1.530   2.400
  216SOL    HW2  660   0.159   1.380   2.445
  217SOL     OW  661   0.240   1.091   2.748
  217SOL    HW1  662   0.254   1.007   2.800
  217SOL    HW2  663   0.185   1.155   2.803
  218SOL     OW  664   0.606   0.964   1.985
  218SOL    HW1  665   0.613   1.048   1.931
  218SOL    HW2  666   0.652   0.977   2.073
  219SOL     OW  667   0.122   0.643   2.425
  219SOL    HW1  668   0.077   0.555   2.442
  219SOL    HW2  669   0.121   0.697   2.509
  220SOL     OW  670   1.842   1.767   2.221
  220SOL    HW1  671   1.896   1.738   2.301
  220SOL    HW2  672   1.872   1.857   2.192
  221SOL     OW  673   0.027   1.596   1.979
  221SOL    HW1  674   0.008   1.500   2.000
  221SOL    HW2  675  -0.006   1.654   2.054
  222SOL     OW  676   1.689   0.922   2.474
  222SOL    HW1  677   1.784   0.893   2.482
  222SOL    HW2  678   1.681   0.987   2.399
  223SOL     OW  679   1.641   1.108   2.294
  223SOL    HW1  680   1.727   1.110   2.242
  223SOL    HW2  681   1.655   1.155   2.382
  224SOL     OW  682   0.613   1.365   2.588
  224SOL    HW1  683   0.564   1.278   2.597
  224SOL    HW2  684   0.590   1.408   2.501
  225SOL     OW  685   0.809   0.004   2.364
  225SOL    HW1  686   0.849   0.095   2.355
  225SOL    HW2  687   0.709   0.012   2.370
  226SOL     OW  688   1.525   0.999   2.052
  226SOL    HW1  689   1.462   0.923   2.065
  226SOL    HW2  690   1.573   1.017   2.138
  227SOL     OW  691   1.667   1.714   2.434
  227SOL    HW1  692   1.626   1.691   2.346
  227SOL    HW2  693   1.649   1.640   2.499
  228SOL     OW  694   0.598   0.729   2.132
  228SOL    HW1  695   0.622   0.798   2.064
  228SOL    HW2  696   0.520   0.762   2.186
  229SOL     OW  697   1.281   0.345   2.806
  229SOL    HW1  698   1.195   0.295   2.793
  229SOL    HW2  699   1.343   0.291   2.862
  230SOL     OW  700   1.576   1.662   2.169
  230SOL    HW1  701   1.665   1.708   2.172
  230SOL    HW2  702   1.555   1.638   2.074
  231SOL     OW  703   1.041   0.701   2.291
  231SOL    HW1  704   1.067   0.697   2.387
  231SOL    HW2  705   0.956   0.650   2.277
  232SOL     OW  706   0.076   0.811   2.651
  232SOL    HW1  707   0.175   0.799   2.660
  232SOL    HW2  708   0.052   0.906   2.672
  233SOL     OW  709   0.865   0.348   2.057
  233SOL    HW1  710   0.924   0.411   2.008
  233SOL    HW2  711   0.884   0.254   2.028
  234SOL     OW  712   1.362   1.144   2.407
  234SOL    HW1  713   1.445   1.115   2.359
  234SOL    HW2  714   1.313   1.211   2.351
  235SOL     OW  715   1.008   1.456   2.339
  235SOL    HW1  716   0.962   1.528   2.287
  235SOL    HW2  717   1.004   1.476   2.437
  236SOL     OW  718   0.351   1.801   2.715
  236SOL    HW1  719   0.401   1.715   2.721
  236SOL    HW2  720   0.416   1.878   2.712
  237SOL     OW  721   1.795   1.066   2.735
  237SOL    HW1  722   1.733   1.051   2.659
  237SOL    HW2  723   1.743   1.077   2.820
  238SOL     OW  724   0.321   0.943   2.104
  238SOL    HW1  725   0.403   0.982   2.062
  238SOL    HW2  726   0.294   0.861   2.055
  239SOL     OW  727   1.458   0.735   2.590
  239SOL    HW1  728   1.453   0.670   2.665
  239SOL    HW2  729   1.538   0.794   2.603
  240SOL     OW  730   1.111   1.776   2.099
  240SOL    HW1  731   1.051   1.714   2.149
  240SOL    HW2  732   1.142   1.732   2.014
  241SOL     OW  733   1.632   1.377   1.943
  241SOL    HW1  734   1.600   1.471   1.933
  241SOL    HW2  735   1.556   1.314   1.931
  242SOL     OW  736   0.464   1.743   2.185
  242SOL    HW1  737   0.497   1.782   2.271
  242SOL    HW2  738   0.540   1.736   2.120
  243SOL     OW  739   1.400   0.107   2.288
  243SOL    HW1  740   1.376   0.070   2.198
  243SOL    HW2  741   1.499   0.123   2.292
  244SOL     OW  742   0.940   1.698   2.766
  244SOL    HW1  743   1.020   1.641   2.787
  244SOL    HW2  744   0.891   1.658   2.689
  245SOL     OW  745   0.382   0.700   2.342
  245SOL    HW1  746   0.427   0.610   2.339
  245SOL    HW2  747   0.288   0.689   2.375
  246SOL     OW  748   0.614   0.122   1.979
  246SOL    HW1  749   0.712   0.100   1.986
  246SOL    HW2  750   0.583   0.105   1.886
  247SOL     OW  751   0.539   0.064   2.374
  247SOL    HW1  752   0.458   0.065   2.432
  247SOL    HW2  753   0.542   0.147   2.319
  248SOL     OW  754   1.434   1.188   1.903
  248SOL    HW1  755   1.466   1.112   1.960
  248SOL    HW2  756   1.342   1.215   1.933
  249SOL     OW  757   0.297   0.035   2.033
  249SOL    HW1  758   0.346   0.119   2.012
  249SOL    HW2  759   0.359  -0.030   2.078
  250SOL     OW  760   0.935   0.236   2.342
  250SOL    HW1  761   0.887   0.277   2.264
  250SOL    HW2  762   1.034   0.234   2.323
  251SOL     OW  763   0.459   1.152   2.603
  251SOL    HW1  764   0.388   1.125   2.668
  251SOL    HW2  765   0.433   1.124   2.510
  252SOL     OW  766   1.271   1.797   2.453
  252SOL    HW1  767   1.315   1.861   2.389
  252SOL    HW2  768   1.221   1.849   2.523
  253SOL     OW  769   1.032   0.549   1.878
  253SOL    HW1  770   0.991   0.631   1.839
  253SOL    HW2  771   1.096   0.575   1.951
  254SOL     OW  772   0.866   0.454   2.504
  254SOL    HW1  773   0.834   0.526   2.442
  254SOL    HW2  774   0.890   0.373   2.451
  255SOL     OW  775   1.017   0.039   2.615
  255SOL    HW1  776   0.945   0.044   2.546
  255SOL    HW2  777   0.993  -0.030   2.684
  256SOL     OW  778   1.857   0.833   2.239
  256SOL    HW1  779   1.899   0.769   2.303
  256SOL    HW2  780   1.819   0.782   2.161
  257SOL     OW  781   0.488   1.385   2.036
  257SOL    HW1  782   0.401   1.370   2.083
  257SOL    HW2  783   0.471   1.411   1.941
  258SOL     OW  784   1.664   1.280   2.519
  258SOL    HW1  785   1.763   1.288   2.533
  258SOL    HW2  786   1.619   1.364   2.550
  259SOL     OW  787   1.390   0.575   1.940
  259SOL    HW1  788   1.336   0.554   2.021
  259SOL    HW2  789   1.481   0.534   1.949
  260SOL     OW  790   0.527   0.256   2.190
  260SOL    HW1  791   0.554   0.197   2.115
  260SOL    HW2  792   0.527   0.351   2.159
  261SOL     OW  793   0.705   1.050   2.230
  261SOL    HW1  794   0.691   1.057   2.329
  261SOL    HW2  795   0.789   0.999   2.212
  262SOL     OW  796   0.367   1.100   2.363
  262SOL    HW1  797   0.360   1.183   2.307
  262SOL    HW2  798   0.371   1.020   2.303
  263SOL     OW  799   1.252   1.348   2.250
  263SOL    HW1  800   1.302   1.425   2.290
  263SOL    HW2  801   1.157   1.350   2.282
  264SOL     OW  802   1.582   0.639   2.334
  264SOL    HW1  803   1.551   0.700   2.407
  264SOL    HW2  804   1.632   0.691   2.265
  265SOL     OW  805   1.209   0.525   2.137
  265SOL    HW1  806   1.222   0.441   2.191
  265SOL    HW2  807   1.180   0.599   2.197
  266SOL     OW  808   0.307   0.063   2.480
  266SOL    HW1  809   0.296   0.157   2.513
  266SOL    HW2  810   0.302   0.000   2.557
  267SOL     OW  811   1.622   0.367   2.236
  267SOL    HW1  812   1.624   0.291   2.300
  267SOL    HW2  813   1.574   0.444   2.276
  268SOL     OW  814   1.023   0.766   2.828
  268SOL    HW1  815   1.038   0.787   2.924
  268SOL    HW2  816   0.993   0.671   2.819
  269SOL     OW  817   1.540   0.274   1.987
  269SOL    HW1  818   1.479   0.199   2.010
  269SOL    HW2  819   1.562   0.326   2.070
  270SOL     OW  820   1.303   0.838   1.904
  270SOL    HW1  821   1.337   0.745   1.919
  270SOL    HW2  822   1.321   0.865   1.809
  271SOL     OW  823   0.008   1.326   2.062
  271SOL    HW1  824  -0.085   1.347   2.031
  271SOL    HW2  825   0.018   1.227   2.075
  272SOL     OW  826   0.040   0.544   2.976
  272SOL    HW1  827   0.125   0.511   2.935
  272SOL    HW2  828   0.053   0.559   3.074
  273SOL     OW  829   0.815   0.572   2.187
  273SOL    HW1  830   0.822   0.483   2.141
  273SOL    HW2  831   0.721   0.606   2.179
  274SOL     OW  832   0.473   0.500   2.053
  274SOL    HW1  833   0.534   0.580   2.057
  274SOL    HW2  834   0.378   0.531   2.060
  275SOL     OW  835   1.302   0.855   2.171
  275SOL    HW1  836   1.216   0.824   2.213
  275SOL    HW2  837   1.298   0.841   2.072
  276SOL     OW  838   1.726   0.135   2.385
  276SOL    HW1  839   1.799   0.118   2.318
  276SOL    HW2  840   1.695   0.048   2.423
  277SOL     OW  841   1.388   1.573   2.339
  277SOL    HW1  842   1.455   1.585   2.265
  277SOL    HW2  843   1.348   1.662   2.362
  278SOL     OW  844   0.672   1.616   2.016
  278SOL    HW1  845   0.681   1.626   1.917
  278SOL    HW2  846   0.632   1.527   2.037
  279SOL     OW  847   1.841   0.175   2.825
  279SOL    HW1  848   1.880   0.090   2.789
  279SOL    HW2  849   1.743   0.177   2.806
  280SOL     OW  850   0.263   0.326   2.582
  280SOL    HW1  851   0.184   0.377   2.548
  280SOL    HW2  852   0.254   0.311   2.680
  281SOL     OW  853   1.194   1.612   1.893
  281SOL    HW1  854   1.200   1.519   1.930
  281SOL    HW2  855   1.135   1.612   1.813
  282SOL     OW  856   0.916   0.910   2.153
  282SOL    HW1  857   0.979   0.948   2.085
  282SOL    HW2  858   0.956   0.827   2.192
  283SOL     OW  859   1.504   1.607   1.906
  283SOL    HW1  860   1.412   1.644   1.913
  283SOL    HW2  861   1.542   1.627   1.816
  284SOL     OW  862   0.590   1.487   2.353
  284SOL    HW1  863   0.632   1.429   2.283
  284SOL    HW2  864   0.546   1.566   2.309
  285SOL     OW  865   0.255   1.348   2.152
  285SOL    HW1  866   0.159   1.349   2.125
  285SOL    HW2  867   0.267   1.401   2.236
  286SOL     OW  868   0.075   0.345   1.895
  286SOL    HW1  869  -0.017   0.317   1.866
  286SOL    HW2  870   0.106   0.422   1.839
  287SOL     OW  871   0.072   0.166   2.180
  287SOL    HW1  872   0.055   0.249   2.126
  287SOL    HW2  873   0.162   0.129   2.158
  288SOL     OW  874   1.183   1.335   1.981
  288SOL    HW1  875   1.084   1.324   1.983
  288SOL    HW2  876   1.217   1.350   2.074
  289SOL     OW  877   1.225   0.325   2.311
  289SOL    HW1  878   1.290   0.251   2.300
  289SOL    HW2  879   1.245   0.375   2.395
  290SOL     OW  880   0.594   0.745   2.514
  290SOL    HW1  881   0.644   0.830   2.495
  290SOL    HW2  882   0.506   0.747   2.466
  291SOL     OW  883   0.859   1.374   1.878
  291SOL    HW1  884   0.813   1.389   1.966
  291SOL    HW2  885   0.903   1.459   1.848
  292SOL     OW  886   0.661   1.790   2.815
  292SOL    HW1  887   0.615   1.878   2.802
  292SOL    HW2  888   0.760   1.802   2.808
  293SOL     OW  889   0.859   0.956   2.723
  293SOL    HW1  890   0.913   0.887   2.771
  293SOL    HW2  891   0.827   1.025   2.789
  294SOL     OW  892   1.083   0.984   1.949
  294SOL    HW1  893   1.060   1.037   1.867
  294SOL    HW2  894   1.164   0.928   1.930
  295SOL     OW  895   0.079   1.240   2.515
  295SOL    HW1  896   0.078   1.193   2.603
  295SOL    HW2  897   0.161   1.212   2.464
  296SOL     OW  898   0.428   0.424   2.382
  296SOL    HW1  899   0.458   0.352   2.320
  296SOL    HW2  900   0.389   0.384   2.465
  297SOL     OW  901   1.705   1.487   2.966
  297SOL    HW1  902   1.612   1.462   2.939
  297SOL    HW2  903   1.731   1.437   3.048
  298SOL     OW  904   0.812   1.586   2.549
  298SOL    HW1  905   0.844   1.596   2.455
  298SOL    HW2  906   0.733   1.524   2.551
  299SOL     OW  907   0.770   1.330   2.163
  299SOL    HW1  908   0.724   1.243   2.180
  299SOL    HW2  909   0.861   1.327   2.204
  300SOL     OW  910   1.352   0.052   2.030
  300SOL    HW1  911   1.387   0.011   1.946
  300SOL    HW2  912   1.262   0.014   2.050
  301SOL     OW  913   1.300   0.453   2.553
  301SOL    HW1  914   1.241   0.533   2.557
  301SOL    HW2  915   1.315   0.418   2.646
  302SOL     OW  916   0.039   1.077   2.162
  302SOL    HW1  917   0.138   1.066   2.153
  302SOL    HW2  918  -0.001   0.991   2.194
  303SOL     OW  919   0.875   1.646   2.199
  303SOL    HW1  920   0.798   1.611   2.145
  303SOL    HW2  921   0.843   1.717   2.261
  304SOL     OW  922   0.230   2.490   0.113
  304SOL    HW1  923   0.137   2.488   0.150
  304SOL    HW2  924   0.231   2.451   0.021
  305SOL     OW  925   0.225   2.137   0.996
  305SOL    HW1  926   0.260   2.120   1.088
  305SOL    HW2  927   0.137   2.092   0.984
  306SOL     OW  928   0.019   2.230   0.647
  306SOL    HW1  929  -0.063   2.273   0.686
  306SOL    HW2  930  -0.009   2.157   0.584
  307SOL     OW  931   1.755   2.469   0.231
  307SOL    HW1  932   1.743   2.456   0.132
  307SOL    HW2  933   1.725   2.388   0.280
  308SOL     OW  934   0.850   2.660   1.823
  308SOL    HW1  935   0.846   2.736   1.888
  308SOL    HW2  936   0.872   2.696   1.732
  309SOL     OW  937   0.685   2.874   0.665
  309SOL    HW1  938   0.754   2.858   0.735
  309SOL    HW2  939   0.612   2.931   0.703
  310SOL     OW  940   0.438   2.254   1.499
  310SOL    HW1  941   0.520   2.198   1.508
  310SOL    HW2  942   0.357   2.196   1.503
  311SOL     OW  943   1.603   2.309   0.737
  311SOL    HW1  944   1.529   2.355   0.687
  311SOL    HW2  945   1.654   2.377   0.790
  312SOL     OW  946   1.594   1.976   1.480
  312SOL    HW1  947   1.576   2.043   1.408
  312SOL    HW2  948   1.591   2.022   1.569
  313SOL     OW  949   0.122   2.505   0.563
  313SOL    HW1  950   0.077   2.417   0.580
  313SOL    HW2  951   0.121   2.559   0.647
  314SOL     OW  952   0.113   2.599   1.597
  314SOL    HW1  953   0.201   2.586   1.642
  314SOL    HW2  954   0.100   2.696   1.575
  315SOL     OW  955   0.809   1.866   0.502
  315SOL    HW1  956   0.849   1.957   0.493
  315SOL    HW2  957   0.709   1.874   0.508
  316SOL     OW  958   0.317   2.113   1.801
  316SOL    HW1  959   0.388   2.184   1.807
  316SOL    HW2  960   0.229   2.152   1.829
  317SOL     OW  961   0.598   2.591   0.270
  317SOL    HW1  962   0.622   2.660   0.202
  317SOL    HW2  963   0.520   2.624   0.324
  318SOL     OW  964   1.281   2.207   0.944
  318SOL    HW1  965   1.195   2.157   0.931
  318SOL    HW2  966   1.343   2.153   1.000
  319SOL     OW  967   0.807   2.467   1.465
  319SOL    HW1  968   0.760   2.464   1.554
  319SOL    HW2  969   0.756   2.412   1.399
  320SOL     OW  970   1.394   2.331   1.674
  320SOL    HW1  971   1.374   2.374   1.762
  320SOL    HW2  972   1.472   2.269   1.683
  321SOL     OW  973   0.991   2.272   1.242
  321SOL    HW1  974   0.914   2.306   1.296
  321SOL    HW2  975   0.957   2.221   1.163
  322SOL     OW  976   1.041   2.563   0.429
  322SOL    HW1  977   1.067   2.559   0.525
  322SOL    HW2  978   0.956   2.512   0.415
  323SOL     OW  979   0.076   2.673   0.789
  323SOL    HW1  980   0.175   2.661   0.798
  323SOL    HW2  981   0.052   2.768   0.810
  324SOL     OW  982   0.865   2.210   0.195
  324SOL    HW1  983   0.924   2.273   0.146
  324SOL    HW2  984   0.884   2.116   0.166
  325SOL     OW  985   1.719   2.447   1.831
  325SOL    HW1  986   1.693   2.536   1.795
  325SOL    HW2  987   1.717   2.379   1.758
  326SOL     OW  988   0.550   2.058   0.885
  326SOL    HW1  989   0.545   2.053   0.985
  326SOL    HW2  990   0.552   2.154   0.856
  327SOL     OW  991   1.458   2.597   0.728
  327SOL    HW1  992   1.453   2.532   0.803
  327SOL    HW2  993   1.538   2.656   0.741
  328SOL     OW  994   0.202   2.147   1.498
  328SOL    HW1  995   0.122   2.207   1.485
  328SOL    HW2  996   0.192   2.098   1.584
  329SOL     OW  997   1.400   1.969   0.426
  329SOL    HW1  998   1.376   1.932   0.336
  329SOL    HW2  999   1.499   1.985   0.430
  330SOL     OW 1000   0.382   2.562   0.480
  330SOL    HW1 1001   0.427   2.472   0.477
  330SOL    HW2 1002   0.288   2.551   0.513
  331SOL     OW 1003   1.547   2.084   1.729
  331SOL    HW1 1004   1.542   2.121   1.821
  331SOL    HW2 1005   1.475   2.015   1.717
  332SOL     OW 1006   0.781   2.126   1.749
  332SOL    HW1 1007   0.848   2.065   1.792
  332SOL    HW2 1008   0.708   2.145   1.814
  333SOL     OW 1009   1.351   2.452   1.433
  333SOL    HW1 1010   1.379   2.409   1.518
  333SOL    HW2 1011   1.376   2.548   1.434
  334SOL     OW 1012   0.922   2.365   0.899
  334SOL    HW1 1013   0.897   2.356   0.803
  334SOL    HW2 1014   0.970   2.283   0.930
  335SOL     OW 1015   0.539   1.926   0.512
  335SOL    HW1 1016   0.458   1.927   0.570
  335SOL    HW2 1017   0.542   2.009   0.457
  336SOL     OW 1018   0.297   1.897   0.171
  336SOL    HW1 1019   0.346   1.981   0.150
  336SOL    HW2 1020   0.359   1.832   0.216
  337SOL     OW 1021   0.935   2.098   0.480
  337SOL    HW1 1022   0.887   2.139   0.402
  337SOL    HW2 1023   1.034   2.096   0.461
  338SOL     OW 1024   1.076   2.545   1.464
  338SOL    HW1 1025   0.996   2.484   1.467
  338SOL    HW2 1026   1.157   2.492   1.440
  339SOL     OW 1027   1.032   2.411   0.016
  339SOL    HW1 1028   0.991   2.493  -0.023
  339SOL    HW2 1029   1.096   2.437   0.089
  340SOL     OW 1030   0.078   2.418   1.386
  340SOL    HW1 1031   0.170   2.417   1.345
  340SOL    HW2 1032   0.072   2.492   1.453
  341SOL     OW 1033   0.561   2.084   1.147
  341SOL    HW1 1034   0.599   2.000   1.184
  341SOL    HW2 1035   0.473   2.103   1.191
  342SOL     OW 1036   0.866   2.316   0.642
  342SOL    HW1 1037   0.834   2.388   0.580
  342SOL    HW2 1038   0.890   2.235   0.589
  343SOL     OW 1039   1.017   1.901   0.753
  343SOL    HW1 1040   0.945   1.906   0.684
  343SOL    HW2 1041   0.993   1.832   0.822
  344SOL     OW 1042   1.466   2.452   0.992
  344SOL    HW1 1043   1.436   2.357   0.999
  344SOL    HW2 1044   1.539   2.468   1.058
  345SOL     OW 1045   1.857   2.695   0.377
  345SOL    HW1 1046   1.899   2.631   0.441
  345SOL    HW2 1047   1.819   2.644   0.299
  346SOL     OW 1048   1.390   2.437   0.078
  346SOL    HW1 1049   1.336   2.416   0.159
  346SOL    HW2 1050   1.481   2.396   0.087
  347SOL     OW 1051   0.527   2.118   0.328
  347SOL    HW1 1052   0.554   2.059   0.253
  347SOL    HW2 1053   0.527   2.213   0.297
  348SOL     OW 1054   0.915   1.951   1.402
  348SOL    HW1 1055   0.940   1.931   1.307
  348SOL    HW2 1056   0.987   2.007   1.444
  349SOL     OW 1057   0.705   2.912   0.368
  349SOL    HW1 1058   0.691   2.919   0.467
  349SOL    HW2 1059   0.789   2.861   0.350
  350SOL     OW 1060   0.410   2.675   1.251
  350SOL    HW1 1061   0.496   2.687   1.301
  350SOL    HW2 1062   0.368   2.588   1.278
  351SOL     OW 1063   1.274   2.248   1.262
  351SOL    HW1 1064   1.295   2.322   1.326
  351SOL    HW2 1065   1.185   2.265   1.219
  352SOL     OW 1066   0.566   2.399   0.865
  352SOL    HW1 1067   0.578   2.465   0.791
  352SOL    HW2 1068   0.612   2.433   0.948
  353SOL     OW 1069   1.582   2.501   0.472
  353SOL    HW1 1070   1.551   2.562   0.545
  353SOL    HW2 1071   1.632   2.553   0.403
  354SOL     OW 1072   1.587   2.641   1.670
  354SOL    HW1 1073   1.495   2.679   1.665
  354SOL    HW2 1074   1.647   2.688   1.605
  355SOL     OW 1075   1.013   1.967   1.770
  355SOL    HW1 1076   1.019   2.052   1.718
  355SOL    HW2 1077   1.045   1.891   1.713
  356SOL     OW 1078   0.504   1.912   1.740
  356SOL    HW1 1079   0.462   1.855   1.670
  356SOL    HW2 1080   0.438   1.981   1.772
  357SOL     OW 1081   1.360   2.724   1.045
  357SOL    HW1 1082   1.285   2.724   0.979
  357SOL    HW2 1083   1.397   2.632   1.054
  358SOL     OW 1084   1.209   2.387   0.275
  358SOL    HW1 1085   1.222   2.303   0.329
  358SOL    HW2 1086   1.180   2.461   0.335
  359SOL     OW 1087   0.307   2.075   1.231
  359SOL    HW1 1088   0.284   2.112   1.321
  359SOL    HW2 1089   0.277   1.980   1.225
  360SOL     OW 1090   0.732   2.496   1.064
  360SOL    HW1 1091   0.791   2.470   0.988
  360SOL    HW2 1092   0.704   2.592   1.053
  361SOL     OW 1093   1.728   2.797   1.854
  361SOL    HW1 1094   1.682   2.790   1.765
  361SOL    HW2 1095   1.666   2.841   1.920
  362SOL     OW 1096   0.307   1.925   0.618
  362SOL    HW1 1097   0.296   2.019   0.651
  362SOL    HW2 1098   0.302   1.862   0.695
  363SOL     OW 1099   1.622   2.229   0.374
  363SOL    HW1 1100   1.624   2.153   0.438
  363SOL    HW2 1101   1.574   2.306   0.414
  364SOL     OW 1102   1.540   2.136   0.125
  364SOL    HW1 1103   1.479   2.061   0.148
  364SOL    HW2 1104   1.562   2.188   0.208
  365SOL     OW 1105   0.319   2.672   0.949
  365SOL    HW1 1106   0.412   2.708   0.954
  365SOL    HW2 1107   0.313   2.587   1.001
  366SOL     OW 1108   0.339   2.371   1.006
  366SOL    HW1 1109   0.287   2.288   0.989
  366SOL    HW2 1110   0.416   2.376   0.942
  367SOL     OW 1111   1.138   2.242   1.678
  367SOL    HW1 1112   1.093   2.305   1.742
  367SOL    HW2 1113   1.231   2.273   1.661
  368SOL     OW 1114   1.160   2.069   1.477
  368SOL    HW1 1115   1.160   2.133   1.554
  368SOL    HW2 1116   1.188   2.117   1.394
  369SOL     OW 1117   0.040   2.406   1.114
  369SOL    HW1 1118   0.125   2.373   1.073
  369SOL    HW2 1119   0.053   2.421   1.212
  370SOL     OW 1120   0.189   2.382   1.722
  370SOL    HW1 1121   0.248   2.342   1.652
  370SOL    HW2 1122   0.131   2.453   1.681
  371SOL     OW 1123   0.815   2.434   0.325
  371SOL    HW1 1124   0.822   2.345   0.279
  371SOL    HW2 1125   0.721   2.468   0.317
  372SOL     OW 1126   1.657   2.466   1.206
  372SOL    HW1 1127   1.619   2.397   1.268
  372SOL    HW2 1128   1.739   2.430   1.162
  373SOL     OW 1129   0.671   2.326   1.269
  373SOL    HW1 1130   0.637   2.237   1.239
  373SOL    HW2 1131   0.697   2.380   1.189
  374SOL     OW 1132   0.473   2.362   0.191
  374SOL    HW1 1133   0.534   2.442   0.195
  374SOL    HW2 1134   0.378   2.393   0.198
  375SOL     OW 1135   0.903   1.948   0.133
  375SOL    HW1 1136   0.954   1.949   0.047
  375SOL    HW2 1137   0.959   1.906   0.204
  376SOL     OW 1138   1.726   1.997   0.523
  376SOL    HW1 1139   1.799   1.980   0.456
  376SOL    HW2 1140   1.695   1.910   0.561
  377SOL     OW 1141   1.280   2.789   0.672
  377SOL    HW1 1142   1.340   2.708   0.674
  377SOL    HW2 1143   1.320   2.858   0.612
  378SOL     OW 1144   1.841   2.037   0.963
  378SOL    HW1 1145   1.880   1.952   0.927
  378SOL    HW2 1146   1.743   2.039   0.944
  379SOL     OW 1147   0.263   2.188   0.720
  379SOL    HW1 1148   0.184   2.239   0.686
  379SOL    HW2 1149   0.254   2.173   0.818
  380SOL     OW 1150   1.014   2.098   0.971
  380SOL    HW1 1151   1.006   2.062   0.878
  380SOL    HW2 1152   1.012   2.022   1.036
  381SOL     OW 1153   1.709   2.247   1.381
  381SOL    HW1 1154   1.782   2.316   1.385
  381SOL    HW2 1155   1.737   2.172   1.322
  382SOL     OW 1156   0.105   2.875   1.726
  382SOL    HW1 1157   0.028   2.842   1.780
  382SOL    HW2 1158   0.190   2.845   1.768
  383SOL     OW 1159   0.672   2.065   1.489
  383SOL    HW1 1160   0.762   2.049   1.449
  383SOL    HW2 1161   0.680   2.070   1.588
  384SOL     OW 1162   0.075   2.207   0.033
  384SOL    HW1 1163  -0.017   2.179   0.004
  384SOL    HW2 1164   0.106   2.284  -0.023
  385SOL     OW 1165   0.072   2.028   0.318
  385SOL    HW1 1166   0.055   2.111   0.264
  385SOL    HW2 1167   0.162   1.991   0.296
  386SOL     OW 1168   0.716   2.427   1.708
  386SOL    HW1 1169   0.735   2.492   1.782
  386SOL    HW2 1170   0.776   2.347   1.717
  387SOL     OW 1171   1.674   2.745   1.254
  387SOL    HW1 1172   1.647   2.656   1.217
  387SOL    HW2 1173   1.675   2.813   1.181
  388SOL     OW 1174   1.225   2.187   0.449
  388SOL    HW1 1175   1.290   2.113   0.438
  388SOL    HW2 1176   1.245   2.237   0.533
  389SOL     OW 1177   0.594   2.607   0.652
  389SOL    HW1 1178   0.644   2.692   0.633
  389SOL    HW2 1179   0.506   2.609   0.604
  390SOL     OW 1180   1.777   2.204   1.642
  390SOL    HW1 1181   1.760   2.235   1.548
  390SOL    HW2 1182   1.693   2.167   1.680
  391SOL     OW 1183   0.859   2.818   0.861
  391SOL    HW1 1184   0.913   2.749   0.909
  391SOL    HW2 1185   0.827   2.887   0.927
  392SOL     OW 1186   1.824   2.054   1.227
  392SOL    HW1 1187   1.820   1.964   1.271
  392SOL    HW2 1188   1.827   2.043   1.128
  393SOL     OW 1189   0.428   2.286   0.520
  393SOL    HW1 1190   0.458   2.214   0.458
  393SOL    HW2 1191   0.389   2.246   0.603
  394SOL     OW 1192   0.317   2.409   1.280
  394SOL    HW1 1193   0.355   2.350   1.352
  394SOL    HW2 1194   0.357   2.383   1.192
  395SOL     OW 1195   1.424   2.076   1.112
  395SOL    HW1 1196   1.476   2.011   1.167
  395SOL    HW2 1197   1.375   2.139   1.173
  396SOL     OW 1198   1.001   1.896   1.154
  396SOL    HW1 1199   0.938   1.824   1.123
  396SOL    HW2 1200   1.094   1.860   1.154
  397SOL     OW 1201   1.352   1.914   0.168
  397SOL    HW1 1202   1.387   1.873   0.084
  397SOL    HW2 1203   1.262   1.876   0.188
  398SOL     OW 1204   1.300   2.315   0.691
  398SOL    HW1 1205   1.241   2.395   0.695
  398SOL    HW2 1206   1.315   2.280   0.784
  399SOL     OW 1207   1.593   2.083   0.882
  399SOL    HW1 1208   1.509   2.082   0.936
  399SOL    HW2 1209   1.595   2.166   0.826
  400SOL     OW 1210   0.230   2.490   1.975
  400SOL    HW1 1211   0.137   2.488   2.012
  400SOL    HW2 1212   0.231   2.451   1.883
  401SOL     OW 1213   0.225   2.137   2.858
  401SOL    HW1 1214   0.260   2.120   2.950
  401SOL    HW2 1215   0.137   2.092   2.846
  402SOL     OW 1216   0.019   2.230   2.509
  402SOL    HW1 1217  -0.063   2.273   2.548
  402SOL    HW2 1218  -0.009   2.157   2.446
  403SOL     OW 1219   1.755   2.469   2.093
  403SOL    HW1 1220   1.743   2.456   1.994
  403SOL    HW2 1221   1.725   2.388   2.142
  404SOL     OW 1222   0.685   2.874   2.527
  404SOL    HW1 1223   0.754   2.858   2.597
  404SOL    HW2 1224   0.612   2.931   2.565
  405SOL     OW 1225   1.603   2.309   2.599
  405SOL    HW1 1226   1.529   2.355   2.549
  405SOL    HW2 1227   1.654   2.377   2.652
  406SOL     OW 1228   0.122   2.505   2.425
  406SOL    HW1 1229   0.077   2.417   2.442
  406SOL    HW2 1230   0.121   2.559   2.509
  407SOL     OW 1231   0.809   1.866   2.364
  407SOL    HW1 1232   0.849   1.957   2.355
  407SOL    HW2 1233   0.709   1.874   2.370
  408SOL     OW 1234   0.598   2.591   2.132
  408SOL    HW1 1235   0.622   2.660   2.064
  408SOL    HW2 1236   0.520   2.624   2.186
  409SOL     OW 1237   1.281   2.207   2.806
  409SOL    HW1 1238   1.195   2.157   2.793
  409SOL    HW2 1239   1.343   2.153   2.862
  410SOL     OW 1240   1.041   2.563   2.291
  410SOL    HW1 1241   1.067   2.559   2.387
  410SOL    HW2 1242   0.956   2.512   2.277
  411SOL     OW 1243   0.076   2.673   2.651
  411SOL    HW1 1244   0.175   2.661   2.660
  411SOL    HW2 1245   0.052   2.768   2.672
  412SOL     OW 1246   0.865   2.210   2.057
  412SOL    HW1 1247   0.924   2.273   2.008
  412SOL    HW2 1248   0.884   2.116   2.028
  413SOL     OW 1249   1.458   2.597   2.590
  413SOL    HW1 1250   1.453   2.532   2.665
  413SOL    HW2 1251   1.538   2.656   2.603
  414SOL     OW 1252   1.400   1.969   2.288
  414SOL    HW1 1253   1.376   1.932   2.198
  414SOL    HW2 1254   1.499   1.985   2.292
  415SOL     OW 1255   0.382   2.562   2.342
  415SOL    HW1 1256   0.427   2.472   2.339
  415SOL    HW2 1257   0.288   2.551   2.375
  416SOL     OW 1258   0.614   1.984   1.979
  416SOL    HW1 1259   0.712   1.962   1.986
  416SOL    HW2 1260   0.583   1.967   1.886
  417SOL     OW 1261   0.539   1.926   2.374
  417SOL    HW1 1262   0.458   1.927   2.432
  417SOL    HW2 1263   0.542   2.009   2.319
  418SOL     OW 1264   0.297   1.897   2.033
  418SOL    HW1 1265   0.346   1.981   2.012
  418SOL    HW2 1266   0.359   1.832   2.078
  419SOL     OW 1267   0.935   2.098   2.342
  419SOL    HW1 1268   0.887   2.139   2.264
  419SOL    HW2 1269   1.034   2.096   2.323
  420SOL     OW 1270   1.032   2.411   1.878
  420SOL    HW1 1271   0.991   2.493   1.839
  420SOL    HW2 1272   1.096   2.437   1.951
  421SOL     OW 1273   0.866   2.316   2.504
  421SOL    HW1 1274   0.834   2.388   2.442
  421SOL    HW2 1275   0.890   2.235   2.451
  422SOL     OW 1276   1.017   1.901   2.615
  422SOL    HW1 1277   0.945   1.906   2.546
  422SOL    HW2 1278   0.993   1.832   2.684
  423SOL     OW 1279   1.857   2.695   2.239
  423SOL    HW1 1280   1.899   2.631   2.303
  423SOL    HW2 1281   1.819   2.644   2.161
  424SOL     OW 1282   1.390   2.437   1.940
  424SOL    HW1 1283   1.336   2.416   2.021
  424SOL    HW2 1284   1.481   2.396   1.949
  425SOL     OW 1285   0.527   2.118   2.190
  425SOL    HW1 1286   0.554   2.059   2.115
  425SOL    HW2 1287   0.527   2.213   2.159
  426SOL     OW 1288   0.705   2.912   2.230
  426SOL    HW1 1289   0.691   2.919   2.329
  426SOL    HW2 1290   0.789   2.861   2.212
  427SOL     OW 1291   1.582   2.501   2.334
  427SOL    HW1 1292   1.551   2.562   2.407
  427SOL    HW2 1293   1.632   2.553   2.265
  428SOL     OW 1294   1.209   2.387   2.137
  428SOL    HW1 1295   1.222   2.303   2.191
  428SOL    HW2 1296   1.180   2.461   2.197
  429SOL     OW 1297   0.307   1.925   2.480
  429SOL    HW1 1298   0.296   2.019   2.513
  429SOL    HW2 1299   0.302   1.862   2.557
  430SOL     OW 1300   1.622   2.229   2.236
  430SOL    HW1 1301   1.624   2.153   2.300
  430SOL    HW2 1302   1.574   2.306   2.276
  431SOL     OW 1303   1.540   2.136   1.987
  431SOL    HW1 1304   1.479   2.061   2.010
  431SOL    HW2 1305   1.562   2.188   2.070
  432SOL     OW 1306   0.040   2.406   2.976
  432SOL    HW1 1307   0.125   2.373   2.935
  432SOL    HW2 1308   0.053   2.421   3.074
  433SOL     OW 1309   0.815   2.434   2.187
  433SOL    HW1 1310   0.822   2.345   2.141
  433SOL    HW2 1311   0.721   2.468   2.179
  434SOL     OW 1312   0.473   2.362   2.053
  434SOL    HW1 1313   0.534   2.442   2.057
  434SOL    HW2 1314   0.378   2.393   2.060
  435SOL     OW 1315   1.726   1.997   2.385
  435SOL    HW1 1316   1.799   1.980   2.318
  435SOL    HW2 1317   1.695   1.910   2.423
  436SOL     OW 1318   1.280   2.789   2.534
  436SOL    HW1 1319   1.340   2.708   2.536
  436SOL    HW2 1320   1.320   2.858   2.474
  437SOL     OW 1321   1.841   2.037   2.825
  437SOL    HW1 1322   1.880   1.952   2.789
  437SOL    HW2 1323   1.743   2.039   2.806
  438SOL     OW 1324   0.263   2.188   2.582
  438SOL    HW1 1325   0.184   2.239   2.548
  438SOL    HW2 1326   0.254   2.173   2.680
  439SOL     OW 1327   0.916   2.772   2.153
  439SOL    HW1 1328   0.979   2.810   2.085
  439SOL    HW2 1329   0.956   2.689   2.192
  440SOL     OW 1330   1.039   2.960   2.558
  440SOL    HW1 1331   0.969   2.913   2.612
  440SOL    HW2 1332   1.098   2.892   2.515
  441SOL     OW 1333   0.075   2.207   1.895
  441SOL    HW1 1334  -0.017   2.179   1.866
  441SOL    HW2 1335   0.106   2.284   1.839
  442SOL     OW 1336   0.072   2.028   2.180
  442SOL    HW1 1337   0.055   2.111   2.126
  442SOL    HW2 1338   0.162   1.991   2.158
  443SOL     OW 1339   1.225   2.187   2.311
  443SOL    HW1 1340   1.290   2.113   2.300
  443SOL    HW2 1341   1.245   2.237   2.395
  444SOL     OW 1342   0.594   2.607   2.514
  444SOL    HW1 1343   0.644   2.692   2.495
  444SOL    HW2 1344   0.506   2.609   2.466
  445SOL     OW 1345   0.428   2.286   2.382
  445SOL    HW1 1346   0.458   2.214   2.320
  445SOL    HW2 1347   0.389   2.246   2.465
  446SOL     OW 1348   1.352   1.914   2.030
  446SOL    HW1 1349   1.387   1.873   1.946
  446SOL    HW2 1350   1.262   1.876   2.050
  447SOL     OW 1351   1.300   2.315   2.553
  447SOL    HW1 1352   1.241   2.395   2.557
  447SOL    HW2 1353   1.315   2.280   2.646
  448SOL     OW 1354   2.092   0.628   0.113
  448SOL    HW1 1355   1.999   0.626   0.150
  448SOL    HW2 1356   2.093   0.589   0.021
  449SOL     OW 1357   2.087   0.275   0.996
  449SOL    HW1 1358   2.122   0.258   1.088
  449SOL    HW2 1359   1.999   0.230   0.984
  450SOL     OW 1360   1.881   0.368   0.647
  450SOL    HW1 1361   1.799   0.411   0.686
  450SOL    HW2 1362   1.853   0.295   0.584
  451SOL     OW 1363   2.431   1.275   1.165
  451SOL    HW1 1364   2.338   1.268   1.128
  451SOL    HW2 1365   2.442   1.364   1.209
  452SOL     OW 1366   2.712   0.798   1.823
  452SOL    HW1 1367   2.708   0.874   1.888
  452SOL    HW2 1368   2.734   0.834   1.732
  453SOL     OW 1369   2.547   1.012   0.665
  453SOL    HW1 1370   2.616   0.996   0.735
  453SOL    HW2 1371   2.474   1.069   0.703
  454SOL     OW 1372   2.548   1.161   1.803
  454SOL    HW1 1373   2.608   1.240   1.817
  454SOL    HW2 1374   2.462   1.192   1.762
  455SOL     OW 1375   2.197   1.435   1.061
  455SOL    HW1 1376   2.119   1.404   1.008
  455SOL    HW2 1377   2.255   1.493   1.004
  456SOL     OW 1378   2.300   0.392   1.499
  456SOL    HW1 1379   2.382   0.336   1.508
  456SOL    HW2 1380   2.219   0.334   1.503
  457SOL     OW 1381   2.093   1.713   0.483
  457SOL    HW1 1382   2.127   1.790   0.537
  457SOL    HW2 1383   2.137   1.713   0.393
  458SOL     OW 1384   2.092   1.434   0.538
  458SOL    HW1 1385   2.066   1.530   0.538
  458SOL    HW2 1386   2.021   1.380   0.583
  459SOL     OW 1387   2.102   1.091   0.886
  459SOL    HW1 1388   2.116   1.007   0.938
  459SOL    HW2 1389   2.047   1.155   0.941
  460SOL     OW 1390   2.482   1.786   1.439
  460SOL    HW1 1391   2.390   1.769   1.474
  460SOL    HW2 1392   2.510   1.878   1.465
  461SOL     OW 1393   2.468   0.964   0.123
  461SOL    HW1 1394   2.475   1.048   0.069
  461SOL    HW2 1395   2.514   0.977   0.211
  462SOL     OW 1396   1.984   0.643   0.563
  462SOL    HW1 1397   1.939   0.555   0.580
  462SOL    HW2 1398   1.983   0.697   0.647
  463SOL     OW 1399   1.889   1.596   0.117
  463SOL    HW1 1400   1.870   1.500   0.138
  463SOL    HW2 1401   1.856   1.654   0.192
  464SOL     OW 1402   1.975   0.737   1.597
  464SOL    HW1 1403   2.063   0.724   1.642
  464SOL    HW2 1404   1.962   0.834   1.575
  465SOL     OW 1405   2.475   1.365   0.726
  465SOL    HW1 1406   2.426   1.278   0.735
  465SOL    HW2 1407   2.452   1.408   0.639
  466SOL     OW 1408   2.671   0.004   0.502
  466SOL    HW1 1409   2.711   0.095   0.493
  466SOL    HW2 1410   2.571   0.012   0.508
  467SOL     OW 1411   2.059   0.976   1.264
  467SOL    HW1 1412   2.148   0.931   1.250
  467SOL    HW2 1413   1.986   0.911   1.245
  468SOL     OW 1414   2.179   0.251   1.801
  468SOL    HW1 1415   2.250   0.322   1.807
  468SOL    HW2 1416   2.091   0.290   1.829
  469SOL     OW 1417   2.460   0.729   0.270
  469SOL    HW1 1418   2.484   0.798   0.202
  469SOL    HW2 1419   2.382   0.762   0.324
  470SOL     OW 1420   1.938   0.811   0.789
  470SOL    HW1 1421   2.037   0.799   0.798
  470SOL    HW2 1422   1.914   0.906   0.810
  471SOL     OW 1423   1.992   1.821   1.571
  471SOL    HW1 1424   1.982   1.806   1.670
  471SOL    HW2 1425   1.906   1.857   1.535
  472SOL     OW 1426   2.412   0.196   0.885
  472SOL    HW1 1427   2.407   0.191   0.985
  472SOL    HW2 1428   2.414   0.292   0.856
  473SOL     OW 1429   2.213   1.801   0.853
  473SOL    HW1 1430   2.263   1.715   0.859
  473SOL    HW2 1431   2.278   1.878   0.850
  474SOL     OW 1432   2.183   0.943   0.242
  474SOL    HW1 1433   2.265   0.982   0.200
  474SOL    HW2 1434   2.156   0.861   0.193
  475SOL     OW 1435   2.323   1.266   1.727
  475SOL    HW1 1436   2.273   1.267   1.641
  475SOL    HW2 1437   2.260   1.248   1.803
  476SOL     OW 1438   2.064   0.285   1.498
  476SOL    HW1 1439   1.984   0.345   1.485
  476SOL    HW2 1440   2.054   0.236   1.584
  477SOL     OW 1441   2.326   1.743   0.323
  477SOL    HW1 1442   2.359   1.782   0.409
  477SOL    HW2 1443   2.402   1.736   0.258
  478SOL     OW 1444   2.111   1.785   1.241
  478SOL    HW1 1445   2.168   1.720   1.291
  478SOL    HW2 1446   2.095   1.752   1.148
  479SOL     OW 1447   2.244   0.700   0.480
  479SOL    HW1 1448   2.289   0.610   0.477
  479SOL    HW2 1449   2.150   0.689   0.513
  480SOL     OW 1450   2.476   0.122   0.117
  480SOL    HW1 1451   2.574   0.100   0.124
  480SOL    HW2 1452   2.445   0.105   0.024
  481SOL     OW 1453   2.665   1.402   0.924
  481SOL    HW1 1454   2.755   1.416   0.882
  481SOL    HW2 1455   2.594   1.404   0.853
  482SOL     OW 1456   2.784   0.503   0.899
  482SOL    HW1 1457   2.759   0.494   0.803
  482SOL    HW2 1458   2.832   0.421   0.930
  483SOL     OW 1459   2.401   0.064   0.512
  483SOL    HW1 1460   2.320   0.065   0.570
  483SOL    HW2 1461   2.404   0.147   0.457
  484SOL     OW 1462   2.159   0.035   0.171
  484SOL    HW1 1463   2.208   0.119   0.150
  484SOL    HW2 1464   2.221  -0.030   0.216
  485SOL     OW 1465   2.321   1.152   0.741
  485SOL    HW1 1466   2.250   1.125   0.806
  485SOL    HW2 1467   2.295   1.124   0.648
  486SOL     OW 1468   1.940   0.556   1.386
  486SOL    HW1 1469   2.032   0.555   1.345
  486SOL    HW2 1470   1.934   0.630   1.453
  487SOL     OW 1471   2.423   0.222   1.147
  487SOL    HW1 1472   2.461   0.138   1.184
  487SOL    HW2 1473   2.335   0.241   1.191
  488SOL     OW 1474   2.350   1.385   0.174
  488SOL    HW1 1475   2.263   1.370   0.221
  488SOL    HW2 1476   2.333   1.411   0.079
  489SOL     OW 1477   2.389   0.256   0.328
  489SOL    HW1 1478   2.416   0.197   0.253
  489SOL    HW2 1479   2.389   0.351   0.297
  490SOL     OW 1480   2.777   0.089   1.402
  490SOL    HW1 1481   2.802   0.069   1.307
  490SOL    HW2 1482   2.849   0.145   1.444
  491SOL     OW 1483   2.272   0.813   1.251
  491SOL    HW1 1484   2.358   0.825   1.301
  491SOL    HW2 1485   2.230   0.726   1.278
  492SOL     OW 1486   1.926   1.564   1.331
  492SOL    HW1 1487   1.880   1.646   1.297
  492SOL    HW2 1488   2.024   1.583   1.340
  493SOL     OW 1489   2.229   1.100   0.501
  493SOL    HW1 1490   2.222   1.183   0.445
  493SOL    HW2 1491   2.233   1.020   0.441
  494SOL     OW 1492   2.428   0.537   0.865
  494SOL    HW1 1493   2.440   0.603   0.791
  494SOL    HW2 1494   2.474   0.571   0.948
  495SOL     OW 1495   2.216   1.510   1.329
  495SOL    HW1 1496   2.195   1.466   1.242
  495SOL    HW2 1497   2.313   1.536   1.332
  496SOL     OW 1498   2.264   0.751   1.598
  496SOL    HW1 1499   2.332   0.806   1.551
  496SOL    HW2 1500   2.304   0.663   1.625
  497SOL     OW 1501   2.366   0.050   1.740
  497SOL    HW1 1502   2.324  -0.007   1.670
  497SOL    HW2 1503   2.300   0.119   1.772
  498SOL     OW 1504   2.435   0.870   1.029
  498SOL    HW1 1505   2.479   0.959   1.020
  498SOL    HW2 1506   2.372   0.870   1.106
  499SOL     OW 1507   2.169   0.213   1.231
  499SOL    HW1 1508   2.146   0.250   1.321
  499SOL    HW2 1509   2.139   0.118   1.225
  500SOL     OW 1510   1.899   1.310   1.282
  500SOL    HW1 1511   1.952   1.261   1.350
  500SOL    HW2 1512   1.921   1.408   1.287
  501SOL     OW 1513   2.594   0.634   1.064
  501SOL    HW1 1514   2.653   0.608   0.988
  501SOL    HW2 1515   2.566   0.730   1.053
  502SOL     OW 1516   2.169   0.063   0.618
  502SOL    HW1 1517   2.158   0.157   0.651
  502SOL    HW2 1518   2.164   0.000   0.695
  503SOL     OW 1519   2.212   0.898   1.804
  503SOL    HW1 1520   2.288   0.942   1.852
  503SOL    HW2 1521   2.247   0.851   1.722
  504SOL     OW 1522   2.930   1.333   0.849
  504SOL    HW1 1523   2.937   1.249   0.794
  504SOL    HW2 1524   2.992   1.402   0.813
  505SOL     OW 1525   2.181   0.810   0.949
  505SOL    HW1 1526   2.274   0.846   0.954
  505SOL    HW2 1527   2.175   0.725   1.001
  506SOL     OW 1528   2.201   0.509   1.006
  506SOL    HW1 1529   2.149   0.426   0.989
  506SOL    HW2 1530   2.278   0.514   0.942
  507SOL     OW 1531   1.870   1.326   0.200
  507SOL    HW1 1532   1.777   1.347   0.169
  507SOL    HW2 1533   1.880   1.227   0.213
  508SOL     OW 1534   1.950   1.801   0.927
  508SOL    HW1 1535   1.908   1.715   0.900
  508SOL    HW2 1536   2.044   1.804   0.893
  509SOL     OW 1537   2.366   1.568   0.910
  509SOL    HW1 1538   2.432   1.642   0.919
  509SOL    HW2 1539   2.410   1.489   0.868
  510SOL     OW 1540   1.902   0.544   1.114
  510SOL    HW1 1541   1.987   0.511   1.073
  510SOL    HW2 1542   1.915   0.559   1.212
  511SOL     OW 1543   2.051   0.520   1.722
  511SOL    HW1 1544   2.110   0.480   1.652
  511SOL    HW2 1545   1.993   0.591   1.681
  512SOL     OW 1546   2.114   1.564   1.744
  512SOL    HW1 1547   2.084   1.621   1.820
  512SOL    HW2 1548   2.107   1.467   1.770
  513SOL     OW 1549   2.533   0.464   1.269
  513SOL    HW1 1550   2.499   0.375   1.239
  513SOL    HW2 1551   2.559   0.518   1.189
  514SOL     OW 1552   2.335   0.500   0.191
  514SOL    HW1 1553   2.396   0.580   0.195
  514SOL    HW2 1554   2.240   0.531   0.198
  515SOL     OW 1555   2.021   1.137   1.466
  515SOL    HW1 1556   2.043   1.076   1.542
  515SOL    HW2 1557   2.031   1.088   1.380
  516SOL     OW 1558   1.945   1.258   1.022
  516SOL    HW1 1559   1.940   1.257   1.122
  516SOL    HW2 1560   1.862   1.217   0.984
  517SOL     OW 1561   2.550   1.662   1.716
  517SOL    HW1 1562   2.494   1.743   1.725
  517SOL    HW2 1563   2.602   1.666   1.630
  518SOL     OW 1564   1.992   1.794   1.851
  518SOL    HW1 1565   1.951   1.720   1.904
  518SOL    HW2 1566   2.056   1.845   1.909
  519SOL     OW 1567   2.534   1.616   0.154
  519SOL    HW1 1568   2.543   1.626   0.055
  519SOL    HW2 1569   2.494   1.527   0.175
  520SOL     OW 1570   2.125   0.326   0.720
  520SOL    HW1 1571   2.046   0.377   0.686
  520SOL    HW2 1572   2.116   0.311   0.818
  521SOL     OW 1573   2.684   1.002   1.372
  521SOL    HW1 1574   2.724   1.001   1.280
  521SOL    HW2 1575   2.694   1.094   1.412
  522SOL     OW 1576   2.234   1.288   1.490
  522SOL    HW1 1577   2.221   1.381   1.456
  522SOL    HW2 1578   2.150   1.236   1.477
  523SOL     OW 1579   2.452   1.487   0.491
  523SOL    HW1 1580   2.494   1.429   0.421
  523SOL    HW2 1581   2.408   1.566   0.447
  524SOL     OW 1582   2.117   1.348   0.290
  524SOL    HW1 1583   2.021   1.349   0.263
  524SOL    HW2 1584   2.129   1.401   0.374
  525SOL     OW 1585   1.967   1.013   1.726
  525SOL    HW1 1586   1.890   0.980   1.780
  525SOL    HW2 1587   2.052   0.983   1.768
  526SOL     OW 1588   2.534   0.203   1.489
  526SOL    HW1 1589   2.624   0.187   1.449
  526SOL    HW2 1590   2.542   0.208   1.588
  527SOL     OW 1591   1.937   0.345   0.033
  527SOL    HW1 1592   1.845   0.317   0.004
  527SOL    HW2 1593   1.968   0.422  -0.023
  528SOL     OW 1594   1.934   0.166   0.318
  528SOL    HW1 1595   1.917   0.249   0.264
  528SOL    HW2 1596   2.024   0.129   0.296
  529SOL     OW 1597   2.475   0.842   1.431
  529SOL    HW1 1598   2.531   0.923   1.414
  529SOL    HW2 1599   2.534   0.762   1.434
  530SOL     OW 1600   2.578   0.565   1.708
  530SOL    HW1 1601   2.597   0.630   1.782
  530SOL    HW2 1602   2.638   0.485   1.717
  531SOL     OW 1603   2.252   1.741   1.560
  531SOL    HW1 1604   2.161   1.782   1.558
  531SOL    HW2 1605   2.245   1.647   1.592
  532SOL     OW 1606   2.456   0.745   0.652
  532SOL    HW1 1607   2.506   0.830   0.633
  532SOL    HW2 1608   2.368   0.747   0.604
  533SOL     OW 1609   2.523   1.790   0.953
  533SOL    HW1 1610   2.477   1.878   0.940
  533SOL    HW2 1611   2.622   1.802   0.946
  534SOL     OW 1612   2.083   1.314   1.844
  534SOL    HW1 1613   2.018   1.241   1.823
  534SOL    HW2 1614   2.087   1.328   1.942
  535SOL     OW 1615   1.941   1.240   0.653
  535SOL    HW1 1616   1.940   1.193   0.741
  535SOL    HW2 1617   2.023   1.212   0.602
  536SOL     OW 1618   2.534   1.391   1.624
  536SOL    HW1 1619   2.456   1.341   1.662
  536SOL    HW2 1620   2.531   1.486   1.655
  537SOL     OW 1621   2.290   0.424   0.520
  537SOL    HW1 1622   2.320   0.352   0.458
  537SOL    HW2 1623   2.251   0.384   0.603
  538SOL     OW 1624   2.179   0.547   1.280
  538SOL    HW1 1625   2.217   0.488   1.352
  538SOL    HW2 1626   2.219   0.521   1.192
  539SOL     OW 1627   2.674   1.586   0.687
  539SOL    HW1 1628   2.706   1.596   0.593
  539SOL    HW2 1629   2.595   1.524   0.689
  540SOL     OW 1630   2.863   0.034   1.154
  540SOL    HW1 1631   2.800  -0.038   1.123
  540SOL    HW2 1632   2.956  -0.002   1.154
  541SOL     OW 1633   2.480   1.567   1.284
  541SOL    HW1 1634   2.475   1.649   1.341
  541SOL    HW2 1635   2.569   1.564   1.239
  542SOL     OW 1636   1.901   1.077   0.300
  542SOL    HW1 1637   2.000   1.066   0.291
  542SOL    HW2 1638   1.861   0.991   0.332
  543SOL     OW 1639   2.092   0.628   1.975
  543SOL    HW1 1640   1.999   0.626   2.012
  543SOL    HW2 1641   2.093   0.589   1.883
  544SOL     OW 1642   2.087   0.275   2.858
  544SOL    HW1 1643   2.122   0.258   2.950
  544SOL    HW2 1644   1.999   0.230   2.846
  545SOL     OW 1645   1.881   0.368   2.509
  545SOL    HW1 1646   1.799   0.411   2.548
  545SOL    HW2 1647   1.853   0.295   2.446
  546SOL     OW 1648   2.547   1.012   2.527
  546SOL    HW1 1649   2.616   0.996   2.597
  546SOL    HW2 1650   2.474   1.069   2.565
  547SOL     OW 1651   2.093   1.713   2.345
  547SOL    HW1 1652   2.127   1.790   2.399
  547SOL    HW2 1653   2.137   1.713   2.255
  548SOL     OW 1654   2.092   1.434   2.400
  548SOL    HW1 1655   2.066   1.530   2.400
  548SOL    HW2 1656   2.021   1.380   2.445
  549SOL     OW 1657   2.102   1.091   2.748
  549SOL    HW1 1658   2.116   1.007   2.800
  549SOL    HW2 1659   2.047   1.155   2.803
  550SOL     OW 1660   2.468   0.964   1.985
  550SOL    HW1 1661   2.475   1.048   1.931
  550SOL    HW2 1662   2.514   0.977   2.073
  551SOL     OW 1663   1.984   0.643   2.425
  551SOL    HW1 1664   1.939   0.555   2.442
  551SOL    HW2 1665   1.983   0.697   2.509
  552SOL     OW 1666   1.889   1.596   1.979
  552SOL    HW1 1667   1.870   1.500   2.000
  552SOL    HW2 1668   1.856   1.654   2.054
  553SOL     OW 1669   2.475   1.365   2.588
  553SOL    HW1 1670   2.426   1.278   2.597
  553SOL    HW2 1671   2.452   1.408   2.501
  554SOL     OW 1672   2.671   0.004   2.364
  554SOL    HW1 1673   2.711   0.095   2.355
  554SOL    HW2 1674   2.571   0.012   2.370
  555SOL     OW 1675   2.460   0.729   2.132
  555SOL    HW1 1676   2.484   0.798   2.064
  555SOL    HW2 1677   2.382   0.762   2.186
  556SOL     OW 1678   1.938   0.811   2.651
  556SOL    HW1 1679   2.037   0.799   2.660
  556SOL    HW2 1680   1.914   0.906   2.672
  557SOL     OW 1681   2.213   1.801   2.715
  557SOL    HW1 1682   2.263   1.715   2.721
  557SOL    HW2 1683   2.278   1.878   2.712
  558SOL     OW 1684   2.183   0.943   2.104
  558SOL    HW1 1685   2.265   0.982   2.062
  558SOL    HW2 1686   2.156   0.861   2.055
  559SOL     OW 1687   2.326   1.743   2.185
  559SOL    HW1 1688   2.359   1.782   2.271
  559SOL    HW2 1689   2.402   1.736   2.120
  560SOL     OW 1690   2.244   0.700   2.342
  560SOL    HW1 1691   2.289   0.610   2.339
  560SOL    HW2 1692   2.150   0.689   2.375
  561SOL     OW 1693   2.476   0.122   1.979
  561SOL    HW1 1694   2.574   0.100   1.986
  561SOL    HW2 1695   2.445   0.105   1.886
  562SOL     OW 1696   2.401   0.064   2.374
  562SOL    HW1 1697   2.320   0.065   2.432
  562SOL    HW2 1698   2.404   0.147   2.319
  563SOL     OW 1699   2.159   0.035   2.033
  563SOL    HW1 1700   2.208   0.119   2.012
  563SOL    HW2 1701   2.221  -0.030   2.078
  564SOL     OW 1702   2.321   1.152   2.603
  564SOL    HW1 1703   2.250   1.125   2.668
  564SOL    HW2 1704   2.295   1.124   2.510
  565SOL     OW 1705   2.350   1.385   2.036
  565SOL    HW1 1706   2.263   1.370   2.083
  565SOL    HW2 1707   2.333   1.411   1.941
  566SOL     OW 1708   2.389   0.256   2.190
  566SOL    HW1 1709   2.416   0.197   2.115
  566SOL    HW2 1710   2.389   0.351   2.159
  567SOL     OW 1711   2.229   1.100   2.363
  567SOL    HW1 1712   2.222   1.183   2.307
  567SOL    HW2 1713   2.233   1.020   2.303
  568SOL     OW 1714   2.169   0.063   2.480
  568SOL    HW1 1715   2.158   0.157   2.513
  568SOL    HW2 1716   2.164   0.000   2.557
  569SOL     OW 1717   2.930   1.333   2.711
  569SOL    HW1 1718   2.937   1.249   2.656
  569SOL    HW2 1719   2.992   1.402   2.675
  570SOL     OW 1720   1.870   1.326   2.062
  570SOL    HW1 1721   1.777   1.347   2.031
  570SOL    HW2 1722   1.880   1.227   2.075
  571SOL     OW 1723   2.677   0.572   2.187
  571SOL    HW1 1724   2.684   0.483   2.141
  571SOL    HW2 1725   2.583   0.606   2.179
  572SOL     OW 1726   2.335   0.500   2.053
  572SOL    HW1 1727   2.396   0.580   2.057
  572SOL    HW2 1728   2.240   0.531   2.060
  573SOL     OW 1729   2.534   1.616   2.016
  573SOL    HW1 1730   2.543   1.626   1.917
  573SOL    HW2 1731   2.494   1.527   2.037
  574SOL     OW 1732   2.125   0.326   2.582
  574SOL    HW1 1733   2.046   0.377   2.548
  574SOL    HW2 1734   2.116   0.311   2.680
  575SOL     OW 1735   2.452   1.487   2.353
  575SOL    HW1 1736   2.494   1.429   2.283
  575SOL    HW2 1737   2.408   1.566   2.309
  576SOL     OW 1738   2.117   1.348   2.152
  576SOL    HW1 1739   2.021   1.349   2.125
  576SOL    HW2 1740   2.129   1.401   2.236
  577SOL     OW 1741   1.937   0.345   1.895
  577SOL    HW1 1742   1.845   0.317   1.866
  577SOL    HW2 1743   1.968   0.422   1.839
  578SOL     OW 1744   1.934   0.166   2.180
  578SOL    HW1 1745   1.917   0.249   2.126
  578SOL    HW2 1746   2.024   0.129   2.158
  579SOL     OW 1747   2.456   0.745   2.514
  579SOL    HW1 1748   2.506   0.830   2.495
  579SOL    HW2 1749   2.368   0.747   2.466
  580SOL     OW 1750   2.523   1.790   2.815
  580SOL    HW1 1751   2.477   1.878   2.802
  580SOL    HW2 1752   2.622   1.802   2.808
  581SOL     OW 1753   1.941   1.240   2.515
  581SOL    HW1 1754   1.940   1.193   2.603
  581SOL    HW2 1755   2.023   1.212   2.464
  582SOL     OW 1756   2.290   0.424   2.382
  582SOL    HW1 1757   2.320   0.352   2.320
  582SOL    HW2 1758   2.251   0.384   2.465
  583SOL     OW 1759   2.674   1.586   2.549
  583SOL    HW1 1760   2.706   1.596   2.455
  583SOL    HW2 1761   2.595   1.524   2.551
  584SOL     OW 1762   1.901   1.077   2.162
  584SOL    HW1 1763   2.000   1.066   2.153
  584SOL    HW2 1764   1.861   0.991   2.194
  585SOL     OW 1765   2.092   2.490   0.113
  585SOL    HW1 1766   1.999   2.488   0.150
  585SOL    HW2 1767   2.093   2.451   0.021
  586SOL     OW 1768   2.087   2.137   0.996
  586SOL    HW1 1769   2.122   2.120   1.088
  586SOL    HW2 1770   1.999   2.092   0.984
  587SOL     OW 1771   1.881   2.230   0.647
  587SOL    HW1 1772   1.799   2.273   0.686
  587SOL    HW2 1773   1.853   2.157   0.584
  588SOL     OW 1774   2.712   2.660   1.823
  588SOL    HW1 1775   2.708   2.736   1.888
  588SOL    HW2 1776   2.734   2.696   1.732
  589SOL     OW 1777   2.547   2.874   0.665
  589SOL    HW1 1778   2.616   2.858   0.735
  589SOL    HW2 1779   2.474   2.931   0.703
  590SOL     OW 1780   2.300   2.254   1.499
  590SOL    HW1 1781   2.382   2.198   1.508
  590SOL    HW2 1782   2.219   2.196   1.503
  591SOL     OW 1783   1.984   2.505   0.563
  591SOL    HW1 1784   1.939   2.417   0.580
  591SOL    HW2 1785   1.983   2.559   0.647
  592SOL     OW 1786   1.975   2.599   1.597
  592SOL    HW1 1787   2.063   2.586   1.642
  592SOL    HW2 1788   1.962   2.696   1.575
  593SOL     OW 1789   2.671   1.866   0.502
  593SOL    HW1 1790   2.711   1.957   0.493
  593SOL    HW2 1791   2.571   1.874   0.508
  594SOL     OW 1792   2.179   2.113   1.801
  594SOL    HW1 1793   2.250   2.184   1.807
  594SOL    HW2 1794   2.091   2.152   1.829
  595SOL     OW 1795   2.460   2.591   0.270
  595SOL    HW1 1796   2.484   2.660   0.202
  595SOL    HW2 1797   2.382   2.624   0.324
  596SOL     OW 1798   2.412   2.058   0.885
  596SOL    HW1 1799   2.407   2.053   0.985
  596SOL    HW2 1800   2.414   2.154   0.856
  597SOL     OW 1801   2.064   2.147   1.498
  597SOL    HW1 1802   1.984   2.207   1.485
  597SOL    HW2 1803   2.054   2.098   1.584
  598SOL     OW 1804   2.244   2.562   0.480
  598SOL    HW1 1805   2.289   2.472   0.477
  598SOL    HW2 1806   2.150   2.551   0.513
  599SOL     OW 1807   2.784   2.365   0.899
  599SOL    HW1 1808   2.759   2.356   0.803
  599SOL    HW2 1809   2.832   2.283   0.930
  600SOL     OW 1810   2.401   1.926   0.512
  600SOL    HW1 1811   2.320   1.927   0.570
  600SOL    HW2 1812   2.404   2.009   0.457
  601SOL     OW 1813   2.159   1.897   0.171
  601SOL    HW1 1814   2.208   1.981   0.150
  601SOL    HW2 1815   2.221   1.832   0.216
  602SOL     OW 1816   1.940   2.418   1.386
  602SOL    HW1 1817   2.032   2.417   1.345
  602SOL    HW2 1818   1.934   2.492   1.453
  603SOL     OW 1819   2.423   2.084   1.147
  603SOL    HW1 1820   2.461   2.000   1.184
  603SOL    HW2 1821   2.335   2.103   1.191
  604SOL     OW 1822   2.389   2.118   0.328
  604SOL    HW1 1823   2.416   2.059   0.253
  604SOL    HW2 1824   2.389   2.213   0.297
  605SOL     OW 1825   2.777   1.951   1.402
  605SOL    HW1 1826   2.802   1.931   1.307
  605SOL    HW2 1827   2.849   2.007   1.444
  606SOL     OW 1828   2.272   2.675   1.251
  606SOL    HW1 1829   2.358   2.687   1.301
  606SOL    HW2 1830   2.230   2.588   1.278
  607SOL     OW 1831   2.428   2.399   0.865
  607SOL    HW1 1832   2.440   2.465   0.791
  607SOL    HW2 1833   2.474   2.433   0.948
  608SOL     OW 1834   2.366   1.912   1.740
  608SOL    HW1 1835   2.324   1.855   1.670
  608SOL    HW2 1836   2.300   1.981   1.772
  609SOL     OW 1837   2.169   2.075   1.231
  609SOL    HW1 1838   2.146   2.112   1.321
  609SOL    HW2 1839   2.139   1.980   1.225
  610SOL     OW 1840   2.594   2.496   1.064
  610SOL    HW1 1841   2.653   2.470   0.988
  610SOL    HW2 1842   2.566   2.592   1.053
  611SOL     OW 1843   2.169   1.925   0.618
  611SOL    HW1 1844   2.158   2.019   0.651
  611SOL    HW2 1845   2.164   1.862   0.695
  612SOL     OW 1846   2.181   2.672   0.949
  612SOL    HW1 1847   2.274   2.708   0.954
  612SOL    HW2 1848   2.175   2.587   1.001
  613SOL     OW 1849   2.201   2.371   1.006
  613SOL    HW1 1850   2.149   2.288   0.989
  613SOL    HW2 1851   2.278   2.376   0.942
  614SOL     OW 1852   1.902   2.406   1.114
  614SOL    HW1 1853   1.987   2.373   1.073
  614SOL    HW2 1854   1.915   2.421   1.212
  615SOL     OW 1855   2.051   2.382   1.722
  615SOL    HW1 1856   2.110   2.342   1.652
  615SOL    HW2 1857   1.993   2.453   1.681
  616SOL     OW 1858   2.533   2.326   1.269
  616SOL    HW1 1859   2.499   2.237   1.239
  616SOL    HW2 1860   2.559   2.380   1.189
  617SOL     OW 1861   2.335   2.362   0.191
  617SOL    HW1 1862   2.396   2.442   0.195
  617SOL    HW2 1863   2.240   2.393   0.198
  618SOL     OW 1864   2.125   2.188   0.720
  618SOL    HW1 1865   2.046   2.239   0.686
  618SOL    HW2 1866   2.116   2.173   0.818
  619SOL     OW 1867   1.967   2.875   1.726
  619SOL    HW1 1868   1.890   2.842   1.780
  619SOL    HW2 1869   2.052   2.845   1.768
  620SOL     OW 1870   2.534   2.065   1.489
  620SOL    HW1 1871   2.624   2.049   1.449
  620SOL    HW2 1872   2.542   2.070   1.588
  621SOL     OW 1873   1.937   2.207   0.033
  621SOL    HW1 1874   1.845   2.179   0.004
  621SOL    HW2 1875   1.968   2.284  -0.023
  622SOL     OW 1876   1.934   2.028   0.318
  622SOL    HW1 1877   1.917   2.111   0.264
  622SOL    HW2 1878   2.024   1.991   0.296
  623SOL     OW 1879   2.578   2.427   1.708
  623SOL    HW1 1880   2.597   2.492   1.782
  623SOL    HW2 1881   2.638   2.347   1.717
  624SOL     OW 1882   2.456   2.607   0.652
  624SOL    HW1 1883   2.506   2.692   0.633
  624SOL    HW2 1884   2.368   2.609   0.604
  625SOL     OW 1885   2.290   2.286   0.520
  625SOL    HW1 1886   2.320   2.214   0.458
  625SOL    HW2 1887   2.251   2.246   0.603
  626SOL     OW 1888   2.179   2.409   1.280
  626SOL    HW1 1889   2.217   2.350   1.352
  626SOL    HW2 1890   2.219   2.383   1.192
  627SOL     OW 1891   2.092   2.490   1.975
  627SOL    HW1 1892   1.999   2.488   2.012
  627SOL    HW2 1893   2.093   2.451   1.883
  628SOL     OW 1894   2.087   2.137   2.858
  628SOL    HW1 1895   2.122   2.120   2.950
  628SOL    HW2 1896   1.999   2.092   2.846
  629SOL     OW 1897   1.881   2.230   2.509
  629SOL    HW1 1898   1.799   2.273   2.548
  629SOL    HW2 1899   1.853   2.157   2.446
  630SOL     OW 1900   2.547   2.874   2.527
  630SOL    HW1 1901   2.616   2.858   2.597
  630SOL    HW2 1902   2.474   2.931   2.565
  631SOL     OW 1903   1.984   2.505   2.425
  631SOL    HW1 1904   1.939   2.417   2.442
  631SOL    HW2 1905   1.983   2.559   2.509
  632SOL     OW 1906   2.671   1.866   2.364
  632SOL    HW1 1907   2.711   1.957   2.355
  632SOL    HW2 1908   2.571   1.874   2.370
  633SOL     OW 1909   2.460   2.591   2.132
  633SOL    HW1 1910   2.484   2.660   2.064
  633SOL    HW2 1911   2.382   2.624   2.186
  634SOL     OW 1912   2.244   2.562   2.342
  634SOL    HW1 1913   2.289   2.472   2.339
  634SOL    HW2 1914   2.150   2.551   2.375
  635SOL     OW 1915   2.476   1.984   1.979
  635SOL    HW1 1916   2.574   1.962   1.986
  635SOL    HW2 1917   2.445   1.967   1.886
  636SOL     OW 1918   2.401   1.926   2.374
  636SOL    HW1 1919   2.320   1.927   2.432
  636SOL    HW2 1920   2.404   2.009   2.319
  637SOL     OW 1921   2.159   1.897   2.033
  637SOL    HW1 1922   2.208   1.981   2.012
  637SOL    HW2 1923   2.221   1.832   2.078
  638SOL     OW 1924   2.389   2.118   2.190
  638SOL    HW1 1925   2.416   2.059   2.115
  638SOL    HW2 1926   2.389   2.213   2.159
  639SOL     OW 1927   2.169   1.925   2.480
  639SOL    HW1 1928   2.158   2.019   2.513
  639SOL    HW2 1929   2.164   1.862   2.557
  640SOL     OW 1930   2.677   2.434   2.187
  640SOL    HW1 1931   2.684   2.345   2.141
  640SOL    HW2 1932   2.583   2.468   2.179
  641SOL     OW 1933   2.335   2.362   2.053
  641SOL    HW1 1934   2.396   2.442   2.057
  641SOL    HW2 1935   2.240   2.393   2.060
  642SOL     OW 1936   2.125   2.188   2.582
  642SOL    HW1 1937   2.046   2.239   2.548
  642SOL    HW2 1938   2.116   2.173   2.680
  643SOL     OW 1939   1.937   2.207   1.895
  643SOL    HW1 1940   1.845   2.179   1.866
  643SOL    HW2 1941   1.968   2.284   1.839
  644SOL     OW 1942   1.934   2.028   2.180
  644SOL    HW1 1943   1.917   2.111   2.126
  644SOL    HW2 1944   2.024   1.991   2.158
  645SOL     OW 1945   2.456   2.607   2.514
  645SOL    HW1 1946   2.506   2.692   2.495
  645SOL    HW2 1947   2.368   2.609   2.466
  646SOL     OW 1948   2.290   2.286   2.382
  646SOL    HW1 1949   2.320   2.214   2.320
  646SOL    HW2 1950   2.251   2.246   2.465
   2.70470   2.70470   2.70470
