; mobley_7977115_GMX.itp created by acpype (v: 2023.10.27) on Thu May 14 13:56:33 2026

[ atomtypes ]
;name   bond_type     mass     charge   ptype   sigma         epsilon       Amb
 c3       c3          0.00000  0.00000   A     3.39771e-01   4.51035e-01 ; 1.91  0.1078
 oh       oh          0.00000  0.00000   A     3.24287e-01   3.89112e-01 ; 1.82  0.0930
 hc       hc          0.00000  0.00000   A     2.60018e-01   8.70272e-02 ; 1.46  0.0208
 h1       h1          0.00000  0.00000   A     2.42200e-01   8.70272e-02 ; 1.36  0.0208
 ho       ho          0.00000  0.00000   A     5.37925e-02   1.96648e-02 ; 0.30  0.0047

[ moleculetype ]
;name            nrexcl
 mobley_7977115   3

[ atoms ]
;   nr  type  resi  res  atom  cgnr     charge      mass       ; qtot   bond_type
     1   c3     1   MOL    C1    1    -0.093100     12.01000 ; qtot -0.093
     2   c3     1   MOL    C2    2    -0.092100     12.01000 ; qtot -0.185
     3   c3     1   MOL    C3    3    -0.078400     12.01000 ; qtot -0.264
     4   c3     1   MOL    C4    4    -0.074400     12.01000 ; qtot -0.338
     5   c3     1   MOL    C5    5    -0.114400     12.01000 ; qtot -0.452
     6   c3     1   MOL    C6    6     0.140100     12.01000 ; qtot -0.312
     7   oh     1   MOL    O1    7    -0.600799     16.00000 ; qtot -0.913
     8   hc     1   MOL    H1    8     0.034033      1.00800 ; qtot -0.879
     9   hc     1   MOL    H2    9     0.034033      1.00800 ; qtot -0.845
    10   hc     1   MOL    H3   10     0.034033      1.00800 ; qtot -0.811
    11   hc     1   MOL    H4   11     0.036700      1.00800 ; qtot -0.774
    12   hc     1   MOL    H5   12     0.036700      1.00800 ; qtot -0.738
    13   hc     1   MOL    H6   13     0.036700      1.00800 ; qtot -0.701
    14   hc     1   MOL    H7   14     0.040200      1.00800 ; qtot -0.661
    15   hc     1   MOL    H8   15     0.040200      1.00800 ; qtot -0.620
    16   hc     1   MOL    H9   16     0.049200      1.00800 ; qtot -0.571
    17   hc     1   MOL   H10   17     0.049200      1.00800 ; qtot -0.522
    18   hc     1   MOL   H11   18     0.046700      1.00800 ; qtot -0.475
    19   hc     1   MOL   H12   19     0.046700      1.00800 ; qtot -0.429
    20   h1     1   MOL   H13   20     0.031700      1.00800 ; qtot -0.397
    21   ho     1   MOL   H14   21     0.397000      1.00800 ; qtot 0.000

[ bonds ]
;   ai     aj funct   r             k
     1      3   1    1.5354e-01    1.9154e+05 ;     C1 - C3    
     1      8   1    1.0962e-01    2.8891e+05 ;     C1 - H1    
     1      9   1    1.0962e-01    2.8891e+05 ;     C1 - H2    
     1     10   1    1.0962e-01    2.8891e+05 ;     C1 - H3    
     2      4   1    1.5354e-01    1.9154e+05 ;     C2 - C4    
     2     11   1    1.0962e-01    2.8891e+05 ;     C2 - H4    
     2     12   1    1.0962e-01    2.8891e+05 ;     C2 - H5    
     2     13   1    1.0962e-01    2.8891e+05 ;     C2 - H6    
     3      5   1    1.5354e-01    1.9154e+05 ;     C3 - C5    
     3     14   1    1.0962e-01    2.8891e+05 ;     C3 - H7    
     3     15   1    1.0962e-01    2.8891e+05 ;     C3 - H8    
     4      6   1    1.5354e-01    1.9154e+05 ;     C4 - C6    
     4     16   1    1.0962e-01    2.8891e+05 ;     C4 - H9    
     4     17   1    1.0962e-01    2.8891e+05 ;     C4 - H10   
     5      6   1    1.5354e-01    1.9154e+05 ;     C5 - C6    
     5     18   1    1.0962e-01    2.8891e+05 ;     C5 - H11   
     5     19   1    1.0962e-01    2.8891e+05 ;     C5 - H12   
     6      7   1    1.4242e-01    2.3861e+05 ;     C6 - O1    
     6     20   1    1.0969e-01    2.8804e+05 ;     C6 - H13   
     7     21   1    9.7250e-02    4.4811e+05 ;     O1 - H14   

[ pairs ]
;   ai     aj    funct
     1      6      1 ;     C1 - C6    
     1     18      1 ;     C1 - H11   
     1     19      1 ;     C1 - H12   
     2      5      1 ;     C2 - C5    
     2      7      1 ;     C2 - O1    
     2     20      1 ;     C2 - H13   
     3      4      1 ;     C3 - C4    
     3      7      1 ;     C3 - O1    
     3     20      1 ;     C3 - H13   
     4     18      1 ;     C4 - H11   
     4     19      1 ;     C4 - H12   
     4     21      1 ;     C4 - H14   
     5     16      1 ;     C5 - H9    
     5     17      1 ;     C5 - H10   
     5     21      1 ;     C5 - H14   
     6     11      1 ;     C6 - H4    
     6     12      1 ;     C6 - H5    
     6     13      1 ;     C6 - H6    
     6     14      1 ;     C6 - H7    
     6     15      1 ;     C6 - H8    
     7     16      1 ;     O1 - H9    
     7     17      1 ;     O1 - H10   
     7     18      1 ;     O1 - H11   
     7     19      1 ;     O1 - H12   
     8      5      1 ;     H1 - C5    
     8     14      1 ;     H1 - H7    
     8     15      1 ;     H1 - H8    
     9      5      1 ;     H2 - C5    
     9     14      1 ;     H2 - H7    
     9     15      1 ;     H2 - H8    
    10      5      1 ;     H3 - C5    
    10     14      1 ;     H3 - H7    
    10     15      1 ;     H3 - H8    
    11     16      1 ;     H4 - H9    
    11     17      1 ;     H4 - H10   
    12     16      1 ;     H5 - H9    
    12     17      1 ;     H5 - H10   
    13     16      1 ;     H6 - H9    
    13     17      1 ;     H6 - H10   
    14     18      1 ;     H7 - H11   
    14     19      1 ;     H7 - H12   
    15     18      1 ;     H8 - H11   
    15     19      1 ;     H8 - H12   
    16     20      1 ;     H9 - H13   
    17     20      1 ;    H10 - H13   
    18     20      1 ;    H11 - H13   
    19     20      1 ;    H12 - H13   
    20     21      1 ;    H13 - H14   

[ angles ]
;   ai     aj     ak    funct   theta         cth
     1      3      5      1    1.1263e+02    5.0099e+02 ;     C1 - C3     - C5    
     1      3     14      1    1.0968e+02    3.6208e+02 ;     C1 - C3     - H7    
     1      3     15      1    1.0968e+02    3.6208e+02 ;     C1 - C3     - H8    
     2      4      6      1    1.1263e+02    5.0099e+02 ;     C2 - C4     - C6    
     2      4     16      1    1.0968e+02    3.6208e+02 ;     C2 - C4     - H9    
     2      4     17      1    1.0968e+02    3.6208e+02 ;     C2 - C4     - H10   
     3      1      8      1    1.0968e+02    3.6208e+02 ;     C3 - C1     - H1    
     3      1      9      1    1.0968e+02    3.6208e+02 ;     C3 - C1     - H2    
     3      1     10      1    1.0968e+02    3.6208e+02 ;     C3 - C1     - H3    
     3      5      6      1    1.1263e+02    5.0099e+02 ;     C3 - C5     - C6    
     3      5     18      1    1.0968e+02    3.6208e+02 ;     C3 - C5     - H11   
     3      5     19      1    1.0968e+02    3.6208e+02 ;     C3 - C5     - H12   
     4      2     11      1    1.0968e+02    3.6208e+02 ;     C4 - C2     - H4    
     4      2     12      1    1.0968e+02    3.6208e+02 ;     C4 - C2     - H5    
     4      2     13      1    1.0968e+02    3.6208e+02 ;     C4 - C2     - H6    
     4      6      5      1    1.1263e+02    5.0099e+02 ;     C4 - C6     - C5    
     4      6      7      1    1.0966e+02    6.4258e+02 ;     C4 - C6     - O1    
     4      6     20      1    1.0959e+02    3.6217e+02 ;     C4 - C6     - H13   
     5      3     14      1    1.0968e+02    3.6208e+02 ;     C5 - C3     - H7    
     5      3     15      1    1.0968e+02    3.6208e+02 ;     C5 - C3     - H8    
     5      6      7      1    1.0966e+02    6.4258e+02 ;     C5 - C6     - O1    
     5      6     20      1    1.0959e+02    3.6217e+02 ;     C5 - C6     - H13   
     6      4     16      1    1.0968e+02    3.6208e+02 ;     C6 - C4     - H9    
     6      4     17      1    1.0968e+02    3.6208e+02 ;     C6 - C4     - H10   
     6      5     18      1    1.0968e+02    3.6208e+02 ;     C6 - C5     - H11   
     6      5     19      1    1.0968e+02    3.6208e+02 ;     C6 - C5     - H12   
     6      7     21      1    1.0739e+02    5.4501e+02 ;     C6 - O1     - H14   
     7      6     20      1    1.1038e+02    4.7103e+02 ;     O1 - C6     - H13   
     8      1      9      1    1.0773e+02    2.9957e+02 ;     H1 - C1     - H2    
     8      1     10      1    1.0773e+02    2.9957e+02 ;     H1 - C1     - H3    
     9      1     10      1    1.0773e+02    2.9957e+02 ;     H2 - C1     - H3    
    11      2     12      1    1.0773e+02    2.9957e+02 ;     H4 - C2     - H5    
    11      2     13      1    1.0773e+02    2.9957e+02 ;     H4 - C2     - H6    
    12      2     13      1    1.0773e+02    2.9957e+02 ;     H5 - C2     - H6    
    14      3     15      1    1.0773e+02    2.9957e+02 ;     H7 - C3     - H8    
    16      4     17      1    1.0773e+02    2.9957e+02 ;     H9 - C4     - H10   
    18      5     19      1    1.0773e+02    2.9957e+02 ;    H11 - C5     - H12   

[ dihedrals ] ; propers
; for gromacs 4.5 or higher, using funct 9
;    i      j      k      l   func   phase     kd      pn
     1      3      5      6      9     0.00   2.17568   3 ;     C1-    C3-    C5-    C6
     1      3      5     18      9     0.00   0.54392   3 ;     C1-    C3-    C5-   H11
     1      3      5     19      9     0.00   0.54392   3 ;     C1-    C3-    C5-   H12
     2      4      6      5      9     0.00   2.17568   3 ;     C2-    C4-    C6-    C5
     2      4      6      7      9     0.00   0.75312   3 ;     C2-    C4-    C6-    O1
     2      4      6     20      9     0.00   0.65084   3 ;     C2-    C4-    C6-   H13
     3      5      6      4      9     0.00   2.17568   3 ;     C3-    C5-    C6-    C4
     3      5      6      7      9     0.00   0.75312   3 ;     C3-    C5-    C6-    O1
     3      5      6     20      9     0.00   0.65084   3 ;     C3-    C5-    C6-   H13
     4      6      5     18      9     0.00   0.54392   3 ;     C4-    C6-    C5-   H11
     4      6      5     19      9     0.00   0.54392   3 ;     C4-    C6-    C5-   H12
     4      6      7     21      9     0.00   0.25104   3 ;     C4-    C6-    O1-   H14
     5      6      4     16      9     0.00   0.54392   3 ;     C5-    C6-    C4-    H9
     5      6      4     17      9     0.00   0.54392   3 ;     C5-    C6-    C4-   H10
     5      6      7     21      9     0.00   0.25104   3 ;     C5-    C6-    O1-   H14
     6      4      2     11      9     0.00   0.54392   3 ;     C6-    C4-    C2-    H4
     6      4      2     12      9     0.00   0.54392   3 ;     C6-    C4-    C2-    H5
     6      4      2     13      9     0.00   0.54392   3 ;     C6-    C4-    C2-    H6
     6      5      3     14      9     0.00   0.54392   3 ;     C6-    C5-    C3-    H7
     6      5      3     15      9     0.00   0.54392   3 ;     C6-    C5-    C3-    H8
     7      6      4     16      9     0.00   0.37656   3 ;     O1-    C6-    C4-    H9
     7      6      4     17      9     0.00   0.37656   3 ;     O1-    C6-    C4-   H10
     7      6      5     18      9     0.00   0.37656   3 ;     O1-    C6-    C5-   H11
     7      6      5     19      9     0.00   0.37656   3 ;     O1-    C6-    C5-   H12
     8      1      3      5      9     0.00   0.54392   3 ;     H1-    C1-    C3-    C5
     8      1      3     14      9     0.00   0.50208   3 ;     H1-    C1-    C3-    H7
     8      1      3     15      9     0.00   0.50208   3 ;     H1-    C1-    C3-    H8
     9      1      3      5      9     0.00   0.54392   3 ;     H2-    C1-    C3-    C5
     9      1      3     14      9     0.00   0.50208   3 ;     H2-    C1-    C3-    H7
     9      1      3     15      9     0.00   0.50208   3 ;     H2-    C1-    C3-    H8
    10      1      3      5      9     0.00   0.54392   3 ;     H3-    C1-    C3-    C5
    10      1      3     14      9     0.00   0.50208   3 ;     H3-    C1-    C3-    H7
    10      1      3     15      9     0.00   0.50208   3 ;     H3-    C1-    C3-    H8
    11      2      4     16      9     0.00   0.50208   3 ;     H4-    C2-    C4-    H9
    11      2      4     17      9     0.00   0.50208   3 ;     H4-    C2-    C4-   H10
    12      2      4     16      9     0.00   0.50208   3 ;     H5-    C2-    C4-    H9
    12      2      4     17      9     0.00   0.50208   3 ;     H5-    C2-    C4-   H10
    13      2      4     16      9     0.00   0.50208   3 ;     H6-    C2-    C4-    H9
    13      2      4     17      9     0.00   0.50208   3 ;     H6-    C2-    C4-   H10
    14      3      5     18      9     0.00   0.50208   3 ;     H7-    C3-    C5-   H11
    14      3      5     19      9     0.00   0.50208   3 ;     H7-    C3-    C5-   H12
    15      3      5     18      9     0.00   0.50208   3 ;     H8-    C3-    C5-   H11
    15      3      5     19      9     0.00   0.50208   3 ;     H8-    C3-    C5-   H12
    16      4      6     20      9     0.00   0.65084   3 ;     H9-    C4-    C6-   H13
    17      4      6     20      9     0.00   0.65084   3 ;    H10-    C4-    C6-   H13
    18      5      6     20      9     0.00   0.65084   3 ;    H11-    C5-    C6-   H13
    19      5      6     20      9     0.00   0.65084   3 ;    H12-    C5-    C6-   H13
    20      6      7     21      9     0.00   0.51463   3 ;    H13-    C6-    O1-   H14
