; mobley_3359593_GMX.itp created by acpype (v: 2023.10.27) on Thu May 14 13:40:30 2026

[ atomtypes ]
;name   bond_type     mass     charge   ptype   sigma         epsilon       Amb
 ca       ca          0.00000  0.00000   A     3.31521e-01   4.13379e-01 ; 1.86  0.0988
 c3       c3          0.00000  0.00000   A     3.39771e-01   4.51035e-01 ; 1.91  0.1078
 oh       oh          0.00000  0.00000   A     3.24287e-01   3.89112e-01 ; 1.82  0.0930
 os       os          0.00000  0.00000   A     3.15610e-01   3.03758e-01 ; 1.77  0.0726
 ha       ha          0.00000  0.00000   A     2.62548e-01   6.73624e-02 ; 1.47  0.0161
 hc       hc          0.00000  0.00000   A     2.60018e-01   8.70272e-02 ; 1.46  0.0208
 h1       h1          0.00000  0.00000   A     2.42200e-01   8.70272e-02 ; 1.36  0.0208
 ho       ho          0.00000  0.00000   A     5.37925e-02   1.96648e-02 ; 0.30  0.0047

[ moleculetype ]
;name            nrexcl
 mobley_3359593   3

[ atoms ]
;   nr  type  resi  res  atom  cgnr     charge      mass       ; qtot   bond_type
     1   ca     1   MOL    C1    1    -0.123000     12.01000 ; qtot -0.123
     2   ca     1   MOL    C2    2    -0.187000     12.01000 ; qtot -0.310
     3   ca     1   MOL    C3    3    -0.174000     12.01000 ; qtot -0.484
     4   ca     1   MOL    C4    4    -0.076300     12.01000 ; qtot -0.560
     5   ca     1   MOL    C5    5     0.099100     12.01000 ; qtot -0.461
     6   ca     1   MOL    C6    6     0.103100     12.01000 ; qtot -0.358
     7   c3     1   MOL    C7    7    -0.094100     12.01000 ; qtot -0.452
     8   c3     1   MOL    C8    8     0.110700     12.01000 ; qtot -0.342
     9   c3     1   MOL    C9    9    -0.034100     12.01000 ; qtot -0.376
    10   c3     1   MOL   C10   10    -0.077400     12.01000 ; qtot -0.453
    11   oh     1   MOL    O1   11    -0.477100     16.00000 ; qtot -0.930
    12   os     1   MOL    O2   12    -0.304900     16.00000 ; qtot -1.235
    13   ha     1   MOL    H1   13     0.134000      1.00800 ; qtot -1.101
    14   ha     1   MOL    H2   14     0.135000      1.00800 ; qtot -0.966
    15   ha     1   MOL    H3   15     0.140000      1.00800 ; qtot -0.826
    16   hc     1   MOL    H4   16     0.033700      1.00800 ; qtot -0.792
    17   hc     1   MOL    H5   17     0.033700      1.00800 ; qtot -0.759
    18   hc     1   MOL    H6   18     0.033700      1.00800 ; qtot -0.725
    19   h1     1   MOL    H7   19     0.043700      1.00800 ; qtot -0.681
    20   h1     1   MOL    H8   20     0.043700      1.00800 ; qtot -0.638
    21   h1     1   MOL    H9   21     0.043700      1.00800 ; qtot -0.594
    22   hc     1   MOL   H10   22     0.047200      1.00800 ; qtot -0.547
    23   hc     1   MOL   H11   23     0.047200      1.00800 ; qtot -0.499
    24   hc     1   MOL   H12   24     0.043200      1.00800 ; qtot -0.456
    25   hc     1   MOL   H13   25     0.043200      1.00800 ; qtot -0.413
    26   ho     1   MOL   H14   26     0.413000      1.00800 ; qtot -0.000

[ bonds ]
;   ai     aj funct   r             k
     1      2   1    1.3986e-01    2.9644e+05 ;     C1 - C2    
     1      4   1    1.3986e-01    2.9644e+05 ;     C1 - C4    
     1     13   1    1.0860e-01    3.0183e+05 ;     C1 - H1    
     2      5   1    1.3986e-01    2.9644e+05 ;     C2 - C5    
     2     14   1    1.0860e-01    3.0183e+05 ;     C2 - H2    
     3      4   1    1.3986e-01    2.9644e+05 ;     C3 - C4    
     3      6   1    1.3986e-01    2.9644e+05 ;     C3 - C6    
     3     15   1    1.0860e-01    3.0183e+05 ;     C3 - H3    
     4      9   1    1.5147e-01    2.0410e+05 ;     C4 - C9    
     5      6   1    1.3986e-01    2.9644e+05 ;     C5 - C6    
     5     11   1    1.3644e-01    2.9167e+05 ;     C5 - O1    
     6     12   1    1.3688e-01    2.8731e+05 ;     C6 - O2    
     7     10   1    1.5354e-01    1.9154e+05 ;     C7 - C10   
     7     16   1    1.0962e-01    2.8891e+05 ;     C7 - H4    
     7     17   1    1.0962e-01    2.8891e+05 ;     C7 - H5    
     7     18   1    1.0962e-01    2.8891e+05 ;     C7 - H6    
     8     12   1    1.4273e-01    2.3620e+05 ;     C8 - O2    
     8     19   1    1.0969e-01    2.8804e+05 ;     C8 - H7    
     8     20   1    1.0969e-01    2.8804e+05 ;     C8 - H8    
     8     21   1    1.0969e-01    2.8804e+05 ;     C8 - H9    
     9     10   1    1.5354e-01    1.9154e+05 ;     C9 - C10   
     9     22   1    1.0962e-01    2.8891e+05 ;     C9 - H10   
     9     23   1    1.0962e-01    2.8891e+05 ;     C9 - H11   
    10     24   1    1.0962e-01    2.8891e+05 ;    C10 - H12   
    10     25   1    1.0962e-01    2.8891e+05 ;    C10 - H13   
    11     26   1    9.7250e-02    4.4811e+05 ;     O1 - H14   

[ pairs ]
;   ai     aj    funct
     1      6      1 ;     C1 - C6    
     1     10      1 ;     C1 - C10   
     1     11      1 ;     C1 - O1    
     1     15      1 ;     C1 - H3    
     1     22      1 ;     C1 - H10   
     1     23      1 ;     C1 - H11   
     2      3      1 ;     C2 - C3    
     2      9      1 ;     C2 - C9    
     2     12      1 ;     C2 - O2    
     2     26      1 ;     C2 - H14   
     3      8      1 ;     C3 - C8    
     3     10      1 ;     C3 - C10   
     3     11      1 ;     C3 - O1    
     3     22      1 ;     C3 - H10   
     3     23      1 ;     C3 - H11   
     4      5      1 ;     C4 - C5    
     4      7      1 ;     C4 - C7    
     4     12      1 ;     C4 - O2    
     4     14      1 ;     C4 - H2    
     4     24      1 ;     C4 - H12   
     4     25      1 ;     C4 - H13   
     5      8      1 ;     C5 - C8    
     5     15      1 ;     C5 - H3    
     6      9      1 ;     C6 - C9    
     6     14      1 ;     C6 - H2    
     6     19      1 ;     C6 - H7    
     6     20      1 ;     C6 - H8    
     6     21      1 ;     C6 - H9    
     6     26      1 ;     C6 - H14   
     7     22      1 ;     C7 - H10   
     7     23      1 ;     C7 - H11   
     9     15      1 ;     C9 - H3    
     9     16      1 ;     C9 - H4    
     9     17      1 ;     C9 - H5    
     9     18      1 ;     C9 - H6    
    11     12      1 ;     O1 - O2    
    11     14      1 ;     O1 - H2    
    12     15      1 ;     O2 - H3    
    13      3      1 ;     H1 - C3    
    13      5      1 ;     H1 - C5    
    13      9      1 ;     H1 - C9    
    13     14      1 ;     H1 - H2    
    16     24      1 ;     H4 - H12   
    16     25      1 ;     H4 - H13   
    17     24      1 ;     H5 - H12   
    17     25      1 ;     H5 - H13   
    18     24      1 ;     H6 - H12   
    18     25      1 ;     H6 - H13   
    22     24      1 ;    H10 - H12   
    22     25      1 ;    H10 - H13   
    23     24      1 ;    H11 - H12   
    23     25      1 ;    H11 - H13   

[ angles ]
;   ai     aj     ak    funct   theta         cth
     1      2      5      1    1.2002e+02    5.3279e+02 ;     C1 - C2     - C5    
     1      2     14      1    1.1988e+02    3.7572e+02 ;     C1 - C2     - H2    
     1      4      3      1    1.2002e+02    5.3279e+02 ;     C1 - C4     - C3    
     1      4      9      1    1.2083e+02    5.0827e+02 ;     C1 - C4     - C9    
     2      1      4      1    1.2002e+02    5.3279e+02 ;     C2 - C1     - C4    
     2      1     13      1    1.1988e+02    3.7572e+02 ;     C2 - C1     - H1    
     2      5      6      1    1.2002e+02    5.3279e+02 ;     C2 - C5     - C6    
     2      5     11      1    1.1990e+02    6.5990e+02 ;     C2 - C5     - O1    
     3      4      9      1    1.2083e+02    5.0827e+02 ;     C3 - C4     - C9    
     3      6      5      1    1.2002e+02    5.3279e+02 ;     C3 - C6     - C5    
     3      6     12      1    1.1911e+02    6.6107e+02 ;     C3 - C6     - O2    
     4      1     13      1    1.1988e+02    3.7572e+02 ;     C4 - C1     - H1    
     4      3      6      1    1.2002e+02    5.3279e+02 ;     C4 - C3     - C6    
     4      3     15      1    1.1988e+02    3.7572e+02 ;     C4 - C3     - H3    
     4      9     10      1    1.1242e+02    5.0484e+02 ;     C4 - C9     - C10   
     4      9     22      1    1.1063e+02    3.6493e+02 ;     C4 - C9     - H10   
     4      9     23      1    1.1063e+02    3.6493e+02 ;     C4 - C9     - H11   
     5      2     14      1    1.1988e+02    3.7572e+02 ;     C5 - C2     - H2    
     5      6     12      1    1.1911e+02    6.6107e+02 ;     C5 - C6     - O2    
     5     11     26      1    1.0858e+02    5.6409e+02 ;     C5 - O1     - H14   
     6      3     15      1    1.1988e+02    3.7572e+02 ;     C6 - C3     - H3    
     6      5     11      1    1.1990e+02    6.5990e+02 ;     C6 - C5     - O1    
     6     12      8      1    1.1839e+02    7.3856e+02 ;     C6 - O2     - C8    
     7     10      9      1    1.1263e+02    5.0099e+02 ;     C7 - C10    - C9    
     7     10     24      1    1.0968e+02    3.6208e+02 ;     C7 - C10    - H12   
     7     10     25      1    1.0968e+02    3.6208e+02 ;     C7 - C10    - H13   
     9     10     24      1    1.0968e+02    3.6208e+02 ;     C9 - C10    - H12   
     9     10     25      1    1.0968e+02    3.6208e+02 ;     C9 - C10    - H13   
    10      7     16      1    1.0968e+02    3.6208e+02 ;    C10 - C7     - H4    
    10      7     17      1    1.0968e+02    3.6208e+02 ;    C10 - C7     - H5    
    10      7     18      1    1.0968e+02    3.6208e+02 ;    C10 - C7     - H6    
    10      9     22      1    1.0968e+02    3.6208e+02 ;    C10 - C9     - H10   
    10      9     23      1    1.0968e+02    3.6208e+02 ;    C10 - C9     - H11   
    12      8     19      1    1.1034e+02    4.7028e+02 ;     O2 - C8     - H7    
    12      8     20      1    1.1034e+02    4.7028e+02 ;     O2 - C8     - H8    
    12      8     21      1    1.1034e+02    4.7028e+02 ;     O2 - C8     - H9    
    16      7     17      1    1.0773e+02    2.9957e+02 ;     H4 - C7     - H5    
    16      7     18      1    1.0773e+02    2.9957e+02 ;     H4 - C7     - H6    
    17      7     18      1    1.0773e+02    2.9957e+02 ;     H5 - C7     - H6    
    19      8     20      1    1.0855e+02    2.9824e+02 ;     H7 - C8     - H8    
    19      8     21      1    1.0855e+02    2.9824e+02 ;     H7 - C8     - H9    
    20      8     21      1    1.0855e+02    2.9824e+02 ;     H8 - C8     - H9    
    22      9     23      1    1.0773e+02    2.9957e+02 ;    H10 - C9     - H11   
    24     10     25      1    1.0773e+02    2.9957e+02 ;    H12 - C10    - H13   

[ dihedrals ] ; propers
; for gromacs 4.5 or higher, using funct 9
;    i      j      k      l   func   phase     kd      pn
     1      2      5      6      9   180.00  15.16700   2 ;     C1-    C2-    C5-    C6
     1      2      5     11      9   180.00  15.16700   2 ;     C1-    C2-    C5-    O1
     1      4      3      6      9   180.00  15.16700   2 ;     C1-    C4-    C3-    C6
     1      4      3     15      9   180.00  15.16700   2 ;     C1-    C4-    C3-    H3
     1      4      9     10      9   180.00   1.00416   2 ;     C1-    C4-    C9-   C10
     1      4      9     22      9     0.00   0.00000   0 ;     C1-    C4-    C9-   H10
     1      4      9     23      9     0.00   0.00000   0 ;     C1-    C4-    C9-   H11
     2      1      4      3      9   180.00  15.16700   2 ;     C2-    C1-    C4-    C3
     2      1      4      9      9   180.00  15.16700   2 ;     C2-    C1-    C4-    C9
     2      5      6      3      9   180.00  15.16700   2 ;     C2-    C5-    C6-    C3
     2      5      6     12      9   180.00  15.16700   2 ;     C2-    C5-    C6-    O2
     2      5     11     26      9   180.00   3.57732   2 ;     C2-    C5-    O1-   H14
     3      4      9     10      9   180.00   1.00416   2 ;     C3-    C4-    C9-   C10
     3      4      9     22      9     0.00   0.00000   0 ;     C3-    C4-    C9-   H10
     3      4      9     23      9     0.00   0.00000   0 ;     C3-    C4-    C9-   H11
     3      6      5     11      9   180.00  15.16700   2 ;     C3-    C6-    C5-    O1
     3      6     12      8      9   180.00   6.94544   2 ;     C3-    C6-    O2-    C8
     4      1      2      5      9   180.00  15.16700   2 ;     C4-    C1-    C2-    C5
     4      1      2     14      9   180.00  15.16700   2 ;     C4-    C1-    C2-    H2
     4      3      6      5      9   180.00  15.16700   2 ;     C4-    C3-    C6-    C5
     4      3      6     12      9   180.00  15.16700   2 ;     C4-    C3-    C6-    O2
     4      9     10      7      9     0.00   0.65084   3 ;     C4-    C9-   C10-    C7
     4      9     10     24      9     0.00   0.65084   3 ;     C4-    C9-   C10-   H12
     4      9     10     25      9     0.00   0.65084   3 ;     C4-    C9-   C10-   H13
     5      6      3     15      9   180.00  15.16700   2 ;     C5-    C6-    C3-    H3
     5      6     12      8      9   180.00   6.94544   2 ;     C5-    C6-    O2-    C8
     6      3      4      9      9   180.00  15.16700   2 ;     C6-    C3-    C4-    C9
     6      5      2     14      9   180.00  15.16700   2 ;     C6-    C5-    C2-    H2
     6      5     11     26      9   180.00   3.57732   2 ;     C6-    C5-    O1-   H14
     6     12      8     19      9     0.00   1.60387   3 ;     C6-    O2-    C8-    H7
     6     12      8     20      9     0.00   1.60387   3 ;     C6-    O2-    C8-    H8
     6     12      8     21      9     0.00   1.60387   3 ;     C6-    O2-    C8-    H9
     7     10      9     22      9     0.00   0.54392   3 ;     C7-   C10-    C9-   H10
     7     10      9     23      9     0.00   0.54392   3 ;     C7-   C10-    C9-   H11
     9      4      3     15      9   180.00  15.16700   2 ;     C9-    C4-    C3-    H3
     9     10      7     16      9     0.00   0.54392   3 ;     C9-   C10-    C7-    H4
     9     10      7     17      9     0.00   0.54392   3 ;     C9-   C10-    C7-    H5
     9     10      7     18      9     0.00   0.54392   3 ;     C9-   C10-    C7-    H6
    11      5      2     14      9   180.00  15.16700   2 ;     O1-    C5-    C2-    H2
    11      5      6     12      9   180.00  15.16700   2 ;     O1-    C5-    C6-    O2
    12      6      3     15      9   180.00  15.16700   2 ;     O2-    C6-    C3-    H3
    13      1      2      5      9   180.00  15.16700   2 ;     H1-    C1-    C2-    C5
    13      1      2     14      9   180.00  15.16700   2 ;     H1-    C1-    C2-    H2
    13      1      4      3      9   180.00  15.16700   2 ;     H1-    C1-    C4-    C3
    13      1      4      9      9   180.00  15.16700   2 ;     H1-    C1-    C4-    C9
    16      7     10     24      9     0.00   0.50208   3 ;     H4-    C7-   C10-   H12
    16      7     10     25      9     0.00   0.50208   3 ;     H4-    C7-   C10-   H13
    17      7     10     24      9     0.00   0.50208   3 ;     H5-    C7-   C10-   H12
    17      7     10     25      9     0.00   0.50208   3 ;     H5-    C7-   C10-   H13
    18      7     10     24      9     0.00   0.50208   3 ;     H6-    C7-   C10-   H12
    18      7     10     25      9     0.00   0.50208   3 ;     H6-    C7-   C10-   H13
    22      9     10     24      9     0.00   0.50208   3 ;    H10-    C9-   C10-   H12
    22      9     10     25      9     0.00   0.50208   3 ;    H10-    C9-   C10-   H13
    23      9     10     24      9     0.00   0.50208   3 ;    H11-    C9-   C10-   H12
    23      9     10     25      9     0.00   0.50208   3 ;    H11-    C9-   C10-   H13

[ dihedrals ] ; impropers
; treated as propers in GROMACS to use correct AMBER analytical function
;    i      j      k      l   func   phase     kd      pn
     1      3      4      9      4   180.00   4.60240   2 ;     C1-    C3-    C4-    C9
     1      5      2     14      4   180.00   4.60240   2 ;     C1-    C5-    C2-    H2
     2      6      5     11      4   180.00   4.60240   2 ;     C2-    C6-    C5-    O1
     3      5      6     12      4   180.00   4.60240   2 ;     C3-    C5-    C6-    O2
     4      6      3     15      4   180.00   4.60240   2 ;     C4-    C6-    C3-    H3
    13      1      4      2      4   180.00   4.60240   2 ;     H1-    C1-    C4-    C2
