; mobley_1893937_GMX.itp created by acpype (v: 2023.10.27) on Thu May 14 13:16:36 2026

[ atomtypes ]
;name   bond_type     mass     charge   ptype   sigma         epsilon       Amb
 c3       c3          0.00000  0.00000   A     3.39771e-01   4.51035e-01 ; 1.91  0.1078
 cl       cl          0.00000  0.00000   A     3.46595e-01   1.10374e+00 ; 1.95  0.2638
 hc       hc          0.00000  0.00000   A     2.60018e-01   8.70272e-02 ; 1.46  0.0208
 h1       h1          0.00000  0.00000   A     2.42200e-01   8.70272e-02 ; 1.36  0.0208

[ moleculetype ]
;name            nrexcl
 mobley_1893937   3

[ atoms ]
;   nr  type  resi  res  atom  cgnr     charge      mass       ; qtot   bond_type
     1   c3     1   MOL    C1    1    -0.093100     12.01000 ; qtot -0.093
     2   c3     1   MOL    C2    2    -0.080400     12.01000 ; qtot -0.173
     3   c3     1   MOL    C3    3    -0.078400     12.01000 ; qtot -0.252
     4   c3     1   MOL    C4    4    -0.082400     12.01000 ; qtot -0.334
     5   c3     1   MOL    C5    5    -0.089400     12.01000 ; qtot -0.424
     6   c3     1   MOL    C6    6     0.039000     12.01000 ; qtot -0.385
     7   cl     1   MOL   CL1    7    -0.201399     35.45000 ; qtot -0.586
     8   hc     1   MOL    H1    8     0.033033      1.00800 ; qtot -0.553
     9   hc     1   MOL    H2    9     0.033033      1.00800 ; qtot -0.520
    10   hc     1   MOL    H3   10     0.033033      1.00800 ; qtot -0.487
    11   hc     1   MOL    H4   11     0.039700      1.00800 ; qtot -0.447
    12   hc     1   MOL    H5   12     0.039700      1.00800 ; qtot -0.408
    13   hc     1   MOL    H6   13     0.039700      1.00800 ; qtot -0.368
    14   hc     1   MOL    H7   14     0.039700      1.00800 ; qtot -0.328
    15   hc     1   MOL    H8   15     0.046700      1.00800 ; qtot -0.281
    16   hc     1   MOL    H9   16     0.046700      1.00800 ; qtot -0.235
    17   hc     1   MOL   H10   17     0.053700      1.00800 ; qtot -0.181
    18   hc     1   MOL   H11   18     0.053700      1.00800 ; qtot -0.127
    19   h1     1   MOL   H12   19     0.063700      1.00800 ; qtot -0.064
    20   h1     1   MOL   H13   20     0.063700      1.00800 ; qtot 0.000

[ bonds ]
;   ai     aj funct   r             k
     1      2   1    1.5354e-01    1.9154e+05 ;     C1 - C2    
     1      8   1    1.0962e-01    2.8891e+05 ;     C1 - H1    
     1      9   1    1.0962e-01    2.8891e+05 ;     C1 - H2    
     1     10   1    1.0962e-01    2.8891e+05 ;     C1 - H3    
     2      3   1    1.5354e-01    1.9154e+05 ;     C2 - C3    
     2     11   1    1.0962e-01    2.8891e+05 ;     C2 - H4    
     2     12   1    1.0962e-01    2.8891e+05 ;     C2 - H5    
     3      4   1    1.5354e-01    1.9154e+05 ;     C3 - C4    
     3     13   1    1.0962e-01    2.8891e+05 ;     C3 - H6    
     3     14   1    1.0962e-01    2.8891e+05 ;     C3 - H7    
     4      5   1    1.5354e-01    1.9154e+05 ;     C4 - C5    
     4     15   1    1.0962e-01    2.8891e+05 ;     C4 - H8    
     4     16   1    1.0962e-01    2.8891e+05 ;     C4 - H9    
     5      6   1    1.5354e-01    1.9154e+05 ;     C5 - C6    
     5     17   1    1.0962e-01    2.8891e+05 ;     C5 - H10   
     5     18   1    1.0962e-01    2.8891e+05 ;     C5 - H11   
     6      7   1    1.8092e-01    1.3724e+05 ;     C6 - CL1   
     6     19   1    1.0969e-01    2.8804e+05 ;     C6 - H12   
     6     20   1    1.0969e-01    2.8804e+05 ;     C6 - H13   

[ pairs ]
;   ai     aj    funct
     1      4      1 ;     C1 - C4    
     1     13      1 ;     C1 - H6    
     1     14      1 ;     C1 - H7    
     2      5      1 ;     C2 - C5    
     2     15      1 ;     C2 - H8    
     2     16      1 ;     C2 - H9    
     3      6      1 ;     C3 - C6    
     3     17      1 ;     C3 - H10   
     3     18      1 ;     C3 - H11   
     4      7      1 ;     C4 - CL1   
     4     11      1 ;     C4 - H4    
     4     12      1 ;     C4 - H5    
     4     19      1 ;     C4 - H12   
     4     20      1 ;     C4 - H13   
     5     13      1 ;     C5 - H6    
     5     14      1 ;     C5 - H7    
     6     15      1 ;     C6 - H8    
     6     16      1 ;     C6 - H9    
     7     17      1 ;    CL1 - H10   
     7     18      1 ;    CL1 - H11   
     8      3      1 ;     H1 - C3    
     8     11      1 ;     H1 - H4    
     8     12      1 ;     H1 - H5    
     9      3      1 ;     H2 - C3    
     9     11      1 ;     H2 - H4    
     9     12      1 ;     H2 - H5    
    10      3      1 ;     H3 - C3    
    10     11      1 ;     H3 - H4    
    10     12      1 ;     H3 - H5    
    11     13      1 ;     H4 - H6    
    11     14      1 ;     H4 - H7    
    12     13      1 ;     H5 - H6    
    12     14      1 ;     H5 - H7    
    13     15      1 ;     H6 - H8    
    13     16      1 ;     H6 - H9    
    14     15      1 ;     H7 - H8    
    14     16      1 ;     H7 - H9    
    15     17      1 ;     H8 - H10   
    15     18      1 ;     H8 - H11   
    16     17      1 ;     H9 - H10   
    16     18      1 ;     H9 - H11   
    17     19      1 ;    H10 - H12   
    17     20      1 ;    H10 - H13   
    18     19      1 ;    H11 - H12   
    18     20      1 ;    H11 - H13   

[ angles ]
;   ai     aj     ak    funct   theta         cth
     1      2      3      1    1.1263e+02    5.0099e+02 ;     C1 - C2     - C3    
     1      2     11      1    1.0968e+02    3.6208e+02 ;     C1 - C2     - H4    
     1      2     12      1    1.0968e+02    3.6208e+02 ;     C1 - C2     - H5    
     2      1      8      1    1.0968e+02    3.6208e+02 ;     C2 - C1     - H1    
     2      1      9      1    1.0968e+02    3.6208e+02 ;     C2 - C1     - H2    
     2      1     10      1    1.0968e+02    3.6208e+02 ;     C2 - C1     - H3    
     2      3      4      1    1.1263e+02    5.0099e+02 ;     C2 - C3     - C4    
     2      3     13      1    1.0968e+02    3.6208e+02 ;     C2 - C3     - H6    
     2      3     14      1    1.0968e+02    3.6208e+02 ;     C2 - C3     - H7    
     3      2     11      1    1.0968e+02    3.6208e+02 ;     C3 - C2     - H4    
     3      2     12      1    1.0968e+02    3.6208e+02 ;     C3 - C2     - H5    
     3      4      5      1    1.1263e+02    5.0099e+02 ;     C3 - C4     - C5    
     3      4     15      1    1.0968e+02    3.6208e+02 ;     C3 - C4     - H8    
     3      4     16      1    1.0968e+02    3.6208e+02 ;     C3 - C4     - H9    
     4      3     13      1    1.0968e+02    3.6208e+02 ;     C4 - C3     - H6    
     4      3     14      1    1.0968e+02    3.6208e+02 ;     C4 - C3     - H7    
     4      5      6      1    1.1263e+02    5.0099e+02 ;     C4 - C5     - C6    
     4      5     17      1    1.0968e+02    3.6208e+02 ;     C4 - C5     - H10   
     4      5     18      1    1.0968e+02    3.6208e+02 ;     C4 - C5     - H11   
     5      4     15      1    1.0968e+02    3.6208e+02 ;     C5 - C4     - H8    
     5      4     16      1    1.0968e+02    3.6208e+02 ;     C5 - C4     - H9    
     5      6      7      1    1.1039e+02    5.3254e+02 ;     C5 - C6     - CL1   
     5      6     19      1    1.0959e+02    3.6217e+02 ;     C5 - C6     - H12   
     5      6     20      1    1.0959e+02    3.6217e+02 ;     C5 - C6     - H13   
     6      5     17      1    1.0968e+02    3.6208e+02 ;     C6 - C5     - H10   
     6      5     18      1    1.0968e+02    3.6208e+02 ;     C6 - C5     - H11   
     7      6     19      1    1.0682e+02    3.6183e+02 ;    CL1 - C6     - H12   
     7      6     20      1    1.0682e+02    3.6183e+02 ;    CL1 - C6     - H13   
     8      1      9      1    1.0773e+02    2.9957e+02 ;     H1 - C1     - H2    
     8      1     10      1    1.0773e+02    2.9957e+02 ;     H1 - C1     - H3    
     9      1     10      1    1.0773e+02    2.9957e+02 ;     H2 - C1     - H3    
    11      2     12      1    1.0773e+02    2.9957e+02 ;     H4 - C2     - H5    
    13      3     14      1    1.0773e+02    2.9957e+02 ;     H6 - C3     - H7    
    15      4     16      1    1.0773e+02    2.9957e+02 ;     H8 - C4     - H9    
    17      5     18      1    1.0773e+02    2.9957e+02 ;    H10 - C5     - H11   
    19      6     20      1    1.0855e+02    2.9824e+02 ;    H12 - C6     - H13   

[ dihedrals ] ; propers
; for gromacs 4.5 or higher, using funct 9
;    i      j      k      l   func   phase     kd      pn
     1      2      3      4      9     0.00   2.17568   3 ;     C1-    C2-    C3-    C4
     1      2      3     13      9     0.00   0.54392   3 ;     C1-    C2-    C3-    H6
     1      2      3     14      9     0.00   0.54392   3 ;     C1-    C2-    C3-    H7
     2      3      4      5      9     0.00   2.17568   3 ;     C2-    C3-    C4-    C5
     2      3      4     15      9     0.00   0.54392   3 ;     C2-    C3-    C4-    H8
     2      3      4     16      9     0.00   0.54392   3 ;     C2-    C3-    C4-    H9
     3      4      5      6      9     0.00   2.17568   3 ;     C3-    C4-    C5-    C6
     3      4      5     17      9     0.00   0.54392   3 ;     C3-    C4-    C5-   H10
     3      4      5     18      9     0.00   0.54392   3 ;     C3-    C4-    C5-   H11
     4      3      2     11      9     0.00   0.54392   3 ;     C4-    C3-    C2-    H4
     4      3      2     12      9     0.00   0.54392   3 ;     C4-    C3-    C2-    H5
     4      5      6      7      9     0.00   0.65084   3 ;     C4-    C5-    C6-   CL1
     4      5      6     19      9     0.00   0.65084   3 ;     C4-    C5-    C6-   H12
     4      5      6     20      9     0.00   0.65084   3 ;     C4-    C5-    C6-   H13
     5      4      3     13      9     0.00   0.54392   3 ;     C5-    C4-    C3-    H6
     5      4      3     14      9     0.00   0.54392   3 ;     C5-    C4-    C3-    H7
     6      5      4     15      9     0.00   0.54392   3 ;     C6-    C5-    C4-    H8
     6      5      4     16      9     0.00   0.54392   3 ;     C6-    C5-    C4-    H9
     7      6      5     17      9     0.00   0.75312   3 ;    CL1-    C6-    C5-   H10
     7      6      5     18      9     0.00   0.75312   3 ;    CL1-    C6-    C5-   H11
     8      1      2      3      9     0.00   0.54392   3 ;     H1-    C1-    C2-    C3
     8      1      2     11      9     0.00   0.50208   3 ;     H1-    C1-    C2-    H4
     8      1      2     12      9     0.00   0.50208   3 ;     H1-    C1-    C2-    H5
     9      1      2      3      9     0.00   0.54392   3 ;     H2-    C1-    C2-    C3
     9      1      2     11      9     0.00   0.50208   3 ;     H2-    C1-    C2-    H4
     9      1      2     12      9     0.00   0.50208   3 ;     H2-    C1-    C2-    H5
    10      1      2      3      9     0.00   0.54392   3 ;     H3-    C1-    C2-    C3
    10      1      2     11      9     0.00   0.50208   3 ;     H3-    C1-    C2-    H4
    10      1      2     12      9     0.00   0.50208   3 ;     H3-    C1-    C2-    H5
    11      2      3     13      9     0.00   0.50208   3 ;     H4-    C2-    C3-    H6
    11      2      3     14      9     0.00   0.50208   3 ;     H4-    C2-    C3-    H7
    12      2      3     13      9     0.00   0.50208   3 ;     H5-    C2-    C3-    H6
    12      2      3     14      9     0.00   0.50208   3 ;     H5-    C2-    C3-    H7
    13      3      4     15      9     0.00   0.50208   3 ;     H6-    C3-    C4-    H8
    13      3      4     16      9     0.00   0.50208   3 ;     H6-    C3-    C4-    H9
    14      3      4     15      9     0.00   0.50208   3 ;     H7-    C3-    C4-    H8
    14      3      4     16      9     0.00   0.50208   3 ;     H7-    C3-    C4-    H9
    15      4      5     17      9     0.00   0.50208   3 ;     H8-    C4-    C5-   H10
    15      4      5     18      9     0.00   0.50208   3 ;     H8-    C4-    C5-   H11
    16      4      5     17      9     0.00   0.50208   3 ;     H9-    C4-    C5-   H10
    16      4      5     18      9     0.00   0.50208   3 ;     H9-    C4-    C5-   H11
    17      5      6     19      9     0.00   0.65084   3 ;    H10-    C5-    C6-   H12
    17      5      6     20      9     0.00   0.65084   3 ;    H10-    C5-    C6-   H13
    18      5      6     19      9     0.00   0.65084   3 ;    H11-    C5-    C6-   H12
    18      5      6     20      9     0.00   0.65084   3 ;    H11-    C5-    C6-   H13
