mobley_1849020_GMX.gro created by acpype (v: 2023.10.27) on Thu May 14 13:50:46 2026
 3409
    1MOL     C1    1   1.398   1.874   1.811
    1MOL     C2    2   1.560   2.051   1.787
    1MOL     C3    3   1.295   1.964   1.781
    1MOL     C4    4   1.458   2.141   1.756
    1MOL     C5    5   1.531   1.917   1.814
    1MOL     C6    6   1.326   2.097   1.753
    1MOL     C7    7   1.884   1.523   1.238
    1MOL     C8    8   1.671   1.132   1.765
    1MOL     C9    9   1.908   1.553   1.384
    1MOL    C10   10   1.624   1.250   1.683
    1MOL    C11   11   1.648   1.689   1.713
    1MOL     O1   12   1.869   1.440   1.461
    1MOL     O2   13   1.733   1.296   1.604
    1MOL     P1   14   1.733   1.449   1.550
    1MOL     S1   15   1.576   1.492   1.443
    1MOL     S2   16   1.664   1.805   1.853
    1MOL     S3   17   1.782   1.568   1.716
    1MOL    CL1   18   1.200   2.208   1.715
    1MOL     H1   19   1.372   1.771   1.835
    1MOL     H2   20   1.663   2.087   1.790
    1MOL     H3   21   1.192   1.930   1.779
    1MOL     H4   22   1.482   2.245   1.736
    1MOL     H5   23   1.941   1.435   1.206
    1MOL     H6   24   1.778   1.499   1.221
    1MOL     H7   25   1.911   1.608   1.175
    1MOL     H8   26   1.707   1.052   1.701
    1MOL     H9   27   1.754   1.160   1.831
    1MOL    H10   28   1.589   1.093   1.827
    1MOL    H11   29   1.849   1.640   1.415
    1MOL    H12   30   2.014   1.576   1.400
    1MOL    H13   31   1.589   1.330   1.749
    1MOL    H14   32   1.542   1.220   1.617
    1MOL    H15   33   1.552   1.637   1.719
    1MOL    H16   34   1.652   1.745   1.619
    2SOL     OW   35   0.230   0.628   0.113
    2SOL    HW1   36   0.137   0.626   0.150
    2SOL    HW2   37   0.231   0.589   0.021
    3SOL     OW   38   0.225   0.275   0.996
    3SOL    HW1   39   0.260   0.258   1.088
    3SOL    HW2   40   0.137   0.230   0.984
    4SOL     OW   41   0.019   0.368   0.647
    4SOL    HW1   42  -0.063   0.411   0.686
    4SOL    HW2   43  -0.009   0.295   0.584
    5SOL     OW   44   0.569   1.275   1.165
    5SOL    HW1   45   0.476   1.268   1.128
    5SOL    HW2   46   0.580   1.364   1.209
    6SOL     OW   47   1.555   1.511   0.703
    6SOL    HW1   48   1.498   1.495   0.784
    6SOL    HW2   49   1.496   1.521   0.623
    7SOL     OW   50   1.135   0.703   0.717
    7SOL    HW1   51   1.192   0.781   0.692
    7SOL    HW2   52   1.075   0.729   0.793
    8SOL     OW   53   1.755   0.607   0.231
    8SOL    HW1   54   1.743   0.594   0.132
    8SOL    HW2   55   1.725   0.526   0.280
    9SOL     OW   56   0.768   1.144   1.023
    9SOL    HW1   57   0.690   1.161   1.083
    9SOL    HW2   58   0.802   1.231   0.987
   10SOL     OW   59   0.850   0.798   1.823
   10SOL    HW1   60   0.846   0.874   1.888
   10SOL    HW2   61   0.872   0.834   1.732
   11SOL     OW   62   0.685   1.012   0.665
   11SOL    HW1   63   0.754   0.996   0.735
   11SOL    HW2   64   0.612   1.069   0.703
   12SOL     OW   65   0.686   1.161   1.803
   12SOL    HW1   66   0.746   1.240   1.817
   12SOL    HW2   67   0.600   1.192   1.762
   13SOL     OW   68   0.335   1.435   1.061
   13SOL    HW1   69   0.257   1.404   1.008
   13SOL    HW2   70   0.393   1.493   1.004
   14SOL     OW   71   0.438   0.392   1.499
   14SOL    HW1   72   0.520   0.336   1.508
   14SOL    HW2   73   0.357   0.334   1.503
   15SOL     OW   74   1.603   0.447   0.737
   15SOL    HW1   75   1.529   0.493   0.687
   15SOL    HW2   76   1.654   0.515   0.790
   16SOL     OW   77   0.231   1.713   0.483
   16SOL    HW1   78   0.265   1.790   0.537
   16SOL    HW2   79   0.275   1.713   0.393
   17SOL     OW   80   1.127   1.341   1.690
   17SOL    HW1   81   1.174   1.341   1.778
   17SOL    HW2   82   1.079   1.254   1.679
   18SOL     OW   83   0.230   1.434   0.538
   18SOL    HW1   84   0.204   1.530   0.538
   18SOL    HW2   85   0.159   1.380   0.583
   19SOL     OW   86   0.240   1.091   0.886
   19SOL    HW1   87   0.254   1.007   0.938
   19SOL    HW2   88   0.185   1.155   0.941
   20SOL     OW   89   0.620   1.786   1.439
   20SOL    HW1   90   0.528   1.769   1.474
   20SOL    HW2   91   0.648   1.878   1.465
   21SOL     OW   92   0.606   0.964   0.123
   21SOL    HW1   93   0.613   1.048   0.069
   21SOL    HW2   94   0.652   0.977   0.211
   22SOL     OW   95   1.594   0.114   1.480
   22SOL    HW1   96   1.576   0.181   1.408
   22SOL    HW2   97   1.591   0.160   1.569
   23SOL     OW   98   0.122   0.643   0.563
   23SOL    HW1   99   0.077   0.555   0.580
   23SOL    HW2  100   0.121   0.697   0.647
   24SOL     OW  101   1.842   1.767   0.359
   24SOL    HW1  102   1.896   1.738   0.439
   24SOL    HW2  103   1.872   1.857   0.330
   25SOL     OW  104   0.027   1.596   0.117
   25SOL    HW1  105   0.008   1.500   0.138
   25SOL    HW2  106  -0.006   1.654   0.192
   26SOL     OW  107   1.689   0.922   0.612
   26SOL    HW1  108   1.784   0.893   0.620
   26SOL    HW2  109   1.681   0.987   0.537
   27SOL     OW  110   1.641   1.108   0.432
   27SOL    HW1  111   1.727   1.110   0.380
   27SOL    HW2  112   1.655   1.155   0.520
   28SOL     OW  113   0.113   0.737   1.597
   28SOL    HW1  114   0.201   0.724   1.642
   28SOL    HW2  115   0.100   0.834   1.575
   29SOL     OW  116   0.613   1.365   0.726
   29SOL    HW1  117   0.564   1.278   0.735
   29SOL    HW2  118   0.590   1.408   0.639
   30SOL     OW  119   1.293   1.228   1.423
   30SOL    HW1  120   1.330   1.155   1.365
   30SOL    HW2  121   1.345   1.233   1.508
   31SOL     OW  122   0.809   0.004   0.502
   31SOL    HW1  123   0.849   0.095   0.493
   31SOL    HW2  124   0.709   0.012   0.508
   32SOL     OW  125   0.197   0.976   1.264
   32SOL    HW1  126   0.286   0.931   1.250
   32SOL    HW2  127   0.124   0.911   1.245
   33SOL     OW  128   1.525   0.999   0.190
   33SOL    HW1  129   1.462   0.923   0.203
   33SOL    HW2  130   1.573   1.017   0.276
   34SOL     OW  131   1.187   1.792   1.616
   34SOL    HW1  132   1.211   1.852   1.540
   34SOL    HW2  133   1.194   1.697   1.586
   35SOL     OW  134   0.317   0.251   1.801
   35SOL    HW1  135   0.388   0.322   1.807
   35SOL    HW2  136   0.229   0.290   1.829
   36SOL     OW  137   1.466   1.417   0.953
   36SOL    HW1  138   1.407   1.423   1.033
   36SOL    HW2  139   1.451   1.329   0.907
   37SOL     OW  140   1.667   1.714   0.572
   37SOL    HW1  141   1.626   1.691   0.484
   37SOL    HW2  142   1.649   1.640   0.637
   38SOL     OW  143   0.598   0.729   0.270
   38SOL    HW1  144   0.622   0.798   0.202
   38SOL    HW2  145   0.520   0.762   0.324
   39SOL     OW  146   1.281   0.345   0.944
   39SOL    HW1  147   1.195   0.295   0.931
   39SOL    HW2  148   1.343   0.291   1.000
   40SOL     OW  149   1.576   1.662   0.307
   40SOL    HW1  150   1.665   1.708   0.310
   40SOL    HW2  151   1.555   1.638   0.212
   41SOL     OW  152   0.807   0.605   1.465
   41SOL    HW1  153   0.760   0.602   1.554
   41SOL    HW2  154   0.756   0.550   1.399
   42SOL     OW  155   1.394   0.469   1.674
   42SOL    HW1  156   1.374   0.512   1.762
   42SOL    HW2  157   1.472   0.407   1.683
   43SOL     OW  158   0.973   0.890   1.572
   43SOL    HW1  159   1.019   0.806   1.543
   43SOL    HW2  160   0.917   0.924   1.497
   44SOL     OW  161   0.991   0.410   1.242
   44SOL    HW1  162   0.914   0.444   1.296
   44SOL    HW2  163   0.957   0.359   1.163
   45SOL     OW  164   1.041   0.701   0.429
   45SOL    HW1  165   1.067   0.697   0.525
   45SOL    HW2  166   0.956   0.650   0.415
   46SOL     OW  167   0.076   0.811   0.789
   46SOL    HW1  168   0.175   0.799   0.798
   46SOL    HW2  169   0.052   0.906   0.810
   47SOL     OW  170   0.130   1.821   1.571
   47SOL    HW1  171   0.120   1.806   1.670
   47SOL    HW2  172   0.044   1.857   1.535
   48SOL     OW  173   0.865   0.348   0.195
   48SOL    HW1  174   0.924   0.411   0.146
   48SOL    HW2  175   0.884   0.254   0.166
   49SOL     OW  176   1.719   0.585   1.831
   49SOL    HW1  177   1.693   0.674   1.795
   49SOL    HW2  178   1.717   0.517   1.758
   50SOL     OW  179   1.362   1.144   0.545
   50SOL    HW1  180   1.445   1.115   0.497
   50SOL    HW2  181   1.313   1.211   0.489
   51SOL     OW  182   0.550   0.196   0.885
   51SOL    HW1  183   0.545   0.191   0.985
   51SOL    HW2  184   0.552   0.292   0.856
   52SOL     OW  185   1.008   1.456   0.477
   52SOL    HW1  186   0.962   1.528   0.425
   52SOL    HW2  187   1.004   1.476   0.575
   53SOL     OW  188   0.351   1.801   0.853
   53SOL    HW1  189   0.401   1.715   0.859
   53SOL    HW2  190   0.416   1.878   0.850
   54SOL     OW  191   1.795   1.066   0.873
   54SOL    HW1  192   1.733   1.051   0.797
   54SOL    HW2  193   1.743   1.077   0.958
   55SOL     OW  194   1.227   1.550   1.506
   55SOL    HW1  195   1.233   1.473   1.570
   55SOL    HW2  196   1.175   1.524   1.426
   56SOL     OW  197   0.321   0.943   0.242
   56SOL    HW1  198   0.403   0.982   0.200
   56SOL    HW2  199   0.294   0.861   0.193
   57SOL     OW  200   1.458   0.735   0.728
   57SOL    HW1  201   1.453   0.670   0.803
   57SOL    HW2  202   1.538   0.794   0.741
   58SOL     OW  203   0.461   1.266   1.727
   58SOL    HW1  204   0.411   1.267   1.641
   58SOL    HW2  205   0.398   1.248   1.803
   59SOL     OW  206   1.111   1.776   0.237
   59SOL    HW1  207   1.051   1.714   0.287
   59SOL    HW2  208   1.142   1.732   0.152
   60SOL     OW  209   0.202   0.285   1.498
   60SOL    HW1  210   0.122   0.345   1.485
   60SOL    HW2  211   0.192   0.236   1.584
   61SOL     OW  212   1.632   1.377   0.081
   61SOL    HW1  213   1.600   1.471   0.071
   61SOL    HW2  214   1.556   1.314   0.069
   62SOL     OW  215   0.464   1.743   0.323
   62SOL    HW1  216   0.497   1.782   0.409
   62SOL    HW2  217   0.540   1.736   0.258
   63SOL     OW  218   1.400   0.107   0.426
   63SOL    HW1  219   1.376   0.070   0.336
   63SOL    HW2  220   1.499   0.123   0.430
   64SOL     OW  221   0.249   1.785   1.241
   64SOL    HW1  222   0.306   1.720   1.291
   64SOL    HW2  223   0.233   1.752   1.148
   65SOL     OW  224   0.940   1.698   0.904
   65SOL    HW1  225   1.020   1.641   0.925
   65SOL    HW2  226   0.891   1.658   0.827
   66SOL     OW  227   0.382   0.700   0.480
   66SOL    HW1  228   0.427   0.610   0.477
   66SOL    HW2  229   0.288   0.689   0.513
   67SOL     OW  230   1.547   0.222   1.729
   67SOL    HW1  231   1.542   0.259   1.821
   67SOL    HW2  232   1.475   0.153   1.717
   68SOL     OW  233   0.614   0.122   0.117
   68SOL    HW1  234   0.712   0.100   0.124
   68SOL    HW2  235   0.583   0.105   0.024
   69SOL     OW  236   0.781   0.264   1.749
   69SOL    HW1  237   0.848   0.203   1.792
   69SOL    HW2  238   0.708   0.283   1.814
   70SOL     OW  239   0.888   1.514   1.195
   70SOL    HW1  240   0.865   1.489   1.101
   70SOL    HW2  241   0.949   1.445   1.234
   71SOL     OW  242   1.351   0.590   1.433
   71SOL    HW1  243   1.379   0.547   1.518
   71SOL    HW2  244   1.376   0.686   1.434
   72SOL     OW  245   0.803   1.402   0.924
   72SOL    HW1  246   0.893   1.416   0.882
   72SOL    HW2  247   0.732   1.404   0.853
   73SOL     OW  248   0.922   0.503   0.899
   73SOL    HW1  249   0.897   0.494   0.803
   73SOL    HW2  250   0.970   0.421   0.930
   74SOL     OW  251   0.539   0.064   0.512
   74SOL    HW1  252   0.458   0.065   0.570
   74SOL    HW2  253   0.542   0.147   0.457
   75SOL     OW  254   1.434   1.188   0.041
   75SOL    HW1  255   1.466   1.112   0.098
   75SOL    HW2  256   1.342   1.215   0.071
   76SOL     OW  257   0.297   0.035   0.171
   76SOL    HW1  258   0.346   0.119   0.150
   76SOL    HW2  259   0.359  -0.030   0.216
   77SOL     OW  260   0.935   0.236   0.480
   77SOL    HW1  261   0.887   0.277   0.402
   77SOL    HW2  262   1.034   0.234   0.461
   78SOL     OW  263   1.076   0.683   1.464
   78SOL    HW1  264   0.996   0.622   1.467
   78SOL    HW2  265   1.157   0.630   1.440
   79SOL     OW  266   1.227   1.570   0.793
   79SOL    HW1  267   1.248   1.644   0.728
   79SOL    HW2  268   1.295   1.570   0.866
   80SOL     OW  269   0.459   1.152   0.741
   80SOL    HW1  270   0.388   1.125   0.806
   80SOL    HW2  271   0.433   1.124   0.648
   81SOL     OW  272   1.271   1.797   0.591
   81SOL    HW1  273   1.315   1.861   0.527
   81SOL    HW2  274   1.221   1.849   0.661
   82SOL     OW  275   1.032   0.549   0.016
   82SOL    HW1  276   0.991   0.631  -0.023
   82SOL    HW2  277   1.096   0.575   0.089
   83SOL     OW  278   0.078   0.556   1.386
   83SOL    HW1  279   0.170   0.555   1.345
   83SOL    HW2  280   0.072   0.630   1.453
   84SOL     OW  281   0.561   0.222   1.147
   84SOL    HW1  282   0.599   0.138   1.184
   84SOL    HW2  283   0.473   0.241   1.191
   85SOL     OW  284   0.866   0.454   0.642
   85SOL    HW1  285   0.834   0.526   0.580
   85SOL    HW2  286   0.890   0.373   0.589
   86SOL     OW  287   1.017   0.039   0.753
   86SOL    HW1  288   0.945   0.044   0.684
   86SOL    HW2  289   0.993  -0.030   0.822
   87SOL     OW  290   1.429   1.173   0.867
   87SOL    HW1  291   1.374   1.089   0.860
   87SOL    HW2  292   1.455   1.202   0.775
   88SOL     OW  293   1.466   0.590   0.992
   88SOL    HW1  294   1.436   0.495   0.999
   88SOL    HW2  295   1.539   0.606   1.058
   89SOL     OW  296   1.857   0.833   0.377
   89SOL    HW1  297   1.899   0.769   0.441
   89SOL    HW2  298   1.819   0.782   0.299
   90SOL     OW  299   0.488   1.385   0.174
   90SOL    HW1  300   0.401   1.370   0.221
   90SOL    HW2  301   0.471   1.411   0.079
   91SOL     OW  302   1.664   1.280   0.657
   91SOL    HW1  303   1.763   1.288   0.671
   91SOL    HW2  304   1.619   1.364   0.688
   92SOL     OW  305   1.390   0.575   0.078
   92SOL    HW1  306   1.336   0.554   0.159
   92SOL    HW2  307   1.481   0.534   0.087
   93SOL     OW  308   0.527   0.256   0.328
   93SOL    HW1  309   0.554   0.197   0.253
   93SOL    HW2  310   0.527   0.351   0.297
   94SOL     OW  311   1.064   1.347   1.340
   94SOL    HW1  312   0.984   1.324   1.395
   94SOL    HW2  313   1.147   1.321   1.389
   95SOL     OW  314   1.111   1.195   1.100
   95SOL    HW1  315   1.071   1.239   1.181
   95SOL    HW2  316   1.070   1.232   1.017
   96SOL     OW  317   1.638   1.099   1.079
   96SOL    HW1  318   1.643   1.180   1.138
   96SOL    HW2  319   1.552   1.101   1.028
   97SOL     OW  320   0.915   0.089   1.402
   97SOL    HW1  321   0.940   0.069   1.307
   97SOL    HW2  322   0.987   0.145   1.444
   98SOL     OW  323   0.980   1.116   1.719
   98SOL    HW1  324   0.881   1.122   1.729
   98SOL    HW2  325   1.003   1.036   1.663
   99SOL     OW  326   0.705   1.050   0.368
   99SOL    HW1  327   0.691   1.057   0.467
   99SOL    HW2  328   0.789   0.999   0.350
  100SOL     OW  329   0.410   0.813   1.251
  100SOL    HW1  330   0.496   0.825   1.301
  100SOL    HW2  331   0.368   0.726   1.278
  101SOL     OW  332   1.274   0.386   1.262
  101SOL    HW1  333   1.295   0.460   1.326
  101SOL    HW2  334   1.185   0.403   1.219
  102SOL     OW  335   0.064   1.564   1.331
  102SOL    HW1  336   0.018   1.646   1.297
  102SOL    HW2  337   0.162   1.583   1.340
  103SOL     OW  338   0.367   1.100   0.501
  103SOL    HW1  339   0.360   1.183   0.445
  103SOL    HW2  340   0.371   1.020   0.441
  104SOL     OW  341   0.566   0.537   0.865
  104SOL    HW1  342   0.578   0.603   0.791
  104SOL    HW2  343   0.612   0.571   0.948
  105SOL     OW  344   1.252   1.348   0.388
  105SOL    HW1  345   1.302   1.425   0.428
  105SOL    HW2  346   1.157   1.350   0.420
  106SOL     OW  347   1.272   1.445   1.142
  106SOL    HW1  348   1.319   1.458   1.229
  106SOL    HW2  349   1.206   1.371   1.151
  107SOL     OW  350   1.582   0.639   0.472
  107SOL    HW1  351   1.551   0.700   0.545
  107SOL    HW2  352   1.632   0.691   0.403
  108SOL     OW  353   0.354   1.510   1.329
  108SOL    HW1  354   0.333   1.466   1.242
  108SOL    HW2  355   0.451   1.536   1.332
  109SOL     OW  356   0.402   0.751   1.598
  109SOL    HW1  357   0.470   0.806   1.551
  109SOL    HW2  358   0.442   0.663   1.625
  110SOL     OW  359   1.587   0.779   1.670
  110SOL    HW1  360   1.495   0.817   1.665
  110SOL    HW2  361   1.647   0.826   1.605
  111SOL     OW  362   1.013   0.105   1.770
  111SOL    HW1  363   1.019   0.190   1.718
  111SOL    HW2  364   1.045   0.029   1.713
  112SOL     OW  365   0.504   0.050   1.740
  112SOL    HW1  366   0.462  -0.007   1.670
  112SOL    HW2  367   0.438   0.119   1.772
  113SOL     OW  368   0.573   0.870   1.029
  113SOL    HW1  369   0.617   0.959   1.020
  113SOL    HW2  370   0.510   0.870   1.106
  114SOL     OW  371   1.360   0.862   1.045
  114SOL    HW1  372   1.285   0.862   0.979
  114SOL    HW2  373   1.397   0.770   1.054
  115SOL     OW  374   1.209   0.525   0.275
  115SOL    HW1  375   1.222   0.441   0.329
  115SOL    HW2  376   1.180   0.599   0.335
  116SOL     OW  377   0.307   0.213   1.231
  116SOL    HW1  378   0.284   0.250   1.321
  116SOL    HW2  379   0.277   0.118   1.225
  117SOL     OW  380   0.037   1.310   1.282
  117SOL    HW1  381   0.090   1.261   1.350
  117SOL    HW2  382   0.059   1.408   1.287
  118SOL     OW  383   0.732   0.634   1.064
  118SOL    HW1  384   0.791   0.608   0.988
  118SOL    HW2  385   0.704   0.730   1.053
  119SOL     OW  386   1.728   0.935   1.854
  119SOL    HW1  387   1.682   0.928   1.765
  119SOL    HW2  388   1.666   0.979   1.920
  120SOL     OW  389   0.307   0.063   0.618
  120SOL    HW1  390   0.296   0.157   0.651
  120SOL    HW2  391   0.302   0.000   0.695
  121SOL     OW  392   1.622   0.367   0.374
  121SOL    HW1  393   1.624   0.291   0.438
  121SOL    HW2  394   1.574   0.444   0.414
  122SOL     OW  395   1.023   0.766   0.966
  122SOL    HW1  396   1.038   0.787   1.062
  122SOL    HW2  397   0.993   0.671   0.957
  123SOL     OW  398   0.980   1.573   1.700
  123SOL    HW1  399   0.960   1.617   1.612
  123SOL    HW2  400   1.019   1.482   1.684
  124SOL     OW  401   0.350   0.898   1.804
  124SOL    HW1  402   0.426   0.942   1.852
  124SOL    HW2  403   0.385   0.851   1.722
  125SOL     OW  404   1.540   0.274   0.125
  125SOL    HW1  405   1.479   0.199   0.148
  125SOL    HW2  406   1.562   0.326   0.208
  126SOL     OW  407   1.303   0.838   0.042
  126SOL    HW1  408   1.337   0.745   0.057
  126SOL    HW2  409   1.321   0.865  -0.053
  127SOL     OW  410   1.068   1.333   0.849
  127SOL    HW1  411   1.075   1.249   0.794
  127SOL    HW2  412   1.130   1.402   0.813
  128SOL     OW  413   0.319   0.810   0.949
  128SOL    HW1  414   0.412   0.846   0.954
  128SOL    HW2  415   0.313   0.725   1.001
  129SOL     OW  416   0.339   0.509   1.006
  129SOL    HW1  417   0.287   0.426   0.989
  129SOL    HW2  418   0.416   0.514   0.942
  130SOL     OW  419   1.138   0.380   1.678
  130SOL    HW1  420   1.093   0.443   1.742
  130SOL    HW2  421   1.231   0.411   1.661
  131SOL     OW  422   1.160   0.207   1.477
  131SOL    HW1  423   1.160   0.271   1.554
  131SOL    HW2  424   1.188   0.255   1.394
  132SOL     OW  425   0.008   1.326   0.200
  132SOL    HW1  426  -0.085   1.347   0.169
  132SOL    HW2  427   0.018   1.227   0.213
  133SOL     OW  428   0.088   1.801   0.927
  133SOL    HW1  429   0.046   1.715   0.900
  133SOL    HW2  430   0.182   1.804   0.893
  134SOL     OW  431   0.504   1.568   0.910
  134SOL    HW1  432   0.570   1.642   0.919
  134SOL    HW2  433   0.548   1.489   0.868
  135SOL     OW  434   1.002   0.796   1.238
  135SOL    HW1  435   1.043   0.764   1.324
  135SOL    HW2  436   0.906   0.769   1.235
  136SOL     OW  437   0.040   0.544   1.114
  136SOL    HW1  438   0.125   0.511   1.073
  136SOL    HW2  439   0.053   0.559   1.212
  137SOL     OW  440   0.189   0.520   1.722
  137SOL    HW1  441   0.248   0.480   1.652
  137SOL    HW2  442   0.131   0.591   1.681
  138SOL     OW  443   1.369   0.950   1.660
  138SOL    HW1  444   1.408   1.039   1.680
  138SOL    HW2  445   1.379   0.930   1.563
  139SOL     OW  446   0.815   0.572   0.325
  139SOL    HW1  447   0.822   0.483   0.279
  139SOL    HW2  448   0.721   0.606   0.317
  140SOL     OW  449   1.657   0.604   1.206
  140SOL    HW1  450   1.619   0.535   1.268
  140SOL    HW2  451   1.739   0.568   1.162
  141SOL     OW  452   0.252   1.564   1.744
  141SOL    HW1  453   0.222   1.621   1.820
  141SOL    HW2  454   0.245   1.467   1.770
  142SOL     OW  455   0.671   0.464   1.269
  142SOL    HW1  456   0.637   0.375   1.239
  142SOL    HW2  457   0.697   0.518   1.189
  143SOL     OW  458   0.930   1.678   1.465
  143SOL    HW1  459   0.906   1.660   1.370
  143SOL    HW2  460   0.960   1.772   1.475
  144SOL     OW  461   0.473   0.500   0.191
  144SOL    HW1  462   0.534   0.580   0.195
  144SOL    HW2  463   0.378   0.531   0.198
  145SOL     OW  464   0.159   1.137   1.466
  145SOL    HW1  465   0.181   1.076   1.542
  145SOL    HW2  466   0.169   1.088   1.380
  146SOL     OW  467   1.347   1.059   1.234
  146SOL    HW1  468   1.371   0.996   1.160
  146SOL    HW2  469   1.257   1.099   1.216
  147SOL     OW  470   1.302   0.855   0.309
  147SOL    HW1  471   1.216   0.824   0.351
  147SOL    HW2  472   1.298   0.841   0.210
  148SOL     OW  473   1.759   1.747   1.154
  148SOL    HW1  474   1.820   1.777   1.081
  148SOL    HW2  475   1.721   1.658   1.132
  149SOL     OW  476   1.252   1.731   1.128
  149SOL    HW1  477   1.336   1.736   1.074
  149SOL    HW2  478   1.229   1.635   1.146
  150SOL     OW  479   0.083   1.258   1.022
  150SOL    HW1  480   0.078   1.257   1.122
  150SOL    HW2  481   0.000   1.217   0.984
  151SOL     OW  482   0.688   1.662   1.716
  151SOL    HW1  483   0.632   1.743   1.725
  151SOL    HW2  484   0.740   1.666   1.630
  152SOL     OW  485   0.903   0.086   0.133
  152SOL    HW1  486   0.954   0.087   0.047
  152SOL    HW2  487   0.959   0.044   0.204
  153SOL     OW  488   1.726   0.135   0.523
  153SOL    HW1  489   1.799   0.118   0.456
  153SOL    HW2  490   1.695   0.048   0.561
  154SOL     OW  491   1.388   1.573   0.477
  154SOL    HW1  492   1.455   1.585   0.403
  154SOL    HW2  493   1.348   1.662   0.500
  155SOL     OW  494   0.130   1.794   1.851
  155SOL    HW1  495   0.089   1.720   1.904
  155SOL    HW2  496   0.194   1.845   1.909
  156SOL     OW  497   1.280   0.927   0.672
  156SOL    HW1  498   1.340   0.846   0.674
  156SOL    HW2  499   1.320   0.996   0.612
  157SOL     OW  500   0.830   1.273   1.422
  157SOL    HW1  501   0.825   1.306   1.517
  157SOL    HW2  502   0.744   1.292   1.376
  158SOL     OW  503   0.672   1.616   0.154
  158SOL    HW1  504   0.681   1.626   0.055
  158SOL    HW2  505   0.632   1.527   0.175
  159SOL     OW  506   1.650   1.720   1.394
  159SOL    HW1  507   1.703   1.730   1.310
  159SOL    HW2  508   1.623   1.810   1.428
  160SOL     OW  509   1.841   0.175   0.963
  160SOL    HW1  510   1.880   0.090   0.927
  160SOL    HW2  511   1.743   0.177   0.944
  161SOL     OW  512   0.263   0.326   0.720
  161SOL    HW1  513   0.184   0.377   0.686
  161SOL    HW2  514   0.254   0.311   0.818
  162SOL     OW  515   1.194   1.612   0.031
  162SOL    HW1  516   1.200   1.519   0.068
  162SOL    HW2  517   1.135   1.612  -0.049
  163SOL     OW  518   0.822   1.002   1.372
  163SOL    HW1  519   0.862   1.001   1.280
  163SOL    HW2  520   0.832   1.094   1.412
  164SOL     OW  521   0.916   0.910   0.291
  164SOL    HW1  522   0.979   0.948   0.223
  164SOL    HW2  523   0.956   0.827   0.330
  165SOL     OW  524   1.504   1.607   0.044
  165SOL    HW1  525   1.412   1.644   0.051
  165SOL    HW2  526   1.542   1.627  -0.046
  166SOL     OW  527   0.372   1.288   1.490
  166SOL    HW1  528   0.359   1.381   1.456
  166SOL    HW2  529   0.288   1.236   1.477
  167SOL     OW  530   1.614   1.292   1.289
  167SOL    HW1  531   1.674   1.295   1.369
  167SOL    HW2  532   1.539   1.356   1.302
  168SOL     OW  533   1.039   1.098   0.696
  168SOL    HW1  534   0.969   1.051   0.750
  168SOL    HW2  535   1.098   1.030   0.653
  169SOL     OW  536   1.014   0.236   0.971
  169SOL    HW1  537   1.006   0.200   0.878
  169SOL    HW2  538   1.012   0.160   1.036
  170SOL     OW  539   0.590   1.487   0.491
  170SOL    HW1  540   0.632   1.429   0.421
  170SOL    HW2  541   0.546   1.566   0.447
  171SOL     OW  542   1.709   0.385   1.381
  171SOL    HW1  543   1.782   0.454   1.385
  171SOL    HW2  544   1.737   0.310   1.322
  172SOL     OW  545   0.255   1.348   0.290
  172SOL    HW1  546   0.159   1.349   0.263
  172SOL    HW2  547   0.267   1.401   0.374
  173SOL     OW  548   0.105   1.013   1.726
  173SOL    HW1  549   0.028   0.980   1.780
  173SOL    HW2  550   0.190   0.983   1.768
  174SOL     OW  551   0.672   0.203   1.489
  174SOL    HW1  552   0.762   0.187   1.449
  174SOL    HW2  553   0.680   0.208   1.588
  175SOL     OW  554   0.075   0.345   0.033
  175SOL    HW1  555  -0.017   0.317   0.004
  175SOL    HW2  556   0.106   0.422  -0.023
  176SOL     OW  557   1.440   0.856   1.398
  176SOL    HW1  558   1.383   0.908   1.335
  176SOL    HW2  559   1.536   0.868   1.374
  177SOL     OW  560   0.072   0.166   0.318
  177SOL    HW1  561   0.055   0.249   0.264
  177SOL    HW2  562   0.162   0.129   0.296
  178SOL     OW  563   1.183   1.335   0.119
  178SOL    HW1  564   1.084   1.324   0.121
  178SOL    HW2  565   1.217   1.350   0.212
  179SOL     OW  566   0.613   0.842   1.431
  179SOL    HW1  567   0.669   0.923   1.414
  179SOL    HW2  568   0.672   0.762   1.434
  180SOL     OW  569   1.493   1.767   0.959
  180SOL    HW1  570   1.526   1.831   0.890
  180SOL    HW2  571   1.559   1.761   1.034
  181SOL     OW  572   0.716   0.565   1.708
  181SOL    HW1  573   0.735   0.630   1.782
  181SOL    HW2  574   0.776   0.485   1.717
  182SOL     OW  575   0.390   1.741   1.560
  182SOL    HW1  576   0.299   1.782   1.558
  182SOL    HW2  577   0.383   1.647   1.592
  183SOL     OW  578   1.674   0.883   1.254
  183SOL    HW1  579   1.647   0.794   1.217
  183SOL    HW2  580   1.675   0.951   1.181
  184SOL     OW  581   1.225   0.325   0.449
  184SOL    HW1  582   1.290   0.251   0.438
  184SOL    HW2  583   1.245   0.375   0.533
  185SOL     OW  584   0.594   0.745   0.652
  185SOL    HW1  585   0.644   0.830   0.633
  185SOL    HW2  586   0.506   0.747   0.604
  186SOL     OW  587   1.777   0.342   1.642
  186SOL    HW1  588   1.760   0.373   1.548
  186SOL    HW2  589   1.693   0.305   1.680
  187SOL     OW  590   1.730   0.934   1.517
  187SOL    HW1  591   1.768   1.025   1.532
  187SOL    HW2  592   1.722   0.917   1.418
  188SOL     OW  593   0.859   1.374   0.016
  188SOL    HW1  594   0.813   1.389   0.104
  188SOL    HW2  595   0.903   1.459  -0.014
  189SOL     OW  596   0.661   1.790   0.953
  189SOL    HW1  597   0.615   1.878   0.940
  189SOL    HW2  598   0.760   1.802   0.946
  190SOL     OW  599   0.859   0.956   0.861
  190SOL    HW1  600   0.913   0.887   0.909
  190SOL    HW2  601   0.827   1.025   0.927
  191SOL     OW  602   1.083   0.984   0.087
  191SOL    HW1  603   1.060   1.037   0.005
  191SOL    HW2  604   1.164   0.928   0.068
  192SOL     OW  605   1.861   1.569   0.851
  192SOL    HW1  606   1.790   1.557   0.781
  192SOL    HW2  607   1.862   1.490   0.911
  193SOL     OW  608   0.221   1.314   1.844
  193SOL    HW1  609   0.156   1.241   1.823
  193SOL    HW2  610   0.225   1.328   1.942
  194SOL     OW  611   0.079   1.240   0.653
  194SOL    HW1  612   0.078   1.193   0.741
  194SOL    HW2  613   0.161   1.212   0.602
  195SOL     OW  614   0.672   1.391   1.624
  195SOL    HW1  615   0.594   1.341   1.662
  195SOL    HW2  616   0.669   1.486   1.655
  196SOL     OW  617   1.824   0.192   1.227
  196SOL    HW1  618   1.820   0.102   1.271
  196SOL    HW2  619   1.827   0.181   1.128
  197SOL     OW  620   0.428   0.424   0.520
  197SOL    HW1  621   0.458   0.352   0.458
  197SOL    HW2  622   0.389   0.384   0.603
  198SOL     OW  623   0.317   0.547   1.280
  198SOL    HW1  624   0.355   0.488   1.352
  198SOL    HW2  625   0.357   0.521   1.192
  199SOL     OW  626   0.812   1.586   0.687
  199SOL    HW1  627   0.844   1.596   0.593
  199SOL    HW2  628   0.733   1.524   0.689
  200SOL     OW  629   1.424   0.214   1.112
  200SOL    HW1  630   1.476   0.149   1.167
  200SOL    HW2  631   1.375   0.277   1.173
  201SOL     OW  632   1.001   0.034   1.154
  201SOL    HW1  633   0.938  -0.038   1.123
  201SOL    HW2  634   1.094  -0.002   1.154
  202SOL     OW  635   0.770   1.330   0.301
  202SOL    HW1  636   0.724   1.243   0.318
  202SOL    HW2  637   0.861   1.327   0.342
  203SOL     OW  638   0.618   1.567   1.284
  203SOL    HW1  639   0.613   1.649   1.341
  203SOL    HW2  640   0.707   1.564   1.239
  204SOL     OW  641   1.352   0.052   0.168
  204SOL    HW1  642   1.387   0.011   0.084
  204SOL    HW2  643   1.262   0.014   0.188
  205SOL     OW  644   1.300   0.453   0.691
  205SOL    HW1  645   1.241   0.533   0.695
  205SOL    HW2  646   1.315   0.418   0.784
  206SOL     OW  647   1.593   0.221   0.882
  206SOL    HW1  648   1.509   0.220   0.936
  206SOL    HW2  649   1.595   0.304   0.826
  207SOL     OW  650   0.039   1.077   0.300
  207SOL    HW1  651   0.138   1.066   0.291
  207SOL    HW2  652  -0.001   0.991   0.332
  208SOL     OW  653   0.875   1.646   0.337
  208SOL    HW1  654   0.798   1.611   0.283
  208SOL    HW2  655   0.843   1.717   0.399
  209SOL     OW  656   0.230   0.628   1.975
  209SOL    HW1  657   0.137   0.626   2.012
  209SOL    HW2  658   0.231   0.589   1.883
  210SOL     OW  659   0.225   0.275   2.858
  210SOL    HW1  660   0.260   0.258   2.950
  210SOL    HW2  661   0.137   0.230   2.846
  211SOL     OW  662   0.019   0.368   2.509
  211SOL    HW1  663  -0.063   0.411   2.548
  211SOL    HW2  664  -0.009   0.295   2.446
  212SOL     OW  665   0.569   1.275   3.027
  212SOL    HW1  666   0.476   1.268   2.990
  212SOL    HW2  667   0.580   1.364   3.071
  213SOL     OW  668   1.555   1.511   2.565
  213SOL    HW1  669   1.498   1.495   2.646
  213SOL    HW2  670   1.496   1.521   2.485
  214SOL     OW  671   1.135   0.703   2.579
  214SOL    HW1  672   1.192   0.781   2.554
  214SOL    HW2  673   1.075   0.729   2.655
  215SOL     OW  674   1.755   0.607   2.093
  215SOL    HW1  675   1.743   0.594   1.994
  215SOL    HW2  676   1.725   0.526   2.142
  216SOL     OW  677   0.768   1.144   2.885
  216SOL    HW1  678   0.690   1.161   2.945
  216SOL    HW2  679   0.802   1.231   2.849
  217SOL     OW  680   0.685   1.012   2.527
  217SOL    HW1  681   0.754   0.996   2.597
  217SOL    HW2  682   0.612   1.069   2.565
  218SOL     OW  683   0.335   1.435   2.923
  218SOL    HW1  684   0.257   1.404   2.870
  218SOL    HW2  685   0.393   1.493   2.866
  219SOL     OW  686   1.603   0.447   2.599
  219SOL    HW1  687   1.529   0.493   2.549
  219SOL    HW2  688   1.654   0.515   2.652
  220SOL     OW  689   0.231   1.713   2.345
  220SOL    HW1  690   0.265   1.790   2.399
  220SOL    HW2  691   0.275   1.713   2.255
  221SOL     OW  692   0.230   1.434   2.400
  221SOL    HW1  693   0.204   1.530   2.400
  221SOL    HW2  694   0.159   1.380   2.445
  222SOL     OW  695   0.240   1.091   2.748
  222SOL    HW1  696   0.254   1.007   2.800
  222SOL    HW2  697   0.185   1.155   2.803
  223SOL     OW  698   0.620   1.786   3.301
  223SOL    HW1  699   0.528   1.769   3.336
  223SOL    HW2  700   0.648   1.878   3.327
  224SOL     OW  701   0.606   0.964   1.985
  224SOL    HW1  702   0.613   1.048   1.931
  224SOL    HW2  703   0.652   0.977   2.073
  225SOL     OW  704   0.122   0.643   2.425
  225SOL    HW1  705   0.077   0.555   2.442
  225SOL    HW2  706   0.121   0.697   2.509
  226SOL     OW  707   1.842   1.767   2.221
  226SOL    HW1  708   1.896   1.738   2.301
  226SOL    HW2  709   1.872   1.857   2.192
  227SOL     OW  710   0.027   1.596   1.979
  227SOL    HW1  711   0.008   1.500   2.000
  227SOL    HW2  712  -0.006   1.654   2.054
  228SOL     OW  713   1.689   0.922   2.474
  228SOL    HW1  714   1.784   0.893   2.482
  228SOL    HW2  715   1.681   0.987   2.399
  229SOL     OW  716   1.641   1.108   2.294
  229SOL    HW1  717   1.727   1.110   2.242
  229SOL    HW2  718   1.655   1.155   2.382
  230SOL     OW  719   0.613   1.365   2.588
  230SOL    HW1  720   0.564   1.278   2.597
  230SOL    HW2  721   0.590   1.408   2.501
  231SOL     OW  722   0.809   0.004   2.364
  231SOL    HW1  723   0.849   0.095   2.355
  231SOL    HW2  724   0.709   0.012   2.370
  232SOL     OW  725   0.197   0.976   3.126
  232SOL    HW1  726   0.286   0.931   3.112
  232SOL    HW2  727   0.124   0.911   3.107
  233SOL     OW  728   1.525   0.999   2.052
  233SOL    HW1  729   1.462   0.923   2.065
  233SOL    HW2  730   1.573   1.017   2.138
  234SOL     OW  731   1.466   1.417   2.815
  234SOL    HW1  732   1.407   1.423   2.895
  234SOL    HW2  733   1.451   1.329   2.769
  235SOL     OW  734   1.667   1.714   2.434
  235SOL    HW1  735   1.626   1.691   2.346
  235SOL    HW2  736   1.649   1.640   2.499
  236SOL     OW  737   0.598   0.729   2.132
  236SOL    HW1  738   0.622   0.798   2.064
  236SOL    HW2  739   0.520   0.762   2.186
  237SOL     OW  740   1.281   0.345   2.806
  237SOL    HW1  741   1.195   0.295   2.793
  237SOL    HW2  742   1.343   0.291   2.862
  238SOL     OW  743   1.576   1.662   2.169
  238SOL    HW1  744   1.665   1.708   2.172
  238SOL    HW2  745   1.555   1.638   2.074
  239SOL     OW  746   0.807   0.605   3.327
  239SOL    HW1  747   0.760   0.602   3.416
  239SOL    HW2  748   0.756   0.550   3.261
  240SOL     OW  749   0.991   0.410   3.104
  240SOL    HW1  750   0.914   0.444   3.158
  240SOL    HW2  751   0.957   0.359   3.025
  241SOL     OW  752   1.041   0.701   2.291
  241SOL    HW1  753   1.067   0.697   2.387
  241SOL    HW2  754   0.956   0.650   2.277
  242SOL     OW  755   0.076   0.811   2.651
  242SOL    HW1  756   0.175   0.799   2.660
  242SOL    HW2  757   0.052   0.906   2.672
  243SOL     OW  758   0.130   1.821   3.433
  243SOL    HW1  759   0.120   1.806   3.532
  243SOL    HW2  760   0.044   1.857   3.397
  244SOL     OW  761   0.865   0.348   2.057
  244SOL    HW1  762   0.924   0.411   2.008
  244SOL    HW2  763   0.884   0.254   2.028
  245SOL     OW  764   1.362   1.144   2.407
  245SOL    HW1  765   1.445   1.115   2.359
  245SOL    HW2  766   1.313   1.211   2.351
  246SOL     OW  767   0.550   0.196   2.747
  246SOL    HW1  768   0.545   0.191   2.847
  246SOL    HW2  769   0.552   0.292   2.718
  247SOL     OW  770   1.008   1.456   2.339
  247SOL    HW1  771   0.962   1.528   2.287
  247SOL    HW2  772   1.004   1.476   2.437
  248SOL     OW  773   0.351   1.801   2.715
  248SOL    HW1  774   0.401   1.715   2.721
  248SOL    HW2  775   0.416   1.878   2.712
  249SOL     OW  776   1.795   1.066   2.735
  249SOL    HW1  777   1.733   1.051   2.659
  249SOL    HW2  778   1.743   1.077   2.820
  250SOL     OW  779   0.321   0.943   2.104
  250SOL    HW1  780   0.403   0.982   2.062
  250SOL    HW2  781   0.294   0.861   2.055
  251SOL     OW  782   1.458   0.735   2.590
  251SOL    HW1  783   1.453   0.670   2.665
  251SOL    HW2  784   1.538   0.794   2.603
  252SOL     OW  785   1.111   1.776   2.099
  252SOL    HW1  786   1.051   1.714   2.149
  252SOL    HW2  787   1.142   1.732   2.014
  253SOL     OW  788   1.632   1.377   1.943
  253SOL    HW1  789   1.600   1.471   1.933
  253SOL    HW2  790   1.556   1.314   1.931
  254SOL     OW  791   0.464   1.743   2.185
  254SOL    HW1  792   0.497   1.782   2.271
  254SOL    HW2  793   0.540   1.736   2.120
  255SOL     OW  794   1.400   0.107   2.288
  255SOL    HW1  795   1.376   0.070   2.198
  255SOL    HW2  796   1.499   0.123   2.292
  256SOL     OW  797   0.249   1.785   3.103
  256SOL    HW1  798   0.306   1.720   3.153
  256SOL    HW2  799   0.233   1.752   3.010
  257SOL     OW  800   0.940   1.698   2.766
  257SOL    HW1  801   1.020   1.641   2.787
  257SOL    HW2  802   0.891   1.658   2.689
  258SOL     OW  803   0.382   0.700   2.342
  258SOL    HW1  804   0.427   0.610   2.339
  258SOL    HW2  805   0.288   0.689   2.375
  259SOL     OW  806   0.614   0.122   1.979
  259SOL    HW1  807   0.712   0.100   1.986
  259SOL    HW2  808   0.583   0.105   1.886
  260SOL     OW  809   0.888   1.514   3.057
  260SOL    HW1  810   0.865   1.489   2.963
  260SOL    HW2  811   0.949   1.445   3.096
  261SOL     OW  812   0.803   1.402   2.786
  261SOL    HW1  813   0.893   1.416   2.744
  261SOL    HW2  814   0.732   1.404   2.715
  262SOL     OW  815   0.922   0.503   2.761
  262SOL    HW1  816   0.897   0.494   2.665
  262SOL    HW2  817   0.970   0.421   2.792
  263SOL     OW  818   0.539   0.064   2.374
  263SOL    HW1  819   0.458   0.065   2.432
  263SOL    HW2  820   0.542   0.147   2.319
  264SOL     OW  821   1.434   1.188   1.903
  264SOL    HW1  822   1.466   1.112   1.960
  264SOL    HW2  823   1.342   1.215   1.933
  265SOL     OW  824   0.297   0.035   2.033
  265SOL    HW1  825   0.346   0.119   2.012
  265SOL    HW2  826   0.359  -0.030   2.078
  266SOL     OW  827   0.935   0.236   2.342
  266SOL    HW1  828   0.887   0.277   2.264
  266SOL    HW2  829   1.034   0.234   2.323
  267SOL     OW  830   1.227   1.570   2.655
  267SOL    HW1  831   1.248   1.644   2.590
  267SOL    HW2  832   1.295   1.570   2.728
  268SOL     OW  833   0.459   1.152   2.603
  268SOL    HW1  834   0.388   1.125   2.668
  268SOL    HW2  835   0.433   1.124   2.510
  269SOL     OW  836   1.271   1.797   2.453
  269SOL    HW1  837   1.315   1.861   2.389
  269SOL    HW2  838   1.221   1.849   2.523
  270SOL     OW  839   1.032   0.549   1.878
  270SOL    HW1  840   0.991   0.631   1.839
  270SOL    HW2  841   1.096   0.575   1.951
  271SOL     OW  842   0.561   0.222   3.009
  271SOL    HW1  843   0.599   0.138   3.046
  271SOL    HW2  844   0.473   0.241   3.053
  272SOL     OW  845   0.866   0.454   2.504
  272SOL    HW1  846   0.834   0.526   2.442
  272SOL    HW2  847   0.890   0.373   2.451
  273SOL     OW  848   1.017   0.039   2.615
  273SOL    HW1  849   0.945   0.044   2.546
  273SOL    HW2  850   0.993  -0.030   2.684
  274SOL     OW  851   1.429   1.173   2.729
  274SOL    HW1  852   1.374   1.089   2.722
  274SOL    HW2  853   1.455   1.202   2.637
  275SOL     OW  854   1.466   0.590   2.854
  275SOL    HW1  855   1.436   0.495   2.861
  275SOL    HW2  856   1.539   0.606   2.920
  276SOL     OW  857   1.857   0.833   2.239
  276SOL    HW1  858   1.899   0.769   2.303
  276SOL    HW2  859   1.819   0.782   2.161
  277SOL     OW  860   0.488   1.385   2.036
  277SOL    HW1  861   0.401   1.370   2.083
  277SOL    HW2  862   0.471   1.411   1.941
  278SOL     OW  863   1.664   1.280   2.519
  278SOL    HW1  864   1.763   1.288   2.533
  278SOL    HW2  865   1.619   1.364   2.550
  279SOL     OW  866   1.390   0.575   1.940
  279SOL    HW1  867   1.336   0.554   2.021
  279SOL    HW2  868   1.481   0.534   1.949
  280SOL     OW  869   0.527   0.256   2.190
  280SOL    HW1  870   0.554   0.197   2.115
  280SOL    HW2  871   0.527   0.351   2.159
  281SOL     OW  872   1.754   1.223   3.450
  281SOL    HW1  873   1.845   1.184   3.437
  281SOL    HW2  874   1.762   1.319   3.474
  282SOL     OW  875   1.111   1.195   2.962
  282SOL    HW1  876   1.071   1.239   3.043
  282SOL    HW2  877   1.070   1.232   2.879
  283SOL     OW  878   1.638   1.099   2.941
  283SOL    HW1  879   1.643   1.180   3.000
  283SOL    HW2  880   1.552   1.101   2.890
  284SOL     OW  881   0.705   1.050   2.230
  284SOL    HW1  882   0.691   1.057   2.329
  284SOL    HW2  883   0.789   0.999   2.212
  285SOL     OW  884   0.410   0.813   3.113
  285SOL    HW1  885   0.496   0.825   3.163
  285SOL    HW2  886   0.368   0.726   3.140
  286SOL     OW  887   1.274   0.386   3.124
  286SOL    HW1  888   1.295   0.460   3.188
  286SOL    HW2  889   1.185   0.403   3.081
  287SOL     OW  890   0.064   1.564   3.193
  287SOL    HW1  891   0.018   1.646   3.159
  287SOL    HW2  892   0.162   1.583   3.202
  288SOL     OW  893   0.367   1.100   2.363
  288SOL    HW1  894   0.360   1.183   2.307
  288SOL    HW2  895   0.371   1.020   2.303
  289SOL     OW  896   0.566   0.537   2.727
  289SOL    HW1  897   0.578   0.603   2.653
  289SOL    HW2  898   0.612   0.571   2.810
  290SOL     OW  899   1.252   1.348   2.250
  290SOL    HW1  900   1.302   1.425   2.290
  290SOL    HW2  901   1.157   1.350   2.282
  291SOL     OW  902   1.272   1.445   3.004
  291SOL    HW1  903   1.319   1.458   3.091
  291SOL    HW2  904   1.206   1.371   3.013
  292SOL     OW  905   1.582   0.639   2.334
  292SOL    HW1  906   1.551   0.700   2.407
  292SOL    HW2  907   1.632   0.691   2.265
  293SOL     OW  908   0.354   1.510   3.191
  293SOL    HW1  909   0.333   1.466   3.104
  293SOL    HW2  910   0.451   1.536   3.194
  294SOL     OW  911   0.573   0.870   2.891
  294SOL    HW1  912   0.617   0.959   2.882
  294SOL    HW2  913   0.510   0.870   2.968
  295SOL     OW  914   1.360   0.862   2.907
  295SOL    HW1  915   1.285   0.862   2.841
  295SOL    HW2  916   1.397   0.770   2.916
  296SOL     OW  917   1.209   0.525   2.137
  296SOL    HW1  918   1.222   0.441   2.191
  296SOL    HW2  919   1.180   0.599   2.197
  297SOL     OW  920   0.307   0.213   3.093
  297SOL    HW1  921   0.284   0.250   3.183
  297SOL    HW2  922   0.277   0.118   3.087
  298SOL     OW  923   0.037   1.310   3.144
  298SOL    HW1  924   0.090   1.261   3.212
  298SOL    HW2  925   0.059   1.408   3.149
  299SOL     OW  926   0.732   0.634   2.926
  299SOL    HW1  927   0.791   0.608   2.850
  299SOL    HW2  928   0.704   0.730   2.915
  300SOL     OW  929   0.307   0.063   2.480
  300SOL    HW1  930   0.296   0.157   2.513
  300SOL    HW2  931   0.302   0.000   2.557
  301SOL     OW  932   1.622   0.367   2.236
  301SOL    HW1  933   1.624   0.291   2.300
  301SOL    HW2  934   1.574   0.444   2.276
  302SOL     OW  935   1.023   0.766   2.828
  302SOL    HW1  936   1.038   0.787   2.924
  302SOL    HW2  937   0.993   0.671   2.819
  303SOL     OW  938   1.859   1.518   3.467
  303SOL    HW1  939   1.873   1.545   3.372
  303SOL    HW2  940   1.942   1.540   3.520
  304SOL     OW  941   1.540   0.274   1.987
  304SOL    HW1  942   1.479   0.199   2.010
  304SOL    HW2  943   1.562   0.326   2.070
  305SOL     OW  944   1.303   0.838   1.904
  305SOL    HW1  945   1.337   0.745   1.919
  305SOL    HW2  946   1.321   0.865   1.809
  306SOL     OW  947   1.068   1.333   2.711
  306SOL    HW1  948   1.075   1.249   2.656
  306SOL    HW2  949   1.130   1.402   2.675
  307SOL     OW  950   0.319   0.810   2.811
  307SOL    HW1  951   0.412   0.846   2.816
  307SOL    HW2  952   0.313   0.725   2.863
  308SOL     OW  953   0.339   0.509   2.868
  308SOL    HW1  954   0.287   0.426   2.851
  308SOL    HW2  955   0.416   0.514   2.804
  309SOL     OW  956   1.160   0.207   3.339
  309SOL    HW1  957   1.160   0.271   3.416
  309SOL    HW2  958   1.188   0.255   3.256
  310SOL     OW  959   0.008   1.326   2.062
  310SOL    HW1  960  -0.085   1.347   2.031
  310SOL    HW2  961   0.018   1.227   2.075
  311SOL     OW  962   0.088   1.801   2.789
  311SOL    HW1  963   0.046   1.715   2.762
  311SOL    HW2  964   0.182   1.804   2.755
  312SOL     OW  965   0.504   1.568   2.772
  312SOL    HW1  966   0.570   1.642   2.781
  312SOL    HW2  967   0.548   1.489   2.730
  313SOL     OW  968   1.002   0.796   3.100
  313SOL    HW1  969   1.043   0.764   3.186
  313SOL    HW2  970   0.906   0.769   3.097
  314SOL     OW  971   0.040   0.544   2.976
  314SOL    HW1  972   0.125   0.511   2.935
  314SOL    HW2  973   0.053   0.559   3.074
  315SOL     OW  974   0.815   0.572   2.187
  315SOL    HW1  975   0.822   0.483   2.141
  315SOL    HW2  976   0.721   0.606   2.179
  316SOL     OW  977   1.657   0.604   3.068
  316SOL    HW1  978   1.619   0.535   3.130
  316SOL    HW2  979   1.739   0.568   3.024
  317SOL     OW  980   0.671   0.464   3.131
  317SOL    HW1  981   0.637   0.375   3.101
  317SOL    HW2  982   0.697   0.518   3.051
  318SOL     OW  983   0.930   1.678   3.327
  318SOL    HW1  984   0.906   1.660   3.232
  318SOL    HW2  985   0.960   1.772   3.337
  319SOL     OW  986   0.473   0.500   2.053
  319SOL    HW1  987   0.534   0.580   2.057
  319SOL    HW2  988   0.378   0.531   2.060
  320SOL     OW  989   0.159   1.137   3.328
  320SOL    HW1  990   0.181   1.076   3.404
  320SOL    HW2  991   0.169   1.088   3.242
  321SOL     OW  992   1.347   1.059   3.096
  321SOL    HW1  993   1.371   0.996   3.022
  321SOL    HW2  994   1.257   1.099   3.078
  322SOL     OW  995   1.302   0.855   2.171
  322SOL    HW1  996   1.216   0.824   2.213
  322SOL    HW2  997   1.298   0.841   2.072
  323SOL     OW  998   1.759   1.747   3.016
  323SOL    HW1  999   1.820   1.777   2.943
  323SOL    HW2 1000   1.721   1.658   2.994
  324SOL     OW 1001   1.252   1.731   2.990
  324SOL    HW1 1002   1.336   1.736   2.936
  324SOL    HW2 1003   1.229   1.635   3.008
  325SOL     OW 1004   0.083   1.258   2.884
  325SOL    HW1 1005   0.078   1.257   2.984
  325SOL    HW2 1006   0.000   1.217   2.846
  326SOL     OW 1007   1.726   0.135   2.385
  326SOL    HW1 1008   1.799   0.118   2.318
  326SOL    HW2 1009   1.695   0.048   2.423
  327SOL     OW 1010   1.388   1.573   2.339
  327SOL    HW1 1011   1.455   1.585   2.265
  327SOL    HW2 1012   1.348   1.662   2.362
  328SOL     OW 1013   1.280   0.927   2.534
  328SOL    HW1 1014   1.340   0.846   2.536
  328SOL    HW2 1015   1.320   0.996   2.474
  329SOL     OW 1016   0.672   1.616   2.016
  329SOL    HW1 1017   0.681   1.626   1.917
  329SOL    HW2 1018   0.632   1.527   2.037
  330SOL     OW 1019   1.841   0.175   2.825
  330SOL    HW1 1020   1.880   0.090   2.789
  330SOL    HW2 1021   1.743   0.177   2.806
  331SOL     OW 1022   0.263   0.326   2.582
  331SOL    HW1 1023   0.184   0.377   2.548
  331SOL    HW2 1024   0.254   0.311   2.680
  332SOL     OW 1025   1.194   1.612   1.893
  332SOL    HW1 1026   1.200   1.519   1.930
  332SOL    HW2 1027   1.135   1.612   1.813
  333SOL     OW 1028   0.822   1.002   3.234
  333SOL    HW1 1029   0.862   1.001   3.142
  333SOL    HW2 1030   0.832   1.094   3.274
  334SOL     OW 1031   0.916   0.910   2.153
  334SOL    HW1 1032   0.979   0.948   2.085
  334SOL    HW2 1033   0.956   0.827   2.192
  335SOL     OW 1034   1.039   1.098   2.558
  335SOL    HW1 1035   0.969   1.051   2.612
  335SOL    HW2 1036   1.098   1.030   2.515
  336SOL     OW 1037   1.014   0.236   2.833
  336SOL    HW1 1038   1.006   0.200   2.740
  336SOL    HW2 1039   1.012   0.160   2.898
  337SOL     OW 1040   0.590   1.487   2.353
  337SOL    HW1 1041   0.632   1.429   2.283
  337SOL    HW2 1042   0.546   1.566   2.309
  338SOL     OW 1043   1.709   0.385   3.243
  338SOL    HW1 1044   1.782   0.454   3.247
  338SOL    HW2 1045   1.737   0.310   3.184
  339SOL     OW 1046   0.255   1.348   2.152
  339SOL    HW1 1047   0.159   1.349   2.125
  339SOL    HW2 1048   0.267   1.401   2.236
  340SOL     OW 1049   0.075   0.345   1.895
  340SOL    HW1 1050  -0.017   0.317   1.866
  340SOL    HW2 1051   0.106   0.422   1.839
  341SOL     OW 1052   0.072   0.166   2.180
  341SOL    HW1 1053   0.055   0.249   2.126
  341SOL    HW2 1054   0.162   0.129   2.158
  342SOL     OW 1055   1.183   1.335   1.981
  342SOL    HW1 1056   1.084   1.324   1.983
  342SOL    HW2 1057   1.217   1.350   2.074
  343SOL     OW 1058   1.493   1.767   2.821
  343SOL    HW1 1059   1.526   1.831   2.752
  343SOL    HW2 1060   1.559   1.761   2.896
  344SOL     OW 1061   1.450   1.220   3.495
  344SOL    HW1 1062   1.441   1.210   3.594
  344SOL    HW2 1063   1.546   1.213   3.469
  345SOL     OW 1064   0.390   1.741   3.422
  345SOL    HW1 1065   0.299   1.782   3.420
  345SOL    HW2 1066   0.383   1.647   3.454
  346SOL     OW 1067   1.674   0.883   3.116
  346SOL    HW1 1068   1.647   0.794   3.079
  346SOL    HW2 1069   1.675   0.951   3.043
  347SOL     OW 1070   1.225   0.325   2.311
  347SOL    HW1 1071   1.290   0.251   2.300
  347SOL    HW2 1072   1.245   0.375   2.395
  348SOL     OW 1073   0.594   0.745   2.514
  348SOL    HW1 1074   0.644   0.830   2.495
  348SOL    HW2 1075   0.506   0.747   2.466
  349SOL     OW 1076   1.730   0.934   3.379
  349SOL    HW1 1077   1.768   1.025   3.394
  349SOL    HW2 1078   1.722   0.917   3.280
  350SOL     OW 1079   0.859   1.374   1.878
  350SOL    HW1 1080   0.813   1.389   1.966
  350SOL    HW2 1081   0.903   1.459   1.848
  351SOL     OW 1082   0.661   1.790   2.815
  351SOL    HW1 1083   0.615   1.878   2.802
  351SOL    HW2 1084   0.760   1.802   2.808
  352SOL     OW 1085   0.859   0.956   2.723
  352SOL    HW1 1086   0.913   0.887   2.771
  352SOL    HW2 1087   0.827   1.025   2.789
  353SOL     OW 1088   1.083   0.984   1.949
  353SOL    HW1 1089   1.060   1.037   1.867
  353SOL    HW2 1090   1.164   0.928   1.930
  354SOL     OW 1091   1.861   1.569   2.713
  354SOL    HW1 1092   1.790   1.557   2.643
  354SOL    HW2 1093   1.862   1.490   2.773
  355SOL     OW 1094   0.079   1.240   2.515
  355SOL    HW1 1095   0.078   1.193   2.603
  355SOL    HW2 1096   0.161   1.212   2.464
  356SOL     OW 1097   1.824   0.192   3.089
  356SOL    HW1 1098   1.820   0.102   3.133
  356SOL    HW2 1099   1.827   0.181   2.990
  357SOL     OW 1100   0.428   0.424   2.382
  357SOL    HW1 1101   0.458   0.352   2.320
  357SOL    HW2 1102   0.389   0.384   2.465
  358SOL     OW 1103   1.705   1.487   2.966
  358SOL    HW1 1104   1.612   1.462   2.939
  358SOL    HW2 1105   1.731   1.437   3.048
  359SOL     OW 1106   0.317   0.547   3.142
  359SOL    HW1 1107   0.355   0.488   3.214
  359SOL    HW2 1108   0.357   0.521   3.054
  360SOL     OW 1109   0.812   1.586   2.549
  360SOL    HW1 1110   0.844   1.596   2.455
  360SOL    HW2 1111   0.733   1.524   2.551
  361SOL     OW 1112   1.424   0.214   2.974
  361SOL    HW1 1113   1.476   0.149   3.029
  361SOL    HW2 1114   1.375   0.277   3.035
  362SOL     OW 1115   1.001   0.034   3.016
  362SOL    HW1 1116   0.938  -0.038   2.985
  362SOL    HW2 1117   1.094  -0.002   3.016
  363SOL     OW 1118   0.770   1.330   2.163
  363SOL    HW1 1119   0.724   1.243   2.180
  363SOL    HW2 1120   0.861   1.327   2.204
  364SOL     OW 1121   1.352   0.052   2.030
  364SOL    HW1 1122   1.387   0.011   1.946
  364SOL    HW2 1123   1.262   0.014   2.050
  365SOL     OW 1124   1.300   0.453   2.553
  365SOL    HW1 1125   1.241   0.533   2.557
  365SOL    HW2 1126   1.315   0.418   2.646
  366SOL     OW 1127   1.593   0.221   2.744
  366SOL    HW1 1128   1.509   0.220   2.798
  366SOL    HW2 1129   1.595   0.304   2.688
  367SOL     OW 1130   0.039   1.077   2.162
  367SOL    HW1 1131   0.138   1.066   2.153
  367SOL    HW2 1132  -0.001   0.991   2.194
  368SOL     OW 1133   0.875   1.646   2.199
  368SOL    HW1 1134   0.798   1.611   2.145
  368SOL    HW2 1135   0.843   1.717   2.261
  369SOL     OW 1136   0.230   2.490   0.113
  369SOL    HW1 1137   0.137   2.488   0.150
  369SOL    HW2 1138   0.231   2.451   0.021
  370SOL     OW 1139   0.225   2.137   0.996
  370SOL    HW1 1140   0.260   2.120   1.088
  370SOL    HW2 1141   0.137   2.092   0.984
  371SOL     OW 1142   0.019   2.230   0.647
  371SOL    HW1 1143  -0.063   2.273   0.686
  371SOL    HW2 1144  -0.009   2.157   0.584
  372SOL     OW 1145   0.569   3.137   1.165
  372SOL    HW1 1146   0.476   3.130   1.128
  372SOL    HW2 1147   0.580   3.226   1.209
  373SOL     OW 1148   1.555   3.373   0.703
  373SOL    HW1 1149   1.498   3.357   0.784
  373SOL    HW2 1150   1.496   3.383   0.623
  374SOL     OW 1151   1.135   2.565   0.717
  374SOL    HW1 1152   1.192   2.643   0.692
  374SOL    HW2 1153   1.075   2.591   0.793
  375SOL     OW 1154   1.755   2.469   0.231
  375SOL    HW1 1155   1.743   2.456   0.132
  375SOL    HW2 1156   1.725   2.388   0.280
  376SOL     OW 1157   0.768   3.006   1.023
  376SOL    HW1 1158   0.690   3.023   1.083
  376SOL    HW2 1159   0.802   3.093   0.987
  377SOL     OW 1160   0.850   2.660   1.823
  377SOL    HW1 1161   0.846   2.736   1.888
  377SOL    HW2 1162   0.872   2.696   1.732
  378SOL     OW 1163   0.685   2.874   0.665
  378SOL    HW1 1164   0.754   2.858   0.735
  378SOL    HW2 1165   0.612   2.931   0.703
  379SOL     OW 1166   0.686   3.023   1.803
  379SOL    HW1 1167   0.746   3.102   1.817
  379SOL    HW2 1168   0.600   3.054   1.762
  380SOL     OW 1169   0.335   3.297   1.061
  380SOL    HW1 1170   0.257   3.266   1.008
  380SOL    HW2 1171   0.393   3.355   1.004
  381SOL     OW 1172   0.438   2.254   1.499
  381SOL    HW1 1173   0.520   2.198   1.508
  381SOL    HW2 1174   0.357   2.196   1.503
  382SOL     OW 1175   1.603   2.309   0.737
  382SOL    HW1 1176   1.529   2.355   0.687
  382SOL    HW2 1177   1.654   2.377   0.790
  383SOL     OW 1178   0.240   2.953   0.886
  383SOL    HW1 1179   0.254   2.869   0.938
  383SOL    HW2 1180   0.185   3.017   0.941
  384SOL     OW 1181   0.606   2.826   0.123
  384SOL    HW1 1182   0.613   2.910   0.069
  384SOL    HW2 1183   0.652   2.839   0.211
  385SOL     OW 1184   1.594   1.976   1.480
  385SOL    HW1 1185   1.576   2.043   1.408
  385SOL    HW2 1186   1.591   2.022   1.569
  386SOL     OW 1187   0.122   2.505   0.563
  386SOL    HW1 1188   0.077   2.417   0.580
  386SOL    HW2 1189   0.121   2.559   0.647
  387SOL     OW 1190   1.689   2.784   0.612
  387SOL    HW1 1191   1.784   2.755   0.620
  387SOL    HW2 1192   1.681   2.849   0.537
  388SOL     OW 1193   1.641   2.970   0.432
  388SOL    HW1 1194   1.727   2.972   0.380
  388SOL    HW2 1195   1.655   3.017   0.520
  389SOL     OW 1196   0.113   2.599   1.597
  389SOL    HW1 1197   0.201   2.586   1.642
  389SOL    HW2 1198   0.100   2.696   1.575
  390SOL     OW 1199   1.293   3.090   1.423
  390SOL    HW1 1200   1.330   3.017   1.365
  390SOL    HW2 1201   1.345   3.095   1.508
  391SOL     OW 1202   0.809   1.866   0.502
  391SOL    HW1 1203   0.849   1.957   0.493
  391SOL    HW2 1204   0.709   1.874   0.508
  392SOL     OW 1205   0.197   2.838   1.264
  392SOL    HW1 1206   0.286   2.793   1.250
  392SOL    HW2 1207   0.124   2.773   1.245
  393SOL     OW 1208   1.525   2.861   0.190
  393SOL    HW1 1209   1.462   2.785   0.203
  393SOL    HW2 1210   1.573   2.879   0.276
  394SOL     OW 1211   0.317   2.113   1.801
  394SOL    HW1 1212   0.388   2.184   1.807
  394SOL    HW2 1213   0.229   2.152   1.829
  395SOL     OW 1214   1.466   3.279   0.953
  395SOL    HW1 1215   1.407   3.285   1.033
  395SOL    HW2 1216   1.451   3.191   0.907
  396SOL     OW 1217   0.598   2.591   0.270
  396SOL    HW1 1218   0.622   2.660   0.202
  396SOL    HW2 1219   0.520   2.624   0.324
  397SOL     OW 1220   1.281   2.207   0.944
  397SOL    HW1 1221   1.195   2.157   0.931
  397SOL    HW2 1222   1.343   2.153   1.000
  398SOL     OW 1223   0.807   2.467   1.465
  398SOL    HW1 1224   0.760   2.464   1.554
  398SOL    HW2 1225   0.756   2.412   1.399
  399SOL     OW 1226   0.973   2.752   1.572
  399SOL    HW1 1227   1.019   2.668   1.543
  399SOL    HW2 1228   0.917   2.786   1.497
  400SOL     OW 1229   0.991   2.272   1.242
  400SOL    HW1 1230   0.914   2.306   1.296
  400SOL    HW2 1231   0.957   2.221   1.163
  401SOL     OW 1232   1.041   2.563   0.429
  401SOL    HW1 1233   1.067   2.559   0.525
  401SOL    HW2 1234   0.956   2.512   0.415
  402SOL     OW 1235   0.076   2.673   0.789
  402SOL    HW1 1236   0.175   2.661   0.798
  402SOL    HW2 1237   0.052   2.768   0.810
  403SOL     OW 1238   0.865   2.210   0.195
  403SOL    HW1 1239   0.924   2.273   0.146
  403SOL    HW2 1240   0.884   2.116   0.166
  404SOL     OW 1241   1.719   2.447   1.831
  404SOL    HW1 1242   1.693   2.536   1.795
  404SOL    HW2 1243   1.717   2.379   1.758
  405SOL     OW 1244   1.362   3.006   0.545
  405SOL    HW1 1245   1.445   2.977   0.497
  405SOL    HW2 1246   1.313   3.073   0.489
  406SOL     OW 1247   0.550   2.058   0.885
  406SOL    HW1 1248   0.545   2.053   0.985
  406SOL    HW2 1249   0.552   2.154   0.856
  407SOL     OW 1250   1.795   2.928   0.873
  407SOL    HW1 1251   1.733   2.913   0.797
  407SOL    HW2 1252   1.743   2.939   0.958
  408SOL     OW 1253   0.321   2.805   0.242
  408SOL    HW1 1254   0.403   2.844   0.200
  408SOL    HW2 1255   0.294   2.723   0.193
  409SOL     OW 1256   1.458   2.597   0.728
  409SOL    HW1 1257   1.453   2.532   0.803
  409SOL    HW2 1258   1.538   2.656   0.741
  410SOL     OW 1259   0.202   2.147   1.498
  410SOL    HW1 1260   0.122   2.207   1.485
  410SOL    HW2 1261   0.192   2.098   1.584
  411SOL     OW 1262   1.632   3.239   0.081
  411SOL    HW1 1263   1.600   3.333   0.071
  411SOL    HW2 1264   1.556   3.176   0.069
  412SOL     OW 1265   1.400   1.969   0.426
  412SOL    HW1 1266   1.376   1.932   0.336
  412SOL    HW2 1267   1.499   1.985   0.430
  413SOL     OW 1268   0.382   2.562   0.480
  413SOL    HW1 1269   0.427   2.472   0.477
  413SOL    HW2 1270   0.288   2.551   0.513
  414SOL     OW 1271   0.781   2.126   1.749
  414SOL    HW1 1272   0.848   2.065   1.792
  414SOL    HW2 1273   0.708   2.145   1.814
  415SOL     OW 1274   1.351   2.452   1.433
  415SOL    HW1 1275   1.379   2.409   1.518
  415SOL    HW2 1276   1.376   2.548   1.434
  416SOL     OW 1277   0.922   2.365   0.899
  416SOL    HW1 1278   0.897   2.356   0.803
  416SOL    HW2 1279   0.970   2.283   0.930
  417SOL     OW 1280   0.539   1.926   0.512
  417SOL    HW1 1281   0.458   1.927   0.570
  417SOL    HW2 1282   0.542   2.009   0.457
  418SOL     OW 1283   1.434   3.050   0.041
  418SOL    HW1 1284   1.466   2.974   0.098
  418SOL    HW2 1285   1.342   3.077   0.071
  419SOL     OW 1286   0.935   2.098   0.480
  419SOL    HW1 1287   0.887   2.139   0.402
  419SOL    HW2 1288   1.034   2.096   0.461
  420SOL     OW 1289   1.076   2.545   1.464
  420SOL    HW1 1290   0.996   2.484   1.467
  420SOL    HW2 1291   1.157   2.492   1.440
  421SOL     OW 1292   1.227   3.432   0.793
  421SOL    HW1 1293   1.248   3.506   0.728
  421SOL    HW2 1294   1.295   3.432   0.866
  422SOL     OW 1295   0.459   3.014   0.741
  422SOL    HW1 1296   0.388   2.987   0.806
  422SOL    HW2 1297   0.433   2.986   0.648
  423SOL     OW 1298   1.032   2.411   0.016
  423SOL    HW1 1299   0.991   2.493  -0.023
  423SOL    HW2 1300   1.096   2.437   0.089
  424SOL     OW 1301   0.078   2.418   1.386
  424SOL    HW1 1302   0.170   2.417   1.345
  424SOL    HW2 1303   0.072   2.492   1.453
  425SOL     OW 1304   0.561   2.084   1.147
  425SOL    HW1 1305   0.599   2.000   1.184
  425SOL    HW2 1306   0.473   2.103   1.191
  426SOL     OW 1307   0.866   2.316   0.642
  426SOL    HW1 1308   0.834   2.388   0.580
  426SOL    HW2 1309   0.890   2.235   0.589
  427SOL     OW 1310   1.017   1.901   0.753
  427SOL    HW1 1311   0.945   1.906   0.684
  427SOL    HW2 1312   0.993   1.832   0.822
  428SOL     OW 1313   1.429   3.035   0.867
  428SOL    HW1 1314   1.374   2.951   0.860
  428SOL    HW2 1315   1.455   3.064   0.775
  429SOL     OW 1316   1.466   2.452   0.992
  429SOL    HW1 1317   1.436   2.357   0.999
  429SOL    HW2 1318   1.539   2.468   1.058
  430SOL     OW 1319   1.857   2.695   0.377
  430SOL    HW1 1320   1.899   2.631   0.441
  430SOL    HW2 1321   1.819   2.644   0.299
  431SOL     OW 1322   1.664   3.142   0.657
  431SOL    HW1 1323   1.763   3.150   0.671
  431SOL    HW2 1324   1.619   3.226   0.688
  432SOL     OW 1325   1.390   2.437   0.078
  432SOL    HW1 1326   1.336   2.416   0.159
  432SOL    HW2 1327   1.481   2.396   0.087
  433SOL     OW 1328   0.527   2.118   0.328
  433SOL    HW1 1329   0.554   2.059   0.253
  433SOL    HW2 1330   0.527   2.213   0.297
  434SOL     OW 1331   1.754   3.085   1.588
  434SOL    HW1 1332   1.845   3.046   1.575
  434SOL    HW2 1333   1.762   3.181   1.612
  435SOL     OW 1334   1.064   3.209   1.340
  435SOL    HW1 1335   0.984   3.186   1.395
  435SOL    HW2 1336   1.147   3.183   1.389
  436SOL     OW 1337   1.111   3.057   1.100
  436SOL    HW1 1338   1.071   3.101   1.181
  436SOL    HW2 1339   1.070   3.094   1.017
  437SOL     OW 1340   1.638   2.961   1.079
  437SOL    HW1 1341   1.643   3.042   1.138
  437SOL    HW2 1342   1.552   2.963   1.028
  438SOL     OW 1343   0.915   1.951   1.402
  438SOL    HW1 1344   0.940   1.931   1.307
  438SOL    HW2 1345   0.987   2.007   1.444
  439SOL     OW 1346   0.980   2.978   1.719
  439SOL    HW1 1347   0.881   2.984   1.729
  439SOL    HW2 1348   1.003   2.898   1.663
  440SOL     OW 1349   0.705   2.912   0.368
  440SOL    HW1 1350   0.691   2.919   0.467
  440SOL    HW2 1351   0.789   2.861   0.350
  441SOL     OW 1352   0.410   2.675   1.251
  441SOL    HW1 1353   0.496   2.687   1.301
  441SOL    HW2 1354   0.368   2.588   1.278
  442SOL     OW 1355   1.274   2.248   1.262
  442SOL    HW1 1356   1.295   2.322   1.326
  442SOL    HW2 1357   1.185   2.265   1.219
  443SOL     OW 1358   0.064   3.426   1.331
  443SOL    HW1 1359   0.018   3.508   1.297
  443SOL    HW2 1360   0.162   3.445   1.340
  444SOL     OW 1361   0.367   2.962   0.501
  444SOL    HW1 1362   0.360   3.045   0.445
  444SOL    HW2 1363   0.371   2.882   0.441
  445SOL     OW 1364   0.566   2.399   0.865
  445SOL    HW1 1365   0.578   2.465   0.791
  445SOL    HW2 1366   0.612   2.433   0.948
  446SOL     OW 1367   1.582   2.501   0.472
  446SOL    HW1 1368   1.551   2.562   0.545
  446SOL    HW2 1369   1.632   2.553   0.403
  447SOL     OW 1370   0.402   2.613   1.598
  447SOL    HW1 1371   0.470   2.668   1.551
  447SOL    HW2 1372   0.442   2.525   1.625
  448SOL     OW 1373   1.587   2.641   1.670
  448SOL    HW1 1374   1.495   2.679   1.665
  448SOL    HW2 1375   1.647   2.688   1.605
  449SOL     OW 1376   1.013   1.967   1.770
  449SOL    HW1 1377   1.019   2.052   1.718
  449SOL    HW2 1378   1.045   1.891   1.713
  450SOL     OW 1379   0.504   1.912   1.740
  450SOL    HW1 1380   0.462   1.855   1.670
  450SOL    HW2 1381   0.438   1.981   1.772
  451SOL     OW 1382   0.573   2.732   1.029
  451SOL    HW1 1383   0.617   2.821   1.020
  451SOL    HW2 1384   0.510   2.732   1.106
  452SOL     OW 1385   1.360   2.724   1.045
  452SOL    HW1 1386   1.285   2.724   0.979
  452SOL    HW2 1387   1.397   2.632   1.054
  453SOL     OW 1388   1.209   2.387   0.275
  453SOL    HW1 1389   1.222   2.303   0.329
  453SOL    HW2 1390   1.180   2.461   0.335
  454SOL     OW 1391   0.307   2.075   1.231
  454SOL    HW1 1392   0.284   2.112   1.321
  454SOL    HW2 1393   0.277   1.980   1.225
  455SOL     OW 1394   0.037   3.172   1.282
  455SOL    HW1 1395   0.090   3.123   1.350
  455SOL    HW2 1396   0.059   3.270   1.287
  456SOL     OW 1397   0.732   2.496   1.064
  456SOL    HW1 1398   0.791   2.470   0.988
  456SOL    HW2 1399   0.704   2.592   1.053
  457SOL     OW 1400   1.728   2.797   1.854
  457SOL    HW1 1401   1.682   2.790   1.765
  457SOL    HW2 1402   1.666   2.841   1.920
  458SOL     OW 1403   0.307   1.925   0.618
  458SOL    HW1 1404   0.296   2.019   0.651
  458SOL    HW2 1405   0.302   1.862   0.695
  459SOL     OW 1406   1.622   2.229   0.374
  459SOL    HW1 1407   1.624   2.153   0.438
  459SOL    HW2 1408   1.574   2.306   0.414
  460SOL     OW 1409   1.023   2.628   0.966
  460SOL    HW1 1410   1.038   2.649   1.062
  460SOL    HW2 1411   0.993   2.533   0.957
  461SOL     OW 1412   1.859   3.380   1.605
  461SOL    HW1 1413   1.873   3.407   1.510
  461SOL    HW2 1414   1.942   3.402   1.658
  462SOL     OW 1415   0.350   2.760   1.804
  462SOL    HW1 1416   0.426   2.804   1.852
  462SOL    HW2 1417   0.385   2.713   1.722
  463SOL     OW 1418   1.540   2.136   0.125
  463SOL    HW1 1419   1.479   2.061   0.148
  463SOL    HW2 1420   1.562   2.188   0.208
  464SOL     OW 1421   1.303   2.700   0.042
  464SOL    HW1 1422   1.337   2.607   0.057
  464SOL    HW2 1423   1.321   2.727  -0.053
  465SOL     OW 1424   0.319   2.672   0.949
  465SOL    HW1 1425   0.412   2.708   0.954
  465SOL    HW2 1426   0.313   2.587   1.001
  466SOL     OW 1427   0.339   2.371   1.006
  466SOL    HW1 1428   0.287   2.288   0.989
  466SOL    HW2 1429   0.416   2.376   0.942
  467SOL     OW 1430   1.160   2.069   1.477
  467SOL    HW1 1431   1.160   2.133   1.554
  467SOL    HW2 1432   1.188   2.117   1.394
  468SOL     OW 1433   0.008   3.188   0.200
  468SOL    HW1 1434  -0.085   3.209   0.169
  468SOL    HW2 1435   0.018   3.089   0.213
  469SOL     OW 1436   1.002   2.658   1.238
  469SOL    HW1 1437   1.043   2.626   1.324
  469SOL    HW2 1438   0.906   2.631   1.235
  470SOL     OW 1439   0.040   2.406   1.114
  470SOL    HW1 1440   0.125   2.373   1.073
  470SOL    HW2 1441   0.053   2.421   1.212
  471SOL     OW 1442   0.189   2.382   1.722
  471SOL    HW1 1443   0.248   2.342   1.652
  471SOL    HW2 1444   0.131   2.453   1.681
  472SOL     OW 1445   1.369   2.812   1.660
  472SOL    HW1 1446   1.408   2.901   1.680
  472SOL    HW2 1447   1.379   2.792   1.563
  473SOL     OW 1448   0.815   2.434   0.325
  473SOL    HW1 1449   0.822   2.345   0.279
  473SOL    HW2 1450   0.721   2.468   0.317
  474SOL     OW 1451   1.657   2.466   1.206
  474SOL    HW1 1452   1.619   2.397   1.268
  474SOL    HW2 1453   1.739   2.430   1.162
  475SOL     OW 1454   0.671   2.326   1.269
  475SOL    HW1 1455   0.637   2.237   1.239
  475SOL    HW2 1456   0.697   2.380   1.189
  476SOL     OW 1457   0.473   2.362   0.191
  476SOL    HW1 1458   0.534   2.442   0.195
  476SOL    HW2 1459   0.378   2.393   0.198
  477SOL     OW 1460   0.159   2.999   1.466
  477SOL    HW1 1461   0.181   2.938   1.542
  477SOL    HW2 1462   0.169   2.950   1.380
  478SOL     OW 1463   1.347   2.921   1.234
  478SOL    HW1 1464   1.371   2.858   1.160
  478SOL    HW2 1465   1.257   2.961   1.216
  479SOL     OW 1466   1.302   2.717   0.309
  479SOL    HW1 1467   1.216   2.686   0.351
  479SOL    HW2 1468   1.298   2.703   0.210
  480SOL     OW 1469   0.083   3.120   1.022
  480SOL    HW1 1470   0.078   3.119   1.122
  480SOL    HW2 1471   0.000   3.079   0.984
  481SOL     OW 1472   0.903   1.948   0.133
  481SOL    HW1 1473   0.954   1.949   0.047
  481SOL    HW2 1474   0.959   1.906   0.204
  482SOL     OW 1475   1.726   1.997   0.523
  482SOL    HW1 1476   1.799   1.980   0.456
  482SOL    HW2 1477   1.695   1.910   0.561
  483SOL     OW 1478   1.280   2.789   0.672
  483SOL    HW1 1479   1.340   2.708   0.674
  483SOL    HW2 1480   1.320   2.858   0.612
  484SOL     OW 1481   0.830   3.135   1.422
  484SOL    HW1 1482   0.825   3.168   1.517
  484SOL    HW2 1483   0.744   3.154   1.376
  485SOL     OW 1484   1.841   2.037   0.963
  485SOL    HW1 1485   1.880   1.952   0.927
  485SOL    HW2 1486   1.743   2.039   0.944
  486SOL     OW 1487   0.263   2.188   0.720
  486SOL    HW1 1488   0.184   2.239   0.686
  486SOL    HW2 1489   0.254   2.173   0.818
  487SOL     OW 1490   0.822   2.864   1.372
  487SOL    HW1 1491   0.862   2.863   1.280
  487SOL    HW2 1492   0.832   2.956   1.412
  488SOL     OW 1493   0.916   2.772   0.291
  488SOL    HW1 1494   0.979   2.810   0.223
  488SOL    HW2 1495   0.956   2.689   0.330
  489SOL     OW 1496   0.372   3.150   1.490
  489SOL    HW1 1497   0.359   3.243   1.456
  489SOL    HW2 1498   0.288   3.098   1.477
  490SOL     OW 1499   1.614   3.154   1.289
  490SOL    HW1 1500   1.674   3.157   1.369
  490SOL    HW2 1501   1.539   3.218   1.302
  491SOL     OW 1502   1.039   2.960   0.696
  491SOL    HW1 1503   0.969   2.913   0.750
  491SOL    HW2 1504   1.098   2.892   0.653
  492SOL     OW 1505   1.014   2.098   0.971
  492SOL    HW1 1506   1.006   2.062   0.878
  492SOL    HW2 1507   1.012   2.022   1.036
  493SOL     OW 1508   1.709   2.247   1.381
  493SOL    HW1 1509   1.782   2.316   1.385
  493SOL    HW2 1510   1.737   2.172   1.322
  494SOL     OW 1511   0.105   2.875   1.726
  494SOL    HW1 1512   0.028   2.842   1.780
  494SOL    HW2 1513   0.190   2.845   1.768
  495SOL     OW 1514   0.672   2.065   1.489
  495SOL    HW1 1515   0.762   2.049   1.449
  495SOL    HW2 1516   0.680   2.070   1.588
  496SOL     OW 1517   0.075   2.207   0.033
  496SOL    HW1 1518  -0.017   2.179   0.004
  496SOL    HW2 1519   0.106   2.284  -0.023
  497SOL     OW 1520   1.440   2.718   1.398
  497SOL    HW1 1521   1.383   2.770   1.335
  497SOL    HW2 1522   1.536   2.730   1.374
  498SOL     OW 1523   0.072   2.028   0.318
  498SOL    HW1 1524   0.055   2.111   0.264
  498SOL    HW2 1525   0.162   1.991   0.296
  499SOL     OW 1526   0.613   2.704   1.431
  499SOL    HW1 1527   0.669   2.785   1.414
  499SOL    HW2 1528   0.672   2.624   1.434
  500SOL     OW 1529   0.716   2.427   1.708
  500SOL    HW1 1530   0.735   2.492   1.782
  500SOL    HW2 1531   0.776   2.347   1.717
  501SOL     OW 1532   1.450   3.082   1.633
  501SOL    HW1 1533   1.441   3.072   1.732
  501SOL    HW2 1534   1.546   3.075   1.607
  502SOL     OW 1535   1.674   2.745   1.254
  502SOL    HW1 1536   1.647   2.656   1.217
  502SOL    HW2 1537   1.675   2.813   1.181
  503SOL     OW 1538   1.225   2.187   0.449
  503SOL    HW1 1539   1.290   2.113   0.438
  503SOL    HW2 1540   1.245   2.237   0.533
  504SOL     OW 1541   0.594   2.607   0.652
  504SOL    HW1 1542   0.644   2.692   0.633
  504SOL    HW2 1543   0.506   2.609   0.604
  505SOL     OW 1544   1.777   2.204   1.642
  505SOL    HW1 1545   1.760   2.235   1.548
  505SOL    HW2 1546   1.693   2.167   1.680
  506SOL     OW 1547   1.730   2.796   1.517
  506SOL    HW1 1548   1.768   2.887   1.532
  506SOL    HW2 1549   1.722   2.779   1.418
  507SOL     OW 1550   0.859   2.818   0.861
  507SOL    HW1 1551   0.913   2.749   0.909
  507SOL    HW2 1552   0.827   2.887   0.927
  508SOL     OW 1553   1.083   2.846   0.087
  508SOL    HW1 1554   1.060   2.899   0.005
  508SOL    HW2 1555   1.164   2.790   0.068
  509SOL     OW 1556   0.221   3.176   1.844
  509SOL    HW1 1557   0.156   3.103   1.823
  509SOL    HW2 1558   0.225   3.190   1.942
  510SOL     OW 1559   0.079   3.102   0.653
  510SOL    HW1 1560   0.078   3.055   0.741
  510SOL    HW2 1561   0.161   3.074   0.602
  511SOL     OW 1562   0.672   3.253   1.624
  511SOL    HW1 1563   0.594   3.203   1.662
  511SOL    HW2 1564   0.669   3.348   1.655
  512SOL     OW 1565   1.824   2.054   1.227
  512SOL    HW1 1566   1.820   1.964   1.271
  512SOL    HW2 1567   1.827   2.043   1.128
  513SOL     OW 1568   0.428   2.286   0.520
  513SOL    HW1 1569   0.458   2.214   0.458
  513SOL    HW2 1570   0.389   2.246   0.603
  514SOL     OW 1571   1.705   3.349   1.104
  514SOL    HW1 1572   1.612   3.324   1.077
  514SOL    HW2 1573   1.731   3.299   1.186
  515SOL     OW 1574   0.317   2.409   1.280
  515SOL    HW1 1575   0.355   2.350   1.352
  515SOL    HW2 1576   0.357   2.383   1.192
  516SOL     OW 1577   1.424   2.076   1.112
  516SOL    HW1 1578   1.476   2.011   1.167
  516SOL    HW2 1579   1.375   2.139   1.173
  517SOL     OW 1580   1.001   1.896   1.154
  517SOL    HW1 1581   0.938   1.824   1.123
  517SOL    HW2 1582   1.094   1.860   1.154
  518SOL     OW 1583   0.770   3.192   0.301
  518SOL    HW1 1584   0.724   3.105   0.318
  518SOL    HW2 1585   0.861   3.189   0.342
  519SOL     OW 1586   1.352   1.914   0.168
  519SOL    HW1 1587   1.387   1.873   0.084
  519SOL    HW2 1588   1.262   1.876   0.188
  520SOL     OW 1589   1.300   2.315   0.691
  520SOL    HW1 1590   1.241   2.395   0.695
  520SOL    HW2 1591   1.315   2.280   0.784
  521SOL     OW 1592   1.593   2.083   0.882
  521SOL    HW1 1593   1.509   2.082   0.936
  521SOL    HW2 1594   1.595   2.166   0.826
  522SOL     OW 1595   0.039   2.939   0.300
  522SOL    HW1 1596   0.138   2.928   0.291
  522SOL    HW2 1597  -0.001   2.853   0.332
  523SOL     OW 1598   0.230   2.490   1.975
  523SOL    HW1 1599   0.137   2.488   2.012
  523SOL    HW2 1600   0.231   2.451   1.883
  524SOL     OW 1601   0.225   2.137   2.858
  524SOL    HW1 1602   0.260   2.120   2.950
  524SOL    HW2 1603   0.137   2.092   2.846
  525SOL     OW 1604   0.019   2.230   2.509
  525SOL    HW1 1605  -0.063   2.273   2.548
  525SOL    HW2 1606  -0.009   2.157   2.446
  526SOL     OW 1607   0.569   3.137   3.027
  526SOL    HW1 1608   0.476   3.130   2.990
  526SOL    HW2 1609   0.580   3.226   3.071
  527SOL     OW 1610   1.555   3.373   2.565
  527SOL    HW1 1611   1.498   3.357   2.646
  527SOL    HW2 1612   1.496   3.383   2.485
  528SOL     OW 1613   1.135   2.565   2.579
  528SOL    HW1 1614   1.192   2.643   2.554
  528SOL    HW2 1615   1.075   2.591   2.655
  529SOL     OW 1616   1.755   2.469   2.093
  529SOL    HW1 1617   1.743   2.456   1.994
  529SOL    HW2 1618   1.725   2.388   2.142
  530SOL     OW 1619   0.768   3.006   2.885
  530SOL    HW1 1620   0.690   3.023   2.945
  530SOL    HW2 1621   0.802   3.093   2.849
  531SOL     OW 1622   0.685   2.874   2.527
  531SOL    HW1 1623   0.754   2.858   2.597
  531SOL    HW2 1624   0.612   2.931   2.565
  532SOL     OW 1625   0.335   3.297   2.923
  532SOL    HW1 1626   0.257   3.266   2.870
  532SOL    HW2 1627   0.393   3.355   2.866
  533SOL     OW 1628   1.603   2.309   2.599
  533SOL    HW1 1629   1.529   2.355   2.549
  533SOL    HW2 1630   1.654   2.377   2.652
  534SOL     OW 1631   0.240   2.953   2.748
  534SOL    HW1 1632   0.254   2.869   2.800
  534SOL    HW2 1633   0.185   3.017   2.803
  535SOL     OW 1634   0.606   2.826   1.985
  535SOL    HW1 1635   0.613   2.910   1.931
  535SOL    HW2 1636   0.652   2.839   2.073
  536SOL     OW 1637   0.122   2.505   2.425
  536SOL    HW1 1638   0.077   2.417   2.442
  536SOL    HW2 1639   0.121   2.559   2.509
  537SOL     OW 1640   1.689   2.784   2.474
  537SOL    HW1 1641   1.784   2.755   2.482
  537SOL    HW2 1642   1.681   2.849   2.399
  538SOL     OW 1643   1.641   2.970   2.294
  538SOL    HW1 1644   1.727   2.972   2.242
  538SOL    HW2 1645   1.655   3.017   2.382
  539SOL     OW 1646   0.809   1.866   2.364
  539SOL    HW1 1647   0.849   1.957   2.355
  539SOL    HW2 1648   0.709   1.874   2.370
  540SOL     OW 1649   0.197   2.838   3.126
  540SOL    HW1 1650   0.286   2.793   3.112
  540SOL    HW2 1651   0.124   2.773   3.107
  541SOL     OW 1652   1.525   2.861   2.052
  541SOL    HW1 1653   1.462   2.785   2.065
  541SOL    HW2 1654   1.573   2.879   2.138
  542SOL     OW 1655   1.466   3.279   2.815
  542SOL    HW1 1656   1.407   3.285   2.895
  542SOL    HW2 1657   1.451   3.191   2.769
  543SOL     OW 1658   0.598   2.591   2.132
  543SOL    HW1 1659   0.622   2.660   2.064
  543SOL    HW2 1660   0.520   2.624   2.186
  544SOL     OW 1661   1.281   2.207   2.806
  544SOL    HW1 1662   1.195   2.157   2.793
  544SOL    HW2 1663   1.343   2.153   2.862
  545SOL     OW 1664   0.807   2.467   3.327
  545SOL    HW1 1665   0.760   2.464   3.416
  545SOL    HW2 1666   0.756   2.412   3.261
  546SOL     OW 1667   0.991   2.272   3.104
  546SOL    HW1 1668   0.914   2.306   3.158
  546SOL    HW2 1669   0.957   2.221   3.025
  547SOL     OW 1670   1.041   2.563   2.291
  547SOL    HW1 1671   1.067   2.559   2.387
  547SOL    HW2 1672   0.956   2.512   2.277
  548SOL     OW 1673   0.076   2.673   2.651
  548SOL    HW1 1674   0.175   2.661   2.660
  548SOL    HW2 1675   0.052   2.768   2.672
  549SOL     OW 1676   0.865   2.210   2.057
  549SOL    HW1 1677   0.924   2.273   2.008
  549SOL    HW2 1678   0.884   2.116   2.028
  550SOL     OW 1679   1.362   3.006   2.407
  550SOL    HW1 1680   1.445   2.977   2.359
  550SOL    HW2 1681   1.313   3.073   2.351
  551SOL     OW 1682   0.550   2.058   2.747
  551SOL    HW1 1683   0.545   2.053   2.847
  551SOL    HW2 1684   0.552   2.154   2.718
  552SOL     OW 1685   1.795   2.928   2.735
  552SOL    HW1 1686   1.733   2.913   2.659
  552SOL    HW2 1687   1.743   2.939   2.820
  553SOL     OW 1688   0.321   2.805   2.104
  553SOL    HW1 1689   0.403   2.844   2.062
  553SOL    HW2 1690   0.294   2.723   2.055
  554SOL     OW 1691   1.458   2.597   2.590
  554SOL    HW1 1692   1.453   2.532   2.665
  554SOL    HW2 1693   1.538   2.656   2.603
  555SOL     OW 1694   1.632   3.239   1.943
  555SOL    HW1 1695   1.600   3.333   1.933
  555SOL    HW2 1696   1.556   3.176   1.931
  556SOL     OW 1697   1.400   1.969   2.288
  556SOL    HW1 1698   1.376   1.932   2.198
  556SOL    HW2 1699   1.499   1.985   2.292
  557SOL     OW 1700   0.382   2.562   2.342
  557SOL    HW1 1701   0.427   2.472   2.339
  557SOL    HW2 1702   0.288   2.551   2.375
  558SOL     OW 1703   0.614   1.984   1.979
  558SOL    HW1 1704   0.712   1.962   1.986
  558SOL    HW2 1705   0.583   1.967   1.886
  559SOL     OW 1706   0.922   2.365   2.761
  559SOL    HW1 1707   0.897   2.356   2.665
  559SOL    HW2 1708   0.970   2.283   2.792
  560SOL     OW 1709   0.539   1.926   2.374
  560SOL    HW1 1710   0.458   1.927   2.432
  560SOL    HW2 1711   0.542   2.009   2.319
  561SOL     OW 1712   1.434   3.050   1.903
  561SOL    HW1 1713   1.466   2.974   1.960
  561SOL    HW2 1714   1.342   3.077   1.933
  562SOL     OW 1715   0.297   1.897   2.033
  562SOL    HW1 1716   0.346   1.981   2.012
  562SOL    HW2 1717   0.359   1.832   2.078
  563SOL     OW 1718   0.935   2.098   2.342
  563SOL    HW1 1719   0.887   2.139   2.264
  563SOL    HW2 1720   1.034   2.096   2.323
  564SOL     OW 1721   1.227   3.432   2.655
  564SOL    HW1 1722   1.248   3.506   2.590
  564SOL    HW2 1723   1.295   3.432   2.728
  565SOL     OW 1724   0.459   3.014   2.603
  565SOL    HW1 1725   0.388   2.987   2.668
  565SOL    HW2 1726   0.433   2.986   2.510
  566SOL     OW 1727   1.032   2.411   1.878
  566SOL    HW1 1728   0.991   2.493   1.839
  566SOL    HW2 1729   1.096   2.437   1.951
  567SOL     OW 1730   0.561   2.084   3.009
  567SOL    HW1 1731   0.599   2.000   3.046
  567SOL    HW2 1732   0.473   2.103   3.053
  568SOL     OW 1733   0.866   2.316   2.504
  568SOL    HW1 1734   0.834   2.388   2.442
  568SOL    HW2 1735   0.890   2.235   2.451
  569SOL     OW 1736   1.017   1.901   2.615
  569SOL    HW1 1737   0.945   1.906   2.546
  569SOL    HW2 1738   0.993   1.832   2.684
  570SOL     OW 1739   1.429   3.035   2.729
  570SOL    HW1 1740   1.374   2.951   2.722
  570SOL    HW2 1741   1.455   3.064   2.637
  571SOL     OW 1742   1.466   2.452   2.854
  571SOL    HW1 1743   1.436   2.357   2.861
  571SOL    HW2 1744   1.539   2.468   2.920
  572SOL     OW 1745   1.857   2.695   2.239
  572SOL    HW1 1746   1.899   2.631   2.303
  572SOL    HW2 1747   1.819   2.644   2.161
  573SOL     OW 1748   1.664   3.142   2.519
  573SOL    HW1 1749   1.763   3.150   2.533
  573SOL    HW2 1750   1.619   3.226   2.550
  574SOL     OW 1751   1.390   2.437   1.940
  574SOL    HW1 1752   1.336   2.416   2.021
  574SOL    HW2 1753   1.481   2.396   1.949
  575SOL     OW 1754   0.527   2.118   2.190
  575SOL    HW1 1755   0.554   2.059   2.115
  575SOL    HW2 1756   0.527   2.213   2.159
  576SOL     OW 1757   1.754   3.085   3.450
  576SOL    HW1 1758   1.845   3.046   3.437
  576SOL    HW2 1759   1.762   3.181   3.474
  577SOL     OW 1760   1.064   3.209   3.202
  577SOL    HW1 1761   0.984   3.186   3.257
  577SOL    HW2 1762   1.147   3.183   3.251
  578SOL     OW 1763   1.111   3.057   2.962
  578SOL    HW1 1764   1.071   3.101   3.043
  578SOL    HW2 1765   1.070   3.094   2.879
  579SOL     OW 1766   1.638   2.961   2.941
  579SOL    HW1 1767   1.643   3.042   3.000
  579SOL    HW2 1768   1.552   2.963   2.890
  580SOL     OW 1769   0.705   2.912   2.230
  580SOL    HW1 1770   0.691   2.919   2.329
  580SOL    HW2 1771   0.789   2.861   2.212
  581SOL     OW 1772   0.410   2.675   3.113
  581SOL    HW1 1773   0.496   2.687   3.163
  581SOL    HW2 1774   0.368   2.588   3.140
  582SOL     OW 1775   1.274   2.248   3.124
  582SOL    HW1 1776   1.295   2.322   3.188
  582SOL    HW2 1777   1.185   2.265   3.081
  583SOL     OW 1778   0.367   2.962   2.363
  583SOL    HW1 1779   0.360   3.045   2.307
  583SOL    HW2 1780   0.371   2.882   2.303
  584SOL     OW 1781   0.566   2.399   2.727
  584SOL    HW1 1782   0.578   2.465   2.653
  584SOL    HW2 1783   0.612   2.433   2.810
  585SOL     OW 1784   1.582   2.501   2.334
  585SOL    HW1 1785   1.551   2.562   2.407
  585SOL    HW2 1786   1.632   2.553   2.265
  586SOL     OW 1787   0.573   2.732   2.891
  586SOL    HW1 1788   0.617   2.821   2.882
  586SOL    HW2 1789   0.510   2.732   2.968
  587SOL     OW 1790   1.360   2.724   2.907
  587SOL    HW1 1791   1.285   2.724   2.841
  587SOL    HW2 1792   1.397   2.632   2.916
  588SOL     OW 1793   1.209   2.387   2.137
  588SOL    HW1 1794   1.222   2.303   2.191
  588SOL    HW2 1795   1.180   2.461   2.197
  589SOL     OW 1796   0.307   2.075   3.093
  589SOL    HW1 1797   0.284   2.112   3.183
  589SOL    HW2 1798   0.277   1.980   3.087
  590SOL     OW 1799   0.037   3.172   3.144
  590SOL    HW1 1800   0.090   3.123   3.212
  590SOL    HW2 1801   0.059   3.270   3.149
  591SOL     OW 1802   0.732   2.496   2.926
  591SOL    HW1 1803   0.791   2.470   2.850
  591SOL    HW2 1804   0.704   2.592   2.915
  592SOL     OW 1805   0.307   1.925   2.480
  592SOL    HW1 1806   0.296   2.019   2.513
  592SOL    HW2 1807   0.302   1.862   2.557
  593SOL     OW 1808   1.622   2.229   2.236
  593SOL    HW1 1809   1.624   2.153   2.300
  593SOL    HW2 1810   1.574   2.306   2.276
  594SOL     OW 1811   1.023   2.628   2.828
  594SOL    HW1 1812   1.038   2.649   2.924
  594SOL    HW2 1813   0.993   2.533   2.819
  595SOL     OW 1814   1.540   2.136   1.987
  595SOL    HW1 1815   1.479   2.061   2.010
  595SOL    HW2 1816   1.562   2.188   2.070
  596SOL     OW 1817   1.303   2.700   1.904
  596SOL    HW1 1818   1.337   2.607   1.919
  596SOL    HW2 1819   1.321   2.727   1.809
  597SOL     OW 1820   0.319   2.672   2.811
  597SOL    HW1 1821   0.412   2.708   2.816
  597SOL    HW2 1822   0.313   2.587   2.863
  598SOL     OW 1823   0.339   2.371   2.868
  598SOL    HW1 1824   0.287   2.288   2.851
  598SOL    HW2 1825   0.416   2.376   2.804
  599SOL     OW 1826   1.160   2.069   3.339
  599SOL    HW1 1827   1.160   2.133   3.416
  599SOL    HW2 1828   1.188   2.117   3.256
  600SOL     OW 1829   0.008   3.188   2.062
  600SOL    HW1 1830  -0.085   3.209   2.031
  600SOL    HW2 1831   0.018   3.089   2.075
  601SOL     OW 1832   1.002   2.658   3.100
  601SOL    HW1 1833   1.043   2.626   3.186
  601SOL    HW2 1834   0.906   2.631   3.097
  602SOL     OW 1835   0.040   2.406   2.976
  602SOL    HW1 1836   0.125   2.373   2.935
  602SOL    HW2 1837   0.053   2.421   3.074
  603SOL     OW 1838   0.815   2.434   2.187
  603SOL    HW1 1839   0.822   2.345   2.141
  603SOL    HW2 1840   0.721   2.468   2.179
  604SOL     OW 1841   1.657   2.466   3.068
  604SOL    HW1 1842   1.619   2.397   3.130
  604SOL    HW2 1843   1.739   2.430   3.024
  605SOL     OW 1844   0.671   2.326   3.131
  605SOL    HW1 1845   0.637   2.237   3.101
  605SOL    HW2 1846   0.697   2.380   3.051
  606SOL     OW 1847   0.473   2.362   2.053
  606SOL    HW1 1848   0.534   2.442   2.057
  606SOL    HW2 1849   0.378   2.393   2.060
  607SOL     OW 1850   0.159   2.999   3.328
  607SOL    HW1 1851   0.181   2.938   3.404
  607SOL    HW2 1852   0.169   2.950   3.242
  608SOL     OW 1853   1.347   2.921   3.096
  608SOL    HW1 1854   1.371   2.858   3.022
  608SOL    HW2 1855   1.257   2.961   3.078
  609SOL     OW 1856   1.302   2.717   2.171
  609SOL    HW1 1857   1.216   2.686   2.213
  609SOL    HW2 1858   1.298   2.703   2.072
  610SOL     OW 1859   0.083   3.120   2.884
  610SOL    HW1 1860   0.078   3.119   2.984
  610SOL    HW2 1861   0.000   3.079   2.846
  611SOL     OW 1862   1.726   1.997   2.385
  611SOL    HW1 1863   1.799   1.980   2.318
  611SOL    HW2 1864   1.695   1.910   2.423
  612SOL     OW 1865   1.280   2.789   2.534
  612SOL    HW1 1866   1.340   2.708   2.536
  612SOL    HW2 1867   1.320   2.858   2.474
  613SOL     OW 1868   0.830   3.135   3.284
  613SOL    HW1 1869   0.825   3.168   3.379
  613SOL    HW2 1870   0.744   3.154   3.238
  614SOL     OW 1871   1.841   2.037   2.825
  614SOL    HW1 1872   1.880   1.952   2.789
  614SOL    HW2 1873   1.743   2.039   2.806
  615SOL     OW 1874   0.263   2.188   2.582
  615SOL    HW1 1875   0.184   2.239   2.548
  615SOL    HW2 1876   0.254   2.173   2.680
  616SOL     OW 1877   1.194   3.474   1.893
  616SOL    HW1 1878   1.200   3.381   1.930
  616SOL    HW2 1879   1.135   3.474   1.813
  617SOL     OW 1880   0.822   2.864   3.234
  617SOL    HW1 1881   0.862   2.863   3.142
  617SOL    HW2 1882   0.832   2.956   3.274
  618SOL     OW 1883   0.916   2.772   2.153
  618SOL    HW1 1884   0.979   2.810   2.085
  618SOL    HW2 1885   0.956   2.689   2.192
  619SOL     OW 1886   1.039   2.960   2.558
  619SOL    HW1 1887   0.969   2.913   2.612
  619SOL    HW2 1888   1.098   2.892   2.515
  620SOL     OW 1889   1.014   2.098   2.833
  620SOL    HW1 1890   1.006   2.062   2.740
  620SOL    HW2 1891   1.012   2.022   2.898
  621SOL     OW 1892   1.709   2.247   3.243
  621SOL    HW1 1893   1.782   2.316   3.247
  621SOL    HW2 1894   1.737   2.172   3.184
  622SOL     OW 1895   0.672   2.065   3.351
  622SOL    HW1 1896   0.762   2.049   3.311
  622SOL    HW2 1897   0.680   2.070   3.450
  623SOL     OW 1898   0.075   2.207   1.895
  623SOL    HW1 1899  -0.017   2.179   1.866
  623SOL    HW2 1900   0.106   2.284   1.839
  624SOL     OW 1901   0.072   2.028   2.180
  624SOL    HW1 1902   0.055   2.111   2.126
  624SOL    HW2 1903   0.162   1.991   2.158
  625SOL     OW 1904   1.450   3.082   3.495
  625SOL    HW1 1905   1.441   3.072   3.594
  625SOL    HW2 1906   1.546   3.075   3.469
  626SOL     OW 1907   0.390   3.603   3.422
  626SOL    HW1 1908   0.299   3.644   3.420
  626SOL    HW2 1909   0.383   3.509   3.454
  627SOL     OW 1910   1.674   2.745   3.116
  627SOL    HW1 1911   1.647   2.656   3.079
  627SOL    HW2 1912   1.675   2.813   3.043
  628SOL     OW 1913   1.225   2.187   2.311
  628SOL    HW1 1914   1.290   2.113   2.300
  628SOL    HW2 1915   1.245   2.237   2.395
  629SOL     OW 1916   0.594   2.607   2.514
  629SOL    HW1 1917   0.644   2.692   2.495
  629SOL    HW2 1918   0.506   2.609   2.466
  630SOL     OW 1919   1.730   2.796   3.379
  630SOL    HW1 1920   1.768   2.887   3.394
  630SOL    HW2 1921   1.722   2.779   3.280
  631SOL     OW 1922   0.859   2.818   2.723
  631SOL    HW1 1923   0.913   2.749   2.771
  631SOL    HW2 1924   0.827   2.887   2.789
  632SOL     OW 1925   1.083   2.846   1.949
  632SOL    HW1 1926   1.060   2.899   1.867
  632SOL    HW2 1927   1.164   2.790   1.930
  633SOL     OW 1928   0.079   3.102   2.515
  633SOL    HW1 1929   0.078   3.055   2.603
  633SOL    HW2 1930   0.161   3.074   2.464
  634SOL     OW 1931   1.824   2.054   3.089
  634SOL    HW1 1932   1.820   1.964   3.133
  634SOL    HW2 1933   1.827   2.043   2.990
  635SOL     OW 1934   0.428   2.286   2.382
  635SOL    HW1 1935   0.458   2.214   2.320
  635SOL    HW2 1936   0.389   2.246   2.465
  636SOL     OW 1937   1.705   3.349   2.966
  636SOL    HW1 1938   1.612   3.324   2.939
  636SOL    HW2 1939   1.731   3.299   3.048
  637SOL     OW 1940   0.317   2.409   3.142
  637SOL    HW1 1941   0.355   2.350   3.214
  637SOL    HW2 1942   0.357   2.383   3.054
  638SOL     OW 1943   1.424   2.076   2.974
  638SOL    HW1 1944   1.476   2.011   3.029
  638SOL    HW2 1945   1.375   2.139   3.035
  639SOL     OW 1946   1.001   1.896   3.016
  639SOL    HW1 1947   0.938   1.824   2.985
  639SOL    HW2 1948   1.094   1.860   3.016
  640SOL     OW 1949   0.770   3.192   2.163
  640SOL    HW1 1950   0.724   3.105   2.180
  640SOL    HW2 1951   0.861   3.189   2.204
  641SOL     OW 1952   1.300   2.315   2.553
  641SOL    HW1 1953   1.241   2.395   2.557
  641SOL    HW2 1954   1.315   2.280   2.646
  642SOL     OW 1955   1.593   2.083   2.744
  642SOL    HW1 1956   1.509   2.082   2.798
  642SOL    HW2 1957   1.595   2.166   2.688
  643SOL     OW 1958   0.039   2.939   2.162
  643SOL    HW1 1959   0.138   2.928   2.153
  643SOL    HW2 1960  -0.001   2.853   2.194
  644SOL     OW 1961   2.092   0.628   0.113
  644SOL    HW1 1962   1.999   0.626   0.150
  644SOL    HW2 1963   2.093   0.589   0.021
  645SOL     OW 1964   2.087   0.275   0.996
  645SOL    HW1 1965   2.122   0.258   1.088
  645SOL    HW2 1966   1.999   0.230   0.984
  646SOL     OW 1967   1.881   0.368   0.647
  646SOL    HW1 1968   1.799   0.411   0.686
  646SOL    HW2 1969   1.853   0.295   0.584
  647SOL     OW 1970   2.431   1.275   1.165
  647SOL    HW1 1971   2.338   1.268   1.128
  647SOL    HW2 1972   2.442   1.364   1.209
  648SOL     OW 1973   3.417   1.511   0.703
  648SOL    HW1 1974   3.360   1.495   0.784
  648SOL    HW2 1975   3.358   1.521   0.623
  649SOL     OW 1976   2.997   0.703   0.717
  649SOL    HW1 1977   3.054   0.781   0.692
  649SOL    HW2 1978   2.937   0.729   0.793
  650SOL     OW 1979   2.630   1.144   1.023
  650SOL    HW1 1980   2.552   1.161   1.083
  650SOL    HW2 1981   2.664   1.231   0.987
  651SOL     OW 1982   2.712   0.798   1.823
  651SOL    HW1 1983   2.708   0.874   1.888
  651SOL    HW2 1984   2.734   0.834   1.732
  652SOL     OW 1985   2.547   1.012   0.665
  652SOL    HW1 1986   2.616   0.996   0.735
  652SOL    HW2 1987   2.474   1.069   0.703
  653SOL     OW 1988   2.548   1.161   1.803
  653SOL    HW1 1989   2.608   1.240   1.817
  653SOL    HW2 1990   2.462   1.192   1.762
  654SOL     OW 1991   2.197   1.435   1.061
  654SOL    HW1 1992   2.119   1.404   1.008
  654SOL    HW2 1993   2.255   1.493   1.004
  655SOL     OW 1994   2.300   0.392   1.499
  655SOL    HW1 1995   2.382   0.336   1.508
  655SOL    HW2 1996   2.219   0.334   1.503
  656SOL     OW 1997   2.093   1.713   0.483
  656SOL    HW1 1998   2.127   1.790   0.537
  656SOL    HW2 1999   2.137   1.713   0.393
  657SOL     OW 2000   2.989   1.341   1.690
  657SOL    HW1 2001   3.036   1.341   1.778
  657SOL    HW2 2002   2.941   1.254   1.679
  658SOL     OW 2003   2.092   1.434   0.538
  658SOL    HW1 2004   2.066   1.530   0.538
  658SOL    HW2 2005   2.021   1.380   0.583
  659SOL     OW 2006   2.102   1.091   0.886
  659SOL    HW1 2007   2.116   1.007   0.938
  659SOL    HW2 2008   2.047   1.155   0.941
  660SOL     OW 2009   2.482   1.786   1.439
  660SOL    HW1 2010   2.390   1.769   1.474
  660SOL    HW2 2011   2.510   1.878   1.465
  661SOL     OW 2012   2.468   0.964   0.123
  661SOL    HW1 2013   2.475   1.048   0.069
  661SOL    HW2 2014   2.514   0.977   0.211
  662SOL     OW 2015   1.984   0.643   0.563
  662SOL    HW1 2016   1.939   0.555   0.580
  662SOL    HW2 2017   1.983   0.697   0.647
  663SOL     OW 2018   1.975   0.737   1.597
  663SOL    HW1 2019   2.063   0.724   1.642
  663SOL    HW2 2020   1.962   0.834   1.575
  664SOL     OW 2021   2.475   1.365   0.726
  664SOL    HW1 2022   2.426   1.278   0.735
  664SOL    HW2 2023   2.452   1.408   0.639
  665SOL     OW 2024   3.155   1.228   1.423
  665SOL    HW1 2025   3.192   1.155   1.365
  665SOL    HW2 2026   3.207   1.233   1.508
  666SOL     OW 2027   2.671   0.004   0.502
  666SOL    HW1 2028   2.711   0.095   0.493
  666SOL    HW2 2029   2.571   0.012   0.508
  667SOL     OW 2030   2.059   0.976   1.264
  667SOL    HW1 2031   2.148   0.931   1.250
  667SOL    HW2 2032   1.986   0.911   1.245
  668SOL     OW 2033   3.049   1.792   1.616
  668SOL    HW1 2034   3.073   1.852   1.540
  668SOL    HW2 2035   3.056   1.697   1.586
  669SOL     OW 2036   2.179   0.251   1.801
  669SOL    HW1 2037   2.250   0.322   1.807
  669SOL    HW2 2038   2.091   0.290   1.829
  670SOL     OW 2039   2.460   0.729   0.270
  670SOL    HW1 2040   2.484   0.798   0.202
  670SOL    HW2 2041   2.382   0.762   0.324
  671SOL     OW 2042   3.143   0.345   0.944
  671SOL    HW1 2043   3.057   0.295   0.931
  671SOL    HW2 2044   3.205   0.291   1.000
  672SOL     OW 2045   2.669   0.605   1.465
  672SOL    HW1 2046   2.622   0.602   1.554
  672SOL    HW2 2047   2.618   0.550   1.399
  673SOL     OW 2048   3.256   0.469   1.674
  673SOL    HW1 2049   3.236   0.512   1.762
  673SOL    HW2 2050   3.334   0.407   1.683
  674SOL     OW 2051   2.835   0.890   1.572
  674SOL    HW1 2052   2.881   0.806   1.543
  674SOL    HW2 2053   2.779   0.924   1.497
  675SOL     OW 2054   2.853   0.410   1.242
  675SOL    HW1 2055   2.776   0.444   1.296
  675SOL    HW2 2056   2.819   0.359   1.163
  676SOL     OW 2057   2.903   0.701   0.429
  676SOL    HW1 2058   2.929   0.697   0.525
  676SOL    HW2 2059   2.818   0.650   0.415
  677SOL     OW 2060   1.938   0.811   0.789
  677SOL    HW1 2061   2.037   0.799   0.798
  677SOL    HW2 2062   1.914   0.906   0.810
  678SOL     OW 2063   1.992   1.821   1.571
  678SOL    HW1 2064   1.982   1.806   1.670
  678SOL    HW2 2065   1.906   1.857   1.535
  679SOL     OW 2066   2.727   0.348   0.195
  679SOL    HW1 2067   2.786   0.411   0.146
  679SOL    HW2 2068   2.746   0.254   0.166
  680SOL     OW 2069   3.224   1.144   0.545
  680SOL    HW1 2070   3.307   1.115   0.497
  680SOL    HW2 2071   3.175   1.211   0.489
  681SOL     OW 2072   2.412   0.196   0.885
  681SOL    HW1 2073   2.407   0.191   0.985
  681SOL    HW2 2074   2.414   0.292   0.856
  682SOL     OW 2075   2.870   1.456   0.477
  682SOL    HW1 2076   2.824   1.528   0.425
  682SOL    HW2 2077   2.866   1.476   0.575
  683SOL     OW 2078   2.213   1.801   0.853
  683SOL    HW1 2079   2.263   1.715   0.859
  683SOL    HW2 2080   2.278   1.878   0.850
  684SOL     OW 2081   3.089   1.550   1.506
  684SOL    HW1 2082   3.095   1.473   1.570
  684SOL    HW2 2083   3.037   1.524   1.426
  685SOL     OW 2084   2.183   0.943   0.242
  685SOL    HW1 2085   2.265   0.982   0.200
  685SOL    HW2 2086   2.156   0.861   0.193
  686SOL     OW 2087   2.323   1.266   1.727
  686SOL    HW1 2088   2.273   1.267   1.641
  686SOL    HW2 2089   2.260   1.248   1.803
  687SOL     OW 2090   2.973   1.776   0.237
  687SOL    HW1 2091   2.913   1.714   0.287
  687SOL    HW2 2092   3.004   1.732   0.152
  688SOL     OW 2093   2.064   0.285   1.498
  688SOL    HW1 2094   1.984   0.345   1.485
  688SOL    HW2 2095   2.054   0.236   1.584
  689SOL     OW 2096   3.494   1.377   0.081
  689SOL    HW1 2097   3.462   1.471   0.071
  689SOL    HW2 2098   3.418   1.314   0.069
  690SOL     OW 2099   2.326   1.743   0.323
  690SOL    HW1 2100   2.359   1.782   0.409
  690SOL    HW2 2101   2.402   1.736   0.258
  691SOL     OW 2102   2.111   1.785   1.241
  691SOL    HW1 2103   2.168   1.720   1.291
  691SOL    HW2 2104   2.095   1.752   1.148
  692SOL     OW 2105   2.802   1.698   0.904
  692SOL    HW1 2106   2.882   1.641   0.925
  692SOL    HW2 2107   2.753   1.658   0.827
  693SOL     OW 2108   2.244   0.700   0.480
  693SOL    HW1 2109   2.289   0.610   0.477
  693SOL    HW2 2110   2.150   0.689   0.513
  694SOL     OW 2111   2.476   0.122   0.117
  694SOL    HW1 2112   2.574   0.100   0.124
  694SOL    HW2 2113   2.445   0.105   0.024
  695SOL     OW 2114   2.643   0.264   1.749
  695SOL    HW1 2115   2.710   0.203   1.792
  695SOL    HW2 2116   2.570   0.283   1.814
  696SOL     OW 2117   2.750   1.514   1.195
  696SOL    HW1 2118   2.727   1.489   1.101
  696SOL    HW2 2119   2.811   1.445   1.234
  697SOL     OW 2120   2.665   1.402   0.924
  697SOL    HW1 2121   2.755   1.416   0.882
  697SOL    HW2 2122   2.594   1.404   0.853
  698SOL     OW 2123   2.784   0.503   0.899
  698SOL    HW1 2124   2.759   0.494   0.803
  698SOL    HW2 2125   2.832   0.421   0.930
  699SOL     OW 2126   2.401   0.064   0.512
  699SOL    HW1 2127   2.320   0.065   0.570
  699SOL    HW2 2128   2.404   0.147   0.457
  700SOL     OW 2129   2.159   0.035   0.171
  700SOL    HW1 2130   2.208   0.119   0.150
  700SOL    HW2 2131   2.221  -0.030   0.216
  701SOL     OW 2132   2.797   0.236   0.480
  701SOL    HW1 2133   2.749   0.277   0.402
  701SOL    HW2 2134   2.896   0.234   0.461
  702SOL     OW 2135   2.938   0.683   1.464
  702SOL    HW1 2136   2.858   0.622   1.467
  702SOL    HW2 2137   3.019   0.630   1.440
  703SOL     OW 2138   3.089   1.570   0.793
  703SOL    HW1 2139   3.110   1.644   0.728
  703SOL    HW2 2140   3.157   1.570   0.866
  704SOL     OW 2141   2.321   1.152   0.741
  704SOL    HW1 2142   2.250   1.125   0.806
  704SOL    HW2 2143   2.295   1.124   0.648
  705SOL     OW 2144   3.133   1.797   0.591
  705SOL    HW1 2145   3.177   1.861   0.527
  705SOL    HW2 2146   3.083   1.849   0.661
  706SOL     OW 2147   2.894   0.549   0.016
  706SOL    HW1 2148   2.853   0.631  -0.023
  706SOL    HW2 2149   2.958   0.575   0.089
  707SOL     OW 2150   1.940   0.556   1.386
  707SOL    HW1 2151   2.032   0.555   1.345
  707SOL    HW2 2152   1.934   0.630   1.453
  708SOL     OW 2153   2.423   0.222   1.147
  708SOL    HW1 2154   2.461   0.138   1.184
  708SOL    HW2 2155   2.335   0.241   1.191
  709SOL     OW 2156   2.728   0.454   0.642
  709SOL    HW1 2157   2.696   0.526   0.580
  709SOL    HW2 2158   2.752   0.373   0.589
  710SOL     OW 2159   2.879   0.039   0.753
  710SOL    HW1 2160   2.807   0.044   0.684
  710SOL    HW2 2161   2.855  -0.030   0.822
  711SOL     OW 2162   2.350   1.385   0.174
  711SOL    HW1 2163   2.263   1.370   0.221
  711SOL    HW2 2164   2.333   1.411   0.079
  712SOL     OW 2165   2.389   0.256   0.328
  712SOL    HW1 2166   2.416   0.197   0.253
  712SOL    HW2 2167   2.389   0.351   0.297
  713SOL     OW 2168   2.926   1.347   1.340
  713SOL    HW1 2169   2.846   1.324   1.395
  713SOL    HW2 2170   3.009   1.321   1.389
  714SOL     OW 2171   2.973   1.195   1.100
  714SOL    HW1 2172   2.933   1.239   1.181
  714SOL    HW2 2173   2.932   1.232   1.017
  715SOL     OW 2174   2.777   0.089   1.402
  715SOL    HW1 2175   2.802   0.069   1.307
  715SOL    HW2 2176   2.849   0.145   1.444
  716SOL     OW 2177   2.842   1.116   1.719
  716SOL    HW1 2178   2.743   1.122   1.729
  716SOL    HW2 2179   2.865   1.036   1.663
  717SOL     OW 2180   2.567   1.050   0.368
  717SOL    HW1 2181   2.553   1.057   0.467
  717SOL    HW2 2182   2.651   0.999   0.350
  718SOL     OW 2183   2.272   0.813   1.251
  718SOL    HW1 2184   2.358   0.825   1.301
  718SOL    HW2 2185   2.230   0.726   1.278
  719SOL     OW 2186   3.136   0.386   1.262
  719SOL    HW1 2187   3.157   0.460   1.326
  719SOL    HW2 2188   3.047   0.403   1.219
  720SOL     OW 2189   2.229   1.100   0.501
  720SOL    HW1 2190   2.222   1.183   0.445
  720SOL    HW2 2191   2.233   1.020   0.441
  721SOL     OW 2192   2.428   0.537   0.865
  721SOL    HW1 2193   2.440   0.603   0.791
  721SOL    HW2 2194   2.474   0.571   0.948
  722SOL     OW 2195   3.114   1.348   0.388
  722SOL    HW1 2196   3.164   1.425   0.428
  722SOL    HW2 2197   3.019   1.350   0.420
  723SOL     OW 2198   3.134   1.445   1.142
  723SOL    HW1 2199   3.181   1.458   1.229
  723SOL    HW2 2200   3.068   1.371   1.151
  724SOL     OW 2201   2.216   1.510   1.329
  724SOL    HW1 2202   2.195   1.466   1.242
  724SOL    HW2 2203   2.313   1.536   1.332
  725SOL     OW 2204   2.264   0.751   1.598
  725SOL    HW1 2205   2.332   0.806   1.551
  725SOL    HW2 2206   2.304   0.663   1.625
  726SOL     OW 2207   2.875   0.105   1.770
  726SOL    HW1 2208   2.881   0.190   1.718
  726SOL    HW2 2209   2.907   0.029   1.713
  727SOL     OW 2210   2.366   0.050   1.740
  727SOL    HW1 2211   2.324  -0.007   1.670
  727SOL    HW2 2212   2.300   0.119   1.772
  728SOL     OW 2213   2.435   0.870   1.029
  728SOL    HW1 2214   2.479   0.959   1.020
  728SOL    HW2 2215   2.372   0.870   1.106
  729SOL     OW 2216   3.222   0.862   1.045
  729SOL    HW1 2217   3.147   0.862   0.979
  729SOL    HW2 2218   3.259   0.770   1.054
  730SOL     OW 2219   3.071   0.525   0.275
  730SOL    HW1 2220   3.084   0.441   0.329
  730SOL    HW2 2221   3.042   0.599   0.335
  731SOL     OW 2222   2.169   0.213   1.231
  731SOL    HW1 2223   2.146   0.250   1.321
  731SOL    HW2 2224   2.139   0.118   1.225
  732SOL     OW 2225   2.594   0.634   1.064
  732SOL    HW1 2226   2.653   0.608   0.988
  732SOL    HW2 2227   2.566   0.730   1.053
  733SOL     OW 2228   2.169   0.063   0.618
  733SOL    HW1 2229   2.158   0.157   0.651
  733SOL    HW2 2230   2.164   0.000   0.695
  734SOL     OW 2231   3.484   0.367   0.374
  734SOL    HW1 2232   3.486   0.291   0.438
  734SOL    HW2 2233   3.436   0.444   0.414
  735SOL     OW 2234   2.885   0.766   0.966
  735SOL    HW1 2235   2.900   0.787   1.062
  735SOL    HW2 2236   2.855   0.671   0.957
  736SOL     OW 2237   2.842   1.573   1.700
  736SOL    HW1 2238   2.822   1.617   1.612
  736SOL    HW2 2239   2.881   1.482   1.684
  737SOL     OW 2240   2.212   0.898   1.804
  737SOL    HW1 2241   2.288   0.942   1.852
  737SOL    HW2 2242   2.247   0.851   1.722
  738SOL     OW 2243   3.165   0.838   0.042
  738SOL    HW1 2244   3.199   0.745   0.057
  738SOL    HW2 2245   3.183   0.865  -0.053
  739SOL     OW 2246   2.930   1.333   0.849
  739SOL    HW1 2247   2.937   1.249   0.794
  739SOL    HW2 2248   2.992   1.402   0.813
  740SOL     OW 2249   2.181   0.810   0.949
  740SOL    HW1 2250   2.274   0.846   0.954
  740SOL    HW2 2251   2.175   0.725   1.001
  741SOL     OW 2252   2.201   0.509   1.006
  741SOL    HW1 2253   2.149   0.426   0.989
  741SOL    HW2 2254   2.278   0.514   0.942
  742SOL     OW 2255   3.000   0.380   1.678
  742SOL    HW1 2256   2.955   0.443   1.742
  742SOL    HW2 2257   3.093   0.411   1.661
  743SOL     OW 2258   3.022   0.207   1.477
  743SOL    HW1 2259   3.022   0.271   1.554
  743SOL    HW2 2260   3.050   0.255   1.394
  744SOL     OW 2261   1.950   1.801   0.927
  744SOL    HW1 2262   1.908   1.715   0.900
  744SOL    HW2 2263   2.044   1.804   0.893
  745SOL     OW 2264   2.366   1.568   0.910
  745SOL    HW1 2265   2.432   1.642   0.919
  745SOL    HW2 2266   2.410   1.489   0.868
  746SOL     OW 2267   2.864   0.796   1.238
  746SOL    HW1 2268   2.905   0.764   1.324
  746SOL    HW2 2269   2.768   0.769   1.235
  747SOL     OW 2270   1.902   0.544   1.114
  747SOL    HW1 2271   1.987   0.511   1.073
  747SOL    HW2 2272   1.915   0.559   1.212
  748SOL     OW 2273   2.051   0.520   1.722
  748SOL    HW1 2274   2.110   0.480   1.652
  748SOL    HW2 2275   1.993   0.591   1.681
  749SOL     OW 2276   2.677   0.572   0.325
  749SOL    HW1 2277   2.684   0.483   0.279
  749SOL    HW2 2278   2.583   0.606   0.317
  750SOL     OW 2279   2.114   1.564   1.744
  750SOL    HW1 2280   2.084   1.621   1.820
  750SOL    HW2 2281   2.107   1.467   1.770
  751SOL     OW 2282   2.533   0.464   1.269
  751SOL    HW1 2283   2.499   0.375   1.239
  751SOL    HW2 2284   2.559   0.518   1.189
  752SOL     OW 2285   2.792   1.678   1.465
  752SOL    HW1 2286   2.768   1.660   1.370
  752SOL    HW2 2287   2.822   1.772   1.475
  753SOL     OW 2288   2.335   0.500   0.191
  753SOL    HW1 2289   2.396   0.580   0.195
  753SOL    HW2 2290   2.240   0.531   0.198
  754SOL     OW 2291   2.021   1.137   1.466
  754SOL    HW1 2292   2.043   1.076   1.542
  754SOL    HW2 2293   2.031   1.088   1.380
  755SOL     OW 2294   3.209   1.059   1.234
  755SOL    HW1 2295   3.233   0.996   1.160
  755SOL    HW2 2296   3.119   1.099   1.216
  756SOL     OW 2297   3.164   0.855   0.309
  756SOL    HW1 2298   3.078   0.824   0.351
  756SOL    HW2 2299   3.160   0.841   0.210
  757SOL     OW 2300   3.114   1.731   1.128
  757SOL    HW1 2301   3.198   1.736   1.074
  757SOL    HW2 2302   3.091   1.635   1.146
  758SOL     OW 2303   1.945   1.258   1.022
  758SOL    HW1 2304   1.940   1.257   1.122
  758SOL    HW2 2305   1.862   1.217   0.984
  759SOL     OW 2306   2.550   1.662   1.716
  759SOL    HW1 2307   2.494   1.743   1.725
  759SOL    HW2 2308   2.602   1.666   1.630
  760SOL     OW 2309   2.765   0.086   0.133
  760SOL    HW1 2310   2.816   0.087   0.047
  760SOL    HW2 2311   2.821   0.044   0.204
  761SOL     OW 2312   3.250   1.573   0.477
  761SOL    HW1 2313   3.317   1.585   0.403
  761SOL    HW2 2314   3.210   1.662   0.500
  762SOL     OW 2315   1.992   1.794   1.851
  762SOL    HW1 2316   1.951   1.720   1.904
  762SOL    HW2 2317   2.056   1.845   1.909
  763SOL     OW 2318   3.142   0.927   0.672
  763SOL    HW1 2319   3.202   0.846   0.674
  763SOL    HW2 2320   3.182   0.996   0.612
  764SOL     OW 2321   2.692   1.273   1.422
  764SOL    HW1 2322   2.687   1.306   1.517
  764SOL    HW2 2323   2.606   1.292   1.376
  765SOL     OW 2324   2.534   1.616   0.154
  765SOL    HW1 2325   2.543   1.626   0.055
  765SOL    HW2 2326   2.494   1.527   0.175
  766SOL     OW 2327   2.125   0.326   0.720
  766SOL    HW1 2328   2.046   0.377   0.686
  766SOL    HW2 2329   2.116   0.311   0.818
  767SOL     OW 2330   3.056   1.612   0.031
  767SOL    HW1 2331   3.062   1.519   0.068
  767SOL    HW2 2332   2.997   1.612  -0.049
  768SOL     OW 2333   2.684   1.002   1.372
  768SOL    HW1 2334   2.724   1.001   1.280
  768SOL    HW2 2335   2.694   1.094   1.412
  769SOL     OW 2336   2.778   0.910   0.291
  769SOL    HW1 2337   2.841   0.948   0.223
  769SOL    HW2 2338   2.818   0.827   0.330
  770SOL     OW 2339   2.234   1.288   1.490
  770SOL    HW1 2340   2.221   1.381   1.456
  770SOL    HW2 2341   2.150   1.236   1.477
  771SOL     OW 2342   2.901   1.098   0.696
  771SOL    HW1 2343   2.831   1.051   0.750
  771SOL    HW2 2344   2.960   1.030   0.653
  772SOL     OW 2345   2.876   0.236   0.971
  772SOL    HW1 2346   2.868   0.200   0.878
  772SOL    HW2 2347   2.874   0.160   1.036
  773SOL     OW 2348   2.452   1.487   0.491
  773SOL    HW1 2349   2.494   1.429   0.421
  773SOL    HW2 2350   2.408   1.566   0.447
  774SOL     OW 2351   2.117   1.348   0.290
  774SOL    HW1 2352   2.021   1.349   0.263
  774SOL    HW2 2353   2.129   1.401   0.374
  775SOL     OW 2354   1.967   1.013   1.726
  775SOL    HW1 2355   1.890   0.980   1.780
  775SOL    HW2 2356   2.052   0.983   1.768
  776SOL     OW 2357   2.534   0.203   1.489
  776SOL    HW1 2358   2.624   0.187   1.449
  776SOL    HW2 2359   2.542   0.208   1.588
  777SOL     OW 2360   1.934   0.166   0.318
  777SOL    HW1 2361   1.917   0.249   0.264
  777SOL    HW2 2362   2.024   0.129   0.296
  778SOL     OW 2363   2.475   0.842   1.431
  778SOL    HW1 2364   2.531   0.923   1.414
  778SOL    HW2 2365   2.534   0.762   1.434
  779SOL     OW 2366   2.578   0.565   1.708
  779SOL    HW1 2367   2.597   0.630   1.782
  779SOL    HW2 2368   2.638   0.485   1.717
  780SOL     OW 2369   3.312   1.220   1.633
  780SOL    HW1 2370   3.303   1.210   1.732
  780SOL    HW2 2371   3.408   1.213   1.607
  781SOL     OW 2372   2.252   1.741   1.560
  781SOL    HW1 2373   2.161   1.782   1.558
  781SOL    HW2 2374   2.245   1.647   1.592
  782SOL     OW 2375   3.087   0.325   0.449
  782SOL    HW1 2376   3.152   0.251   0.438
  782SOL    HW2 2377   3.107   0.375   0.533
  783SOL     OW 2378   2.456   0.745   0.652
  783SOL    HW1 2379   2.506   0.830   0.633
  783SOL    HW2 2380   2.368   0.747   0.604
  784SOL     OW 2381   2.721   1.374   0.016
  784SOL    HW1 2382   2.675   1.389   0.104
  784SOL    HW2 2383   2.765   1.459  -0.014
  785SOL     OW 2384   2.523   1.790   0.953
  785SOL    HW1 2385   2.477   1.878   0.940
  785SOL    HW2 2386   2.622   1.802   0.946
  786SOL     OW 2387   2.721   0.956   0.861
  786SOL    HW1 2388   2.775   0.887   0.909
  786SOL    HW2 2389   2.689   1.025   0.927
  787SOL     OW 2390   2.945   0.984   0.087
  787SOL    HW1 2391   2.922   1.037   0.005
  787SOL    HW2 2392   3.026   0.928   0.068
  788SOL     OW 2393   2.083   1.314   1.844
  788SOL    HW1 2394   2.018   1.241   1.823
  788SOL    HW2 2395   2.087   1.328   1.942
  789SOL     OW 2396   1.941   1.240   0.653
  789SOL    HW1 2397   1.940   1.193   0.741
  789SOL    HW2 2398   2.023   1.212   0.602
  790SOL     OW 2399   2.534   1.391   1.624
  790SOL    HW1 2400   2.456   1.341   1.662
  790SOL    HW2 2401   2.531   1.486   1.655
  791SOL     OW 2402   2.290   0.424   0.520
  791SOL    HW1 2403   2.320   0.352   0.458
  791SOL    HW2 2404   2.251   0.384   0.603
  792SOL     OW 2405   2.179   0.547   1.280
  792SOL    HW1 2406   2.217   0.488   1.352
  792SOL    HW2 2407   2.219   0.521   1.192
  793SOL     OW 2408   2.674   1.586   0.687
  793SOL    HW1 2409   2.706   1.596   0.593
  793SOL    HW2 2410   2.595   1.524   0.689
  794SOL     OW 2411   2.863   0.034   1.154
  794SOL    HW1 2412   2.800  -0.038   1.123
  794SOL    HW2 2413   2.956  -0.002   1.154
  795SOL     OW 2414   2.632   1.330   0.301
  795SOL    HW1 2415   2.586   1.243   0.318
  795SOL    HW2 2416   2.723   1.327   0.342
  796SOL     OW 2417   2.480   1.567   1.284
  796SOL    HW1 2418   2.475   1.649   1.341
  796SOL    HW2 2419   2.569   1.564   1.239
  797SOL     OW 2420   1.901   1.077   0.300
  797SOL    HW1 2421   2.000   1.066   0.291
  797SOL    HW2 2422   1.861   0.991   0.332
  798SOL     OW 2423   2.737   1.646   0.337
  798SOL    HW1 2424   2.660   1.611   0.283
  798SOL    HW2 2425   2.705   1.717   0.399
  799SOL     OW 2426   2.092   0.628   1.975
  799SOL    HW1 2427   1.999   0.626   2.012
  799SOL    HW2 2428   2.093   0.589   1.883
  800SOL     OW 2429   2.087   0.275   2.858
  800SOL    HW1 2430   2.122   0.258   2.950
  800SOL    HW2 2431   1.999   0.230   2.846
  801SOL     OW 2432   1.881   0.368   2.509
  801SOL    HW1 2433   1.799   0.411   2.548
  801SOL    HW2 2434   1.853   0.295   2.446
  802SOL     OW 2435   2.431   1.275   3.027
  802SOL    HW1 2436   2.338   1.268   2.990
  802SOL    HW2 2437   2.442   1.364   3.071
  803SOL     OW 2438   3.417   1.511   2.565
  803SOL    HW1 2439   3.360   1.495   2.646
  803SOL    HW2 2440   3.358   1.521   2.485
  804SOL     OW 2441   2.997   0.703   2.579
  804SOL    HW1 2442   3.054   0.781   2.554
  804SOL    HW2 2443   2.937   0.729   2.655
  805SOL     OW 2444   2.630   1.144   2.885
  805SOL    HW1 2445   2.552   1.161   2.945
  805SOL    HW2 2446   2.664   1.231   2.849
  806SOL     OW 2447   2.547   1.012   2.527
  806SOL    HW1 2448   2.616   0.996   2.597
  806SOL    HW2 2449   2.474   1.069   2.565
  807SOL     OW 2450   2.197   1.435   2.923
  807SOL    HW1 2451   2.119   1.404   2.870
  807SOL    HW2 2452   2.255   1.493   2.866
  808SOL     OW 2453   2.093   1.713   2.345
  808SOL    HW1 2454   2.127   1.790   2.399
  808SOL    HW2 2455   2.137   1.713   2.255
  809SOL     OW 2456   2.092   1.434   2.400
  809SOL    HW1 2457   2.066   1.530   2.400
  809SOL    HW2 2458   2.021   1.380   2.445
  810SOL     OW 2459   2.102   1.091   2.748
  810SOL    HW1 2460   2.116   1.007   2.800
  810SOL    HW2 2461   2.047   1.155   2.803
  811SOL     OW 2462   2.482   1.786   3.301
  811SOL    HW1 2463   2.390   1.769   3.336
  811SOL    HW2 2464   2.510   1.878   3.327
  812SOL     OW 2465   2.468   0.964   1.985
  812SOL    HW1 2466   2.475   1.048   1.931
  812SOL    HW2 2467   2.514   0.977   2.073
  813SOL     OW 2468   1.984   0.643   2.425
  813SOL    HW1 2469   1.939   0.555   2.442
  813SOL    HW2 2470   1.983   0.697   2.509
  814SOL     OW 2471   1.889   1.596   1.979
  814SOL    HW1 2472   1.870   1.500   2.000
  814SOL    HW2 2473   1.856   1.654   2.054
  815SOL     OW 2474   2.475   1.365   2.588
  815SOL    HW1 2475   2.426   1.278   2.597
  815SOL    HW2 2476   2.452   1.408   2.501
  816SOL     OW 2477   2.671   0.004   2.364
  816SOL    HW1 2478   2.711   0.095   2.355
  816SOL    HW2 2479   2.571   0.012   2.370
  817SOL     OW 2480   2.059   0.976   3.126
  817SOL    HW1 2481   2.148   0.931   3.112
  817SOL    HW2 2482   1.986   0.911   3.107
  818SOL     OW 2483   2.460   0.729   2.132
  818SOL    HW1 2484   2.484   0.798   2.064
  818SOL    HW2 2485   2.382   0.762   2.186
  819SOL     OW 2486   3.143   0.345   2.806
  819SOL    HW1 2487   3.057   0.295   2.793
  819SOL    HW2 2488   3.205   0.291   2.862
  820SOL     OW 2489   2.669   0.605   3.327
  820SOL    HW1 2490   2.622   0.602   3.416
  820SOL    HW2 2491   2.618   0.550   3.261
  821SOL     OW 2492   2.853   0.410   3.104
  821SOL    HW1 2493   2.776   0.444   3.158
  821SOL    HW2 2494   2.819   0.359   3.025
  822SOL     OW 2495   2.903   0.701   2.291
  822SOL    HW1 2496   2.929   0.697   2.387
  822SOL    HW2 2497   2.818   0.650   2.277
  823SOL     OW 2498   1.938   0.811   2.651
  823SOL    HW1 2499   2.037   0.799   2.660
  823SOL    HW2 2500   1.914   0.906   2.672
  824SOL     OW 2501   2.727   0.348   2.057
  824SOL    HW1 2502   2.786   0.411   2.008
  824SOL    HW2 2503   2.746   0.254   2.028
  825SOL     OW 2504   3.224   1.144   2.407
  825SOL    HW1 2505   3.307   1.115   2.359
  825SOL    HW2 2506   3.175   1.211   2.351
  826SOL     OW 2507   2.412   0.196   2.747
  826SOL    HW1 2508   2.407   0.191   2.847
  826SOL    HW2 2509   2.414   0.292   2.718
  827SOL     OW 2510   2.870   1.456   2.339
  827SOL    HW1 2511   2.824   1.528   2.287
  827SOL    HW2 2512   2.866   1.476   2.437
  828SOL     OW 2513   2.213   1.801   2.715
  828SOL    HW1 2514   2.263   1.715   2.721
  828SOL    HW2 2515   2.278   1.878   2.712
  829SOL     OW 2516   2.183   0.943   2.104
  829SOL    HW1 2517   2.265   0.982   2.062
  829SOL    HW2 2518   2.156   0.861   2.055
  830SOL     OW 2519   2.973   1.776   2.099
  830SOL    HW1 2520   2.913   1.714   2.149
  830SOL    HW2 2521   3.004   1.732   2.014
  831SOL     OW 2522   2.064   0.285   3.360
  831SOL    HW1 2523   1.984   0.345   3.347
  831SOL    HW2 2524   2.054   0.236   3.446
  832SOL     OW 2525   2.326   1.743   2.185
  832SOL    HW1 2526   2.359   1.782   2.271
  832SOL    HW2 2527   2.402   1.736   2.120
  833SOL     OW 2528   2.111   1.785   3.103
  833SOL    HW1 2529   2.168   1.720   3.153
  833SOL    HW2 2530   2.095   1.752   3.010
  834SOL     OW 2531   2.802   1.698   2.766
  834SOL    HW1 2532   2.882   1.641   2.787
  834SOL    HW2 2533   2.753   1.658   2.689
  835SOL     OW 2534   2.244   0.700   2.342
  835SOL    HW1 2535   2.289   0.610   2.339
  835SOL    HW2 2536   2.150   0.689   2.375
  836SOL     OW 2537   2.476   0.122   1.979
  836SOL    HW1 2538   2.574   0.100   1.986
  836SOL    HW2 2539   2.445   0.105   1.886
  837SOL     OW 2540   2.750   1.514   3.057
  837SOL    HW1 2541   2.727   1.489   2.963
  837SOL    HW2 2542   2.811   1.445   3.096
  838SOL     OW 2543   2.665   1.402   2.786
  838SOL    HW1 2544   2.755   1.416   2.744
  838SOL    HW2 2545   2.594   1.404   2.715
  839SOL     OW 2546   2.784   0.503   2.761
  839SOL    HW1 2547   2.759   0.494   2.665
  839SOL    HW2 2548   2.832   0.421   2.792
  840SOL     OW 2549   2.401   0.064   2.374
  840SOL    HW1 2550   2.320   0.065   2.432
  840SOL    HW2 2551   2.404   0.147   2.319
  841SOL     OW 2552   3.296   1.188   1.903
  841SOL    HW1 2553   3.328   1.112   1.960
  841SOL    HW2 2554   3.204   1.215   1.933
  842SOL     OW 2555   2.159   0.035   2.033
  842SOL    HW1 2556   2.208   0.119   2.012
  842SOL    HW2 2557   2.221  -0.030   2.078
  843SOL     OW 2558   2.797   0.236   2.342
  843SOL    HW1 2559   2.749   0.277   2.264
  843SOL    HW2 2560   2.896   0.234   2.323
  844SOL     OW 2561   3.089   1.570   2.655
  844SOL    HW1 2562   3.110   1.644   2.590
  844SOL    HW2 2563   3.157   1.570   2.728
  845SOL     OW 2564   2.321   1.152   2.603
  845SOL    HW1 2565   2.250   1.125   2.668
  845SOL    HW2 2566   2.295   1.124   2.510
  846SOL     OW 2567   3.133   1.797   2.453
  846SOL    HW1 2568   3.177   1.861   2.389
  846SOL    HW2 2569   3.083   1.849   2.523
  847SOL     OW 2570   2.894   0.549   1.878
  847SOL    HW1 2571   2.853   0.631   1.839
  847SOL    HW2 2572   2.958   0.575   1.951
  848SOL     OW 2573   2.423   0.222   3.009
  848SOL    HW1 2574   2.461   0.138   3.046
  848SOL    HW2 2575   2.335   0.241   3.053
  849SOL     OW 2576   2.728   0.454   2.504
  849SOL    HW1 2577   2.696   0.526   2.442
  849SOL    HW2 2578   2.752   0.373   2.451
  850SOL     OW 2579   2.879   0.039   2.615
  850SOL    HW1 2580   2.807   0.044   2.546
  850SOL    HW2 2581   2.855  -0.030   2.684
  851SOL     OW 2582   2.350   1.385   2.036
  851SOL    HW1 2583   2.263   1.370   2.083
  851SOL    HW2 2584   2.333   1.411   1.941
  852SOL     OW 2585   2.389   0.256   2.190
  852SOL    HW1 2586   2.416   0.197   2.115
  852SOL    HW2 2587   2.389   0.351   2.159
  853SOL     OW 2588   3.454   1.629   3.487
  853SOL    HW1 2589   3.481   1.663   3.397
  853SOL    HW2 2590   3.533   1.591   3.533
  854SOL     OW 2591   2.973   1.195   2.962
  854SOL    HW1 2592   2.933   1.239   3.043
  854SOL    HW2 2593   2.932   1.232   2.879
  855SOL     OW 2594   2.567   1.050   2.230
  855SOL    HW1 2595   2.553   1.057   2.329
  855SOL    HW2 2596   2.651   0.999   2.212
  856SOL     OW 2597   2.272   0.813   3.113
  856SOL    HW1 2598   2.358   0.825   3.163
  856SOL    HW2 2599   2.230   0.726   3.140
  857SOL     OW 2600   3.136   0.386   3.124
  857SOL    HW1 2601   3.157   0.460   3.188
  857SOL    HW2 2602   3.047   0.403   3.081
  858SOL     OW 2603   1.926   1.564   3.193
  858SOL    HW1 2604   1.880   1.646   3.159
  858SOL    HW2 2605   2.024   1.583   3.202
  859SOL     OW 2606   2.229   1.100   2.363
  859SOL    HW1 2607   2.222   1.183   2.307
  859SOL    HW2 2608   2.233   1.020   2.303
  860SOL     OW 2609   2.428   0.537   2.727
  860SOL    HW1 2610   2.440   0.603   2.653
  860SOL    HW2 2611   2.474   0.571   2.810
  861SOL     OW 2612   3.114   1.348   2.250
  861SOL    HW1 2613   3.164   1.425   2.290
  861SOL    HW2 2614   3.019   1.350   2.282
  862SOL     OW 2615   3.134   1.445   3.004
  862SOL    HW1 2616   3.181   1.458   3.091
  862SOL    HW2 2617   3.068   1.371   3.013
  863SOL     OW 2618   2.216   1.510   3.191
  863SOL    HW1 2619   2.195   1.466   3.104
  863SOL    HW2 2620   2.313   1.536   3.194
  864SOL     OW 2621   2.435   0.870   2.891
  864SOL    HW1 2622   2.479   0.959   2.882
  864SOL    HW2 2623   2.372   0.870   2.968
  865SOL     OW 2624   3.222   0.862   2.907
  865SOL    HW1 2625   3.147   0.862   2.841
  865SOL    HW2 2626   3.259   0.770   2.916
  866SOL     OW 2627   3.071   0.525   2.137
  866SOL    HW1 2628   3.084   0.441   2.191
  866SOL    HW2 2629   3.042   0.599   2.197
  867SOL     OW 2630   2.169   0.213   3.093
  867SOL    HW1 2631   2.146   0.250   3.183
  867SOL    HW2 2632   2.139   0.118   3.087
  868SOL     OW 2633   1.899   1.310   3.144
  868SOL    HW1 2634   1.952   1.261   3.212
  868SOL    HW2 2635   1.921   1.408   3.149
  869SOL     OW 2636   2.594   0.634   2.926
  869SOL    HW1 2637   2.653   0.608   2.850
  869SOL    HW2 2638   2.566   0.730   2.915
  870SOL     OW 2639   2.169   0.063   2.480
  870SOL    HW1 2640   2.158   0.157   2.513
  870SOL    HW2 2641   2.164   0.000   2.557
  871SOL     OW 2642   3.484   0.367   2.236
  871SOL    HW1 2643   3.486   0.291   2.300
  871SOL    HW2 2644   3.436   0.444   2.276
  872SOL     OW 2645   2.885   0.766   2.828
  872SOL    HW1 2646   2.900   0.787   2.924
  872SOL    HW2 2647   2.855   0.671   2.819
  873SOL     OW 2648   3.165   0.838   1.904
  873SOL    HW1 2649   3.199   0.745   1.919
  873SOL    HW2 2650   3.183   0.865   1.809
  874SOL     OW 2651   2.930   1.333   2.711
  874SOL    HW1 2652   2.937   1.249   2.656
  874SOL    HW2 2653   2.992   1.402   2.675
  875SOL     OW 2654   2.181   0.810   2.811
  875SOL    HW1 2655   2.274   0.846   2.816
  875SOL    HW2 2656   2.175   0.725   2.863
  876SOL     OW 2657   2.201   0.509   2.868
  876SOL    HW1 2658   2.149   0.426   2.851
  876SOL    HW2 2659   2.278   0.514   2.804
  877SOL     OW 2660   3.022   0.207   3.339
  877SOL    HW1 2661   3.022   0.271   3.416
  877SOL    HW2 2662   3.050   0.255   3.256
  878SOL     OW 2663   1.870   1.326   2.062
  878SOL    HW1 2664   1.777   1.347   2.031
  878SOL    HW2 2665   1.880   1.227   2.075
  879SOL     OW 2666   1.950   1.801   2.789
  879SOL    HW1 2667   1.908   1.715   2.762
  879SOL    HW2 2668   2.044   1.804   2.755
  880SOL     OW 2669   2.366   1.568   2.772
  880SOL    HW1 2670   2.432   1.642   2.781
  880SOL    HW2 2671   2.410   1.489   2.730
  881SOL     OW 2672   2.864   0.796   3.100
  881SOL    HW1 2673   2.905   0.764   3.186
  881SOL    HW2 2674   2.768   0.769   3.097
  882SOL     OW 2675   1.902   0.544   2.976
  882SOL    HW1 2676   1.987   0.511   2.935
  882SOL    HW2 2677   1.915   0.559   3.074
  883SOL     OW 2678   2.677   0.572   2.187
  883SOL    HW1 2679   2.684   0.483   2.141
  883SOL    HW2 2680   2.583   0.606   2.179
  884SOL     OW 2681   2.533   0.464   3.131
  884SOL    HW1 2682   2.499   0.375   3.101
  884SOL    HW2 2683   2.559   0.518   3.051
  885SOL     OW 2684   2.792   1.678   3.327
  885SOL    HW1 2685   2.768   1.660   3.232
  885SOL    HW2 2686   2.822   1.772   3.337
  886SOL     OW 2687   2.335   0.500   2.053
  886SOL    HW1 2688   2.396   0.580   2.057
  886SOL    HW2 2689   2.240   0.531   2.060
  887SOL     OW 2690   2.021   1.137   3.328
  887SOL    HW1 2691   2.043   1.076   3.404
  887SOL    HW2 2692   2.031   1.088   3.242
  888SOL     OW 2693   3.209   1.059   3.096
  888SOL    HW1 2694   3.233   0.996   3.022
  888SOL    HW2 2695   3.119   1.099   3.078
  889SOL     OW 2696   3.164   0.855   2.171
  889SOL    HW1 2697   3.078   0.824   2.213
  889SOL    HW2 2698   3.160   0.841   2.072
  890SOL     OW 2699   3.114   1.731   2.990
  890SOL    HW1 2700   3.198   1.736   2.936
  890SOL    HW2 2701   3.091   1.635   3.008
  891SOL     OW 2702   1.945   1.258   2.884
  891SOL    HW1 2703   1.940   1.257   2.984
  891SOL    HW2 2704   1.862   1.217   2.846
  892SOL     OW 2705   3.250   1.573   2.339
  892SOL    HW1 2706   3.317   1.585   2.265
  892SOL    HW2 2707   3.210   1.662   2.362
  893SOL     OW 2708   3.142   0.927   2.534
  893SOL    HW1 2709   3.202   0.846   2.536
  893SOL    HW2 2710   3.182   0.996   2.474
  894SOL     OW 2711   2.534   1.616   2.016
  894SOL    HW1 2712   2.543   1.626   1.917
  894SOL    HW2 2713   2.494   1.527   2.037
  895SOL     OW 2714   2.125   0.326   2.582
  895SOL    HW1 2715   2.046   0.377   2.548
  895SOL    HW2 2716   2.116   0.311   2.680
  896SOL     OW 2717   3.056   1.612   1.893
  896SOL    HW1 2718   3.062   1.519   1.930
  896SOL    HW2 2719   2.997   1.612   1.813
  897SOL     OW 2720   2.684   1.002   3.234
  897SOL    HW1 2721   2.724   1.001   3.142
  897SOL    HW2 2722   2.694   1.094   3.274
  898SOL     OW 2723   2.778   0.910   2.153
  898SOL    HW1 2724   2.841   0.948   2.085
  898SOL    HW2 2725   2.818   0.827   2.192
  899SOL     OW 2726   2.901   1.098   2.558
  899SOL    HW1 2727   2.831   1.051   2.612
  899SOL    HW2 2728   2.960   1.030   2.515
  900SOL     OW 2729   2.876   0.236   2.833
  900SOL    HW1 2730   2.868   0.200   2.740
  900SOL    HW2 2731   2.874   0.160   2.898
  901SOL     OW 2732   2.452   1.487   2.353
  901SOL    HW1 2733   2.494   1.429   2.283
  901SOL    HW2 2734   2.408   1.566   2.309
  902SOL     OW 2735   2.117   1.348   2.152
  902SOL    HW1 2736   2.021   1.349   2.125
  902SOL    HW2 2737   2.129   1.401   2.236
  903SOL     OW 2738   1.937   0.345   1.895
  903SOL    HW1 2739   1.845   0.317   1.866
  903SOL    HW2 2740   1.968   0.422   1.839
  904SOL     OW 2741   1.934   0.166   2.180
  904SOL    HW1 2742   1.917   0.249   2.126
  904SOL    HW2 2743   2.024   0.129   2.158
  905SOL     OW 2744   2.252   1.741   3.422
  905SOL    HW1 2745   2.161   1.782   3.420
  905SOL    HW2 2746   2.245   1.647   3.454
  906SOL     OW 2747   3.087   0.325   2.311
  906SOL    HW1 2748   3.152   0.251   2.300
  906SOL    HW2 2749   3.107   0.375   2.395
  907SOL     OW 2750   2.456   0.745   2.514
  907SOL    HW1 2751   2.506   0.830   2.495
  907SOL    HW2 2752   2.368   0.747   2.466
  908SOL     OW 2753   2.721   1.374   1.878
  908SOL    HW1 2754   2.675   1.389   1.966
  908SOL    HW2 2755   2.765   1.459   1.848
  909SOL     OW 2756   2.523   1.790   2.815
  909SOL    HW1 2757   2.477   1.878   2.802
  909SOL    HW2 2758   2.622   1.802   2.808
  910SOL     OW 2759   2.721   0.956   2.723
  910SOL    HW1 2760   2.775   0.887   2.771
  910SOL    HW2 2761   2.689   1.025   2.789
  911SOL     OW 2762   2.945   0.984   1.949
  911SOL    HW1 2763   2.922   1.037   1.867
  911SOL    HW2 2764   3.026   0.928   1.930
  912SOL     OW 2765   1.941   1.240   2.515
  912SOL    HW1 2766   1.940   1.193   2.603
  912SOL    HW2 2767   2.023   1.212   2.464
  913SOL     OW 2768   2.290   0.424   2.382
  913SOL    HW1 2769   2.320   0.352   2.320
  913SOL    HW2 2770   2.251   0.384   2.465
  914SOL     OW 2771   2.179   0.547   3.142
  914SOL    HW1 2772   2.217   0.488   3.214
  914SOL    HW2 2773   2.219   0.521   3.054
  915SOL     OW 2774   2.674   1.586   2.549
  915SOL    HW1 2775   2.706   1.596   2.455
  915SOL    HW2 2776   2.595   1.524   2.551
  916SOL     OW 2777   3.286   0.214   2.974
  916SOL    HW1 2778   3.338   0.149   3.029
  916SOL    HW2 2779   3.237   0.277   3.035
  917SOL     OW 2780   2.863   0.034   3.016
  917SOL    HW1 2781   2.800  -0.038   2.985
  917SOL    HW2 2782   2.956  -0.002   3.016
  918SOL     OW 2783   2.632   1.330   2.163
  918SOL    HW1 2784   2.586   1.243   2.180
  918SOL    HW2 2785   2.723   1.327   2.204
  919SOL     OW 2786   1.901   1.077   2.162
  919SOL    HW1 2787   2.000   1.066   2.153
  919SOL    HW2 2788   1.861   0.991   2.194
  920SOL     OW 2789   2.737   1.646   2.199
  920SOL    HW1 2790   2.660   1.611   2.145
  920SOL    HW2 2791   2.705   1.717   2.261
  921SOL     OW 2792   2.092   2.490   0.113
  921SOL    HW1 2793   1.999   2.488   0.150
  921SOL    HW2 2794   2.093   2.451   0.021
  922SOL     OW 2795   2.087   2.137   0.996
  922SOL    HW1 2796   2.122   2.120   1.088
  922SOL    HW2 2797   1.999   2.092   0.984
  923SOL     OW 2798   1.881   2.230   0.647
  923SOL    HW1 2799   1.799   2.273   0.686
  923SOL    HW2 2800   1.853   2.157   0.584
  924SOL     OW 2801   2.431   3.137   1.165
  924SOL    HW1 2802   2.338   3.130   1.128
  924SOL    HW2 2803   2.442   3.226   1.209
  925SOL     OW 2804   3.417   3.373   0.703
  925SOL    HW1 2805   3.360   3.357   0.784
  925SOL    HW2 2806   3.358   3.383   0.623
  926SOL     OW 2807   2.997   2.565   0.717
  926SOL    HW1 2808   3.054   2.643   0.692
  926SOL    HW2 2809   2.937   2.591   0.793
  927SOL     OW 2810   2.630   3.006   1.023
  927SOL    HW1 2811   2.552   3.023   1.083
  927SOL    HW2 2812   2.664   3.093   0.987
  928SOL     OW 2813   2.712   2.660   1.823
  928SOL    HW1 2814   2.708   2.736   1.888
  928SOL    HW2 2815   2.734   2.696   1.732
  929SOL     OW 2816   2.547   2.874   0.665
  929SOL    HW1 2817   2.616   2.858   0.735
  929SOL    HW2 2818   2.474   2.931   0.703
  930SOL     OW 2819   2.548   3.023   1.803
  930SOL    HW1 2820   2.608   3.102   1.817
  930SOL    HW2 2821   2.462   3.054   1.762
  931SOL     OW 2822   2.197   3.297   1.061
  931SOL    HW1 2823   2.119   3.266   1.008
  931SOL    HW2 2824   2.255   3.355   1.004
  932SOL     OW 2825   2.300   2.254   1.499
  932SOL    HW1 2826   2.382   2.198   1.508
  932SOL    HW2 2827   2.219   2.196   1.503
  933SOL     OW 2828   2.102   2.953   0.886
  933SOL    HW1 2829   2.116   2.869   0.938
  933SOL    HW2 2830   2.047   3.017   0.941
  934SOL     OW 2831   2.468   2.826   0.123
  934SOL    HW1 2832   2.475   2.910   0.069
  934SOL    HW2 2833   2.514   2.839   0.211
  935SOL     OW 2834   1.984   2.505   0.563
  935SOL    HW1 2835   1.939   2.417   0.580
  935SOL    HW2 2836   1.983   2.559   0.647
  936SOL     OW 2837   1.975   2.599   1.597
  936SOL    HW1 2838   2.063   2.586   1.642
  936SOL    HW2 2839   1.962   2.696   1.575
  937SOL     OW 2840   3.155   3.090   1.423
  937SOL    HW1 2841   3.192   3.017   1.365
  937SOL    HW2 2842   3.207   3.095   1.508
  938SOL     OW 2843   2.671   1.866   0.502
  938SOL    HW1 2844   2.711   1.957   0.493
  938SOL    HW2 2845   2.571   1.874   0.508
  939SOL     OW 2846   2.059   2.838   1.264
  939SOL    HW1 2847   2.148   2.793   1.250
  939SOL    HW2 2848   1.986   2.773   1.245
  940SOL     OW 2849   2.179   2.113   1.801
  940SOL    HW1 2850   2.250   2.184   1.807
  940SOL    HW2 2851   2.091   2.152   1.829
  941SOL     OW 2852   2.460   2.591   0.270
  941SOL    HW1 2853   2.484   2.660   0.202
  941SOL    HW2 2854   2.382   2.624   0.324
  942SOL     OW 2855   3.143   2.207   0.944
  942SOL    HW1 2856   3.057   2.157   0.931
  942SOL    HW2 2857   3.205   2.153   1.000
  943SOL     OW 2858   2.669   2.467   1.465
  943SOL    HW1 2859   2.622   2.464   1.554
  943SOL    HW2 2860   2.618   2.412   1.399
  944SOL     OW 2861   3.256   2.331   1.674
  944SOL    HW1 2862   3.236   2.374   1.762
  944SOL    HW2 2863   3.334   2.269   1.683
  945SOL     OW 2864   2.835   2.752   1.572
  945SOL    HW1 2865   2.881   2.668   1.543
  945SOL    HW2 2866   2.779   2.786   1.497
  946SOL     OW 2867   2.853   2.272   1.242
  946SOL    HW1 2868   2.776   2.306   1.296
  946SOL    HW2 2869   2.819   2.221   1.163
  947SOL     OW 2870   2.903   2.563   0.429
  947SOL    HW1 2871   2.929   2.559   0.525
  947SOL    HW2 2872   2.818   2.512   0.415
  948SOL     OW 2873   1.938   2.673   0.789
  948SOL    HW1 2874   2.037   2.661   0.798
  948SOL    HW2 2875   1.914   2.768   0.810
  949SOL     OW 2876   2.727   2.210   0.195
  949SOL    HW1 2877   2.786   2.273   0.146
  949SOL    HW2 2878   2.746   2.116   0.166
  950SOL     OW 2879   3.224   3.006   0.545
  950SOL    HW1 2880   3.307   2.977   0.497
  950SOL    HW2 2881   3.175   3.073   0.489
  951SOL     OW 2882   2.412   2.058   0.885
  951SOL    HW1 2883   2.407   2.053   0.985
  951SOL    HW2 2884   2.414   2.154   0.856
  952SOL     OW 2885   2.183   2.805   0.242
  952SOL    HW1 2886   2.265   2.844   0.200
  952SOL    HW2 2887   2.156   2.723   0.193
  953SOL     OW 2888   2.064   2.147   1.498
  953SOL    HW1 2889   1.984   2.207   1.485
  953SOL    HW2 2890   2.054   2.098   1.584
  954SOL     OW 2891   2.244   2.562   0.480
  954SOL    HW1 2892   2.289   2.472   0.477
  954SOL    HW2 2893   2.150   2.551   0.513
  955SOL     OW 2894   2.643   2.126   1.749
  955SOL    HW1 2895   2.710   2.065   1.792
  955SOL    HW2 2896   2.570   2.145   1.814
  956SOL     OW 2897   2.784   2.365   0.899
  956SOL    HW1 2898   2.759   2.356   0.803
  956SOL    HW2 2899   2.832   2.283   0.930
  957SOL     OW 2900   2.401   1.926   0.512
  957SOL    HW1 2901   2.320   1.927   0.570
  957SOL    HW2 2902   2.404   2.009   0.457
  958SOL     OW 2903   2.797   2.098   0.480
  958SOL    HW1 2904   2.749   2.139   0.402
  958SOL    HW2 2905   2.896   2.096   0.461
  959SOL     OW 2906   2.938   2.545   1.464
  959SOL    HW1 2907   2.858   2.484   1.467
  959SOL    HW2 2908   3.019   2.492   1.440
  960SOL     OW 2909   3.089   3.432   0.793
  960SOL    HW1 2910   3.110   3.506   0.728
  960SOL    HW2 2911   3.157   3.432   0.866
  961SOL     OW 2912   2.321   3.014   0.741
  961SOL    HW1 2913   2.250   2.987   0.806
  961SOL    HW2 2914   2.295   2.986   0.648
  962SOL     OW 2915   2.894   2.411   0.016
  962SOL    HW1 2916   2.853   2.493  -0.023
  962SOL    HW2 2917   2.958   2.437   0.089
  963SOL     OW 2918   1.940   2.418   1.386
  963SOL    HW1 2919   2.032   2.417   1.345
  963SOL    HW2 2920   1.934   2.492   1.453
  964SOL     OW 2921   2.423   2.084   1.147
  964SOL    HW1 2922   2.461   2.000   1.184
  964SOL    HW2 2923   2.335   2.103   1.191
  965SOL     OW 2924   2.728   2.316   0.642
  965SOL    HW1 2925   2.696   2.388   0.580
  965SOL    HW2 2926   2.752   2.235   0.589
  966SOL     OW 2927   2.879   1.901   0.753
  966SOL    HW1 2928   2.807   1.906   0.684
  966SOL    HW2 2929   2.855   1.832   0.822
  967SOL     OW 2930   2.389   2.118   0.328
  967SOL    HW1 2931   2.416   2.059   0.253
  967SOL    HW2 2932   2.389   2.213   0.297
  968SOL     OW 2933   2.926   3.209   1.340
  968SOL    HW1 2934   2.846   3.186   1.395
  968SOL    HW2 2935   3.009   3.183   1.389
  969SOL     OW 2936   2.973   3.057   1.100
  969SOL    HW1 2937   2.933   3.101   1.181
  969SOL    HW2 2938   2.932   3.094   1.017
  970SOL     OW 2939   2.777   1.951   1.402
  970SOL    HW1 2940   2.802   1.931   1.307
  970SOL    HW2 2941   2.849   2.007   1.444
  971SOL     OW 2942   2.842   2.978   1.719
  971SOL    HW1 2943   2.743   2.984   1.729
  971SOL    HW2 2944   2.865   2.898   1.663
  972SOL     OW 2945   2.567   2.912   0.368
  972SOL    HW1 2946   2.553   2.919   0.467
  972SOL    HW2 2947   2.651   2.861   0.350
  973SOL     OW 2948   2.272   2.675   1.251
  973SOL    HW1 2949   2.358   2.687   1.301
  973SOL    HW2 2950   2.230   2.588   1.278
  974SOL     OW 2951   3.136   2.248   1.262
  974SOL    HW1 2952   3.157   2.322   1.326
  974SOL    HW2 2953   3.047   2.265   1.219
  975SOL     OW 2954   2.229   2.962   0.501
  975SOL    HW1 2955   2.222   3.045   0.445
  975SOL    HW2 2956   2.233   2.882   0.441
  976SOL     OW 2957   2.428   2.399   0.865
  976SOL    HW1 2958   2.440   2.465   0.791
  976SOL    HW2 2959   2.474   2.433   0.948
  977SOL     OW 2960   3.114   3.210   0.388
  977SOL    HW1 2961   3.164   3.287   0.428
  977SOL    HW2 2962   3.019   3.212   0.420
  978SOL     OW 2963   2.264   2.613   1.598
  978SOL    HW1 2964   2.332   2.668   1.551
  978SOL    HW2 2965   2.304   2.525   1.625
  979SOL     OW 2966   2.875   1.967   1.770
  979SOL    HW1 2967   2.881   2.052   1.718
  979SOL    HW2 2968   2.907   1.891   1.713
  980SOL     OW 2969   2.366   1.912   1.740
  980SOL    HW1 2970   2.324   1.855   1.670
  980SOL    HW2 2971   2.300   1.981   1.772
  981SOL     OW 2972   2.435   2.732   1.029
  981SOL    HW1 2973   2.479   2.821   1.020
  981SOL    HW2 2974   2.372   2.732   1.106
  982SOL     OW 2975   3.222   2.724   1.045
  982SOL    HW1 2976   3.147   2.724   0.979
  982SOL    HW2 2977   3.259   2.632   1.054
  983SOL     OW 2978   3.071   2.387   0.275
  983SOL    HW1 2979   3.084   2.303   0.329
  983SOL    HW2 2980   3.042   2.461   0.335
  984SOL     OW 2981   2.169   2.075   1.231
  984SOL    HW1 2982   2.146   2.112   1.321
  984SOL    HW2 2983   2.139   1.980   1.225
  985SOL     OW 2984   1.899   3.172   1.282
  985SOL    HW1 2985   1.952   3.123   1.350
  985SOL    HW2 2986   1.921   3.270   1.287
  986SOL     OW 2987   2.594   2.496   1.064
  986SOL    HW1 2988   2.653   2.470   0.988
  986SOL    HW2 2989   2.566   2.592   1.053
  987SOL     OW 2990   2.169   1.925   0.618
  987SOL    HW1 2991   2.158   2.019   0.651
  987SOL    HW2 2992   2.164   1.862   0.695
  988SOL     OW 2993   3.484   2.229   0.374
  988SOL    HW1 2994   3.486   2.153   0.438
  988SOL    HW2 2995   3.436   2.306   0.414
  989SOL     OW 2996   2.885   2.628   0.966
  989SOL    HW1 2997   2.900   2.649   1.062
  989SOL    HW2 2998   2.855   2.533   0.957
  990SOL     OW 2999   2.212   2.760   1.804
  990SOL    HW1 3000   2.288   2.804   1.852
  990SOL    HW2 3001   2.247   2.713   1.722
  991SOL     OW 3002   3.165   2.700   0.042
  991SOL    HW1 3003   3.199   2.607   0.057
  991SOL    HW2 3004   3.183   2.727  -0.053
  992SOL     OW 3005   2.181   2.672   0.949
  992SOL    HW1 3006   2.274   2.708   0.954
  992SOL    HW2 3007   2.175   2.587   1.001
  993SOL     OW 3008   2.201   2.371   1.006
  993SOL    HW1 3009   2.149   2.288   0.989
  993SOL    HW2 3010   2.278   2.376   0.942
  994SOL     OW 3011   3.000   2.242   1.678
  994SOL    HW1 3012   2.955   2.305   1.742
  994SOL    HW2 3013   3.093   2.273   1.661
  995SOL     OW 3014   3.022   2.069   1.477
  995SOL    HW1 3015   3.022   2.133   1.554
  995SOL    HW2 3016   3.050   2.117   1.394
  996SOL     OW 3017   2.864   2.658   1.238
  996SOL    HW1 3018   2.905   2.626   1.324
  996SOL    HW2 3019   2.768   2.631   1.235
  997SOL     OW 3020   1.902   2.406   1.114
  997SOL    HW1 3021   1.987   2.373   1.073
  997SOL    HW2 3022   1.915   2.421   1.212
  998SOL     OW 3023   2.051   2.382   1.722
  998SOL    HW1 3024   2.110   2.342   1.652
  998SOL    HW2 3025   1.993   2.453   1.681
  999SOL     OW 3026   2.677   2.434   0.325
  999SOL    HW1 3027   2.684   2.345   0.279
  999SOL    HW2 3028   2.583   2.468   0.317
 1000SOL     OW 3029   2.533   2.326   1.269
 1000SOL    HW1 3030   2.499   2.237   1.239
 1000SOL    HW2 3031   2.559   2.380   1.189
 1001SOL     OW 3032   2.335   2.362   0.191
 1001SOL    HW1 3033   2.396   2.442   0.195
 1001SOL    HW2 3034   2.240   2.393   0.198
 1002SOL     OW 3035   2.021   2.999   1.466
 1002SOL    HW1 3036   2.043   2.938   1.542
 1002SOL    HW2 3037   2.031   2.950   1.380
 1003SOL     OW 3038   3.209   2.921   1.234
 1003SOL    HW1 3039   3.233   2.858   1.160
 1003SOL    HW2 3040   3.119   2.961   1.216
 1004SOL     OW 3041   3.164   2.717   0.309
 1004SOL    HW1 3042   3.078   2.686   0.351
 1004SOL    HW2 3043   3.160   2.703   0.210
 1005SOL     OW 3044   1.945   3.120   1.022
 1005SOL    HW1 3045   1.940   3.119   1.122
 1005SOL    HW2 3046   1.862   3.079   0.984
 1006SOL     OW 3047   2.765   1.948   0.133
 1006SOL    HW1 3048   2.816   1.949   0.047
 1006SOL    HW2 3049   2.821   1.906   0.204
 1007SOL     OW 3050   3.142   2.789   0.672
 1007SOL    HW1 3051   3.202   2.708   0.674
 1007SOL    HW2 3052   3.182   2.858   0.612
 1008SOL     OW 3053   2.692   3.135   1.422
 1008SOL    HW1 3054   2.687   3.168   1.517
 1008SOL    HW2 3055   2.606   3.154   1.376
 1009SOL     OW 3056   2.125   2.188   0.720
 1009SOL    HW1 3057   2.046   2.239   0.686
 1009SOL    HW2 3058   2.116   2.173   0.818
 1010SOL     OW 3059   2.684   2.864   1.372
 1010SOL    HW1 3060   2.724   2.863   1.280
 1010SOL    HW2 3061   2.694   2.956   1.412
 1011SOL     OW 3062   2.778   2.772   0.291
 1011SOL    HW1 3063   2.841   2.810   0.223
 1011SOL    HW2 3064   2.818   2.689   0.330
 1012SOL     OW 3065   2.234   3.150   1.490
 1012SOL    HW1 3066   2.221   3.243   1.456
 1012SOL    HW2 3067   2.150   3.098   1.477
 1013SOL     OW 3068   2.901   2.960   0.696
 1013SOL    HW1 3069   2.831   2.913   0.750
 1013SOL    HW2 3070   2.960   2.892   0.653
 1014SOL     OW 3071   2.876   2.098   0.971
 1014SOL    HW1 3072   2.868   2.062   0.878
 1014SOL    HW2 3073   2.874   2.022   1.036
 1015SOL     OW 3074   1.967   2.875   1.726
 1015SOL    HW1 3075   1.890   2.842   1.780
 1015SOL    HW2 3076   2.052   2.845   1.768
 1016SOL     OW 3077   2.534   2.065   1.489
 1016SOL    HW1 3078   2.624   2.049   1.449
 1016SOL    HW2 3079   2.542   2.070   1.588
 1017SOL     OW 3080   1.934   2.028   0.318
 1017SOL    HW1 3081   1.917   2.111   0.264
 1017SOL    HW2 3082   2.024   1.991   0.296
 1018SOL     OW 3083   2.475   2.704   1.431
 1018SOL    HW1 3084   2.531   2.785   1.414
 1018SOL    HW2 3085   2.534   2.624   1.434
 1019SOL     OW 3086   2.578   2.427   1.708
 1019SOL    HW1 3087   2.597   2.492   1.782
 1019SOL    HW2 3088   2.638   2.347   1.717
 1020SOL     OW 3089   3.312   3.082   1.633
 1020SOL    HW1 3090   3.303   3.072   1.732
 1020SOL    HW2 3091   3.408   3.075   1.607
 1021SOL     OW 3092   3.087   2.187   0.449
 1021SOL    HW1 3093   3.152   2.113   0.438
 1021SOL    HW2 3094   3.107   2.237   0.533
 1022SOL     OW 3095   2.456   2.607   0.652
 1022SOL    HW1 3096   2.506   2.692   0.633
 1022SOL    HW2 3097   2.368   2.609   0.604
 1023SOL     OW 3098   2.721   2.818   0.861
 1023SOL    HW1 3099   2.775   2.749   0.909
 1023SOL    HW2 3100   2.689   2.887   0.927
 1024SOL     OW 3101   2.945   2.846   0.087
 1024SOL    HW1 3102   2.922   2.899   0.005
 1024SOL    HW2 3103   3.026   2.790   0.068
 1025SOL     OW 3104   2.083   3.176   1.844
 1025SOL    HW1 3105   2.018   3.103   1.823
 1025SOL    HW2 3106   2.087   3.190   1.942
 1026SOL     OW 3107   1.941   3.102   0.653
 1026SOL    HW1 3108   1.940   3.055   0.741
 1026SOL    HW2 3109   2.023   3.074   0.602
 1027SOL     OW 3110   2.534   3.253   1.624
 1027SOL    HW1 3111   2.456   3.203   1.662
 1027SOL    HW2 3112   2.531   3.348   1.655
 1028SOL     OW 3113   2.290   2.286   0.520
 1028SOL    HW1 3114   2.320   2.214   0.458
 1028SOL    HW2 3115   2.251   2.246   0.603
 1029SOL     OW 3116   2.179   2.409   1.280
 1029SOL    HW1 3117   2.217   2.350   1.352
 1029SOL    HW2 3118   2.219   2.383   1.192
 1030SOL     OW 3119   3.286   2.076   1.112
 1030SOL    HW1 3120   3.338   2.011   1.167
 1030SOL    HW2 3121   3.237   2.139   1.173
 1031SOL     OW 3122   2.863   1.896   1.154
 1031SOL    HW1 3123   2.800   1.824   1.123
 1031SOL    HW2 3124   2.956   1.860   1.154
 1032SOL     OW 3125   2.632   3.192   0.301
 1032SOL    HW1 3126   2.586   3.105   0.318
 1032SOL    HW2 3127   2.723   3.189   0.342
 1033SOL     OW 3128   1.901   2.939   0.300
 1033SOL    HW1 3129   2.000   2.928   0.291
 1033SOL    HW2 3130   1.861   2.853   0.332
 1034SOL     OW 3131   2.092   2.490   1.975
 1034SOL    HW1 3132   1.999   2.488   2.012
 1034SOL    HW2 3133   2.093   2.451   1.883
 1035SOL     OW 3134   2.087   2.137   2.858
 1035SOL    HW1 3135   2.122   2.120   2.950
 1035SOL    HW2 3136   1.999   2.092   2.846
 1036SOL     OW 3137   1.881   2.230   2.509
 1036SOL    HW1 3138   1.799   2.273   2.548
 1036SOL    HW2 3139   1.853   2.157   2.446
 1037SOL     OW 3140   2.431   3.137   3.027
 1037SOL    HW1 3141   2.338   3.130   2.990
 1037SOL    HW2 3142   2.442   3.226   3.071
 1038SOL     OW 3143   3.417   3.373   2.565
 1038SOL    HW1 3144   3.360   3.357   2.646
 1038SOL    HW2 3145   3.358   3.383   2.485
 1039SOL     OW 3146   2.997   2.565   2.579
 1039SOL    HW1 3147   3.054   2.643   2.554
 1039SOL    HW2 3148   2.937   2.591   2.655
 1040SOL     OW 3149   2.630   3.006   2.885
 1040SOL    HW1 3150   2.552   3.023   2.945
 1040SOL    HW2 3151   2.664   3.093   2.849
 1041SOL     OW 3152   2.547   2.874   2.527
 1041SOL    HW1 3153   2.616   2.858   2.597
 1041SOL    HW2 3154   2.474   2.931   2.565
 1042SOL     OW 3155   2.197   3.297   2.923
 1042SOL    HW1 3156   2.119   3.266   2.870
 1042SOL    HW2 3157   2.255   3.355   2.866
 1043SOL     OW 3158   2.102   2.953   2.748
 1043SOL    HW1 3159   2.116   2.869   2.800
 1043SOL    HW2 3160   2.047   3.017   2.803
 1044SOL     OW 3161   2.468   2.826   1.985
 1044SOL    HW1 3162   2.475   2.910   1.931
 1044SOL    HW2 3163   2.514   2.839   2.073
 1045SOL     OW 3164   1.984   2.505   2.425
 1045SOL    HW1 3165   1.939   2.417   2.442
 1045SOL    HW2 3166   1.983   2.559   2.509
 1046SOL     OW 3167   2.671   1.866   2.364
 1046SOL    HW1 3168   2.711   1.957   2.355
 1046SOL    HW2 3169   2.571   1.874   2.370
 1047SOL     OW 3170   2.059   2.838   3.126
 1047SOL    HW1 3171   2.148   2.793   3.112
 1047SOL    HW2 3172   1.986   2.773   3.107
 1048SOL     OW 3173   2.460   2.591   2.132
 1048SOL    HW1 3174   2.484   2.660   2.064
 1048SOL    HW2 3175   2.382   2.624   2.186
 1049SOL     OW 3176   3.143   2.207   2.806
 1049SOL    HW1 3177   3.057   2.157   2.793
 1049SOL    HW2 3178   3.205   2.153   2.862
 1050SOL     OW 3179   2.669   2.467   3.327
 1050SOL    HW1 3180   2.622   2.464   3.416
 1050SOL    HW2 3181   2.618   2.412   3.261
 1051SOL     OW 3182   2.853   2.272   3.104
 1051SOL    HW1 3183   2.776   2.306   3.158
 1051SOL    HW2 3184   2.819   2.221   3.025
 1052SOL     OW 3185   2.903   2.563   2.291
 1052SOL    HW1 3186   2.929   2.559   2.387
 1052SOL    HW2 3187   2.818   2.512   2.277
 1053SOL     OW 3188   1.938   2.673   2.651
 1053SOL    HW1 3189   2.037   2.661   2.660
 1053SOL    HW2 3190   1.914   2.768   2.672
 1054SOL     OW 3191   2.727   2.210   2.057
 1054SOL    HW1 3192   2.786   2.273   2.008
 1054SOL    HW2 3193   2.746   2.116   2.028
 1055SOL     OW 3194   3.224   3.006   2.407
 1055SOL    HW1 3195   3.307   2.977   2.359
 1055SOL    HW2 3196   3.175   3.073   2.351
 1056SOL     OW 3197   2.412   2.058   2.747
 1056SOL    HW1 3198   2.407   2.053   2.847
 1056SOL    HW2 3199   2.414   2.154   2.718
 1057SOL     OW 3200   2.183   2.805   2.104
 1057SOL    HW1 3201   2.265   2.844   2.062
 1057SOL    HW2 3202   2.156   2.723   2.055
 1058SOL     OW 3203   2.064   2.147   3.360
 1058SOL    HW1 3204   1.984   2.207   3.347
 1058SOL    HW2 3205   2.054   2.098   3.446
 1059SOL     OW 3206   2.244   2.562   2.342
 1059SOL    HW1 3207   2.289   2.472   2.339
 1059SOL    HW2 3208   2.150   2.551   2.375
 1060SOL     OW 3209   2.476   1.984   1.979
 1060SOL    HW1 3210   2.574   1.962   1.986
 1060SOL    HW2 3211   2.445   1.967   1.886
 1061SOL     OW 3212   2.784   2.365   2.761
 1061SOL    HW1 3213   2.759   2.356   2.665
 1061SOL    HW2 3214   2.832   2.283   2.792
 1062SOL     OW 3215   2.401   1.926   2.374
 1062SOL    HW1 3216   2.320   1.927   2.432
 1062SOL    HW2 3217   2.404   2.009   2.319
 1063SOL     OW 3218   3.296   3.050   1.903
 1063SOL    HW1 3219   3.328   2.974   1.960
 1063SOL    HW2 3220   3.204   3.077   1.933
 1064SOL     OW 3221   2.159   1.897   2.033
 1064SOL    HW1 3222   2.208   1.981   2.012
 1064SOL    HW2 3223   2.221   1.832   2.078
 1065SOL     OW 3224   2.797   2.098   2.342
 1065SOL    HW1 3225   2.749   2.139   2.264
 1065SOL    HW2 3226   2.896   2.096   2.323
 1066SOL     OW 3227   3.089   3.432   2.655
 1066SOL    HW1 3228   3.110   3.506   2.590
 1066SOL    HW2 3229   3.157   3.432   2.728
 1067SOL     OW 3230   2.321   3.014   2.603
 1067SOL    HW1 3231   2.250   2.987   2.668
 1067SOL    HW2 3232   2.295   2.986   2.510
 1068SOL     OW 3233   2.894   2.411   1.878
 1068SOL    HW1 3234   2.853   2.493   1.839
 1068SOL    HW2 3235   2.958   2.437   1.951
 1069SOL     OW 3236   2.423   2.084   3.009
 1069SOL    HW1 3237   2.461   2.000   3.046
 1069SOL    HW2 3238   2.335   2.103   3.053
 1070SOL     OW 3239   2.728   2.316   2.504
 1070SOL    HW1 3240   2.696   2.388   2.442
 1070SOL    HW2 3241   2.752   2.235   2.451
 1071SOL     OW 3242   2.879   1.901   2.615
 1071SOL    HW1 3243   2.807   1.906   2.546
 1071SOL    HW2 3244   2.855   1.832   2.684
 1072SOL     OW 3245   2.389   2.118   2.190
 1072SOL    HW1 3246   2.416   2.059   2.115
 1072SOL    HW2 3247   2.389   2.213   2.159
 1073SOL     OW 3248   2.926   3.209   3.202
 1073SOL    HW1 3249   2.846   3.186   3.257
 1073SOL    HW2 3250   3.009   3.183   3.251
 1074SOL     OW 3251   2.973   3.057   2.962
 1074SOL    HW1 3252   2.933   3.101   3.043
 1074SOL    HW2 3253   2.932   3.094   2.879
 1075SOL     OW 3254   2.567   2.912   2.230
 1075SOL    HW1 3255   2.553   2.919   2.329
 1075SOL    HW2 3256   2.651   2.861   2.212
 1076SOL     OW 3257   2.272   2.675   3.113
 1076SOL    HW1 3258   2.358   2.687   3.163
 1076SOL    HW2 3259   2.230   2.588   3.140
 1077SOL     OW 3260   3.136   2.248   3.124
 1077SOL    HW1 3261   3.157   2.322   3.188
 1077SOL    HW2 3262   3.047   2.265   3.081
 1078SOL     OW 3263   2.229   2.962   2.363
 1078SOL    HW1 3264   2.222   3.045   2.307
 1078SOL    HW2 3265   2.233   2.882   2.303
 1079SOL     OW 3266   2.428   2.399   2.727
 1079SOL    HW1 3267   2.440   2.465   2.653
 1079SOL    HW2 3268   2.474   2.433   2.810
 1080SOL     OW 3269   3.114   3.210   2.250
 1080SOL    HW1 3270   3.164   3.287   2.290
 1080SOL    HW2 3271   3.019   3.212   2.282
 1081SOL     OW 3272   2.435   2.732   2.891
 1081SOL    HW1 3273   2.479   2.821   2.882
 1081SOL    HW2 3274   2.372   2.732   2.968
 1082SOL     OW 3275   3.222   2.724   2.907
 1082SOL    HW1 3276   3.147   2.724   2.841
 1082SOL    HW2 3277   3.259   2.632   2.916
 1083SOL     OW 3278   3.071   2.387   2.137
 1083SOL    HW1 3279   3.084   2.303   2.191
 1083SOL    HW2 3280   3.042   2.461   2.197
 1084SOL     OW 3281   2.169   2.075   3.093
 1084SOL    HW1 3282   2.146   2.112   3.183
 1084SOL    HW2 3283   2.139   1.980   3.087
 1085SOL     OW 3284   1.899   3.172   3.144
 1085SOL    HW1 3285   1.952   3.123   3.212
 1085SOL    HW2 3286   1.921   3.270   3.149
 1086SOL     OW 3287   2.594   2.496   2.926
 1086SOL    HW1 3288   2.653   2.470   2.850
 1086SOL    HW2 3289   2.566   2.592   2.915
 1087SOL     OW 3290   2.169   1.925   2.480
 1087SOL    HW1 3291   2.158   2.019   2.513
 1087SOL    HW2 3292   2.164   1.862   2.557
 1088SOL     OW 3293   3.484   2.229   2.236
 1088SOL    HW1 3294   3.486   2.153   2.300
 1088SOL    HW2 3295   3.436   2.306   2.276
 1089SOL     OW 3296   2.885   2.628   2.828
 1089SOL    HW1 3297   2.900   2.649   2.924
 1089SOL    HW2 3298   2.855   2.533   2.819
 1090SOL     OW 3299   3.165   2.700   1.904
 1090SOL    HW1 3300   3.199   2.607   1.919
 1090SOL    HW2 3301   3.183   2.727   1.809
 1091SOL     OW 3302   2.181   2.672   2.811
 1091SOL    HW1 3303   2.274   2.708   2.816
 1091SOL    HW2 3304   2.175   2.587   2.863
 1092SOL     OW 3305   2.201   2.371   2.868
 1092SOL    HW1 3306   2.149   2.288   2.851
 1092SOL    HW2 3307   2.278   2.376   2.804
 1093SOL     OW 3308   3.022   2.069   3.339
 1093SOL    HW1 3309   3.022   2.133   3.416
 1093SOL    HW2 3310   3.050   2.117   3.256
 1094SOL     OW 3311   1.870   3.188   2.062
 1094SOL    HW1 3312   1.777   3.209   2.031
 1094SOL    HW2 3313   1.880   3.089   2.075
 1095SOL     OW 3314   2.864   2.658   3.100
 1095SOL    HW1 3315   2.905   2.626   3.186
 1095SOL    HW2 3316   2.768   2.631   3.097
 1096SOL     OW 3317   1.902   2.406   2.976
 1096SOL    HW1 3318   1.987   2.373   2.935
 1096SOL    HW2 3319   1.915   2.421   3.074
 1097SOL     OW 3320   2.677   2.434   2.187
 1097SOL    HW1 3321   2.684   2.345   2.141
 1097SOL    HW2 3322   2.583   2.468   2.179
 1098SOL     OW 3323   2.533   2.326   3.131
 1098SOL    HW1 3324   2.499   2.237   3.101
 1098SOL    HW2 3325   2.559   2.380   3.051
 1099SOL     OW 3326   2.335   2.362   2.053
 1099SOL    HW1 3327   2.396   2.442   2.057
 1099SOL    HW2 3328   2.240   2.393   2.060
 1100SOL     OW 3329   2.021   2.999   3.328
 1100SOL    HW1 3330   2.043   2.938   3.404
 1100SOL    HW2 3331   2.031   2.950   3.242
 1101SOL     OW 3332   3.209   2.921   3.096
 1101SOL    HW1 3333   3.233   2.858   3.022
 1101SOL    HW2 3334   3.119   2.961   3.078
 1102SOL     OW 3335   3.164   2.717   2.171
 1102SOL    HW1 3336   3.078   2.686   2.213
 1102SOL    HW2 3337   3.160   2.703   2.072
 1103SOL     OW 3338   1.945   3.120   2.884
 1103SOL    HW1 3339   1.940   3.119   2.984
 1103SOL    HW2 3340   1.862   3.079   2.846
 1104SOL     OW 3341   3.142   2.789   2.534
 1104SOL    HW1 3342   3.202   2.708   2.536
 1104SOL    HW2 3343   3.182   2.858   2.474
 1105SOL     OW 3344   2.692   3.135   3.284
 1105SOL    HW1 3345   2.687   3.168   3.379
 1105SOL    HW2 3346   2.606   3.154   3.238
 1106SOL     OW 3347   2.125   2.188   2.582
 1106SOL    HW1 3348   2.046   2.239   2.548
 1106SOL    HW2 3349   2.116   2.173   2.680
 1107SOL     OW 3350   3.056   3.474   1.893
 1107SOL    HW1 3351   3.062   3.381   1.930
 1107SOL    HW2 3352   2.997   3.474   1.813
 1108SOL     OW 3353   2.684   2.864   3.234
 1108SOL    HW1 3354   2.724   2.863   3.142
 1108SOL    HW2 3355   2.694   2.956   3.274
 1109SOL     OW 3356   2.778   2.772   2.153
 1109SOL    HW1 3357   2.841   2.810   2.085
 1109SOL    HW2 3358   2.818   2.689   2.192
 1110SOL     OW 3359   2.901   2.960   2.558
 1110SOL    HW1 3360   2.831   2.913   2.612
 1110SOL    HW2 3361   2.960   2.892   2.515
 1111SOL     OW 3362   2.876   2.098   2.833
 1111SOL    HW1 3363   2.868   2.062   2.740
 1111SOL    HW2 3364   2.874   2.022   2.898
 1112SOL     OW 3365   2.534   2.065   3.351
 1112SOL    HW1 3366   2.624   2.049   3.311
 1112SOL    HW2 3367   2.542   2.070   3.450
 1113SOL     OW 3368   1.937   2.207   1.895
 1113SOL    HW1 3369   1.845   2.179   1.866
 1113SOL    HW2 3370   1.968   2.284   1.839
 1114SOL     OW 3371   1.934   2.028   2.180
 1114SOL    HW1 3372   1.917   2.111   2.126
 1114SOL    HW2 3373   2.024   1.991   2.158
 1115SOL     OW 3374   3.087   2.187   2.311
 1115SOL    HW1 3375   3.152   2.113   2.300
 1115SOL    HW2 3376   3.107   2.237   2.395
 1116SOL     OW 3377   2.456   2.607   2.514
 1116SOL    HW1 3378   2.506   2.692   2.495
 1116SOL    HW2 3379   2.368   2.609   2.466
 1117SOL     OW 3380   2.721   2.818   2.723
 1117SOL    HW1 3381   2.775   2.749   2.771
 1117SOL    HW2 3382   2.689   2.887   2.789
 1118SOL     OW 3383   2.945   2.846   1.949
 1118SOL    HW1 3384   2.922   2.899   1.867
 1118SOL    HW2 3385   3.026   2.790   1.930
 1119SOL     OW 3386   1.941   3.102   2.515
 1119SOL    HW1 3387   1.940   3.055   2.603
 1119SOL    HW2 3388   2.023   3.074   2.464
 1120SOL     OW 3389   2.290   2.286   2.382
 1120SOL    HW1 3390   2.320   2.214   2.320
 1120SOL    HW2 3391   2.251   2.246   2.465
 1121SOL     OW 3392   2.179   2.409   3.142
 1121SOL    HW1 3393   2.217   2.350   3.214
 1121SOL    HW2 3394   2.219   2.383   3.054
 1122SOL     OW 3395   3.286   2.076   2.974
 1122SOL    HW1 3396   3.338   2.011   3.029
 1122SOL    HW2 3397   3.237   2.139   3.035
 1123SOL     OW 3398   2.863   1.896   3.016
 1123SOL    HW1 3399   2.800   1.824   2.985
 1123SOL    HW2 3400   2.956   1.860   3.016
 1124SOL     OW 3401   2.632   3.192   2.163
 1124SOL    HW1 3402   2.586   3.105   2.180
 1124SOL    HW2 3403   2.723   3.189   2.204
 1125SOL     OW 3404   3.214   1.914   2.030
 1125SOL    HW1 3405   3.249   1.873   1.946
 1125SOL    HW2 3406   3.124   1.876   2.050
 1126SOL     OW 3407   1.901   2.939   2.162
 1126SOL    HW1 3408   2.000   2.928   2.153
 1126SOL    HW2 3409   1.861   2.853   2.194
   3.26237   3.26237   3.26237
