mobley_4188615_GMX.gro created by acpype (v: 2023.10.27) on Thu May 14 13:26:54 2026
 2131
    1MOL     C1    1   1.433   1.453   1.083
    1MOL     C2    2   1.328   1.514   1.152
    1MOL     C3    3   1.541   1.399   1.154
    1MOL     C4    4   1.330   1.520   1.291
    1MOL     C5    5   1.543   1.405   1.293
    1MOL     C6    6   1.438   1.466   1.362
    1MOL     C7    7   1.440   1.473   1.507
    1MOL     C8    8   1.382   1.367   1.727
    1MOL     C9    9   1.319   1.253   1.517
    1MOL     N1   10   1.382   1.368   1.581
    1MOL     O1   11   1.495   1.572   1.557
    1MOL     H1   12   1.432   1.448   0.974
    1MOL     H2   13   1.245   1.556   1.096
    1MOL     H3   14   1.622   1.351   1.100
    1MOL     H4   15   1.248   1.568   1.343
    1MOL     H5   16   1.627   1.362   1.347
    1MOL     H6   17   1.279   1.370   1.761
    1MOL     H7   18   1.436   1.455   1.762
    1MOL     H8   19   1.431   1.276   1.761
    1MOL     H9   20   1.226   1.231   1.569
    1MOL    H10   21   1.387   1.168   1.522
    1MOL    H11   22   1.298   1.278   1.412
    2SOL     OW   23   0.230   0.628   0.113
    2SOL    HW1   24   0.137   0.626   0.150
    2SOL    HW2   25   0.231   0.589   0.021
    3SOL     OW   26   0.225   0.275   0.996
    3SOL    HW1   27   0.260   0.258   1.088
    3SOL    HW2   28   0.137   0.230   0.984
    4SOL     OW   29   0.019   0.368   0.647
    4SOL    HW1   30  -0.063   0.411   0.686
    4SOL    HW2   31  -0.009   0.295   0.584
    5SOL     OW   32   0.569   1.275   1.165
    5SOL    HW1   33   0.476   1.268   1.128
    5SOL    HW2   34   0.580   1.364   1.209
    6SOL     OW   35   1.555   1.511   0.703
    6SOL    HW1   36   1.498   1.495   0.784
    6SOL    HW2   37   1.496   1.521   0.623
    7SOL     OW   38   1.135   0.703   0.717
    7SOL    HW1   39   1.192   0.781   0.692
    7SOL    HW2   40   1.075   0.729   0.793
    8SOL     OW   41   1.755   0.607   0.231
    8SOL    HW1   42   1.743   0.594   0.132
    8SOL    HW2   43   1.725   0.526   0.280
    9SOL     OW   44   0.768   1.144   1.023
    9SOL    HW1   45   0.690   1.161   1.083
    9SOL    HW2   46   0.802   1.231   0.987
   10SOL     OW   47   0.850   0.798   1.823
   10SOL    HW1   48   0.846   0.874   1.888
   10SOL    HW2   49   0.872   0.834   1.732
   11SOL     OW   50   0.685   1.012   0.665
   11SOL    HW1   51   0.754   0.996   0.735
   11SOL    HW2   52   0.612   1.069   0.703
   12SOL     OW   53   0.686   1.161   1.803
   12SOL    HW1   54   0.746   1.240   1.817
   12SOL    HW2   55   0.600   1.192   1.762
   13SOL     OW   56   0.335   1.435   1.061
   13SOL    HW1   57   0.257   1.404   1.008
   13SOL    HW2   58   0.393   1.493   1.004
   14SOL     OW   59   0.438   0.392   1.499
   14SOL    HW1   60   0.520   0.336   1.508
   14SOL    HW2   61   0.357   0.334   1.503
   15SOL     OW   62   1.603   0.447   0.737
   15SOL    HW1   63   1.529   0.493   0.687
   15SOL    HW2   64   1.654   0.515   0.790
   16SOL     OW   65   0.231   1.713   0.483
   16SOL    HW1   66   0.265   1.790   0.537
   16SOL    HW2   67   0.275   1.713   0.393
   17SOL     OW   68   0.230   1.434   0.538
   17SOL    HW1   69   0.204   1.530   0.538
   17SOL    HW2   70   0.159   1.380   0.583
   18SOL     OW   71   0.240   1.091   0.886
   18SOL    HW1   72   0.254   1.007   0.938
   18SOL    HW2   73   0.185   1.155   0.941
   19SOL     OW   74   0.620   1.786   1.439
   19SOL    HW1   75   0.528   1.769   1.474
   19SOL    HW2   76   0.648   1.878   1.465
   20SOL     OW   77   0.606   0.964   0.123
   20SOL    HW1   78   0.613   1.048   0.069
   20SOL    HW2   79   0.652   0.977   0.211
   21SOL     OW   80   1.594   0.114   1.480
   21SOL    HW1   81   1.576   0.181   1.408
   21SOL    HW2   82   1.591   0.160   1.569
   22SOL     OW   83   0.122   0.643   0.563
   22SOL    HW1   84   0.077   0.555   0.580
   22SOL    HW2   85   0.121   0.697   0.647
   23SOL     OW   86   1.842   1.767   0.359
   23SOL    HW1   87   1.896   1.738   0.439
   23SOL    HW2   88   1.872   1.857   0.330
   24SOL     OW   89   0.027   1.596   0.117
   24SOL    HW1   90   0.008   1.500   0.138
   24SOL    HW2   91  -0.006   1.654   0.192
   25SOL     OW   92   1.689   0.922   0.612
   25SOL    HW1   93   1.784   0.893   0.620
   25SOL    HW2   94   1.681   0.987   0.537
   26SOL     OW   95   1.641   1.108   0.432
   26SOL    HW1   96   1.727   1.110   0.380
   26SOL    HW2   97   1.655   1.155   0.520
   27SOL     OW   98   0.113   0.737   1.597
   27SOL    HW1   99   0.201   0.724   1.642
   27SOL    HW2  100   0.100   0.834   1.575
   28SOL     OW  101   0.613   1.365   0.726
   28SOL    HW1  102   0.564   1.278   0.735
   28SOL    HW2  103   0.590   1.408   0.639
   29SOL     OW  104   0.809   0.004   0.502
   29SOL    HW1  105   0.849   0.095   0.493
   29SOL    HW2  106   0.709   0.012   0.508
   30SOL     OW  107   0.197   0.976   1.264
   30SOL    HW1  108   0.286   0.931   1.250
   30SOL    HW2  109   0.124   0.911   1.245
   31SOL     OW  110   1.525   0.999   0.190
   31SOL    HW1  111   1.462   0.923   0.203
   31SOL    HW2  112   1.573   1.017   0.276
   32SOL     OW  113   1.187   1.792   1.616
   32SOL    HW1  114   1.211   1.852   1.540
   32SOL    HW2  115   1.194   1.697   1.586
   33SOL     OW  116   0.317   0.251   1.801
   33SOL    HW1  117   0.388   0.322   1.807
   33SOL    HW2  118   0.229   0.290   1.829
   34SOL     OW  119   1.667   1.714   0.572
   34SOL    HW1  120   1.626   1.691   0.484
   34SOL    HW2  121   1.649   1.640   0.637
   35SOL     OW  122   0.598   0.729   0.270
   35SOL    HW1  123   0.622   0.798   0.202
   35SOL    HW2  124   0.520   0.762   0.324
   36SOL     OW  125   1.281   0.345   0.944
   36SOL    HW1  126   1.195   0.295   0.931
   36SOL    HW2  127   1.343   0.291   1.000
   37SOL     OW  128   1.576   1.662   0.307
   37SOL    HW1  129   1.665   1.708   0.310
   37SOL    HW2  130   1.555   1.638   0.212
   38SOL     OW  131   0.807   0.605   1.465
   38SOL    HW1  132   0.760   0.602   1.554
   38SOL    HW2  133   0.756   0.550   1.399
   39SOL     OW  134   1.394   0.469   1.674
   39SOL    HW1  135   1.374   0.512   1.762
   39SOL    HW2  136   1.472   0.407   1.683
   40SOL     OW  137   0.973   0.890   1.572
   40SOL    HW1  138   1.019   0.806   1.543
   40SOL    HW2  139   0.917   0.924   1.497
   41SOL     OW  140   0.991   0.410   1.242
   41SOL    HW1  141   0.914   0.444   1.296
   41SOL    HW2  142   0.957   0.359   1.163
   42SOL     OW  143   1.041   0.701   0.429
   42SOL    HW1  144   1.067   0.697   0.525
   42SOL    HW2  145   0.956   0.650   0.415
   43SOL     OW  146   0.076   0.811   0.789
   43SOL    HW1  147   0.175   0.799   0.798
   43SOL    HW2  148   0.052   0.906   0.810
   44SOL     OW  149   0.130   1.821   1.571
   44SOL    HW1  150   0.120   1.806   1.670
   44SOL    HW2  151   0.044   1.857   1.535
   45SOL     OW  152   0.865   0.348   0.195
   45SOL    HW1  153   0.924   0.411   0.146
   45SOL    HW2  154   0.884   0.254   0.166
   46SOL     OW  155   1.719   0.585   1.831
   46SOL    HW1  156   1.693   0.674   1.795
   46SOL    HW2  157   1.717   0.517   1.758
   47SOL     OW  158   1.362   1.144   0.545
   47SOL    HW1  159   1.445   1.115   0.497
   47SOL    HW2  160   1.313   1.211   0.489
   48SOL     OW  161   0.550   0.196   0.885
   48SOL    HW1  162   0.545   0.191   0.985
   48SOL    HW2  163   0.552   0.292   0.856
   49SOL     OW  164   1.008   1.456   0.477
   49SOL    HW1  165   0.962   1.528   0.425
   49SOL    HW2  166   1.004   1.476   0.575
   50SOL     OW  167   0.351   1.801   0.853
   50SOL    HW1  168   0.401   1.715   0.859
   50SOL    HW2  169   0.416   1.878   0.850
   51SOL     OW  170   1.795   1.066   0.873
   51SOL    HW1  171   1.733   1.051   0.797
   51SOL    HW2  172   1.743   1.077   0.958
   52SOL     OW  173   0.321   0.943   0.242
   52SOL    HW1  174   0.403   0.982   0.200
   52SOL    HW2  175   0.294   0.861   0.193
   53SOL     OW  176   1.458   0.735   0.728
   53SOL    HW1  177   1.453   0.670   0.803
   53SOL    HW2  178   1.538   0.794   0.741
   54SOL     OW  179   0.461   1.266   1.727
   54SOL    HW1  180   0.411   1.267   1.641
   54SOL    HW2  181   0.398   1.248   1.803
   55SOL     OW  182   1.111   1.776   0.237
   55SOL    HW1  183   1.051   1.714   0.287
   55SOL    HW2  184   1.142   1.732   0.152
   56SOL     OW  185   0.202   0.285   1.498
   56SOL    HW1  186   0.122   0.345   1.485
   56SOL    HW2  187   0.192   0.236   1.584
   57SOL     OW  188   1.632   1.377   0.081
   57SOL    HW1  189   1.600   1.471   0.071
   57SOL    HW2  190   1.556   1.314   0.069
   58SOL     OW  191   0.464   1.743   0.323
   58SOL    HW1  192   0.497   1.782   0.409
   58SOL    HW2  193   0.540   1.736   0.258
   59SOL     OW  194   1.400   0.107   0.426
   59SOL    HW1  195   1.376   0.070   0.336
   59SOL    HW2  196   1.499   0.123   0.430
   60SOL     OW  197   0.249   1.785   1.241
   60SOL    HW1  198   0.306   1.720   1.291
   60SOL    HW2  199   0.233   1.752   1.148
   61SOL     OW  200   0.940   1.698   0.904
   61SOL    HW1  201   1.020   1.641   0.925
   61SOL    HW2  202   0.891   1.658   0.827
   62SOL     OW  203   0.382   0.700   0.480
   62SOL    HW1  204   0.427   0.610   0.477
   62SOL    HW2  205   0.288   0.689   0.513
   63SOL     OW  206   1.547   0.222   1.729
   63SOL    HW1  207   1.542   0.259   1.821
   63SOL    HW2  208   1.475   0.153   1.717
   64SOL     OW  209   0.614   0.122   0.117
   64SOL    HW1  210   0.712   0.100   0.124
   64SOL    HW2  211   0.583   0.105   0.024
   65SOL     OW  212   0.781   0.264   1.749
   65SOL    HW1  213   0.848   0.203   1.792
   65SOL    HW2  214   0.708   0.283   1.814
   66SOL     OW  215   0.888   1.514   1.195
   66SOL    HW1  216   0.865   1.489   1.101
   66SOL    HW2  217   0.949   1.445   1.234
   67SOL     OW  218   1.351   0.590   1.433
   67SOL    HW1  219   1.379   0.547   1.518
   67SOL    HW2  220   1.376   0.686   1.434
   68SOL     OW  221   0.803   1.402   0.924
   68SOL    HW1  222   0.893   1.416   0.882
   68SOL    HW2  223   0.732   1.404   0.853
   69SOL     OW  224   0.922   0.503   0.899
   69SOL    HW1  225   0.897   0.494   0.803
   69SOL    HW2  226   0.970   0.421   0.930
   70SOL     OW  227   0.539   0.064   0.512
   70SOL    HW1  228   0.458   0.065   0.570
   70SOL    HW2  229   0.542   0.147   0.457
   71SOL     OW  230   1.434   1.188   0.041
   71SOL    HW1  231   1.466   1.112   0.098
   71SOL    HW2  232   1.342   1.215   0.071
   72SOL     OW  233   0.297   0.035   0.171
   72SOL    HW1  234   0.346   0.119   0.150
   72SOL    HW2  235   0.359  -0.030   0.216
   73SOL     OW  236   0.935   0.236   0.480
   73SOL    HW1  237   0.887   0.277   0.402
   73SOL    HW2  238   1.034   0.234   0.461
   74SOL     OW  239   1.076   0.683   1.464
   74SOL    HW1  240   0.996   0.622   1.467
   74SOL    HW2  241   1.157   0.630   1.440
   75SOL     OW  242   1.227   1.570   0.793
   75SOL    HW1  243   1.248   1.644   0.728
   75SOL    HW2  244   1.295   1.570   0.866
   76SOL     OW  245   0.459   1.152   0.741
   76SOL    HW1  246   0.388   1.125   0.806
   76SOL    HW2  247   0.433   1.124   0.648
   77SOL     OW  248   1.271   1.797   0.591
   77SOL    HW1  249   1.315   1.861   0.527
   77SOL    HW2  250   1.221   1.849   0.661
   78SOL     OW  251   1.032   0.549   0.016
   78SOL    HW1  252   0.991   0.631  -0.023
   78SOL    HW2  253   1.096   0.575   0.089
   79SOL     OW  254   0.078   0.556   1.386
   79SOL    HW1  255   0.170   0.555   1.345
   79SOL    HW2  256   0.072   0.630   1.453
   80SOL     OW  257   0.561   0.222   1.147
   80SOL    HW1  258   0.599   0.138   1.184
   80SOL    HW2  259   0.473   0.241   1.191
   81SOL     OW  260   0.866   0.454   0.642
   81SOL    HW1  261   0.834   0.526   0.580
   81SOL    HW2  262   0.890   0.373   0.589
   82SOL     OW  263   1.017   0.039   0.753
   82SOL    HW1  264   0.945   0.044   0.684
   82SOL    HW2  265   0.993  -0.030   0.822
   83SOL     OW  266   1.429   1.173   0.867
   83SOL    HW1  267   1.374   1.089   0.860
   83SOL    HW2  268   1.455   1.202   0.775
   84SOL     OW  269   1.466   0.590   0.992
   84SOL    HW1  270   1.436   0.495   0.999
   84SOL    HW2  271   1.539   0.606   1.058
   85SOL     OW  272   1.857   0.833   0.377
   85SOL    HW1  273   1.899   0.769   0.441
   85SOL    HW2  274   1.819   0.782   0.299
   86SOL     OW  275   0.488   1.385   0.174
   86SOL    HW1  276   0.401   1.370   0.221
   86SOL    HW2  277   0.471   1.411   0.079
   87SOL     OW  278   1.664   1.280   0.657
   87SOL    HW1  279   1.763   1.288   0.671
   87SOL    HW2  280   1.619   1.364   0.688
   88SOL     OW  281   1.390   0.575   0.078
   88SOL    HW1  282   1.336   0.554   0.159
   88SOL    HW2  283   1.481   0.534   0.087
   89SOL     OW  284   0.527   0.256   0.328
   89SOL    HW1  285   0.554   0.197   0.253
   89SOL    HW2  286   0.527   0.351   0.297
   90SOL     OW  287   1.754   1.223   1.588
   90SOL    HW1  288   1.845   1.184   1.575
   90SOL    HW2  289   1.762   1.319   1.612
   91SOL     OW  290   1.064   1.347   1.340
   91SOL    HW1  291   0.984   1.324   1.395
   91SOL    HW2  292   1.147   1.321   1.389
   92SOL     OW  293   1.111   1.195   1.100
   92SOL    HW1  294   1.071   1.239   1.181
   92SOL    HW2  295   1.070   1.232   1.017
   93SOL     OW  296   1.638   1.099   1.079
   93SOL    HW1  297   1.643   1.180   1.138
   93SOL    HW2  298   1.552   1.101   1.028
   94SOL     OW  299   0.915   0.089   1.402
   94SOL    HW1  300   0.940   0.069   1.307
   94SOL    HW2  301   0.987   0.145   1.444
   95SOL     OW  302   0.980   1.116   1.719
   95SOL    HW1  303   0.881   1.122   1.729
   95SOL    HW2  304   1.003   1.036   1.663
   96SOL     OW  305   0.705   1.050   0.368
   96SOL    HW1  306   0.691   1.057   0.467
   96SOL    HW2  307   0.789   0.999   0.350
   97SOL     OW  308   0.410   0.813   1.251
   97SOL    HW1  309   0.496   0.825   1.301
   97SOL    HW2  310   0.368   0.726   1.278
   98SOL     OW  311   1.274   0.386   1.262
   98SOL    HW1  312   1.295   0.460   1.326
   98SOL    HW2  313   1.185   0.403   1.219
   99SOL     OW  314   0.064   1.564   1.331
   99SOL    HW1  315   0.018   1.646   1.297
   99SOL    HW2  316   0.162   1.583   1.340
  100SOL     OW  317   0.367   1.100   0.501
  100SOL    HW1  318   0.360   1.183   0.445
  100SOL    HW2  319   0.371   1.020   0.441
  101SOL     OW  320   0.566   0.537   0.865
  101SOL    HW1  321   0.578   0.603   0.791
  101SOL    HW2  322   0.612   0.571   0.948
  102SOL     OW  323   1.252   1.348   0.388
  102SOL    HW1  324   1.302   1.425   0.428
  102SOL    HW2  325   1.157   1.350   0.420
  103SOL     OW  326   1.582   0.639   0.472
  103SOL    HW1  327   1.551   0.700   0.545
  103SOL    HW2  328   1.632   0.691   0.403
  104SOL     OW  329   0.354   1.510   1.329
  104SOL    HW1  330   0.333   1.466   1.242
  104SOL    HW2  331   0.451   1.536   1.332
  105SOL     OW  332   0.402   0.751   1.598
  105SOL    HW1  333   0.470   0.806   1.551
  105SOL    HW2  334   0.442   0.663   1.625
  106SOL     OW  335   1.587   0.779   1.670
  106SOL    HW1  336   1.495   0.817   1.665
  106SOL    HW2  337   1.647   0.826   1.605
  107SOL     OW  338   1.013   0.105   1.770
  107SOL    HW1  339   1.019   0.190   1.718
  107SOL    HW2  340   1.045   0.029   1.713
  108SOL     OW  341   0.504   0.050   1.740
  108SOL    HW1  342   0.462  -0.007   1.670
  108SOL    HW2  343   0.438   0.119   1.772
  109SOL     OW  344   0.573   0.870   1.029
  109SOL    HW1  345   0.617   0.959   1.020
  109SOL    HW2  346   0.510   0.870   1.106
  110SOL     OW  347   1.360   0.862   1.045
  110SOL    HW1  348   1.285   0.862   0.979
  110SOL    HW2  349   1.397   0.770   1.054
  111SOL     OW  350   1.209   0.525   0.275
  111SOL    HW1  351   1.222   0.441   0.329
  111SOL    HW2  352   1.180   0.599   0.335
  112SOL     OW  353   0.307   0.213   1.231
  112SOL    HW1  354   0.284   0.250   1.321
  112SOL    HW2  355   0.277   0.118   1.225
  113SOL     OW  356   0.037   1.310   1.282
  113SOL    HW1  357   0.090   1.261   1.350
  113SOL    HW2  358   0.059   1.408   1.287
  114SOL     OW  359   0.732   0.634   1.064
  114SOL    HW1  360   0.791   0.608   0.988
  114SOL    HW2  361   0.704   0.730   1.053
  115SOL     OW  362   1.728   0.935   1.854
  115SOL    HW1  363   1.682   0.928   1.765
  115SOL    HW2  364   1.666   0.979   1.920
  116SOL     OW  365   0.307   0.063   0.618
  116SOL    HW1  366   0.296   0.157   0.651
  116SOL    HW2  367   0.302   0.000   0.695
  117SOL     OW  368   1.622   0.367   0.374
  117SOL    HW1  369   1.624   0.291   0.438
  117SOL    HW2  370   1.574   0.444   0.414
  118SOL     OW  371   1.023   0.766   0.966
  118SOL    HW1  372   1.038   0.787   1.062
  118SOL    HW2  373   0.993   0.671   0.957
  119SOL     OW  374   0.980   1.573   1.700
  119SOL    HW1  375   0.960   1.617   1.612
  119SOL    HW2  376   1.019   1.482   1.684
  120SOL     OW  377   1.859   1.518   1.605
  120SOL    HW1  378   1.873   1.545   1.510
  120SOL    HW2  379   1.942   1.540   1.658
  121SOL     OW  380   0.350   0.898   1.804
  121SOL    HW1  381   0.426   0.942   1.852
  121SOL    HW2  382   0.385   0.851   1.722
  122SOL     OW  383   1.540   0.274   0.125
  122SOL    HW1  384   1.479   0.199   0.148
  122SOL    HW2  385   1.562   0.326   0.208
  123SOL     OW  386   1.303   0.838   0.042
  123SOL    HW1  387   1.337   0.745   0.057
  123SOL    HW2  388   1.321   0.865  -0.053
  124SOL     OW  389   1.068   1.333   0.849
  124SOL    HW1  390   1.075   1.249   0.794
  124SOL    HW2  391   1.130   1.402   0.813
  125SOL     OW  392   0.319   0.810   0.949
  125SOL    HW1  393   0.412   0.846   0.954
  125SOL    HW2  394   0.313   0.725   1.001
  126SOL     OW  395   0.339   0.509   1.006
  126SOL    HW1  396   0.287   0.426   0.989
  126SOL    HW2  397   0.416   0.514   0.942
  127SOL     OW  398   1.138   0.380   1.678
  127SOL    HW1  399   1.093   0.443   1.742
  127SOL    HW2  400   1.231   0.411   1.661
  128SOL     OW  401   1.160   0.207   1.477
  128SOL    HW1  402   1.160   0.271   1.554
  128SOL    HW2  403   1.188   0.255   1.394
  129SOL     OW  404   0.008   1.326   0.200
  129SOL    HW1  405  -0.085   1.347   0.169
  129SOL    HW2  406   0.018   1.227   0.213
  130SOL     OW  407   0.088   1.801   0.927
  130SOL    HW1  408   0.046   1.715   0.900
  130SOL    HW2  409   0.182   1.804   0.893
  131SOL     OW  410   0.504   1.568   0.910
  131SOL    HW1  411   0.570   1.642   0.919
  131SOL    HW2  412   0.548   1.489   0.868
  132SOL     OW  413   1.002   0.796   1.238
  132SOL    HW1  414   1.043   0.764   1.324
  132SOL    HW2  415   0.906   0.769   1.235
  133SOL     OW  416   0.040   0.544   1.114
  133SOL    HW1  417   0.125   0.511   1.073
  133SOL    HW2  418   0.053   0.559   1.212
  134SOL     OW  419   0.189   0.520   1.722
  134SOL    HW1  420   0.248   0.480   1.652
  134SOL    HW2  421   0.131   0.591   1.681
  135SOL     OW  422   1.369   0.950   1.660
  135SOL    HW1  423   1.408   1.039   1.680
  135SOL    HW2  424   1.379   0.930   1.563
  136SOL     OW  425   0.815   0.572   0.325
  136SOL    HW1  426   0.822   0.483   0.279
  136SOL    HW2  427   0.721   0.606   0.317
  137SOL     OW  428   1.657   0.604   1.206
  137SOL    HW1  429   1.619   0.535   1.268
  137SOL    HW2  430   1.739   0.568   1.162
  138SOL     OW  431   0.252   1.564   1.744
  138SOL    HW1  432   0.222   1.621   1.820
  138SOL    HW2  433   0.245   1.467   1.770
  139SOL     OW  434   0.671   0.464   1.269
  139SOL    HW1  435   0.637   0.375   1.239
  139SOL    HW2  436   0.697   0.518   1.189
  140SOL     OW  437   0.930   1.678   1.465
  140SOL    HW1  438   0.906   1.660   1.370
  140SOL    HW2  439   0.960   1.772   1.475
  141SOL     OW  440   0.473   0.500   0.191
  141SOL    HW1  441   0.534   0.580   0.195
  141SOL    HW2  442   0.378   0.531   0.198
  142SOL     OW  443   0.159   1.137   1.466
  142SOL    HW1  444   0.181   1.076   1.542
  142SOL    HW2  445   0.169   1.088   1.380
  143SOL     OW  446   1.347   1.059   1.234
  143SOL    HW1  447   1.371   0.996   1.160
  143SOL    HW2  448   1.257   1.099   1.216
  144SOL     OW  449   1.302   0.855   0.309
  144SOL    HW1  450   1.216   0.824   0.351
  144SOL    HW2  451   1.298   0.841   0.210
  145SOL     OW  452   1.759   1.747   1.154
  145SOL    HW1  453   1.820   1.777   1.081
  145SOL    HW2  454   1.721   1.658   1.132
  146SOL     OW  455   0.083   1.258   1.022
  146SOL    HW1  456   0.078   1.257   1.122
  146SOL    HW2  457   0.000   1.217   0.984
  147SOL     OW  458   0.688   1.662   1.716
  147SOL    HW1  459   0.632   1.743   1.725
  147SOL    HW2  460   0.740   1.666   1.630
  148SOL     OW  461   0.903   0.086   0.133
  148SOL    HW1  462   0.954   0.087   0.047
  148SOL    HW2  463   0.959   0.044   0.204
  149SOL     OW  464   1.726   0.135   0.523
  149SOL    HW1  465   1.799   0.118   0.456
  149SOL    HW2  466   1.695   0.048   0.561
  150SOL     OW  467   1.388   1.573   0.477
  150SOL    HW1  468   1.455   1.585   0.403
  150SOL    HW2  469   1.348   1.662   0.500
  151SOL     OW  470   0.130   1.794   1.851
  151SOL    HW1  471   0.089   1.720   1.904
  151SOL    HW2  472   0.194   1.845   1.909
  152SOL     OW  473   1.280   0.927   0.672
  152SOL    HW1  474   1.340   0.846   0.674
  152SOL    HW2  475   1.320   0.996   0.612
  153SOL     OW  476   0.830   1.273   1.422
  153SOL    HW1  477   0.825   1.306   1.517
  153SOL    HW2  478   0.744   1.292   1.376
  154SOL     OW  479   0.672   1.616   0.154
  154SOL    HW1  480   0.681   1.626   0.055
  154SOL    HW2  481   0.632   1.527   0.175
  155SOL     OW  482   1.650   1.720   1.394
  155SOL    HW1  483   1.703   1.730   1.310
  155SOL    HW2  484   1.623   1.810   1.428
  156SOL     OW  485   1.841   0.175   0.963
  156SOL    HW1  486   1.880   0.090   0.927
  156SOL    HW2  487   1.743   0.177   0.944
  157SOL     OW  488   0.263   0.326   0.720
  157SOL    HW1  489   0.184   0.377   0.686
  157SOL    HW2  490   0.254   0.311   0.818
  158SOL     OW  491   1.194   1.612   0.031
  158SOL    HW1  492   1.200   1.519   0.068
  158SOL    HW2  493   1.135   1.612  -0.049
  159SOL     OW  494   0.822   1.002   1.372
  159SOL    HW1  495   0.862   1.001   1.280
  159SOL    HW2  496   0.832   1.094   1.412
  160SOL     OW  497   0.916   0.910   0.291
  160SOL    HW1  498   0.979   0.948   0.223
  160SOL    HW2  499   0.956   0.827   0.330
  161SOL     OW  500   1.504   1.607   0.044
  161SOL    HW1  501   1.412   1.644   0.051
  161SOL    HW2  502   1.542   1.627  -0.046
  162SOL     OW  503   0.372   1.288   1.490
  162SOL    HW1  504   0.359   1.381   1.456
  162SOL    HW2  505   0.288   1.236   1.477
  163SOL     OW  506   1.039   1.098   0.696
  163SOL    HW1  507   0.969   1.051   0.750
  163SOL    HW2  508   1.098   1.030   0.653
  164SOL     OW  509   1.014   0.236   0.971
  164SOL    HW1  510   1.006   0.200   0.878
  164SOL    HW2  511   1.012   0.160   1.036
  165SOL     OW  512   0.590   1.487   0.491
  165SOL    HW1  513   0.632   1.429   0.421
  165SOL    HW2  514   0.546   1.566   0.447
  166SOL     OW  515   1.709   0.385   1.381
  166SOL    HW1  516   1.782   0.454   1.385
  166SOL    HW2  517   1.737   0.310   1.322
  167SOL     OW  518   0.255   1.348   0.290
  167SOL    HW1  519   0.159   1.349   0.263
  167SOL    HW2  520   0.267   1.401   0.374
  168SOL     OW  521   0.105   1.013   1.726
  168SOL    HW1  522   0.028   0.980   1.780
  168SOL    HW2  523   0.190   0.983   1.768
  169SOL     OW  524   0.672   0.203   1.489
  169SOL    HW1  525   0.762   0.187   1.449
  169SOL    HW2  526   0.680   0.208   1.588
  170SOL     OW  527   0.075   0.345   0.033
  170SOL    HW1  528  -0.017   0.317   0.004
  170SOL    HW2  529   0.106   0.422  -0.023
  171SOL     OW  530   1.440   0.856   1.398
  171SOL    HW1  531   1.383   0.908   1.335
  171SOL    HW2  532   1.536   0.868   1.374
  172SOL     OW  533   0.072   0.166   0.318
  172SOL    HW1  534   0.055   0.249   0.264
  172SOL    HW2  535   0.162   0.129   0.296
  173SOL     OW  536   1.183   1.335   0.119
  173SOL    HW1  537   1.084   1.324   0.121
  173SOL    HW2  538   1.217   1.350   0.212
  174SOL     OW  539   0.613   0.842   1.431
  174SOL    HW1  540   0.669   0.923   1.414
  174SOL    HW2  541   0.672   0.762   1.434
  175SOL     OW  542   1.493   1.767   0.959
  175SOL    HW1  543   1.526   1.831   0.890
  175SOL    HW2  544   1.559   1.761   1.034
  176SOL     OW  545   0.716   0.565   1.708
  176SOL    HW1  546   0.735   0.630   1.782
  176SOL    HW2  547   0.776   0.485   1.717
  177SOL     OW  548   0.390   1.741   1.560
  177SOL    HW1  549   0.299   1.782   1.558
  177SOL    HW2  550   0.383   1.647   1.592
  178SOL     OW  551   1.674   0.883   1.254
  178SOL    HW1  552   1.647   0.794   1.217
  178SOL    HW2  553   1.675   0.951   1.181
  179SOL     OW  554   1.225   0.325   0.449
  179SOL    HW1  555   1.290   0.251   0.438
  179SOL    HW2  556   1.245   0.375   0.533
  180SOL     OW  557   0.594   0.745   0.652
  180SOL    HW1  558   0.644   0.830   0.633
  180SOL    HW2  559   0.506   0.747   0.604
  181SOL     OW  560   1.777   0.342   1.642
  181SOL    HW1  561   1.760   0.373   1.548
  181SOL    HW2  562   1.693   0.305   1.680
  182SOL     OW  563   1.730   0.934   1.517
  182SOL    HW1  564   1.768   1.025   1.532
  182SOL    HW2  565   1.722   0.917   1.418
  183SOL     OW  566   0.859   1.374   0.016
  183SOL    HW1  567   0.813   1.389   0.104
  183SOL    HW2  568   0.903   1.459  -0.014
  184SOL     OW  569   0.661   1.790   0.953
  184SOL    HW1  570   0.615   1.878   0.940
  184SOL    HW2  571   0.760   1.802   0.946
  185SOL     OW  572   0.859   0.956   0.861
  185SOL    HW1  573   0.913   0.887   0.909
  185SOL    HW2  574   0.827   1.025   0.927
  186SOL     OW  575   1.083   0.984   0.087
  186SOL    HW1  576   1.060   1.037   0.005
  186SOL    HW2  577   1.164   0.928   0.068
  187SOL     OW  578   1.861   1.569   0.851
  187SOL    HW1  579   1.790   1.557   0.781
  187SOL    HW2  580   1.862   1.490   0.911
  188SOL     OW  581   0.221   1.314   1.844
  188SOL    HW1  582   0.156   1.241   1.823
  188SOL    HW2  583   0.225   1.328   1.942
  189SOL     OW  584   0.079   1.240   0.653
  189SOL    HW1  585   0.078   1.193   0.741
  189SOL    HW2  586   0.161   1.212   0.602
  190SOL     OW  587   0.672   1.391   1.624
  190SOL    HW1  588   0.594   1.341   1.662
  190SOL    HW2  589   0.669   1.486   1.655
  191SOL     OW  590   1.824   0.192   1.227
  191SOL    HW1  591   1.820   0.102   1.271
  191SOL    HW2  592   1.827   0.181   1.128
  192SOL     OW  593   0.428   0.424   0.520
  192SOL    HW1  594   0.458   0.352   0.458
  192SOL    HW2  595   0.389   0.384   0.603
  193SOL     OW  596   0.317   0.547   1.280
  193SOL    HW1  597   0.355   0.488   1.352
  193SOL    HW2  598   0.357   0.521   1.192
  194SOL     OW  599   0.812   1.586   0.687
  194SOL    HW1  600   0.844   1.596   0.593
  194SOL    HW2  601   0.733   1.524   0.689
  195SOL     OW  602   1.424   0.214   1.112
  195SOL    HW1  603   1.476   0.149   1.167
  195SOL    HW2  604   1.375   0.277   1.173
  196SOL     OW  605   1.001   0.034   1.154
  196SOL    HW1  606   0.938  -0.038   1.123
  196SOL    HW2  607   1.094  -0.002   1.154
  197SOL     OW  608   0.770   1.330   0.301
  197SOL    HW1  609   0.724   1.243   0.318
  197SOL    HW2  610   0.861   1.327   0.342
  198SOL     OW  611   0.618   1.567   1.284
  198SOL    HW1  612   0.613   1.649   1.341
  198SOL    HW2  613   0.707   1.564   1.239
  199SOL     OW  614   1.352   0.052   0.168
  199SOL    HW1  615   1.387   0.011   0.084
  199SOL    HW2  616   1.262   0.014   0.188
  200SOL     OW  617   1.300   0.453   0.691
  200SOL    HW1  618   1.241   0.533   0.695
  200SOL    HW2  619   1.315   0.418   0.784
  201SOL     OW  620   1.593   0.221   0.882
  201SOL    HW1  621   1.509   0.220   0.936
  201SOL    HW2  622   1.595   0.304   0.826
  202SOL     OW  623   0.039   1.077   0.300
  202SOL    HW1  624   0.138   1.066   0.291
  202SOL    HW2  625  -0.001   0.991   0.332
  203SOL     OW  626   0.875   1.646   0.337
  203SOL    HW1  627   0.798   1.611   0.283
  203SOL    HW2  628   0.843   1.717   0.399
  204SOL     OW  629   0.230   0.628   1.975
  204SOL    HW1  630   0.137   0.626   2.012
  204SOL    HW2  631   0.231   0.589   1.883
  205SOL     OW  632   0.019   0.368   2.509
  205SOL    HW1  633  -0.063   0.411   2.548
  205SOL    HW2  634  -0.009   0.295   2.446
  206SOL     OW  635   1.555   1.511   2.565
  206SOL    HW1  636   1.498   1.495   2.646
  206SOL    HW2  637   1.496   1.521   2.485
  207SOL     OW  638   1.135   0.703   2.579
  207SOL    HW1  639   1.192   0.781   2.554
  207SOL    HW2  640   1.075   0.729   2.655
  208SOL     OW  641   1.755   0.607   2.093
  208SOL    HW1  642   1.743   0.594   1.994
  208SOL    HW2  643   1.725   0.526   2.142
  209SOL     OW  644   0.768   1.144   2.885
  209SOL    HW1  645   0.690   1.161   2.945
  209SOL    HW2  646   0.802   1.231   2.849
  210SOL     OW  647   0.685   1.012   2.527
  210SOL    HW1  648   0.754   0.996   2.597
  210SOL    HW2  649   0.612   1.069   2.565
  211SOL     OW  650   1.603   0.447   2.599
  211SOL    HW1  651   1.529   0.493   2.549
  211SOL    HW2  652   1.654   0.515   2.652
  212SOL     OW  653   0.231   1.713   2.345
  212SOL    HW1  654   0.265   1.790   2.399
  212SOL    HW2  655   0.275   1.713   2.255
  213SOL     OW  656   0.230   1.434   2.400
  213SOL    HW1  657   0.204   1.530   2.400
  213SOL    HW2  658   0.159   1.380   2.445
  214SOL     OW  659   0.240   1.091   2.748
  214SOL    HW1  660   0.254   1.007   2.800
  214SOL    HW2  661   0.185   1.155   2.803
  215SOL     OW  662   0.606   0.964   1.985
  215SOL    HW1  663   0.613   1.048   1.931
  215SOL    HW2  664   0.652   0.977   2.073
  216SOL     OW  665   0.122   0.643   2.425
  216SOL    HW1  666   0.077   0.555   2.442
  216SOL    HW2  667   0.121   0.697   2.509
  217SOL     OW  668   1.842   1.767   2.221
  217SOL    HW1  669   1.896   1.738   2.301
  217SOL    HW2  670   1.872   1.857   2.192
  218SOL     OW  671   0.027   1.596   1.979
  218SOL    HW1  672   0.008   1.500   2.000
  218SOL    HW2  673  -0.006   1.654   2.054
  219SOL     OW  674   1.689   0.922   2.474
  219SOL    HW1  675   1.784   0.893   2.482
  219SOL    HW2  676   1.681   0.987   2.399
  220SOL     OW  677   1.641   1.108   2.294
  220SOL    HW1  678   1.727   1.110   2.242
  220SOL    HW2  679   1.655   1.155   2.382
  221SOL     OW  680   0.613   1.365   2.588
  221SOL    HW1  681   0.564   1.278   2.597
  221SOL    HW2  682   0.590   1.408   2.501
  222SOL     OW  683   0.809   0.004   2.364
  222SOL    HW1  684   0.849   0.095   2.355
  222SOL    HW2  685   0.709   0.012   2.370
  223SOL     OW  686   1.525   0.999   2.052
  223SOL    HW1  687   1.462   0.923   2.065
  223SOL    HW2  688   1.573   1.017   2.138
  224SOL     OW  689   1.667   1.714   2.434
  224SOL    HW1  690   1.626   1.691   2.346
  224SOL    HW2  691   1.649   1.640   2.499
  225SOL     OW  692   0.598   0.729   2.132
  225SOL    HW1  693   0.622   0.798   2.064
  225SOL    HW2  694   0.520   0.762   2.186
  226SOL     OW  695   1.281   0.345   2.806
  226SOL    HW1  696   1.195   0.295   2.793
  226SOL    HW2  697   1.343   0.291   2.862
  227SOL     OW  698   1.576   1.662   2.169
  227SOL    HW1  699   1.665   1.708   2.172
  227SOL    HW2  700   1.555   1.638   2.074
  228SOL     OW  701   1.041   0.701   2.291
  228SOL    HW1  702   1.067   0.697   2.387
  228SOL    HW2  703   0.956   0.650   2.277
  229SOL     OW  704   0.076   0.811   2.651
  229SOL    HW1  705   0.175   0.799   2.660
  229SOL    HW2  706   0.052   0.906   2.672
  230SOL     OW  707   0.865   0.348   2.057
  230SOL    HW1  708   0.924   0.411   2.008
  230SOL    HW2  709   0.884   0.254   2.028
  231SOL     OW  710   1.362   1.144   2.407
  231SOL    HW1  711   1.445   1.115   2.359
  231SOL    HW2  712   1.313   1.211   2.351
  232SOL     OW  713   1.008   1.456   2.339
  232SOL    HW1  714   0.962   1.528   2.287
  232SOL    HW2  715   1.004   1.476   2.437
  233SOL     OW  716   0.351   1.801   2.715
  233SOL    HW1  717   0.401   1.715   2.721
  233SOL    HW2  718   0.416   1.878   2.712
  234SOL     OW  719   1.795   1.066   2.735
  234SOL    HW1  720   1.733   1.051   2.659
  234SOL    HW2  721   1.743   1.077   2.820
  235SOL     OW  722   0.321   0.943   2.104
  235SOL    HW1  723   0.403   0.982   2.062
  235SOL    HW2  724   0.294   0.861   2.055
  236SOL     OW  725   1.458   0.735   2.590
  236SOL    HW1  726   1.453   0.670   2.665
  236SOL    HW2  727   1.538   0.794   2.603
  237SOL     OW  728   1.111   1.776   2.099
  237SOL    HW1  729   1.051   1.714   2.149
  237SOL    HW2  730   1.142   1.732   2.014
  238SOL     OW  731   1.632   1.377   1.943
  238SOL    HW1  732   1.600   1.471   1.933
  238SOL    HW2  733   1.556   1.314   1.931
  239SOL     OW  734   0.464   1.743   2.185
  239SOL    HW1  735   0.497   1.782   2.271
  239SOL    HW2  736   0.540   1.736   2.120
  240SOL     OW  737   1.400   0.107   2.288
  240SOL    HW1  738   1.376   0.070   2.198
  240SOL    HW2  739   1.499   0.123   2.292
  241SOL     OW  740   0.382   0.700   2.342
  241SOL    HW1  741   0.427   0.610   2.339
  241SOL    HW2  742   0.288   0.689   2.375
  242SOL     OW  743   0.614   0.122   1.979
  242SOL    HW1  744   0.712   0.100   1.986
  242SOL    HW2  745   0.583   0.105   1.886
  243SOL     OW  746   0.539   0.064   2.374
  243SOL    HW1  747   0.458   0.065   2.432
  243SOL    HW2  748   0.542   0.147   2.319
  244SOL     OW  749   1.434   1.188   1.903
  244SOL    HW1  750   1.466   1.112   1.960
  244SOL    HW2  751   1.342   1.215   1.933
  245SOL     OW  752   0.297   0.035   2.033
  245SOL    HW1  753   0.346   0.119   2.012
  245SOL    HW2  754   0.359  -0.030   2.078
  246SOL     OW  755   0.935   0.236   2.342
  246SOL    HW1  756   0.887   0.277   2.264
  246SOL    HW2  757   1.034   0.234   2.323
  247SOL     OW  758   0.459   1.152   2.603
  247SOL    HW1  759   0.388   1.125   2.668
  247SOL    HW2  760   0.433   1.124   2.510
  248SOL     OW  761   1.271   1.797   2.453
  248SOL    HW1  762   1.315   1.861   2.389
  248SOL    HW2  763   1.221   1.849   2.523
  249SOL     OW  764   1.032   0.549   1.878
  249SOL    HW1  765   0.991   0.631   1.839
  249SOL    HW2  766   1.096   0.575   1.951
  250SOL     OW  767   0.866   0.454   2.504
  250SOL    HW1  768   0.834   0.526   2.442
  250SOL    HW2  769   0.890   0.373   2.451
  251SOL     OW  770   1.017   0.039   2.615
  251SOL    HW1  771   0.945   0.044   2.546
  251SOL    HW2  772   0.993  -0.030   2.684
  252SOL     OW  773   1.857   0.833   2.239
  252SOL    HW1  774   1.899   0.769   2.303
  252SOL    HW2  775   1.819   0.782   2.161
  253SOL     OW  776   0.488   1.385   2.036
  253SOL    HW1  777   0.401   1.370   2.083
  253SOL    HW2  778   0.471   1.411   1.941
  254SOL     OW  779   1.664   1.280   2.519
  254SOL    HW1  780   1.763   1.288   2.533
  254SOL    HW2  781   1.619   1.364   2.550
  255SOL     OW  782   1.390   0.575   1.940
  255SOL    HW1  783   1.336   0.554   2.021
  255SOL    HW2  784   1.481   0.534   1.949
  256SOL     OW  785   0.527   0.256   2.190
  256SOL    HW1  786   0.554   0.197   2.115
  256SOL    HW2  787   0.527   0.351   2.159
  257SOL     OW  788   0.705   1.050   2.230
  257SOL    HW1  789   0.691   1.057   2.329
  257SOL    HW2  790   0.789   0.999   2.212
  258SOL     OW  791   0.367   1.100   2.363
  258SOL    HW1  792   0.360   1.183   2.307
  258SOL    HW2  793   0.371   1.020   2.303
  259SOL     OW  794   0.566   0.537   2.727
  259SOL    HW1  795   0.578   0.603   2.653
  259SOL    HW2  796   0.612   0.571   2.810
  260SOL     OW  797   1.252   1.348   2.250
  260SOL    HW1  798   1.302   1.425   2.290
  260SOL    HW2  799   1.157   1.350   2.282
  261SOL     OW  800   1.582   0.639   2.334
  261SOL    HW1  801   1.551   0.700   2.407
  261SOL    HW2  802   1.632   0.691   2.265
  262SOL     OW  803   1.209   0.525   2.137
  262SOL    HW1  804   1.222   0.441   2.191
  262SOL    HW2  805   1.180   0.599   2.197
  263SOL     OW  806   0.732   0.634   2.926
  263SOL    HW1  807   0.791   0.608   2.850
  263SOL    HW2  808   0.704   0.730   2.915
  264SOL     OW  809   0.307   0.063   2.480
  264SOL    HW1  810   0.296   0.157   2.513
  264SOL    HW2  811   0.302   0.000   2.557
  265SOL     OW  812   1.622   0.367   2.236
  265SOL    HW1  813   1.624   0.291   2.300
  265SOL    HW2  814   1.574   0.444   2.276
  266SOL     OW  815   1.540   0.274   1.987
  266SOL    HW1  816   1.479   0.199   2.010
  266SOL    HW2  817   1.562   0.326   2.070
  267SOL     OW  818   1.303   0.838   1.904
  267SOL    HW1  819   1.337   0.745   1.919
  267SOL    HW2  820   1.321   0.865   1.809
  268SOL     OW  821   1.068   1.333   2.711
  268SOL    HW1  822   1.075   1.249   2.656
  268SOL    HW2  823   1.130   1.402   2.675
  269SOL     OW  824   0.008   1.326   2.062
  269SOL    HW1  825  -0.085   1.347   2.031
  269SOL    HW2  826   0.018   1.227   2.075
  270SOL     OW  827   0.088   1.801   2.789
  270SOL    HW1  828   0.046   1.715   2.762
  270SOL    HW2  829   0.182   1.804   2.755
  271SOL     OW  830   0.504   1.568   2.772
  271SOL    HW1  831   0.570   1.642   2.781
  271SOL    HW2  832   0.548   1.489   2.730
  272SOL     OW  833   0.815   0.572   2.187
  272SOL    HW1  834   0.822   0.483   2.141
  272SOL    HW2  835   0.721   0.606   2.179
  273SOL     OW  836   0.473   0.500   2.053
  273SOL    HW1  837   0.534   0.580   2.057
  273SOL    HW2  838   0.378   0.531   2.060
  274SOL     OW  839   1.302   0.855   2.171
  274SOL    HW1  840   1.216   0.824   2.213
  274SOL    HW2  841   1.298   0.841   2.072
  275SOL     OW  842   1.726   0.135   2.385
  275SOL    HW1  843   1.799   0.118   2.318
  275SOL    HW2  844   1.695   0.048   2.423
  276SOL     OW  845   1.388   1.573   2.339
  276SOL    HW1  846   1.455   1.585   2.265
  276SOL    HW2  847   1.348   1.662   2.362
  277SOL     OW  848   1.280   0.927   2.534
  277SOL    HW1  849   1.340   0.846   2.536
  277SOL    HW2  850   1.320   0.996   2.474
  278SOL     OW  851   0.672   1.616   2.016
  278SOL    HW1  852   0.681   1.626   1.917
  278SOL    HW2  853   0.632   1.527   2.037
  279SOL     OW  854   1.841   0.175   2.825
  279SOL    HW1  855   1.880   0.090   2.789
  279SOL    HW2  856   1.743   0.177   2.806
  280SOL     OW  857   0.263   0.326   2.582
  280SOL    HW1  858   0.184   0.377   2.548
  280SOL    HW2  859   0.254   0.311   2.680
  281SOL     OW  860   1.194   1.612   1.893
  281SOL    HW1  861   1.200   1.519   1.930
  281SOL    HW2  862   1.135   1.612   1.813
  282SOL     OW  863   0.916   0.910   2.153
  282SOL    HW1  864   0.979   0.948   2.085
  282SOL    HW2  865   0.956   0.827   2.192
  283SOL     OW  866   1.504   1.607   1.906
  283SOL    HW1  867   1.412   1.644   1.913
  283SOL    HW2  868   1.542   1.627   1.816
  284SOL     OW  869   1.039   1.098   2.558
  284SOL    HW1  870   0.969   1.051   2.612
  284SOL    HW2  871   1.098   1.030   2.515
  285SOL     OW  872   0.590   1.487   2.353
  285SOL    HW1  873   0.632   1.429   2.283
  285SOL    HW2  874   0.546   1.566   2.309
  286SOL     OW  875   0.255   1.348   2.152
  286SOL    HW1  876   0.159   1.349   2.125
  286SOL    HW2  877   0.267   1.401   2.236
  287SOL     OW  878   0.075   0.345   1.895
  287SOL    HW1  879  -0.017   0.317   1.866
  287SOL    HW2  880   0.106   0.422   1.839
  288SOL     OW  881   0.072   0.166   2.180
  288SOL    HW1  882   0.055   0.249   2.126
  288SOL    HW2  883   0.162   0.129   2.158
  289SOL     OW  884   1.183   1.335   1.981
  289SOL    HW1  885   1.084   1.324   1.983
  289SOL    HW2  886   1.217   1.350   2.074
  290SOL     OW  887   1.225   0.325   2.311
  290SOL    HW1  888   1.290   0.251   2.300
  290SOL    HW2  889   1.245   0.375   2.395
  291SOL     OW  890   0.594   0.745   2.514
  291SOL    HW1  891   0.644   0.830   2.495
  291SOL    HW2  892   0.506   0.747   2.466
  292SOL     OW  893   0.859   1.374   1.878
  292SOL    HW1  894   0.813   1.389   1.966
  292SOL    HW2  895   0.903   1.459   1.848
  293SOL     OW  896   0.661   1.790   2.815
  293SOL    HW1  897   0.615   1.878   2.802
  293SOL    HW2  898   0.760   1.802   2.808
  294SOL     OW  899   0.859   0.956   2.723
  294SOL    HW1  900   0.913   0.887   2.771
  294SOL    HW2  901   0.827   1.025   2.789
  295SOL     OW  902   1.083   0.984   1.949
  295SOL    HW1  903   1.060   1.037   1.867
  295SOL    HW2  904   1.164   0.928   1.930
  296SOL     OW  905   1.861   1.569   2.713
  296SOL    HW1  906   1.790   1.557   2.643
  296SOL    HW2  907   1.862   1.490   2.773
  297SOL     OW  908   0.079   1.240   2.515
  297SOL    HW1  909   0.078   1.193   2.603
  297SOL    HW2  910   0.161   1.212   2.464
  298SOL     OW  911   0.428   0.424   2.382
  298SOL    HW1  912   0.458   0.352   2.320
  298SOL    HW2  913   0.389   0.384   2.465
  299SOL     OW  914   0.812   1.586   2.549
  299SOL    HW1  915   0.844   1.596   2.455
  299SOL    HW2  916   0.733   1.524   2.551
  300SOL     OW  917   0.770   1.330   2.163
  300SOL    HW1  918   0.724   1.243   2.180
  300SOL    HW2  919   0.861   1.327   2.204
  301SOL     OW  920   1.352   0.052   2.030
  301SOL    HW1  921   1.387   0.011   1.946
  301SOL    HW2  922   1.262   0.014   2.050
  302SOL     OW  923   1.300   0.453   2.553
  302SOL    HW1  924   1.241   0.533   2.557
  302SOL    HW2  925   1.315   0.418   2.646
  303SOL     OW  926   0.039   1.077   2.162
  303SOL    HW1  927   0.138   1.066   2.153
  303SOL    HW2  928  -0.001   0.991   2.194
  304SOL     OW  929   0.875   1.646   2.199
  304SOL    HW1  930   0.798   1.611   2.145
  304SOL    HW2  931   0.843   1.717   2.261
  305SOL     OW  932   0.230   2.490   0.113
  305SOL    HW1  933   0.137   2.488   0.150
  305SOL    HW2  934   0.231   2.451   0.021
  306SOL     OW  935   0.225   2.137   0.996
  306SOL    HW1  936   0.260   2.120   1.088
  306SOL    HW2  937   0.137   2.092   0.984
  307SOL     OW  938   0.019   2.230   0.647
  307SOL    HW1  939  -0.063   2.273   0.686
  307SOL    HW2  940  -0.009   2.157   0.584
  308SOL     OW  941   1.135   2.565   0.717
  308SOL    HW1  942   1.192   2.643   0.692
  308SOL    HW2  943   1.075   2.591   0.793
  309SOL     OW  944   1.755   2.469   0.231
  309SOL    HW1  945   1.743   2.456   0.132
  309SOL    HW2  946   1.725   2.388   0.280
  310SOL     OW  947   0.850   2.660   1.823
  310SOL    HW1  948   0.846   2.736   1.888
  310SOL    HW2  949   0.872   2.696   1.732
  311SOL     OW  950   0.685   2.874   0.665
  311SOL    HW1  951   0.754   2.858   0.735
  311SOL    HW2  952   0.612   2.931   0.703
  312SOL     OW  953   0.438   2.254   1.499
  312SOL    HW1  954   0.520   2.198   1.508
  312SOL    HW2  955   0.357   2.196   1.503
  313SOL     OW  956   1.603   2.309   0.737
  313SOL    HW1  957   1.529   2.355   0.687
  313SOL    HW2  958   1.654   2.377   0.790
  314SOL     OW  959   1.594   1.976   1.480
  314SOL    HW1  960   1.576   2.043   1.408
  314SOL    HW2  961   1.591   2.022   1.569
  315SOL     OW  962   0.122   2.505   0.563
  315SOL    HW1  963   0.077   2.417   0.580
  315SOL    HW2  964   0.121   2.559   0.647
  316SOL     OW  965   0.113   2.599   1.597
  316SOL    HW1  966   0.201   2.586   1.642
  316SOL    HW2  967   0.100   2.696   1.575
  317SOL     OW  968   0.809   1.866   0.502
  317SOL    HW1  969   0.849   1.957   0.493
  317SOL    HW2  970   0.709   1.874   0.508
  318SOL     OW  971   0.317   2.113   1.801
  318SOL    HW1  972   0.388   2.184   1.807
  318SOL    HW2  973   0.229   2.152   1.829
  319SOL     OW  974   0.598   2.591   0.270
  319SOL    HW1  975   0.622   2.660   0.202
  319SOL    HW2  976   0.520   2.624   0.324
  320SOL     OW  977   1.281   2.207   0.944
  320SOL    HW1  978   1.195   2.157   0.931
  320SOL    HW2  979   1.343   2.153   1.000
  321SOL     OW  980   0.807   2.467   1.465
  321SOL    HW1  981   0.760   2.464   1.554
  321SOL    HW2  982   0.756   2.412   1.399
  322SOL     OW  983   1.394   2.331   1.674
  322SOL    HW1  984   1.374   2.374   1.762
  322SOL    HW2  985   1.472   2.269   1.683
  323SOL     OW  986   0.991   2.272   1.242
  323SOL    HW1  987   0.914   2.306   1.296
  323SOL    HW2  988   0.957   2.221   1.163
  324SOL     OW  989   1.041   2.563   0.429
  324SOL    HW1  990   1.067   2.559   0.525
  324SOL    HW2  991   0.956   2.512   0.415
  325SOL     OW  992   0.076   2.673   0.789
  325SOL    HW1  993   0.175   2.661   0.798
  325SOL    HW2  994   0.052   2.768   0.810
  326SOL     OW  995   0.865   2.210   0.195
  326SOL    HW1  996   0.924   2.273   0.146
  326SOL    HW2  997   0.884   2.116   0.166
  327SOL     OW  998   1.719   2.447   1.831
  327SOL    HW1  999   1.693   2.536   1.795
  327SOL    HW2 1000   1.717   2.379   1.758
  328SOL     OW 1001   0.550   2.058   0.885
  328SOL    HW1 1002   0.545   2.053   0.985
  328SOL    HW2 1003   0.552   2.154   0.856
  329SOL     OW 1004   1.458   2.597   0.728
  329SOL    HW1 1005   1.453   2.532   0.803
  329SOL    HW2 1006   1.538   2.656   0.741
  330SOL     OW 1007   0.202   2.147   1.498
  330SOL    HW1 1008   0.122   2.207   1.485
  330SOL    HW2 1009   0.192   2.098   1.584
  331SOL     OW 1010   1.400   1.969   0.426
  331SOL    HW1 1011   1.376   1.932   0.336
  331SOL    HW2 1012   1.499   1.985   0.430
  332SOL     OW 1013   0.382   2.562   0.480
  332SOL    HW1 1014   0.427   2.472   0.477
  332SOL    HW2 1015   0.288   2.551   0.513
  333SOL     OW 1016   1.547   2.084   1.729
  333SOL    HW1 1017   1.542   2.121   1.821
  333SOL    HW2 1018   1.475   2.015   1.717
  334SOL     OW 1019   0.781   2.126   1.749
  334SOL    HW1 1020   0.848   2.065   1.792
  334SOL    HW2 1021   0.708   2.145   1.814
  335SOL     OW 1022   1.351   2.452   1.433
  335SOL    HW1 1023   1.379   2.409   1.518
  335SOL    HW2 1024   1.376   2.548   1.434
  336SOL     OW 1025   0.922   2.365   0.899
  336SOL    HW1 1026   0.897   2.356   0.803
  336SOL    HW2 1027   0.970   2.283   0.930
  337SOL     OW 1028   0.539   1.926   0.512
  337SOL    HW1 1029   0.458   1.927   0.570
  337SOL    HW2 1030   0.542   2.009   0.457
  338SOL     OW 1031   0.297   1.897   0.171
  338SOL    HW1 1032   0.346   1.981   0.150
  338SOL    HW2 1033   0.359   1.832   0.216
  339SOL     OW 1034   0.935   2.098   0.480
  339SOL    HW1 1035   0.887   2.139   0.402
  339SOL    HW2 1036   1.034   2.096   0.461
  340SOL     OW 1037   1.076   2.545   1.464
  340SOL    HW1 1038   0.996   2.484   1.467
  340SOL    HW2 1039   1.157   2.492   1.440
  341SOL     OW 1040   1.032   2.411   0.016
  341SOL    HW1 1041   0.991   2.493  -0.023
  341SOL    HW2 1042   1.096   2.437   0.089
  342SOL     OW 1043   0.078   2.418   1.386
  342SOL    HW1 1044   0.170   2.417   1.345
  342SOL    HW2 1045   0.072   2.492   1.453
  343SOL     OW 1046   0.561   2.084   1.147
  343SOL    HW1 1047   0.599   2.000   1.184
  343SOL    HW2 1048   0.473   2.103   1.191
  344SOL     OW 1049   0.866   2.316   0.642
  344SOL    HW1 1050   0.834   2.388   0.580
  344SOL    HW2 1051   0.890   2.235   0.589
  345SOL     OW 1052   1.017   1.901   0.753
  345SOL    HW1 1053   0.945   1.906   0.684
  345SOL    HW2 1054   0.993   1.832   0.822
  346SOL     OW 1055   1.466   2.452   0.992
  346SOL    HW1 1056   1.436   2.357   0.999
  346SOL    HW2 1057   1.539   2.468   1.058
  347SOL     OW 1058   1.857   2.695   0.377
  347SOL    HW1 1059   1.899   2.631   0.441
  347SOL    HW2 1060   1.819   2.644   0.299
  348SOL     OW 1061   1.390   2.437   0.078
  348SOL    HW1 1062   1.336   2.416   0.159
  348SOL    HW2 1063   1.481   2.396   0.087
  349SOL     OW 1064   0.527   2.118   0.328
  349SOL    HW1 1065   0.554   2.059   0.253
  349SOL    HW2 1066   0.527   2.213   0.297
  350SOL     OW 1067   0.915   1.951   1.402
  350SOL    HW1 1068   0.940   1.931   1.307
  350SOL    HW2 1069   0.987   2.007   1.444
  351SOL     OW 1070   0.410   2.675   1.251
  351SOL    HW1 1071   0.496   2.687   1.301
  351SOL    HW2 1072   0.368   2.588   1.278
  352SOL     OW 1073   1.274   2.248   1.262
  352SOL    HW1 1074   1.295   2.322   1.326
  352SOL    HW2 1075   1.185   2.265   1.219
  353SOL     OW 1076   0.566   2.399   0.865
  353SOL    HW1 1077   0.578   2.465   0.791
  353SOL    HW2 1078   0.612   2.433   0.948
  354SOL     OW 1079   1.582   2.501   0.472
  354SOL    HW1 1080   1.551   2.562   0.545
  354SOL    HW2 1081   1.632   2.553   0.403
  355SOL     OW 1082   0.402   2.613   1.598
  355SOL    HW1 1083   0.470   2.668   1.551
  355SOL    HW2 1084   0.442   2.525   1.625
  356SOL     OW 1085   1.587   2.641   1.670
  356SOL    HW1 1086   1.495   2.679   1.665
  356SOL    HW2 1087   1.647   2.688   1.605
  357SOL     OW 1088   1.013   1.967   1.770
  357SOL    HW1 1089   1.019   2.052   1.718
  357SOL    HW2 1090   1.045   1.891   1.713
  358SOL     OW 1091   0.504   1.912   1.740
  358SOL    HW1 1092   0.462   1.855   1.670
  358SOL    HW2 1093   0.438   1.981   1.772
  359SOL     OW 1094   0.573   2.732   1.029
  359SOL    HW1 1095   0.617   2.821   1.020
  359SOL    HW2 1096   0.510   2.732   1.106
  360SOL     OW 1097   1.360   2.724   1.045
  360SOL    HW1 1098   1.285   2.724   0.979
  360SOL    HW2 1099   1.397   2.632   1.054
  361SOL     OW 1100   1.209   2.387   0.275
  361SOL    HW1 1101   1.222   2.303   0.329
  361SOL    HW2 1102   1.180   2.461   0.335
  362SOL     OW 1103   0.307   2.075   1.231
  362SOL    HW1 1104   0.284   2.112   1.321
  362SOL    HW2 1105   0.277   1.980   1.225
  363SOL     OW 1106   0.732   2.496   1.064
  363SOL    HW1 1107   0.791   2.470   0.988
  363SOL    HW2 1108   0.704   2.592   1.053
  364SOL     OW 1109   1.728   2.797   1.854
  364SOL    HW1 1110   1.682   2.790   1.765
  364SOL    HW2 1111   1.666   2.841   1.920
  365SOL     OW 1112   0.307   1.925   0.618
  365SOL    HW1 1113   0.296   2.019   0.651
  365SOL    HW2 1114   0.302   1.862   0.695
  366SOL     OW 1115   1.622   2.229   0.374
  366SOL    HW1 1116   1.624   2.153   0.438
  366SOL    HW2 1117   1.574   2.306   0.414
  367SOL     OW 1118   1.023   2.628   0.966
  367SOL    HW1 1119   1.038   2.649   1.062
  367SOL    HW2 1120   0.993   2.533   0.957
  368SOL     OW 1121   1.540   2.136   0.125
  368SOL    HW1 1122   1.479   2.061   0.148
  368SOL    HW2 1123   1.562   2.188   0.208
  369SOL     OW 1124   0.319   2.672   0.949
  369SOL    HW1 1125   0.412   2.708   0.954
  369SOL    HW2 1126   0.313   2.587   1.001
  370SOL     OW 1127   0.339   2.371   1.006
  370SOL    HW1 1128   0.287   2.288   0.989
  370SOL    HW2 1129   0.416   2.376   0.942
  371SOL     OW 1130   1.138   2.242   1.678
  371SOL    HW1 1131   1.093   2.305   1.742
  371SOL    HW2 1132   1.231   2.273   1.661
  372SOL     OW 1133   1.160   2.069   1.477
  372SOL    HW1 1134   1.160   2.133   1.554
  372SOL    HW2 1135   1.188   2.117   1.394
  373SOL     OW 1136   1.002   2.658   1.238
  373SOL    HW1 1137   1.043   2.626   1.324
  373SOL    HW2 1138   0.906   2.631   1.235
  374SOL     OW 1139   0.040   2.406   1.114
  374SOL    HW1 1140   0.125   2.373   1.073
  374SOL    HW2 1141   0.053   2.421   1.212
  375SOL     OW 1142   0.189   2.382   1.722
  375SOL    HW1 1143   0.248   2.342   1.652
  375SOL    HW2 1144   0.131   2.453   1.681
  376SOL     OW 1145   0.815   2.434   0.325
  376SOL    HW1 1146   0.822   2.345   0.279
  376SOL    HW2 1147   0.721   2.468   0.317
  377SOL     OW 1148   1.657   2.466   1.206
  377SOL    HW1 1149   1.619   2.397   1.268
  377SOL    HW2 1150   1.739   2.430   1.162
  378SOL     OW 1151   0.671   2.326   1.269
  378SOL    HW1 1152   0.637   2.237   1.239
  378SOL    HW2 1153   0.697   2.380   1.189
  379SOL     OW 1154   0.473   2.362   0.191
  379SOL    HW1 1155   0.534   2.442   0.195
  379SOL    HW2 1156   0.378   2.393   0.198
  380SOL     OW 1157   0.903   1.948   0.133
  380SOL    HW1 1158   0.954   1.949   0.047
  380SOL    HW2 1159   0.959   1.906   0.204
  381SOL     OW 1160   1.726   1.997   0.523
  381SOL    HW1 1161   1.799   1.980   0.456
  381SOL    HW2 1162   1.695   1.910   0.561
  382SOL     OW 1163   1.280   2.789   0.672
  382SOL    HW1 1164   1.340   2.708   0.674
  382SOL    HW2 1165   1.320   2.858   0.612
  383SOL     OW 1166   1.841   2.037   0.963
  383SOL    HW1 1167   1.880   1.952   0.927
  383SOL    HW2 1168   1.743   2.039   0.944
  384SOL     OW 1169   0.263   2.188   0.720
  384SOL    HW1 1170   0.184   2.239   0.686
  384SOL    HW2 1171   0.254   2.173   0.818
  385SOL     OW 1172   1.014   2.098   0.971
  385SOL    HW1 1173   1.006   2.062   0.878
  385SOL    HW2 1174   1.012   2.022   1.036
  386SOL     OW 1175   1.709   2.247   1.381
  386SOL    HW1 1176   1.782   2.316   1.385
  386SOL    HW2 1177   1.737   2.172   1.322
  387SOL     OW 1178   0.105   2.875   1.726
  387SOL    HW1 1179   0.028   2.842   1.780
  387SOL    HW2 1180   0.190   2.845   1.768
  388SOL     OW 1181   0.672   2.065   1.489
  388SOL    HW1 1182   0.762   2.049   1.449
  388SOL    HW2 1183   0.680   2.070   1.588
  389SOL     OW 1184   0.075   2.207   0.033
  389SOL    HW1 1185  -0.017   2.179   0.004
  389SOL    HW2 1186   0.106   2.284  -0.023
  390SOL     OW 1187   1.440   2.718   1.398
  390SOL    HW1 1188   1.383   2.770   1.335
  390SOL    HW2 1189   1.536   2.730   1.374
  391SOL     OW 1190   0.072   2.028   0.318
  391SOL    HW1 1191   0.055   2.111   0.264
  391SOL    HW2 1192   0.162   1.991   0.296
  392SOL     OW 1193   0.613   2.704   1.431
  392SOL    HW1 1194   0.669   2.785   1.414
  392SOL    HW2 1195   0.672   2.624   1.434
  393SOL     OW 1196   0.716   2.427   1.708
  393SOL    HW1 1197   0.735   2.492   1.782
  393SOL    HW2 1198   0.776   2.347   1.717
  394SOL     OW 1199   1.674   2.745   1.254
  394SOL    HW1 1200   1.647   2.656   1.217
  394SOL    HW2 1201   1.675   2.813   1.181
  395SOL     OW 1202   1.225   2.187   0.449
  395SOL    HW1 1203   1.290   2.113   0.438
  395SOL    HW2 1204   1.245   2.237   0.533
  396SOL     OW 1205   0.594   2.607   0.652
  396SOL    HW1 1206   0.644   2.692   0.633
  396SOL    HW2 1207   0.506   2.609   0.604
  397SOL     OW 1208   1.777   2.204   1.642
  397SOL    HW1 1209   1.760   2.235   1.548
  397SOL    HW2 1210   1.693   2.167   1.680
  398SOL     OW 1211   1.730   2.796   1.517
  398SOL    HW1 1212   1.768   2.887   1.532
  398SOL    HW2 1213   1.722   2.779   1.418
  399SOL     OW 1214   1.824   2.054   1.227
  399SOL    HW1 1215   1.820   1.964   1.271
  399SOL    HW2 1216   1.827   2.043   1.128
  400SOL     OW 1217   0.428   2.286   0.520
  400SOL    HW1 1218   0.458   2.214   0.458
  400SOL    HW2 1219   0.389   2.246   0.603
  401SOL     OW 1220   0.317   2.409   1.280
  401SOL    HW1 1221   0.355   2.350   1.352
  401SOL    HW2 1222   0.357   2.383   1.192
  402SOL     OW 1223   1.424   2.076   1.112
  402SOL    HW1 1224   1.476   2.011   1.167
  402SOL    HW2 1225   1.375   2.139   1.173
  403SOL     OW 1226   1.001   1.896   1.154
  403SOL    HW1 1227   0.938   1.824   1.123
  403SOL    HW2 1228   1.094   1.860   1.154
  404SOL     OW 1229   1.352   1.914   0.168
  404SOL    HW1 1230   1.387   1.873   0.084
  404SOL    HW2 1231   1.262   1.876   0.188
  405SOL     OW 1232   1.300   2.315   0.691
  405SOL    HW1 1233   1.241   2.395   0.695
  405SOL    HW2 1234   1.315   2.280   0.784
  406SOL     OW 1235   1.593   2.083   0.882
  406SOL    HW1 1236   1.509   2.082   0.936
  406SOL    HW2 1237   1.595   2.166   0.826
  407SOL     OW 1238   0.230   2.490   1.975
  407SOL    HW1 1239   0.137   2.488   2.012
  407SOL    HW2 1240   0.231   2.451   1.883
  408SOL     OW 1241   0.019   2.230   2.509
  408SOL    HW1 1242  -0.063   2.273   2.548
  408SOL    HW2 1243  -0.009   2.157   2.446
  409SOL     OW 1244   1.135   2.565   2.579
  409SOL    HW1 1245   1.192   2.643   2.554
  409SOL    HW2 1246   1.075   2.591   2.655
  410SOL     OW 1247   1.755   2.469   2.093
  410SOL    HW1 1248   1.743   2.456   1.994
  410SOL    HW2 1249   1.725   2.388   2.142
  411SOL     OW 1250   0.685   2.874   2.527
  411SOL    HW1 1251   0.754   2.858   2.597
  411SOL    HW2 1252   0.612   2.931   2.565
  412SOL     OW 1253   1.603   2.309   2.599
  412SOL    HW1 1254   1.529   2.355   2.549
  412SOL    HW2 1255   1.654   2.377   2.652
  413SOL     OW 1256   0.240   2.953   2.748
  413SOL    HW1 1257   0.254   2.869   2.800
  413SOL    HW2 1258   0.185   3.017   2.803
  414SOL     OW 1259   0.122   2.505   2.425
  414SOL    HW1 1260   0.077   2.417   2.442
  414SOL    HW2 1261   0.121   2.559   2.509
  415SOL     OW 1262   0.809   1.866   2.364
  415SOL    HW1 1263   0.849   1.957   2.355
  415SOL    HW2 1264   0.709   1.874   2.370
  416SOL     OW 1265   0.598   2.591   2.132
  416SOL    HW1 1266   0.622   2.660   2.064
  416SOL    HW2 1267   0.520   2.624   2.186
  417SOL     OW 1268   1.281   2.207   2.806
  417SOL    HW1 1269   1.195   2.157   2.793
  417SOL    HW2 1270   1.343   2.153   2.862
  418SOL     OW 1271   1.041   2.563   2.291
  418SOL    HW1 1272   1.067   2.559   2.387
  418SOL    HW2 1273   0.956   2.512   2.277
  419SOL     OW 1274   0.076   2.673   2.651
  419SOL    HW1 1275   0.175   2.661   2.660
  419SOL    HW2 1276   0.052   2.768   2.672
  420SOL     OW 1277   0.865   2.210   2.057
  420SOL    HW1 1278   0.924   2.273   2.008
  420SOL    HW2 1279   0.884   2.116   2.028
  421SOL     OW 1280   0.550   2.058   2.747
  421SOL    HW1 1281   0.545   2.053   2.847
  421SOL    HW2 1282   0.552   2.154   2.718
  422SOL     OW 1283   1.458   2.597   2.590
  422SOL    HW1 1284   1.453   2.532   2.665
  422SOL    HW2 1285   1.538   2.656   2.603
  423SOL     OW 1286   1.400   1.969   2.288
  423SOL    HW1 1287   1.376   1.932   2.198
  423SOL    HW2 1288   1.499   1.985   2.292
  424SOL     OW 1289   0.382   2.562   2.342
  424SOL    HW1 1290   0.427   2.472   2.339
  424SOL    HW2 1291   0.288   2.551   2.375
  425SOL     OW 1292   0.614   1.984   1.979
  425SOL    HW1 1293   0.712   1.962   1.986
  425SOL    HW2 1294   0.583   1.967   1.886
  426SOL     OW 1295   0.539   1.926   2.374
  426SOL    HW1 1296   0.458   1.927   2.432
  426SOL    HW2 1297   0.542   2.009   2.319
  427SOL     OW 1298   0.297   1.897   2.033
  427SOL    HW1 1299   0.346   1.981   2.012
  427SOL    HW2 1300   0.359   1.832   2.078
  428SOL     OW 1301   0.935   2.098   2.342
  428SOL    HW1 1302   0.887   2.139   2.264
  428SOL    HW2 1303   1.034   2.096   2.323
  429SOL     OW 1304   0.459   3.014   2.603
  429SOL    HW1 1305   0.388   2.987   2.668
  429SOL    HW2 1306   0.433   2.986   2.510
  430SOL     OW 1307   1.032   2.411   1.878
  430SOL    HW1 1308   0.991   2.493   1.839
  430SOL    HW2 1309   1.096   2.437   1.951
  431SOL     OW 1310   0.866   2.316   2.504
  431SOL    HW1 1311   0.834   2.388   2.442
  431SOL    HW2 1312   0.890   2.235   2.451
  432SOL     OW 1313   1.017   1.901   2.615
  432SOL    HW1 1314   0.945   1.906   2.546
  432SOL    HW2 1315   0.993   1.832   2.684
  433SOL     OW 1316   1.429   3.035   2.729
  433SOL    HW1 1317   1.374   2.951   2.722
  433SOL    HW2 1318   1.455   3.064   2.637
  434SOL     OW 1319   1.857   2.695   2.239
  434SOL    HW1 1320   1.899   2.631   2.303
  434SOL    HW2 1321   1.819   2.644   2.161
  435SOL     OW 1322   1.390   2.437   1.940
  435SOL    HW1 1323   1.336   2.416   2.021
  435SOL    HW2 1324   1.481   2.396   1.949
  436SOL     OW 1325   0.527   2.118   2.190
  436SOL    HW1 1326   0.554   2.059   2.115
  436SOL    HW2 1327   0.527   2.213   2.159
  437SOL     OW 1328   1.111   3.057   2.962
  437SOL    HW1 1329   1.071   3.101   3.043
  437SOL    HW2 1330   1.070   3.094   2.879
  438SOL     OW 1331   0.566   2.399   2.727
  438SOL    HW1 1332   0.578   2.465   2.653
  438SOL    HW2 1333   0.612   2.433   2.810
  439SOL     OW 1334   1.582   2.501   2.334
  439SOL    HW1 1335   1.551   2.562   2.407
  439SOL    HW2 1336   1.632   2.553   2.265
  440SOL     OW 1337   1.209   2.387   2.137
  440SOL    HW1 1338   1.222   2.303   2.191
  440SOL    HW2 1339   1.180   2.461   2.197
  441SOL     OW 1340   0.732   2.496   2.926
  441SOL    HW1 1341   0.791   2.470   2.850
  441SOL    HW2 1342   0.704   2.592   2.915
  442SOL     OW 1343   0.307   1.925   2.480
  442SOL    HW1 1344   0.296   2.019   2.513
  442SOL    HW2 1345   0.302   1.862   2.557
  443SOL     OW 1346   1.622   2.229   2.236
  443SOL    HW1 1347   1.624   2.153   2.300
  443SOL    HW2 1348   1.574   2.306   2.276
  444SOL     OW 1349   1.540   2.136   1.987
  444SOL    HW1 1350   1.479   2.061   2.010
  444SOL    HW2 1351   1.562   2.188   2.070
  445SOL     OW 1352   0.815   2.434   2.187
  445SOL    HW1 1353   0.822   2.345   2.141
  445SOL    HW2 1354   0.721   2.468   2.179
  446SOL     OW 1355   0.473   2.362   2.053
  446SOL    HW1 1356   0.534   2.442   2.057
  446SOL    HW2 1357   0.378   2.393   2.060
  447SOL     OW 1358   1.726   1.997   2.385
  447SOL    HW1 1359   1.799   1.980   2.318
  447SOL    HW2 1360   1.695   1.910   2.423
  448SOL     OW 1361   1.280   2.789   2.534
  448SOL    HW1 1362   1.340   2.708   2.536
  448SOL    HW2 1363   1.320   2.858   2.474
  449SOL     OW 1364   1.841   2.037   2.825
  449SOL    HW1 1365   1.880   1.952   2.789
  449SOL    HW2 1366   1.743   2.039   2.806
  450SOL     OW 1367   0.263   2.188   2.582
  450SOL    HW1 1368   0.184   2.239   2.548
  450SOL    HW2 1369   0.254   2.173   2.680
  451SOL     OW 1370   0.916   2.772   2.153
  451SOL    HW1 1371   0.979   2.810   2.085
  451SOL    HW2 1372   0.956   2.689   2.192
  452SOL     OW 1373   0.075   2.207   1.895
  452SOL    HW1 1374  -0.017   2.179   1.866
  452SOL    HW2 1375   0.106   2.284   1.839
  453SOL     OW 1376   0.072   2.028   2.180
  453SOL    HW1 1377   0.055   2.111   2.126
  453SOL    HW2 1378   0.162   1.991   2.158
  454SOL     OW 1379   1.674   2.745   3.116
  454SOL    HW1 1380   1.647   2.656   3.079
  454SOL    HW2 1381   1.675   2.813   3.043
  455SOL     OW 1382   1.225   2.187   2.311
  455SOL    HW1 1383   1.290   2.113   2.300
  455SOL    HW2 1384   1.245   2.237   2.395
  456SOL     OW 1385   0.594   2.607   2.514
  456SOL    HW1 1386   0.644   2.692   2.495
  456SOL    HW2 1387   0.506   2.609   2.466
  457SOL     OW 1388   0.428   2.286   2.382
  457SOL    HW1 1389   0.458   2.214   2.320
  457SOL    HW2 1390   0.389   2.246   2.465
  458SOL     OW 1391   1.352   1.914   2.030
  458SOL    HW1 1392   1.387   1.873   1.946
  458SOL    HW2 1393   1.262   1.876   2.050
  459SOL     OW 1394   1.300   2.315   2.553
  459SOL    HW1 1395   1.241   2.395   2.557
  459SOL    HW2 1396   1.315   2.280   2.646
  460SOL     OW 1397   2.092   0.628   0.113
  460SOL    HW1 1398   1.999   0.626   0.150
  460SOL    HW2 1399   2.093   0.589   0.021
  461SOL     OW 1400   2.087   0.275   0.996
  461SOL    HW1 1401   2.122   0.258   1.088
  461SOL    HW2 1402   1.999   0.230   0.984
  462SOL     OW 1403   1.881   0.368   0.647
  462SOL    HW1 1404   1.799   0.411   0.686
  462SOL    HW2 1405   1.853   0.295   0.584
  463SOL     OW 1406   2.431   1.275   1.165
  463SOL    HW1 1407   2.338   1.268   1.128
  463SOL    HW2 1408   2.442   1.364   1.209
  464SOL     OW 1409   2.630   1.144   1.023
  464SOL    HW1 1410   2.552   1.161   1.083
  464SOL    HW2 1411   2.664   1.231   0.987
  465SOL     OW 1412   2.712   0.798   1.823
  465SOL    HW1 1413   2.708   0.874   1.888
  465SOL    HW2 1414   2.734   0.834   1.732
  466SOL     OW 1415   2.547   1.012   0.665
  466SOL    HW1 1416   2.616   0.996   0.735
  466SOL    HW2 1417   2.474   1.069   0.703
  467SOL     OW 1418   2.548   1.161   1.803
  467SOL    HW1 1419   2.608   1.240   1.817
  467SOL    HW2 1420   2.462   1.192   1.762
  468SOL     OW 1421   2.197   1.435   1.061
  468SOL    HW1 1422   2.119   1.404   1.008
  468SOL    HW2 1423   2.255   1.493   1.004
  469SOL     OW 1424   2.300   0.392   1.499
  469SOL    HW1 1425   2.382   0.336   1.508
  469SOL    HW2 1426   2.219   0.334   1.503
  470SOL     OW 1427   2.093   1.713   0.483
  470SOL    HW1 1428   2.127   1.790   0.537
  470SOL    HW2 1429   2.137   1.713   0.393
  471SOL     OW 1430   2.092   1.434   0.538
  471SOL    HW1 1431   2.066   1.530   0.538
  471SOL    HW2 1432   2.021   1.380   0.583
  472SOL     OW 1433   2.102   1.091   0.886
  472SOL    HW1 1434   2.116   1.007   0.938
  472SOL    HW2 1435   2.047   1.155   0.941
  473SOL     OW 1436   2.482   1.786   1.439
  473SOL    HW1 1437   2.390   1.769   1.474
  473SOL    HW2 1438   2.510   1.878   1.465
  474SOL     OW 1439   2.468   0.964   0.123
  474SOL    HW1 1440   2.475   1.048   0.069
  474SOL    HW2 1441   2.514   0.977   0.211
  475SOL     OW 1442   1.984   0.643   0.563
  475SOL    HW1 1443   1.939   0.555   0.580
  475SOL    HW2 1444   1.983   0.697   0.647
  476SOL     OW 1445   1.889   1.596   0.117
  476SOL    HW1 1446   1.870   1.500   0.138
  476SOL    HW2 1447   1.856   1.654   0.192
  477SOL     OW 1448   1.975   0.737   1.597
  477SOL    HW1 1449   2.063   0.724   1.642
  477SOL    HW2 1450   1.962   0.834   1.575
  478SOL     OW 1451   2.475   1.365   0.726
  478SOL    HW1 1452   2.426   1.278   0.735
  478SOL    HW2 1453   2.452   1.408   0.639
  479SOL     OW 1454   2.671   0.004   0.502
  479SOL    HW1 1455   2.711   0.095   0.493
  479SOL    HW2 1456   2.571   0.012   0.508
  480SOL     OW 1457   2.059   0.976   1.264
  480SOL    HW1 1458   2.148   0.931   1.250
  480SOL    HW2 1459   1.986   0.911   1.245
  481SOL     OW 1460   2.179   0.251   1.801
  481SOL    HW1 1461   2.250   0.322   1.807
  481SOL    HW2 1462   2.091   0.290   1.829
  482SOL     OW 1463   2.460   0.729   0.270
  482SOL    HW1 1464   2.484   0.798   0.202
  482SOL    HW2 1465   2.382   0.762   0.324
  483SOL     OW 1466   2.669   0.605   1.465
  483SOL    HW1 1467   2.622   0.602   1.554
  483SOL    HW2 1468   2.618   0.550   1.399
  484SOL     OW 1469   1.938   0.811   0.789
  484SOL    HW1 1470   2.037   0.799   0.798
  484SOL    HW2 1471   1.914   0.906   0.810
  485SOL     OW 1472   1.992   1.821   1.571
  485SOL    HW1 1473   1.982   1.806   1.670
  485SOL    HW2 1474   1.906   1.857   1.535
  486SOL     OW 1475   2.727   0.348   0.195
  486SOL    HW1 1476   2.786   0.411   0.146
  486SOL    HW2 1477   2.746   0.254   0.166
  487SOL     OW 1478   2.412   0.196   0.885
  487SOL    HW1 1479   2.407   0.191   0.985
  487SOL    HW2 1480   2.414   0.292   0.856
  488SOL     OW 1481   2.870   1.456   0.477
  488SOL    HW1 1482   2.824   1.528   0.425
  488SOL    HW2 1483   2.866   1.476   0.575
  489SOL     OW 1484   2.213   1.801   0.853
  489SOL    HW1 1485   2.263   1.715   0.859
  489SOL    HW2 1486   2.278   1.878   0.850
  490SOL     OW 1487   2.183   0.943   0.242
  490SOL    HW1 1488   2.265   0.982   0.200
  490SOL    HW2 1489   2.156   0.861   0.193
  491SOL     OW 1490   2.323   1.266   1.727
  491SOL    HW1 1491   2.273   1.267   1.641
  491SOL    HW2 1492   2.260   1.248   1.803
  492SOL     OW 1493   2.973   1.776   0.237
  492SOL    HW1 1494   2.913   1.714   0.287
  492SOL    HW2 1495   3.004   1.732   0.152
  493SOL     OW 1496   2.064   0.285   1.498
  493SOL    HW1 1497   1.984   0.345   1.485
  493SOL    HW2 1498   2.054   0.236   1.584
  494SOL     OW 1499   2.326   1.743   0.323
  494SOL    HW1 1500   2.359   1.782   0.409
  494SOL    HW2 1501   2.402   1.736   0.258
  495SOL     OW 1502   2.111   1.785   1.241
  495SOL    HW1 1503   2.168   1.720   1.291
  495SOL    HW2 1504   2.095   1.752   1.148
  496SOL     OW 1505   2.244   0.700   0.480
  496SOL    HW1 1506   2.289   0.610   0.477
  496SOL    HW2 1507   2.150   0.689   0.513
  497SOL     OW 1508   2.476   0.122   0.117
  497SOL    HW1 1509   2.574   0.100   0.124
  497SOL    HW2 1510   2.445   0.105   0.024
  498SOL     OW 1511   2.643   0.264   1.749
  498SOL    HW1 1512   2.710   0.203   1.792
  498SOL    HW2 1513   2.570   0.283   1.814
  499SOL     OW 1514   2.665   1.402   0.924
  499SOL    HW1 1515   2.755   1.416   0.882
  499SOL    HW2 1516   2.594   1.404   0.853
  500SOL     OW 1517   2.784   0.503   0.899
  500SOL    HW1 1518   2.759   0.494   0.803
  500SOL    HW2 1519   2.832   0.421   0.930
  501SOL     OW 1520   2.401   0.064   0.512
  501SOL    HW1 1521   2.320   0.065   0.570
  501SOL    HW2 1522   2.404   0.147   0.457
  502SOL     OW 1523   2.159   0.035   0.171
  502SOL    HW1 1524   2.208   0.119   0.150
  502SOL    HW2 1525   2.221  -0.030   0.216
  503SOL     OW 1526   2.321   1.152   0.741
  503SOL    HW1 1527   2.250   1.125   0.806
  503SOL    HW2 1528   2.295   1.124   0.648
  504SOL     OW 1529   1.940   0.556   1.386
  504SOL    HW1 1530   2.032   0.555   1.345
  504SOL    HW2 1531   1.934   0.630   1.453
  505SOL     OW 1532   2.423   0.222   1.147
  505SOL    HW1 1533   2.461   0.138   1.184
  505SOL    HW2 1534   2.335   0.241   1.191
  506SOL     OW 1535   2.350   1.385   0.174
  506SOL    HW1 1536   2.263   1.370   0.221
  506SOL    HW2 1537   2.333   1.411   0.079
  507SOL     OW 1538   2.389   0.256   0.328
  507SOL    HW1 1539   2.416   0.197   0.253
  507SOL    HW2 1540   2.389   0.351   0.297
  508SOL     OW 1541   2.777   0.089   1.402
  508SOL    HW1 1542   2.802   0.069   1.307
  508SOL    HW2 1543   2.849   0.145   1.444
  509SOL     OW 1544   2.567   1.050   0.368
  509SOL    HW1 1545   2.553   1.057   0.467
  509SOL    HW2 1546   2.651   0.999   0.350
  510SOL     OW 1547   2.272   0.813   1.251
  510SOL    HW1 1548   2.358   0.825   1.301
  510SOL    HW2 1549   2.230   0.726   1.278
  511SOL     OW 1550   1.926   1.564   1.331
  511SOL    HW1 1551   1.880   1.646   1.297
  511SOL    HW2 1552   2.024   1.583   1.340
  512SOL     OW 1553   2.229   1.100   0.501
  512SOL    HW1 1554   2.222   1.183   0.445
  512SOL    HW2 1555   2.233   1.020   0.441
  513SOL     OW 1556   2.428   0.537   0.865
  513SOL    HW1 1557   2.440   0.603   0.791
  513SOL    HW2 1558   2.474   0.571   0.948
  514SOL     OW 1559   2.216   1.510   1.329
  514SOL    HW1 1560   2.195   1.466   1.242
  514SOL    HW2 1561   2.313   1.536   1.332
  515SOL     OW 1562   2.264   0.751   1.598
  515SOL    HW1 1563   2.332   0.806   1.551
  515SOL    HW2 1564   2.304   0.663   1.625
  516SOL     OW 1565   2.366   0.050   1.740
  516SOL    HW1 1566   2.324  -0.007   1.670
  516SOL    HW2 1567   2.300   0.119   1.772
  517SOL     OW 1568   2.435   0.870   1.029
  517SOL    HW1 1569   2.479   0.959   1.020
  517SOL    HW2 1570   2.372   0.870   1.106
  518SOL     OW 1571   2.169   0.213   1.231
  518SOL    HW1 1572   2.146   0.250   1.321
  518SOL    HW2 1573   2.139   0.118   1.225
  519SOL     OW 1574   1.899   1.310   1.282
  519SOL    HW1 1575   1.952   1.261   1.350
  519SOL    HW2 1576   1.921   1.408   1.287
  520SOL     OW 1577   2.594   0.634   1.064
  520SOL    HW1 1578   2.653   0.608   0.988
  520SOL    HW2 1579   2.566   0.730   1.053
  521SOL     OW 1580   2.169   0.063   0.618
  521SOL    HW1 1581   2.158   0.157   0.651
  521SOL    HW2 1582   2.164   0.000   0.695
  522SOL     OW 1583   2.885   0.766   0.966
  522SOL    HW1 1584   2.900   0.787   1.062
  522SOL    HW2 1585   2.855   0.671   0.957
  523SOL     OW 1586   2.842   1.573   1.700
  523SOL    HW1 1587   2.822   1.617   1.612
  523SOL    HW2 1588   2.881   1.482   1.684
  524SOL     OW 1589   2.212   0.898   1.804
  524SOL    HW1 1590   2.288   0.942   1.852
  524SOL    HW2 1591   2.247   0.851   1.722
  525SOL     OW 1592   2.181   0.810   0.949
  525SOL    HW1 1593   2.274   0.846   0.954
  525SOL    HW2 1594   2.175   0.725   1.001
  526SOL     OW 1595   2.201   0.509   1.006
  526SOL    HW1 1596   2.149   0.426   0.989
  526SOL    HW2 1597   2.278   0.514   0.942
  527SOL     OW 1598   1.870   1.326   0.200
  527SOL    HW1 1599   1.777   1.347   0.169
  527SOL    HW2 1600   1.880   1.227   0.213
  528SOL     OW 1601   1.950   1.801   0.927
  528SOL    HW1 1602   1.908   1.715   0.900
  528SOL    HW2 1603   2.044   1.804   0.893
  529SOL     OW 1604   2.366   1.568   0.910
  529SOL    HW1 1605   2.432   1.642   0.919
  529SOL    HW2 1606   2.410   1.489   0.868
  530SOL     OW 1607   1.902   0.544   1.114
  530SOL    HW1 1608   1.987   0.511   1.073
  530SOL    HW2 1609   1.915   0.559   1.212
  531SOL     OW 1610   2.051   0.520   1.722
  531SOL    HW1 1611   2.110   0.480   1.652
  531SOL    HW2 1612   1.993   0.591   1.681
  532SOL     OW 1613   2.677   0.572   0.325
  532SOL    HW1 1614   2.684   0.483   0.279
  532SOL    HW2 1615   2.583   0.606   0.317
  533SOL     OW 1616   2.114   1.564   1.744
  533SOL    HW1 1617   2.084   1.621   1.820
  533SOL    HW2 1618   2.107   1.467   1.770
  534SOL     OW 1619   2.533   0.464   1.269
  534SOL    HW1 1620   2.499   0.375   1.239
  534SOL    HW2 1621   2.559   0.518   1.189
  535SOL     OW 1622   2.335   0.500   0.191
  535SOL    HW1 1623   2.396   0.580   0.195
  535SOL    HW2 1624   2.240   0.531   0.198
  536SOL     OW 1625   2.021   1.137   1.466
  536SOL    HW1 1626   2.043   1.076   1.542
  536SOL    HW2 1627   2.031   1.088   1.380
  537SOL     OW 1628   1.945   1.258   1.022
  537SOL    HW1 1629   1.940   1.257   1.122
  537SOL    HW2 1630   1.862   1.217   0.984
  538SOL     OW 1631   2.550   1.662   1.716
  538SOL    HW1 1632   2.494   1.743   1.725
  538SOL    HW2 1633   2.602   1.666   1.630
  539SOL     OW 1634   2.765   0.086   0.133
  539SOL    HW1 1635   2.816   0.087   0.047
  539SOL    HW2 1636   2.821   0.044   0.204
  540SOL     OW 1637   1.992   1.794   1.851
  540SOL    HW1 1638   1.951   1.720   1.904
  540SOL    HW2 1639   2.056   1.845   1.909
  541SOL     OW 1640   2.692   1.273   1.422
  541SOL    HW1 1641   2.687   1.306   1.517
  541SOL    HW2 1642   2.606   1.292   1.376
  542SOL     OW 1643   2.534   1.616   0.154
  542SOL    HW1 1644   2.543   1.626   0.055
  542SOL    HW2 1645   2.494   1.527   0.175
  543SOL     OW 1646   2.125   0.326   0.720
  543SOL    HW1 1647   2.046   0.377   0.686
  543SOL    HW2 1648   2.116   0.311   0.818
  544SOL     OW 1649   3.056   1.612   0.031
  544SOL    HW1 1650   3.062   1.519   0.068
  544SOL    HW2 1651   2.997   1.612  -0.049
  545SOL     OW 1652   2.684   1.002   1.372
  545SOL    HW1 1653   2.724   1.001   1.280
  545SOL    HW2 1654   2.694   1.094   1.412
  546SOL     OW 1655   2.234   1.288   1.490
  546SOL    HW1 1656   2.221   1.381   1.456
  546SOL    HW2 1657   2.150   1.236   1.477
  547SOL     OW 1658   2.452   1.487   0.491
  547SOL    HW1 1659   2.494   1.429   0.421
  547SOL    HW2 1660   2.408   1.566   0.447
  548SOL     OW 1661   2.117   1.348   0.290
  548SOL    HW1 1662   2.021   1.349   0.263
  548SOL    HW2 1663   2.129   1.401   0.374
  549SOL     OW 1664   1.967   1.013   1.726
  549SOL    HW1 1665   1.890   0.980   1.780
  549SOL    HW2 1666   2.052   0.983   1.768
  550SOL     OW 1667   2.534   0.203   1.489
  550SOL    HW1 1668   2.624   0.187   1.449
  550SOL    HW2 1669   2.542   0.208   1.588
  551SOL     OW 1670   1.934   0.166   0.318
  551SOL    HW1 1671   1.917   0.249   0.264
  551SOL    HW2 1672   2.024   0.129   0.296
  552SOL     OW 1673   2.475   0.842   1.431
  552SOL    HW1 1674   2.531   0.923   1.414
  552SOL    HW2 1675   2.534   0.762   1.434
  553SOL     OW 1676   2.578   0.565   1.708
  553SOL    HW1 1677   2.597   0.630   1.782
  553SOL    HW2 1678   2.638   0.485   1.717
  554SOL     OW 1679   2.252   1.741   1.560
  554SOL    HW1 1680   2.161   1.782   1.558
  554SOL    HW2 1681   2.245   1.647   1.592
  555SOL     OW 1682   2.456   0.745   0.652
  555SOL    HW1 1683   2.506   0.830   0.633
  555SOL    HW2 1684   2.368   0.747   0.604
  556SOL     OW 1685   2.523   1.790   0.953
  556SOL    HW1 1686   2.477   1.878   0.940
  556SOL    HW2 1687   2.622   1.802   0.946
  557SOL     OW 1688   2.083   1.314   1.844
  557SOL    HW1 1689   2.018   1.241   1.823
  557SOL    HW2 1690   2.087   1.328   1.942
  558SOL     OW 1691   1.941   1.240   0.653
  558SOL    HW1 1692   1.940   1.193   0.741
  558SOL    HW2 1693   2.023   1.212   0.602
  559SOL     OW 1694   2.534   1.391   1.624
  559SOL    HW1 1695   2.456   1.341   1.662
  559SOL    HW2 1696   2.531   1.486   1.655
  560SOL     OW 1697   2.290   0.424   0.520
  560SOL    HW1 1698   2.320   0.352   0.458
  560SOL    HW2 1699   2.251   0.384   0.603
  561SOL     OW 1700   2.179   0.547   1.280
  561SOL    HW1 1701   2.217   0.488   1.352
  561SOL    HW2 1702   2.219   0.521   1.192
  562SOL     OW 1703   2.674   1.586   0.687
  562SOL    HW1 1704   2.706   1.596   0.593
  562SOL    HW2 1705   2.595   1.524   0.689
  563SOL     OW 1706   2.863   0.034   1.154
  563SOL    HW1 1707   2.800  -0.038   1.123
  563SOL    HW2 1708   2.956  -0.002   1.154
  564SOL     OW 1709   2.632   1.330   0.301
  564SOL    HW1 1710   2.586   1.243   0.318
  564SOL    HW2 1711   2.723   1.327   0.342
  565SOL     OW 1712   2.480   1.567   1.284
  565SOL    HW1 1713   2.475   1.649   1.341
  565SOL    HW2 1714   2.569   1.564   1.239
  566SOL     OW 1715   1.901   1.077   0.300
  566SOL    HW1 1716   2.000   1.066   0.291
  566SOL    HW2 1717   1.861   0.991   0.332
  567SOL     OW 1718   2.737   1.646   0.337
  567SOL    HW1 1719   2.660   1.611   0.283
  567SOL    HW2 1720   2.705   1.717   0.399
  568SOL     OW 1721   2.092   0.628   1.975
  568SOL    HW1 1722   1.999   0.626   2.012
  568SOL    HW2 1723   2.093   0.589   1.883
  569SOL     OW 1724   2.087   0.275   2.858
  569SOL    HW1 1725   2.122   0.258   2.950
  569SOL    HW2 1726   1.999   0.230   2.846
  570SOL     OW 1727   1.881   0.368   2.509
  570SOL    HW1 1728   1.799   0.411   2.548
  570SOL    HW2 1729   1.853   0.295   2.446
  571SOL     OW 1730   2.630   1.144   2.885
  571SOL    HW1 1731   2.552   1.161   2.945
  571SOL    HW2 1732   2.664   1.231   2.849
  572SOL     OW 1733   2.547   1.012   2.527
  572SOL    HW1 1734   2.616   0.996   2.597
  572SOL    HW2 1735   2.474   1.069   2.565
  573SOL     OW 1736   2.093   1.713   2.345
  573SOL    HW1 1737   2.127   1.790   2.399
  573SOL    HW2 1738   2.137   1.713   2.255
  574SOL     OW 1739   2.092   1.434   2.400
  574SOL    HW1 1740   2.066   1.530   2.400
  574SOL    HW2 1741   2.021   1.380   2.445
  575SOL     OW 1742   2.102   1.091   2.748
  575SOL    HW1 1743   2.116   1.007   2.800
  575SOL    HW2 1744   2.047   1.155   2.803
  576SOL     OW 1745   2.468   0.964   1.985
  576SOL    HW1 1746   2.475   1.048   1.931
  576SOL    HW2 1747   2.514   0.977   2.073
  577SOL     OW 1748   1.984   0.643   2.425
  577SOL    HW1 1749   1.939   0.555   2.442
  577SOL    HW2 1750   1.983   0.697   2.509
  578SOL     OW 1751   1.889   1.596   1.979
  578SOL    HW1 1752   1.870   1.500   2.000
  578SOL    HW2 1753   1.856   1.654   2.054
  579SOL     OW 1754   2.475   1.365   2.588
  579SOL    HW1 1755   2.426   1.278   2.597
  579SOL    HW2 1756   2.452   1.408   2.501
  580SOL     OW 1757   2.671   0.004   2.364
  580SOL    HW1 1758   2.711   0.095   2.355
  580SOL    HW2 1759   2.571   0.012   2.370
  581SOL     OW 1760   2.460   0.729   2.132
  581SOL    HW1 1761   2.484   0.798   2.064
  581SOL    HW2 1762   2.382   0.762   2.186
  582SOL     OW 1763   1.938   0.811   2.651
  582SOL    HW1 1764   2.037   0.799   2.660
  582SOL    HW2 1765   1.914   0.906   2.672
  583SOL     OW 1766   2.727   0.348   2.057
  583SOL    HW1 1767   2.786   0.411   2.008
  583SOL    HW2 1768   2.746   0.254   2.028
  584SOL     OW 1769   2.870   1.456   2.339
  584SOL    HW1 1770   2.824   1.528   2.287
  584SOL    HW2 1771   2.866   1.476   2.437
  585SOL     OW 1772   2.213   1.801   2.715
  585SOL    HW1 1773   2.263   1.715   2.721
  585SOL    HW2 1774   2.278   1.878   2.712
  586SOL     OW 1775   2.183   0.943   2.104
  586SOL    HW1 1776   2.265   0.982   2.062
  586SOL    HW2 1777   2.156   0.861   2.055
  587SOL     OW 1778   2.973   1.776   2.099
  587SOL    HW1 1779   2.913   1.714   2.149
  587SOL    HW2 1780   3.004   1.732   2.014
  588SOL     OW 1781   2.326   1.743   2.185
  588SOL    HW1 1782   2.359   1.782   2.271
  588SOL    HW2 1783   2.402   1.736   2.120
  589SOL     OW 1784   2.244   0.700   2.342
  589SOL    HW1 1785   2.289   0.610   2.339
  589SOL    HW2 1786   2.150   0.689   2.375
  590SOL     OW 1787   2.476   0.122   1.979
  590SOL    HW1 1788   2.574   0.100   1.986
  590SOL    HW2 1789   2.445   0.105   1.886
  591SOL     OW 1790   2.665   1.402   2.786
  591SOL    HW1 1791   2.755   1.416   2.744
  591SOL    HW2 1792   2.594   1.404   2.715
  592SOL     OW 1793   2.401   0.064   2.374
  592SOL    HW1 1794   2.320   0.065   2.432
  592SOL    HW2 1795   2.404   0.147   2.319
  593SOL     OW 1796   2.159   0.035   2.033
  593SOL    HW1 1797   2.208   0.119   2.012
  593SOL    HW2 1798   2.221  -0.030   2.078
  594SOL     OW 1799   2.321   1.152   2.603
  594SOL    HW1 1800   2.250   1.125   2.668
  594SOL    HW2 1801   2.295   1.124   2.510
  595SOL     OW 1802   2.350   1.385   2.036
  595SOL    HW1 1803   2.263   1.370   2.083
  595SOL    HW2 1804   2.333   1.411   1.941
  596SOL     OW 1805   2.389   0.256   2.190
  596SOL    HW1 1806   2.416   0.197   2.115
  596SOL    HW2 1807   2.389   0.351   2.159
  597SOL     OW 1808   2.567   1.050   2.230
  597SOL    HW1 1809   2.553   1.057   2.329
  597SOL    HW2 1810   2.651   0.999   2.212
  598SOL     OW 1811   2.229   1.100   2.363
  598SOL    HW1 1812   2.222   1.183   2.307
  598SOL    HW2 1813   2.233   1.020   2.303
  599SOL     OW 1814   2.428   0.537   2.727
  599SOL    HW1 1815   2.440   0.603   2.653
  599SOL    HW2 1816   2.474   0.571   2.810
  600SOL     OW 1817   2.594   0.634   2.926
  600SOL    HW1 1818   2.653   0.608   2.850
  600SOL    HW2 1819   2.566   0.730   2.915
  601SOL     OW 1820   2.169   0.063   2.480
  601SOL    HW1 1821   2.158   0.157   2.513
  601SOL    HW2 1822   2.164   0.000   2.557
  602SOL     OW 1823   2.885   0.766   2.828
  602SOL    HW1 1824   2.900   0.787   2.924
  602SOL    HW2 1825   2.855   0.671   2.819
  603SOL     OW 1826   1.870   1.326   2.062
  603SOL    HW1 1827   1.777   1.347   2.031
  603SOL    HW2 1828   1.880   1.227   2.075
  604SOL     OW 1829   1.950   1.801   2.789
  604SOL    HW1 1830   1.908   1.715   2.762
  604SOL    HW2 1831   2.044   1.804   2.755
  605SOL     OW 1832   2.366   1.568   2.772
  605SOL    HW1 1833   2.432   1.642   2.781
  605SOL    HW2 1834   2.410   1.489   2.730
  606SOL     OW 1835   2.677   0.572   2.187
  606SOL    HW1 1836   2.684   0.483   2.141
  606SOL    HW2 1837   2.583   0.606   2.179
  607SOL     OW 1838   2.335   0.500   2.053
  607SOL    HW1 1839   2.396   0.580   2.057
  607SOL    HW2 1840   2.240   0.531   2.060
  608SOL     OW 1841   2.765   0.086   1.995
  608SOL    HW1 1842   2.816   0.087   1.909
  608SOL    HW2 1843   2.821   0.044   2.066
  609SOL     OW 1844   2.534   1.616   2.016
  609SOL    HW1 1845   2.543   1.626   1.917
  609SOL    HW2 1846   2.494   1.527   2.037
  610SOL     OW 1847   2.125   0.326   2.582
  610SOL    HW1 1848   2.046   0.377   2.548
  610SOL    HW2 1849   2.116   0.311   2.680
  611SOL     OW 1850   2.452   1.487   2.353
  611SOL    HW1 1851   2.494   1.429   2.283
  611SOL    HW2 1852   2.408   1.566   2.309
  612SOL     OW 1853   2.117   1.348   2.152
  612SOL    HW1 1854   2.021   1.349   2.125
  612SOL    HW2 1855   2.129   1.401   2.236
  613SOL     OW 1856   1.937   0.345   1.895
  613SOL    HW1 1857   1.845   0.317   1.866
  613SOL    HW2 1858   1.968   0.422   1.839
  614SOL     OW 1859   1.934   0.166   2.180
  614SOL    HW1 1860   1.917   0.249   2.126
  614SOL    HW2 1861   2.024   0.129   2.158
  615SOL     OW 1862   2.456   0.745   2.514
  615SOL    HW1 1863   2.506   0.830   2.495
  615SOL    HW2 1864   2.368   0.747   2.466
  616SOL     OW 1865   2.523   1.790   2.815
  616SOL    HW1 1866   2.477   1.878   2.802
  616SOL    HW2 1867   2.622   1.802   2.808
  617SOL     OW 1868   1.941   1.240   2.515
  617SOL    HW1 1869   1.940   1.193   2.603
  617SOL    HW2 1870   2.023   1.212   2.464
  618SOL     OW 1871   2.290   0.424   2.382
  618SOL    HW1 1872   2.320   0.352   2.320
  618SOL    HW2 1873   2.251   0.384   2.465
  619SOL     OW 1874   2.674   1.586   2.549
  619SOL    HW1 1875   2.706   1.596   2.455
  619SOL    HW2 1876   2.595   1.524   2.551
  620SOL     OW 1877   2.632   1.330   2.163
  620SOL    HW1 1878   2.586   1.243   2.180
  620SOL    HW2 1879   2.723   1.327   2.204
  621SOL     OW 1880   1.901   1.077   2.162
  621SOL    HW1 1881   2.000   1.066   2.153
  621SOL    HW2 1882   1.861   0.991   2.194
  622SOL     OW 1883   2.737   1.646   2.199
  622SOL    HW1 1884   2.660   1.611   2.145
  622SOL    HW2 1885   2.705   1.717   2.261
  623SOL     OW 1886   2.092   2.490   0.113
  623SOL    HW1 1887   1.999   2.488   0.150
  623SOL    HW2 1888   2.093   2.451   0.021
  624SOL     OW 1889   2.087   2.137   0.996
  624SOL    HW1 1890   2.122   2.120   1.088
  624SOL    HW2 1891   1.999   2.092   0.984
  625SOL     OW 1892   1.881   2.230   0.647
  625SOL    HW1 1893   1.799   2.273   0.686
  625SOL    HW2 1894   1.853   2.157   0.584
  626SOL     OW 1895   2.712   2.660   1.823
  626SOL    HW1 1896   2.708   2.736   1.888
  626SOL    HW2 1897   2.734   2.696   1.732
  627SOL     OW 1898   2.547   2.874   0.665
  627SOL    HW1 1899   2.616   2.858   0.735
  627SOL    HW2 1900   2.474   2.931   0.703
  628SOL     OW 1901   2.300   2.254   1.499
  628SOL    HW1 1902   2.382   2.198   1.508
  628SOL    HW2 1903   2.219   2.196   1.503
  629SOL     OW 1904   1.984   2.505   0.563
  629SOL    HW1 1905   1.939   2.417   0.580
  629SOL    HW2 1906   1.983   2.559   0.647
  630SOL     OW 1907   1.975   2.599   1.597
  630SOL    HW1 1908   2.063   2.586   1.642
  630SOL    HW2 1909   1.962   2.696   1.575
  631SOL     OW 1910   2.671   1.866   0.502
  631SOL    HW1 1911   2.711   1.957   0.493
  631SOL    HW2 1912   2.571   1.874   0.508
  632SOL     OW 1913   2.179   2.113   1.801
  632SOL    HW1 1914   2.250   2.184   1.807
  632SOL    HW2 1915   2.091   2.152   1.829
  633SOL     OW 1916   2.460   2.591   0.270
  633SOL    HW1 1917   2.484   2.660   0.202
  633SOL    HW2 1918   2.382   2.624   0.324
  634SOL     OW 1919   2.669   2.467   1.465
  634SOL    HW1 1920   2.622   2.464   1.554
  634SOL    HW2 1921   2.618   2.412   1.399
  635SOL     OW 1922   1.938   2.673   0.789
  635SOL    HW1 1923   2.037   2.661   0.798
  635SOL    HW2 1924   1.914   2.768   0.810
  636SOL     OW 1925   2.727   2.210   0.195
  636SOL    HW1 1926   2.786   2.273   0.146
  636SOL    HW2 1927   2.746   2.116   0.166
  637SOL     OW 1928   2.412   2.058   0.885
  637SOL    HW1 1929   2.407   2.053   0.985
  637SOL    HW2 1930   2.414   2.154   0.856
  638SOL     OW 1931   2.064   2.147   1.498
  638SOL    HW1 1932   1.984   2.207   1.485
  638SOL    HW2 1933   2.054   2.098   1.584
  639SOL     OW 1934   2.244   2.562   0.480
  639SOL    HW1 1935   2.289   2.472   0.477
  639SOL    HW2 1936   2.150   2.551   0.513
  640SOL     OW 1937   2.643   2.126   1.749
  640SOL    HW1 1938   2.710   2.065   1.792
  640SOL    HW2 1939   2.570   2.145   1.814
  641SOL     OW 1940   2.784   2.365   0.899
  641SOL    HW1 1941   2.759   2.356   0.803
  641SOL    HW2 1942   2.832   2.283   0.930
  642SOL     OW 1943   2.401   1.926   0.512
  642SOL    HW1 1944   2.320   1.927   0.570
  642SOL    HW2 1945   2.404   2.009   0.457
  643SOL     OW 1946   2.159   1.897   0.171
  643SOL    HW1 1947   2.208   1.981   0.150
  643SOL    HW2 1948   2.221   1.832   0.216
  644SOL     OW 1949   1.940   2.418   1.386
  644SOL    HW1 1950   2.032   2.417   1.345
  644SOL    HW2 1951   1.934   2.492   1.453
  645SOL     OW 1952   2.423   2.084   1.147
  645SOL    HW1 1953   2.461   2.000   1.184
  645SOL    HW2 1954   2.335   2.103   1.191
  646SOL     OW 1955   2.389   2.118   0.328
  646SOL    HW1 1956   2.416   2.059   0.253
  646SOL    HW2 1957   2.389   2.213   0.297
  647SOL     OW 1958   2.777   1.951   1.402
  647SOL    HW1 1959   2.802   1.931   1.307
  647SOL    HW2 1960   2.849   2.007   1.444
  648SOL     OW 1961   2.272   2.675   1.251
  648SOL    HW1 1962   2.358   2.687   1.301
  648SOL    HW2 1963   2.230   2.588   1.278
  649SOL     OW 1964   2.428   2.399   0.865
  649SOL    HW1 1965   2.440   2.465   0.791
  649SOL    HW2 1966   2.474   2.433   0.948
  650SOL     OW 1967   2.264   2.613   1.598
  650SOL    HW1 1968   2.332   2.668   1.551
  650SOL    HW2 1969   2.304   2.525   1.625
  651SOL     OW 1970   2.366   1.912   1.740
  651SOL    HW1 1971   2.324   1.855   1.670
  651SOL    HW2 1972   2.300   1.981   1.772
  652SOL     OW 1973   2.435   2.732   1.029
  652SOL    HW1 1974   2.479   2.821   1.020
  652SOL    HW2 1975   2.372   2.732   1.106
  653SOL     OW 1976   2.169   2.075   1.231
  653SOL    HW1 1977   2.146   2.112   1.321
  653SOL    HW2 1978   2.139   1.980   1.225
  654SOL     OW 1979   2.594   2.496   1.064
  654SOL    HW1 1980   2.653   2.470   0.988
  654SOL    HW2 1981   2.566   2.592   1.053
  655SOL     OW 1982   2.169   1.925   0.618
  655SOL    HW1 1983   2.158   2.019   0.651
  655SOL    HW2 1984   2.164   1.862   0.695
  656SOL     OW 1985   2.885   2.628   0.966
  656SOL    HW1 1986   2.900   2.649   1.062
  656SOL    HW2 1987   2.855   2.533   0.957
  657SOL     OW 1988   2.181   2.672   0.949
  657SOL    HW1 1989   2.274   2.708   0.954
  657SOL    HW2 1990   2.175   2.587   1.001
  658SOL     OW 1991   2.201   2.371   1.006
  658SOL    HW1 1992   2.149   2.288   0.989
  658SOL    HW2 1993   2.278   2.376   0.942
  659SOL     OW 1994   2.864   2.658   1.238
  659SOL    HW1 1995   2.905   2.626   1.324
  659SOL    HW2 1996   2.768   2.631   1.235
  660SOL     OW 1997   1.902   2.406   1.114
  660SOL    HW1 1998   1.987   2.373   1.073
  660SOL    HW2 1999   1.915   2.421   1.212
  661SOL     OW 2000   2.051   2.382   1.722
  661SOL    HW1 2001   2.110   2.342   1.652
  661SOL    HW2 2002   1.993   2.453   1.681
  662SOL     OW 2003   2.677   2.434   0.325
  662SOL    HW1 2004   2.684   2.345   0.279
  662SOL    HW2 2005   2.583   2.468   0.317
  663SOL     OW 2006   2.533   2.326   1.269
  663SOL    HW1 2007   2.499   2.237   1.239
  663SOL    HW2 2008   2.559   2.380   1.189
  664SOL     OW 2009   2.335   2.362   0.191
  664SOL    HW1 2010   2.396   2.442   0.195
  664SOL    HW2 2011   2.240   2.393   0.198
  665SOL     OW 2012   2.765   1.948   0.133
  665SOL    HW1 2013   2.816   1.949   0.047
  665SOL    HW2 2014   2.821   1.906   0.204
  666SOL     OW 2015   2.125   2.188   0.720
  666SOL    HW1 2016   2.046   2.239   0.686
  666SOL    HW2 2017   2.116   2.173   0.818
  667SOL     OW 2018   2.901   2.960   0.696
  667SOL    HW1 2019   2.831   2.913   0.750
  667SOL    HW2 2020   2.960   2.892   0.653
  668SOL     OW 2021   1.967   2.875   1.726
  668SOL    HW1 2022   1.890   2.842   1.780
  668SOL    HW2 2023   2.052   2.845   1.768
  669SOL     OW 2024   2.534   2.065   1.489
  669SOL    HW1 2025   2.624   2.049   1.449
  669SOL    HW2 2026   2.542   2.070   1.588
  670SOL     OW 2027   1.934   2.028   0.318
  670SOL    HW1 2028   1.917   2.111   0.264
  670SOL    HW2 2029   2.024   1.991   0.296
  671SOL     OW 2030   2.475   2.704   1.431
  671SOL    HW1 2031   2.531   2.785   1.414
  671SOL    HW2 2032   2.534   2.624   1.434
  672SOL     OW 2033   2.578   2.427   1.708
  672SOL    HW1 2034   2.597   2.492   1.782
  672SOL    HW2 2035   2.638   2.347   1.717
  673SOL     OW 2036   2.456   2.607   0.652
  673SOL    HW1 2037   2.506   2.692   0.633
  673SOL    HW2 2038   2.368   2.609   0.604
  674SOL     OW 2039   2.290   2.286   0.520
  674SOL    HW1 2040   2.320   2.214   0.458
  674SOL    HW2 2041   2.251   2.246   0.603
  675SOL     OW 2042   2.179   2.409   1.280
  675SOL    HW1 2043   2.217   2.350   1.352
  675SOL    HW2 2044   2.219   2.383   1.192
  676SOL     OW 2045   2.092   2.490   1.975
  676SOL    HW1 2046   1.999   2.488   2.012
  676SOL    HW2 2047   2.093   2.451   1.883
  677SOL     OW 2048   2.087   2.137   2.858
  677SOL    HW1 2049   2.122   2.120   2.950
  677SOL    HW2 2050   1.999   2.092   2.846
  678SOL     OW 2051   1.881   2.230   2.509
  678SOL    HW1 2052   1.799   2.273   2.548
  678SOL    HW2 2053   1.853   2.157   2.446
  679SOL     OW 2054   2.547   2.874   2.527
  679SOL    HW1 2055   2.616   2.858   2.597
  679SOL    HW2 2056   2.474   2.931   2.565
  680SOL     OW 2057   1.984   2.505   2.425
  680SOL    HW1 2058   1.939   2.417   2.442
  680SOL    HW2 2059   1.983   2.559   2.509
  681SOL     OW 2060   2.671   1.866   2.364
  681SOL    HW1 2061   2.711   1.957   2.355
  681SOL    HW2 2062   2.571   1.874   2.370
  682SOL     OW 2063   2.460   2.591   2.132
  682SOL    HW1 2064   2.484   2.660   2.064
  682SOL    HW2 2065   2.382   2.624   2.186
  683SOL     OW 2066   1.938   2.673   2.651
  683SOL    HW1 2067   2.037   2.661   2.660
  683SOL    HW2 2068   1.914   2.768   2.672
  684SOL     OW 2069   2.727   2.210   2.057
  684SOL    HW1 2070   2.786   2.273   2.008
  684SOL    HW2 2071   2.746   2.116   2.028
  685SOL     OW 2072   2.412   2.058   2.747
  685SOL    HW1 2073   2.407   2.053   2.847
  685SOL    HW2 2074   2.414   2.154   2.718
  686SOL     OW 2075   2.244   2.562   2.342
  686SOL    HW1 2076   2.289   2.472   2.339
  686SOL    HW2 2077   2.150   2.551   2.375
  687SOL     OW 2078   2.476   1.984   1.979
  687SOL    HW1 2079   2.574   1.962   1.986
  687SOL    HW2 2080   2.445   1.967   1.886
  688SOL     OW 2081   2.401   1.926   2.374
  688SOL    HW1 2082   2.320   1.927   2.432
  688SOL    HW2 2083   2.404   2.009   2.319
  689SOL     OW 2084   2.159   1.897   2.033
  689SOL    HW1 2085   2.208   1.981   2.012
  689SOL    HW2 2086   2.221   1.832   2.078
  690SOL     OW 2087   2.321   3.014   2.603
  690SOL    HW1 2088   2.250   2.987   2.668
  690SOL    HW2 2089   2.295   2.986   2.510
  691SOL     OW 2090   2.389   2.118   2.190
  691SOL    HW1 2091   2.416   2.059   2.115
  691SOL    HW2 2092   2.389   2.213   2.159
  692SOL     OW 2093   2.428   2.399   2.727
  692SOL    HW1 2094   2.440   2.465   2.653
  692SOL    HW2 2095   2.474   2.433   2.810
  693SOL     OW 2096   2.594   2.496   2.926
  693SOL    HW1 2097   2.653   2.470   2.850
  693SOL    HW2 2098   2.566   2.592   2.915
  694SOL     OW 2099   2.169   1.925   2.480
  694SOL    HW1 2100   2.158   2.019   2.513
  694SOL    HW2 2101   2.164   1.862   2.557
  695SOL     OW 2102   2.885   2.628   2.828
  695SOL    HW1 2103   2.900   2.649   2.924
  695SOL    HW2 2104   2.855   2.533   2.819
  696SOL     OW 2105   2.677   2.434   2.187
  696SOL    HW1 2106   2.684   2.345   2.141
  696SOL    HW2 2107   2.583   2.468   2.179
  697SOL     OW 2108   2.335   2.362   2.053
  697SOL    HW1 2109   2.396   2.442   2.057
  697SOL    HW2 2110   2.240   2.393   2.060
  698SOL     OW 2111   2.765   1.948   1.995
  698SOL    HW1 2112   2.816   1.949   1.909
  698SOL    HW2 2113   2.821   1.906   2.066
  699SOL     OW 2114   2.125   2.188   2.582
  699SOL    HW1 2115   2.046   2.239   2.548
  699SOL    HW2 2116   2.116   2.173   2.680
  700SOL     OW 2117   2.901   2.960   2.558
  700SOL    HW1 2118   2.831   2.913   2.612
  700SOL    HW2 2119   2.960   2.892   2.515
  701SOL     OW 2120   1.937   2.207   1.895
  701SOL    HW1 2121   1.845   2.179   1.866
  701SOL    HW2 2122   1.968   2.284   1.839
  702SOL     OW 2123   1.934   2.028   2.180
  702SOL    HW1 2124   1.917   2.111   2.126
  702SOL    HW2 2125   2.024   1.991   2.158
  703SOL     OW 2126   2.456   2.607   2.514
  703SOL    HW1 2127   2.506   2.692   2.495
  703SOL    HW2 2128   2.368   2.609   2.466
  704SOL     OW 2129   2.290   2.286   2.382
  704SOL    HW1 2130   2.320   2.214   2.320
  704SOL    HW2 2131   2.251   2.246   2.465
   2.80558   2.80558   2.80558
