; mobley_9510785_GMX.itp created by acpype (v: 2023.10.27) on Thu May 14 13:47:22 2026

[ atomtypes ]
;name   bond_type     mass     charge   ptype   sigma         epsilon       Amb
 ca       ca          0.00000  0.00000   A     3.31521e-01   4.13379e-01 ; 1.86  0.0988
 cp       cp          0.00000  0.00000   A     3.31521e-01   4.13379e-01 ; 1.86  0.0988
 cl       cl          0.00000  0.00000   A     3.46595e-01   1.10374e+00 ; 1.95  0.2638
 ha       ha          0.00000  0.00000   A     2.62548e-01   6.73624e-02 ; 1.47  0.0161

[ moleculetype ]
;name            nrexcl
 mobley_9510785   3

[ atoms ]
;   nr  type  resi  res  atom  cgnr     charge      mass       ; qtot   bond_type
     1   ca     1   MOL    C1    1    -0.119000     12.01000 ; qtot -0.119
     2   ca     1   MOL    C2    2    -0.131000     12.01000 ; qtot -0.250
     3   ca     1   MOL    C3    3    -0.131000     12.01000 ; qtot -0.381
     4   ca     1   MOL    C4    4    -0.105000     12.01000 ; qtot -0.486
     5   ca     1   MOL    C5    5    -0.105000     12.01000 ; qtot -0.591
     6   ca     1   MOL    C6    6    -0.101000     12.01000 ; qtot -0.692
     7   cp     1   MOL    C7    7    -0.058000     12.01000 ; qtot -0.750
     8   cp     1   MOL    C8    8    -0.014000     12.01000 ; qtot -0.764
     9   ca     1   MOL    C9    9     0.019400     12.01000 ; qtot -0.745
    10   ca     1   MOL   C10   10     0.032400     12.01000 ; qtot -0.712
    11   ca     1   MOL   C11   11     0.022400     12.01000 ; qtot -0.690
    12   ca     1   MOL   C12   12     0.019400     12.01000 ; qtot -0.670
    13   cl     1   MOL   CL1   13    -0.056400     35.45000 ; qtot -0.727
    14   cl     1   MOL   CL2   14    -0.046400     35.45000 ; qtot -0.773
    15   cl     1   MOL   CL3   15    -0.038400     35.45000 ; qtot -0.812
    16   cl     1   MOL   CL4   16    -0.039400     35.45000 ; qtot -0.851
    17   ha     1   MOL    H1   17     0.135000      1.00800 ; qtot -0.716
    18   ha     1   MOL    H2   18     0.136000      1.00800 ; qtot -0.580
    19   ha     1   MOL    H3   19     0.136000      1.00800 ; qtot -0.444
    20   ha     1   MOL    H4   20     0.139000      1.00800 ; qtot -0.305
    21   ha     1   MOL    H5   21     0.139000      1.00800 ; qtot -0.166
    22   ha     1   MOL    H6   22     0.166000      1.00800 ; qtot -0.000

[ bonds ]
;   ai     aj funct   r             k
     1      2   1    1.3986e-01    2.9644e+05 ;     C1 - C2    
     1      3   1    1.3986e-01    2.9644e+05 ;     C1 - C3    
     1     17   1    1.0860e-01    3.0183e+05 ;     C1 - H1    
     2      4   1    1.3986e-01    2.9644e+05 ;     C2 - C4    
     2     18   1    1.0860e-01    3.0183e+05 ;     C2 - H2    
     3      5   1    1.3986e-01    2.9644e+05 ;     C3 - C5    
     3     19   1    1.0860e-01    3.0183e+05 ;     C3 - H3    
     4      7   1    1.4056e-01    2.8959e+05 ;     C4 - C7    
     4     20   1    1.0860e-01    3.0183e+05 ;     C4 - H4    
     5      7   1    1.4056e-01    2.8959e+05 ;     C5 - C7    
     5     21   1    1.0860e-01    3.0183e+05 ;     C5 - H5    
     6      8   1    1.4056e-01    2.8959e+05 ;     C6 - C8    
     6      9   1    1.3986e-01    2.9644e+05 ;     C6 - C9    
     6     22   1    1.0860e-01    3.0183e+05 ;     C6 - H6    
     7      8   1    1.4829e-01    2.2541e+05 ;     C7 - C8    
     8     10   1    1.4056e-01    2.8959e+05 ;     C8 - C10   
     9     11   1    1.3986e-01    2.9644e+05 ;     C9 - C11   
     9     13   1    1.7572e-01    1.5730e+05 ;     C9 - CL1   
    10     12   1    1.3986e-01    2.9644e+05 ;    C10 - C12   
    10     14   1    1.7572e-01    1.5730e+05 ;    C10 - CL2   
    11     12   1    1.3986e-01    2.9644e+05 ;    C11 - C12   
    11     15   1    1.7572e-01    1.5730e+05 ;    C11 - CL3   
    12     16   1    1.7572e-01    1.5730e+05 ;    C12 - CL4   

[ pairs ]
;   ai     aj    funct
     1      7      1 ;     C1 - C7    
     1     20      1 ;     C1 - H4    
     1     21      1 ;     C1 - H5    
     2      5      1 ;     C2 - C5    
     2      8      1 ;     C2 - C8    
     2     19      1 ;     C2 - H3    
     3      4      1 ;     C3 - C4    
     3      8      1 ;     C3 - C8    
     3     18      1 ;     C3 - H2    
     4      6      1 ;     C4 - C6    
     4     10      1 ;     C4 - C10   
     4     21      1 ;     C4 - H5    
     5      6      1 ;     C5 - C6    
     5     10      1 ;     C5 - C10   
     5     20      1 ;     C5 - H4    
     6     12      1 ;     C6 - C12   
     6     14      1 ;     C6 - CL2   
     6     15      1 ;     C6 - CL3   
     7      9      1 ;     C7 - C9    
     7     12      1 ;     C7 - C12   
     7     14      1 ;     C7 - CL2   
     7     18      1 ;     C7 - H2    
     7     19      1 ;     C7 - H3    
     7     22      1 ;     C7 - H6    
     8     11      1 ;     C8 - C11   
     8     13      1 ;     C8 - CL1   
     8     16      1 ;     C8 - CL4   
     8     20      1 ;     C8 - H4    
     8     21      1 ;     C8 - H5    
     9     10      1 ;     C9 - C10   
     9     16      1 ;     C9 - CL4   
    10     15      1 ;    C10 - CL3   
    10     22      1 ;    C10 - H6    
    11     14      1 ;    C11 - CL2   
    11     22      1 ;    C11 - H6    
    12     13      1 ;    C12 - CL1   
    13     15      1 ;    CL1 - CL3   
    13     22      1 ;    CL1 - H6    
    14     16      1 ;    CL2 - CL4   
    15     16      1 ;    CL3 - CL4   
    17      4      1 ;     H1 - C4    
    17      5      1 ;     H1 - C5    
    17     18      1 ;     H1 - H2    
    17     19      1 ;     H1 - H3    
    18     20      1 ;     H2 - H4    
    19     21      1 ;     H3 - H5    

[ angles ]
;   ai     aj     ak    funct   theta         cth
     1      2      4      1    1.2002e+02    5.3279e+02 ;     C1 - C2     - C4    
     1      2     18      1    1.1988e+02    3.7572e+02 ;     C1 - C2     - H2    
     1      3      5      1    1.2002e+02    5.3279e+02 ;     C1 - C3     - C5    
     1      3     19      1    1.1988e+02    3.7572e+02 ;     C1 - C3     - H3    
     2      1      3      1    1.2002e+02    5.3279e+02 ;     C2 - C1     - C3    
     2      1     17      1    1.1988e+02    3.7572e+02 ;     C2 - C1     - H1    
     2      4      7      1    1.2073e+02    5.2995e+02 ;     C2 - C4     - C7    
     2      4     20      1    1.1988e+02    3.7572e+02 ;     C2 - C4     - H4    
     3      1     17      1    1.1988e+02    3.7572e+02 ;     C3 - C1     - H1    
     3      5      7      1    1.2073e+02    5.2995e+02 ;     C3 - C5     - C7    
     3      5     21      1    1.1988e+02    3.7572e+02 ;     C3 - C5     - H5    
     4      2     18      1    1.1988e+02    3.7572e+02 ;     C4 - C2     - H2    
     4      7      5      1    1.1841e+02    5.3379e+02 ;     C4 - C7     - C5    
     4      7      8      1    1.2110e+02    5.1296e+02 ;     C4 - C7     - C8    
     5      3     19      1    1.1988e+02    3.7572e+02 ;     C5 - C3     - H3    
     5      7      8      1    1.2110e+02    5.1296e+02 ;     C5 - C7     - C8    
     6      8      7      1    1.2110e+02    5.1296e+02 ;     C6 - C8     - C7    
     6      8     10      1    1.1841e+02    5.3379e+02 ;     C6 - C8     - C10   
     6      9     11      1    1.2002e+02    5.3279e+02 ;     C6 - C9     - C11   
     6      9     13      1    1.1938e+02    5.3605e+02 ;     C6 - C9     - CL1   
     7      4     20      1    1.1982e+02    3.7430e+02 ;     C7 - C4     - H4    
     7      5     21      1    1.1982e+02    3.7430e+02 ;     C7 - C5     - H5    
     7      8     10      1    1.2110e+02    5.1296e+02 ;     C7 - C8     - C10   
     8      6      9      1    1.2073e+02    5.2995e+02 ;     C8 - C6     - C9    
     8      6     22      1    1.1982e+02    3.7430e+02 ;     C8 - C6     - H6    
     8     10     12      1    1.2073e+02    5.2995e+02 ;     C8 - C10    - C12   
     8     10     14      1    1.2044e+02    5.3304e+02 ;     C8 - C10    - CL2   
     9      6     22      1    1.1988e+02    3.7572e+02 ;     C9 - C6     - H6    
     9     11     12      1    1.2002e+02    5.3279e+02 ;     C9 - C11    - C12   
     9     11     15      1    1.1938e+02    5.3605e+02 ;     C9 - C11    - CL3   
    10     12     11      1    1.2002e+02    5.3279e+02 ;    C10 - C12    - C11   
    10     12     16      1    1.1938e+02    5.3605e+02 ;    C10 - C12    - CL4   
    11      9     13      1    1.1938e+02    5.3605e+02 ;    C11 - C9     - CL1   
    11     12     16      1    1.1938e+02    5.3605e+02 ;    C11 - C12    - CL4   
    12     10     14      1    1.1938e+02    5.3605e+02 ;    C12 - C10    - CL2   
    12     11     15      1    1.1938e+02    5.3605e+02 ;    C12 - C11    - CL3   

[ dihedrals ] ; propers
; for gromacs 4.5 or higher, using funct 9
;    i      j      k      l   func   phase     kd      pn
     1      2      4      7      9   180.00  15.16700   2 ;     C1-    C2-    C4-    C7
     1      2      4     20      9   180.00  15.16700   2 ;     C1-    C2-    C4-    H4
     1      3      5      7      9   180.00  15.16700   2 ;     C1-    C3-    C5-    C7
     1      3      5     21      9   180.00  15.16700   2 ;     C1-    C3-    C5-    H5
     2      1      3      5      9   180.00  15.16700   2 ;     C2-    C1-    C3-    C5
     2      1      3     19      9   180.00  15.16700   2 ;     C2-    C1-    C3-    H3
     2      4      7      5      9   180.00  15.16700   2 ;     C2-    C4-    C7-    C5
     2      4      7      8      9   180.00  15.16700   2 ;     C2-    C4-    C7-    C8
     3      1      2      4      9   180.00  15.16700   2 ;     C3-    C1-    C2-    C4
     3      1      2     18      9   180.00  15.16700   2 ;     C3-    C1-    C2-    H2
     3      5      7      4      9   180.00  15.16700   2 ;     C3-    C5-    C7-    C4
     3      5      7      8      9   180.00  15.16700   2 ;     C3-    C5-    C7-    C8
     4      7      5     21      9   180.00  15.16700   2 ;     C4-    C7-    C5-    H5
     4      7      8      6      9   180.00   3.20076   2 ;     C4-    C7-    C8-    C6
     4      7      8     10      9   180.00   3.20076   2 ;     C4-    C7-    C8-   C10
     5      7      4     20      9   180.00  15.16700   2 ;     C5-    C7-    C4-    H4
     5      7      8      6      9   180.00   3.20076   2 ;     C5-    C7-    C8-    C6
     5      7      8     10      9   180.00   3.20076   2 ;     C5-    C7-    C8-   C10
     6      8     10     12      9   180.00  15.16700   2 ;     C6-    C8-   C10-   C12
     6      8     10     14      9   180.00  15.16700   2 ;     C6-    C8-   C10-   CL2
     6      9     11     12      9   180.00  15.16700   2 ;     C6-    C9-   C11-   C12
     6      9     11     15      9   180.00  15.16700   2 ;     C6-    C9-   C11-   CL3
     7      4      2     18      9   180.00  15.16700   2 ;     C7-    C4-    C2-    H2
     7      5      3     19      9   180.00  15.16700   2 ;     C7-    C5-    C3-    H3
     7      8      6      9      9   180.00  15.16700   2 ;     C7-    C8-    C6-    C9
     7      8      6     22      9   180.00  15.16700   2 ;     C7-    C8-    C6-    H6
     7      8     10     12      9   180.00  15.16700   2 ;     C7-    C8-   C10-   C12
     7      8     10     14      9   180.00  15.16700   2 ;     C7-    C8-   C10-   CL2
     8      6      9     11      9   180.00  15.16700   2 ;     C8-    C6-    C9-   C11
     8      6      9     13      9   180.00  15.16700   2 ;     C8-    C6-    C9-   CL1
     8      7      4     20      9   180.00  15.16700   2 ;     C8-    C7-    C4-    H4
     8      7      5     21      9   180.00  15.16700   2 ;     C8-    C7-    C5-    H5
     8     10     12     11      9   180.00  15.16700   2 ;     C8-   C10-   C12-   C11
     8     10     12     16      9   180.00  15.16700   2 ;     C8-   C10-   C12-   CL4
     9      6      8     10      9   180.00  15.16700   2 ;     C9-    C6-    C8-   C10
     9     11     12     10      9   180.00  15.16700   2 ;     C9-   C11-   C12-   C10
     9     11     12     16      9   180.00  15.16700   2 ;     C9-   C11-   C12-   CL4
    10      8      6     22      9   180.00  15.16700   2 ;    C10-    C8-    C6-    H6
    10     12     11     15      9   180.00  15.16700   2 ;    C10-   C12-   C11-   CL3
    11      9      6     22      9   180.00  15.16700   2 ;    C11-    C9-    C6-    H6
    11     12     10     14      9   180.00  15.16700   2 ;    C11-   C12-   C10-   CL2
    12     11      9     13      9   180.00  15.16700   2 ;    C12-   C11-    C9-   CL1
    13      9      6     22      9   180.00  15.16700   2 ;    CL1-    C9-    C6-    H6
    13      9     11     15      9   180.00  15.16700   2 ;    CL1-    C9-   C11-   CL3
    14     10     12     16      9   180.00  15.16700   2 ;    CL2-   C10-   C12-   CL4
    15     11     12     16      9   180.00  15.16700   2 ;    CL3-   C11-   C12-   CL4
    17      1      2      4      9   180.00  15.16700   2 ;     H1-    C1-    C2-    C4
    17      1      2     18      9   180.00  15.16700   2 ;     H1-    C1-    C2-    H2
    17      1      3      5      9   180.00  15.16700   2 ;     H1-    C1-    C3-    C5
    17      1      3     19      9   180.00  15.16700   2 ;     H1-    C1-    C3-    H3
    18      2      4     20      9   180.00  15.16700   2 ;     H2-    C2-    C4-    H4
    19      3      5     21      9   180.00  15.16700   2 ;     H3-    C3-    C5-    H5

[ dihedrals ] ; impropers
; treated as propers in GROMACS to use correct AMBER analytical function
;    i      j      k      l   func   phase     kd      pn
     1      4      2     18      4   180.00   4.60240   2 ;     C1-    C4-    C2-    H2
     1      5      3     19      4   180.00   4.60240   2 ;     C1-    C5-    C3-    H3
     2      7      4     20      4   180.00   4.60240   2 ;     C2-    C7-    C4-    H4
     3      7      5     21      4   180.00   4.60240   2 ;     C3-    C7-    C5-    H5
     4      5      7      8      4   180.00   4.60240   2 ;     C4-    C5-    C7-    C8
     6     10      8      7      4   180.00   4.60240   2 ;     C6-   C10-    C8-    C7
     6     11      9     13      4   180.00   4.60240   2 ;     C6-   C11-    C9-   CL1
     9      8      6     22      4   180.00   4.60240   2 ;     C9-    C8-    C6-    H6
     9     12     11     15      4   180.00   4.60240   2 ;     C9-   C12-   C11-   CL3
    10     11     12     16      4   180.00   4.60240   2 ;    C10-   C11-   C12-   CL4
    12     14     10      8      4   180.00   4.60240   2 ;    C12-   CL2-   C10-    C8
    17      1      3      2      4   180.00   4.60240   2 ;     H1-    C1-    C3-    C2
