; mobley_2960202_GMX.itp created by acpype (v: 2023.10.27) on Thu May 14 13:40:11 2026

[ atomtypes ]
;name   bond_type     mass     charge   ptype   sigma         epsilon       Amb
 ca       ca          0.00000  0.00000   A     3.31521e-01   4.13379e-01 ; 1.86  0.0988
 os       os          0.00000  0.00000   A     3.15610e-01   3.03758e-01 ; 1.77  0.0726
 cl       cl          0.00000  0.00000   A     3.46595e-01   1.10374e+00 ; 1.95  0.2638
 ha       ha          0.00000  0.00000   A     2.62548e-01   6.73624e-02 ; 1.47  0.0161

[ moleculetype ]
;name            nrexcl
 mobley_2960202   3

[ atoms ]
;   nr  type  resi  res  atom  cgnr     charge      mass       ; qtot   bond_type
     1   ca     1   MOL    C1    1    -0.166300     12.01000 ; qtot -0.166
     2   ca     1   MOL    C2    2    -0.166300     12.01000 ; qtot -0.333
     3   ca     1   MOL    C3    3     0.217700     12.01000 ; qtot -0.115
     4   ca     1   MOL    C4    4     0.217700     12.01000 ; qtot 0.103
     5   ca     1   MOL    C5    5     0.231700     12.01000 ; qtot 0.335
     6   ca     1   MOL    C6    6     0.231700     12.01000 ; qtot 0.566
     7   ca     1   MOL    C7    7     0.020400     12.01000 ; qtot 0.587
     8   ca     1   MOL    C8    8     0.020400     12.01000 ; qtot 0.607
     9   ca     1   MOL    C9    9    -0.035900     12.01000 ; qtot 0.571
    10   ca     1   MOL   C10   10    -0.035900     12.01000 ; qtot 0.535
    11   ca     1   MOL   C11   11     0.021400     12.01000 ; qtot 0.557
    12   ca     1   MOL   C12   12     0.021400     12.01000 ; qtot 0.578
    13   os     1   MOL    O1   13    -0.369800     16.00000 ; qtot 0.208
    14   os     1   MOL    O2   14    -0.369800     16.00000 ; qtot -0.162
    15   cl     1   MOL   CL1   15    -0.050400     35.45000 ; qtot -0.212
    16   cl     1   MOL   CL2   16    -0.050400     35.45000 ; qtot -0.262
    17   cl     1   MOL   CL3   17    -0.019400     35.45000 ; qtot -0.282
    18   cl     1   MOL   CL4   18    -0.019400     35.45000 ; qtot -0.301
    19   cl     1   MOL   CL5   19    -0.027400     35.45000 ; qtot -0.329
    20   cl     1   MOL   CL6   20    -0.027400     35.45000 ; qtot -0.356
    21   ha     1   MOL    H1   21     0.178000      1.00800 ; qtot -0.178
    22   ha     1   MOL    H2   22     0.178000      1.00800 ; qtot 0.000

[ bonds ]
;   ai     aj funct   r             k
     1      3   1    1.3986e-01    2.9644e+05 ;     C1 - C3    
     1      7   1    1.3986e-01    2.9644e+05 ;     C1 - C7    
     1     21   1    1.0860e-01    3.0183e+05 ;     C1 - H1    
     2      4   1    1.3986e-01    2.9644e+05 ;     C2 - C4    
     2      8   1    1.3986e-01    2.9644e+05 ;     C2 - C8    
     2     22   1    1.0860e-01    3.0183e+05 ;     C2 - H2    
     3      4   1    1.3986e-01    2.9644e+05 ;     C3 - C4    
     3     13   1    1.3688e-01    2.8731e+05 ;     C3 - O1    
     4     14   1    1.3688e-01    2.8731e+05 ;     C4 - O2    
     5      6   1    1.3986e-01    2.9644e+05 ;     C5 - C6    
     5      9   1    1.3986e-01    2.9644e+05 ;     C5 - C9    
     5     13   1    1.3688e-01    2.8731e+05 ;     C5 - O1    
     6     10   1    1.3986e-01    2.9644e+05 ;     C6 - C10   
     6     14   1    1.3688e-01    2.8731e+05 ;     C6 - O2    
     7      8   1    1.3986e-01    2.9644e+05 ;     C7 - C8    
     7     15   1    1.7572e-01    1.5730e+05 ;     C7 - CL1   
     8     16   1    1.7572e-01    1.5730e+05 ;     C8 - CL2   
     9     11   1    1.3986e-01    2.9644e+05 ;     C9 - C11   
     9     17   1    1.7572e-01    1.5730e+05 ;     C9 - CL3   
    10     12   1    1.3986e-01    2.9644e+05 ;    C10 - C12   
    10     18   1    1.7572e-01    1.5730e+05 ;    C10 - CL4   
    11     12   1    1.3986e-01    2.9644e+05 ;    C11 - C12   
    11     19   1    1.7572e-01    1.5730e+05 ;    C11 - CL5   
    12     20   1    1.7572e-01    1.5730e+05 ;    C12 - CL6   

[ pairs ]
;   ai     aj    funct
     1      2      1 ;     C1 - C2    
     1      5      1 ;     C1 - C5    
     1     14      1 ;     C1 - O2    
     1     16      1 ;     C1 - CL2   
     2      6      1 ;     C2 - C6    
     2     13      1 ;     C2 - O1    
     2     15      1 ;     C2 - CL1   
     3      6      1 ;     C3 - C6    
     3      8      1 ;     C3 - C8    
     3      9      1 ;     C3 - C9    
     3     15      1 ;     C3 - CL1   
     3     22      1 ;     C3 - H2    
     4      5      1 ;     C4 - C5    
     4      7      1 ;     C4 - C7    
     4     10      1 ;     C4 - C10   
     4     16      1 ;     C4 - CL2   
     5     12      1 ;     C5 - C12   
     5     18      1 ;     C5 - CL4   
     5     19      1 ;     C5 - CL5   
     6     11      1 ;     C6 - C11   
     6     17      1 ;     C6 - CL3   
     6     20      1 ;     C6 - CL6   
     7     13      1 ;     C7 - O1    
     7     22      1 ;     C7 - H2    
     8     14      1 ;     C8 - O2    
     9     10      1 ;     C9 - C10   
     9     14      1 ;     C9 - O2    
     9     20      1 ;     C9 - CL6   
    10     13      1 ;    C10 - O1    
    10     19      1 ;    C10 - CL5   
    11     13      1 ;    C11 - O1    
    11     18      1 ;    C11 - CL4   
    12     14      1 ;    C12 - O2    
    12     17      1 ;    C12 - CL3   
    13     14      1 ;     O1 - O2    
    13     17      1 ;     O1 - CL3   
    14     18      1 ;     O2 - CL4   
    14     22      1 ;     O2 - H2    
    15     16      1 ;    CL1 - CL2   
    16     22      1 ;    CL2 - H2    
    17     19      1 ;    CL3 - CL5   
    18     20      1 ;    CL4 - CL6   
    19     20      1 ;    CL5 - CL6   
    21      4      1 ;     H1 - C4    
    21      8      1 ;     H1 - C8    
    21     13      1 ;     H1 - O1    
    21     15      1 ;     H1 - CL1   

[ angles ]
;   ai     aj     ak    funct   theta         cth
     1      3      4      1    1.2002e+02    5.3279e+02 ;     C1 - C3     - C4    
     1      3     13      1    1.1911e+02    6.6107e+02 ;     C1 - C3     - O1    
     1      7      8      1    1.2002e+02    5.3279e+02 ;     C1 - C7     - C8    
     1      7     15      1    1.1938e+02    5.3605e+02 ;     C1 - C7     - CL1   
     2      4      3      1    1.2002e+02    5.3279e+02 ;     C2 - C4     - C3    
     2      4     14      1    1.1911e+02    6.6107e+02 ;     C2 - C4     - O2    
     2      8      7      1    1.2002e+02    5.3279e+02 ;     C2 - C8     - C7    
     2      8     16      1    1.1938e+02    5.3605e+02 ;     C2 - C8     - CL2   
     3      1      7      1    1.2002e+02    5.3279e+02 ;     C3 - C1     - C7    
     3      1     21      1    1.1988e+02    3.7572e+02 ;     C3 - C1     - H1    
     3      4     14      1    1.1911e+02    6.6107e+02 ;     C3 - C4     - O2    
     3     13      5      1    1.1987e+02    7.5036e+02 ;     C3 - O1     - C5    
     4      2      8      1    1.2002e+02    5.3279e+02 ;     C4 - C2     - C8    
     4      2     22      1    1.1988e+02    3.7572e+02 ;     C4 - C2     - H2    
     4      3     13      1    1.1911e+02    6.6107e+02 ;     C4 - C3     - O1    
     4     14      6      1    1.1987e+02    7.5036e+02 ;     C4 - O2     - C6    
     5      6     10      1    1.2002e+02    5.3279e+02 ;     C5 - C6     - C10   
     5      6     14      1    1.1911e+02    6.6107e+02 ;     C5 - C6     - O2    
     5      9     11      1    1.2002e+02    5.3279e+02 ;     C5 - C9     - C11   
     5      9     17      1    1.1938e+02    5.3605e+02 ;     C5 - C9     - CL3   
     6      5      9      1    1.2002e+02    5.3279e+02 ;     C6 - C5     - C9    
     6      5     13      1    1.1911e+02    6.6107e+02 ;     C6 - C5     - O1    
     6     10     12      1    1.2002e+02    5.3279e+02 ;     C6 - C10    - C12   
     6     10     18      1    1.1938e+02    5.3605e+02 ;     C6 - C10    - CL4   
     7      1     21      1    1.1988e+02    3.7572e+02 ;     C7 - C1     - H1    
     7      8     16      1    1.1938e+02    5.3605e+02 ;     C7 - C8     - CL2   
     8      2     22      1    1.1988e+02    3.7572e+02 ;     C8 - C2     - H2    
     8      7     15      1    1.1938e+02    5.3605e+02 ;     C8 - C7     - CL1   
     9      5     13      1    1.1911e+02    6.6107e+02 ;     C9 - C5     - O1    
     9     11     12      1    1.2002e+02    5.3279e+02 ;     C9 - C11    - C12   
     9     11     19      1    1.1938e+02    5.3605e+02 ;     C9 - C11    - CL5   
    10      6     14      1    1.1911e+02    6.6107e+02 ;    C10 - C6     - O2    
    10     12     11      1    1.2002e+02    5.3279e+02 ;    C10 - C12    - C11   
    10     12     20      1    1.1938e+02    5.3605e+02 ;    C10 - C12    - CL6   
    11      9     17      1    1.1938e+02    5.3605e+02 ;    C11 - C9     - CL3   
    11     12     20      1    1.1938e+02    5.3605e+02 ;    C11 - C12    - CL6   
    12     10     18      1    1.1938e+02    5.3605e+02 ;    C12 - C10    - CL4   
    12     11     19      1    1.1938e+02    5.3605e+02 ;    C12 - C11    - CL5   

[ dihedrals ] ; propers
; for gromacs 4.5 or higher, using funct 9
;    i      j      k      l   func   phase     kd      pn
     1      3      4      2      9   180.00  15.16700   2 ;     C1-    C3-    C4-    C2
     1      3      4     14      9   180.00  15.16700   2 ;     C1-    C3-    C4-    O2
     1      3     13      5      9   180.00   3.76560   2 ;     C1-    C3-    O1-    C5
     1      7      8      2      9   180.00  15.16700   2 ;     C1-    C7-    C8-    C2
     1      7      8     16      9   180.00  15.16700   2 ;     C1-    C7-    C8-   CL2
     2      4      3     13      9   180.00  15.16700   2 ;     C2-    C4-    C3-    O1
     2      4     14      6      9   180.00   3.76560   2 ;     C2-    C4-    O2-    C6
     2      8      7     15      9   180.00  15.16700   2 ;     C2-    C8-    C7-   CL1
     3      1      7      8      9   180.00  15.16700   2 ;     C3-    C1-    C7-    C8
     3      1      7     15      9   180.00  15.16700   2 ;     C3-    C1-    C7-   CL1
     3      4      2      8      9   180.00  15.16700   2 ;     C3-    C4-    C2-    C8
     3      4      2     22      9   180.00  15.16700   2 ;     C3-    C4-    C2-    H2
     3      4     14      6      9   180.00   3.76560   2 ;     C3-    C4-    O2-    C6
     3     13      5      6      9   180.00   3.76560   2 ;     C3-    O1-    C5-    C6
     3     13      5      9      9   180.00   3.76560   2 ;     C3-    O1-    C5-    C9
     4      2      8      7      9   180.00  15.16700   2 ;     C4-    C2-    C8-    C7
     4      2      8     16      9   180.00  15.16700   2 ;     C4-    C2-    C8-   CL2
     4      3     13      5      9   180.00   3.76560   2 ;     C4-    C3-    O1-    C5
     4     14      6      5      9   180.00   3.76560   2 ;     C4-    O2-    C6-    C5
     4     14      6     10      9   180.00   3.76560   2 ;     C4-    O2-    C6-   C10
     5      6     10     12      9   180.00  15.16700   2 ;     C5-    C6-   C10-   C12
     5      6     10     18      9   180.00  15.16700   2 ;     C5-    C6-   C10-   CL4
     5      9     11     12      9   180.00  15.16700   2 ;     C5-    C9-   C11-   C12
     5      9     11     19      9   180.00  15.16700   2 ;     C5-    C9-   C11-   CL5
     6      5      9     11      9   180.00  15.16700   2 ;     C6-    C5-    C9-   C11
     6      5      9     17      9   180.00  15.16700   2 ;     C6-    C5-    C9-   CL3
     6     10     12     11      9   180.00  15.16700   2 ;     C6-   C10-   C12-   C11
     6     10     12     20      9   180.00  15.16700   2 ;     C6-   C10-   C12-   CL6
     7      1      3      4      9   180.00  15.16700   2 ;     C7-    C1-    C3-    C4
     7      1      3     13      9   180.00  15.16700   2 ;     C7-    C1-    C3-    O1
     7      8      2     22      9   180.00  15.16700   2 ;     C7-    C8-    C2-    H2
     8      2      4     14      9   180.00  15.16700   2 ;     C8-    C2-    C4-    O2
     9      5      6     10      9   180.00  15.16700   2 ;     C9-    C5-    C6-   C10
     9      5      6     14      9   180.00  15.16700   2 ;     C9-    C5-    C6-    O2
     9     11     12     10      9   180.00  15.16700   2 ;     C9-   C11-   C12-   C10
     9     11     12     20      9   180.00  15.16700   2 ;     C9-   C11-   C12-   CL6
    10      6      5     13      9   180.00  15.16700   2 ;    C10-    C6-    C5-    O1
    10     12     11     19      9   180.00  15.16700   2 ;    C10-   C12-   C11-   CL5
    11      9      5     13      9   180.00  15.16700   2 ;    C11-    C9-    C5-    O1
    11     12     10     18      9   180.00  15.16700   2 ;    C11-   C12-   C10-   CL4
    12     10      6     14      9   180.00  15.16700   2 ;    C12-   C10-    C6-    O2
    12     11      9     17      9   180.00  15.16700   2 ;    C12-   C11-    C9-   CL3
    13      3      4     14      9   180.00  15.16700   2 ;     O1-    C3-    C4-    O2
    13      5      6     14      9   180.00  15.16700   2 ;     O1-    C5-    C6-    O2
    13      5      9     17      9   180.00  15.16700   2 ;     O1-    C5-    C9-   CL3
    14      4      2     22      9   180.00  15.16700   2 ;     O2-    C4-    C2-    H2
    14      6     10     18      9   180.00  15.16700   2 ;     O2-    C6-   C10-   CL4
    15      7      8     16      9   180.00  15.16700   2 ;    CL1-    C7-    C8-   CL2
    16      8      2     22      9   180.00  15.16700   2 ;    CL2-    C8-    C2-    H2
    17      9     11     19      9   180.00  15.16700   2 ;    CL3-    C9-   C11-   CL5
    18     10     12     20      9   180.00  15.16700   2 ;    CL4-   C10-   C12-   CL6
    19     11     12     20      9   180.00  15.16700   2 ;    CL5-   C11-   C12-   CL6
    21      1      3      4      9   180.00  15.16700   2 ;     H1-    C1-    C3-    C4
    21      1      3     13      9   180.00  15.16700   2 ;     H1-    C1-    C3-    O1
    21      1      7      8      9   180.00  15.16700   2 ;     H1-    C1-    C7-    C8
    21      1      7     15      9   180.00  15.16700   2 ;     H1-    C1-    C7-   CL1

[ dihedrals ] ; impropers
; treated as propers in GROMACS to use correct AMBER analytical function
;    i      j      k      l   func   phase     kd      pn
     1      4      3     13      4   180.00   4.60240   2 ;     C1-    C4-    C3-    O1
     1      8      7     15      4   180.00   4.60240   2 ;     C1-    C8-    C7-   CL1
     2      3      4     14      4   180.00   4.60240   2 ;     C2-    C3-    C4-    O2
     2      7      8     16      4   180.00   4.60240   2 ;     C2-    C7-    C8-   CL2
     4      8      2     22      4   180.00   4.60240   2 ;     C4-    C8-    C2-    H2
     5     10      6     14      4   180.00   4.60240   2 ;     C5-   C10-    C6-    O2
     5     11      9     17      4   180.00   4.60240   2 ;     C5-   C11-    C9-   CL3
     6      9      5     13      4   180.00   4.60240   2 ;     C6-    C9-    C5-    O1
     6     12     10     18      4   180.00   4.60240   2 ;     C6-   C12-   C10-   CL4
     9     12     11     19      4   180.00   4.60240   2 ;     C9-   C12-   C11-   CL5
    10     11     12     20      4   180.00   4.60240   2 ;    C10-   C11-   C12-   CL6
    21      1      7      3      4   180.00   4.60240   2 ;     H1-    C1-    C7-    C3
