; mobley_3370989_GMX.itp created by acpype (v: 2023.10.27) on Thu May 14 13:16:32 2026

[ atomtypes ]
;name   bond_type     mass     charge   ptype   sigma         epsilon       Amb
 c3       c3          0.00000  0.00000   A     3.39771e-01   4.51035e-01 ; 1.91  0.1078
 f        f           0.00000  0.00000   A     3.03422e-01   3.48109e-01 ; 1.70  0.0832
 hc       hc          0.00000  0.00000   A     2.60018e-01   8.70272e-02 ; 1.46  0.0208
 h2       h2          0.00000  0.00000   A     2.24382e-01   8.70272e-02 ; 1.26  0.0208

[ moleculetype ]
;name            nrexcl
 mobley_3370989   3

[ atoms ]
;   nr  type  resi  res  atom  cgnr     charge      mass       ; qtot   bond_type
     1   c3     1   MOL    C1    1    -0.152100     12.01000 ; qtot -0.152
     2   c3     1   MOL    C2    2     0.399899     12.01000 ; qtot 0.248
     3    f     1   MOL    F1    3    -0.249300     19.00000 ; qtot -0.002
     4    f     1   MOL    F2    4    -0.249300     19.00000 ; qtot -0.251
     5   hc     1   MOL    H1    5     0.063367      1.00800 ; qtot -0.187
     6   hc     1   MOL    H2    6     0.063367      1.00800 ; qtot -0.124
     7   hc     1   MOL    H3    7     0.063367      1.00800 ; qtot -0.061
     8   h2     1   MOL    H4    8     0.060700      1.00800 ; qtot 0.000

[ bonds ]
;   ai     aj funct   r             k
     1      2   1    1.5354e-01    1.9154e+05 ;     C1 - C2    
     1      5   1    1.0962e-01    2.8891e+05 ;     C1 - H1    
     1      6   1    1.0962e-01    2.8891e+05 ;     C1 - H2    
     1      7   1    1.0962e-01    2.8891e+05 ;     C1 - H3    
     2      3   1    1.3512e-01    2.7973e+05 ;     C2 - F1    
     2      4   1    1.3512e-01    2.7973e+05 ;     C2 - F2    
     2      8   1    1.0950e-01    2.9039e+05 ;     C2 - H4    

[ pairs ]
;   ai     aj    funct
     5      3      1 ;     H1 - F1    
     5      4      1 ;     H1 - F2    
     5      8      1 ;     H1 - H4    
     6      3      1 ;     H2 - F1    
     6      4      1 ;     H2 - F2    
     6      8      1 ;     H2 - H4    
     7      3      1 ;     H3 - F1    
     7      4      1 ;     H3 - F2    
     7      8      1 ;     H3 - H4    

[ angles ]
;   ai     aj     ak    funct   theta         cth
     1      2      3      1    1.0948e+02    6.6408e+02 ;     C1 - C2     - F1    
     1      2      4      1    1.0948e+02    6.6408e+02 ;     C1 - C2     - F2    
     1      2      8      1    1.1042e+02    3.6091e+02 ;     C1 - C2     - H4    
     2      1      5      1    1.0968e+02    3.6208e+02 ;     C2 - C1     - H1    
     2      1      6      1    1.0968e+02    3.6208e+02 ;     C2 - C1     - H2    
     2      1      7      1    1.0968e+02    3.6208e+02 ;     C2 - C1     - H3    
     3      2      4      1    1.0737e+02    8.9437e+02 ;     F1 - C2     - F2    
     3      2      8      1    1.0907e+02    5.0032e+02 ;     F1 - C2     - H4    
     4      2      8      1    1.0907e+02    5.0032e+02 ;     F2 - C2     - H4    
     5      1      6      1    1.0773e+02    2.9957e+02 ;     H1 - C1     - H2    
     5      1      7      1    1.0773e+02    2.9957e+02 ;     H1 - C1     - H3    
     6      1      7      1    1.0773e+02    2.9957e+02 ;     H2 - C1     - H3    

[ dihedrals ] ; propers
; for gromacs 4.5 or higher, using funct 9
;    i      j      k      l   func   phase     kd      pn
     5      1      2      3      9     0.00   0.37656   3 ;     H1-    C1-    C2-    F1
     5      1      2      4      9     0.00   0.37656   3 ;     H1-    C1-    C2-    F2
     5      1      2      8      9     0.00   0.65084   3 ;     H1-    C1-    C2-    H4
     6      1      2      3      9     0.00   0.37656   3 ;     H2-    C1-    C2-    F1
     6      1      2      4      9     0.00   0.37656   3 ;     H2-    C1-    C2-    F2
     6      1      2      8      9     0.00   0.65084   3 ;     H2-    C1-    C2-    H4
     7      1      2      3      9     0.00   0.37656   3 ;     H3-    C1-    C2-    F1
     7      1      2      4      9     0.00   0.37656   3 ;     H3-    C1-    C2-    F2
     7      1      2      8      9     0.00   0.65084   3 ;     H3-    C1-    C2-    H4
