mobley_9571888_GMX.gro created by acpype (v: 2023.10.27) on Thu May 14 13:46:31 2026
 2254
    1MOL     C1    1   1.556   1.335   1.296
    1MOL     C2    2   1.436   1.275   1.293
    1MOL     C3    3   1.563   1.488   1.557
    1MOL     C4    4   1.297   1.357   1.549
    1MOL     C5    5   1.473   1.522   1.437
    1MOL     C6    6   1.331   1.451   1.433
    1MOL     C7    7   1.532   1.484   1.297
    1MOL     C8    8   1.331   1.385   1.291
    1MOL     C9    9   1.407   1.491   1.204
    1MOL     O1   10   1.381   1.503   1.890
    1MOL     O2   11   1.504   1.540   1.676
    1MOL     O3   12   1.287   1.432   1.670
    1MOL     S1   13   1.418   1.434   1.762
    1MOL    CL1   14   1.708   1.261   1.308
    1MOL    CL2   15   1.402   1.109   1.299
    1MOL    CL3   16   1.668   1.585   1.248
    1MOL    CL4   17   1.172   1.339   1.234
    1MOL    CL5   18   1.436   1.440   1.034
    1MOL    CL6   19   1.327   1.652   1.196
    1MOL     H1   20   1.586   1.382   1.566
    1MOL     H2   21   1.659   1.540   1.545
    1MOL     H3   22   1.199   1.312   1.532
    1MOL     H4   23   1.368   1.274   1.560
    1MOL     H5   24   1.454   1.630   1.442
    1MOL     H6   25   1.256   1.532   1.436
    2SOL     OW   26   0.230   0.628   0.113
    2SOL    HW1   27   0.137   0.626   0.150
    2SOL    HW2   28   0.231   0.589   0.021
    3SOL     OW   29   0.225   0.275   0.996
    3SOL    HW1   30   0.260   0.258   1.088
    3SOL    HW2   31   0.137   0.230   0.984
    4SOL     OW   32   0.019   0.368   0.647
    4SOL    HW1   33  -0.063   0.411   0.686
    4SOL    HW2   34  -0.009   0.295   0.584
    5SOL     OW   35   0.569   1.275   1.165
    5SOL    HW1   36   0.476   1.268   1.128
    5SOL    HW2   37   0.580   1.364   1.209
    6SOL     OW   38   1.555   1.511   0.703
    6SOL    HW1   39   1.498   1.495   0.784
    6SOL    HW2   40   1.496   1.521   0.623
    7SOL     OW   41   1.135   0.703   0.717
    7SOL    HW1   42   1.192   0.781   0.692
    7SOL    HW2   43   1.075   0.729   0.793
    8SOL     OW   44   1.755   0.607   0.231
    8SOL    HW1   45   1.743   0.594   0.132
    8SOL    HW2   46   1.725   0.526   0.280
    9SOL     OW   47   0.768   1.144   1.023
    9SOL    HW1   48   0.690   1.161   1.083
    9SOL    HW2   49   0.802   1.231   0.987
   10SOL     OW   50   0.850   0.798   1.823
   10SOL    HW1   51   0.846   0.874   1.888
   10SOL    HW2   52   0.872   0.834   1.732
   11SOL     OW   53   0.685   1.012   0.665
   11SOL    HW1   54   0.754   0.996   0.735
   11SOL    HW2   55   0.612   1.069   0.703
   12SOL     OW   56   0.686   1.161   1.803
   12SOL    HW1   57   0.746   1.240   1.817
   12SOL    HW2   58   0.600   1.192   1.762
   13SOL     OW   59   0.335   1.435   1.061
   13SOL    HW1   60   0.257   1.404   1.008
   13SOL    HW2   61   0.393   1.493   1.004
   14SOL     OW   62   0.438   0.392   1.499
   14SOL    HW1   63   0.520   0.336   1.508
   14SOL    HW2   64   0.357   0.334   1.503
   15SOL     OW   65   1.603   0.447   0.737
   15SOL    HW1   66   1.529   0.493   0.687
   15SOL    HW2   67   1.654   0.515   0.790
   16SOL     OW   68   0.231   1.713   0.483
   16SOL    HW1   69   0.265   1.790   0.537
   16SOL    HW2   70   0.275   1.713   0.393
   17SOL     OW   71   1.127   1.341   1.690
   17SOL    HW1   72   1.174   1.341   1.778
   17SOL    HW2   73   1.079   1.254   1.679
   18SOL     OW   74   0.230   1.434   0.538
   18SOL    HW1   75   0.204   1.530   0.538
   18SOL    HW2   76   0.159   1.380   0.583
   19SOL     OW   77   0.240   1.091   0.886
   19SOL    HW1   78   0.254   1.007   0.938
   19SOL    HW2   79   0.185   1.155   0.941
   20SOL     OW   80   0.620   1.786   1.439
   20SOL    HW1   81   0.528   1.769   1.474
   20SOL    HW2   82   0.648   1.878   1.465
   21SOL     OW   83   0.606   0.964   0.123
   21SOL    HW1   84   0.613   1.048   0.069
   21SOL    HW2   85   0.652   0.977   0.211
   22SOL     OW   86   1.594   0.114   1.480
   22SOL    HW1   87   1.576   0.181   1.408
   22SOL    HW2   88   1.591   0.160   1.569
   23SOL     OW   89   0.122   0.643   0.563
   23SOL    HW1   90   0.077   0.555   0.580
   23SOL    HW2   91   0.121   0.697   0.647
   24SOL     OW   92   1.842   1.767   0.359
   24SOL    HW1   93   1.896   1.738   0.439
   24SOL    HW2   94   1.872   1.857   0.330
   25SOL     OW   95   0.027   1.596   0.117
   25SOL    HW1   96   0.008   1.500   0.138
   25SOL    HW2   97  -0.006   1.654   0.192
   26SOL     OW   98   1.689   0.922   0.612
   26SOL    HW1   99   1.784   0.893   0.620
   26SOL    HW2  100   1.681   0.987   0.537
   27SOL     OW  101   1.641   1.108   0.432
   27SOL    HW1  102   1.727   1.110   0.380
   27SOL    HW2  103   1.655   1.155   0.520
   28SOL     OW  104   0.113   0.737   1.597
   28SOL    HW1  105   0.201   0.724   1.642
   28SOL    HW2  106   0.100   0.834   1.575
   29SOL     OW  107   0.613   1.365   0.726
   29SOL    HW1  108   0.564   1.278   0.735
   29SOL    HW2  109   0.590   1.408   0.639
   30SOL     OW  110   0.809   0.004   0.502
   30SOL    HW1  111   0.849   0.095   0.493
   30SOL    HW2  112   0.709   0.012   0.508
   31SOL     OW  113   0.197   0.976   1.264
   31SOL    HW1  114   0.286   0.931   1.250
   31SOL    HW2  115   0.124   0.911   1.245
   32SOL     OW  116   1.525   0.999   0.190
   32SOL    HW1  117   1.462   0.923   0.203
   32SOL    HW2  118   1.573   1.017   0.276
   33SOL     OW  119   1.187   1.792   1.616
   33SOL    HW1  120   1.211   1.852   1.540
   33SOL    HW2  121   1.194   1.697   1.586
   34SOL     OW  122   0.317   0.251   1.801
   34SOL    HW1  123   0.388   0.322   1.807
   34SOL    HW2  124   0.229   0.290   1.829
   35SOL     OW  125   1.667   1.714   0.572
   35SOL    HW1  126   1.626   1.691   0.484
   35SOL    HW2  127   1.649   1.640   0.637
   36SOL     OW  128   0.598   0.729   0.270
   36SOL    HW1  129   0.622   0.798   0.202
   36SOL    HW2  130   0.520   0.762   0.324
   37SOL     OW  131   1.281   0.345   0.944
   37SOL    HW1  132   1.195   0.295   0.931
   37SOL    HW2  133   1.343   0.291   1.000
   38SOL     OW  134   1.576   1.662   0.307
   38SOL    HW1  135   1.665   1.708   0.310
   38SOL    HW2  136   1.555   1.638   0.212
   39SOL     OW  137   0.807   0.605   1.465
   39SOL    HW1  138   0.760   0.602   1.554
   39SOL    HW2  139   0.756   0.550   1.399
   40SOL     OW  140   1.394   0.469   1.674
   40SOL    HW1  141   1.374   0.512   1.762
   40SOL    HW2  142   1.472   0.407   1.683
   41SOL     OW  143   0.973   0.890   1.572
   41SOL    HW1  144   1.019   0.806   1.543
   41SOL    HW2  145   0.917   0.924   1.497
   42SOL     OW  146   0.991   0.410   1.242
   42SOL    HW1  147   0.914   0.444   1.296
   42SOL    HW2  148   0.957   0.359   1.163
   43SOL     OW  149   1.041   0.701   0.429
   43SOL    HW1  150   1.067   0.697   0.525
   43SOL    HW2  151   0.956   0.650   0.415
   44SOL     OW  152   0.076   0.811   0.789
   44SOL    HW1  153   0.175   0.799   0.798
   44SOL    HW2  154   0.052   0.906   0.810
   45SOL     OW  155   0.130   1.821   1.571
   45SOL    HW1  156   0.120   1.806   1.670
   45SOL    HW2  157   0.044   1.857   1.535
   46SOL     OW  158   0.865   0.348   0.195
   46SOL    HW1  159   0.924   0.411   0.146
   46SOL    HW2  160   0.884   0.254   0.166
   47SOL     OW  161   1.719   0.585   1.831
   47SOL    HW1  162   1.693   0.674   1.795
   47SOL    HW2  163   1.717   0.517   1.758
   48SOL     OW  164   1.362   1.144   0.545
   48SOL    HW1  165   1.445   1.115   0.497
   48SOL    HW2  166   1.313   1.211   0.489
   49SOL     OW  167   0.550   0.196   0.885
   49SOL    HW1  168   0.545   0.191   0.985
   49SOL    HW2  169   0.552   0.292   0.856
   50SOL     OW  170   1.008   1.456   0.477
   50SOL    HW1  171   0.962   1.528   0.425
   50SOL    HW2  172   1.004   1.476   0.575
   51SOL     OW  173   0.351   1.801   0.853
   51SOL    HW1  174   0.401   1.715   0.859
   51SOL    HW2  175   0.416   1.878   0.850
   52SOL     OW  176   1.795   1.066   0.873
   52SOL    HW1  177   1.733   1.051   0.797
   52SOL    HW2  178   1.743   1.077   0.958
   53SOL     OW  179   0.321   0.943   0.242
   53SOL    HW1  180   0.403   0.982   0.200
   53SOL    HW2  181   0.294   0.861   0.193
   54SOL     OW  182   1.458   0.735   0.728
   54SOL    HW1  183   1.453   0.670   0.803
   54SOL    HW2  184   1.538   0.794   0.741
   55SOL     OW  185   0.461   1.266   1.727
   55SOL    HW1  186   0.411   1.267   1.641
   55SOL    HW2  187   0.398   1.248   1.803
   56SOL     OW  188   1.111   1.776   0.237
   56SOL    HW1  189   1.051   1.714   0.287
   56SOL    HW2  190   1.142   1.732   0.152
   57SOL     OW  191   0.202   0.285   1.498
   57SOL    HW1  192   0.122   0.345   1.485
   57SOL    HW2  193   0.192   0.236   1.584
   58SOL     OW  194   1.632   1.377   0.081
   58SOL    HW1  195   1.600   1.471   0.071
   58SOL    HW2  196   1.556   1.314   0.069
   59SOL     OW  197   0.464   1.743   0.323
   59SOL    HW1  198   0.497   1.782   0.409
   59SOL    HW2  199   0.540   1.736   0.258
   60SOL     OW  200   1.400   0.107   0.426
   60SOL    HW1  201   1.376   0.070   0.336
   60SOL    HW2  202   1.499   0.123   0.430
   61SOL     OW  203   0.249   1.785   1.241
   61SOL    HW1  204   0.306   1.720   1.291
   61SOL    HW2  205   0.233   1.752   1.148
   62SOL     OW  206   0.940   1.698   0.904
   62SOL    HW1  207   1.020   1.641   0.925
   62SOL    HW2  208   0.891   1.658   0.827
   63SOL     OW  209   0.382   0.700   0.480
   63SOL    HW1  210   0.427   0.610   0.477
   63SOL    HW2  211   0.288   0.689   0.513
   64SOL     OW  212   1.547   0.222   1.729
   64SOL    HW1  213   1.542   0.259   1.821
   64SOL    HW2  214   1.475   0.153   1.717
   65SOL     OW  215   0.614   0.122   0.117
   65SOL    HW1  216   0.712   0.100   0.124
   65SOL    HW2  217   0.583   0.105   0.024
   66SOL     OW  218   0.781   0.264   1.749
   66SOL    HW1  219   0.848   0.203   1.792
   66SOL    HW2  220   0.708   0.283   1.814
   67SOL     OW  221   0.888   1.514   1.195
   67SOL    HW1  222   0.865   1.489   1.101
   67SOL    HW2  223   0.949   1.445   1.234
   68SOL     OW  224   1.351   0.590   1.433
   68SOL    HW1  225   1.379   0.547   1.518
   68SOL    HW2  226   1.376   0.686   1.434
   69SOL     OW  227   0.803   1.402   0.924
   69SOL    HW1  228   0.893   1.416   0.882
   69SOL    HW2  229   0.732   1.404   0.853
   70SOL     OW  230   0.922   0.503   0.899
   70SOL    HW1  231   0.897   0.494   0.803
   70SOL    HW2  232   0.970   0.421   0.930
   71SOL     OW  233   0.539   0.064   0.512
   71SOL    HW1  234   0.458   0.065   0.570
   71SOL    HW2  235   0.542   0.147   0.457
   72SOL     OW  236   1.434   1.188   0.041
   72SOL    HW1  237   1.466   1.112   0.098
   72SOL    HW2  238   1.342   1.215   0.071
   73SOL     OW  239   0.297   0.035   0.171
   73SOL    HW1  240   0.346   0.119   0.150
   73SOL    HW2  241   0.359  -0.030   0.216
   74SOL     OW  242   0.935   0.236   0.480
   74SOL    HW1  243   0.887   0.277   0.402
   74SOL    HW2  244   1.034   0.234   0.461
   75SOL     OW  245   1.076   0.683   1.464
   75SOL    HW1  246   0.996   0.622   1.467
   75SOL    HW2  247   1.157   0.630   1.440
   76SOL     OW  248   1.227   1.570   0.793
   76SOL    HW1  249   1.248   1.644   0.728
   76SOL    HW2  250   1.295   1.570   0.866
   77SOL     OW  251   0.459   1.152   0.741
   77SOL    HW1  252   0.388   1.125   0.806
   77SOL    HW2  253   0.433   1.124   0.648
   78SOL     OW  254   1.271   1.797   0.591
   78SOL    HW1  255   1.315   1.861   0.527
   78SOL    HW2  256   1.221   1.849   0.661
   79SOL     OW  257   1.032   0.549   0.016
   79SOL    HW1  258   0.991   0.631  -0.023
   79SOL    HW2  259   1.096   0.575   0.089
   80SOL     OW  260   0.078   0.556   1.386
   80SOL    HW1  261   0.170   0.555   1.345
   80SOL    HW2  262   0.072   0.630   1.453
   81SOL     OW  263   0.561   0.222   1.147
   81SOL    HW1  264   0.599   0.138   1.184
   81SOL    HW2  265   0.473   0.241   1.191
   82SOL     OW  266   0.866   0.454   0.642
   82SOL    HW1  267   0.834   0.526   0.580
   82SOL    HW2  268   0.890   0.373   0.589
   83SOL     OW  269   1.017   0.039   0.753
   83SOL    HW1  270   0.945   0.044   0.684
   83SOL    HW2  271   0.993  -0.030   0.822
   84SOL     OW  272   1.429   1.173   0.867
   84SOL    HW1  273   1.374   1.089   0.860
   84SOL    HW2  274   1.455   1.202   0.775
   85SOL     OW  275   1.466   0.590   0.992
   85SOL    HW1  276   1.436   0.495   0.999
   85SOL    HW2  277   1.539   0.606   1.058
   86SOL     OW  278   1.857   0.833   0.377
   86SOL    HW1  279   1.899   0.769   0.441
   86SOL    HW2  280   1.819   0.782   0.299
   87SOL     OW  281   0.488   1.385   0.174
   87SOL    HW1  282   0.401   1.370   0.221
   87SOL    HW2  283   0.471   1.411   0.079
   88SOL     OW  284   1.664   1.280   0.657
   88SOL    HW1  285   1.763   1.288   0.671
   88SOL    HW2  286   1.619   1.364   0.688
   89SOL     OW  287   1.390   0.575   0.078
   89SOL    HW1  288   1.336   0.554   0.159
   89SOL    HW2  289   1.481   0.534   0.087
   90SOL     OW  290   0.527   0.256   0.328
   90SOL    HW1  291   0.554   0.197   0.253
   90SOL    HW2  292   0.527   0.351   0.297
   91SOL     OW  293   1.754   1.223   1.588
   91SOL    HW1  294   1.845   1.184   1.575
   91SOL    HW2  295   1.762   1.319   1.612
   92SOL     OW  296   1.638   1.099   1.079
   92SOL    HW1  297   1.643   1.180   1.138
   92SOL    HW2  298   1.552   1.101   1.028
   93SOL     OW  299   0.915   0.089   1.402
   93SOL    HW1  300   0.940   0.069   1.307
   93SOL    HW2  301   0.987   0.145   1.444
   94SOL     OW  302   0.980   1.116   1.719
   94SOL    HW1  303   0.881   1.122   1.729
   94SOL    HW2  304   1.003   1.036   1.663
   95SOL     OW  305   0.705   1.050   0.368
   95SOL    HW1  306   0.691   1.057   0.467
   95SOL    HW2  307   0.789   0.999   0.350
   96SOL     OW  308   0.410   0.813   1.251
   96SOL    HW1  309   0.496   0.825   1.301
   96SOL    HW2  310   0.368   0.726   1.278
   97SOL     OW  311   1.274   0.386   1.262
   97SOL    HW1  312   1.295   0.460   1.326
   97SOL    HW2  313   1.185   0.403   1.219
   98SOL     OW  314   0.064   1.564   1.331
   98SOL    HW1  315   0.018   1.646   1.297
   98SOL    HW2  316   0.162   1.583   1.340
   99SOL     OW  317   0.367   1.100   0.501
   99SOL    HW1  318   0.360   1.183   0.445
   99SOL    HW2  319   0.371   1.020   0.441
  100SOL     OW  320   0.566   0.537   0.865
  100SOL    HW1  321   0.578   0.603   0.791
  100SOL    HW2  322   0.612   0.571   0.948
  101SOL     OW  323   1.252   1.348   0.388
  101SOL    HW1  324   1.302   1.425   0.428
  101SOL    HW2  325   1.157   1.350   0.420
  102SOL     OW  326   1.582   0.639   0.472
  102SOL    HW1  327   1.551   0.700   0.545
  102SOL    HW2  328   1.632   0.691   0.403
  103SOL     OW  329   0.354   1.510   1.329
  103SOL    HW1  330   0.333   1.466   1.242
  103SOL    HW2  331   0.451   1.536   1.332
  104SOL     OW  332   0.402   0.751   1.598
  104SOL    HW1  333   0.470   0.806   1.551
  104SOL    HW2  334   0.442   0.663   1.625
  105SOL     OW  335   1.587   0.779   1.670
  105SOL    HW1  336   1.495   0.817   1.665
  105SOL    HW2  337   1.647   0.826   1.605
  106SOL     OW  338   1.013   0.105   1.770
  106SOL    HW1  339   1.019   0.190   1.718
  106SOL    HW2  340   1.045   0.029   1.713
  107SOL     OW  341   0.504   0.050   1.740
  107SOL    HW1  342   0.462  -0.007   1.670
  107SOL    HW2  343   0.438   0.119   1.772
  108SOL     OW  344   0.573   0.870   1.029
  108SOL    HW1  345   0.617   0.959   1.020
  108SOL    HW2  346   0.510   0.870   1.106
  109SOL     OW  347   1.360   0.862   1.045
  109SOL    HW1  348   1.285   0.862   0.979
  109SOL    HW2  349   1.397   0.770   1.054
  110SOL     OW  350   1.209   0.525   0.275
  110SOL    HW1  351   1.222   0.441   0.329
  110SOL    HW2  352   1.180   0.599   0.335
  111SOL     OW  353   0.307   0.213   1.231
  111SOL    HW1  354   0.284   0.250   1.321
  111SOL    HW2  355   0.277   0.118   1.225
  112SOL     OW  356   0.037   1.310   1.282
  112SOL    HW1  357   0.090   1.261   1.350
  112SOL    HW2  358   0.059   1.408   1.287
  113SOL     OW  359   0.732   0.634   1.064
  113SOL    HW1  360   0.791   0.608   0.988
  113SOL    HW2  361   0.704   0.730   1.053
  114SOL     OW  362   1.728   0.935   1.854
  114SOL    HW1  363   1.682   0.928   1.765
  114SOL    HW2  364   1.666   0.979   1.920
  115SOL     OW  365   0.307   0.063   0.618
  115SOL    HW1  366   0.296   0.157   0.651
  115SOL    HW2  367   0.302   0.000   0.695
  116SOL     OW  368   1.622   0.367   0.374
  116SOL    HW1  369   1.624   0.291   0.438
  116SOL    HW2  370   1.574   0.444   0.414
  117SOL     OW  371   1.023   0.766   0.966
  117SOL    HW1  372   1.038   0.787   1.062
  117SOL    HW2  373   0.993   0.671   0.957
  118SOL     OW  374   0.980   1.573   1.700
  118SOL    HW1  375   0.960   1.617   1.612
  118SOL    HW2  376   1.019   1.482   1.684
  119SOL     OW  377   1.859   1.518   1.605
  119SOL    HW1  378   1.873   1.545   1.510
  119SOL    HW2  379   1.942   1.540   1.658
  120SOL     OW  380   0.350   0.898   1.804
  120SOL    HW1  381   0.426   0.942   1.852
  120SOL    HW2  382   0.385   0.851   1.722
  121SOL     OW  383   1.540   0.274   0.125
  121SOL    HW1  384   1.479   0.199   0.148
  121SOL    HW2  385   1.562   0.326   0.208
  122SOL     OW  386   1.303   0.838   0.042
  122SOL    HW1  387   1.337   0.745   0.057
  122SOL    HW2  388   1.321   0.865  -0.053
  123SOL     OW  389   1.068   1.333   0.849
  123SOL    HW1  390   1.075   1.249   0.794
  123SOL    HW2  391   1.130   1.402   0.813
  124SOL     OW  392   0.319   0.810   0.949
  124SOL    HW1  393   0.412   0.846   0.954
  124SOL    HW2  394   0.313   0.725   1.001
  125SOL     OW  395   0.339   0.509   1.006
  125SOL    HW1  396   0.287   0.426   0.989
  125SOL    HW2  397   0.416   0.514   0.942
  126SOL     OW  398   1.138   0.380   1.678
  126SOL    HW1  399   1.093   0.443   1.742
  126SOL    HW2  400   1.231   0.411   1.661
  127SOL     OW  401   1.160   0.207   1.477
  127SOL    HW1  402   1.160   0.271   1.554
  127SOL    HW2  403   1.188   0.255   1.394
  128SOL     OW  404   0.008   1.326   0.200
  128SOL    HW1  405  -0.085   1.347   0.169
  128SOL    HW2  406   0.018   1.227   0.213
  129SOL     OW  407   0.088   1.801   0.927
  129SOL    HW1  408   0.046   1.715   0.900
  129SOL    HW2  409   0.182   1.804   0.893
  130SOL     OW  410   0.504   1.568   0.910
  130SOL    HW1  411   0.570   1.642   0.919
  130SOL    HW2  412   0.548   1.489   0.868
  131SOL     OW  413   1.002   0.796   1.238
  131SOL    HW1  414   1.043   0.764   1.324
  131SOL    HW2  415   0.906   0.769   1.235
  132SOL     OW  416   0.040   0.544   1.114
  132SOL    HW1  417   0.125   0.511   1.073
  132SOL    HW2  418   0.053   0.559   1.212
  133SOL     OW  419   0.189   0.520   1.722
  133SOL    HW1  420   0.248   0.480   1.652
  133SOL    HW2  421   0.131   0.591   1.681
  134SOL     OW  422   1.369   0.950   1.660
  134SOL    HW1  423   1.408   1.039   1.680
  134SOL    HW2  424   1.379   0.930   1.563
  135SOL     OW  425   0.815   0.572   0.325
  135SOL    HW1  426   0.822   0.483   0.279
  135SOL    HW2  427   0.721   0.606   0.317
  136SOL     OW  428   1.657   0.604   1.206
  136SOL    HW1  429   1.619   0.535   1.268
  136SOL    HW2  430   1.739   0.568   1.162
  137SOL     OW  431   0.252   1.564   1.744
  137SOL    HW1  432   0.222   1.621   1.820
  137SOL    HW2  433   0.245   1.467   1.770
  138SOL     OW  434   0.671   0.464   1.269
  138SOL    HW1  435   0.637   0.375   1.239
  138SOL    HW2  436   0.697   0.518   1.189
  139SOL     OW  437   0.930   1.678   1.465
  139SOL    HW1  438   0.906   1.660   1.370
  139SOL    HW2  439   0.960   1.772   1.475
  140SOL     OW  440   0.473   0.500   0.191
  140SOL    HW1  441   0.534   0.580   0.195
  140SOL    HW2  442   0.378   0.531   0.198
  141SOL     OW  443   0.159   1.137   1.466
  141SOL    HW1  444   0.181   1.076   1.542
  141SOL    HW2  445   0.169   1.088   1.380
  142SOL     OW  446   1.302   0.855   0.309
  142SOL    HW1  447   1.216   0.824   0.351
  142SOL    HW2  448   1.298   0.841   0.210
  143SOL     OW  449   0.083   1.258   1.022
  143SOL    HW1  450   0.078   1.257   1.122
  143SOL    HW2  451   0.000   1.217   0.984
  144SOL     OW  452   0.688   1.662   1.716
  144SOL    HW1  453   0.632   1.743   1.725
  144SOL    HW2  454   0.740   1.666   1.630
  145SOL     OW  455   0.903   0.086   0.133
  145SOL    HW1  456   0.954   0.087   0.047
  145SOL    HW2  457   0.959   0.044   0.204
  146SOL     OW  458   1.726   0.135   0.523
  146SOL    HW1  459   1.799   0.118   0.456
  146SOL    HW2  460   1.695   0.048   0.561
  147SOL     OW  461   1.388   1.573   0.477
  147SOL    HW1  462   1.455   1.585   0.403
  147SOL    HW2  463   1.348   1.662   0.500
  148SOL     OW  464   0.130   1.794   1.851
  148SOL    HW1  465   0.089   1.720   1.904
  148SOL    HW2  466   0.194   1.845   1.909
  149SOL     OW  467   1.280   0.927   0.672
  149SOL    HW1  468   1.340   0.846   0.674
  149SOL    HW2  469   1.320   0.996   0.612
  150SOL     OW  470   0.830   1.273   1.422
  150SOL    HW1  471   0.825   1.306   1.517
  150SOL    HW2  472   0.744   1.292   1.376
  151SOL     OW  473   0.672   1.616   0.154
  151SOL    HW1  474   0.681   1.626   0.055
  151SOL    HW2  475   0.632   1.527   0.175
  152SOL     OW  476   1.841   0.175   0.963
  152SOL    HW1  477   1.880   0.090   0.927
  152SOL    HW2  478   1.743   0.177   0.944
  153SOL     OW  479   0.263   0.326   0.720
  153SOL    HW1  480   0.184   0.377   0.686
  153SOL    HW2  481   0.254   0.311   0.818
  154SOL     OW  482   1.194   1.612   0.031
  154SOL    HW1  483   1.200   1.519   0.068
  154SOL    HW2  484   1.135   1.612  -0.049
  155SOL     OW  485   0.822   1.002   1.372
  155SOL    HW1  486   0.862   1.001   1.280
  155SOL    HW2  487   0.832   1.094   1.412
  156SOL     OW  488   0.916   0.910   0.291
  156SOL    HW1  489   0.979   0.948   0.223
  156SOL    HW2  490   0.956   0.827   0.330
  157SOL     OW  491   1.504   1.607   0.044
  157SOL    HW1  492   1.412   1.644   0.051
  157SOL    HW2  493   1.542   1.627  -0.046
  158SOL     OW  494   0.372   1.288   1.490
  158SOL    HW1  495   0.359   1.381   1.456
  158SOL    HW2  496   0.288   1.236   1.477
  159SOL     OW  497   1.039   1.098   0.696
  159SOL    HW1  498   0.969   1.051   0.750
  159SOL    HW2  499   1.098   1.030   0.653
  160SOL     OW  500   1.014   0.236   0.971
  160SOL    HW1  501   1.006   0.200   0.878
  160SOL    HW2  502   1.012   0.160   1.036
  161SOL     OW  503   0.590   1.487   0.491
  161SOL    HW1  504   0.632   1.429   0.421
  161SOL    HW2  505   0.546   1.566   0.447
  162SOL     OW  506   1.709   0.385   1.381
  162SOL    HW1  507   1.782   0.454   1.385
  162SOL    HW2  508   1.737   0.310   1.322
  163SOL     OW  509   0.255   1.348   0.290
  163SOL    HW1  510   0.159   1.349   0.263
  163SOL    HW2  511   0.267   1.401   0.374
  164SOL     OW  512   0.105   1.013   1.726
  164SOL    HW1  513   0.028   0.980   1.780
  164SOL    HW2  514   0.190   0.983   1.768
  165SOL     OW  515   0.672   0.203   1.489
  165SOL    HW1  516   0.762   0.187   1.449
  165SOL    HW2  517   0.680   0.208   1.588
  166SOL     OW  518   0.075   0.345   0.033
  166SOL    HW1  519  -0.017   0.317   0.004
  166SOL    HW2  520   0.106   0.422  -0.023
  167SOL     OW  521   1.440   0.856   1.398
  167SOL    HW1  522   1.383   0.908   1.335
  167SOL    HW2  523   1.536   0.868   1.374
  168SOL     OW  524   0.072   0.166   0.318
  168SOL    HW1  525   0.055   0.249   0.264
  168SOL    HW2  526   0.162   0.129   0.296
  169SOL     OW  527   1.183   1.335   0.119
  169SOL    HW1  528   1.084   1.324   0.121
  169SOL    HW2  529   1.217   1.350   0.212
  170SOL     OW  530   0.613   0.842   1.431
  170SOL    HW1  531   0.669   0.923   1.414
  170SOL    HW2  532   0.672   0.762   1.434
  171SOL     OW  533   1.493   1.767   0.959
  171SOL    HW1  534   1.526   1.831   0.890
  171SOL    HW2  535   1.559   1.761   1.034
  172SOL     OW  536   0.716   0.565   1.708
  172SOL    HW1  537   0.735   0.630   1.782
  172SOL    HW2  538   0.776   0.485   1.717
  173SOL     OW  539   0.390   1.741   1.560
  173SOL    HW1  540   0.299   1.782   1.558
  173SOL    HW2  541   0.383   1.647   1.592
  174SOL     OW  542   1.674   0.883   1.254
  174SOL    HW1  543   1.647   0.794   1.217
  174SOL    HW2  544   1.675   0.951   1.181
  175SOL     OW  545   1.225   0.325   0.449
  175SOL    HW1  546   1.290   0.251   0.438
  175SOL    HW2  547   1.245   0.375   0.533
  176SOL     OW  548   0.594   0.745   0.652
  176SOL    HW1  549   0.644   0.830   0.633
  176SOL    HW2  550   0.506   0.747   0.604
  177SOL     OW  551   1.777   0.342   1.642
  177SOL    HW1  552   1.760   0.373   1.548
  177SOL    HW2  553   1.693   0.305   1.680
  178SOL     OW  554   1.730   0.934   1.517
  178SOL    HW1  555   1.768   1.025   1.532
  178SOL    HW2  556   1.722   0.917   1.418
  179SOL     OW  557   0.859   1.374   0.016
  179SOL    HW1  558   0.813   1.389   0.104
  179SOL    HW2  559   0.903   1.459  -0.014
  180SOL     OW  560   0.661   1.790   0.953
  180SOL    HW1  561   0.615   1.878   0.940
  180SOL    HW2  562   0.760   1.802   0.946
  181SOL     OW  563   0.859   0.956   0.861
  181SOL    HW1  564   0.913   0.887   0.909
  181SOL    HW2  565   0.827   1.025   0.927
  182SOL     OW  566   1.083   0.984   0.087
  182SOL    HW1  567   1.060   1.037   0.005
  182SOL    HW2  568   1.164   0.928   0.068
  183SOL     OW  569   1.861   1.569   0.851
  183SOL    HW1  570   1.790   1.557   0.781
  183SOL    HW2  571   1.862   1.490   0.911
  184SOL     OW  572   0.221   1.314   1.844
  184SOL    HW1  573   0.156   1.241   1.823
  184SOL    HW2  574   0.225   1.328   1.942
  185SOL     OW  575   0.079   1.240   0.653
  185SOL    HW1  576   0.078   1.193   0.741
  185SOL    HW2  577   0.161   1.212   0.602
  186SOL     OW  578   0.672   1.391   1.624
  186SOL    HW1  579   0.594   1.341   1.662
  186SOL    HW2  580   0.669   1.486   1.655
  187SOL     OW  581   1.824   0.192   1.227
  187SOL    HW1  582   1.820   0.102   1.271
  187SOL    HW2  583   1.827   0.181   1.128
  188SOL     OW  584   0.428   0.424   0.520
  188SOL    HW1  585   0.458   0.352   0.458
  188SOL    HW2  586   0.389   0.384   0.603
  189SOL     OW  587   0.317   0.547   1.280
  189SOL    HW1  588   0.355   0.488   1.352
  189SOL    HW2  589   0.357   0.521   1.192
  190SOL     OW  590   0.812   1.586   0.687
  190SOL    HW1  591   0.844   1.596   0.593
  190SOL    HW2  592   0.733   1.524   0.689
  191SOL     OW  593   1.424   0.214   1.112
  191SOL    HW1  594   1.476   0.149   1.167
  191SOL    HW2  595   1.375   0.277   1.173
  192SOL     OW  596   1.001   0.034   1.154
  192SOL    HW1  597   0.938  -0.038   1.123
  192SOL    HW2  598   1.094  -0.002   1.154
  193SOL     OW  599   0.770   1.330   0.301
  193SOL    HW1  600   0.724   1.243   0.318
  193SOL    HW2  601   0.861   1.327   0.342
  194SOL     OW  602   0.618   1.567   1.284
  194SOL    HW1  603   0.613   1.649   1.341
  194SOL    HW2  604   0.707   1.564   1.239
  195SOL     OW  605   1.352   0.052   0.168
  195SOL    HW1  606   1.387   0.011   0.084
  195SOL    HW2  607   1.262   0.014   0.188
  196SOL     OW  608   1.300   0.453   0.691
  196SOL    HW1  609   1.241   0.533   0.695
  196SOL    HW2  610   1.315   0.418   0.784
  197SOL     OW  611   1.593   0.221   0.882
  197SOL    HW1  612   1.509   0.220   0.936
  197SOL    HW2  613   1.595   0.304   0.826
  198SOL     OW  614   0.039   1.077   0.300
  198SOL    HW1  615   0.138   1.066   0.291
  198SOL    HW2  616  -0.001   0.991   0.332
  199SOL     OW  617   0.875   1.646   0.337
  199SOL    HW1  618   0.798   1.611   0.283
  199SOL    HW2  619   0.843   1.717   0.399
  200SOL     OW  620   0.230   0.628   1.975
  200SOL    HW1  621   0.137   0.626   2.012
  200SOL    HW2  622   0.231   0.589   1.883
  201SOL     OW  623   0.019   0.368   2.509
  201SOL    HW1  624  -0.063   0.411   2.548
  201SOL    HW2  625  -0.009   0.295   2.446
  202SOL     OW  626   1.555   1.511   2.565
  202SOL    HW1  627   1.498   1.495   2.646
  202SOL    HW2  628   1.496   1.521   2.485
  203SOL     OW  629   1.135   0.703   2.579
  203SOL    HW1  630   1.192   0.781   2.554
  203SOL    HW2  631   1.075   0.729   2.655
  204SOL     OW  632   1.755   0.607   2.093
  204SOL    HW1  633   1.743   0.594   1.994
  204SOL    HW2  634   1.725   0.526   2.142
  205SOL     OW  635   0.768   1.144   2.885
  205SOL    HW1  636   0.690   1.161   2.945
  205SOL    HW2  637   0.802   1.231   2.849
  206SOL     OW  638   0.685   1.012   2.527
  206SOL    HW1  639   0.754   0.996   2.597
  206SOL    HW2  640   0.612   1.069   2.565
  207SOL     OW  641   1.603   0.447   2.599
  207SOL    HW1  642   1.529   0.493   2.549
  207SOL    HW2  643   1.654   0.515   2.652
  208SOL     OW  644   0.231   1.713   2.345
  208SOL    HW1  645   0.265   1.790   2.399
  208SOL    HW2  646   0.275   1.713   2.255
  209SOL     OW  647   0.230   1.434   2.400
  209SOL    HW1  648   0.204   1.530   2.400
  209SOL    HW2  649   0.159   1.380   2.445
  210SOL     OW  650   0.240   1.091   2.748
  210SOL    HW1  651   0.254   1.007   2.800
  210SOL    HW2  652   0.185   1.155   2.803
  211SOL     OW  653   0.606   0.964   1.985
  211SOL    HW1  654   0.613   1.048   1.931
  211SOL    HW2  655   0.652   0.977   2.073
  212SOL     OW  656   0.122   0.643   2.425
  212SOL    HW1  657   0.077   0.555   2.442
  212SOL    HW2  658   0.121   0.697   2.509
  213SOL     OW  659   1.842   1.767   2.221
  213SOL    HW1  660   1.896   1.738   2.301
  213SOL    HW2  661   1.872   1.857   2.192
  214SOL     OW  662   0.027   1.596   1.979
  214SOL    HW1  663   0.008   1.500   2.000
  214SOL    HW2  664  -0.006   1.654   2.054
  215SOL     OW  665   1.689   0.922   2.474
  215SOL    HW1  666   1.784   0.893   2.482
  215SOL    HW2  667   1.681   0.987   2.399
  216SOL     OW  668   1.641   1.108   2.294
  216SOL    HW1  669   1.727   1.110   2.242
  216SOL    HW2  670   1.655   1.155   2.382
  217SOL     OW  671   0.613   1.365   2.588
  217SOL    HW1  672   0.564   1.278   2.597
  217SOL    HW2  673   0.590   1.408   2.501
  218SOL     OW  674   0.809   0.004   2.364
  218SOL    HW1  675   0.849   0.095   2.355
  218SOL    HW2  676   0.709   0.012   2.370
  219SOL     OW  677   1.525   0.999   2.052
  219SOL    HW1  678   1.462   0.923   2.065
  219SOL    HW2  679   1.573   1.017   2.138
  220SOL     OW  680   1.466   1.417   2.815
  220SOL    HW1  681   1.407   1.423   2.895
  220SOL    HW2  682   1.451   1.329   2.769
  221SOL     OW  683   1.667   1.714   2.434
  221SOL    HW1  684   1.626   1.691   2.346
  221SOL    HW2  685   1.649   1.640   2.499
  222SOL     OW  686   0.598   0.729   2.132
  222SOL    HW1  687   0.622   0.798   2.064
  222SOL    HW2  688   0.520   0.762   2.186
  223SOL     OW  689   1.281   0.345   2.806
  223SOL    HW1  690   1.195   0.295   2.793
  223SOL    HW2  691   1.343   0.291   2.862
  224SOL     OW  692   1.576   1.662   2.169
  224SOL    HW1  693   1.665   1.708   2.172
  224SOL    HW2  694   1.555   1.638   2.074
  225SOL     OW  695   1.041   0.701   2.291
  225SOL    HW1  696   1.067   0.697   2.387
  225SOL    HW2  697   0.956   0.650   2.277
  226SOL     OW  698   0.076   0.811   2.651
  226SOL    HW1  699   0.175   0.799   2.660
  226SOL    HW2  700   0.052   0.906   2.672
  227SOL     OW  701   0.865   0.348   2.057
  227SOL    HW1  702   0.924   0.411   2.008
  227SOL    HW2  703   0.884   0.254   2.028
  228SOL     OW  704   1.362   1.144   2.407
  228SOL    HW1  705   1.445   1.115   2.359
  228SOL    HW2  706   1.313   1.211   2.351
  229SOL     OW  707   1.008   1.456   2.339
  229SOL    HW1  708   0.962   1.528   2.287
  229SOL    HW2  709   1.004   1.476   2.437
  230SOL     OW  710   0.351   1.801   2.715
  230SOL    HW1  711   0.401   1.715   2.721
  230SOL    HW2  712   0.416   1.878   2.712
  231SOL     OW  713   1.795   1.066   2.735
  231SOL    HW1  714   1.733   1.051   2.659
  231SOL    HW2  715   1.743   1.077   2.820
  232SOL     OW  716   0.321   0.943   2.104
  232SOL    HW1  717   0.403   0.982   2.062
  232SOL    HW2  718   0.294   0.861   2.055
  233SOL     OW  719   1.458   0.735   2.590
  233SOL    HW1  720   1.453   0.670   2.665
  233SOL    HW2  721   1.538   0.794   2.603
  234SOL     OW  722   1.111   1.776   2.099
  234SOL    HW1  723   1.051   1.714   2.149
  234SOL    HW2  724   1.142   1.732   2.014
  235SOL     OW  725   1.632   1.377   1.943
  235SOL    HW1  726   1.600   1.471   1.933
  235SOL    HW2  727   1.556   1.314   1.931
  236SOL     OW  728   0.464   1.743   2.185
  236SOL    HW1  729   0.497   1.782   2.271
  236SOL    HW2  730   0.540   1.736   2.120
  237SOL     OW  731   1.400   0.107   2.288
  237SOL    HW1  732   1.376   0.070   2.198
  237SOL    HW2  733   1.499   0.123   2.292
  238SOL     OW  734   0.382   0.700   2.342
  238SOL    HW1  735   0.427   0.610   2.339
  238SOL    HW2  736   0.288   0.689   2.375
  239SOL     OW  737   0.614   0.122   1.979
  239SOL    HW1  738   0.712   0.100   1.986
  239SOL    HW2  739   0.583   0.105   1.886
  240SOL     OW  740   0.539   0.064   2.374
  240SOL    HW1  741   0.458   0.065   2.432
  240SOL    HW2  742   0.542   0.147   2.319
  241SOL     OW  743   1.434   1.188   1.903
  241SOL    HW1  744   1.466   1.112   1.960
  241SOL    HW2  745   1.342   1.215   1.933
  242SOL     OW  746   0.297   0.035   2.033
  242SOL    HW1  747   0.346   0.119   2.012
  242SOL    HW2  748   0.359  -0.030   2.078
  243SOL     OW  749   0.935   0.236   2.342
  243SOL    HW1  750   0.887   0.277   2.264
  243SOL    HW2  751   1.034   0.234   2.323
  244SOL     OW  752   1.227   1.570   2.655
  244SOL    HW1  753   1.248   1.644   2.590
  244SOL    HW2  754   1.295   1.570   2.728
  245SOL     OW  755   0.459   1.152   2.603
  245SOL    HW1  756   0.388   1.125   2.668
  245SOL    HW2  757   0.433   1.124   2.510
  246SOL     OW  758   1.271   1.797   2.453
  246SOL    HW1  759   1.315   1.861   2.389
  246SOL    HW2  760   1.221   1.849   2.523
  247SOL     OW  761   1.032   0.549   1.878
  247SOL    HW1  762   0.991   0.631   1.839
  247SOL    HW2  763   1.096   0.575   1.951
  248SOL     OW  764   0.866   0.454   2.504
  248SOL    HW1  765   0.834   0.526   2.442
  248SOL    HW2  766   0.890   0.373   2.451
  249SOL     OW  767   1.017   0.039   2.615
  249SOL    HW1  768   0.945   0.044   2.546
  249SOL    HW2  769   0.993  -0.030   2.684
  250SOL     OW  770   1.857   0.833   2.239
  250SOL    HW1  771   1.899   0.769   2.303
  250SOL    HW2  772   1.819   0.782   2.161
  251SOL     OW  773   0.488   1.385   2.036
  251SOL    HW1  774   0.401   1.370   2.083
  251SOL    HW2  775   0.471   1.411   1.941
  252SOL     OW  776   1.664   1.280   2.519
  252SOL    HW1  777   1.763   1.288   2.533
  252SOL    HW2  778   1.619   1.364   2.550
  253SOL     OW  779   1.390   0.575   1.940
  253SOL    HW1  780   1.336   0.554   2.021
  253SOL    HW2  781   1.481   0.534   1.949
  254SOL     OW  782   0.527   0.256   2.190
  254SOL    HW1  783   0.554   0.197   2.115
  254SOL    HW2  784   0.527   0.351   2.159
  255SOL     OW  785   0.705   1.050   2.230
  255SOL    HW1  786   0.691   1.057   2.329
  255SOL    HW2  787   0.789   0.999   2.212
  256SOL     OW  788   0.367   1.100   2.363
  256SOL    HW1  789   0.360   1.183   2.307
  256SOL    HW2  790   0.371   1.020   2.303
  257SOL     OW  791   0.566   0.537   2.727
  257SOL    HW1  792   0.578   0.603   2.653
  257SOL    HW2  793   0.612   0.571   2.810
  258SOL     OW  794   1.252   1.348   2.250
  258SOL    HW1  795   1.302   1.425   2.290
  258SOL    HW2  796   1.157   1.350   2.282
  259SOL     OW  797   1.582   0.639   2.334
  259SOL    HW1  798   1.551   0.700   2.407
  259SOL    HW2  799   1.632   0.691   2.265
  260SOL     OW  800   1.209   0.525   2.137
  260SOL    HW1  801   1.222   0.441   2.191
  260SOL    HW2  802   1.180   0.599   2.197
  261SOL     OW  803   0.732   0.634   2.926
  261SOL    HW1  804   0.791   0.608   2.850
  261SOL    HW2  805   0.704   0.730   2.915
  262SOL     OW  806   0.307   0.063   2.480
  262SOL    HW1  807   0.296   0.157   2.513
  262SOL    HW2  808   0.302   0.000   2.557
  263SOL     OW  809   1.622   0.367   2.236
  263SOL    HW1  810   1.624   0.291   2.300
  263SOL    HW2  811   1.574   0.444   2.276
  264SOL     OW  812   1.540   0.274   1.987
  264SOL    HW1  813   1.479   0.199   2.010
  264SOL    HW2  814   1.562   0.326   2.070
  265SOL     OW  815   1.303   0.838   1.904
  265SOL    HW1  816   1.337   0.745   1.919
  265SOL    HW2  817   1.321   0.865   1.809
  266SOL     OW  818   1.068   1.333   2.711
  266SOL    HW1  819   1.075   1.249   2.656
  266SOL    HW2  820   1.130   1.402   2.675
  267SOL     OW  821   0.319   0.810   2.811
  267SOL    HW1  822   0.412   0.846   2.816
  267SOL    HW2  823   0.313   0.725   2.863
  268SOL     OW  824   0.008   1.326   2.062
  268SOL    HW1  825  -0.085   1.347   2.031
  268SOL    HW2  826   0.018   1.227   2.075
  269SOL     OW  827   0.088   1.801   2.789
  269SOL    HW1  828   0.046   1.715   2.762
  269SOL    HW2  829   0.182   1.804   2.755
  270SOL     OW  830   0.504   1.568   2.772
  270SOL    HW1  831   0.570   1.642   2.781
  270SOL    HW2  832   0.548   1.489   2.730
  271SOL     OW  833   0.815   0.572   2.187
  271SOL    HW1  834   0.822   0.483   2.141
  271SOL    HW2  835   0.721   0.606   2.179
  272SOL     OW  836   0.473   0.500   2.053
  272SOL    HW1  837   0.534   0.580   2.057
  272SOL    HW2  838   0.378   0.531   2.060
  273SOL     OW  839   1.302   0.855   2.171
  273SOL    HW1  840   1.216   0.824   2.213
  273SOL    HW2  841   1.298   0.841   2.072
  274SOL     OW  842   1.759   1.747   3.016
  274SOL    HW1  843   1.820   1.777   2.943
  274SOL    HW2  844   1.721   1.658   2.994
  275SOL     OW  845   1.726   0.135   2.385
  275SOL    HW1  846   1.799   0.118   2.318
  275SOL    HW2  847   1.695   0.048   2.423
  276SOL     OW  848   1.388   1.573   2.339
  276SOL    HW1  849   1.455   1.585   2.265
  276SOL    HW2  850   1.348   1.662   2.362
  277SOL     OW  851   1.280   0.927   2.534
  277SOL    HW1  852   1.340   0.846   2.536
  277SOL    HW2  853   1.320   0.996   2.474
  278SOL     OW  854   0.672   1.616   2.016
  278SOL    HW1  855   0.681   1.626   1.917
  278SOL    HW2  856   0.632   1.527   2.037
  279SOL     OW  857   1.841   0.175   2.825
  279SOL    HW1  858   1.880   0.090   2.789
  279SOL    HW2  859   1.743   0.177   2.806
  280SOL     OW  860   0.263   0.326   2.582
  280SOL    HW1  861   0.184   0.377   2.548
  280SOL    HW2  862   0.254   0.311   2.680
  281SOL     OW  863   1.194   1.612   1.893
  281SOL    HW1  864   1.200   1.519   1.930
  281SOL    HW2  865   1.135   1.612   1.813
  282SOL     OW  866   0.916   0.910   2.153
  282SOL    HW1  867   0.979   0.948   2.085
  282SOL    HW2  868   0.956   0.827   2.192
  283SOL     OW  869   1.039   1.098   2.558
  283SOL    HW1  870   0.969   1.051   2.612
  283SOL    HW2  871   1.098   1.030   2.515
  284SOL     OW  872   0.590   1.487   2.353
  284SOL    HW1  873   0.632   1.429   2.283
  284SOL    HW2  874   0.546   1.566   2.309
  285SOL     OW  875   0.255   1.348   2.152
  285SOL    HW1  876   0.159   1.349   2.125
  285SOL    HW2  877   0.267   1.401   2.236
  286SOL     OW  878   0.075   0.345   1.895
  286SOL    HW1  879  -0.017   0.317   1.866
  286SOL    HW2  880   0.106   0.422   1.839
  287SOL     OW  881   0.072   0.166   2.180
  287SOL    HW1  882   0.055   0.249   2.126
  287SOL    HW2  883   0.162   0.129   2.158
  288SOL     OW  884   1.183   1.335   1.981
  288SOL    HW1  885   1.084   1.324   1.983
  288SOL    HW2  886   1.217   1.350   2.074
  289SOL     OW  887   1.674   0.883   3.116
  289SOL    HW1  888   1.647   0.794   3.079
  289SOL    HW2  889   1.675   0.951   3.043
  290SOL     OW  890   1.225   0.325   2.311
  290SOL    HW1  891   1.290   0.251   2.300
  290SOL    HW2  892   1.245   0.375   2.395
  291SOL     OW  893   0.594   0.745   2.514
  291SOL    HW1  894   0.644   0.830   2.495
  291SOL    HW2  895   0.506   0.747   2.466
  292SOL     OW  896   0.859   1.374   1.878
  292SOL    HW1  897   0.813   1.389   1.966
  292SOL    HW2  898   0.903   1.459   1.848
  293SOL     OW  899   0.661   1.790   2.815
  293SOL    HW1  900   0.615   1.878   2.802
  293SOL    HW2  901   0.760   1.802   2.808
  294SOL     OW  902   0.859   0.956   2.723
  294SOL    HW1  903   0.913   0.887   2.771
  294SOL    HW2  904   0.827   1.025   2.789
  295SOL     OW  905   1.083   0.984   1.949
  295SOL    HW1  906   1.060   1.037   1.867
  295SOL    HW2  907   1.164   0.928   1.930
  296SOL     OW  908   1.861   1.569   2.713
  296SOL    HW1  909   1.790   1.557   2.643
  296SOL    HW2  910   1.862   1.490   2.773
  297SOL     OW  911   0.079   1.240   2.515
  297SOL    HW1  912   0.078   1.193   2.603
  297SOL    HW2  913   0.161   1.212   2.464
  298SOL     OW  914   1.824   0.192   3.089
  298SOL    HW1  915   1.820   0.102   3.133
  298SOL    HW2  916   1.827   0.181   2.990
  299SOL     OW  917   0.428   0.424   2.382
  299SOL    HW1  918   0.458   0.352   2.320
  299SOL    HW2  919   0.389   0.384   2.465
  300SOL     OW  920   0.812   1.586   2.549
  300SOL    HW1  921   0.844   1.596   2.455
  300SOL    HW2  922   0.733   1.524   2.551
  301SOL     OW  923   0.770   1.330   2.163
  301SOL    HW1  924   0.724   1.243   2.180
  301SOL    HW2  925   0.861   1.327   2.204
  302SOL     OW  926   1.352   0.052   2.030
  302SOL    HW1  927   1.387   0.011   1.946
  302SOL    HW2  928   1.262   0.014   2.050
  303SOL     OW  929   1.300   0.453   2.553
  303SOL    HW1  930   1.241   0.533   2.557
  303SOL    HW2  931   1.315   0.418   2.646
  304SOL     OW  932   1.593   0.221   2.744
  304SOL    HW1  933   1.509   0.220   2.798
  304SOL    HW2  934   1.595   0.304   2.688
  305SOL     OW  935   0.039   1.077   2.162
  305SOL    HW1  936   0.138   1.066   2.153
  305SOL    HW2  937  -0.001   0.991   2.194
  306SOL     OW  938   0.875   1.646   2.199
  306SOL    HW1  939   0.798   1.611   2.145
  306SOL    HW2  940   0.843   1.717   2.261
  307SOL     OW  941   0.230   2.490   0.113
  307SOL    HW1  942   0.137   2.488   0.150
  307SOL    HW2  943   0.231   2.451   0.021
  308SOL     OW  944   0.225   2.137   0.996
  308SOL    HW1  945   0.260   2.120   1.088
  308SOL    HW2  946   0.137   2.092   0.984
  309SOL     OW  947   0.019   2.230   0.647
  309SOL    HW1  948  -0.063   2.273   0.686
  309SOL    HW2  949  -0.009   2.157   0.584
  310SOL     OW  950   1.135   2.565   0.717
  310SOL    HW1  951   1.192   2.643   0.692
  310SOL    HW2  952   1.075   2.591   0.793
  311SOL     OW  953   1.755   2.469   0.231
  311SOL    HW1  954   1.743   2.456   0.132
  311SOL    HW2  955   1.725   2.388   0.280
  312SOL     OW  956   0.768   3.006   1.023
  312SOL    HW1  957   0.690   3.023   1.083
  312SOL    HW2  958   0.802   3.093   0.987
  313SOL     OW  959   0.850   2.660   1.823
  313SOL    HW1  960   0.846   2.736   1.888
  313SOL    HW2  961   0.872   2.696   1.732
  314SOL     OW  962   0.685   2.874   0.665
  314SOL    HW1  963   0.754   2.858   0.735
  314SOL    HW2  964   0.612   2.931   0.703
  315SOL     OW  965   0.438   2.254   1.499
  315SOL    HW1  966   0.520   2.198   1.508
  315SOL    HW2  967   0.357   2.196   1.503
  316SOL     OW  968   1.603   2.309   0.737
  316SOL    HW1  969   1.529   2.355   0.687
  316SOL    HW2  970   1.654   2.377   0.790
  317SOL     OW  971   1.594   1.976   1.480
  317SOL    HW1  972   1.576   2.043   1.408
  317SOL    HW2  973   1.591   2.022   1.569
  318SOL     OW  974   0.122   2.505   0.563
  318SOL    HW1  975   0.077   2.417   0.580
  318SOL    HW2  976   0.121   2.559   0.647
  319SOL     OW  977   0.113   2.599   1.597
  319SOL    HW1  978   0.201   2.586   1.642
  319SOL    HW2  979   0.100   2.696   1.575
  320SOL     OW  980   0.809   1.866   0.502
  320SOL    HW1  981   0.849   1.957   0.493
  320SOL    HW2  982   0.709   1.874   0.508
  321SOL     OW  983   0.197   2.838   1.264
  321SOL    HW1  984   0.286   2.793   1.250
  321SOL    HW2  985   0.124   2.773   1.245
  322SOL     OW  986   1.525   2.861   0.190
  322SOL    HW1  987   1.462   2.785   0.203
  322SOL    HW2  988   1.573   2.879   0.276
  323SOL     OW  989   0.317   2.113   1.801
  323SOL    HW1  990   0.388   2.184   1.807
  323SOL    HW2  991   0.229   2.152   1.829
  324SOL     OW  992   0.598   2.591   0.270
  324SOL    HW1  993   0.622   2.660   0.202
  324SOL    HW2  994   0.520   2.624   0.324
  325SOL     OW  995   1.281   2.207   0.944
  325SOL    HW1  996   1.195   2.157   0.931
  325SOL    HW2  997   1.343   2.153   1.000
  326SOL     OW  998   0.807   2.467   1.465
  326SOL    HW1  999   0.760   2.464   1.554
  326SOL    HW2 1000   0.756   2.412   1.399
  327SOL     OW 1001   1.394   2.331   1.674
  327SOL    HW1 1002   1.374   2.374   1.762
  327SOL    HW2 1003   1.472   2.269   1.683
  328SOL     OW 1004   0.973   2.752   1.572
  328SOL    HW1 1005   1.019   2.668   1.543
  328SOL    HW2 1006   0.917   2.786   1.497
  329SOL     OW 1007   0.991   2.272   1.242
  329SOL    HW1 1008   0.914   2.306   1.296
  329SOL    HW2 1009   0.957   2.221   1.163
  330SOL     OW 1010   1.041   2.563   0.429
  330SOL    HW1 1011   1.067   2.559   0.525
  330SOL    HW2 1012   0.956   2.512   0.415
  331SOL     OW 1013   0.076   2.673   0.789
  331SOL    HW1 1014   0.175   2.661   0.798
  331SOL    HW2 1015   0.052   2.768   0.810
  332SOL     OW 1016   0.865   2.210   0.195
  332SOL    HW1 1017   0.924   2.273   0.146
  332SOL    HW2 1018   0.884   2.116   0.166
  333SOL     OW 1019   1.719   2.447   1.831
  333SOL    HW1 1020   1.693   2.536   1.795
  333SOL    HW2 1021   1.717   2.379   1.758
  334SOL     OW 1022   0.550   2.058   0.885
  334SOL    HW1 1023   0.545   2.053   0.985
  334SOL    HW2 1024   0.552   2.154   0.856
  335SOL     OW 1025   1.458   2.597   0.728
  335SOL    HW1 1026   1.453   2.532   0.803
  335SOL    HW2 1027   1.538   2.656   0.741
  336SOL     OW 1028   0.202   2.147   1.498
  336SOL    HW1 1029   0.122   2.207   1.485
  336SOL    HW2 1030   0.192   2.098   1.584
  337SOL     OW 1031   1.400   1.969   0.426
  337SOL    HW1 1032   1.376   1.932   0.336
  337SOL    HW2 1033   1.499   1.985   0.430
  338SOL     OW 1034   0.382   2.562   0.480
  338SOL    HW1 1035   0.427   2.472   0.477
  338SOL    HW2 1036   0.288   2.551   0.513
  339SOL     OW 1037   1.547   2.084   1.729
  339SOL    HW1 1038   1.542   2.121   1.821
  339SOL    HW2 1039   1.475   2.015   1.717
  340SOL     OW 1040   0.781   2.126   1.749
  340SOL    HW1 1041   0.848   2.065   1.792
  340SOL    HW2 1042   0.708   2.145   1.814
  341SOL     OW 1043   1.351   2.452   1.433
  341SOL    HW1 1044   1.379   2.409   1.518
  341SOL    HW2 1045   1.376   2.548   1.434
  342SOL     OW 1046   0.922   2.365   0.899
  342SOL    HW1 1047   0.897   2.356   0.803
  342SOL    HW2 1048   0.970   2.283   0.930
  343SOL     OW 1049   0.539   1.926   0.512
  343SOL    HW1 1050   0.458   1.927   0.570
  343SOL    HW2 1051   0.542   2.009   0.457
  344SOL     OW 1052   0.297   1.897   0.171
  344SOL    HW1 1053   0.346   1.981   0.150
  344SOL    HW2 1054   0.359   1.832   0.216
  345SOL     OW 1055   0.935   2.098   0.480
  345SOL    HW1 1056   0.887   2.139   0.402
  345SOL    HW2 1057   1.034   2.096   0.461
  346SOL     OW 1058   1.076   2.545   1.464
  346SOL    HW1 1059   0.996   2.484   1.467
  346SOL    HW2 1060   1.157   2.492   1.440
  347SOL     OW 1061   1.032   2.411   0.016
  347SOL    HW1 1062   0.991   2.493  -0.023
  347SOL    HW2 1063   1.096   2.437   0.089
  348SOL     OW 1064   0.078   2.418   1.386
  348SOL    HW1 1065   0.170   2.417   1.345
  348SOL    HW2 1066   0.072   2.492   1.453
  349SOL     OW 1067   0.561   2.084   1.147
  349SOL    HW1 1068   0.599   2.000   1.184
  349SOL    HW2 1069   0.473   2.103   1.191
  350SOL     OW 1070   0.866   2.316   0.642
  350SOL    HW1 1071   0.834   2.388   0.580
  350SOL    HW2 1072   0.890   2.235   0.589
  351SOL     OW 1073   1.017   1.901   0.753
  351SOL    HW1 1074   0.945   1.906   0.684
  351SOL    HW2 1075   0.993   1.832   0.822
  352SOL     OW 1076   1.466   2.452   0.992
  352SOL    HW1 1077   1.436   2.357   0.999
  352SOL    HW2 1078   1.539   2.468   1.058
  353SOL     OW 1079   1.857   2.695   0.377
  353SOL    HW1 1080   1.899   2.631   0.441
  353SOL    HW2 1081   1.819   2.644   0.299
  354SOL     OW 1082   1.390   2.437   0.078
  354SOL    HW1 1083   1.336   2.416   0.159
  354SOL    HW2 1084   1.481   2.396   0.087
  355SOL     OW 1085   0.527   2.118   0.328
  355SOL    HW1 1086   0.554   2.059   0.253
  355SOL    HW2 1087   0.527   2.213   0.297
  356SOL     OW 1088   1.638   2.961   1.079
  356SOL    HW1 1089   1.643   3.042   1.138
  356SOL    HW2 1090   1.552   2.963   1.028
  357SOL     OW 1091   0.915   1.951   1.402
  357SOL    HW1 1092   0.940   1.931   1.307
  357SOL    HW2 1093   0.987   2.007   1.444
  358SOL     OW 1094   0.410   2.675   1.251
  358SOL    HW1 1095   0.496   2.687   1.301
  358SOL    HW2 1096   0.368   2.588   1.278
  359SOL     OW 1097   1.274   2.248   1.262
  359SOL    HW1 1098   1.295   2.322   1.326
  359SOL    HW2 1099   1.185   2.265   1.219
  360SOL     OW 1100   0.566   2.399   0.865
  360SOL    HW1 1101   0.578   2.465   0.791
  360SOL    HW2 1102   0.612   2.433   0.948
  361SOL     OW 1103   1.582   2.501   0.472
  361SOL    HW1 1104   1.551   2.562   0.545
  361SOL    HW2 1105   1.632   2.553   0.403
  362SOL     OW 1106   0.402   2.613   1.598
  362SOL    HW1 1107   0.470   2.668   1.551
  362SOL    HW2 1108   0.442   2.525   1.625
  363SOL     OW 1109   1.587   2.641   1.670
  363SOL    HW1 1110   1.495   2.679   1.665
  363SOL    HW2 1111   1.647   2.688   1.605
  364SOL     OW 1112   1.013   1.967   1.770
  364SOL    HW1 1113   1.019   2.052   1.718
  364SOL    HW2 1114   1.045   1.891   1.713
  365SOL     OW 1115   0.504   1.912   1.740
  365SOL    HW1 1116   0.462   1.855   1.670
  365SOL    HW2 1117   0.438   1.981   1.772
  366SOL     OW 1118   0.573   2.732   1.029
  366SOL    HW1 1119   0.617   2.821   1.020
  366SOL    HW2 1120   0.510   2.732   1.106
  367SOL     OW 1121   1.360   2.724   1.045
  367SOL    HW1 1122   1.285   2.724   0.979
  367SOL    HW2 1123   1.397   2.632   1.054
  368SOL     OW 1124   1.209   2.387   0.275
  368SOL    HW1 1125   1.222   2.303   0.329
  368SOL    HW2 1126   1.180   2.461   0.335
  369SOL     OW 1127   0.307   2.075   1.231
  369SOL    HW1 1128   0.284   2.112   1.321
  369SOL    HW2 1129   0.277   1.980   1.225
  370SOL     OW 1130   0.732   2.496   1.064
  370SOL    HW1 1131   0.791   2.470   0.988
  370SOL    HW2 1132   0.704   2.592   1.053
  371SOL     OW 1133   1.728   2.797   1.854
  371SOL    HW1 1134   1.682   2.790   1.765
  371SOL    HW2 1135   1.666   2.841   1.920
  372SOL     OW 1136   0.307   1.925   0.618
  372SOL    HW1 1137   0.296   2.019   0.651
  372SOL    HW2 1138   0.302   1.862   0.695
  373SOL     OW 1139   1.622   2.229   0.374
  373SOL    HW1 1140   1.624   2.153   0.438
  373SOL    HW2 1141   1.574   2.306   0.414
  374SOL     OW 1142   1.023   2.628   0.966
  374SOL    HW1 1143   1.038   2.649   1.062
  374SOL    HW2 1144   0.993   2.533   0.957
  375SOL     OW 1145   0.350   2.760   1.804
  375SOL    HW1 1146   0.426   2.804   1.852
  375SOL    HW2 1147   0.385   2.713   1.722
  376SOL     OW 1148   1.540   2.136   0.125
  376SOL    HW1 1149   1.479   2.061   0.148
  376SOL    HW2 1150   1.562   2.188   0.208
  377SOL     OW 1151   1.303   2.700   0.042
  377SOL    HW1 1152   1.337   2.607   0.057
  377SOL    HW2 1153   1.321   2.727  -0.053
  378SOL     OW 1154   0.319   2.672   0.949
  378SOL    HW1 1155   0.412   2.708   0.954
  378SOL    HW2 1156   0.313   2.587   1.001
  379SOL     OW 1157   0.339   2.371   1.006
  379SOL    HW1 1158   0.287   2.288   0.989
  379SOL    HW2 1159   0.416   2.376   0.942
  380SOL     OW 1160   1.138   2.242   1.678
  380SOL    HW1 1161   1.093   2.305   1.742
  380SOL    HW2 1162   1.231   2.273   1.661
  381SOL     OW 1163   1.160   2.069   1.477
  381SOL    HW1 1164   1.160   2.133   1.554
  381SOL    HW2 1165   1.188   2.117   1.394
  382SOL     OW 1166   1.002   2.658   1.238
  382SOL    HW1 1167   1.043   2.626   1.324
  382SOL    HW2 1168   0.906   2.631   1.235
  383SOL     OW 1169   0.040   2.406   1.114
  383SOL    HW1 1170   0.125   2.373   1.073
  383SOL    HW2 1171   0.053   2.421   1.212
  384SOL     OW 1172   0.189   2.382   1.722
  384SOL    HW1 1173   0.248   2.342   1.652
  384SOL    HW2 1174   0.131   2.453   1.681
  385SOL     OW 1175   0.815   2.434   0.325
  385SOL    HW1 1176   0.822   2.345   0.279
  385SOL    HW2 1177   0.721   2.468   0.317
  386SOL     OW 1178   1.657   2.466   1.206
  386SOL    HW1 1179   1.619   2.397   1.268
  386SOL    HW2 1180   1.739   2.430   1.162
  387SOL     OW 1181   0.671   2.326   1.269
  387SOL    HW1 1182   0.637   2.237   1.239
  387SOL    HW2 1183   0.697   2.380   1.189
  388SOL     OW 1184   0.473   2.362   0.191
  388SOL    HW1 1185   0.534   2.442   0.195
  388SOL    HW2 1186   0.378   2.393   0.198
  389SOL     OW 1187   1.347   2.921   1.234
  389SOL    HW1 1188   1.371   2.858   1.160
  389SOL    HW2 1189   1.257   2.961   1.216
  390SOL     OW 1190   1.302   2.717   0.309
  390SOL    HW1 1191   1.216   2.686   0.351
  390SOL    HW2 1192   1.298   2.703   0.210
  391SOL     OW 1193   0.903   1.948   0.133
  391SOL    HW1 1194   0.954   1.949   0.047
  391SOL    HW2 1195   0.959   1.906   0.204
  392SOL     OW 1196   1.726   1.997   0.523
  392SOL    HW1 1197   1.799   1.980   0.456
  392SOL    HW2 1198   1.695   1.910   0.561
  393SOL     OW 1199   1.280   2.789   0.672
  393SOL    HW1 1200   1.340   2.708   0.674
  393SOL    HW2 1201   1.320   2.858   0.612
  394SOL     OW 1202   1.841   2.037   0.963
  394SOL    HW1 1203   1.880   1.952   0.927
  394SOL    HW2 1204   1.743   2.039   0.944
  395SOL     OW 1205   0.263   2.188   0.720
  395SOL    HW1 1206   0.184   2.239   0.686
  395SOL    HW2 1207   0.254   2.173   0.818
  396SOL     OW 1208   1.014   2.098   0.971
  396SOL    HW1 1209   1.006   2.062   0.878
  396SOL    HW2 1210   1.012   2.022   1.036
  397SOL     OW 1211   1.709   2.247   1.381
  397SOL    HW1 1212   1.782   2.316   1.385
  397SOL    HW2 1213   1.737   2.172   1.322
  398SOL     OW 1214   0.105   2.875   1.726
  398SOL    HW1 1215   0.028   2.842   1.780
  398SOL    HW2 1216   0.190   2.845   1.768
  399SOL     OW 1217   0.672   2.065   1.489
  399SOL    HW1 1218   0.762   2.049   1.449
  399SOL    HW2 1219   0.680   2.070   1.588
  400SOL     OW 1220   0.075   2.207   0.033
  400SOL    HW1 1221  -0.017   2.179   0.004
  400SOL    HW2 1222   0.106   2.284  -0.023
  401SOL     OW 1223   1.440   2.718   1.398
  401SOL    HW1 1224   1.383   2.770   1.335
  401SOL    HW2 1225   1.536   2.730   1.374
  402SOL     OW 1226   0.072   2.028   0.318
  402SOL    HW1 1227   0.055   2.111   0.264
  402SOL    HW2 1228   0.162   1.991   0.296
  403SOL     OW 1229   0.613   2.704   1.431
  403SOL    HW1 1230   0.669   2.785   1.414
  403SOL    HW2 1231   0.672   2.624   1.434
  404SOL     OW 1232   0.716   2.427   1.708
  404SOL    HW1 1233   0.735   2.492   1.782
  404SOL    HW2 1234   0.776   2.347   1.717
  405SOL     OW 1235   1.674   2.745   1.254
  405SOL    HW1 1236   1.647   2.656   1.217
  405SOL    HW2 1237   1.675   2.813   1.181
  406SOL     OW 1238   1.225   2.187   0.449
  406SOL    HW1 1239   1.290   2.113   0.438
  406SOL    HW2 1240   1.245   2.237   0.533
  407SOL     OW 1241   0.594   2.607   0.652
  407SOL    HW1 1242   0.644   2.692   0.633
  407SOL    HW2 1243   0.506   2.609   0.604
  408SOL     OW 1244   1.777   2.204   1.642
  408SOL    HW1 1245   1.760   2.235   1.548
  408SOL    HW2 1246   1.693   2.167   1.680
  409SOL     OW 1247   1.730   2.796   1.517
  409SOL    HW1 1248   1.768   2.887   1.532
  409SOL    HW2 1249   1.722   2.779   1.418
  410SOL     OW 1250   1.824   2.054   1.227
  410SOL    HW1 1251   1.820   1.964   1.271
  410SOL    HW2 1252   1.827   2.043   1.128
  411SOL     OW 1253   0.428   2.286   0.520
  411SOL    HW1 1254   0.458   2.214   0.458
  411SOL    HW2 1255   0.389   2.246   0.603
  412SOL     OW 1256   0.317   2.409   1.280
  412SOL    HW1 1257   0.355   2.350   1.352
  412SOL    HW2 1258   0.357   2.383   1.192
  413SOL     OW 1259   1.424   2.076   1.112
  413SOL    HW1 1260   1.476   2.011   1.167
  413SOL    HW2 1261   1.375   2.139   1.173
  414SOL     OW 1262   1.001   1.896   1.154
  414SOL    HW1 1263   0.938   1.824   1.123
  414SOL    HW2 1264   1.094   1.860   1.154
  415SOL     OW 1265   1.352   1.914   0.168
  415SOL    HW1 1266   1.387   1.873   0.084
  415SOL    HW2 1267   1.262   1.876   0.188
  416SOL     OW 1268   1.300   2.315   0.691
  416SOL    HW1 1269   1.241   2.395   0.695
  416SOL    HW2 1270   1.315   2.280   0.784
  417SOL     OW 1271   1.593   2.083   0.882
  417SOL    HW1 1272   1.509   2.082   0.936
  417SOL    HW2 1273   1.595   2.166   0.826
  418SOL     OW 1274   0.230   2.490   1.975
  418SOL    HW1 1275   0.137   2.488   2.012
  418SOL    HW2 1276   0.231   2.451   1.883
  419SOL     OW 1277   0.019   2.230   2.509
  419SOL    HW1 1278  -0.063   2.273   2.548
  419SOL    HW2 1279  -0.009   2.157   2.446
  420SOL     OW 1280   1.135   2.565   2.579
  420SOL    HW1 1281   1.192   2.643   2.554
  420SOL    HW2 1282   1.075   2.591   2.655
  421SOL     OW 1283   1.755   2.469   2.093
  421SOL    HW1 1284   1.743   2.456   1.994
  421SOL    HW2 1285   1.725   2.388   2.142
  422SOL     OW 1286   0.685   2.874   2.527
  422SOL    HW1 1287   0.754   2.858   2.597
  422SOL    HW2 1288   0.612   2.931   2.565
  423SOL     OW 1289   1.603   2.309   2.599
  423SOL    HW1 1290   1.529   2.355   2.549
  423SOL    HW2 1291   1.654   2.377   2.652
  424SOL     OW 1292   0.240   2.953   2.748
  424SOL    HW1 1293   0.254   2.869   2.800
  424SOL    HW2 1294   0.185   3.017   2.803
  425SOL     OW 1295   0.122   2.505   2.425
  425SOL    HW1 1296   0.077   2.417   2.442
  425SOL    HW2 1297   0.121   2.559   2.509
  426SOL     OW 1298   0.809   1.866   2.364
  426SOL    HW1 1299   0.849   1.957   2.355
  426SOL    HW2 1300   0.709   1.874   2.370
  427SOL     OW 1301   1.525   2.861   2.052
  427SOL    HW1 1302   1.462   2.785   2.065
  427SOL    HW2 1303   1.573   2.879   2.138
  428SOL     OW 1304   0.598   2.591   2.132
  428SOL    HW1 1305   0.622   2.660   2.064
  428SOL    HW2 1306   0.520   2.624   2.186
  429SOL     OW 1307   1.281   2.207   2.806
  429SOL    HW1 1308   1.195   2.157   2.793
  429SOL    HW2 1309   1.343   2.153   2.862
  430SOL     OW 1310   1.041   2.563   2.291
  430SOL    HW1 1311   1.067   2.559   2.387
  430SOL    HW2 1312   0.956   2.512   2.277
  431SOL     OW 1313   0.076   2.673   2.651
  431SOL    HW1 1314   0.175   2.661   2.660
  431SOL    HW2 1315   0.052   2.768   2.672
  432SOL     OW 1316   0.865   2.210   2.057
  432SOL    HW1 1317   0.924   2.273   2.008
  432SOL    HW2 1318   0.884   2.116   2.028
  433SOL     OW 1319   0.550   2.058   2.747
  433SOL    HW1 1320   0.545   2.053   2.847
  433SOL    HW2 1321   0.552   2.154   2.718
  434SOL     OW 1322   1.458   2.597   2.590
  434SOL    HW1 1323   1.453   2.532   2.665
  434SOL    HW2 1324   1.538   2.656   2.603
  435SOL     OW 1325   1.400   1.969   2.288
  435SOL    HW1 1326   1.376   1.932   2.198
  435SOL    HW2 1327   1.499   1.985   2.292
  436SOL     OW 1328   0.382   2.562   2.342
  436SOL    HW1 1329   0.427   2.472   2.339
  436SOL    HW2 1330   0.288   2.551   2.375
  437SOL     OW 1331   0.614   1.984   1.979
  437SOL    HW1 1332   0.712   1.962   1.986
  437SOL    HW2 1333   0.583   1.967   1.886
  438SOL     OW 1334   0.539   1.926   2.374
  438SOL    HW1 1335   0.458   1.927   2.432
  438SOL    HW2 1336   0.542   2.009   2.319
  439SOL     OW 1337   0.297   1.897   2.033
  439SOL    HW1 1338   0.346   1.981   2.012
  439SOL    HW2 1339   0.359   1.832   2.078
  440SOL     OW 1340   0.935   2.098   2.342
  440SOL    HW1 1341   0.887   2.139   2.264
  440SOL    HW2 1342   1.034   2.096   2.323
  441SOL     OW 1343   1.032   2.411   1.878
  441SOL    HW1 1344   0.991   2.493   1.839
  441SOL    HW2 1345   1.096   2.437   1.951
  442SOL     OW 1346   0.866   2.316   2.504
  442SOL    HW1 1347   0.834   2.388   2.442
  442SOL    HW2 1348   0.890   2.235   2.451
  443SOL     OW 1349   1.017   1.901   2.615
  443SOL    HW1 1350   0.945   1.906   2.546
  443SOL    HW2 1351   0.993   1.832   2.684
  444SOL     OW 1352   1.857   2.695   2.239
  444SOL    HW1 1353   1.899   2.631   2.303
  444SOL    HW2 1354   1.819   2.644   2.161
  445SOL     OW 1355   1.390   2.437   1.940
  445SOL    HW1 1356   1.336   2.416   2.021
  445SOL    HW2 1357   1.481   2.396   1.949
  446SOL     OW 1358   0.527   2.118   2.190
  446SOL    HW1 1359   0.554   2.059   2.115
  446SOL    HW2 1360   0.527   2.213   2.159
  447SOL     OW 1361   1.111   3.057   2.962
  447SOL    HW1 1362   1.071   3.101   3.043
  447SOL    HW2 1363   1.070   3.094   2.879
  448SOL     OW 1364   0.566   2.399   2.727
  448SOL    HW1 1365   0.578   2.465   2.653
  448SOL    HW2 1366   0.612   2.433   2.810
  449SOL     OW 1367   1.582   2.501   2.334
  449SOL    HW1 1368   1.551   2.562   2.407
  449SOL    HW2 1369   1.632   2.553   2.265
  450SOL     OW 1370   0.573   2.732   2.891
  450SOL    HW1 1371   0.617   2.821   2.882
  450SOL    HW2 1372   0.510   2.732   2.968
  451SOL     OW 1373   1.209   2.387   2.137
  451SOL    HW1 1374   1.222   2.303   2.191
  451SOL    HW2 1375   1.180   2.461   2.197
  452SOL     OW 1376   0.732   2.496   2.926
  452SOL    HW1 1377   0.791   2.470   2.850
  452SOL    HW2 1378   0.704   2.592   2.915
  453SOL     OW 1379   0.307   1.925   2.480
  453SOL    HW1 1380   0.296   2.019   2.513
  453SOL    HW2 1381   0.302   1.862   2.557
  454SOL     OW 1382   1.622   2.229   2.236
  454SOL    HW1 1383   1.624   2.153   2.300
  454SOL    HW2 1384   1.574   2.306   2.276
  455SOL     OW 1385   1.540   2.136   1.987
  455SOL    HW1 1386   1.479   2.061   2.010
  455SOL    HW2 1387   1.562   2.188   2.070
  456SOL     OW 1388   1.303   2.700   1.904
  456SOL    HW1 1389   1.337   2.607   1.919
  456SOL    HW2 1390   1.321   2.727   1.809
  457SOL     OW 1391   1.068   3.195   2.711
  457SOL    HW1 1392   1.075   3.111   2.656
  457SOL    HW2 1393   1.130   3.264   2.675
  458SOL     OW 1394   0.319   2.672   2.811
  458SOL    HW1 1395   0.412   2.708   2.816
  458SOL    HW2 1396   0.313   2.587   2.863
  459SOL     OW 1397   0.815   2.434   2.187
  459SOL    HW1 1398   0.822   2.345   2.141
  459SOL    HW2 1399   0.721   2.468   2.179
  460SOL     OW 1400   0.473   2.362   2.053
  460SOL    HW1 1401   0.534   2.442   2.057
  460SOL    HW2 1402   0.378   2.393   2.060
  461SOL     OW 1403   1.302   2.717   2.171
  461SOL    HW1 1404   1.216   2.686   2.213
  461SOL    HW2 1405   1.298   2.703   2.072
  462SOL     OW 1406   1.726   1.997   2.385
  462SOL    HW1 1407   1.799   1.980   2.318
  462SOL    HW2 1408   1.695   1.910   2.423
  463SOL     OW 1409   1.280   2.789   2.534
  463SOL    HW1 1410   1.340   2.708   2.536
  463SOL    HW2 1411   1.320   2.858   2.474
  464SOL     OW 1412   1.841   2.037   2.825
  464SOL    HW1 1413   1.880   1.952   2.789
  464SOL    HW2 1414   1.743   2.039   2.806
  465SOL     OW 1415   0.263   2.188   2.582
  465SOL    HW1 1416   0.184   2.239   2.548
  465SOL    HW2 1417   0.254   2.173   2.680
  466SOL     OW 1418   0.916   2.772   2.153
  466SOL    HW1 1419   0.979   2.810   2.085
  466SOL    HW2 1420   0.956   2.689   2.192
  467SOL     OW 1421   0.075   2.207   1.895
  467SOL    HW1 1422  -0.017   2.179   1.866
  467SOL    HW2 1423   0.106   2.284   1.839
  468SOL     OW 1424   0.072   2.028   2.180
  468SOL    HW1 1425   0.055   2.111   2.126
  468SOL    HW2 1426   0.162   1.991   2.158
  469SOL     OW 1427   1.674   2.745   3.116
  469SOL    HW1 1428   1.647   2.656   3.079
  469SOL    HW2 1429   1.675   2.813   3.043
  470SOL     OW 1430   1.225   2.187   2.311
  470SOL    HW1 1431   1.290   2.113   2.300
  470SOL    HW2 1432   1.245   2.237   2.395
  471SOL     OW 1433   0.594   2.607   2.514
  471SOL    HW1 1434   0.644   2.692   2.495
  471SOL    HW2 1435   0.506   2.609   2.466
  472SOL     OW 1436   0.428   2.286   2.382
  472SOL    HW1 1437   0.458   2.214   2.320
  472SOL    HW2 1438   0.389   2.246   2.465
  473SOL     OW 1439   1.352   1.914   2.030
  473SOL    HW1 1440   1.387   1.873   1.946
  473SOL    HW2 1441   1.262   1.876   2.050
  474SOL     OW 1442   1.300   2.315   2.553
  474SOL    HW1 1443   1.241   2.395   2.557
  474SOL    HW2 1444   1.315   2.280   2.646
  475SOL     OW 1445   1.593   2.083   2.744
  475SOL    HW1 1446   1.509   2.082   2.798
  475SOL    HW2 1447   1.595   2.166   2.688
  476SOL     OW 1448   2.092   0.628   0.113
  476SOL    HW1 1449   1.999   0.626   0.150
  476SOL    HW2 1450   2.093   0.589   0.021
  477SOL     OW 1451   2.087   0.275   0.996
  477SOL    HW1 1452   2.122   0.258   1.088
  477SOL    HW2 1453   1.999   0.230   0.984
  478SOL     OW 1454   1.881   0.368   0.647
  478SOL    HW1 1455   1.799   0.411   0.686
  478SOL    HW2 1456   1.853   0.295   0.584
  479SOL     OW 1457   2.431   1.275   1.165
  479SOL    HW1 1458   2.338   1.268   1.128
  479SOL    HW2 1459   2.442   1.364   1.209
  480SOL     OW 1460   2.630   1.144   1.023
  480SOL    HW1 1461   2.552   1.161   1.083
  480SOL    HW2 1462   2.664   1.231   0.987
  481SOL     OW 1463   2.712   0.798   1.823
  481SOL    HW1 1464   2.708   0.874   1.888
  481SOL    HW2 1465   2.734   0.834   1.732
  482SOL     OW 1466   2.547   1.012   0.665
  482SOL    HW1 1467   2.616   0.996   0.735
  482SOL    HW2 1468   2.474   1.069   0.703
  483SOL     OW 1469   2.548   1.161   1.803
  483SOL    HW1 1470   2.608   1.240   1.817
  483SOL    HW2 1471   2.462   1.192   1.762
  484SOL     OW 1472   2.197   1.435   1.061
  484SOL    HW1 1473   2.119   1.404   1.008
  484SOL    HW2 1474   2.255   1.493   1.004
  485SOL     OW 1475   2.300   0.392   1.499
  485SOL    HW1 1476   2.382   0.336   1.508
  485SOL    HW2 1477   2.219   0.334   1.503
  486SOL     OW 1478   2.093   1.713   0.483
  486SOL    HW1 1479   2.127   1.790   0.537
  486SOL    HW2 1480   2.137   1.713   0.393
  487SOL     OW 1481   2.092   1.434   0.538
  487SOL    HW1 1482   2.066   1.530   0.538
  487SOL    HW2 1483   2.021   1.380   0.583
  488SOL     OW 1484   2.102   1.091   0.886
  488SOL    HW1 1485   2.116   1.007   0.938
  488SOL    HW2 1486   2.047   1.155   0.941
  489SOL     OW 1487   2.482   1.786   1.439
  489SOL    HW1 1488   2.390   1.769   1.474
  489SOL    HW2 1489   2.510   1.878   1.465
  490SOL     OW 1490   2.468   0.964   0.123
  490SOL    HW1 1491   2.475   1.048   0.069
  490SOL    HW2 1492   2.514   0.977   0.211
  491SOL     OW 1493   1.984   0.643   0.563
  491SOL    HW1 1494   1.939   0.555   0.580
  491SOL    HW2 1495   1.983   0.697   0.647
  492SOL     OW 1496   1.975   0.737   1.597
  492SOL    HW1 1497   2.063   0.724   1.642
  492SOL    HW2 1498   1.962   0.834   1.575
  493SOL     OW 1499   2.475   1.365   0.726
  493SOL    HW1 1500   2.426   1.278   0.735
  493SOL    HW2 1501   2.452   1.408   0.639
  494SOL     OW 1502   2.671   0.004   0.502
  494SOL    HW1 1503   2.711   0.095   0.493
  494SOL    HW2 1504   2.571   0.012   0.508
  495SOL     OW 1505   2.059   0.976   1.264
  495SOL    HW1 1506   2.148   0.931   1.250
  495SOL    HW2 1507   1.986   0.911   1.245
  496SOL     OW 1508   2.179   0.251   1.801
  496SOL    HW1 1509   2.250   0.322   1.807
  496SOL    HW2 1510   2.091   0.290   1.829
  497SOL     OW 1511   2.460   0.729   0.270
  497SOL    HW1 1512   2.484   0.798   0.202
  497SOL    HW2 1513   2.382   0.762   0.324
  498SOL     OW 1514   2.669   0.605   1.465
  498SOL    HW1 1515   2.622   0.602   1.554
  498SOL    HW2 1516   2.618   0.550   1.399
  499SOL     OW 1517   2.853   0.410   1.242
  499SOL    HW1 1518   2.776   0.444   1.296
  499SOL    HW2 1519   2.819   0.359   1.163
  500SOL     OW 1520   1.938   0.811   0.789
  500SOL    HW1 1521   2.037   0.799   0.798
  500SOL    HW2 1522   1.914   0.906   0.810
  501SOL     OW 1523   1.992   1.821   1.571
  501SOL    HW1 1524   1.982   1.806   1.670
  501SOL    HW2 1525   1.906   1.857   1.535
  502SOL     OW 1526   2.727   0.348   0.195
  502SOL    HW1 1527   2.786   0.411   0.146
  502SOL    HW2 1528   2.746   0.254   0.166
  503SOL     OW 1529   2.412   0.196   0.885
  503SOL    HW1 1530   2.407   0.191   0.985
  503SOL    HW2 1531   2.414   0.292   0.856
  504SOL     OW 1532   2.870   1.456   0.477
  504SOL    HW1 1533   2.824   1.528   0.425
  504SOL    HW2 1534   2.866   1.476   0.575
  505SOL     OW 1535   2.213   1.801   0.853
  505SOL    HW1 1536   2.263   1.715   0.859
  505SOL    HW2 1537   2.278   1.878   0.850
  506SOL     OW 1538   2.183   0.943   0.242
  506SOL    HW1 1539   2.265   0.982   0.200
  506SOL    HW2 1540   2.156   0.861   0.193
  507SOL     OW 1541   2.323   1.266   1.727
  507SOL    HW1 1542   2.273   1.267   1.641
  507SOL    HW2 1543   2.260   1.248   1.803
  508SOL     OW 1544   2.064   0.285   1.498
  508SOL    HW1 1545   1.984   0.345   1.485
  508SOL    HW2 1546   2.054   0.236   1.584
  509SOL     OW 1547   2.326   1.743   0.323
  509SOL    HW1 1548   2.359   1.782   0.409
  509SOL    HW2 1549   2.402   1.736   0.258
  510SOL     OW 1550   2.111   1.785   1.241
  510SOL    HW1 1551   2.168   1.720   1.291
  510SOL    HW2 1552   2.095   1.752   1.148
  511SOL     OW 1553   2.244   0.700   0.480
  511SOL    HW1 1554   2.289   0.610   0.477
  511SOL    HW2 1555   2.150   0.689   0.513
  512SOL     OW 1556   2.476   0.122   0.117
  512SOL    HW1 1557   2.574   0.100   0.124
  512SOL    HW2 1558   2.445   0.105   0.024
  513SOL     OW 1559   2.643   0.264   1.749
  513SOL    HW1 1560   2.710   0.203   1.792
  513SOL    HW2 1561   2.570   0.283   1.814
  514SOL     OW 1562   2.665   1.402   0.924
  514SOL    HW1 1563   2.755   1.416   0.882
  514SOL    HW2 1564   2.594   1.404   0.853
  515SOL     OW 1565   2.784   0.503   0.899
  515SOL    HW1 1566   2.759   0.494   0.803
  515SOL    HW2 1567   2.832   0.421   0.930
  516SOL     OW 1568   2.401   0.064   0.512
  516SOL    HW1 1569   2.320   0.065   0.570
  516SOL    HW2 1570   2.404   0.147   0.457
  517SOL     OW 1571   2.159   0.035   0.171
  517SOL    HW1 1572   2.208   0.119   0.150
  517SOL    HW2 1573   2.221  -0.030   0.216
  518SOL     OW 1574   3.089   1.570   0.793
  518SOL    HW1 1575   3.110   1.644   0.728
  518SOL    HW2 1576   3.157   1.570   0.866
  519SOL     OW 1577   2.321   1.152   0.741
  519SOL    HW1 1578   2.250   1.125   0.806
  519SOL    HW2 1579   2.295   1.124   0.648
  520SOL     OW 1580   1.940   0.556   1.386
  520SOL    HW1 1581   2.032   0.555   1.345
  520SOL    HW2 1582   1.934   0.630   1.453
  521SOL     OW 1583   2.423   0.222   1.147
  521SOL    HW1 1584   2.461   0.138   1.184
  521SOL    HW2 1585   2.335   0.241   1.191
  522SOL     OW 1586   2.350   1.385   0.174
  522SOL    HW1 1587   2.263   1.370   0.221
  522SOL    HW2 1588   2.333   1.411   0.079
  523SOL     OW 1589   2.389   0.256   0.328
  523SOL    HW1 1590   2.416   0.197   0.253
  523SOL    HW2 1591   2.389   0.351   0.297
  524SOL     OW 1592   2.777   0.089   1.402
  524SOL    HW1 1593   2.802   0.069   1.307
  524SOL    HW2 1594   2.849   0.145   1.444
  525SOL     OW 1595   2.567   1.050   0.368
  525SOL    HW1 1596   2.553   1.057   0.467
  525SOL    HW2 1597   2.651   0.999   0.350
  526SOL     OW 1598   2.272   0.813   1.251
  526SOL    HW1 1599   2.358   0.825   1.301
  526SOL    HW2 1600   2.230   0.726   1.278
  527SOL     OW 1601   1.926   1.564   1.331
  527SOL    HW1 1602   1.880   1.646   1.297
  527SOL    HW2 1603   2.024   1.583   1.340
  528SOL     OW 1604   2.229   1.100   0.501
  528SOL    HW1 1605   2.222   1.183   0.445
  528SOL    HW2 1606   2.233   1.020   0.441
  529SOL     OW 1607   2.428   0.537   0.865
  529SOL    HW1 1608   2.440   0.603   0.791
  529SOL    HW2 1609   2.474   0.571   0.948
  530SOL     OW 1610   2.216   1.510   1.329
  530SOL    HW1 1611   2.195   1.466   1.242
  530SOL    HW2 1612   2.313   1.536   1.332
  531SOL     OW 1613   2.264   0.751   1.598
  531SOL    HW1 1614   2.332   0.806   1.551
  531SOL    HW2 1615   2.304   0.663   1.625
  532SOL     OW 1616   2.366   0.050   1.740
  532SOL    HW1 1617   2.324  -0.007   1.670
  532SOL    HW2 1618   2.300   0.119   1.772
  533SOL     OW 1619   2.435   0.870   1.029
  533SOL    HW1 1620   2.479   0.959   1.020
  533SOL    HW2 1621   2.372   0.870   1.106
  534SOL     OW 1622   3.071   0.525   0.275
  534SOL    HW1 1623   3.084   0.441   0.329
  534SOL    HW2 1624   3.042   0.599   0.335
  535SOL     OW 1625   2.169   0.213   1.231
  535SOL    HW1 1626   2.146   0.250   1.321
  535SOL    HW2 1627   2.139   0.118   1.225
  536SOL     OW 1628   1.899   1.310   1.282
  536SOL    HW1 1629   1.952   1.261   1.350
  536SOL    HW2 1630   1.921   1.408   1.287
  537SOL     OW 1631   2.594   0.634   1.064
  537SOL    HW1 1632   2.653   0.608   0.988
  537SOL    HW2 1633   2.566   0.730   1.053
  538SOL     OW 1634   2.169   0.063   0.618
  538SOL    HW1 1635   2.158   0.157   0.651
  538SOL    HW2 1636   2.164   0.000   0.695
  539SOL     OW 1637   2.885   0.766   0.966
  539SOL    HW1 1638   2.900   0.787   1.062
  539SOL    HW2 1639   2.855   0.671   0.957
  540SOL     OW 1640   2.842   1.573   1.700
  540SOL    HW1 1641   2.822   1.617   1.612
  540SOL    HW2 1642   2.881   1.482   1.684
  541SOL     OW 1643   2.212   0.898   1.804
  541SOL    HW1 1644   2.288   0.942   1.852
  541SOL    HW2 1645   2.247   0.851   1.722
  542SOL     OW 1646   2.181   0.810   0.949
  542SOL    HW1 1647   2.274   0.846   0.954
  542SOL    HW2 1648   2.175   0.725   1.001
  543SOL     OW 1649   2.201   0.509   1.006
  543SOL    HW1 1650   2.149   0.426   0.989
  543SOL    HW2 1651   2.278   0.514   0.942
  544SOL     OW 1652   1.870   1.326   0.200
  544SOL    HW1 1653   1.777   1.347   0.169
  544SOL    HW2 1654   1.880   1.227   0.213
  545SOL     OW 1655   1.950   1.801   0.927
  545SOL    HW1 1656   1.908   1.715   0.900
  545SOL    HW2 1657   2.044   1.804   0.893
  546SOL     OW 1658   2.366   1.568   0.910
  546SOL    HW1 1659   2.432   1.642   0.919
  546SOL    HW2 1660   2.410   1.489   0.868
  547SOL     OW 1661   2.864   0.796   1.238
  547SOL    HW1 1662   2.905   0.764   1.324
  547SOL    HW2 1663   2.768   0.769   1.235
  548SOL     OW 1664   1.902   0.544   1.114
  548SOL    HW1 1665   1.987   0.511   1.073
  548SOL    HW2 1666   1.915   0.559   1.212
  549SOL     OW 1667   2.051   0.520   1.722
  549SOL    HW1 1668   2.110   0.480   1.652
  549SOL    HW2 1669   1.993   0.591   1.681
  550SOL     OW 1670   2.677   0.572   0.325
  550SOL    HW1 1671   2.684   0.483   0.279
  550SOL    HW2 1672   2.583   0.606   0.317
  551SOL     OW 1673   2.114   1.564   1.744
  551SOL    HW1 1674   2.084   1.621   1.820
  551SOL    HW2 1675   2.107   1.467   1.770
  552SOL     OW 1676   2.533   0.464   1.269
  552SOL    HW1 1677   2.499   0.375   1.239
  552SOL    HW2 1678   2.559   0.518   1.189
  553SOL     OW 1679   2.335   0.500   0.191
  553SOL    HW1 1680   2.396   0.580   0.195
  553SOL    HW2 1681   2.240   0.531   0.198
  554SOL     OW 1682   2.021   1.137   1.466
  554SOL    HW1 1683   2.043   1.076   1.542
  554SOL    HW2 1684   2.031   1.088   1.380
  555SOL     OW 1685   1.945   1.258   1.022
  555SOL    HW1 1686   1.940   1.257   1.122
  555SOL    HW2 1687   1.862   1.217   0.984
  556SOL     OW 1688   2.550   1.662   1.716
  556SOL    HW1 1689   2.494   1.743   1.725
  556SOL    HW2 1690   2.602   1.666   1.630
  557SOL     OW 1691   2.765   0.086   0.133
  557SOL    HW1 1692   2.816   0.087   0.047
  557SOL    HW2 1693   2.821   0.044   0.204
  558SOL     OW 1694   1.992   1.794   1.851
  558SOL    HW1 1695   1.951   1.720   1.904
  558SOL    HW2 1696   2.056   1.845   1.909
  559SOL     OW 1697   2.692   1.273   1.422
  559SOL    HW1 1698   2.687   1.306   1.517
  559SOL    HW2 1699   2.606   1.292   1.376
  560SOL     OW 1700   2.534   1.616   0.154
  560SOL    HW1 1701   2.543   1.626   0.055
  560SOL    HW2 1702   2.494   1.527   0.175
  561SOL     OW 1703   2.125   0.326   0.720
  561SOL    HW1 1704   2.046   0.377   0.686
  561SOL    HW2 1705   2.116   0.311   0.818
  562SOL     OW 1706   3.056   1.612   0.031
  562SOL    HW1 1707   3.062   1.519   0.068
  562SOL    HW2 1708   2.997   1.612  -0.049
  563SOL     OW 1709   2.684   1.002   1.372
  563SOL    HW1 1710   2.724   1.001   1.280
  563SOL    HW2 1711   2.694   1.094   1.412
  564SOL     OW 1712   2.234   1.288   1.490
  564SOL    HW1 1713   2.221   1.381   1.456
  564SOL    HW2 1714   2.150   1.236   1.477
  565SOL     OW 1715   2.452   1.487   0.491
  565SOL    HW1 1716   2.494   1.429   0.421
  565SOL    HW2 1717   2.408   1.566   0.447
  566SOL     OW 1718   2.117   1.348   0.290
  566SOL    HW1 1719   2.021   1.349   0.263
  566SOL    HW2 1720   2.129   1.401   0.374
  567SOL     OW 1721   1.967   1.013   1.726
  567SOL    HW1 1722   1.890   0.980   1.780
  567SOL    HW2 1723   2.052   0.983   1.768
  568SOL     OW 1724   2.534   0.203   1.489
  568SOL    HW1 1725   2.624   0.187   1.449
  568SOL    HW2 1726   2.542   0.208   1.588
  569SOL     OW 1727   2.475   0.842   1.431
  569SOL    HW1 1728   2.531   0.923   1.414
  569SOL    HW2 1729   2.534   0.762   1.434
  570SOL     OW 1730   2.578   0.565   1.708
  570SOL    HW1 1731   2.597   0.630   1.782
  570SOL    HW2 1732   2.638   0.485   1.717
  571SOL     OW 1733   2.252   1.741   1.560
  571SOL    HW1 1734   2.161   1.782   1.558
  571SOL    HW2 1735   2.245   1.647   1.592
  572SOL     OW 1736   3.087   0.325   0.449
  572SOL    HW1 1737   3.152   0.251   0.438
  572SOL    HW2 1738   3.107   0.375   0.533
  573SOL     OW 1739   2.456   0.745   0.652
  573SOL    HW1 1740   2.506   0.830   0.633
  573SOL    HW2 1741   2.368   0.747   0.604
  574SOL     OW 1742   2.523   1.790   0.953
  574SOL    HW1 1743   2.477   1.878   0.940
  574SOL    HW2 1744   2.622   1.802   0.946
  575SOL     OW 1745   2.721   0.956   0.861
  575SOL    HW1 1746   2.775   0.887   0.909
  575SOL    HW2 1747   2.689   1.025   0.927
  576SOL     OW 1748   2.945   0.984   0.087
  576SOL    HW1 1749   2.922   1.037   0.005
  576SOL    HW2 1750   3.026   0.928   0.068
  577SOL     OW 1751   2.083   1.314   1.844
  577SOL    HW1 1752   2.018   1.241   1.823
  577SOL    HW2 1753   2.087   1.328   1.942
  578SOL     OW 1754   1.941   1.240   0.653
  578SOL    HW1 1755   1.940   1.193   0.741
  578SOL    HW2 1756   2.023   1.212   0.602
  579SOL     OW 1757   2.534   1.391   1.624
  579SOL    HW1 1758   2.456   1.341   1.662
  579SOL    HW2 1759   2.531   1.486   1.655
  580SOL     OW 1760   2.290   0.424   0.520
  580SOL    HW1 1761   2.320   0.352   0.458
  580SOL    HW2 1762   2.251   0.384   0.603
  581SOL     OW 1763   2.179   0.547   1.280
  581SOL    HW1 1764   2.217   0.488   1.352
  581SOL    HW2 1765   2.219   0.521   1.192
  582SOL     OW 1766   2.674   1.586   0.687
  582SOL    HW1 1767   2.706   1.596   0.593
  582SOL    HW2 1768   2.595   1.524   0.689
  583SOL     OW 1769   2.632   1.330   0.301
  583SOL    HW1 1770   2.586   1.243   0.318
  583SOL    HW2 1771   2.723   1.327   0.342
  584SOL     OW 1772   2.480   1.567   1.284
  584SOL    HW1 1773   2.475   1.649   1.341
  584SOL    HW2 1774   2.569   1.564   1.239
  585SOL     OW 1775   1.901   1.077   0.300
  585SOL    HW1 1776   2.000   1.066   0.291
  585SOL    HW2 1777   1.861   0.991   0.332
  586SOL     OW 1778   2.737   1.646   0.337
  586SOL    HW1 1779   2.660   1.611   0.283
  586SOL    HW2 1780   2.705   1.717   0.399
  587SOL     OW 1781   2.092   0.628   1.975
  587SOL    HW1 1782   1.999   0.626   2.012
  587SOL    HW2 1783   2.093   0.589   1.883
  588SOL     OW 1784   2.087   0.275   2.858
  588SOL    HW1 1785   2.122   0.258   2.950
  588SOL    HW2 1786   1.999   0.230   2.846
  589SOL     OW 1787   1.881   0.368   2.509
  589SOL    HW1 1788   1.799   0.411   2.548
  589SOL    HW2 1789   1.853   0.295   2.446
  590SOL     OW 1790   2.630   1.144   2.885
  590SOL    HW1 1791   2.552   1.161   2.945
  590SOL    HW2 1792   2.664   1.231   2.849
  591SOL     OW 1793   2.547   1.012   2.527
  591SOL    HW1 1794   2.616   0.996   2.597
  591SOL    HW2 1795   2.474   1.069   2.565
  592SOL     OW 1796   2.093   1.713   2.345
  592SOL    HW1 1797   2.127   1.790   2.399
  592SOL    HW2 1798   2.137   1.713   2.255
  593SOL     OW 1799   2.092   1.434   2.400
  593SOL    HW1 1800   2.066   1.530   2.400
  593SOL    HW2 1801   2.021   1.380   2.445
  594SOL     OW 1802   2.102   1.091   2.748
  594SOL    HW1 1803   2.116   1.007   2.800
  594SOL    HW2 1804   2.047   1.155   2.803
  595SOL     OW 1805   2.468   0.964   1.985
  595SOL    HW1 1806   2.475   1.048   1.931
  595SOL    HW2 1807   2.514   0.977   2.073
  596SOL     OW 1808   1.984   0.643   2.425
  596SOL    HW1 1809   1.939   0.555   2.442
  596SOL    HW2 1810   1.983   0.697   2.509
  597SOL     OW 1811   1.889   1.596   1.979
  597SOL    HW1 1812   1.870   1.500   2.000
  597SOL    HW2 1813   1.856   1.654   2.054
  598SOL     OW 1814   2.475   1.365   2.588
  598SOL    HW1 1815   2.426   1.278   2.597
  598SOL    HW2 1816   2.452   1.408   2.501
  599SOL     OW 1817   2.671   0.004   2.364
  599SOL    HW1 1818   2.711   0.095   2.355
  599SOL    HW2 1819   2.571   0.012   2.370
  600SOL     OW 1820   2.460   0.729   2.132
  600SOL    HW1 1821   2.484   0.798   2.064
  600SOL    HW2 1822   2.382   0.762   2.186
  601SOL     OW 1823   1.938   0.811   2.651
  601SOL    HW1 1824   2.037   0.799   2.660
  601SOL    HW2 1825   1.914   0.906   2.672
  602SOL     OW 1826   2.727   0.348   2.057
  602SOL    HW1 1827   2.786   0.411   2.008
  602SOL    HW2 1828   2.746   0.254   2.028
  603SOL     OW 1829   2.870   1.456   2.339
  603SOL    HW1 1830   2.824   1.528   2.287
  603SOL    HW2 1831   2.866   1.476   2.437
  604SOL     OW 1832   2.213   1.801   2.715
  604SOL    HW1 1833   2.263   1.715   2.721
  604SOL    HW2 1834   2.278   1.878   2.712
  605SOL     OW 1835   2.183   0.943   2.104
  605SOL    HW1 1836   2.265   0.982   2.062
  605SOL    HW2 1837   2.156   0.861   2.055
  606SOL     OW 1838   2.326   1.743   2.185
  606SOL    HW1 1839   2.359   1.782   2.271
  606SOL    HW2 1840   2.402   1.736   2.120
  607SOL     OW 1841   2.244   0.700   2.342
  607SOL    HW1 1842   2.289   0.610   2.339
  607SOL    HW2 1843   2.150   0.689   2.375
  608SOL     OW 1844   2.476   0.122   1.979
  608SOL    HW1 1845   2.574   0.100   1.986
  608SOL    HW2 1846   2.445   0.105   1.886
  609SOL     OW 1847   2.665   1.402   2.786
  609SOL    HW1 1848   2.755   1.416   2.744
  609SOL    HW2 1849   2.594   1.404   2.715
  610SOL     OW 1850   2.401   0.064   2.374
  610SOL    HW1 1851   2.320   0.065   2.432
  610SOL    HW2 1852   2.404   0.147   2.319
  611SOL     OW 1853   2.159   0.035   2.033
  611SOL    HW1 1854   2.208   0.119   2.012
  611SOL    HW2 1855   2.221  -0.030   2.078
  612SOL     OW 1856   3.089   1.570   2.655
  612SOL    HW1 1857   3.110   1.644   2.590
  612SOL    HW2 1858   3.157   1.570   2.728
  613SOL     OW 1859   2.321   1.152   2.603
  613SOL    HW1 1860   2.250   1.125   2.668
  613SOL    HW2 1861   2.295   1.124   2.510
  614SOL     OW 1862   2.350   1.385   2.036
  614SOL    HW1 1863   2.263   1.370   2.083
  614SOL    HW2 1864   2.333   1.411   1.941
  615SOL     OW 1865   2.389   0.256   2.190
  615SOL    HW1 1866   2.416   0.197   2.115
  615SOL    HW2 1867   2.389   0.351   2.159
  616SOL     OW 1868   2.567   1.050   2.230
  616SOL    HW1 1869   2.553   1.057   2.329
  616SOL    HW2 1870   2.651   0.999   2.212
  617SOL     OW 1871   2.229   1.100   2.363
  617SOL    HW1 1872   2.222   1.183   2.307
  617SOL    HW2 1873   2.233   1.020   2.303
  618SOL     OW 1874   2.428   0.537   2.727
  618SOL    HW1 1875   2.440   0.603   2.653
  618SOL    HW2 1876   2.474   0.571   2.810
  619SOL     OW 1877   3.071   0.525   2.137
  619SOL    HW1 1878   3.084   0.441   2.191
  619SOL    HW2 1879   3.042   0.599   2.197
  620SOL     OW 1880   2.594   0.634   2.926
  620SOL    HW1 1881   2.653   0.608   2.850
  620SOL    HW2 1882   2.566   0.730   2.915
  621SOL     OW 1883   2.169   0.063   2.480
  621SOL    HW1 1884   2.158   0.157   2.513
  621SOL    HW2 1885   2.164   0.000   2.557
  622SOL     OW 1886   2.885   0.766   2.828
  622SOL    HW1 1887   2.900   0.787   2.924
  622SOL    HW2 1888   2.855   0.671   2.819
  623SOL     OW 1889   2.181   0.810   2.811
  623SOL    HW1 1890   2.274   0.846   2.816
  623SOL    HW2 1891   2.175   0.725   2.863
  624SOL     OW 1892   1.870   1.326   2.062
  624SOL    HW1 1893   1.777   1.347   2.031
  624SOL    HW2 1894   1.880   1.227   2.075
  625SOL     OW 1895   1.950   1.801   2.789
  625SOL    HW1 1896   1.908   1.715   2.762
  625SOL    HW2 1897   2.044   1.804   2.755
  626SOL     OW 1898   2.366   1.568   2.772
  626SOL    HW1 1899   2.432   1.642   2.781
  626SOL    HW2 1900   2.410   1.489   2.730
  627SOL     OW 1901   2.864   0.796   3.100
  627SOL    HW1 1902   2.905   0.764   3.186
  627SOL    HW2 1903   2.768   0.769   3.097
  628SOL     OW 1904   2.677   0.572   2.187
  628SOL    HW1 1905   2.684   0.483   2.141
  628SOL    HW2 1906   2.583   0.606   2.179
  629SOL     OW 1907   2.335   0.500   2.053
  629SOL    HW1 1908   2.396   0.580   2.057
  629SOL    HW2 1909   2.240   0.531   2.060
  630SOL     OW 1910   2.765   0.086   1.995
  630SOL    HW1 1911   2.816   0.087   1.909
  630SOL    HW2 1912   2.821   0.044   2.066
  631SOL     OW 1913   2.534   1.616   2.016
  631SOL    HW1 1914   2.543   1.626   1.917
  631SOL    HW2 1915   2.494   1.527   2.037
  632SOL     OW 1916   2.125   0.326   2.582
  632SOL    HW1 1917   2.046   0.377   2.548
  632SOL    HW2 1918   2.116   0.311   2.680
  633SOL     OW 1919   2.452   1.487   2.353
  633SOL    HW1 1920   2.494   1.429   2.283
  633SOL    HW2 1921   2.408   1.566   2.309
  634SOL     OW 1922   2.117   1.348   2.152
  634SOL    HW1 1923   2.021   1.349   2.125
  634SOL    HW2 1924   2.129   1.401   2.236
  635SOL     OW 1925   1.937   0.345   1.895
  635SOL    HW1 1926   1.845   0.317   1.866
  635SOL    HW2 1927   1.968   0.422   1.839
  636SOL     OW 1928   1.934   0.166   2.180
  636SOL    HW1 1929   1.917   0.249   2.126
  636SOL    HW2 1930   2.024   0.129   2.158
  637SOL     OW 1931   3.087   0.325   2.311
  637SOL    HW1 1932   3.152   0.251   2.300
  637SOL    HW2 1933   3.107   0.375   2.395
  638SOL     OW 1934   2.456   0.745   2.514
  638SOL    HW1 1935   2.506   0.830   2.495
  638SOL    HW2 1936   2.368   0.747   2.466
  639SOL     OW 1937   2.523   1.790   2.815
  639SOL    HW1 1938   2.477   1.878   2.802
  639SOL    HW2 1939   2.622   1.802   2.808
  640SOL     OW 1940   2.721   0.956   2.723
  640SOL    HW1 1941   2.775   0.887   2.771
  640SOL    HW2 1942   2.689   1.025   2.789
  641SOL     OW 1943   1.941   1.240   2.515
  641SOL    HW1 1944   1.940   1.193   2.603
  641SOL    HW2 1945   2.023   1.212   2.464
  642SOL     OW 1946   2.290   0.424   2.382
  642SOL    HW1 1947   2.320   0.352   2.320
  642SOL    HW2 1948   2.251   0.384   2.465
  643SOL     OW 1949   2.674   1.586   2.549
  643SOL    HW1 1950   2.706   1.596   2.455
  643SOL    HW2 1951   2.595   1.524   2.551
  644SOL     OW 1952   2.632   1.330   2.163
  644SOL    HW1 1953   2.586   1.243   2.180
  644SOL    HW2 1954   2.723   1.327   2.204
  645SOL     OW 1955   1.901   1.077   2.162
  645SOL    HW1 1956   2.000   1.066   2.153
  645SOL    HW2 1957   1.861   0.991   2.194
  646SOL     OW 1958   2.737   1.646   2.199
  646SOL    HW1 1959   2.660   1.611   2.145
  646SOL    HW2 1960   2.705   1.717   2.261
  647SOL     OW 1961   2.092   2.490   0.113
  647SOL    HW1 1962   1.999   2.488   0.150
  647SOL    HW2 1963   2.093   2.451   0.021
  648SOL     OW 1964   2.087   2.137   0.996
  648SOL    HW1 1965   2.122   2.120   1.088
  648SOL    HW2 1966   1.999   2.092   0.984
  649SOL     OW 1967   1.881   2.230   0.647
  649SOL    HW1 1968   1.799   2.273   0.686
  649SOL    HW2 1969   1.853   2.157   0.584
  650SOL     OW 1970   2.630   3.006   1.023
  650SOL    HW1 1971   2.552   3.023   1.083
  650SOL    HW2 1972   2.664   3.093   0.987
  651SOL     OW 1973   2.712   2.660   1.823
  651SOL    HW1 1974   2.708   2.736   1.888
  651SOL    HW2 1975   2.734   2.696   1.732
  652SOL     OW 1976   2.547   2.874   0.665
  652SOL    HW1 1977   2.616   2.858   0.735
  652SOL    HW2 1978   2.474   2.931   0.703
  653SOL     OW 1979   2.300   2.254   1.499
  653SOL    HW1 1980   2.382   2.198   1.508
  653SOL    HW2 1981   2.219   2.196   1.503
  654SOL     OW 1982   1.984   2.505   0.563
  654SOL    HW1 1983   1.939   2.417   0.580
  654SOL    HW2 1984   1.983   2.559   0.647
  655SOL     OW 1985   1.975   2.599   1.597
  655SOL    HW1 1986   2.063   2.586   1.642
  655SOL    HW2 1987   1.962   2.696   1.575
  656SOL     OW 1988   2.671   1.866   0.502
  656SOL    HW1 1989   2.711   1.957   0.493
  656SOL    HW2 1990   2.571   1.874   0.508
  657SOL     OW 1991   2.059   2.838   1.264
  657SOL    HW1 1992   2.148   2.793   1.250
  657SOL    HW2 1993   1.986   2.773   1.245
  658SOL     OW 1994   2.179   2.113   1.801
  658SOL    HW1 1995   2.250   2.184   1.807
  658SOL    HW2 1996   2.091   2.152   1.829
  659SOL     OW 1997   2.460   2.591   0.270
  659SOL    HW1 1998   2.484   2.660   0.202
  659SOL    HW2 1999   2.382   2.624   0.324
  660SOL     OW 2000   2.669   2.467   1.465
  660SOL    HW1 2001   2.622   2.464   1.554
  660SOL    HW2 2002   2.618   2.412   1.399
  661SOL     OW 2003   2.853   2.272   1.242
  661SOL    HW1 2004   2.776   2.306   1.296
  661SOL    HW2 2005   2.819   2.221   1.163
  662SOL     OW 2006   1.938   2.673   0.789
  662SOL    HW1 2007   2.037   2.661   0.798
  662SOL    HW2 2008   1.914   2.768   0.810
  663SOL     OW 2009   2.727   2.210   0.195
  663SOL    HW1 2010   2.786   2.273   0.146
  663SOL    HW2 2011   2.746   2.116   0.166
  664SOL     OW 2012   2.412   2.058   0.885
  664SOL    HW1 2013   2.407   2.053   0.985
  664SOL    HW2 2014   2.414   2.154   0.856
  665SOL     OW 2015   2.064   2.147   1.498
  665SOL    HW1 2016   1.984   2.207   1.485
  665SOL    HW2 2017   2.054   2.098   1.584
  666SOL     OW 2018   2.244   2.562   0.480
  666SOL    HW1 2019   2.289   2.472   0.477
  666SOL    HW2 2020   2.150   2.551   0.513
  667SOL     OW 2021   2.643   2.126   1.749
  667SOL    HW1 2022   2.710   2.065   1.792
  667SOL    HW2 2023   2.570   2.145   1.814
  668SOL     OW 2024   2.784   2.365   0.899
  668SOL    HW1 2025   2.759   2.356   0.803
  668SOL    HW2 2026   2.832   2.283   0.930
  669SOL     OW 2027   2.401   1.926   0.512
  669SOL    HW1 2028   2.320   1.927   0.570
  669SOL    HW2 2029   2.404   2.009   0.457
  670SOL     OW 2030   2.159   1.897   0.171
  670SOL    HW1 2031   2.208   1.981   0.150
  670SOL    HW2 2032   2.221   1.832   0.216
  671SOL     OW 2033   1.940   2.418   1.386
  671SOL    HW1 2034   2.032   2.417   1.345
  671SOL    HW2 2035   1.934   2.492   1.453
  672SOL     OW 2036   2.423   2.084   1.147
  672SOL    HW1 2037   2.461   2.000   1.184
  672SOL    HW2 2038   2.335   2.103   1.191
  673SOL     OW 2039   2.389   2.118   0.328
  673SOL    HW1 2040   2.416   2.059   0.253
  673SOL    HW2 2041   2.389   2.213   0.297
  674SOL     OW 2042   2.777   1.951   1.402
  674SOL    HW1 2043   2.802   1.931   1.307
  674SOL    HW2 2044   2.849   2.007   1.444
  675SOL     OW 2045   2.272   2.675   1.251
  675SOL    HW1 2046   2.358   2.687   1.301
  675SOL    HW2 2047   2.230   2.588   1.278
  676SOL     OW 2048   2.428   2.399   0.865
  676SOL    HW1 2049   2.440   2.465   0.791
  676SOL    HW2 2050   2.474   2.433   0.948
  677SOL     OW 2051   2.264   2.613   1.598
  677SOL    HW1 2052   2.332   2.668   1.551
  677SOL    HW2 2053   2.304   2.525   1.625
  678SOL     OW 2054   2.366   1.912   1.740
  678SOL    HW1 2055   2.324   1.855   1.670
  678SOL    HW2 2056   2.300   1.981   1.772
  679SOL     OW 2057   2.435   2.732   1.029
  679SOL    HW1 2058   2.479   2.821   1.020
  679SOL    HW2 2059   2.372   2.732   1.106
  680SOL     OW 2060   3.071   2.387   0.275
  680SOL    HW1 2061   3.084   2.303   0.329
  680SOL    HW2 2062   3.042   2.461   0.335
  681SOL     OW 2063   2.169   2.075   1.231
  681SOL    HW1 2064   2.146   2.112   1.321
  681SOL    HW2 2065   2.139   1.980   1.225
  682SOL     OW 2066   2.594   2.496   1.064
  682SOL    HW1 2067   2.653   2.470   0.988
  682SOL    HW2 2068   2.566   2.592   1.053
  683SOL     OW 2069   2.169   1.925   0.618
  683SOL    HW1 2070   2.158   2.019   0.651
  683SOL    HW2 2071   2.164   1.862   0.695
  684SOL     OW 2072   2.885   2.628   0.966
  684SOL    HW1 2073   2.900   2.649   1.062
  684SOL    HW2 2074   2.855   2.533   0.957
  685SOL     OW 2075   2.212   2.760   1.804
  685SOL    HW1 2076   2.288   2.804   1.852
  685SOL    HW2 2077   2.247   2.713   1.722
  686SOL     OW 2078   2.181   2.672   0.949
  686SOL    HW1 2079   2.274   2.708   0.954
  686SOL    HW2 2080   2.175   2.587   1.001
  687SOL     OW 2081   2.201   2.371   1.006
  687SOL    HW1 2082   2.149   2.288   0.989
  687SOL    HW2 2083   2.278   2.376   0.942
  688SOL     OW 2084   2.864   2.658   1.238
  688SOL    HW1 2085   2.905   2.626   1.324
  688SOL    HW2 2086   2.768   2.631   1.235
  689SOL     OW 2087   1.902   2.406   1.114
  689SOL    HW1 2088   1.987   2.373   1.073
  689SOL    HW2 2089   1.915   2.421   1.212
  690SOL     OW 2090   2.051   2.382   1.722
  690SOL    HW1 2091   2.110   2.342   1.652
  690SOL    HW2 2092   1.993   2.453   1.681
  691SOL     OW 2093   2.677   2.434   0.325
  691SOL    HW1 2094   2.684   2.345   0.279
  691SOL    HW2 2095   2.583   2.468   0.317
  692SOL     OW 2096   2.533   2.326   1.269
  692SOL    HW1 2097   2.499   2.237   1.239
  692SOL    HW2 2098   2.559   2.380   1.189
  693SOL     OW 2099   2.335   2.362   0.191
  693SOL    HW1 2100   2.396   2.442   0.195
  693SOL    HW2 2101   2.240   2.393   0.198
  694SOL     OW 2102   3.164   2.717   0.309
  694SOL    HW1 2103   3.078   2.686   0.351
  694SOL    HW2 2104   3.160   2.703   0.210
  695SOL     OW 2105   2.765   1.948   0.133
  695SOL    HW1 2106   2.816   1.949   0.047
  695SOL    HW2 2107   2.821   1.906   0.204
  696SOL     OW 2108   2.125   2.188   0.720
  696SOL    HW1 2109   2.046   2.239   0.686
  696SOL    HW2 2110   2.116   2.173   0.818
  697SOL     OW 2111   2.901   2.960   0.696
  697SOL    HW1 2112   2.831   2.913   0.750
  697SOL    HW2 2113   2.960   2.892   0.653
  698SOL     OW 2114   1.967   2.875   1.726
  698SOL    HW1 2115   1.890   2.842   1.780
  698SOL    HW2 2116   2.052   2.845   1.768
  699SOL     OW 2117   2.534   2.065   1.489
  699SOL    HW1 2118   2.624   2.049   1.449
  699SOL    HW2 2119   2.542   2.070   1.588
  700SOL     OW 2120   1.934   2.028   0.318
  700SOL    HW1 2121   1.917   2.111   0.264
  700SOL    HW2 2122   2.024   1.991   0.296
  701SOL     OW 2123   2.475   2.704   1.431
  701SOL    HW1 2124   2.531   2.785   1.414
  701SOL    HW2 2125   2.534   2.624   1.434
  702SOL     OW 2126   2.578   2.427   1.708
  702SOL    HW1 2127   2.597   2.492   1.782
  702SOL    HW2 2128   2.638   2.347   1.717
  703SOL     OW 2129   3.087   2.187   0.449
  703SOL    HW1 2130   3.152   2.113   0.438
  703SOL    HW2 2131   3.107   2.237   0.533
  704SOL     OW 2132   2.456   2.607   0.652
  704SOL    HW1 2133   2.506   2.692   0.633
  704SOL    HW2 2134   2.368   2.609   0.604
  705SOL     OW 2135   2.721   2.818   0.861
  705SOL    HW1 2136   2.775   2.749   0.909
  705SOL    HW2 2137   2.689   2.887   0.927
  706SOL     OW 2138   2.290   2.286   0.520
  706SOL    HW1 2139   2.320   2.214   0.458
  706SOL    HW2 2140   2.251   2.246   0.603
  707SOL     OW 2141   2.179   2.409   1.280
  707SOL    HW1 2142   2.217   2.350   1.352
  707SOL    HW2 2143   2.219   2.383   1.192
  708SOL     OW 2144   2.863   1.896   1.154
  708SOL    HW1 2145   2.800   1.824   1.123
  708SOL    HW2 2146   2.956   1.860   1.154
  709SOL     OW 2147   2.092   2.490   1.975
  709SOL    HW1 2148   1.999   2.488   2.012
  709SOL    HW2 2149   2.093   2.451   1.883
  710SOL     OW 2150   2.087   2.137   2.858
  710SOL    HW1 2151   2.122   2.120   2.950
  710SOL    HW2 2152   1.999   2.092   2.846
  711SOL     OW 2153   1.881   2.230   2.509
  711SOL    HW1 2154   1.799   2.273   2.548
  711SOL    HW2 2155   1.853   2.157   2.446
  712SOL     OW 2156   2.547   2.874   2.527
  712SOL    HW1 2157   2.616   2.858   2.597
  712SOL    HW2 2158   2.474   2.931   2.565
  713SOL     OW 2159   1.984   2.505   2.425
  713SOL    HW1 2160   1.939   2.417   2.442
  713SOL    HW2 2161   1.983   2.559   2.509
  714SOL     OW 2162   2.671   1.866   2.364
  714SOL    HW1 2163   2.711   1.957   2.355
  714SOL    HW2 2164   2.571   1.874   2.370
  715SOL     OW 2165   2.460   2.591   2.132
  715SOL    HW1 2166   2.484   2.660   2.064
  715SOL    HW2 2167   2.382   2.624   2.186
  716SOL     OW 2168   1.938   2.673   2.651
  716SOL    HW1 2169   2.037   2.661   2.660
  716SOL    HW2 2170   1.914   2.768   2.672
  717SOL     OW 2171   2.727   2.210   2.057
  717SOL    HW1 2172   2.786   2.273   2.008
  717SOL    HW2 2173   2.746   2.116   2.028
  718SOL     OW 2174   2.412   2.058   2.747
  718SOL    HW1 2175   2.407   2.053   2.847
  718SOL    HW2 2176   2.414   2.154   2.718
  719SOL     OW 2177   2.244   2.562   2.342
  719SOL    HW1 2178   2.289   2.472   2.339
  719SOL    HW2 2179   2.150   2.551   2.375
  720SOL     OW 2180   2.476   1.984   1.979
  720SOL    HW1 2181   2.574   1.962   1.986
  720SOL    HW2 2182   2.445   1.967   1.886
  721SOL     OW 2183   2.401   1.926   2.374
  721SOL    HW1 2184   2.320   1.927   2.432
  721SOL    HW2 2185   2.404   2.009   2.319
  722SOL     OW 2186   2.159   1.897   2.033
  722SOL    HW1 2187   2.208   1.981   2.012
  722SOL    HW2 2188   2.221   1.832   2.078
  723SOL     OW 2189   2.389   2.118   2.190
  723SOL    HW1 2190   2.416   2.059   2.115
  723SOL    HW2 2191   2.389   2.213   2.159
  724SOL     OW 2192   2.428   2.399   2.727
  724SOL    HW1 2193   2.440   2.465   2.653
  724SOL    HW2 2194   2.474   2.433   2.810
  725SOL     OW 2195   2.435   2.732   2.891
  725SOL    HW1 2196   2.479   2.821   2.882
  725SOL    HW2 2197   2.372   2.732   2.968
  726SOL     OW 2198   3.071   2.387   2.137
  726SOL    HW1 2199   3.084   2.303   2.191
  726SOL    HW2 2200   3.042   2.461   2.197
  727SOL     OW 2201   2.594   2.496   2.926
  727SOL    HW1 2202   2.653   2.470   2.850
  727SOL    HW2 2203   2.566   2.592   2.915
  728SOL     OW 2204   2.169   1.925   2.480
  728SOL    HW1 2205   2.158   2.019   2.513
  728SOL    HW2 2206   2.164   1.862   2.557
  729SOL     OW 2207   2.885   2.628   2.828
  729SOL    HW1 2208   2.900   2.649   2.924
  729SOL    HW2 2209   2.855   2.533   2.819
  730SOL     OW 2210   2.930   3.195   2.711
  730SOL    HW1 2211   2.937   3.111   2.656
  730SOL    HW2 2212   2.992   3.264   2.675
  731SOL     OW 2213   2.181   2.672   2.811
  731SOL    HW1 2214   2.274   2.708   2.816
  731SOL    HW2 2215   2.175   2.587   2.863
  732SOL     OW 2216   2.864   2.658   3.100
  732SOL    HW1 2217   2.905   2.626   3.186
  732SOL    HW2 2218   2.768   2.631   3.097
  733SOL     OW 2219   2.677   2.434   2.187
  733SOL    HW1 2220   2.684   2.345   2.141
  733SOL    HW2 2221   2.583   2.468   2.179
  734SOL     OW 2222   2.335   2.362   2.053
  734SOL    HW1 2223   2.396   2.442   2.057
  734SOL    HW2 2224   2.240   2.393   2.060
  735SOL     OW 2225   3.164   2.717   2.171
  735SOL    HW1 2226   3.078   2.686   2.213
  735SOL    HW2 2227   3.160   2.703   2.072
  736SOL     OW 2228   2.765   1.948   1.995
  736SOL    HW1 2229   2.816   1.949   1.909
  736SOL    HW2 2230   2.821   1.906   2.066
  737SOL     OW 2231   2.125   2.188   2.582
  737SOL    HW1 2232   2.046   2.239   2.548
  737SOL    HW2 2233   2.116   2.173   2.680
  738SOL     OW 2234   2.901   2.960   2.558
  738SOL    HW1 2235   2.831   2.913   2.612
  738SOL    HW2 2236   2.960   2.892   2.515
  739SOL     OW 2237   1.937   2.207   1.895
  739SOL    HW1 2238   1.845   2.179   1.866
  739SOL    HW2 2239   1.968   2.284   1.839
  740SOL     OW 2240   1.934   2.028   2.180
  740SOL    HW1 2241   1.917   2.111   2.126
  740SOL    HW2 2242   2.024   1.991   2.158
  741SOL     OW 2243   3.087   2.187   2.311
  741SOL    HW1 2244   3.152   2.113   2.300
  741SOL    HW2 2245   3.107   2.237   2.395
  742SOL     OW 2246   2.456   2.607   2.514
  742SOL    HW1 2247   2.506   2.692   2.495
  742SOL    HW2 2248   2.368   2.609   2.466
  743SOL     OW 2249   2.721   2.818   2.723
  743SOL    HW1 2250   2.775   2.749   2.771
  743SOL    HW2 2251   2.689   2.887   2.789
  744SOL     OW 2252   2.290   2.286   2.382
  744SOL    HW1 2253   2.320   2.214   2.320
  744SOL    HW2 2254   2.251   2.246   2.465
   2.86008   2.86008   2.86008
