; mobley_6978427_GMX.top created by acpype (v: 2023.10.27) on Thu May 14 14:01:07 2026

[ defaults ]
; nbfunc        comb-rule       gen-pairs       fudgeLJ fudgeQQ
1               2               yes             0.5     0.8333333333

; Include mobley_6978427_GMX.itp topology
#include "mobley_6978427_GMX.itp"

; Ligand position restraints
#ifdef POSRES_LIG
#include "posre_mobley_6978427.itp"
#endif

#include "../common/SOL.TIP3P.itp"

[ system ]
mobley_6978427 in water

[ molecules ]
; Compound        nmols
 mobley_6978427   1     
SOL               650
