; mobley_1881249_GMX.top created by acpype (v: 2023.10.27) on Thu May 14 13:37:45 2026

[ defaults ]
; nbfunc        comb-rule       gen-pairs       fudgeLJ fudgeQQ
1               2               yes             0.5     0.8333333333

; Include mobley_1881249_GMX.itp topology
#include "mobley_1881249_GMX.itp"

; Ligand position restraints
#ifdef POSRES_LIG
#include "posre_mobley_1881249.itp"
#endif

#include "../common/SOL.TIP3P.itp"

[ system ]
mobley_1881249 in water

[ molecules ]
; Compound        nmols
 mobley_1881249   1     
SOL               625
