; mobley_5220185_GMX.itp created by acpype (v: 2023.10.27) on Thu May 14 13:57:54 2026

[ atomtypes ]
;name   bond_type     mass     charge   ptype   sigma         epsilon       Amb
 ca       ca          0.00000  0.00000   A     3.31521e-01   4.13379e-01 ; 1.86  0.0988
 c3       c3          0.00000  0.00000   A     3.39771e-01   4.51035e-01 ; 1.91  0.1078
 nb       nb          0.00000  0.00000   A     3.38417e-01   3.93714e-01 ; 1.90  0.0941
 h4       h4          0.00000  0.00000   A     2.53639e-01   6.73624e-02 ; 1.42  0.0161
 hc       hc          0.00000  0.00000   A     2.60018e-01   8.70272e-02 ; 1.46  0.0208

[ moleculetype ]
;name            nrexcl
 mobley_5220185   3

[ atoms ]
;   nr  type  resi  res  atom  cgnr     charge      mass       ; qtot   bond_type
     1   ca     1   MOL    C1    1     0.272900     12.01000 ; qtot 0.273
     2   ca     1   MOL    C2    2     0.285900     12.01000 ; qtot 0.559
     3   ca     1   MOL    C3    3     0.277900     12.01000 ; qtot 0.837
     4   ca     1   MOL    C4    4     0.301300     12.01000 ; qtot 1.138
     5   c3     1   MOL    C5    5    -0.090100     12.01000 ; qtot 1.048
     6   c3     1   MOL    C6    6    -0.125700     12.01000 ; qtot 0.922
     7   nb     1   MOL    N1    7    -0.627000     14.01000 ; qtot 0.295
     8   nb     1   MOL    N2    8    -0.633999     14.01000 ; qtot -0.339
     9   h4     1   MOL    H1    9     0.034100      1.00800 ; qtot -0.305
    10   h4     1   MOL    H2   10     0.033100      1.00800 ; qtot -0.272
    11   h4     1   MOL    H3   11     0.033100      1.00800 ; qtot -0.238
    12   hc     1   MOL    H4   12     0.042033      1.00800 ; qtot -0.196
    13   hc     1   MOL    H5   13     0.042033      1.00800 ; qtot -0.154
    14   hc     1   MOL    H6   14     0.042033      1.00800 ; qtot -0.112
    15   hc     1   MOL    H7   15     0.056200      1.00800 ; qtot -0.056
    16   hc     1   MOL    H8   16     0.056200      1.00800 ; qtot -0.000

[ bonds ]
;   ai     aj funct   r             k
     1      2   1    1.3986e-01    2.9644e+05 ;     C1 - C2    
     1      7   1    1.3392e-01    3.2341e+05 ;     C1 - N1    
     1      9   1    1.0885e-01    2.9859e+05 ;     C1 - H1    
     2      8   1    1.3392e-01    3.2341e+05 ;     C2 - N2    
     2     10   1    1.0885e-01    2.9859e+05 ;     C2 - H2    
     3      4   1    1.3986e-01    2.9644e+05 ;     C3 - C4    
     3      7   1    1.3392e-01    3.2341e+05 ;     C3 - N1    
     3     11   1    1.0885e-01    2.9859e+05 ;     C3 - H3    
     4      6   1    1.5147e-01    2.0410e+05 ;     C4 - C6    
     4      8   1    1.3392e-01    3.2341e+05 ;     C4 - N2    
     5      6   1    1.5354e-01    1.9154e+05 ;     C5 - C6    
     5     12   1    1.0962e-01    2.8891e+05 ;     C5 - H4    
     5     13   1    1.0962e-01    2.8891e+05 ;     C5 - H5    
     5     14   1    1.0962e-01    2.8891e+05 ;     C5 - H6    
     6     15   1    1.0962e-01    2.8891e+05 ;     C6 - H7    
     6     16   1    1.0962e-01    2.8891e+05 ;     C6 - H8    

[ pairs ]
;   ai     aj    funct
     1      4      1 ;     C1 - C4    
     1     11      1 ;     C1 - H3    
     2      3      1 ;     C2 - C3    
     2      6      1 ;     C2 - C6    
     3      5      1 ;     C3 - C5    
     3     15      1 ;     C3 - H7    
     3     16      1 ;     C3 - H8    
     4     10      1 ;     C4 - H2    
     4     12      1 ;     C4 - H4    
     4     13      1 ;     C4 - H5    
     4     14      1 ;     C4 - H6    
     5      8      1 ;     C5 - N2    
     6      7      1 ;     C6 - N1    
     6     11      1 ;     C6 - H3    
     7      8      1 ;     N1 - N2    
     7     10      1 ;     N1 - H2    
     8     11      1 ;     N2 - H3    
     8     15      1 ;     N2 - H7    
     8     16      1 ;     N2 - H8    
     9      3      1 ;     H1 - C3    
     9      8      1 ;     H1 - N2    
     9     10      1 ;     H1 - H2    
    12     15      1 ;     H4 - H7    
    12     16      1 ;     H4 - H8    
    13     15      1 ;     H5 - H7    
    13     16      1 ;     H5 - H8    
    14     15      1 ;     H6 - H7    
    14     16      1 ;     H6 - H8    

[ angles ]
;   ai     aj     ak    funct   theta         cth
     1      2      8      1    1.2294e+02    5.7045e+02 ;     C1 - C2     - N2    
     1      2     10      1    1.2032e+02    3.7489e+02 ;     C1 - C2     - H2    
     1      7      3      1    1.1724e+02    6.9580e+02 ;     C1 - N1     - C3    
     2      1      7      1    1.2294e+02    5.7045e+02 ;     C2 - C1     - N1    
     2      1      9      1    1.2032e+02    3.7489e+02 ;     C2 - C1     - H1    
     2      8      4      1    1.1724e+02    6.9580e+02 ;     C2 - N2     - C4    
     3      4      6      1    1.2083e+02    5.0827e+02 ;     C3 - C4     - C6    
     3      4      8      1    1.2294e+02    5.7045e+02 ;     C3 - C4     - N2    
     4      3      7      1    1.2294e+02    5.7045e+02 ;     C4 - C3     - N1    
     4      3     11      1    1.2032e+02    3.7489e+02 ;     C4 - C3     - H3    
     4      6      5      1    1.1242e+02    5.0484e+02 ;     C4 - C6     - C5    
     4      6     15      1    1.1063e+02    3.6493e+02 ;     C4 - C6     - H7    
     4      6     16      1    1.1063e+02    3.6493e+02 ;     C4 - C6     - H8    
     5      6     15      1    1.0968e+02    3.6208e+02 ;     C5 - C6     - H7    
     5      6     16      1    1.0968e+02    3.6208e+02 ;     C5 - C6     - H8    
     6      4      8      1    1.1664e+02    5.5815e+02 ;     C6 - C4     - N2    
     6      5     12      1    1.0968e+02    3.6208e+02 ;     C6 - C5     - H4    
     6      5     13      1    1.0968e+02    3.6208e+02 ;     C6 - C5     - H5    
     6      5     14      1    1.0968e+02    3.6208e+02 ;     C6 - C5     - H6    
     7      1      9      1    1.1602e+02    4.1924e+02 ;     N1 - C1     - H1    
     7      3     11      1    1.1602e+02    4.1924e+02 ;     N1 - C3     - H3    
     8      2     10      1    1.1602e+02    4.1924e+02 ;     N2 - C2     - H2    
    12      5     13      1    1.0773e+02    2.9957e+02 ;     H4 - C5     - H5    
    12      5     14      1    1.0773e+02    2.9957e+02 ;     H4 - C5     - H6    
    13      5     14      1    1.0773e+02    2.9957e+02 ;     H5 - C5     - H6    
    15      6     16      1    1.0773e+02    2.9957e+02 ;     H7 - C6     - H8    

[ dihedrals ] ; propers
; for gromacs 4.5 or higher, using funct 9
;    i      j      k      l   func   phase     kd      pn
     1      2      8      4      9   180.00  20.08320   2 ;     C1-    C2-    N2-    C4
     1      7      3      4      9   180.00  20.08320   2 ;     C1-    N1-    C3-    C4
     1      7      3     11      9   180.00  20.08320   2 ;     C1-    N1-    C3-    H3
     2      1      7      3      9   180.00  20.08320   2 ;     C2-    C1-    N1-    C3
     2      8      4      3      9   180.00  20.08320   2 ;     C2-    N2-    C4-    C3
     2      8      4      6      9   180.00  20.08320   2 ;     C2-    N2-    C4-    C6
     3      4      6      5      9   180.00   1.00416   2 ;     C3-    C4-    C6-    C5
     3      4      6     15      9     0.00   0.00000   0 ;     C3-    C4-    C6-    H7
     3      4      6     16      9     0.00   0.00000   0 ;     C3-    C4-    C6-    H8
     4      6      5     12      9     0.00   0.65084   3 ;     C4-    C6-    C5-    H4
     4      6      5     13      9     0.00   0.65084   3 ;     C4-    C6-    C5-    H5
     4      6      5     14      9     0.00   0.65084   3 ;     C4-    C6-    C5-    H6
     4      8      2     10      9   180.00  20.08320   2 ;     C4-    N2-    C2-    H2
     5      6      4      8      9     0.00   0.00000   0 ;     C5-    C6-    C4-    N2
     6      4      3      7      9   180.00  15.16700   2 ;     C6-    C4-    C3-    N1
     6      4      3     11      9   180.00  15.16700   2 ;     C6-    C4-    C3-    H3
     7      1      2      8      9   180.00  15.16700   2 ;     N1-    C1-    C2-    N2
     7      1      2     10      9   180.00  15.16700   2 ;     N1-    C1-    C2-    H2
     7      3      4      8      9   180.00  15.16700   2 ;     N1-    C3-    C4-    N2
     8      4      3     11      9   180.00  15.16700   2 ;     N2-    C4-    C3-    H3
     8      4      6     15      9     0.00   0.00000   0 ;     N2-    C4-    C6-    H7
     8      4      6     16      9     0.00   0.00000   0 ;     N2-    C4-    C6-    H8
     9      1      2      8      9   180.00  15.16700   2 ;     H1-    C1-    C2-    N2
     9      1      2     10      9   180.00  15.16700   2 ;     H1-    C1-    C2-    H2
     9      1      7      3      9   180.00  20.08320   2 ;     H1-    C1-    N1-    C3
    12      5      6     15      9     0.00   0.50208   3 ;     H4-    C5-    C6-    H7
    12      5      6     16      9     0.00   0.50208   3 ;     H4-    C5-    C6-    H8
    13      5      6     15      9     0.00   0.50208   3 ;     H5-    C5-    C6-    H7
    13      5      6     16      9     0.00   0.50208   3 ;     H5-    C5-    C6-    H8
    14      5      6     15      9     0.00   0.50208   3 ;     H6-    C5-    C6-    H7
    14      5      6     16      9     0.00   0.50208   3 ;     H6-    C5-    C6-    H8

[ dihedrals ] ; impropers
; treated as propers in GROMACS to use correct AMBER analytical function
;    i      j      k      l   func   phase     kd      pn
     1     10      2      8      4   180.00   4.60240   2 ;     C1-    H2-    C2-    N2
     4     11      3      7      4   180.00   4.60240   2 ;     C4-    H3-    C3-    N1
     6      3      4      8      4   180.00   4.60240   2 ;     C6-    C3-    C4-    N2
     7      1      9      2      4   180.00   4.60240   2 ;     N1-    C1-    H1-    C2
