; mobley_2146331_GMX.itp created by acpype (v: 2023.10.27) on Thu May 14 13:26:46 2026

[ atomtypes ]
;name   bond_type     mass     charge   ptype   sigma         epsilon       Amb
 c        c           0.00000  0.00000   A     3.31521e-01   4.13379e-01 ; 1.86  0.0988
 o        o           0.00000  0.00000   A     3.04812e-01   6.12119e-01 ; 1.71  0.1463
 h4       h4          0.00000  0.00000   A     2.53639e-01   6.73624e-02 ; 1.42  0.0161

[ moleculetype ]
;name            nrexcl
 mobley_2146331   3

[ atoms ]
;   nr  type  resi  res  atom  cgnr     charge      mass       ; qtot   bond_type
     1    c     1   MOL    C1    1     0.562700     12.01000 ; qtot 0.563
     2    o     1   MOL    O1    2    -0.515100     16.00000 ; qtot 0.048
     3   h4     1   MOL    H1    3    -0.023800      1.00800 ; qtot 0.024
     4   h4     1   MOL    H2    4    -0.023800      1.00800 ; qtot -0.000

[ bonds ]
;   ai     aj funct   r             k
     1      2   1    1.2190e-01    4.9421e+05 ;     C1 - O1    
     1      3   1    1.1123e-01    2.6984e+05 ;     C1 - H1    
     1      4   1    1.1123e-01    2.6984e+05 ;     C1 - H2    

[ angles ]
;   ai     aj     ak    funct   theta         cth
     2      1      3      1    1.2062e+02    5.0191e+02 ;     O1 - C1     - H1    
     2      1      4      1    1.2062e+02    5.0191e+02 ;     O1 - C1     - H2    
     3      1      4      1    1.1531e+02    2.8535e+02 ;     H1 - C1     - H2    

[ dihedrals ] ; impropers
; treated as propers in GROMACS to use correct AMBER analytical function
;    i      j      k      l   func   phase     kd      pn
     2      1      4      3      4   180.00   4.60240   2 ;     O1-    C1-    H2-    H1
