mobley_4934872_GMX.gro created by acpype (v: 2023.10.27) on Thu May 14 13:52:14 2026
 2694
    1MOL     C1    1   1.194   1.660   1.803
    1MOL     C2    2   1.203   1.656   1.664
    1MOL     C3    3   1.296   1.605   1.881
    1MOL     C4    4   1.313   1.597   1.602
    1MOL     C5    5   1.406   1.546   1.819
    1MOL     C6    6   1.414   1.542   1.681
    1MOL     C7    7   1.910   1.579   1.362
    1MOL     C8    8   1.461   1.258   1.269
    1MOL     C9    9   1.759   1.587   1.362
    1MOL    C10   10   1.531   1.324   1.386
    1MOL    C11   11   1.565   1.534   1.492
    1MOL     O1   12   1.523   1.484   1.621
    1MOL     O2   13   1.709   1.531   1.483
    1MOL     O3   14   1.502   1.463   1.384
    1MOL     H1   15   1.108   1.706   1.850
    1MOL     H2   16   1.123   1.699   1.603
    1MOL     H3   17   1.289   1.608   1.989
    1MOL     H4   18   1.319   1.594   1.494
    1MOL     H5   19   1.485   1.504   1.881
    1MOL     H6   20   1.951   1.621   1.270
    1MOL     H7   21   1.951   1.633   1.448
    1MOL     H8   22   1.943   1.475   1.371
    1MOL     H9   23   1.482   1.151   1.267
    1MOL    H10   24   1.353   1.273   1.276
    1MOL    H11   25   1.494   1.302   1.174
    1MOL    H12   26   1.717   1.531   1.277
    1MOL    H13   27   1.726   1.691   1.355
    1MOL    H14   28   1.640   1.311   1.378
    1MOL    H15   29   1.497   1.282   1.481
    1MOL    H16   30   1.540   1.640   1.487
    2SOL     OW   31   0.230   0.628   0.113
    2SOL    HW1   32   0.137   0.626   0.150
    2SOL    HW2   33   0.231   0.589   0.021
    3SOL     OW   34   0.225   0.275   0.996
    3SOL    HW1   35   0.260   0.258   1.088
    3SOL    HW2   36   0.137   0.230   0.984
    4SOL     OW   37   0.019   0.368   0.647
    4SOL    HW1   38  -0.063   0.411   0.686
    4SOL    HW2   39  -0.009   0.295   0.584
    5SOL     OW   40   0.569   1.275   1.165
    5SOL    HW1   41   0.476   1.268   1.128
    5SOL    HW2   42   0.580   1.364   1.209
    6SOL     OW   43   1.555   1.511   0.703
    6SOL    HW1   44   1.498   1.495   0.784
    6SOL    HW2   45   1.496   1.521   0.623
    7SOL     OW   46   1.135   0.703   0.717
    7SOL    HW1   47   1.192   0.781   0.692
    7SOL    HW2   48   1.075   0.729   0.793
    8SOL     OW   49   1.755   0.607   0.231
    8SOL    HW1   50   1.743   0.594   0.132
    8SOL    HW2   51   1.725   0.526   0.280
    9SOL     OW   52   0.768   1.144   1.023
    9SOL    HW1   53   0.690   1.161   1.083
    9SOL    HW2   54   0.802   1.231   0.987
   10SOL     OW   55   0.850   0.798   1.823
   10SOL    HW1   56   0.846   0.874   1.888
   10SOL    HW2   57   0.872   0.834   1.732
   11SOL     OW   58   0.685   1.012   0.665
   11SOL    HW1   59   0.754   0.996   0.735
   11SOL    HW2   60   0.612   1.069   0.703
   12SOL     OW   61   0.686   1.161   1.803
   12SOL    HW1   62   0.746   1.240   1.817
   12SOL    HW2   63   0.600   1.192   1.762
   13SOL     OW   64   0.335   1.435   1.061
   13SOL    HW1   65   0.257   1.404   1.008
   13SOL    HW2   66   0.393   1.493   1.004
   14SOL     OW   67   0.438   0.392   1.499
   14SOL    HW1   68   0.520   0.336   1.508
   14SOL    HW2   69   0.357   0.334   1.503
   15SOL     OW   70   1.603   0.447   0.737
   15SOL    HW1   71   1.529   0.493   0.687
   15SOL    HW2   72   1.654   0.515   0.790
   16SOL     OW   73   0.231   1.713   0.483
   16SOL    HW1   74   0.265   1.790   0.537
   16SOL    HW2   75   0.275   1.713   0.393
   17SOL     OW   76   1.127   1.341   1.690
   17SOL    HW1   77   1.174   1.341   1.778
   17SOL    HW2   78   1.079   1.254   1.679
   18SOL     OW   79   0.230   1.434   0.538
   18SOL    HW1   80   0.204   1.530   0.538
   18SOL    HW2   81   0.159   1.380   0.583
   19SOL     OW   82   0.240   1.091   0.886
   19SOL    HW1   83   0.254   1.007   0.938
   19SOL    HW2   84   0.185   1.155   0.941
   20SOL     OW   85   0.620   1.786   1.439
   20SOL    HW1   86   0.528   1.769   1.474
   20SOL    HW2   87   0.648   1.878   1.465
   21SOL     OW   88   0.606   0.964   0.123
   21SOL    HW1   89   0.613   1.048   0.069
   21SOL    HW2   90   0.652   0.977   0.211
   22SOL     OW   91   1.594   0.114   1.480
   22SOL    HW1   92   1.576   0.181   1.408
   22SOL    HW2   93   1.591   0.160   1.569
   23SOL     OW   94   0.122   0.643   0.563
   23SOL    HW1   95   0.077   0.555   0.580
   23SOL    HW2   96   0.121   0.697   0.647
   24SOL     OW   97   1.842   1.767   0.359
   24SOL    HW1   98   1.896   1.738   0.439
   24SOL    HW2   99   1.872   1.857   0.330
   25SOL     OW  100   0.027   1.596   0.117
   25SOL    HW1  101   0.008   1.500   0.138
   25SOL    HW2  102  -0.006   1.654   0.192
   26SOL     OW  103   1.689   0.922   0.612
   26SOL    HW1  104   1.784   0.893   0.620
   26SOL    HW2  105   1.681   0.987   0.537
   27SOL     OW  106   1.641   1.108   0.432
   27SOL    HW1  107   1.727   1.110   0.380
   27SOL    HW2  108   1.655   1.155   0.520
   28SOL     OW  109   0.113   0.737   1.597
   28SOL    HW1  110   0.201   0.724   1.642
   28SOL    HW2  111   0.100   0.834   1.575
   29SOL     OW  112   0.613   1.365   0.726
   29SOL    HW1  113   0.564   1.278   0.735
   29SOL    HW2  114   0.590   1.408   0.639
   30SOL     OW  115   1.293   1.228   1.423
   30SOL    HW1  116   1.330   1.155   1.365
   30SOL    HW2  117   1.345   1.233   1.508
   31SOL     OW  118   0.809   0.004   0.502
   31SOL    HW1  119   0.849   0.095   0.493
   31SOL    HW2  120   0.709   0.012   0.508
   32SOL     OW  121   0.197   0.976   1.264
   32SOL    HW1  122   0.286   0.931   1.250
   32SOL    HW2  123   0.124   0.911   1.245
   33SOL     OW  124   1.525   0.999   0.190
   33SOL    HW1  125   1.462   0.923   0.203
   33SOL    HW2  126   1.573   1.017   0.276
   34SOL     OW  127   0.317   0.251   1.801
   34SOL    HW1  128   0.388   0.322   1.807
   34SOL    HW2  129   0.229   0.290   1.829
   35SOL     OW  130   1.466   1.417   0.953
   35SOL    HW1  131   1.407   1.423   1.033
   35SOL    HW2  132   1.451   1.329   0.907
   36SOL     OW  133   1.667   1.714   0.572
   36SOL    HW1  134   1.626   1.691   0.484
   36SOL    HW2  135   1.649   1.640   0.637
   37SOL     OW  136   0.598   0.729   0.270
   37SOL    HW1  137   0.622   0.798   0.202
   37SOL    HW2  138   0.520   0.762   0.324
   38SOL     OW  139   1.281   0.345   0.944
   38SOL    HW1  140   1.195   0.295   0.931
   38SOL    HW2  141   1.343   0.291   1.000
   39SOL     OW  142   1.576   1.662   0.307
   39SOL    HW1  143   1.665   1.708   0.310
   39SOL    HW2  144   1.555   1.638   0.212
   40SOL     OW  145   0.807   0.605   1.465
   40SOL    HW1  146   0.760   0.602   1.554
   40SOL    HW2  147   0.756   0.550   1.399
   41SOL     OW  148   1.394   0.469   1.674
   41SOL    HW1  149   1.374   0.512   1.762
   41SOL    HW2  150   1.472   0.407   1.683
   42SOL     OW  151   0.973   0.890   1.572
   42SOL    HW1  152   1.019   0.806   1.543
   42SOL    HW2  153   0.917   0.924   1.497
   43SOL     OW  154   0.991   0.410   1.242
   43SOL    HW1  155   0.914   0.444   1.296
   43SOL    HW2  156   0.957   0.359   1.163
   44SOL     OW  157   1.041   0.701   0.429
   44SOL    HW1  158   1.067   0.697   0.525
   44SOL    HW2  159   0.956   0.650   0.415
   45SOL     OW  160   0.076   0.811   0.789
   45SOL    HW1  161   0.175   0.799   0.798
   45SOL    HW2  162   0.052   0.906   0.810
   46SOL     OW  163   0.130   1.821   1.571
   46SOL    HW1  164   0.120   1.806   1.670
   46SOL    HW2  165   0.044   1.857   1.535
   47SOL     OW  166   0.865   0.348   0.195
   47SOL    HW1  167   0.924   0.411   0.146
   47SOL    HW2  168   0.884   0.254   0.166
   48SOL     OW  169   1.719   0.585   1.831
   48SOL    HW1  170   1.693   0.674   1.795
   48SOL    HW2  171   1.717   0.517   1.758
   49SOL     OW  172   1.362   1.144   0.545
   49SOL    HW1  173   1.445   1.115   0.497
   49SOL    HW2  174   1.313   1.211   0.489
   50SOL     OW  175   0.550   0.196   0.885
   50SOL    HW1  176   0.545   0.191   0.985
   50SOL    HW2  177   0.552   0.292   0.856
   51SOL     OW  178   1.008   1.456   0.477
   51SOL    HW1  179   0.962   1.528   0.425
   51SOL    HW2  180   1.004   1.476   0.575
   52SOL     OW  181   0.351   1.801   0.853
   52SOL    HW1  182   0.401   1.715   0.859
   52SOL    HW2  183   0.416   1.878   0.850
   53SOL     OW  184   1.795   1.066   0.873
   53SOL    HW1  185   1.733   1.051   0.797
   53SOL    HW2  186   1.743   1.077   0.958
   54SOL     OW  187   0.321   0.943   0.242
   54SOL    HW1  188   0.403   0.982   0.200
   54SOL    HW2  189   0.294   0.861   0.193
   55SOL     OW  190   1.458   0.735   0.728
   55SOL    HW1  191   1.453   0.670   0.803
   55SOL    HW2  192   1.538   0.794   0.741
   56SOL     OW  193   0.461   1.266   1.727
   56SOL    HW1  194   0.411   1.267   1.641
   56SOL    HW2  195   0.398   1.248   1.803
   57SOL     OW  196   1.111   1.776   0.237
   57SOL    HW1  197   1.051   1.714   0.287
   57SOL    HW2  198   1.142   1.732   0.152
   58SOL     OW  199   0.202   0.285   1.498
   58SOL    HW1  200   0.122   0.345   1.485
   58SOL    HW2  201   0.192   0.236   1.584
   59SOL     OW  202   1.632   1.377   0.081
   59SOL    HW1  203   1.600   1.471   0.071
   59SOL    HW2  204   1.556   1.314   0.069
   60SOL     OW  205   0.464   1.743   0.323
   60SOL    HW1  206   0.497   1.782   0.409
   60SOL    HW2  207   0.540   1.736   0.258
   61SOL     OW  208   1.400   0.107   0.426
   61SOL    HW1  209   1.376   0.070   0.336
   61SOL    HW2  210   1.499   0.123   0.430
   62SOL     OW  211   0.249   1.785   1.241
   62SOL    HW1  212   0.306   1.720   1.291
   62SOL    HW2  213   0.233   1.752   1.148
   63SOL     OW  214   0.940   1.698   0.904
   63SOL    HW1  215   1.020   1.641   0.925
   63SOL    HW2  216   0.891   1.658   0.827
   64SOL     OW  217   0.382   0.700   0.480
   64SOL    HW1  218   0.427   0.610   0.477
   64SOL    HW2  219   0.288   0.689   0.513
   65SOL     OW  220   1.547   0.222   1.729
   65SOL    HW1  221   1.542   0.259   1.821
   65SOL    HW2  222   1.475   0.153   1.717
   66SOL     OW  223   0.614   0.122   0.117
   66SOL    HW1  224   0.712   0.100   0.124
   66SOL    HW2  225   0.583   0.105   0.024
   67SOL     OW  226   0.781   0.264   1.749
   67SOL    HW1  227   0.848   0.203   1.792
   67SOL    HW2  228   0.708   0.283   1.814
   68SOL     OW  229   0.888   1.514   1.195
   68SOL    HW1  230   0.865   1.489   1.101
   68SOL    HW2  231   0.949   1.445   1.234
   69SOL     OW  232   1.351   0.590   1.433
   69SOL    HW1  233   1.379   0.547   1.518
   69SOL    HW2  234   1.376   0.686   1.434
   70SOL     OW  235   0.803   1.402   0.924
   70SOL    HW1  236   0.893   1.416   0.882
   70SOL    HW2  237   0.732   1.404   0.853
   71SOL     OW  238   0.922   0.503   0.899
   71SOL    HW1  239   0.897   0.494   0.803
   71SOL    HW2  240   0.970   0.421   0.930
   72SOL     OW  241   0.539   0.064   0.512
   72SOL    HW1  242   0.458   0.065   0.570
   72SOL    HW2  243   0.542   0.147   0.457
   73SOL     OW  244   1.434   1.188   0.041
   73SOL    HW1  245   1.466   1.112   0.098
   73SOL    HW2  246   1.342   1.215   0.071
   74SOL     OW  247   0.297   0.035   0.171
   74SOL    HW1  248   0.346   0.119   0.150
   74SOL    HW2  249   0.359  -0.030   0.216
   75SOL     OW  250   0.935   0.236   0.480
   75SOL    HW1  251   0.887   0.277   0.402
   75SOL    HW2  252   1.034   0.234   0.461
   76SOL     OW  253   1.076   0.683   1.464
   76SOL    HW1  254   0.996   0.622   1.467
   76SOL    HW2  255   1.157   0.630   1.440
   77SOL     OW  256   1.227   1.570   0.793
   77SOL    HW1  257   1.248   1.644   0.728
   77SOL    HW2  258   1.295   1.570   0.866
   78SOL     OW  259   0.459   1.152   0.741
   78SOL    HW1  260   0.388   1.125   0.806
   78SOL    HW2  261   0.433   1.124   0.648
   79SOL     OW  262   1.271   1.797   0.591
   79SOL    HW1  263   1.315   1.861   0.527
   79SOL    HW2  264   1.221   1.849   0.661
   80SOL     OW  265   1.032   0.549   0.016
   80SOL    HW1  266   0.991   0.631  -0.023
   80SOL    HW2  267   1.096   0.575   0.089
   81SOL     OW  268   0.078   0.556   1.386
   81SOL    HW1  269   0.170   0.555   1.345
   81SOL    HW2  270   0.072   0.630   1.453
   82SOL     OW  271   0.561   0.222   1.147
   82SOL    HW1  272   0.599   0.138   1.184
   82SOL    HW2  273   0.473   0.241   1.191
   83SOL     OW  274   0.866   0.454   0.642
   83SOL    HW1  275   0.834   0.526   0.580
   83SOL    HW2  276   0.890   0.373   0.589
   84SOL     OW  277   1.017   0.039   0.753
   84SOL    HW1  278   0.945   0.044   0.684
   84SOL    HW2  279   0.993  -0.030   0.822
   85SOL     OW  280   1.429   1.173   0.867
   85SOL    HW1  281   1.374   1.089   0.860
   85SOL    HW2  282   1.455   1.202   0.775
   86SOL     OW  283   1.466   0.590   0.992
   86SOL    HW1  284   1.436   0.495   0.999
   86SOL    HW2  285   1.539   0.606   1.058
   87SOL     OW  286   1.857   0.833   0.377
   87SOL    HW1  287   1.899   0.769   0.441
   87SOL    HW2  288   1.819   0.782   0.299
   88SOL     OW  289   0.488   1.385   0.174
   88SOL    HW1  290   0.401   1.370   0.221
   88SOL    HW2  291   0.471   1.411   0.079
   89SOL     OW  292   1.664   1.280   0.657
   89SOL    HW1  293   1.763   1.288   0.671
   89SOL    HW2  294   1.619   1.364   0.688
   90SOL     OW  295   1.390   0.575   0.078
   90SOL    HW1  296   1.336   0.554   0.159
   90SOL    HW2  297   1.481   0.534   0.087
   91SOL     OW  298   0.527   0.256   0.328
   91SOL    HW1  299   0.554   0.197   0.253
   91SOL    HW2  300   0.527   0.351   0.297
   92SOL     OW  301   1.754   1.223   1.588
   92SOL    HW1  302   1.845   1.184   1.575
   92SOL    HW2  303   1.762   1.319   1.612
   93SOL     OW  304   1.064   1.347   1.340
   93SOL    HW1  305   0.984   1.324   1.395
   93SOL    HW2  306   1.147   1.321   1.389
   94SOL     OW  307   1.111   1.195   1.100
   94SOL    HW1  308   1.071   1.239   1.181
   94SOL    HW2  309   1.070   1.232   1.017
   95SOL     OW  310   1.638   1.099   1.079
   95SOL    HW1  311   1.643   1.180   1.138
   95SOL    HW2  312   1.552   1.101   1.028
   96SOL     OW  313   0.915   0.089   1.402
   96SOL    HW1  314   0.940   0.069   1.307
   96SOL    HW2  315   0.987   0.145   1.444
   97SOL     OW  316   0.980   1.116   1.719
   97SOL    HW1  317   0.881   1.122   1.729
   97SOL    HW2  318   1.003   1.036   1.663
   98SOL     OW  319   0.705   1.050   0.368
   98SOL    HW1  320   0.691   1.057   0.467
   98SOL    HW2  321   0.789   0.999   0.350
   99SOL     OW  322   0.410   0.813   1.251
   99SOL    HW1  323   0.496   0.825   1.301
   99SOL    HW2  324   0.368   0.726   1.278
  100SOL     OW  325   1.274   0.386   1.262
  100SOL    HW1  326   1.295   0.460   1.326
  100SOL    HW2  327   1.185   0.403   1.219
  101SOL     OW  328   0.064   1.564   1.331
  101SOL    HW1  329   0.018   1.646   1.297
  101SOL    HW2  330   0.162   1.583   1.340
  102SOL     OW  331   0.367   1.100   0.501
  102SOL    HW1  332   0.360   1.183   0.445
  102SOL    HW2  333   0.371   1.020   0.441
  103SOL     OW  334   0.566   0.537   0.865
  103SOL    HW1  335   0.578   0.603   0.791
  103SOL    HW2  336   0.612   0.571   0.948
  104SOL     OW  337   1.252   1.348   0.388
  104SOL    HW1  338   1.302   1.425   0.428
  104SOL    HW2  339   1.157   1.350   0.420
  105SOL     OW  340   1.272   1.445   1.142
  105SOL    HW1  341   1.319   1.458   1.229
  105SOL    HW2  342   1.206   1.371   1.151
  106SOL     OW  343   1.582   0.639   0.472
  106SOL    HW1  344   1.551   0.700   0.545
  106SOL    HW2  345   1.632   0.691   0.403
  107SOL     OW  346   0.354   1.510   1.329
  107SOL    HW1  347   0.333   1.466   1.242
  107SOL    HW2  348   0.451   1.536   1.332
  108SOL     OW  349   0.402   0.751   1.598
  108SOL    HW1  350   0.470   0.806   1.551
  108SOL    HW2  351   0.442   0.663   1.625
  109SOL     OW  352   1.587   0.779   1.670
  109SOL    HW1  353   1.495   0.817   1.665
  109SOL    HW2  354   1.647   0.826   1.605
  110SOL     OW  355   1.013   0.105   1.770
  110SOL    HW1  356   1.019   0.190   1.718
  110SOL    HW2  357   1.045   0.029   1.713
  111SOL     OW  358   0.504   0.050   1.740
  111SOL    HW1  359   0.462  -0.007   1.670
  111SOL    HW2  360   0.438   0.119   1.772
  112SOL     OW  361   0.573   0.870   1.029
  112SOL    HW1  362   0.617   0.959   1.020
  112SOL    HW2  363   0.510   0.870   1.106
  113SOL     OW  364   1.360   0.862   1.045
  113SOL    HW1  365   1.285   0.862   0.979
  113SOL    HW2  366   1.397   0.770   1.054
  114SOL     OW  367   1.209   0.525   0.275
  114SOL    HW1  368   1.222   0.441   0.329
  114SOL    HW2  369   1.180   0.599   0.335
  115SOL     OW  370   0.307   0.213   1.231
  115SOL    HW1  371   0.284   0.250   1.321
  115SOL    HW2  372   0.277   0.118   1.225
  116SOL     OW  373   0.037   1.310   1.282
  116SOL    HW1  374   0.090   1.261   1.350
  116SOL    HW2  375   0.059   1.408   1.287
  117SOL     OW  376   0.732   0.634   1.064
  117SOL    HW1  377   0.791   0.608   0.988
  117SOL    HW2  378   0.704   0.730   1.053
  118SOL     OW  379   1.728   0.935   1.854
  118SOL    HW1  380   1.682   0.928   1.765
  118SOL    HW2  381   1.666   0.979   1.920
  119SOL     OW  382   0.307   0.063   0.618
  119SOL    HW1  383   0.296   0.157   0.651
  119SOL    HW2  384   0.302   0.000   0.695
  120SOL     OW  385   1.622   0.367   0.374
  120SOL    HW1  386   1.624   0.291   0.438
  120SOL    HW2  387   1.574   0.444   0.414
  121SOL     OW  388   1.023   0.766   0.966
  121SOL    HW1  389   1.038   0.787   1.062
  121SOL    HW2  390   0.993   0.671   0.957
  122SOL     OW  391   0.980   1.573   1.700
  122SOL    HW1  392   0.960   1.617   1.612
  122SOL    HW2  393   1.019   1.482   1.684
  123SOL     OW  394   0.350   0.898   1.804
  123SOL    HW1  395   0.426   0.942   1.852
  123SOL    HW2  396   0.385   0.851   1.722
  124SOL     OW  397   1.540   0.274   0.125
  124SOL    HW1  398   1.479   0.199   0.148
  124SOL    HW2  399   1.562   0.326   0.208
  125SOL     OW  400   1.303   0.838   0.042
  125SOL    HW1  401   1.337   0.745   0.057
  125SOL    HW2  402   1.321   0.865  -0.053
  126SOL     OW  403   1.068   1.333   0.849
  126SOL    HW1  404   1.075   1.249   0.794
  126SOL    HW2  405   1.130   1.402   0.813
  127SOL     OW  406   0.319   0.810   0.949
  127SOL    HW1  407   0.412   0.846   0.954
  127SOL    HW2  408   0.313   0.725   1.001
  128SOL     OW  409   0.339   0.509   1.006
  128SOL    HW1  410   0.287   0.426   0.989
  128SOL    HW2  411   0.416   0.514   0.942
  129SOL     OW  412   1.138   0.380   1.678
  129SOL    HW1  413   1.093   0.443   1.742
  129SOL    HW2  414   1.231   0.411   1.661
  130SOL     OW  415   1.160   0.207   1.477
  130SOL    HW1  416   1.160   0.271   1.554
  130SOL    HW2  417   1.188   0.255   1.394
  131SOL     OW  418   0.008   1.326   0.200
  131SOL    HW1  419  -0.085   1.347   0.169
  131SOL    HW2  420   0.018   1.227   0.213
  132SOL     OW  421   0.088   1.801   0.927
  132SOL    HW1  422   0.046   1.715   0.900
  132SOL    HW2  423   0.182   1.804   0.893
  133SOL     OW  424   0.504   1.568   0.910
  133SOL    HW1  425   0.570   1.642   0.919
  133SOL    HW2  426   0.548   1.489   0.868
  134SOL     OW  427   1.002   0.796   1.238
  134SOL    HW1  428   1.043   0.764   1.324
  134SOL    HW2  429   0.906   0.769   1.235
  135SOL     OW  430   0.040   0.544   1.114
  135SOL    HW1  431   0.125   0.511   1.073
  135SOL    HW2  432   0.053   0.559   1.212
  136SOL     OW  433   0.189   0.520   1.722
  136SOL    HW1  434   0.248   0.480   1.652
  136SOL    HW2  435   0.131   0.591   1.681
  137SOL     OW  436   1.369   0.950   1.660
  137SOL    HW1  437   1.408   1.039   1.680
  137SOL    HW2  438   1.379   0.930   1.563
  138SOL     OW  439   0.815   0.572   0.325
  138SOL    HW1  440   0.822   0.483   0.279
  138SOL    HW2  441   0.721   0.606   0.317
  139SOL     OW  442   1.657   0.604   1.206
  139SOL    HW1  443   1.619   0.535   1.268
  139SOL    HW2  444   1.739   0.568   1.162
  140SOL     OW  445   0.252   1.564   1.744
  140SOL    HW1  446   0.222   1.621   1.820
  140SOL    HW2  447   0.245   1.467   1.770
  141SOL     OW  448   0.671   0.464   1.269
  141SOL    HW1  449   0.637   0.375   1.239
  141SOL    HW2  450   0.697   0.518   1.189
  142SOL     OW  451   0.930   1.678   1.465
  142SOL    HW1  452   0.906   1.660   1.370
  142SOL    HW2  453   0.960   1.772   1.475
  143SOL     OW  454   0.473   0.500   0.191
  143SOL    HW1  455   0.534   0.580   0.195
  143SOL    HW2  456   0.378   0.531   0.198
  144SOL     OW  457   0.159   1.137   1.466
  144SOL    HW1  458   0.181   1.076   1.542
  144SOL    HW2  459   0.169   1.088   1.380
  145SOL     OW  460   1.347   1.059   1.234
  145SOL    HW1  461   1.371   0.996   1.160
  145SOL    HW2  462   1.257   1.099   1.216
  146SOL     OW  463   1.302   0.855   0.309
  146SOL    HW1  464   1.216   0.824   0.351
  146SOL    HW2  465   1.298   0.841   0.210
  147SOL     OW  466   1.759   1.747   1.154
  147SOL    HW1  467   1.820   1.777   1.081
  147SOL    HW2  468   1.721   1.658   1.132
  148SOL     OW  469   1.252   1.731   1.128
  148SOL    HW1  470   1.336   1.736   1.074
  148SOL    HW2  471   1.229   1.635   1.146
  149SOL     OW  472   0.083   1.258   1.022
  149SOL    HW1  473   0.078   1.257   1.122
  149SOL    HW2  474   0.000   1.217   0.984
  150SOL     OW  475   0.688   1.662   1.716
  150SOL    HW1  476   0.632   1.743   1.725
  150SOL    HW2  477   0.740   1.666   1.630
  151SOL     OW  478   0.903   0.086   0.133
  151SOL    HW1  479   0.954   0.087   0.047
  151SOL    HW2  480   0.959   0.044   0.204
  152SOL     OW  481   1.726   0.135   0.523
  152SOL    HW1  482   1.799   0.118   0.456
  152SOL    HW2  483   1.695   0.048   0.561
  153SOL     OW  484   1.388   1.573   0.477
  153SOL    HW1  485   1.455   1.585   0.403
  153SOL    HW2  486   1.348   1.662   0.500
  154SOL     OW  487   0.130   1.794   1.851
  154SOL    HW1  488   0.089   1.720   1.904
  154SOL    HW2  489   0.194   1.845   1.909
  155SOL     OW  490   1.280   0.927   0.672
  155SOL    HW1  491   1.340   0.846   0.674
  155SOL    HW2  492   1.320   0.996   0.612
  156SOL     OW  493   0.830   1.273   1.422
  156SOL    HW1  494   0.825   1.306   1.517
  156SOL    HW2  495   0.744   1.292   1.376
  157SOL     OW  496   0.672   1.616   0.154
  157SOL    HW1  497   0.681   1.626   0.055
  157SOL    HW2  498   0.632   1.527   0.175
  158SOL     OW  499   1.841   0.175   0.963
  158SOL    HW1  500   1.880   0.090   0.927
  158SOL    HW2  501   1.743   0.177   0.944
  159SOL     OW  502   0.263   0.326   0.720
  159SOL    HW1  503   0.184   0.377   0.686
  159SOL    HW2  504   0.254   0.311   0.818
  160SOL     OW  505   1.194   1.612   0.031
  160SOL    HW1  506   1.200   1.519   0.068
  160SOL    HW2  507   1.135   1.612  -0.049
  161SOL     OW  508   0.822   1.002   1.372
  161SOL    HW1  509   0.862   1.001   1.280
  161SOL    HW2  510   0.832   1.094   1.412
  162SOL     OW  511   0.916   0.910   0.291
  162SOL    HW1  512   0.979   0.948   0.223
  162SOL    HW2  513   0.956   0.827   0.330
  163SOL     OW  514   1.504   1.607   0.044
  163SOL    HW1  515   1.412   1.644   0.051
  163SOL    HW2  516   1.542   1.627  -0.046
  164SOL     OW  517   0.372   1.288   1.490
  164SOL    HW1  518   0.359   1.381   1.456
  164SOL    HW2  519   0.288   1.236   1.477
  165SOL     OW  520   1.039   1.098   0.696
  165SOL    HW1  521   0.969   1.051   0.750
  165SOL    HW2  522   1.098   1.030   0.653
  166SOL     OW  523   1.014   0.236   0.971
  166SOL    HW1  524   1.006   0.200   0.878
  166SOL    HW2  525   1.012   0.160   1.036
  167SOL     OW  526   0.590   1.487   0.491
  167SOL    HW1  527   0.632   1.429   0.421
  167SOL    HW2  528   0.546   1.566   0.447
  168SOL     OW  529   1.709   0.385   1.381
  168SOL    HW1  530   1.782   0.454   1.385
  168SOL    HW2  531   1.737   0.310   1.322
  169SOL     OW  532   0.255   1.348   0.290
  169SOL    HW1  533   0.159   1.349   0.263
  169SOL    HW2  534   0.267   1.401   0.374
  170SOL     OW  535   0.105   1.013   1.726
  170SOL    HW1  536   0.028   0.980   1.780
  170SOL    HW2  537   0.190   0.983   1.768
  171SOL     OW  538   0.672   0.203   1.489
  171SOL    HW1  539   0.762   0.187   1.449
  171SOL    HW2  540   0.680   0.208   1.588
  172SOL     OW  541   0.075   0.345   0.033
  172SOL    HW1  542  -0.017   0.317   0.004
  172SOL    HW2  543   0.106   0.422  -0.023
  173SOL     OW  544   1.440   0.856   1.398
  173SOL    HW1  545   1.383   0.908   1.335
  173SOL    HW2  546   1.536   0.868   1.374
  174SOL     OW  547   0.072   0.166   0.318
  174SOL    HW1  548   0.055   0.249   0.264
  174SOL    HW2  549   0.162   0.129   0.296
  175SOL     OW  550   1.183   1.335   0.119
  175SOL    HW1  551   1.084   1.324   0.121
  175SOL    HW2  552   1.217   1.350   0.212
  176SOL     OW  553   0.613   0.842   1.431
  176SOL    HW1  554   0.669   0.923   1.414
  176SOL    HW2  555   0.672   0.762   1.434
  177SOL     OW  556   1.493   1.767   0.959
  177SOL    HW1  557   1.526   1.831   0.890
  177SOL    HW2  558   1.559   1.761   1.034
  178SOL     OW  559   0.716   0.565   1.708
  178SOL    HW1  560   0.735   0.630   1.782
  178SOL    HW2  561   0.776   0.485   1.717
  179SOL     OW  562   1.450   1.220   1.633
  179SOL    HW1  563   1.441   1.210   1.732
  179SOL    HW2  564   1.546   1.213   1.607
  180SOL     OW  565   0.390   1.741   1.560
  180SOL    HW1  566   0.299   1.782   1.558
  180SOL    HW2  567   0.383   1.647   1.592
  181SOL     OW  568   1.674   0.883   1.254
  181SOL    HW1  569   1.647   0.794   1.217
  181SOL    HW2  570   1.675   0.951   1.181
  182SOL     OW  571   1.225   0.325   0.449
  182SOL    HW1  572   1.290   0.251   0.438
  182SOL    HW2  573   1.245   0.375   0.533
  183SOL     OW  574   0.594   0.745   0.652
  183SOL    HW1  575   0.644   0.830   0.633
  183SOL    HW2  576   0.506   0.747   0.604
  184SOL     OW  577   1.777   0.342   1.642
  184SOL    HW1  578   1.760   0.373   1.548
  184SOL    HW2  579   1.693   0.305   1.680
  185SOL     OW  580   1.730   0.934   1.517
  185SOL    HW1  581   1.768   1.025   1.532
  185SOL    HW2  582   1.722   0.917   1.418
  186SOL     OW  583   0.859   1.374   0.016
  186SOL    HW1  584   0.813   1.389   0.104
  186SOL    HW2  585   0.903   1.459  -0.014
  187SOL     OW  586   0.661   1.790   0.953
  187SOL    HW1  587   0.615   1.878   0.940
  187SOL    HW2  588   0.760   1.802   0.946
  188SOL     OW  589   0.859   0.956   0.861
  188SOL    HW1  590   0.913   0.887   0.909
  188SOL    HW2  591   0.827   1.025   0.927
  189SOL     OW  592   1.083   0.984   0.087
  189SOL    HW1  593   1.060   1.037   0.005
  189SOL    HW2  594   1.164   0.928   0.068
  190SOL     OW  595   1.861   1.569   0.851
  190SOL    HW1  596   1.790   1.557   0.781
  190SOL    HW2  597   1.862   1.490   0.911
  191SOL     OW  598   0.221   1.314   1.844
  191SOL    HW1  599   0.156   1.241   1.823
  191SOL    HW2  600   0.225   1.328   1.942
  192SOL     OW  601   0.079   1.240   0.653
  192SOL    HW1  602   0.078   1.193   0.741
  192SOL    HW2  603   0.161   1.212   0.602
  193SOL     OW  604   0.672   1.391   1.624
  193SOL    HW1  605   0.594   1.341   1.662
  193SOL    HW2  606   0.669   1.486   1.655
  194SOL     OW  607   1.824   0.192   1.227
  194SOL    HW1  608   1.820   0.102   1.271
  194SOL    HW2  609   1.827   0.181   1.128
  195SOL     OW  610   0.428   0.424   0.520
  195SOL    HW1  611   0.458   0.352   0.458
  195SOL    HW2  612   0.389   0.384   0.603
  196SOL     OW  613   0.317   0.547   1.280
  196SOL    HW1  614   0.355   0.488   1.352
  196SOL    HW2  615   0.357   0.521   1.192
  197SOL     OW  616   0.812   1.586   0.687
  197SOL    HW1  617   0.844   1.596   0.593
  197SOL    HW2  618   0.733   1.524   0.689
  198SOL     OW  619   1.424   0.214   1.112
  198SOL    HW1  620   1.476   0.149   1.167
  198SOL    HW2  621   1.375   0.277   1.173
  199SOL     OW  622   1.001   0.034   1.154
  199SOL    HW1  623   0.938  -0.038   1.123
  199SOL    HW2  624   1.094  -0.002   1.154
  200SOL     OW  625   0.770   1.330   0.301
  200SOL    HW1  626   0.724   1.243   0.318
  200SOL    HW2  627   0.861   1.327   0.342
  201SOL     OW  628   0.618   1.567   1.284
  201SOL    HW1  629   0.613   1.649   1.341
  201SOL    HW2  630   0.707   1.564   1.239
  202SOL     OW  631   1.352   0.052   0.168
  202SOL    HW1  632   1.387   0.011   0.084
  202SOL    HW2  633   1.262   0.014   0.188
  203SOL     OW  634   1.300   0.453   0.691
  203SOL    HW1  635   1.241   0.533   0.695
  203SOL    HW2  636   1.315   0.418   0.784
  204SOL     OW  637   1.593   0.221   0.882
  204SOL    HW1  638   1.509   0.220   0.936
  204SOL    HW2  639   1.595   0.304   0.826
  205SOL     OW  640   0.039   1.077   0.300
  205SOL    HW1  641   0.138   1.066   0.291
  205SOL    HW2  642  -0.001   0.991   0.332
  206SOL     OW  643   0.875   1.646   0.337
  206SOL    HW1  644   0.798   1.611   0.283
  206SOL    HW2  645   0.843   1.717   0.399
  207SOL     OW  646   0.230   0.628   1.975
  207SOL    HW1  647   0.137   0.626   2.012
  207SOL    HW2  648   0.231   0.589   1.883
  208SOL     OW  649   0.225   0.275   2.858
  208SOL    HW1  650   0.260   0.258   2.950
  208SOL    HW2  651   0.137   0.230   2.846
  209SOL     OW  652   0.019   0.368   2.509
  209SOL    HW1  653  -0.063   0.411   2.548
  209SOL    HW2  654  -0.009   0.295   2.446
  210SOL     OW  655   1.555   1.511   2.565
  210SOL    HW1  656   1.498   1.495   2.646
  210SOL    HW2  657   1.496   1.521   2.485
  211SOL     OW  658   1.135   0.703   2.579
  211SOL    HW1  659   1.192   0.781   2.554
  211SOL    HW2  660   1.075   0.729   2.655
  212SOL     OW  661   1.755   0.607   2.093
  212SOL    HW1  662   1.743   0.594   1.994
  212SOL    HW2  663   1.725   0.526   2.142
  213SOL     OW  664   0.768   1.144   2.885
  213SOL    HW1  665   0.690   1.161   2.945
  213SOL    HW2  666   0.802   1.231   2.849
  214SOL     OW  667   0.685   1.012   2.527
  214SOL    HW1  668   0.754   0.996   2.597
  214SOL    HW2  669   0.612   1.069   2.565
  215SOL     OW  670   0.335   1.435   2.923
  215SOL    HW1  671   0.257   1.404   2.870
  215SOL    HW2  672   0.393   1.493   2.866
  216SOL     OW  673   1.603   0.447   2.599
  216SOL    HW1  674   1.529   0.493   2.549
  216SOL    HW2  675   1.654   0.515   2.652
  217SOL     OW  676   0.231   1.713   2.345
  217SOL    HW1  677   0.265   1.790   2.399
  217SOL    HW2  678   0.275   1.713   2.255
  218SOL     OW  679   0.230   1.434   2.400
  218SOL    HW1  680   0.204   1.530   2.400
  218SOL    HW2  681   0.159   1.380   2.445
  219SOL     OW  682   0.240   1.091   2.748
  219SOL    HW1  683   0.254   1.007   2.800
  219SOL    HW2  684   0.185   1.155   2.803
  220SOL     OW  685   0.606   0.964   1.985
  220SOL    HW1  686   0.613   1.048   1.931
  220SOL    HW2  687   0.652   0.977   2.073
  221SOL     OW  688   0.122   0.643   2.425
  221SOL    HW1  689   0.077   0.555   2.442
  221SOL    HW2  690   0.121   0.697   2.509
  222SOL     OW  691   1.842   1.767   2.221
  222SOL    HW1  692   1.896   1.738   2.301
  222SOL    HW2  693   1.872   1.857   2.192
  223SOL     OW  694   0.027   1.596   1.979
  223SOL    HW1  695   0.008   1.500   2.000
  223SOL    HW2  696  -0.006   1.654   2.054
  224SOL     OW  697   1.689   0.922   2.474
  224SOL    HW1  698   1.784   0.893   2.482
  224SOL    HW2  699   1.681   0.987   2.399
  225SOL     OW  700   1.641   1.108   2.294
  225SOL    HW1  701   1.727   1.110   2.242
  225SOL    HW2  702   1.655   1.155   2.382
  226SOL     OW  703   0.613   1.365   2.588
  226SOL    HW1  704   0.564   1.278   2.597
  226SOL    HW2  705   0.590   1.408   2.501
  227SOL     OW  706   0.809   0.004   2.364
  227SOL    HW1  707   0.849   0.095   2.355
  227SOL    HW2  708   0.709   0.012   2.370
  228SOL     OW  709   1.525   0.999   2.052
  228SOL    HW1  710   1.462   0.923   2.065
  228SOL    HW2  711   1.573   1.017   2.138
  229SOL     OW  712   1.466   1.417   2.815
  229SOL    HW1  713   1.407   1.423   2.895
  229SOL    HW2  714   1.451   1.329   2.769
  230SOL     OW  715   1.667   1.714   2.434
  230SOL    HW1  716   1.626   1.691   2.346
  230SOL    HW2  717   1.649   1.640   2.499
  231SOL     OW  718   0.598   0.729   2.132
  231SOL    HW1  719   0.622   0.798   2.064
  231SOL    HW2  720   0.520   0.762   2.186
  232SOL     OW  721   1.281   0.345   2.806
  232SOL    HW1  722   1.195   0.295   2.793
  232SOL    HW2  723   1.343   0.291   2.862
  233SOL     OW  724   1.576   1.662   2.169
  233SOL    HW1  725   1.665   1.708   2.172
  233SOL    HW2  726   1.555   1.638   2.074
  234SOL     OW  727   1.041   0.701   2.291
  234SOL    HW1  728   1.067   0.697   2.387
  234SOL    HW2  729   0.956   0.650   2.277
  235SOL     OW  730   0.076   0.811   2.651
  235SOL    HW1  731   0.175   0.799   2.660
  235SOL    HW2  732   0.052   0.906   2.672
  236SOL     OW  733   0.865   0.348   2.057
  236SOL    HW1  734   0.924   0.411   2.008
  236SOL    HW2  735   0.884   0.254   2.028
  237SOL     OW  736   1.362   1.144   2.407
  237SOL    HW1  737   1.445   1.115   2.359
  237SOL    HW2  738   1.313   1.211   2.351
  238SOL     OW  739   0.550   0.196   2.747
  238SOL    HW1  740   0.545   0.191   2.847
  238SOL    HW2  741   0.552   0.292   2.718
  239SOL     OW  742   1.008   1.456   2.339
  239SOL    HW1  743   0.962   1.528   2.287
  239SOL    HW2  744   1.004   1.476   2.437
  240SOL     OW  745   0.351   1.801   2.715
  240SOL    HW1  746   0.401   1.715   2.721
  240SOL    HW2  747   0.416   1.878   2.712
  241SOL     OW  748   1.795   1.066   2.735
  241SOL    HW1  749   1.733   1.051   2.659
  241SOL    HW2  750   1.743   1.077   2.820
  242SOL     OW  751   0.321   0.943   2.104
  242SOL    HW1  752   0.403   0.982   2.062
  242SOL    HW2  753   0.294   0.861   2.055
  243SOL     OW  754   1.458   0.735   2.590
  243SOL    HW1  755   1.453   0.670   2.665
  243SOL    HW2  756   1.538   0.794   2.603
  244SOL     OW  757   1.111   1.776   2.099
  244SOL    HW1  758   1.051   1.714   2.149
  244SOL    HW2  759   1.142   1.732   2.014
  245SOL     OW  760   0.464   1.743   2.185
  245SOL    HW1  761   0.497   1.782   2.271
  245SOL    HW2  762   0.540   1.736   2.120
  246SOL     OW  763   1.400   0.107   2.288
  246SOL    HW1  764   1.376   0.070   2.198
  246SOL    HW2  765   1.499   0.123   2.292
  247SOL     OW  766   0.249   1.785   3.103
  247SOL    HW1  767   0.306   1.720   3.153
  247SOL    HW2  768   0.233   1.752   3.010
  248SOL     OW  769   0.940   1.698   2.766
  248SOL    HW1  770   1.020   1.641   2.787
  248SOL    HW2  771   0.891   1.658   2.689
  249SOL     OW  772   0.382   0.700   2.342
  249SOL    HW1  773   0.427   0.610   2.339
  249SOL    HW2  774   0.288   0.689   2.375
  250SOL     OW  775   0.614   0.122   1.979
  250SOL    HW1  776   0.712   0.100   1.986
  250SOL    HW2  777   0.583   0.105   1.886
  251SOL     OW  778   0.803   1.402   2.786
  251SOL    HW1  779   0.893   1.416   2.744
  251SOL    HW2  780   0.732   1.404   2.715
  252SOL     OW  781   0.922   0.503   2.761
  252SOL    HW1  782   0.897   0.494   2.665
  252SOL    HW2  783   0.970   0.421   2.792
  253SOL     OW  784   0.539   0.064   2.374
  253SOL    HW1  785   0.458   0.065   2.432
  253SOL    HW2  786   0.542   0.147   2.319
  254SOL     OW  787   1.434   1.188   1.903
  254SOL    HW1  788   1.466   1.112   1.960
  254SOL    HW2  789   1.342   1.215   1.933
  255SOL     OW  790   0.297   0.035   2.033
  255SOL    HW1  791   0.346   0.119   2.012
  255SOL    HW2  792   0.359  -0.030   2.078
  256SOL     OW  793   0.935   0.236   2.342
  256SOL    HW1  794   0.887   0.277   2.264
  256SOL    HW2  795   1.034   0.234   2.323
  257SOL     OW  796   1.227   1.570   2.655
  257SOL    HW1  797   1.248   1.644   2.590
  257SOL    HW2  798   1.295   1.570   2.728
  258SOL     OW  799   0.459   1.152   2.603
  258SOL    HW1  800   0.388   1.125   2.668
  258SOL    HW2  801   0.433   1.124   2.510
  259SOL     OW  802   1.271   1.797   2.453
  259SOL    HW1  803   1.315   1.861   2.389
  259SOL    HW2  804   1.221   1.849   2.523
  260SOL     OW  805   1.032   0.549   1.878
  260SOL    HW1  806   0.991   0.631   1.839
  260SOL    HW2  807   1.096   0.575   1.951
  261SOL     OW  808   0.866   0.454   2.504
  261SOL    HW1  809   0.834   0.526   2.442
  261SOL    HW2  810   0.890   0.373   2.451
  262SOL     OW  811   1.017   0.039   2.615
  262SOL    HW1  812   0.945   0.044   2.546
  262SOL    HW2  813   0.993  -0.030   2.684
  263SOL     OW  814   1.429   1.173   2.729
  263SOL    HW1  815   1.374   1.089   2.722
  263SOL    HW2  816   1.455   1.202   2.637
  264SOL     OW  817   1.466   0.590   2.854
  264SOL    HW1  818   1.436   0.495   2.861
  264SOL    HW2  819   1.539   0.606   2.920
  265SOL     OW  820   1.857   0.833   2.239
  265SOL    HW1  821   1.899   0.769   2.303
  265SOL    HW2  822   1.819   0.782   2.161
  266SOL     OW  823   0.488   1.385   2.036
  266SOL    HW1  824   0.401   1.370   2.083
  266SOL    HW2  825   0.471   1.411   1.941
  267SOL     OW  826   1.664   1.280   2.519
  267SOL    HW1  827   1.763   1.288   2.533
  267SOL    HW2  828   1.619   1.364   2.550
  268SOL     OW  829   1.390   0.575   1.940
  268SOL    HW1  830   1.336   0.554   2.021
  268SOL    HW2  831   1.481   0.534   1.949
  269SOL     OW  832   0.527   0.256   2.190
  269SOL    HW1  833   0.554   0.197   2.115
  269SOL    HW2  834   0.527   0.351   2.159
  270SOL     OW  835   1.638   1.099   2.941
  270SOL    HW1  836   1.643   1.180   3.000
  270SOL    HW2  837   1.552   1.101   2.890
  271SOL     OW  838   0.705   1.050   2.230
  271SOL    HW1  839   0.691   1.057   2.329
  271SOL    HW2  840   0.789   0.999   2.212
  272SOL     OW  841   0.410   0.813   3.113
  272SOL    HW1  842   0.496   0.825   3.163
  272SOL    HW2  843   0.368   0.726   3.140
  273SOL     OW  844   0.367   1.100   2.363
  273SOL    HW1  845   0.360   1.183   2.307
  273SOL    HW2  846   0.371   1.020   2.303
  274SOL     OW  847   0.566   0.537   2.727
  274SOL    HW1  848   0.578   0.603   2.653
  274SOL    HW2  849   0.612   0.571   2.810
  275SOL     OW  850   1.252   1.348   2.250
  275SOL    HW1  851   1.302   1.425   2.290
  275SOL    HW2  852   1.157   1.350   2.282
  276SOL     OW  853   1.582   0.639   2.334
  276SOL    HW1  854   1.551   0.700   2.407
  276SOL    HW2  855   1.632   0.691   2.265
  277SOL     OW  856   0.354   1.510   3.191
  277SOL    HW1  857   0.333   1.466   3.104
  277SOL    HW2  858   0.451   1.536   3.194
  278SOL     OW  859   0.573   0.870   2.891
  278SOL    HW1  860   0.617   0.959   2.882
  278SOL    HW2  861   0.510   0.870   2.968
  279SOL     OW  862   1.209   0.525   2.137
  279SOL    HW1  863   1.222   0.441   2.191
  279SOL    HW2  864   1.180   0.599   2.197
  280SOL     OW  865   0.732   0.634   2.926
  280SOL    HW1  866   0.791   0.608   2.850
  280SOL    HW2  867   0.704   0.730   2.915
  281SOL     OW  868   0.307   0.063   2.480
  281SOL    HW1  869   0.296   0.157   2.513
  281SOL    HW2  870   0.302   0.000   2.557
  282SOL     OW  871   1.622   0.367   2.236
  282SOL    HW1  872   1.624   0.291   2.300
  282SOL    HW2  873   1.574   0.444   2.276
  283SOL     OW  874   1.023   0.766   2.828
  283SOL    HW1  875   1.038   0.787   2.924
  283SOL    HW2  876   0.993   0.671   2.819
  284SOL     OW  877   1.540   0.274   1.987
  284SOL    HW1  878   1.479   0.199   2.010
  284SOL    HW2  879   1.562   0.326   2.070
  285SOL     OW  880   1.303   0.838   1.904
  285SOL    HW1  881   1.337   0.745   1.919
  285SOL    HW2  882   1.321   0.865   1.809
  286SOL     OW  883   1.068   1.333   2.711
  286SOL    HW1  884   1.075   1.249   2.656
  286SOL    HW2  885   1.130   1.402   2.675
  287SOL     OW  886   0.319   0.810   2.811
  287SOL    HW1  887   0.412   0.846   2.816
  287SOL    HW2  888   0.313   0.725   2.863
  288SOL     OW  889   0.339   0.509   2.868
  288SOL    HW1  890   0.287   0.426   2.851
  288SOL    HW2  891   0.416   0.514   2.804
  289SOL     OW  892   0.008   1.326   2.062
  289SOL    HW1  893  -0.085   1.347   2.031
  289SOL    HW2  894   0.018   1.227   2.075
  290SOL     OW  895   0.088   1.801   2.789
  290SOL    HW1  896   0.046   1.715   2.762
  290SOL    HW2  897   0.182   1.804   2.755
  291SOL     OW  898   0.504   1.568   2.772
  291SOL    HW1  899   0.570   1.642   2.781
  291SOL    HW2  900   0.548   1.489   2.730
  292SOL     OW  901   1.002   0.796   3.100
  292SOL    HW1  902   1.043   0.764   3.186
  292SOL    HW2  903   0.906   0.769   3.097
  293SOL     OW  904   0.815   0.572   2.187
  293SOL    HW1  905   0.822   0.483   2.141
  293SOL    HW2  906   0.721   0.606   2.179
  294SOL     OW  907   0.671   0.464   3.131
  294SOL    HW1  908   0.637   0.375   3.101
  294SOL    HW2  909   0.697   0.518   3.051
  295SOL     OW  910   0.473   0.500   2.053
  295SOL    HW1  911   0.534   0.580   2.057
  295SOL    HW2  912   0.378   0.531   2.060
  296SOL     OW  913   1.302   0.855   2.171
  296SOL    HW1  914   1.216   0.824   2.213
  296SOL    HW2  915   1.298   0.841   2.072
  297SOL     OW  916   1.759   1.747   3.016
  297SOL    HW1  917   1.820   1.777   2.943
  297SOL    HW2  918   1.721   1.658   2.994
  298SOL     OW  919   0.083   1.258   2.884
  298SOL    HW1  920   0.078   1.257   2.984
  298SOL    HW2  921   0.000   1.217   2.846
  299SOL     OW  922   1.726   0.135   2.385
  299SOL    HW1  923   1.799   0.118   2.318
  299SOL    HW2  924   1.695   0.048   2.423
  300SOL     OW  925   1.388   1.573   2.339
  300SOL    HW1  926   1.455   1.585   2.265
  300SOL    HW2  927   1.348   1.662   2.362
  301SOL     OW  928   1.280   0.927   2.534
  301SOL    HW1  929   1.340   0.846   2.536
  301SOL    HW2  930   1.320   0.996   2.474
  302SOL     OW  931   0.672   1.616   2.016
  302SOL    HW1  932   0.681   1.626   1.917
  302SOL    HW2  933   0.632   1.527   2.037
  303SOL     OW  934   1.841   0.175   2.825
  303SOL    HW1  935   1.880   0.090   2.789
  303SOL    HW2  936   1.743   0.177   2.806
  304SOL     OW  937   0.263   0.326   2.582
  304SOL    HW1  938   0.184   0.377   2.548
  304SOL    HW2  939   0.254   0.311   2.680
  305SOL     OW  940   0.916   0.910   2.153
  305SOL    HW1  941   0.979   0.948   2.085
  305SOL    HW2  942   0.956   0.827   2.192
  306SOL     OW  943   1.039   1.098   2.558
  306SOL    HW1  944   0.969   1.051   2.612
  306SOL    HW2  945   1.098   1.030   2.515
  307SOL     OW  946   1.014   0.236   2.833
  307SOL    HW1  947   1.006   0.200   2.740
  307SOL    HW2  948   1.012   0.160   2.898
  308SOL     OW  949   0.590   1.487   2.353
  308SOL    HW1  950   0.632   1.429   2.283
  308SOL    HW2  951   0.546   1.566   2.309
  309SOL     OW  952   0.255   1.348   2.152
  309SOL    HW1  953   0.159   1.349   2.125
  309SOL    HW2  954   0.267   1.401   2.236
  310SOL     OW  955   0.075   0.345   1.895
  310SOL    HW1  956  -0.017   0.317   1.866
  310SOL    HW2  957   0.106   0.422   1.839
  311SOL     OW  958   0.072   0.166   2.180
  311SOL    HW1  959   0.055   0.249   2.126
  311SOL    HW2  960   0.162   0.129   2.158
  312SOL     OW  961   1.183   1.335   1.981
  312SOL    HW1  962   1.084   1.324   1.983
  312SOL    HW2  963   1.217   1.350   2.074
  313SOL     OW  964   1.493   1.767   2.821
  313SOL    HW1  965   1.526   1.831   2.752
  313SOL    HW2  966   1.559   1.761   2.896
  314SOL     OW  967   1.674   0.883   3.116
  314SOL    HW1  968   1.647   0.794   3.079
  314SOL    HW2  969   1.675   0.951   3.043
  315SOL     OW  970   1.225   0.325   2.311
  315SOL    HW1  971   1.290   0.251   2.300
  315SOL    HW2  972   1.245   0.375   2.395
  316SOL     OW  973   0.594   0.745   2.514
  316SOL    HW1  974   0.644   0.830   2.495
  316SOL    HW2  975   0.506   0.747   2.466
  317SOL     OW  976   0.859   1.374   1.878
  317SOL    HW1  977   0.813   1.389   1.966
  317SOL    HW2  978   0.903   1.459   1.848
  318SOL     OW  979   0.661   1.790   2.815
  318SOL    HW1  980   0.615   1.878   2.802
  318SOL    HW2  981   0.760   1.802   2.808
  319SOL     OW  982   0.859   0.956   2.723
  319SOL    HW1  983   0.913   0.887   2.771
  319SOL    HW2  984   0.827   1.025   2.789
  320SOL     OW  985   1.083   0.984   1.949
  320SOL    HW1  986   1.060   1.037   1.867
  320SOL    HW2  987   1.164   0.928   1.930
  321SOL     OW  988   1.861   1.569   2.713
  321SOL    HW1  989   1.790   1.557   2.643
  321SOL    HW2  990   1.862   1.490   2.773
  322SOL     OW  991   0.079   1.240   2.515
  322SOL    HW1  992   0.078   1.193   2.603
  322SOL    HW2  993   0.161   1.212   2.464
  323SOL     OW  994   1.824   0.192   3.089
  323SOL    HW1  995   1.820   0.102   3.133
  323SOL    HW2  996   1.827   0.181   2.990
  324SOL     OW  997   0.428   0.424   2.382
  324SOL    HW1  998   0.458   0.352   2.320
  324SOL    HW2  999   0.389   0.384   2.465
  325SOL     OW 1000   0.812   1.586   2.549
  325SOL    HW1 1001   0.844   1.596   2.455
  325SOL    HW2 1002   0.733   1.524   2.551
  326SOL     OW 1003   1.424   0.214   2.974
  326SOL    HW1 1004   1.476   0.149   3.029
  326SOL    HW2 1005   1.375   0.277   3.035
  327SOL     OW 1006   0.770   1.330   2.163
  327SOL    HW1 1007   0.724   1.243   2.180
  327SOL    HW2 1008   0.861   1.327   2.204
  328SOL     OW 1009   1.352   0.052   2.030
  328SOL    HW1 1010   1.387   0.011   1.946
  328SOL    HW2 1011   1.262   0.014   2.050
  329SOL     OW 1012   1.300   0.453   2.553
  329SOL    HW1 1013   1.241   0.533   2.557
  329SOL    HW2 1014   1.315   0.418   2.646
  330SOL     OW 1015   1.593   0.221   2.744
  330SOL    HW1 1016   1.509   0.220   2.798
  330SOL    HW2 1017   1.595   0.304   2.688
  331SOL     OW 1018   0.039   1.077   2.162
  331SOL    HW1 1019   0.138   1.066   2.153
  331SOL    HW2 1020  -0.001   0.991   2.194
  332SOL     OW 1021   0.875   1.646   2.199
  332SOL    HW1 1022   0.798   1.611   2.145
  332SOL    HW2 1023   0.843   1.717   2.261
  333SOL     OW 1024   0.230   2.490   0.113
  333SOL    HW1 1025   0.137   2.488   0.150
  333SOL    HW2 1026   0.231   2.451   0.021
  334SOL     OW 1027   0.225   2.137   0.996
  334SOL    HW1 1028   0.260   2.120   1.088
  334SOL    HW2 1029   0.137   2.092   0.984
  335SOL     OW 1030   0.019   2.230   0.647
  335SOL    HW1 1031  -0.063   2.273   0.686
  335SOL    HW2 1032  -0.009   2.157   0.584
  336SOL     OW 1033   1.135   2.565   0.717
  336SOL    HW1 1034   1.192   2.643   0.692
  336SOL    HW2 1035   1.075   2.591   0.793
  337SOL     OW 1036   1.755   2.469   0.231
  337SOL    HW1 1037   1.743   2.456   0.132
  337SOL    HW2 1038   1.725   2.388   0.280
  338SOL     OW 1039   0.768   3.006   1.023
  338SOL    HW1 1040   0.690   3.023   1.083
  338SOL    HW2 1041   0.802   3.093   0.987
  339SOL     OW 1042   0.850   2.660   1.823
  339SOL    HW1 1043   0.846   2.736   1.888
  339SOL    HW2 1044   0.872   2.696   1.732
  340SOL     OW 1045   0.685   2.874   0.665
  340SOL    HW1 1046   0.754   2.858   0.735
  340SOL    HW2 1047   0.612   2.931   0.703
  341SOL     OW 1048   0.438   2.254   1.499
  341SOL    HW1 1049   0.520   2.198   1.508
  341SOL    HW2 1050   0.357   2.196   1.503
  342SOL     OW 1051   1.603   2.309   0.737
  342SOL    HW1 1052   1.529   2.355   0.687
  342SOL    HW2 1053   1.654   2.377   0.790
  343SOL     OW 1054   0.230   3.296   0.538
  343SOL    HW1 1055   0.204   3.392   0.538
  343SOL    HW2 1056   0.159   3.242   0.583
  344SOL     OW 1057   0.240   2.953   0.886
  344SOL    HW1 1058   0.254   2.869   0.938
  344SOL    HW2 1059   0.185   3.017   0.941
  345SOL     OW 1060   0.606   2.826   0.123
  345SOL    HW1 1061   0.613   2.910   0.069
  345SOL    HW2 1062   0.652   2.839   0.211
  346SOL     OW 1063   1.594   1.976   1.480
  346SOL    HW1 1064   1.576   2.043   1.408
  346SOL    HW2 1065   1.591   2.022   1.569
  347SOL     OW 1066   0.122   2.505   0.563
  347SOL    HW1 1067   0.077   2.417   0.580
  347SOL    HW2 1068   0.121   2.559   0.647
  348SOL     OW 1069   1.689   2.784   0.612
  348SOL    HW1 1070   1.784   2.755   0.620
  348SOL    HW2 1071   1.681   2.849   0.537
  349SOL     OW 1072   0.113   2.599   1.597
  349SOL    HW1 1073   0.201   2.586   1.642
  349SOL    HW2 1074   0.100   2.696   1.575
  350SOL     OW 1075   1.293   3.090   1.423
  350SOL    HW1 1076   1.330   3.017   1.365
  350SOL    HW2 1077   1.345   3.095   1.508
  351SOL     OW 1078   0.809   1.866   0.502
  351SOL    HW1 1079   0.849   1.957   0.493
  351SOL    HW2 1080   0.709   1.874   0.508
  352SOL     OW 1081   0.197   2.838   1.264
  352SOL    HW1 1082   0.286   2.793   1.250
  352SOL    HW2 1083   0.124   2.773   1.245
  353SOL     OW 1084   1.525   2.861   0.190
  353SOL    HW1 1085   1.462   2.785   0.203
  353SOL    HW2 1086   1.573   2.879   0.276
  354SOL     OW 1087   0.317   2.113   1.801
  354SOL    HW1 1088   0.388   2.184   1.807
  354SOL    HW2 1089   0.229   2.152   1.829
  355SOL     OW 1090   0.598   2.591   0.270
  355SOL    HW1 1091   0.622   2.660   0.202
  355SOL    HW2 1092   0.520   2.624   0.324
  356SOL     OW 1093   1.281   2.207   0.944
  356SOL    HW1 1094   1.195   2.157   0.931
  356SOL    HW2 1095   1.343   2.153   1.000
  357SOL     OW 1096   0.807   2.467   1.465
  357SOL    HW1 1097   0.760   2.464   1.554
  357SOL    HW2 1098   0.756   2.412   1.399
  358SOL     OW 1099   1.394   2.331   1.674
  358SOL    HW1 1100   1.374   2.374   1.762
  358SOL    HW2 1101   1.472   2.269   1.683
  359SOL     OW 1102   0.973   2.752   1.572
  359SOL    HW1 1103   1.019   2.668   1.543
  359SOL    HW2 1104   0.917   2.786   1.497
  360SOL     OW 1105   0.991   2.272   1.242
  360SOL    HW1 1106   0.914   2.306   1.296
  360SOL    HW2 1107   0.957   2.221   1.163
  361SOL     OW 1108   1.041   2.563   0.429
  361SOL    HW1 1109   1.067   2.559   0.525
  361SOL    HW2 1110   0.956   2.512   0.415
  362SOL     OW 1111   0.076   2.673   0.789
  362SOL    HW1 1112   0.175   2.661   0.798
  362SOL    HW2 1113   0.052   2.768   0.810
  363SOL     OW 1114   0.865   2.210   0.195
  363SOL    HW1 1115   0.924   2.273   0.146
  363SOL    HW2 1116   0.884   2.116   0.166
  364SOL     OW 1117   1.719   2.447   1.831
  364SOL    HW1 1118   1.693   2.536   1.795
  364SOL    HW2 1119   1.717   2.379   1.758
  365SOL     OW 1120   0.550   2.058   0.885
  365SOL    HW1 1121   0.545   2.053   0.985
  365SOL    HW2 1122   0.552   2.154   0.856
  366SOL     OW 1123   1.795   2.928   0.873
  366SOL    HW1 1124   1.733   2.913   0.797
  366SOL    HW2 1125   1.743   2.939   0.958
  367SOL     OW 1126   0.321   2.805   0.242
  367SOL    HW1 1127   0.403   2.844   0.200
  367SOL    HW2 1128   0.294   2.723   0.193
  368SOL     OW 1129   1.458   2.597   0.728
  368SOL    HW1 1130   1.453   2.532   0.803
  368SOL    HW2 1131   1.538   2.656   0.741
  369SOL     OW 1132   0.202   2.147   1.498
  369SOL    HW1 1133   0.122   2.207   1.485
  369SOL    HW2 1134   0.192   2.098   1.584
  370SOL     OW 1135   1.400   1.969   0.426
  370SOL    HW1 1136   1.376   1.932   0.336
  370SOL    HW2 1137   1.499   1.985   0.430
  371SOL     OW 1138   0.382   2.562   0.480
  371SOL    HW1 1139   0.427   2.472   0.477
  371SOL    HW2 1140   0.288   2.551   0.513
  372SOL     OW 1141   1.547   2.084   1.729
  372SOL    HW1 1142   1.542   2.121   1.821
  372SOL    HW2 1143   1.475   2.015   1.717
  373SOL     OW 1144   0.614   1.984   0.117
  373SOL    HW1 1145   0.712   1.962   0.124
  373SOL    HW2 1146   0.583   1.967   0.024
  374SOL     OW 1147   0.781   2.126   1.749
  374SOL    HW1 1148   0.848   2.065   1.792
  374SOL    HW2 1149   0.708   2.145   1.814
  375SOL     OW 1150   1.351   2.452   1.433
  375SOL    HW1 1151   1.379   2.409   1.518
  375SOL    HW2 1152   1.376   2.548   1.434
  376SOL     OW 1153   0.922   2.365   0.899
  376SOL    HW1 1154   0.897   2.356   0.803
  376SOL    HW2 1155   0.970   2.283   0.930
  377SOL     OW 1156   0.539   1.926   0.512
  377SOL    HW1 1157   0.458   1.927   0.570
  377SOL    HW2 1158   0.542   2.009   0.457
  378SOL     OW 1159   0.935   2.098   0.480
  378SOL    HW1 1160   0.887   2.139   0.402
  378SOL    HW2 1161   1.034   2.096   0.461
  379SOL     OW 1162   1.076   2.545   1.464
  379SOL    HW1 1163   0.996   2.484   1.467
  379SOL    HW2 1164   1.157   2.492   1.440
  380SOL     OW 1165   1.032   2.411   0.016
  380SOL    HW1 1166   0.991   2.493  -0.023
  380SOL    HW2 1167   1.096   2.437   0.089
  381SOL     OW 1168   0.078   2.418   1.386
  381SOL    HW1 1169   0.170   2.417   1.345
  381SOL    HW2 1170   0.072   2.492   1.453
  382SOL     OW 1171   0.561   2.084   1.147
  382SOL    HW1 1172   0.599   2.000   1.184
  382SOL    HW2 1173   0.473   2.103   1.191
  383SOL     OW 1174   0.866   2.316   0.642
  383SOL    HW1 1175   0.834   2.388   0.580
  383SOL    HW2 1176   0.890   2.235   0.589
  384SOL     OW 1177   1.017   1.901   0.753
  384SOL    HW1 1178   0.945   1.906   0.684
  384SOL    HW2 1179   0.993   1.832   0.822
  385SOL     OW 1180   1.429   3.035   0.867
  385SOL    HW1 1181   1.374   2.951   0.860
  385SOL    HW2 1182   1.455   3.064   0.775
  386SOL     OW 1183   1.466   2.452   0.992
  386SOL    HW1 1184   1.436   2.357   0.999
  386SOL    HW2 1185   1.539   2.468   1.058
  387SOL     OW 1186   1.857   2.695   0.377
  387SOL    HW1 1187   1.899   2.631   0.441
  387SOL    HW2 1188   1.819   2.644   0.299
  388SOL     OW 1189   1.390   2.437   0.078
  388SOL    HW1 1190   1.336   2.416   0.159
  388SOL    HW2 1191   1.481   2.396   0.087
  389SOL     OW 1192   0.527   2.118   0.328
  389SOL    HW1 1193   0.554   2.059   0.253
  389SOL    HW2 1194   0.527   2.213   0.297
  390SOL     OW 1195   1.754   3.085   1.588
  390SOL    HW1 1196   1.845   3.046   1.575
  390SOL    HW2 1197   1.762   3.181   1.612
  391SOL     OW 1198   1.638   2.961   1.079
  391SOL    HW1 1199   1.643   3.042   1.138
  391SOL    HW2 1200   1.552   2.963   1.028
  392SOL     OW 1201   0.915   1.951   1.402
  392SOL    HW1 1202   0.940   1.931   1.307
  392SOL    HW2 1203   0.987   2.007   1.444
  393SOL     OW 1204   0.410   2.675   1.251
  393SOL    HW1 1205   0.496   2.687   1.301
  393SOL    HW2 1206   0.368   2.588   1.278
  394SOL     OW 1207   1.274   2.248   1.262
  394SOL    HW1 1208   1.295   2.322   1.326
  394SOL    HW2 1209   1.185   2.265   1.219
  395SOL     OW 1210   0.367   2.962   0.501
  395SOL    HW1 1211   0.360   3.045   0.445
  395SOL    HW2 1212   0.371   2.882   0.441
  396SOL     OW 1213   0.566   2.399   0.865
  396SOL    HW1 1214   0.578   2.465   0.791
  396SOL    HW2 1215   0.612   2.433   0.948
  397SOL     OW 1216   1.582   2.501   0.472
  397SOL    HW1 1217   1.551   2.562   0.545
  397SOL    HW2 1218   1.632   2.553   0.403
  398SOL     OW 1219   0.402   2.613   1.598
  398SOL    HW1 1220   0.470   2.668   1.551
  398SOL    HW2 1221   0.442   2.525   1.625
  399SOL     OW 1222   1.587   2.641   1.670
  399SOL    HW1 1223   1.495   2.679   1.665
  399SOL    HW2 1224   1.647   2.688   1.605
  400SOL     OW 1225   1.013   1.967   1.770
  400SOL    HW1 1226   1.019   2.052   1.718
  400SOL    HW2 1227   1.045   1.891   1.713
  401SOL     OW 1228   0.504   1.912   1.740
  401SOL    HW1 1229   0.462   1.855   1.670
  401SOL    HW2 1230   0.438   1.981   1.772
  402SOL     OW 1231   0.573   2.732   1.029
  402SOL    HW1 1232   0.617   2.821   1.020
  402SOL    HW2 1233   0.510   2.732   1.106
  403SOL     OW 1234   1.360   2.724   1.045
  403SOL    HW1 1235   1.285   2.724   0.979
  403SOL    HW2 1236   1.397   2.632   1.054
  404SOL     OW 1237   1.209   2.387   0.275
  404SOL    HW1 1238   1.222   2.303   0.329
  404SOL    HW2 1239   1.180   2.461   0.335
  405SOL     OW 1240   0.307   2.075   1.231
  405SOL    HW1 1241   0.284   2.112   1.321
  405SOL    HW2 1242   0.277   1.980   1.225
  406SOL     OW 1243   0.037   3.172   1.282
  406SOL    HW1 1244   0.090   3.123   1.350
  406SOL    HW2 1245   0.059   3.270   1.287
  407SOL     OW 1246   0.732   2.496   1.064
  407SOL    HW1 1247   0.791   2.470   0.988
  407SOL    HW2 1248   0.704   2.592   1.053
  408SOL     OW 1249   1.728   2.797   1.854
  408SOL    HW1 1250   1.682   2.790   1.765
  408SOL    HW2 1251   1.666   2.841   1.920
  409SOL     OW 1252   0.307   1.925   0.618
  409SOL    HW1 1253   0.296   2.019   0.651
  409SOL    HW2 1254   0.302   1.862   0.695
  410SOL     OW 1255   1.622   2.229   0.374
  410SOL    HW1 1256   1.624   2.153   0.438
  410SOL    HW2 1257   1.574   2.306   0.414
  411SOL     OW 1258   1.023   2.628   0.966
  411SOL    HW1 1259   1.038   2.649   1.062
  411SOL    HW2 1260   0.993   2.533   0.957
  412SOL     OW 1261   0.350   2.760   1.804
  412SOL    HW1 1262   0.426   2.804   1.852
  412SOL    HW2 1263   0.385   2.713   1.722
  413SOL     OW 1264   1.540   2.136   0.125
  413SOL    HW1 1265   1.479   2.061   0.148
  413SOL    HW2 1266   1.562   2.188   0.208
  414SOL     OW 1267   1.303   2.700   0.042
  414SOL    HW1 1268   1.337   2.607   0.057
  414SOL    HW2 1269   1.321   2.727  -0.053
  415SOL     OW 1270   0.319   2.672   0.949
  415SOL    HW1 1271   0.412   2.708   0.954
  415SOL    HW2 1272   0.313   2.587   1.001
  416SOL     OW 1273   0.339   2.371   1.006
  416SOL    HW1 1274   0.287   2.288   0.989
  416SOL    HW2 1275   0.416   2.376   0.942
  417SOL     OW 1276   1.138   2.242   1.678
  417SOL    HW1 1277   1.093   2.305   1.742
  417SOL    HW2 1278   1.231   2.273   1.661
  418SOL     OW 1279   1.160   2.069   1.477
  418SOL    HW1 1280   1.160   2.133   1.554
  418SOL    HW2 1281   1.188   2.117   1.394
  419SOL     OW 1282   1.002   2.658   1.238
  419SOL    HW1 1283   1.043   2.626   1.324
  419SOL    HW2 1284   0.906   2.631   1.235
  420SOL     OW 1285   0.040   2.406   1.114
  420SOL    HW1 1286   0.125   2.373   1.073
  420SOL    HW2 1287   0.053   2.421   1.212
  421SOL     OW 1288   0.189   2.382   1.722
  421SOL    HW1 1289   0.248   2.342   1.652
  421SOL    HW2 1290   0.131   2.453   1.681
  422SOL     OW 1291   1.369   2.812   1.660
  422SOL    HW1 1292   1.408   2.901   1.680
  422SOL    HW2 1293   1.379   2.792   1.563
  423SOL     OW 1294   0.815   2.434   0.325
  423SOL    HW1 1295   0.822   2.345   0.279
  423SOL    HW2 1296   0.721   2.468   0.317
  424SOL     OW 1297   1.657   2.466   1.206
  424SOL    HW1 1298   1.619   2.397   1.268
  424SOL    HW2 1299   1.739   2.430   1.162
  425SOL     OW 1300   0.671   2.326   1.269
  425SOL    HW1 1301   0.637   2.237   1.239
  425SOL    HW2 1302   0.697   2.380   1.189
  426SOL     OW 1303   0.473   2.362   0.191
  426SOL    HW1 1304   0.534   2.442   0.195
  426SOL    HW2 1305   0.378   2.393   0.198
  427SOL     OW 1306   0.159   2.999   1.466
  427SOL    HW1 1307   0.181   2.938   1.542
  427SOL    HW2 1308   0.169   2.950   1.380
  428SOL     OW 1309   1.347   2.921   1.234
  428SOL    HW1 1310   1.371   2.858   1.160
  428SOL    HW2 1311   1.257   2.961   1.216
  429SOL     OW 1312   1.302   2.717   0.309
  429SOL    HW1 1313   1.216   2.686   0.351
  429SOL    HW2 1314   1.298   2.703   0.210
  430SOL     OW 1315   0.903   1.948   0.133
  430SOL    HW1 1316   0.954   1.949   0.047
  430SOL    HW2 1317   0.959   1.906   0.204
  431SOL     OW 1318   1.726   1.997   0.523
  431SOL    HW1 1319   1.799   1.980   0.456
  431SOL    HW2 1320   1.695   1.910   0.561
  432SOL     OW 1321   1.280   2.789   0.672
  432SOL    HW1 1322   1.340   2.708   0.674
  432SOL    HW2 1323   1.320   2.858   0.612
  433SOL     OW 1324   1.841   2.037   0.963
  433SOL    HW1 1325   1.880   1.952   0.927
  433SOL    HW2 1326   1.743   2.039   0.944
  434SOL     OW 1327   0.263   2.188   0.720
  434SOL    HW1 1328   0.184   2.239   0.686
  434SOL    HW2 1329   0.254   2.173   0.818
  435SOL     OW 1330   0.822   2.864   1.372
  435SOL    HW1 1331   0.862   2.863   1.280
  435SOL    HW2 1332   0.832   2.956   1.412
  436SOL     OW 1333   0.916   2.772   0.291
  436SOL    HW1 1334   0.979   2.810   0.223
  436SOL    HW2 1335   0.956   2.689   0.330
  437SOL     OW 1336   1.014   2.098   0.971
  437SOL    HW1 1337   1.006   2.062   0.878
  437SOL    HW2 1338   1.012   2.022   1.036
  438SOL     OW 1339   1.709   2.247   1.381
  438SOL    HW1 1340   1.782   2.316   1.385
  438SOL    HW2 1341   1.737   2.172   1.322
  439SOL     OW 1342   0.105   2.875   1.726
  439SOL    HW1 1343   0.028   2.842   1.780
  439SOL    HW2 1344   0.190   2.845   1.768
  440SOL     OW 1345   0.672   2.065   1.489
  440SOL    HW1 1346   0.762   2.049   1.449
  440SOL    HW2 1347   0.680   2.070   1.588
  441SOL     OW 1348   0.075   2.207   0.033
  441SOL    HW1 1349  -0.017   2.179   0.004
  441SOL    HW2 1350   0.106   2.284  -0.023
  442SOL     OW 1351   1.440   2.718   1.398
  442SOL    HW1 1352   1.383   2.770   1.335
  442SOL    HW2 1353   1.536   2.730   1.374
  443SOL     OW 1354   0.072   2.028   0.318
  443SOL    HW1 1355   0.055   2.111   0.264
  443SOL    HW2 1356   0.162   1.991   0.296
  444SOL     OW 1357   1.183   3.197   0.119
  444SOL    HW1 1358   1.084   3.186   0.121
  444SOL    HW2 1359   1.217   3.212   0.212
  445SOL     OW 1360   0.613   2.704   1.431
  445SOL    HW1 1361   0.669   2.785   1.414
  445SOL    HW2 1362   0.672   2.624   1.434
  446SOL     OW 1363   0.716   2.427   1.708
  446SOL    HW1 1364   0.735   2.492   1.782
  446SOL    HW2 1365   0.776   2.347   1.717
  447SOL     OW 1366   1.674   2.745   1.254
  447SOL    HW1 1367   1.647   2.656   1.217
  447SOL    HW2 1368   1.675   2.813   1.181
  448SOL     OW 1369   1.225   2.187   0.449
  448SOL    HW1 1370   1.290   2.113   0.438
  448SOL    HW2 1371   1.245   2.237   0.533
  449SOL     OW 1372   0.594   2.607   0.652
  449SOL    HW1 1373   0.644   2.692   0.633
  449SOL    HW2 1374   0.506   2.609   0.604
  450SOL     OW 1375   1.777   2.204   1.642
  450SOL    HW1 1376   1.760   2.235   1.548
  450SOL    HW2 1377   1.693   2.167   1.680
  451SOL     OW 1378   1.730   2.796   1.517
  451SOL    HW1 1379   1.768   2.887   1.532
  451SOL    HW2 1380   1.722   2.779   1.418
  452SOL     OW 1381   0.859   2.818   0.861
  452SOL    HW1 1382   0.913   2.749   0.909
  452SOL    HW2 1383   0.827   2.887   0.927
  453SOL     OW 1384   1.083   2.846   0.087
  453SOL    HW1 1385   1.060   2.899   0.005
  453SOL    HW2 1386   1.164   2.790   0.068
  454SOL     OW 1387   1.824   2.054   1.227
  454SOL    HW1 1388   1.820   1.964   1.271
  454SOL    HW2 1389   1.827   2.043   1.128
  455SOL     OW 1390   0.428   2.286   0.520
  455SOL    HW1 1391   0.458   2.214   0.458
  455SOL    HW2 1392   0.389   2.246   0.603
  456SOL     OW 1393   0.317   2.409   1.280
  456SOL    HW1 1394   0.355   2.350   1.352
  456SOL    HW2 1395   0.357   2.383   1.192
  457SOL     OW 1396   1.424   2.076   1.112
  457SOL    HW1 1397   1.476   2.011   1.167
  457SOL    HW2 1398   1.375   2.139   1.173
  458SOL     OW 1399   1.001   1.896   1.154
  458SOL    HW1 1400   0.938   1.824   1.123
  458SOL    HW2 1401   1.094   1.860   1.154
  459SOL     OW 1402   1.352   1.914   0.168
  459SOL    HW1 1403   1.387   1.873   0.084
  459SOL    HW2 1404   1.262   1.876   0.188
  460SOL     OW 1405   1.300   2.315   0.691
  460SOL    HW1 1406   1.241   2.395   0.695
  460SOL    HW2 1407   1.315   2.280   0.784
  461SOL     OW 1408   1.593   2.083   0.882
  461SOL    HW1 1409   1.509   2.082   0.936
  461SOL    HW2 1410   1.595   2.166   0.826
  462SOL     OW 1411   0.039   2.939   0.300
  462SOL    HW1 1412   0.138   2.928   0.291
  462SOL    HW2 1413  -0.001   2.853   0.332
  463SOL     OW 1414   0.230   2.490   1.975
  463SOL    HW1 1415   0.137   2.488   2.012
  463SOL    HW2 1416   0.231   2.451   1.883
  464SOL     OW 1417   0.225   2.137   2.858
  464SOL    HW1 1418   0.260   2.120   2.950
  464SOL    HW2 1419   0.137   2.092   2.846
  465SOL     OW 1420   0.019   2.230   2.509
  465SOL    HW1 1421  -0.063   2.273   2.548
  465SOL    HW2 1422  -0.009   2.157   2.446
  466SOL     OW 1423   1.135   2.565   2.579
  466SOL    HW1 1424   1.192   2.643   2.554
  466SOL    HW2 1425   1.075   2.591   2.655
  467SOL     OW 1426   1.755   2.469   2.093
  467SOL    HW1 1427   1.743   2.456   1.994
  467SOL    HW2 1428   1.725   2.388   2.142
  468SOL     OW 1429   0.768   3.006   2.885
  468SOL    HW1 1430   0.690   3.023   2.945
  468SOL    HW2 1431   0.802   3.093   2.849
  469SOL     OW 1432   0.685   2.874   2.527
  469SOL    HW1 1433   0.754   2.858   2.597
  469SOL    HW2 1434   0.612   2.931   2.565
  470SOL     OW 1435   1.603   2.309   2.599
  470SOL    HW1 1436   1.529   2.355   2.549
  470SOL    HW2 1437   1.654   2.377   2.652
  471SOL     OW 1438   0.230   3.296   2.400
  471SOL    HW1 1439   0.204   3.392   2.400
  471SOL    HW2 1440   0.159   3.242   2.445
  472SOL     OW 1441   0.240   2.953   2.748
  472SOL    HW1 1442   0.254   2.869   2.800
  472SOL    HW2 1443   0.185   3.017   2.803
  473SOL     OW 1444   0.606   2.826   1.985
  473SOL    HW1 1445   0.613   2.910   1.931
  473SOL    HW2 1446   0.652   2.839   2.073
  474SOL     OW 1447   0.122   2.505   2.425
  474SOL    HW1 1448   0.077   2.417   2.442
  474SOL    HW2 1449   0.121   2.559   2.509
  475SOL     OW 1450   1.689   2.784   2.474
  475SOL    HW1 1451   1.784   2.755   2.482
  475SOL    HW2 1452   1.681   2.849   2.399
  476SOL     OW 1453   0.809   1.866   2.364
  476SOL    HW1 1454   0.849   1.957   2.355
  476SOL    HW2 1455   0.709   1.874   2.370
  477SOL     OW 1456   1.525   2.861   2.052
  477SOL    HW1 1457   1.462   2.785   2.065
  477SOL    HW2 1458   1.573   2.879   2.138
  478SOL     OW 1459   0.598   2.591   2.132
  478SOL    HW1 1460   0.622   2.660   2.064
  478SOL    HW2 1461   0.520   2.624   2.186
  479SOL     OW 1462   1.281   2.207   2.806
  479SOL    HW1 1463   1.195   2.157   2.793
  479SOL    HW2 1464   1.343   2.153   2.862
  480SOL     OW 1465   1.041   2.563   2.291
  480SOL    HW1 1466   1.067   2.559   2.387
  480SOL    HW2 1467   0.956   2.512   2.277
  481SOL     OW 1468   0.076   2.673   2.651
  481SOL    HW1 1469   0.175   2.661   2.660
  481SOL    HW2 1470   0.052   2.768   2.672
  482SOL     OW 1471   0.865   2.210   2.057
  482SOL    HW1 1472   0.924   2.273   2.008
  482SOL    HW2 1473   0.884   2.116   2.028
  483SOL     OW 1474   0.550   2.058   2.747
  483SOL    HW1 1475   0.545   2.053   2.847
  483SOL    HW2 1476   0.552   2.154   2.718
  484SOL     OW 1477   1.795   2.928   2.735
  484SOL    HW1 1478   1.733   2.913   2.659
  484SOL    HW2 1479   1.743   2.939   2.820
  485SOL     OW 1480   0.321   2.805   2.104
  485SOL    HW1 1481   0.403   2.844   2.062
  485SOL    HW2 1482   0.294   2.723   2.055
  486SOL     OW 1483   1.458   2.597   2.590
  486SOL    HW1 1484   1.453   2.532   2.665
  486SOL    HW2 1485   1.538   2.656   2.603
  487SOL     OW 1486   1.400   1.969   2.288
  487SOL    HW1 1487   1.376   1.932   2.198
  487SOL    HW2 1488   1.499   1.985   2.292
  488SOL     OW 1489   0.382   2.562   2.342
  488SOL    HW1 1490   0.427   2.472   2.339
  488SOL    HW2 1491   0.288   2.551   2.375
  489SOL     OW 1492   0.614   1.984   1.979
  489SOL    HW1 1493   0.712   1.962   1.986
  489SOL    HW2 1494   0.583   1.967   1.886
  490SOL     OW 1495   0.922   2.365   2.761
  490SOL    HW1 1496   0.897   2.356   2.665
  490SOL    HW2 1497   0.970   2.283   2.792
  491SOL     OW 1498   0.539   1.926   2.374
  491SOL    HW1 1499   0.458   1.927   2.432
  491SOL    HW2 1500   0.542   2.009   2.319
  492SOL     OW 1501   0.297   1.897   2.033
  492SOL    HW1 1502   0.346   1.981   2.012
  492SOL    HW2 1503   0.359   1.832   2.078
  493SOL     OW 1504   0.935   2.098   2.342
  493SOL    HW1 1505   0.887   2.139   2.264
  493SOL    HW2 1506   1.034   2.096   2.323
  494SOL     OW 1507   1.032   2.411   1.878
  494SOL    HW1 1508   0.991   2.493   1.839
  494SOL    HW2 1509   1.096   2.437   1.951
  495SOL     OW 1510   0.866   2.316   2.504
  495SOL    HW1 1511   0.834   2.388   2.442
  495SOL    HW2 1512   0.890   2.235   2.451
  496SOL     OW 1513   1.017   1.901   2.615
  496SOL    HW1 1514   0.945   1.906   2.546
  496SOL    HW2 1515   0.993   1.832   2.684
  497SOL     OW 1516   1.429   3.035   2.729
  497SOL    HW1 1517   1.374   2.951   2.722
  497SOL    HW2 1518   1.455   3.064   2.637
  498SOL     OW 1519   1.466   2.452   2.854
  498SOL    HW1 1520   1.436   2.357   2.861
  498SOL    HW2 1521   1.539   2.468   2.920
  499SOL     OW 1522   1.857   2.695   2.239
  499SOL    HW1 1523   1.899   2.631   2.303
  499SOL    HW2 1524   1.819   2.644   2.161
  500SOL     OW 1525   1.390   2.437   1.940
  500SOL    HW1 1526   1.336   2.416   2.021
  500SOL    HW2 1527   1.481   2.396   1.949
  501SOL     OW 1528   0.527   2.118   2.190
  501SOL    HW1 1529   0.554   2.059   2.115
  501SOL    HW2 1530   0.527   2.213   2.159
  502SOL     OW 1531   1.638   2.961   2.941
  502SOL    HW1 1532   1.643   3.042   3.000
  502SOL    HW2 1533   1.552   2.963   2.890
  503SOL     OW 1534   0.410   2.675   3.113
  503SOL    HW1 1535   0.496   2.687   3.163
  503SOL    HW2 1536   0.368   2.588   3.140
  504SOL     OW 1537   0.367   2.962   2.363
  504SOL    HW1 1538   0.360   3.045   2.307
  504SOL    HW2 1539   0.371   2.882   2.303
  505SOL     OW 1540   0.566   2.399   2.727
  505SOL    HW1 1541   0.578   2.465   2.653
  505SOL    HW2 1542   0.612   2.433   2.810
  506SOL     OW 1543   1.582   2.501   2.334
  506SOL    HW1 1544   1.551   2.562   2.407
  506SOL    HW2 1545   1.632   2.553   2.265
  507SOL     OW 1546   0.573   2.732   2.891
  507SOL    HW1 1547   0.617   2.821   2.882
  507SOL    HW2 1548   0.510   2.732   2.968
  508SOL     OW 1549   1.209   2.387   2.137
  508SOL    HW1 1550   1.222   2.303   2.191
  508SOL    HW2 1551   1.180   2.461   2.197
  509SOL     OW 1552   0.307   2.075   3.093
  509SOL    HW1 1553   0.284   2.112   3.183
  509SOL    HW2 1554   0.277   1.980   3.087
  510SOL     OW 1555   0.732   2.496   2.926
  510SOL    HW1 1556   0.791   2.470   2.850
  510SOL    HW2 1557   0.704   2.592   2.915
  511SOL     OW 1558   0.307   1.925   2.480
  511SOL    HW1 1559   0.296   2.019   2.513
  511SOL    HW2 1560   0.302   1.862   2.557
  512SOL     OW 1561   1.622   2.229   2.236
  512SOL    HW1 1562   1.624   2.153   2.300
  512SOL    HW2 1563   1.574   2.306   2.276
  513SOL     OW 1564   1.023   2.628   2.828
  513SOL    HW1 1565   1.038   2.649   2.924
  513SOL    HW2 1566   0.993   2.533   2.819
  514SOL     OW 1567   1.540   2.136   1.987
  514SOL    HW1 1568   1.479   2.061   2.010
  514SOL    HW2 1569   1.562   2.188   2.070
  515SOL     OW 1570   1.303   2.700   1.904
  515SOL    HW1 1571   1.337   2.607   1.919
  515SOL    HW2 1572   1.321   2.727   1.809
  516SOL     OW 1573   0.319   2.672   2.811
  516SOL    HW1 1574   0.412   2.708   2.816
  516SOL    HW2 1575   0.313   2.587   2.863
  517SOL     OW 1576   0.339   2.371   2.868
  517SOL    HW1 1577   0.287   2.288   2.851
  517SOL    HW2 1578   0.416   2.376   2.804
  518SOL     OW 1579   1.002   2.658   3.100
  518SOL    HW1 1580   1.043   2.626   3.186
  518SOL    HW2 1581   0.906   2.631   3.097
  519SOL     OW 1582   0.815   2.434   2.187
  519SOL    HW1 1583   0.822   2.345   2.141
  519SOL    HW2 1584   0.721   2.468   2.179
  520SOL     OW 1585   0.671   2.326   3.131
  520SOL    HW1 1586   0.637   2.237   3.101
  520SOL    HW2 1587   0.697   2.380   3.051
  521SOL     OW 1588   0.473   2.362   2.053
  521SOL    HW1 1589   0.534   2.442   2.057
  521SOL    HW2 1590   0.378   2.393   2.060
  522SOL     OW 1591   1.302   2.717   2.171
  522SOL    HW1 1592   1.216   2.686   2.213
  522SOL    HW2 1593   1.298   2.703   2.072
  523SOL     OW 1594   1.726   1.997   2.385
  523SOL    HW1 1595   1.799   1.980   2.318
  523SOL    HW2 1596   1.695   1.910   2.423
  524SOL     OW 1597   1.280   2.789   2.534
  524SOL    HW1 1598   1.340   2.708   2.536
  524SOL    HW2 1599   1.320   2.858   2.474
  525SOL     OW 1600   1.841   2.037   2.825
  525SOL    HW1 1601   1.880   1.952   2.789
  525SOL    HW2 1602   1.743   2.039   2.806
  526SOL     OW 1603   0.263   2.188   2.582
  526SOL    HW1 1604   0.184   2.239   2.548
  526SOL    HW2 1605   0.254   2.173   2.680
  527SOL     OW 1606   0.916   2.772   2.153
  527SOL    HW1 1607   0.979   2.810   2.085
  527SOL    HW2 1608   0.956   2.689   2.192
  528SOL     OW 1609   1.014   2.098   2.833
  528SOL    HW1 1610   1.006   2.062   2.740
  528SOL    HW2 1611   1.012   2.022   2.898
  529SOL     OW 1612   0.075   2.207   1.895
  529SOL    HW1 1613  -0.017   2.179   1.866
  529SOL    HW2 1614   0.106   2.284   1.839
  530SOL     OW 1615   0.072   2.028   2.180
  530SOL    HW1 1616   0.055   2.111   2.126
  530SOL    HW2 1617   0.162   1.991   2.158
  531SOL     OW 1618   1.183   3.197   1.981
  531SOL    HW1 1619   1.084   3.186   1.983
  531SOL    HW2 1620   1.217   3.212   2.074
  532SOL     OW 1621   1.674   2.745   3.116
  532SOL    HW1 1622   1.647   2.656   3.079
  532SOL    HW2 1623   1.675   2.813   3.043
  533SOL     OW 1624   1.225   2.187   2.311
  533SOL    HW1 1625   1.290   2.113   2.300
  533SOL    HW2 1626   1.245   2.237   2.395
  534SOL     OW 1627   0.594   2.607   2.514
  534SOL    HW1 1628   0.644   2.692   2.495
  534SOL    HW2 1629   0.506   2.609   2.466
  535SOL     OW 1630   0.859   2.818   2.723
  535SOL    HW1 1631   0.913   2.749   2.771
  535SOL    HW2 1632   0.827   2.887   2.789
  536SOL     OW 1633   1.083   2.846   1.949
  536SOL    HW1 1634   1.060   2.899   1.867
  536SOL    HW2 1635   1.164   2.790   1.930
  537SOL     OW 1636   1.824   2.054   3.089
  537SOL    HW1 1637   1.820   1.964   3.133
  537SOL    HW2 1638   1.827   2.043   2.990
  538SOL     OW 1639   0.428   2.286   2.382
  538SOL    HW1 1640   0.458   2.214   2.320
  538SOL    HW2 1641   0.389   2.246   2.465
  539SOL     OW 1642   1.424   2.076   2.974
  539SOL    HW1 1643   1.476   2.011   3.029
  539SOL    HW2 1644   1.375   2.139   3.035
  540SOL     OW 1645   1.352   1.914   2.030
  540SOL    HW1 1646   1.387   1.873   1.946
  540SOL    HW2 1647   1.262   1.876   2.050
  541SOL     OW 1648   1.300   2.315   2.553
  541SOL    HW1 1649   1.241   2.395   2.557
  541SOL    HW2 1650   1.315   2.280   2.646
  542SOL     OW 1651   1.593   2.083   2.744
  542SOL    HW1 1652   1.509   2.082   2.798
  542SOL    HW2 1653   1.595   2.166   2.688
  543SOL     OW 1654   0.039   2.939   2.162
  543SOL    HW1 1655   0.138   2.928   2.153
  543SOL    HW2 1656  -0.001   2.853   2.194
  544SOL     OW 1657   2.092   0.628   0.113
  544SOL    HW1 1658   1.999   0.626   0.150
  544SOL    HW2 1659   2.093   0.589   0.021
  545SOL     OW 1660   2.087   0.275   0.996
  545SOL    HW1 1661   2.122   0.258   1.088
  545SOL    HW2 1662   1.999   0.230   0.984
  546SOL     OW 1663   1.881   0.368   0.647
  546SOL    HW1 1664   1.799   0.411   0.686
  546SOL    HW2 1665   1.853   0.295   0.584
  547SOL     OW 1666   2.431   1.275   1.165
  547SOL    HW1 1667   2.338   1.268   1.128
  547SOL    HW2 1668   2.442   1.364   1.209
  548SOL     OW 1669   2.630   1.144   1.023
  548SOL    HW1 1670   2.552   1.161   1.083
  548SOL    HW2 1671   2.664   1.231   0.987
  549SOL     OW 1672   2.712   0.798   1.823
  549SOL    HW1 1673   2.708   0.874   1.888
  549SOL    HW2 1674   2.734   0.834   1.732
  550SOL     OW 1675   2.547   1.012   0.665
  550SOL    HW1 1676   2.616   0.996   0.735
  550SOL    HW2 1677   2.474   1.069   0.703
  551SOL     OW 1678   2.548   1.161   1.803
  551SOL    HW1 1679   2.608   1.240   1.817
  551SOL    HW2 1680   2.462   1.192   1.762
  552SOL     OW 1681   2.197   1.435   1.061
  552SOL    HW1 1682   2.119   1.404   1.008
  552SOL    HW2 1683   2.255   1.493   1.004
  553SOL     OW 1684   2.300   0.392   1.499
  553SOL    HW1 1685   2.382   0.336   1.508
  553SOL    HW2 1686   2.219   0.334   1.503
  554SOL     OW 1687   2.093   1.713   0.483
  554SOL    HW1 1688   2.127   1.790   0.537
  554SOL    HW2 1689   2.137   1.713   0.393
  555SOL     OW 1690   2.989   1.341   1.690
  555SOL    HW1 1691   3.036   1.341   1.778
  555SOL    HW2 1692   2.941   1.254   1.679
  556SOL     OW 1693   2.092   1.434   0.538
  556SOL    HW1 1694   2.066   1.530   0.538
  556SOL    HW2 1695   2.021   1.380   0.583
  557SOL     OW 1696   2.102   1.091   0.886
  557SOL    HW1 1697   2.116   1.007   0.938
  557SOL    HW2 1698   2.047   1.155   0.941
  558SOL     OW 1699   2.482   1.786   1.439
  558SOL    HW1 1700   2.390   1.769   1.474
  558SOL    HW2 1701   2.510   1.878   1.465
  559SOL     OW 1702   2.468   0.964   0.123
  559SOL    HW1 1703   2.475   1.048   0.069
  559SOL    HW2 1704   2.514   0.977   0.211
  560SOL     OW 1705   1.984   0.643   0.563
  560SOL    HW1 1706   1.939   0.555   0.580
  560SOL    HW2 1707   1.983   0.697   0.647
  561SOL     OW 1708   1.889   1.596   0.117
  561SOL    HW1 1709   1.870   1.500   0.138
  561SOL    HW2 1710   1.856   1.654   0.192
  562SOL     OW 1711   1.975   0.737   1.597
  562SOL    HW1 1712   2.063   0.724   1.642
  562SOL    HW2 1713   1.962   0.834   1.575
  563SOL     OW 1714   2.475   1.365   0.726
  563SOL    HW1 1715   2.426   1.278   0.735
  563SOL    HW2 1716   2.452   1.408   0.639
  564SOL     OW 1717   2.671   0.004   0.502
  564SOL    HW1 1718   2.711   0.095   0.493
  564SOL    HW2 1719   2.571   0.012   0.508
  565SOL     OW 1720   2.059   0.976   1.264
  565SOL    HW1 1721   2.148   0.931   1.250
  565SOL    HW2 1722   1.986   0.911   1.245
  566SOL     OW 1723   2.179   0.251   1.801
  566SOL    HW1 1724   2.250   0.322   1.807
  566SOL    HW2 1725   2.091   0.290   1.829
  567SOL     OW 1726   2.460   0.729   0.270
  567SOL    HW1 1727   2.484   0.798   0.202
  567SOL    HW2 1728   2.382   0.762   0.324
  568SOL     OW 1729   2.669   0.605   1.465
  568SOL    HW1 1730   2.622   0.602   1.554
  568SOL    HW2 1731   2.618   0.550   1.399
  569SOL     OW 1732   2.835   0.890   1.572
  569SOL    HW1 1733   2.881   0.806   1.543
  569SOL    HW2 1734   2.779   0.924   1.497
  570SOL     OW 1735   2.853   0.410   1.242
  570SOL    HW1 1736   2.776   0.444   1.296
  570SOL    HW2 1737   2.819   0.359   1.163
  571SOL     OW 1738   2.903   0.701   0.429
  571SOL    HW1 1739   2.929   0.697   0.525
  571SOL    HW2 1740   2.818   0.650   0.415
  572SOL     OW 1741   1.938   0.811   0.789
  572SOL    HW1 1742   2.037   0.799   0.798
  572SOL    HW2 1743   1.914   0.906   0.810
  573SOL     OW 1744   1.992   1.821   1.571
  573SOL    HW1 1745   1.982   1.806   1.670
  573SOL    HW2 1746   1.906   1.857   1.535
  574SOL     OW 1747   2.727   0.348   0.195
  574SOL    HW1 1748   2.786   0.411   0.146
  574SOL    HW2 1749   2.746   0.254   0.166
  575SOL     OW 1750   2.412   0.196   0.885
  575SOL    HW1 1751   2.407   0.191   0.985
  575SOL    HW2 1752   2.414   0.292   0.856
  576SOL     OW 1753   2.870   1.456   0.477
  576SOL    HW1 1754   2.824   1.528   0.425
  576SOL    HW2 1755   2.866   1.476   0.575
  577SOL     OW 1756   2.213   1.801   0.853
  577SOL    HW1 1757   2.263   1.715   0.859
  577SOL    HW2 1758   2.278   1.878   0.850
  578SOL     OW 1759   2.183   0.943   0.242
  578SOL    HW1 1760   2.265   0.982   0.200
  578SOL    HW2 1761   2.156   0.861   0.193
  579SOL     OW 1762   2.323   1.266   1.727
  579SOL    HW1 1763   2.273   1.267   1.641
  579SOL    HW2 1764   2.260   1.248   1.803
  580SOL     OW 1765   2.064   0.285   1.498
  580SOL    HW1 1766   1.984   0.345   1.485
  580SOL    HW2 1767   2.054   0.236   1.584
  581SOL     OW 1768   2.326   1.743   0.323
  581SOL    HW1 1769   2.359   1.782   0.409
  581SOL    HW2 1770   2.402   1.736   0.258
  582SOL     OW 1771   2.111   1.785   1.241
  582SOL    HW1 1772   2.168   1.720   1.291
  582SOL    HW2 1773   2.095   1.752   1.148
  583SOL     OW 1774   2.802   1.698   0.904
  583SOL    HW1 1775   2.882   1.641   0.925
  583SOL    HW2 1776   2.753   1.658   0.827
  584SOL     OW 1777   2.244   0.700   0.480
  584SOL    HW1 1778   2.289   0.610   0.477
  584SOL    HW2 1779   2.150   0.689   0.513
  585SOL     OW 1780   2.476   0.122   0.117
  585SOL    HW1 1781   2.574   0.100   0.124
  585SOL    HW2 1782   2.445   0.105   0.024
  586SOL     OW 1783   2.643   0.264   1.749
  586SOL    HW1 1784   2.710   0.203   1.792
  586SOL    HW2 1785   2.570   0.283   1.814
  587SOL     OW 1786   2.750   1.514   1.195
  587SOL    HW1 1787   2.727   1.489   1.101
  587SOL    HW2 1788   2.811   1.445   1.234
  588SOL     OW 1789   2.665   1.402   0.924
  588SOL    HW1 1790   2.755   1.416   0.882
  588SOL    HW2 1791   2.594   1.404   0.853
  589SOL     OW 1792   2.784   0.503   0.899
  589SOL    HW1 1793   2.759   0.494   0.803
  589SOL    HW2 1794   2.832   0.421   0.930
  590SOL     OW 1795   2.401   0.064   0.512
  590SOL    HW1 1796   2.320   0.065   0.570
  590SOL    HW2 1797   2.404   0.147   0.457
  591SOL     OW 1798   3.296   1.188   0.041
  591SOL    HW1 1799   3.328   1.112   0.098
  591SOL    HW2 1800   3.204   1.215   0.071
  592SOL     OW 1801   2.159   0.035   0.171
  592SOL    HW1 1802   2.208   0.119   0.150
  592SOL    HW2 1803   2.221  -0.030   0.216
  593SOL     OW 1804   2.797   0.236   0.480
  593SOL    HW1 1805   2.749   0.277   0.402
  593SOL    HW2 1806   2.896   0.234   0.461
  594SOL     OW 1807   3.089   1.570   0.793
  594SOL    HW1 1808   3.110   1.644   0.728
  594SOL    HW2 1809   3.157   1.570   0.866
  595SOL     OW 1810   2.321   1.152   0.741
  595SOL    HW1 1811   2.250   1.125   0.806
  595SOL    HW2 1812   2.295   1.124   0.648
  596SOL     OW 1813   2.894   0.549   0.016
  596SOL    HW1 1814   2.853   0.631  -0.023
  596SOL    HW2 1815   2.958   0.575   0.089
  597SOL     OW 1816   1.940   0.556   1.386
  597SOL    HW1 1817   2.032   0.555   1.345
  597SOL    HW2 1818   1.934   0.630   1.453
  598SOL     OW 1819   2.423   0.222   1.147
  598SOL    HW1 1820   2.461   0.138   1.184
  598SOL    HW2 1821   2.335   0.241   1.191
  599SOL     OW 1822   2.728   0.454   0.642
  599SOL    HW1 1823   2.696   0.526   0.580
  599SOL    HW2 1824   2.752   0.373   0.589
  600SOL     OW 1825   2.879   0.039   0.753
  600SOL    HW1 1826   2.807   0.044   0.684
  600SOL    HW2 1827   2.855  -0.030   0.822
  601SOL     OW 1828   2.350   1.385   0.174
  601SOL    HW1 1829   2.263   1.370   0.221
  601SOL    HW2 1830   2.333   1.411   0.079
  602SOL     OW 1831   2.389   0.256   0.328
  602SOL    HW1 1832   2.416   0.197   0.253
  602SOL    HW2 1833   2.389   0.351   0.297
  603SOL     OW 1834   2.777   0.089   1.402
  603SOL    HW1 1835   2.802   0.069   1.307
  603SOL    HW2 1836   2.849   0.145   1.444
  604SOL     OW 1837   2.842   1.116   1.719
  604SOL    HW1 1838   2.743   1.122   1.729
  604SOL    HW2 1839   2.865   1.036   1.663
  605SOL     OW 1840   2.567   1.050   0.368
  605SOL    HW1 1841   2.553   1.057   0.467
  605SOL    HW2 1842   2.651   0.999   0.350
  606SOL     OW 1843   2.272   0.813   1.251
  606SOL    HW1 1844   2.358   0.825   1.301
  606SOL    HW2 1845   2.230   0.726   1.278
  607SOL     OW 1846   2.229   1.100   0.501
  607SOL    HW1 1847   2.222   1.183   0.445
  607SOL    HW2 1848   2.233   1.020   0.441
  608SOL     OW 1849   2.428   0.537   0.865
  608SOL    HW1 1850   2.440   0.603   0.791
  608SOL    HW2 1851   2.474   0.571   0.948
  609SOL     OW 1852   2.216   1.510   1.329
  609SOL    HW1 1853   2.195   1.466   1.242
  609SOL    HW2 1854   2.313   1.536   1.332
  610SOL     OW 1855   2.264   0.751   1.598
  610SOL    HW1 1856   2.332   0.806   1.551
  610SOL    HW2 1857   2.304   0.663   1.625
  611SOL     OW 1858   2.875   0.105   1.770
  611SOL    HW1 1859   2.881   0.190   1.718
  611SOL    HW2 1860   2.907   0.029   1.713
  612SOL     OW 1861   2.366   0.050   1.740
  612SOL    HW1 1862   2.324  -0.007   1.670
  612SOL    HW2 1863   2.300   0.119   1.772
  613SOL     OW 1864   2.435   0.870   1.029
  613SOL    HW1 1865   2.479   0.959   1.020
  613SOL    HW2 1866   2.372   0.870   1.106
  614SOL     OW 1867   3.071   0.525   0.275
  614SOL    HW1 1868   3.084   0.441   0.329
  614SOL    HW2 1869   3.042   0.599   0.335
  615SOL     OW 1870   2.169   0.213   1.231
  615SOL    HW1 1871   2.146   0.250   1.321
  615SOL    HW2 1872   2.139   0.118   1.225
  616SOL     OW 1873   2.594   0.634   1.064
  616SOL    HW1 1874   2.653   0.608   0.988
  616SOL    HW2 1875   2.566   0.730   1.053
  617SOL     OW 1876   2.169   0.063   0.618
  617SOL    HW1 1877   2.158   0.157   0.651
  617SOL    HW2 1878   2.164   0.000   0.695
  618SOL     OW 1879   2.885   0.766   0.966
  618SOL    HW1 1880   2.900   0.787   1.062
  618SOL    HW2 1881   2.855   0.671   0.957
  619SOL     OW 1882   2.842   1.573   1.700
  619SOL    HW1 1883   2.822   1.617   1.612
  619SOL    HW2 1884   2.881   1.482   1.684
  620SOL     OW 1885   2.212   0.898   1.804
  620SOL    HW1 1886   2.288   0.942   1.852
  620SOL    HW2 1887   2.247   0.851   1.722
  621SOL     OW 1888   2.930   1.333   0.849
  621SOL    HW1 1889   2.937   1.249   0.794
  621SOL    HW2 1890   2.992   1.402   0.813
  622SOL     OW 1891   2.181   0.810   0.949
  622SOL    HW1 1892   2.274   0.846   0.954
  622SOL    HW2 1893   2.175   0.725   1.001
  623SOL     OW 1894   2.201   0.509   1.006
  623SOL    HW1 1895   2.149   0.426   0.989
  623SOL    HW2 1896   2.278   0.514   0.942
  624SOL     OW 1897   3.000   0.380   1.678
  624SOL    HW1 1898   2.955   0.443   1.742
  624SOL    HW2 1899   3.093   0.411   1.661
  625SOL     OW 1900   1.870   1.326   0.200
  625SOL    HW1 1901   1.777   1.347   0.169
  625SOL    HW2 1902   1.880   1.227   0.213
  626SOL     OW 1903   1.950   1.801   0.927
  626SOL    HW1 1904   1.908   1.715   0.900
  626SOL    HW2 1905   2.044   1.804   0.893
  627SOL     OW 1906   2.366   1.568   0.910
  627SOL    HW1 1907   2.432   1.642   0.919
  627SOL    HW2 1908   2.410   1.489   0.868
  628SOL     OW 1909   2.864   0.796   1.238
  628SOL    HW1 1910   2.905   0.764   1.324
  628SOL    HW2 1911   2.768   0.769   1.235
  629SOL     OW 1912   1.902   0.544   1.114
  629SOL    HW1 1913   1.987   0.511   1.073
  629SOL    HW2 1914   1.915   0.559   1.212
  630SOL     OW 1915   2.051   0.520   1.722
  630SOL    HW1 1916   2.110   0.480   1.652
  630SOL    HW2 1917   1.993   0.591   1.681
  631SOL     OW 1918   2.677   0.572   0.325
  631SOL    HW1 1919   2.684   0.483   0.279
  631SOL    HW2 1920   2.583   0.606   0.317
  632SOL     OW 1921   2.114   1.564   1.744
  632SOL    HW1 1922   2.084   1.621   1.820
  632SOL    HW2 1923   2.107   1.467   1.770
  633SOL     OW 1924   2.533   0.464   1.269
  633SOL    HW1 1925   2.499   0.375   1.239
  633SOL    HW2 1926   2.559   0.518   1.189
  634SOL     OW 1927   2.792   1.678   1.465
  634SOL    HW1 1928   2.768   1.660   1.370
  634SOL    HW2 1929   2.822   1.772   1.475
  635SOL     OW 1930   2.335   0.500   0.191
  635SOL    HW1 1931   2.396   0.580   0.195
  635SOL    HW2 1932   2.240   0.531   0.198
  636SOL     OW 1933   2.021   1.137   1.466
  636SOL    HW1 1934   2.043   1.076   1.542
  636SOL    HW2 1935   2.031   1.088   1.380
  637SOL     OW 1936   3.164   0.855   0.309
  637SOL    HW1 1937   3.078   0.824   0.351
  637SOL    HW2 1938   3.160   0.841   0.210
  638SOL     OW 1939   1.945   1.258   1.022
  638SOL    HW1 1940   1.940   1.257   1.122
  638SOL    HW2 1941   1.862   1.217   0.984
  639SOL     OW 1942   2.550   1.662   1.716
  639SOL    HW1 1943   2.494   1.743   1.725
  639SOL    HW2 1944   2.602   1.666   1.630
  640SOL     OW 1945   2.765   0.086   0.133
  640SOL    HW1 1946   2.816   0.087   0.047
  640SOL    HW2 1947   2.821   0.044   0.204
  641SOL     OW 1948   1.992   1.794   1.851
  641SOL    HW1 1949   1.951   1.720   1.904
  641SOL    HW2 1950   2.056   1.845   1.909
  642SOL     OW 1951   2.692   1.273   1.422
  642SOL    HW1 1952   2.687   1.306   1.517
  642SOL    HW2 1953   2.606   1.292   1.376
  643SOL     OW 1954   2.534   1.616   0.154
  643SOL    HW1 1955   2.543   1.626   0.055
  643SOL    HW2 1956   2.494   1.527   0.175
  644SOL     OW 1957   2.125   0.326   0.720
  644SOL    HW1 1958   2.046   0.377   0.686
  644SOL    HW2 1959   2.116   0.311   0.818
  645SOL     OW 1960   2.684   1.002   1.372
  645SOL    HW1 1961   2.724   1.001   1.280
  645SOL    HW2 1962   2.694   1.094   1.412
  646SOL     OW 1963   2.778   0.910   0.291
  646SOL    HW1 1964   2.841   0.948   0.223
  646SOL    HW2 1965   2.818   0.827   0.330
  647SOL     OW 1966   2.234   1.288   1.490
  647SOL    HW1 1967   2.221   1.381   1.456
  647SOL    HW2 1968   2.150   1.236   1.477
  648SOL     OW 1969   2.901   1.098   0.696
  648SOL    HW1 1970   2.831   1.051   0.750
  648SOL    HW2 1971   2.960   1.030   0.653
  649SOL     OW 1972   2.876   0.236   0.971
  649SOL    HW1 1973   2.868   0.200   0.878
  649SOL    HW2 1974   2.874   0.160   1.036
  650SOL     OW 1975   2.452   1.487   0.491
  650SOL    HW1 1976   2.494   1.429   0.421
  650SOL    HW2 1977   2.408   1.566   0.447
  651SOL     OW 1978   2.117   1.348   0.290
  651SOL    HW1 1979   2.021   1.349   0.263
  651SOL    HW2 1980   2.129   1.401   0.374
  652SOL     OW 1981   1.967   1.013   1.726
  652SOL    HW1 1982   1.890   0.980   1.780
  652SOL    HW2 1983   2.052   0.983   1.768
  653SOL     OW 1984   2.534   0.203   1.489
  653SOL    HW1 1985   2.624   0.187   1.449
  653SOL    HW2 1986   2.542   0.208   1.588
  654SOL     OW 1987   1.934   0.166   0.318
  654SOL    HW1 1988   1.917   0.249   0.264
  654SOL    HW2 1989   2.024   0.129   0.296
  655SOL     OW 1990   2.475   0.842   1.431
  655SOL    HW1 1991   2.531   0.923   1.414
  655SOL    HW2 1992   2.534   0.762   1.434
  656SOL     OW 1993   2.578   0.565   1.708
  656SOL    HW1 1994   2.597   0.630   1.782
  656SOL    HW2 1995   2.638   0.485   1.717
  657SOL     OW 1996   2.252   1.741   1.560
  657SOL    HW1 1997   2.161   1.782   1.558
  657SOL    HW2 1998   2.245   1.647   1.592
  658SOL     OW 1999   2.456   0.745   0.652
  658SOL    HW1 2000   2.506   0.830   0.633
  658SOL    HW2 2001   2.368   0.747   0.604
  659SOL     OW 2002   2.721   1.374   0.016
  659SOL    HW1 2003   2.675   1.389   0.104
  659SOL    HW2 2004   2.765   1.459  -0.014
  660SOL     OW 2005   2.523   1.790   0.953
  660SOL    HW1 2006   2.477   1.878   0.940
  660SOL    HW2 2007   2.622   1.802   0.946
  661SOL     OW 2008   2.721   0.956   0.861
  661SOL    HW1 2009   2.775   0.887   0.909
  661SOL    HW2 2010   2.689   1.025   0.927
  662SOL     OW 2011   2.945   0.984   0.087
  662SOL    HW1 2012   2.922   1.037   0.005
  662SOL    HW2 2013   3.026   0.928   0.068
  663SOL     OW 2014   2.083   1.314   1.844
  663SOL    HW1 2015   2.018   1.241   1.823
  663SOL    HW2 2016   2.087   1.328   1.942
  664SOL     OW 2017   1.941   1.240   0.653
  664SOL    HW1 2018   1.940   1.193   0.741
  664SOL    HW2 2019   2.023   1.212   0.602
  665SOL     OW 2020   2.534   1.391   1.624
  665SOL    HW1 2021   2.456   1.341   1.662
  665SOL    HW2 2022   2.531   1.486   1.655
  666SOL     OW 2023   2.290   0.424   0.520
  666SOL    HW1 2024   2.320   0.352   0.458
  666SOL    HW2 2025   2.251   0.384   0.603
  667SOL     OW 2026   2.179   0.547   1.280
  667SOL    HW1 2027   2.217   0.488   1.352
  667SOL    HW2 2028   2.219   0.521   1.192
  668SOL     OW 2029   2.674   1.586   0.687
  668SOL    HW1 2030   2.706   1.596   0.593
  668SOL    HW2 2031   2.595   1.524   0.689
  669SOL     OW 2032   2.863   0.034   1.154
  669SOL    HW1 2033   2.800  -0.038   1.123
  669SOL    HW2 2034   2.956  -0.002   1.154
  670SOL     OW 2035   2.632   1.330   0.301
  670SOL    HW1 2036   2.586   1.243   0.318
  670SOL    HW2 2037   2.723   1.327   0.342
  671SOL     OW 2038   2.480   1.567   1.284
  671SOL    HW1 2039   2.475   1.649   1.341
  671SOL    HW2 2040   2.569   1.564   1.239
  672SOL     OW 2041   1.901   1.077   0.300
  672SOL    HW1 2042   2.000   1.066   0.291
  672SOL    HW2 2043   1.861   0.991   0.332
  673SOL     OW 2044   2.737   1.646   0.337
  673SOL    HW1 2045   2.660   1.611   0.283
  673SOL    HW2 2046   2.705   1.717   0.399
  674SOL     OW 2047   2.092   0.628   1.975
  674SOL    HW1 2048   1.999   0.626   2.012
  674SOL    HW2 2049   2.093   0.589   1.883
  675SOL     OW 2050   2.087   0.275   2.858
  675SOL    HW1 2051   2.122   0.258   2.950
  675SOL    HW2 2052   1.999   0.230   2.846
  676SOL     OW 2053   1.881   0.368   2.509
  676SOL    HW1 2054   1.799   0.411   2.548
  676SOL    HW2 2055   1.853   0.295   2.446
  677SOL     OW 2056   2.630   1.144   2.885
  677SOL    HW1 2057   2.552   1.161   2.945
  677SOL    HW2 2058   2.664   1.231   2.849
  678SOL     OW 2059   2.547   1.012   2.527
  678SOL    HW1 2060   2.616   0.996   2.597
  678SOL    HW2 2061   2.474   1.069   2.565
  679SOL     OW 2062   2.197   1.435   2.923
  679SOL    HW1 2063   2.119   1.404   2.870
  679SOL    HW2 2064   2.255   1.493   2.866
  680SOL     OW 2065   2.093   1.713   2.345
  680SOL    HW1 2066   2.127   1.790   2.399
  680SOL    HW2 2067   2.137   1.713   2.255
  681SOL     OW 2068   2.092   1.434   2.400
  681SOL    HW1 2069   2.066   1.530   2.400
  681SOL    HW2 2070   2.021   1.380   2.445
  682SOL     OW 2071   2.102   1.091   2.748
  682SOL    HW1 2072   2.116   1.007   2.800
  682SOL    HW2 2073   2.047   1.155   2.803
  683SOL     OW 2074   2.468   0.964   1.985
  683SOL    HW1 2075   2.475   1.048   1.931
  683SOL    HW2 2076   2.514   0.977   2.073
  684SOL     OW 2077   1.984   0.643   2.425
  684SOL    HW1 2078   1.939   0.555   2.442
  684SOL    HW2 2079   1.983   0.697   2.509
  685SOL     OW 2080   1.889   1.596   1.979
  685SOL    HW1 2081   1.870   1.500   2.000
  685SOL    HW2 2082   1.856   1.654   2.054
  686SOL     OW 2083   2.475   1.365   2.588
  686SOL    HW1 2084   2.426   1.278   2.597
  686SOL    HW2 2085   2.452   1.408   2.501
  687SOL     OW 2086   2.671   0.004   2.364
  687SOL    HW1 2087   2.711   0.095   2.355
  687SOL    HW2 2088   2.571   0.012   2.370
  688SOL     OW 2089   2.460   0.729   2.132
  688SOL    HW1 2090   2.484   0.798   2.064
  688SOL    HW2 2091   2.382   0.762   2.186
  689SOL     OW 2092   2.903   0.701   2.291
  689SOL    HW1 2093   2.929   0.697   2.387
  689SOL    HW2 2094   2.818   0.650   2.277
  690SOL     OW 2095   1.938   0.811   2.651
  690SOL    HW1 2096   2.037   0.799   2.660
  690SOL    HW2 2097   1.914   0.906   2.672
  691SOL     OW 2098   2.727   0.348   2.057
  691SOL    HW1 2099   2.786   0.411   2.008
  691SOL    HW2 2100   2.746   0.254   2.028
  692SOL     OW 2101   2.412   0.196   2.747
  692SOL    HW1 2102   2.407   0.191   2.847
  692SOL    HW2 2103   2.414   0.292   2.718
  693SOL     OW 2104   2.870   1.456   2.339
  693SOL    HW1 2105   2.824   1.528   2.287
  693SOL    HW2 2106   2.866   1.476   2.437
  694SOL     OW 2107   2.213   1.801   2.715
  694SOL    HW1 2108   2.263   1.715   2.721
  694SOL    HW2 2109   2.278   1.878   2.712
  695SOL     OW 2110   2.183   0.943   2.104
  695SOL    HW1 2111   2.265   0.982   2.062
  695SOL    HW2 2112   2.156   0.861   2.055
  696SOL     OW 2113   2.326   1.743   2.185
  696SOL    HW1 2114   2.359   1.782   2.271
  696SOL    HW2 2115   2.402   1.736   2.120
  697SOL     OW 2116   2.111   1.785   3.103
  697SOL    HW1 2117   2.168   1.720   3.153
  697SOL    HW2 2118   2.095   1.752   3.010
  698SOL     OW 2119   2.802   1.698   2.766
  698SOL    HW1 2120   2.882   1.641   2.787
  698SOL    HW2 2121   2.753   1.658   2.689
  699SOL     OW 2122   2.244   0.700   2.342
  699SOL    HW1 2123   2.289   0.610   2.339
  699SOL    HW2 2124   2.150   0.689   2.375
  700SOL     OW 2125   2.476   0.122   1.979
  700SOL    HW1 2126   2.574   0.100   1.986
  700SOL    HW2 2127   2.445   0.105   1.886
  701SOL     OW 2128   2.665   1.402   2.786
  701SOL    HW1 2129   2.755   1.416   2.744
  701SOL    HW2 2130   2.594   1.404   2.715
  702SOL     OW 2131   2.784   0.503   2.761
  702SOL    HW1 2132   2.759   0.494   2.665
  702SOL    HW2 2133   2.832   0.421   2.792
  703SOL     OW 2134   2.401   0.064   2.374
  703SOL    HW1 2135   2.320   0.065   2.432
  703SOL    HW2 2136   2.404   0.147   2.319
  704SOL     OW 2137   2.159   0.035   2.033
  704SOL    HW1 2138   2.208   0.119   2.012
  704SOL    HW2 2139   2.221  -0.030   2.078
  705SOL     OW 2140   2.797   0.236   2.342
  705SOL    HW1 2141   2.749   0.277   2.264
  705SOL    HW2 2142   2.896   0.234   2.323
  706SOL     OW 2143   3.089   1.570   2.655
  706SOL    HW1 2144   3.110   1.644   2.590
  706SOL    HW2 2145   3.157   1.570   2.728
  707SOL     OW 2146   2.321   1.152   2.603
  707SOL    HW1 2147   2.250   1.125   2.668
  707SOL    HW2 2148   2.295   1.124   2.510
  708SOL     OW 2149   2.894   0.549   1.878
  708SOL    HW1 2150   2.853   0.631   1.839
  708SOL    HW2 2151   2.958   0.575   1.951
  709SOL     OW 2152   2.728   0.454   2.504
  709SOL    HW1 2153   2.696   0.526   2.442
  709SOL    HW2 2154   2.752   0.373   2.451
  710SOL     OW 2155   2.879   0.039   2.615
  710SOL    HW1 2156   2.807   0.044   2.546
  710SOL    HW2 2157   2.855  -0.030   2.684
  711SOL     OW 2158   2.350   1.385   2.036
  711SOL    HW1 2159   2.263   1.370   2.083
  711SOL    HW2 2160   2.333   1.411   1.941
  712SOL     OW 2161   2.389   0.256   2.190
  712SOL    HW1 2162   2.416   0.197   2.115
  712SOL    HW2 2163   2.389   0.351   2.159
  713SOL     OW 2164   2.567   1.050   2.230
  713SOL    HW1 2165   2.553   1.057   2.329
  713SOL    HW2 2166   2.651   0.999   2.212
  714SOL     OW 2167   2.272   0.813   3.113
  714SOL    HW1 2168   2.358   0.825   3.163
  714SOL    HW2 2169   2.230   0.726   3.140
  715SOL     OW 2170   2.229   1.100   2.363
  715SOL    HW1 2171   2.222   1.183   2.307
  715SOL    HW2 2172   2.233   1.020   2.303
  716SOL     OW 2173   2.428   0.537   2.727
  716SOL    HW1 2174   2.440   0.603   2.653
  716SOL    HW2 2175   2.474   0.571   2.810
  717SOL     OW 2176   2.216   1.510   3.191
  717SOL    HW1 2177   2.195   1.466   3.104
  717SOL    HW2 2178   2.313   1.536   3.194
  718SOL     OW 2179   2.435   0.870   2.891
  718SOL    HW1 2180   2.479   0.959   2.882
  718SOL    HW2 2181   2.372   0.870   2.968
  719SOL     OW 2182   3.071   0.525   2.137
  719SOL    HW1 2183   3.084   0.441   2.191
  719SOL    HW2 2184   3.042   0.599   2.197
  720SOL     OW 2185   2.594   0.634   2.926
  720SOL    HW1 2186   2.653   0.608   2.850
  720SOL    HW2 2187   2.566   0.730   2.915
  721SOL     OW 2188   2.169   0.063   2.480
  721SOL    HW1 2189   2.158   0.157   2.513
  721SOL    HW2 2190   2.164   0.000   2.557
  722SOL     OW 2191   2.885   0.766   2.828
  722SOL    HW1 2192   2.900   0.787   2.924
  722SOL    HW2 2193   2.855   0.671   2.819
  723SOL     OW 2194   2.930   1.333   2.711
  723SOL    HW1 2195   2.937   1.249   2.656
  723SOL    HW2 2196   2.992   1.402   2.675
  724SOL     OW 2197   2.181   0.810   2.811
  724SOL    HW1 2198   2.274   0.846   2.816
  724SOL    HW2 2199   2.175   0.725   2.863
  725SOL     OW 2200   2.201   0.509   2.868
  725SOL    HW1 2201   2.149   0.426   2.851
  725SOL    HW2 2202   2.278   0.514   2.804
  726SOL     OW 2203   1.870   1.326   2.062
  726SOL    HW1 2204   1.777   1.347   2.031
  726SOL    HW2 2205   1.880   1.227   2.075
  727SOL     OW 2206   1.950   1.801   2.789
  727SOL    HW1 2207   1.908   1.715   2.762
  727SOL    HW2 2208   2.044   1.804   2.755
  728SOL     OW 2209   2.366   1.568   2.772
  728SOL    HW1 2210   2.432   1.642   2.781
  728SOL    HW2 2211   2.410   1.489   2.730
  729SOL     OW 2212   2.864   0.796   3.100
  729SOL    HW1 2213   2.905   0.764   3.186
  729SOL    HW2 2214   2.768   0.769   3.097
  730SOL     OW 2215   1.902   0.544   2.976
  730SOL    HW1 2216   1.987   0.511   2.935
  730SOL    HW2 2217   1.915   0.559   3.074
  731SOL     OW 2218   2.677   0.572   2.187
  731SOL    HW1 2219   2.684   0.483   2.141
  731SOL    HW2 2220   2.583   0.606   2.179
  732SOL     OW 2221   2.533   0.464   3.131
  732SOL    HW1 2222   2.499   0.375   3.101
  732SOL    HW2 2223   2.559   0.518   3.051
  733SOL     OW 2224   2.335   0.500   2.053
  733SOL    HW1 2225   2.396   0.580   2.057
  733SOL    HW2 2226   2.240   0.531   2.060
  734SOL     OW 2227   3.164   0.855   2.171
  734SOL    HW1 2228   3.078   0.824   2.213
  734SOL    HW2 2229   3.160   0.841   2.072
  735SOL     OW 2230   1.945   1.258   2.884
  735SOL    HW1 2231   1.940   1.257   2.984
  735SOL    HW2 2232   1.862   1.217   2.846
  736SOL     OW 2233   2.534   1.616   2.016
  736SOL    HW1 2234   2.543   1.626   1.917
  736SOL    HW2 2235   2.494   1.527   2.037
  737SOL     OW 2236   2.125   0.326   2.582
  737SOL    HW1 2237   2.046   0.377   2.548
  737SOL    HW2 2238   2.116   0.311   2.680
  738SOL     OW 2239   2.778   0.910   2.153
  738SOL    HW1 2240   2.841   0.948   2.085
  738SOL    HW2 2241   2.818   0.827   2.192
  739SOL     OW 2242   2.901   1.098   2.558
  739SOL    HW1 2243   2.831   1.051   2.612
  739SOL    HW2 2244   2.960   1.030   2.515
  740SOL     OW 2245   2.876   0.236   2.833
  740SOL    HW1 2246   2.868   0.200   2.740
  740SOL    HW2 2247   2.874   0.160   2.898
  741SOL     OW 2248   2.452   1.487   2.353
  741SOL    HW1 2249   2.494   1.429   2.283
  741SOL    HW2 2250   2.408   1.566   2.309
  742SOL     OW 2251   2.117   1.348   2.152
  742SOL    HW1 2252   2.021   1.349   2.125
  742SOL    HW2 2253   2.129   1.401   2.236
  743SOL     OW 2254   1.937   0.345   1.895
  743SOL    HW1 2255   1.845   0.317   1.866
  743SOL    HW2 2256   1.968   0.422   1.839
  744SOL     OW 2257   1.934   0.166   2.180
  744SOL    HW1 2258   1.917   0.249   2.126
  744SOL    HW2 2259   2.024   0.129   2.158
  745SOL     OW 2260   2.456   0.745   2.514
  745SOL    HW1 2261   2.506   0.830   2.495
  745SOL    HW2 2262   2.368   0.747   2.466
  746SOL     OW 2263   2.721   1.374   1.878
  746SOL    HW1 2264   2.675   1.389   1.966
  746SOL    HW2 2265   2.765   1.459   1.848
  747SOL     OW 2266   2.523   1.790   2.815
  747SOL    HW1 2267   2.477   1.878   2.802
  747SOL    HW2 2268   2.622   1.802   2.808
  748SOL     OW 2269   2.721   0.956   2.723
  748SOL    HW1 2270   2.775   0.887   2.771
  748SOL    HW2 2271   2.689   1.025   2.789
  749SOL     OW 2272   2.945   0.984   1.949
  749SOL    HW1 2273   2.922   1.037   1.867
  749SOL    HW2 2274   3.026   0.928   1.930
  750SOL     OW 2275   1.941   1.240   2.515
  750SOL    HW1 2276   1.940   1.193   2.603
  750SOL    HW2 2277   2.023   1.212   2.464
  751SOL     OW 2278   2.290   0.424   2.382
  751SOL    HW1 2279   2.320   0.352   2.320
  751SOL    HW2 2280   2.251   0.384   2.465
  752SOL     OW 2281   2.674   1.586   2.549
  752SOL    HW1 2282   2.706   1.596   2.455
  752SOL    HW2 2283   2.595   1.524   2.551
  753SOL     OW 2284   2.632   1.330   2.163
  753SOL    HW1 2285   2.586   1.243   2.180
  753SOL    HW2 2286   2.723   1.327   2.204
  754SOL     OW 2287   1.901   1.077   2.162
  754SOL    HW1 2288   2.000   1.066   2.153
  754SOL    HW2 2289   1.861   0.991   2.194
  755SOL     OW 2290   2.737   1.646   2.199
  755SOL    HW1 2291   2.660   1.611   2.145
  755SOL    HW2 2292   2.705   1.717   2.261
  756SOL     OW 2293   2.092   2.490   0.113
  756SOL    HW1 2294   1.999   2.488   0.150
  756SOL    HW2 2295   2.093   2.451   0.021
  757SOL     OW 2296   2.087   2.137   0.996
  757SOL    HW1 2297   2.122   2.120   1.088
  757SOL    HW2 2298   1.999   2.092   0.984
  758SOL     OW 2299   1.881   2.230   0.647
  758SOL    HW1 2300   1.799   2.273   0.686
  758SOL    HW2 2301   1.853   2.157   0.584
  759SOL     OW 2302   2.630   3.006   1.023
  759SOL    HW1 2303   2.552   3.023   1.083
  759SOL    HW2 2304   2.664   3.093   0.987
  760SOL     OW 2305   2.712   2.660   1.823
  760SOL    HW1 2306   2.708   2.736   1.888
  760SOL    HW2 2307   2.734   2.696   1.732
  761SOL     OW 2308   2.547   2.874   0.665
  761SOL    HW1 2309   2.616   2.858   0.735
  761SOL    HW2 2310   2.474   2.931   0.703
  762SOL     OW 2311   2.300   2.254   1.499
  762SOL    HW1 2312   2.382   2.198   1.508
  762SOL    HW2 2313   2.219   2.196   1.503
  763SOL     OW 2314   2.092   3.296   0.538
  763SOL    HW1 2315   2.066   3.392   0.538
  763SOL    HW2 2316   2.021   3.242   0.583
  764SOL     OW 2317   2.102   2.953   0.886
  764SOL    HW1 2318   2.116   2.869   0.938
  764SOL    HW2 2319   2.047   3.017   0.941
  765SOL     OW 2320   2.468   2.826   0.123
  765SOL    HW1 2321   2.475   2.910   0.069
  765SOL    HW2 2322   2.514   2.839   0.211
  766SOL     OW 2323   1.984   2.505   0.563
  766SOL    HW1 2324   1.939   2.417   0.580
  766SOL    HW2 2325   1.983   2.559   0.647
  767SOL     OW 2326   1.975   2.599   1.597
  767SOL    HW1 2327   2.063   2.586   1.642
  767SOL    HW2 2328   1.962   2.696   1.575
  768SOL     OW 2329   2.671   1.866   0.502
  768SOL    HW1 2330   2.711   1.957   0.493
  768SOL    HW2 2331   2.571   1.874   0.508
  769SOL     OW 2332   2.059   2.838   1.264
  769SOL    HW1 2333   2.148   2.793   1.250
  769SOL    HW2 2334   1.986   2.773   1.245
  770SOL     OW 2335   2.179   2.113   1.801
  770SOL    HW1 2336   2.250   2.184   1.807
  770SOL    HW2 2337   2.091   2.152   1.829
  771SOL     OW 2338   2.460   2.591   0.270
  771SOL    HW1 2339   2.484   2.660   0.202
  771SOL    HW2 2340   2.382   2.624   0.324
  772SOL     OW 2341   2.669   2.467   1.465
  772SOL    HW1 2342   2.622   2.464   1.554
  772SOL    HW2 2343   2.618   2.412   1.399
  773SOL     OW 2344   2.835   2.752   1.572
  773SOL    HW1 2345   2.881   2.668   1.543
  773SOL    HW2 2346   2.779   2.786   1.497
  774SOL     OW 2347   2.853   2.272   1.242
  774SOL    HW1 2348   2.776   2.306   1.296
  774SOL    HW2 2349   2.819   2.221   1.163
  775SOL     OW 2350   2.903   2.563   0.429
  775SOL    HW1 2351   2.929   2.559   0.525
  775SOL    HW2 2352   2.818   2.512   0.415
  776SOL     OW 2353   1.938   2.673   0.789
  776SOL    HW1 2354   2.037   2.661   0.798
  776SOL    HW2 2355   1.914   2.768   0.810
  777SOL     OW 2356   2.727   2.210   0.195
  777SOL    HW1 2357   2.786   2.273   0.146
  777SOL    HW2 2358   2.746   2.116   0.166
  778SOL     OW 2359   2.412   2.058   0.885
  778SOL    HW1 2360   2.407   2.053   0.985
  778SOL    HW2 2361   2.414   2.154   0.856
  779SOL     OW 2362   2.183   2.805   0.242
  779SOL    HW1 2363   2.265   2.844   0.200
  779SOL    HW2 2364   2.156   2.723   0.193
  780SOL     OW 2365   2.064   2.147   1.498
  780SOL    HW1 2366   1.984   2.207   1.485
  780SOL    HW2 2367   2.054   2.098   1.584
  781SOL     OW 2368   2.244   2.562   0.480
  781SOL    HW1 2369   2.289   2.472   0.477
  781SOL    HW2 2370   2.150   2.551   0.513
  782SOL     OW 2371   2.476   1.984   0.117
  782SOL    HW1 2372   2.574   1.962   0.124
  782SOL    HW2 2373   2.445   1.967   0.024
  783SOL     OW 2374   2.643   2.126   1.749
  783SOL    HW1 2375   2.710   2.065   1.792
  783SOL    HW2 2376   2.570   2.145   1.814
  784SOL     OW 2377   2.784   2.365   0.899
  784SOL    HW1 2378   2.759   2.356   0.803
  784SOL    HW2 2379   2.832   2.283   0.930
  785SOL     OW 2380   2.401   1.926   0.512
  785SOL    HW1 2381   2.320   1.927   0.570
  785SOL    HW2 2382   2.404   2.009   0.457
  786SOL     OW 2383   2.797   2.098   0.480
  786SOL    HW1 2384   2.749   2.139   0.402
  786SOL    HW2 2385   2.896   2.096   0.461
  787SOL     OW 2386   2.894   2.411   0.016
  787SOL    HW1 2387   2.853   2.493  -0.023
  787SOL    HW2 2388   2.958   2.437   0.089
  788SOL     OW 2389   1.940   2.418   1.386
  788SOL    HW1 2390   2.032   2.417   1.345
  788SOL    HW2 2391   1.934   2.492   1.453
  789SOL     OW 2392   2.423   2.084   1.147
  789SOL    HW1 2393   2.461   2.000   1.184
  789SOL    HW2 2394   2.335   2.103   1.191
  790SOL     OW 2395   2.728   2.316   0.642
  790SOL    HW1 2396   2.696   2.388   0.580
  790SOL    HW2 2397   2.752   2.235   0.589
  791SOL     OW 2398   2.879   1.901   0.753
  791SOL    HW1 2399   2.807   1.906   0.684
  791SOL    HW2 2400   2.855   1.832   0.822
  792SOL     OW 2401   2.389   2.118   0.328
  792SOL    HW1 2402   2.416   2.059   0.253
  792SOL    HW2 2403   2.389   2.213   0.297
  793SOL     OW 2404   2.777   1.951   1.402
  793SOL    HW1 2405   2.802   1.931   1.307
  793SOL    HW2 2406   2.849   2.007   1.444
  794SOL     OW 2407   2.272   2.675   1.251
  794SOL    HW1 2408   2.358   2.687   1.301
  794SOL    HW2 2409   2.230   2.588   1.278
  795SOL     OW 2410   2.229   2.962   0.501
  795SOL    HW1 2411   2.222   3.045   0.445
  795SOL    HW2 2412   2.233   2.882   0.441
  796SOL     OW 2413   2.428   2.399   0.865
  796SOL    HW1 2414   2.440   2.465   0.791
  796SOL    HW2 2415   2.474   2.433   0.948
  797SOL     OW 2416   2.264   2.613   1.598
  797SOL    HW1 2417   2.332   2.668   1.551
  797SOL    HW2 2418   2.304   2.525   1.625
  798SOL     OW 2419   2.875   1.967   1.770
  798SOL    HW1 2420   2.881   2.052   1.718
  798SOL    HW2 2421   2.907   1.891   1.713
  799SOL     OW 2422   2.366   1.912   1.740
  799SOL    HW1 2423   2.324   1.855   1.670
  799SOL    HW2 2424   2.300   1.981   1.772
  800SOL     OW 2425   2.435   2.732   1.029
  800SOL    HW1 2426   2.479   2.821   1.020
  800SOL    HW2 2427   2.372   2.732   1.106
  801SOL     OW 2428   3.071   2.387   0.275
  801SOL    HW1 2429   3.084   2.303   0.329
  801SOL    HW2 2430   3.042   2.461   0.335
  802SOL     OW 2431   2.169   2.075   1.231
  802SOL    HW1 2432   2.146   2.112   1.321
  802SOL    HW2 2433   2.139   1.980   1.225
  803SOL     OW 2434   2.594   2.496   1.064
  803SOL    HW1 2435   2.653   2.470   0.988
  803SOL    HW2 2436   2.566   2.592   1.053
  804SOL     OW 2437   2.169   1.925   0.618
  804SOL    HW1 2438   2.158   2.019   0.651
  804SOL    HW2 2439   2.164   1.862   0.695
  805SOL     OW 2440   2.885   2.628   0.966
  805SOL    HW1 2441   2.900   2.649   1.062
  805SOL    HW2 2442   2.855   2.533   0.957
  806SOL     OW 2443   2.212   2.760   1.804
  806SOL    HW1 2444   2.288   2.804   1.852
  806SOL    HW2 2445   2.247   2.713   1.722
  807SOL     OW 2446   2.181   2.672   0.949
  807SOL    HW1 2447   2.274   2.708   0.954
  807SOL    HW2 2448   2.175   2.587   1.001
  808SOL     OW 2449   2.201   2.371   1.006
  808SOL    HW1 2450   2.149   2.288   0.989
  808SOL    HW2 2451   2.278   2.376   0.942
  809SOL     OW 2452   3.000   2.242   1.678
  809SOL    HW1 2453   2.955   2.305   1.742
  809SOL    HW2 2454   3.093   2.273   1.661
  810SOL     OW 2455   3.022   2.069   1.477
  810SOL    HW1 2456   3.022   2.133   1.554
  810SOL    HW2 2457   3.050   2.117   1.394
  811SOL     OW 2458   2.864   2.658   1.238
  811SOL    HW1 2459   2.905   2.626   1.324
  811SOL    HW2 2460   2.768   2.631   1.235
  812SOL     OW 2461   1.902   2.406   1.114
  812SOL    HW1 2462   1.987   2.373   1.073
  812SOL    HW2 2463   1.915   2.421   1.212
  813SOL     OW 2464   2.051   2.382   1.722
  813SOL    HW1 2465   2.110   2.342   1.652
  813SOL    HW2 2466   1.993   2.453   1.681
  814SOL     OW 2467   2.677   2.434   0.325
  814SOL    HW1 2468   2.684   2.345   0.279
  814SOL    HW2 2469   2.583   2.468   0.317
  815SOL     OW 2470   2.533   2.326   1.269
  815SOL    HW1 2471   2.499   2.237   1.239
  815SOL    HW2 2472   2.559   2.380   1.189
  816SOL     OW 2473   2.335   2.362   0.191
  816SOL    HW1 2474   2.396   2.442   0.195
  816SOL    HW2 2475   2.240   2.393   0.198
  817SOL     OW 2476   2.021   2.999   1.466
  817SOL    HW1 2477   2.043   2.938   1.542
  817SOL    HW2 2478   2.031   2.950   1.380
  818SOL     OW 2479   3.164   2.717   0.309
  818SOL    HW1 2480   3.078   2.686   0.351
  818SOL    HW2 2481   3.160   2.703   0.210
  819SOL     OW 2482   2.765   1.948   0.133
  819SOL    HW1 2483   2.816   1.949   0.047
  819SOL    HW2 2484   2.821   1.906   0.204
  820SOL     OW 2485   2.125   2.188   0.720
  820SOL    HW1 2486   2.046   2.239   0.686
  820SOL    HW2 2487   2.116   2.173   0.818
  821SOL     OW 2488   2.684   2.864   1.372
  821SOL    HW1 2489   2.724   2.863   1.280
  821SOL    HW2 2490   2.694   2.956   1.412
  822SOL     OW 2491   2.778   2.772   0.291
  822SOL    HW1 2492   2.841   2.810   0.223
  822SOL    HW2 2493   2.818   2.689   0.330
  823SOL     OW 2494   2.876   2.098   0.971
  823SOL    HW1 2495   2.868   2.062   0.878
  823SOL    HW2 2496   2.874   2.022   1.036
  824SOL     OW 2497   1.967   2.875   1.726
  824SOL    HW1 2498   1.890   2.842   1.780
  824SOL    HW2 2499   2.052   2.845   1.768
  825SOL     OW 2500   2.534   2.065   1.489
  825SOL    HW1 2501   2.624   2.049   1.449
  825SOL    HW2 2502   2.542   2.070   1.588
  826SOL     OW 2503   1.934   2.028   0.318
  826SOL    HW1 2504   1.917   2.111   0.264
  826SOL    HW2 2505   2.024   1.991   0.296
  827SOL     OW 2506   2.475   2.704   1.431
  827SOL    HW1 2507   2.531   2.785   1.414
  827SOL    HW2 2508   2.534   2.624   1.434
  828SOL     OW 2509   2.578   2.427   1.708
  828SOL    HW1 2510   2.597   2.492   1.782
  828SOL    HW2 2511   2.638   2.347   1.717
  829SOL     OW 2512   2.456   2.607   0.652
  829SOL    HW1 2513   2.506   2.692   0.633
  829SOL    HW2 2514   2.368   2.609   0.604
  830SOL     OW 2515   2.721   2.818   0.861
  830SOL    HW1 2516   2.775   2.749   0.909
  830SOL    HW2 2517   2.689   2.887   0.927
  831SOL     OW 2518   2.945   2.846   0.087
  831SOL    HW1 2519   2.922   2.899   0.005
  831SOL    HW2 2520   3.026   2.790   0.068
  832SOL     OW 2521   2.290   2.286   0.520
  832SOL    HW1 2522   2.320   2.214   0.458
  832SOL    HW2 2523   2.251   2.246   0.603
  833SOL     OW 2524   2.179   2.409   1.280
  833SOL    HW1 2525   2.217   2.350   1.352
  833SOL    HW2 2526   2.219   2.383   1.192
  834SOL     OW 2527   2.863   1.896   1.154
  834SOL    HW1 2528   2.800   1.824   1.123
  834SOL    HW2 2529   2.956   1.860   1.154
  835SOL     OW 2530   1.901   2.939   0.300
  835SOL    HW1 2531   2.000   2.928   0.291
  835SOL    HW2 2532   1.861   2.853   0.332
  836SOL     OW 2533   2.092   2.490   1.975
  836SOL    HW1 2534   1.999   2.488   2.012
  836SOL    HW2 2535   2.093   2.451   1.883
  837SOL     OW 2536   2.087   2.137   2.858
  837SOL    HW1 2537   2.122   2.120   2.950
  837SOL    HW2 2538   1.999   2.092   2.846
  838SOL     OW 2539   1.881   2.230   2.509
  838SOL    HW1 2540   1.799   2.273   2.548
  838SOL    HW2 2541   1.853   2.157   2.446
  839SOL     OW 2542   2.630   3.006   2.885
  839SOL    HW1 2543   2.552   3.023   2.945
  839SOL    HW2 2544   2.664   3.093   2.849
  840SOL     OW 2545   2.547   2.874   2.527
  840SOL    HW1 2546   2.616   2.858   2.597
  840SOL    HW2 2547   2.474   2.931   2.565
  841SOL     OW 2548   2.092   3.296   2.400
  841SOL    HW1 2549   2.066   3.392   2.400
  841SOL    HW2 2550   2.021   3.242   2.445
  842SOL     OW 2551   2.102   2.953   2.748
  842SOL    HW1 2552   2.116   2.869   2.800
  842SOL    HW2 2553   2.047   3.017   2.803
  843SOL     OW 2554   2.468   2.826   1.985
  843SOL    HW1 2555   2.475   2.910   1.931
  843SOL    HW2 2556   2.514   2.839   2.073
  844SOL     OW 2557   1.984   2.505   2.425
  844SOL    HW1 2558   1.939   2.417   2.442
  844SOL    HW2 2559   1.983   2.559   2.509
  845SOL     OW 2560   2.671   1.866   2.364
  845SOL    HW1 2561   2.711   1.957   2.355
  845SOL    HW2 2562   2.571   1.874   2.370
  846SOL     OW 2563   2.460   2.591   2.132
  846SOL    HW1 2564   2.484   2.660   2.064
  846SOL    HW2 2565   2.382   2.624   2.186
  847SOL     OW 2566   2.903   2.563   2.291
  847SOL    HW1 2567   2.929   2.559   2.387
  847SOL    HW2 2568   2.818   2.512   2.277
  848SOL     OW 2569   1.938   2.673   2.651
  848SOL    HW1 2570   2.037   2.661   2.660
  848SOL    HW2 2571   1.914   2.768   2.672
  849SOL     OW 2572   2.727   2.210   2.057
  849SOL    HW1 2573   2.786   2.273   2.008
  849SOL    HW2 2574   2.746   2.116   2.028
  850SOL     OW 2575   2.412   2.058   2.747
  850SOL    HW1 2576   2.407   2.053   2.847
  850SOL    HW2 2577   2.414   2.154   2.718
  851SOL     OW 2578   2.183   2.805   2.104
  851SOL    HW1 2579   2.265   2.844   2.062
  851SOL    HW2 2580   2.156   2.723   2.055
  852SOL     OW 2581   2.244   2.562   2.342
  852SOL    HW1 2582   2.289   2.472   2.339
  852SOL    HW2 2583   2.150   2.551   2.375
  853SOL     OW 2584   2.476   1.984   1.979
  853SOL    HW1 2585   2.574   1.962   1.986
  853SOL    HW2 2586   2.445   1.967   1.886
  854SOL     OW 2587   2.784   2.365   2.761
  854SOL    HW1 2588   2.759   2.356   2.665
  854SOL    HW2 2589   2.832   2.283   2.792
  855SOL     OW 2590   2.401   1.926   2.374
  855SOL    HW1 2591   2.320   1.927   2.432
  855SOL    HW2 2592   2.404   2.009   2.319
  856SOL     OW 2593   2.159   1.897   2.033
  856SOL    HW1 2594   2.208   1.981   2.012
  856SOL    HW2 2595   2.221   1.832   2.078
  857SOL     OW 2596   2.797   2.098   2.342
  857SOL    HW1 2597   2.749   2.139   2.264
  857SOL    HW2 2598   2.896   2.096   2.323
  858SOL     OW 2599   2.894   2.411   1.878
  858SOL    HW1 2600   2.853   2.493   1.839
  858SOL    HW2 2601   2.958   2.437   1.951
  859SOL     OW 2602   2.728   2.316   2.504
  859SOL    HW1 2603   2.696   2.388   2.442
  859SOL    HW2 2604   2.752   2.235   2.451
  860SOL     OW 2605   2.879   1.901   2.615
  860SOL    HW1 2606   2.807   1.906   2.546
  860SOL    HW2 2607   2.855   1.832   2.684
  861SOL     OW 2608   2.389   2.118   2.190
  861SOL    HW1 2609   2.416   2.059   2.115
  861SOL    HW2 2610   2.389   2.213   2.159
  862SOL     OW 2611   2.272   2.675   3.113
  862SOL    HW1 2612   2.358   2.687   3.163
  862SOL    HW2 2613   2.230   2.588   3.140
  863SOL     OW 2614   2.229   2.962   2.363
  863SOL    HW1 2615   2.222   3.045   2.307
  863SOL    HW2 2616   2.233   2.882   2.303
  864SOL     OW 2617   2.428   2.399   2.727
  864SOL    HW1 2618   2.440   2.465   2.653
  864SOL    HW2 2619   2.474   2.433   2.810
  865SOL     OW 2620   2.435   2.732   2.891
  865SOL    HW1 2621   2.479   2.821   2.882
  865SOL    HW2 2622   2.372   2.732   2.968
  866SOL     OW 2623   3.071   2.387   2.137
  866SOL    HW1 2624   3.084   2.303   2.191
  866SOL    HW2 2625   3.042   2.461   2.197
  867SOL     OW 2626   2.169   2.075   3.093
  867SOL    HW1 2627   2.146   2.112   3.183
  867SOL    HW2 2628   2.139   1.980   3.087
  868SOL     OW 2629   2.594   2.496   2.926
  868SOL    HW1 2630   2.653   2.470   2.850
  868SOL    HW2 2631   2.566   2.592   2.915
  869SOL     OW 2632   2.169   1.925   2.480
  869SOL    HW1 2633   2.158   2.019   2.513
  869SOL    HW2 2634   2.164   1.862   2.557
  870SOL     OW 2635   2.885   2.628   2.828
  870SOL    HW1 2636   2.900   2.649   2.924
  870SOL    HW2 2637   2.855   2.533   2.819
  871SOL     OW 2638   2.181   2.672   2.811
  871SOL    HW1 2639   2.274   2.708   2.816
  871SOL    HW2 2640   2.175   2.587   2.863
  872SOL     OW 2641   2.201   2.371   2.868
  872SOL    HW1 2642   2.149   2.288   2.851
  872SOL    HW2 2643   2.278   2.376   2.804
  873SOL     OW 2644   2.864   2.658   3.100
  873SOL    HW1 2645   2.905   2.626   3.186
  873SOL    HW2 2646   2.768   2.631   3.097
  874SOL     OW 2647   1.902   2.406   2.976
  874SOL    HW1 2648   1.987   2.373   2.935
  874SOL    HW2 2649   1.915   2.421   3.074
  875SOL     OW 2650   2.677   2.434   2.187
  875SOL    HW1 2651   2.684   2.345   2.141
  875SOL    HW2 2652   2.583   2.468   2.179
  876SOL     OW 2653   2.533   2.326   3.131
  876SOL    HW1 2654   2.499   2.237   3.101
  876SOL    HW2 2655   2.559   2.380   3.051
  877SOL     OW 2656   2.335   2.362   2.053
  877SOL    HW1 2657   2.396   2.442   2.057
  877SOL    HW2 2658   2.240   2.393   2.060
  878SOL     OW 2659   3.209   2.921   3.096
  878SOL    HW1 2660   3.233   2.858   3.022
  878SOL    HW2 2661   3.119   2.961   3.078
  879SOL     OW 2662   3.164   2.717   2.171
  879SOL    HW1 2663   3.078   2.686   2.213
  879SOL    HW2 2664   3.160   2.703   2.072
  880SOL     OW 2665   2.125   2.188   2.582
  880SOL    HW1 2666   2.046   2.239   2.548
  880SOL    HW2 2667   2.116   2.173   2.680
  881SOL     OW 2668   2.778   2.772   2.153
  881SOL    HW1 2669   2.841   2.810   2.085
  881SOL    HW2 2670   2.818   2.689   2.192
  882SOL     OW 2671   2.876   2.098   2.833
  882SOL    HW1 2672   2.868   2.062   2.740
  882SOL    HW2 2673   2.874   2.022   2.898
  883SOL     OW 2674   1.937   2.207   1.895
  883SOL    HW1 2675   1.845   2.179   1.866
  883SOL    HW2 2676   1.968   2.284   1.839
  884SOL     OW 2677   1.934   2.028   2.180
  884SOL    HW1 2678   1.917   2.111   2.126
  884SOL    HW2 2679   2.024   1.991   2.158
  885SOL     OW 2680   2.456   2.607   2.514
  885SOL    HW1 2681   2.506   2.692   2.495
  885SOL    HW2 2682   2.368   2.609   2.466
  886SOL     OW 2683   2.721   2.818   2.723
  886SOL    HW1 2684   2.775   2.749   2.771
  886SOL    HW2 2685   2.689   2.887   2.789
  887SOL     OW 2686   2.945   2.846   1.949
  887SOL    HW1 2687   2.922   2.899   1.867
  887SOL    HW2 2688   3.026   2.790   1.930
  888SOL     OW 2689   2.290   2.286   2.382
  888SOL    HW1 2690   2.320   2.214   2.320
  888SOL    HW2 2691   2.251   2.246   2.465
  889SOL     OW 2692   1.901   2.939   2.162
  889SOL    HW1 2693   2.000   2.928   2.153
  889SOL    HW2 2694   1.861   2.853   2.194
   3.02678   3.02678   3.02678
