; mobley_6266306_GMX.itp created by acpype (v: 2023.10.27) on Thu May 14 13:52:00 2026

[ atomtypes ]
;name   bond_type     mass     charge   ptype   sigma         epsilon       Amb
 cy       cy          0.00000  0.00000   A     3.39771e-01   4.51035e-01 ; 1.91  0.1078
 n6       n6          0.00000  0.00000   A     3.50765e-01   2.18405e-01 ; 1.97  0.0522
 hc       hc          0.00000  0.00000   A     2.60018e-01   8.70272e-02 ; 1.46  0.0208
 h1       h1          0.00000  0.00000   A     2.42200e-01   8.70272e-02 ; 1.36  0.0208
 hn       hn          0.00000  0.00000   A     1.10650e-01   4.18400e-02 ; 0.62  0.0100

[ moleculetype ]
;name            nrexcl
 mobley_6266306   3

[ atoms ]
;   nr  type  resi  res  atom  cgnr     charge      mass       ; qtot   bond_type
     1   cy     1   MOL    C1    1    -0.122400     12.01000 ; qtot -0.122
     2   cy     1   MOL    C2    2     0.125800     12.01000 ; qtot 0.003
     3   cy     1   MOL    C3    3     0.125800     12.01000 ; qtot 0.129
     4   n6     1   MOL    N1    4    -0.790200     14.01000 ; qtot -0.661
     5   hc     1   MOL    H1    5     0.055200      1.00800 ; qtot -0.606
     6   hc     1   MOL    H2    6     0.055200      1.00800 ; qtot -0.551
     7   h1     1   MOL    H3    7     0.051200      1.00800 ; qtot -0.499
     8   h1     1   MOL    H4    8     0.051200      1.00800 ; qtot -0.448
     9   h1     1   MOL    H5    9     0.051200      1.00800 ; qtot -0.397
    10   h1     1   MOL    H6   10     0.051200      1.00800 ; qtot -0.346
    11   hn     1   MOL    H7   11     0.345800      1.00800 ; qtot 0.000

[ bonds ]
;   ai     aj funct   r             k
     1      2   1    1.5578e-01    1.7898e+05 ;     C1 - C2    
     1      3   1    1.5578e-01    1.7898e+05 ;     C1 - C3    
     1      5   1    1.0947e-01    2.9075e+05 ;     C1 - H1    
     1      6   1    1.0947e-01    2.9075e+05 ;     C1 - H2    
     2      4   1    1.4843e-01    1.9984e+05 ;     C2 - N1    
     2      7   1    1.0946e-01    2.9088e+05 ;     C2 - H3    
     2      8   1    1.0946e-01    2.9088e+05 ;     C2 - H4    
     3      4   1    1.4843e-01    1.9984e+05 ;     C3 - N1    
     3      9   1    1.0946e-01    2.9088e+05 ;     C3 - H5    
     3     10   1    1.0946e-01    2.9088e+05 ;     C3 - H6    
     4     11   1    1.0183e-01    3.8710e+05 ;     N1 - H7    

[ pairs ]
;   ai     aj    funct
     1     11      1 ;     C1 - H7    
     2      9      1 ;     C2 - H5    
     2     10      1 ;     C2 - H6    
     3      7      1 ;     C3 - H3    
     3      8      1 ;     C3 - H4    
     5      4      1 ;     H1 - N1    
     5      7      1 ;     H1 - H3    
     5      8      1 ;     H1 - H4    
     5      9      1 ;     H1 - H5    
     5     10      1 ;     H1 - H6    
     6      4      1 ;     H2 - N1    
     6      7      1 ;     H2 - H3    
     6      8      1 ;     H2 - H4    
     6      9      1 ;     H2 - H5    
     6     10      1 ;     H2 - H6    
     7     11      1 ;     H3 - H7    
     8     11      1 ;     H4 - H7    
     9     11      1 ;     H5 - H7    
    10     11      1 ;     H6 - H7    

[ angles ]
;   ai     aj     ak    funct   theta         cth
     1      2      4      1    8.8580e+01    6.0467e+02 ;     C1 - C2     - N1    
     1      2      7      1    1.1317e+02    3.5179e+02 ;     C1 - C2     - H3    
     1      2      8      1    1.1317e+02    3.5179e+02 ;     C1 - C2     - H4    
     1      3      4      1    8.8580e+01    6.0467e+02 ;     C1 - C3     - N1    
     1      3      9      1    1.1317e+02    3.5179e+02 ;     C1 - C3     - H5    
     1      3     10      1    1.1317e+02    3.5179e+02 ;     C1 - C3     - H6    
     2      1      3      1    8.8440e+01    5.5731e+02 ;     C2 - C1     - C3    
     2      1      5      1    1.1476e+02    3.4936e+02 ;     C2 - C1     - H1    
     2      1      6      1    1.1476e+02    3.4936e+02 ;     C2 - C1     - H2    
     2      4      3      1    9.1110e+01    7.1212e+02 ;     C2 - N1     - C3    
     2      4     11      1    1.1535e+02    4.5263e+02 ;     C2 - N1     - H7    
     3      1      5      1    1.1476e+02    3.4936e+02 ;     C3 - C1     - H1    
     3      1      6      1    1.1476e+02    3.4936e+02 ;     C3 - C1     - H2    
     3      4     11      1    1.1535e+02    4.5263e+02 ;     C3 - N1     - H7    
     4      2      7      1    1.1441e+02    3.8786e+02 ;     N1 - C2     - H3    
     4      2      8      1    1.1441e+02    3.8786e+02 ;     N1 - C2     - H4    
     4      3      9      1    1.1441e+02    3.8786e+02 ;     N1 - C3     - H5    
     4      3     10      1    1.1441e+02    3.8786e+02 ;     N1 - C3     - H6    
     5      1      6      1    1.0897e+02    2.9832e+02 ;     H1 - C1     - H2    
     7      2      8      1    1.0944e+02    2.9765e+02 ;     H3 - C2     - H4    
     9      3     10      1    1.0944e+02    2.9765e+02 ;     H5 - C3     - H6    

[ dihedrals ] ; propers
; for gromacs 4.5 or higher, using funct 9
;    i      j      k      l   func   phase     kd      pn
     1      2      4      3      9     0.00   0.58576   3 ;     C1-    C2-    N1-    C3
     1      2      4     11      9     0.00   0.90793   3 ;     C1-    C2-    N1-    H7
     1      3      4      2      9     0.00   0.58576   3 ;     C1-    C3-    N1-    C2
     1      3      4     11      9     0.00   0.90793   3 ;     C1-    C3-    N1-    H7
     2      1      3      4      9     0.00   0.65084   3 ;     C2-    C1-    C3-    N1
     2      1      3      9      9     0.00   0.65084   3 ;     C2-    C1-    C3-    H5
     2      1      3     10      9     0.00   0.65084   3 ;     C2-    C1-    C3-    H6
     2      4      3      9      9     0.00   0.89956   3 ;     C2-    N1-    C3-    H5
     2      4      3     10      9     0.00   0.89956   3 ;     C2-    N1-    C3-    H6
     3      1      2      4      9     0.00   0.65084   3 ;     C3-    C1-    C2-    N1
     3      1      2      7      9     0.00   0.65084   3 ;     C3-    C1-    C2-    H3
     3      1      2      8      9     0.00   0.65084   3 ;     C3-    C1-    C2-    H4
     3      4      2      7      9     0.00   0.89956   3 ;     C3-    N1-    C2-    H3
     3      4      2      8      9     0.00   0.89956   3 ;     C3-    N1-    C2-    H4
     5      1      2      4      9     0.00   0.65084   3 ;     H1-    C1-    C2-    N1
     5      1      2      7      9     0.00   0.65084   3 ;     H1-    C1-    C2-    H3
     5      1      2      8      9     0.00   0.65084   3 ;     H1-    C1-    C2-    H4
     5      1      3      4      9     0.00   0.65084   3 ;     H1-    C1-    C3-    N1
     5      1      3      9      9     0.00   0.65084   3 ;     H1-    C1-    C3-    H5
     5      1      3     10      9     0.00   0.65084   3 ;     H1-    C1-    C3-    H6
     6      1      2      4      9     0.00   0.65084   3 ;     H2-    C1-    C2-    N1
     6      1      2      7      9     0.00   0.65084   3 ;     H2-    C1-    C2-    H3
     6      1      2      8      9     0.00   0.65084   3 ;     H2-    C1-    C2-    H4
     6      1      3      4      9     0.00   0.65084   3 ;     H2-    C1-    C3-    N1
     6      1      3      9      9     0.00   0.65084   3 ;     H2-    C1-    C3-    H5
     6      1      3     10      9     0.00   0.65084   3 ;     H2-    C1-    C3-    H6
     7      2      4     11      9     0.00   1.25520   3 ;     H3-    C2-    N1-    H7
     8      2      4     11      9     0.00   1.25520   3 ;     H4-    C2-    N1-    H7
     9      3      4     11      9     0.00   1.25520   3 ;     H5-    C3-    N1-    H7
    10      3      4     11      9     0.00   1.25520   3 ;     H6-    C3-    N1-    H7

[ dihedrals ] ; impropers
; treated as propers in GROMACS to use correct AMBER analytical function
;    i      j      k      l   func   phase     kd      pn
     2      3      4     11      4   180.00   4.60240   2 ;     C2-    C3-    N1-    H7
