; mobley_4620651_GMX.itp created by acpype (v: 2023.10.27) on Thu May 14 13:48:11 2026

[ atomtypes ]
;name   bond_type     mass     charge   ptype   sigma         epsilon       Amb
 c        c           0.00000  0.00000   A     3.31521e-01   4.13379e-01 ; 1.86  0.0988
 cx       cx          0.00000  0.00000   A     3.39771e-01   4.51035e-01 ; 1.91  0.1078
 c3       c3          0.00000  0.00000   A     3.39771e-01   4.51035e-01 ; 1.91  0.1078
 o        o           0.00000  0.00000   A     3.04812e-01   6.12119e-01 ; 1.71  0.1463
 os       os          0.00000  0.00000   A     3.15610e-01   3.03758e-01 ; 1.77  0.0726
 hc       hc          0.00000  0.00000   A     2.60018e-01   8.70272e-02 ; 1.46  0.0208
 h1       h1          0.00000  0.00000   A     2.42200e-01   8.70272e-02 ; 1.36  0.0208

[ moleculetype ]
;name            nrexcl
 mobley_4620651   3

[ atoms ]
;   nr  type  resi  res  atom  cgnr     charge      mass       ; qtot   bond_type
     1    c     1   MOL    C1    1     0.661099     12.01000 ; qtot 0.661
     2   cx     1   MOL    C2    2    -0.102400     12.01000 ; qtot 0.559
     3   cx     1   MOL    C3    3    -0.102400     12.01000 ; qtot 0.456
     4   cx     1   MOL    C4    4    -0.201700     12.01000 ; qtot 0.255
     5   c3     1   MOL    C5    5     0.126700     12.01000 ; qtot 0.381
     6    o     1   MOL    O1    6    -0.546000     16.00000 ; qtot -0.165
     7   os     1   MOL    O2    7    -0.436900     16.00000 ; qtot -0.602
     8   hc     1   MOL    H1    8     0.084700      1.00800 ; qtot -0.517
     9   hc     1   MOL    H2    9     0.084700      1.00800 ; qtot -0.432
    10   hc     1   MOL    H3   10     0.084700      1.00800 ; qtot -0.348
    11   hc     1   MOL    H4   11     0.084700      1.00800 ; qtot -0.263
    12   hc     1   MOL    H5   12     0.111700      1.00800 ; qtot -0.151
    13   h1     1   MOL    H6   13     0.050367      1.00800 ; qtot -0.101
    14   h1     1   MOL    H7   14     0.050367      1.00800 ; qtot -0.050
    15   h1     1   MOL    H8   15     0.050367      1.00800 ; qtot -0.000

[ bonds ]
;   ai     aj funct   r             k
     1      4   1    1.5035e-01    2.1132e+05 ;     C1 - C4    
     1      6   1    1.2190e-01    4.9421e+05 ;     C1 - O1    
     1      7   1    1.3621e-01    2.9398e+05 ;     C1 - O2    
     2      3   1    1.5082e-01    2.0825e+05 ;     C2 - C3    
     2      4   1    1.5082e-01    2.0825e+05 ;     C2 - C4    
     2      8   1    1.0865e-01    3.0117e+05 ;     C2 - H1    
     2      9   1    1.0865e-01    3.0117e+05 ;     C2 - H2    
     3      4   1    1.5082e-01    2.0825e+05 ;     C3 - C4    
     3     10   1    1.0865e-01    3.0117e+05 ;     C3 - H3    
     3     11   1    1.0865e-01    3.0117e+05 ;     C3 - H4    
     4     12   1    1.0865e-01    3.0117e+05 ;     C4 - H5    
     5      7   1    1.4273e-01    2.3620e+05 ;     C5 - O2    
     5     13   1    1.0969e-01    2.8804e+05 ;     C5 - H6    
     5     14   1    1.0969e-01    2.8804e+05 ;     C5 - H7    
     5     15   1    1.0969e-01    2.8804e+05 ;     C5 - H8    

[ pairs ]
;   ai     aj    funct
     1      8      1 ;     C1 - H1    
     1      9      1 ;     C1 - H2    
     1     10      1 ;     C1 - H3    
     1     11      1 ;     C1 - H4    
     1     13      1 ;     C1 - H6    
     1     14      1 ;     C1 - H7    
     1     15      1 ;     C1 - H8    
     4      5      1 ;     C4 - C5    
     6      2      1 ;     O1 - C2    
     6      3      1 ;     O1 - C3    
     6      5      1 ;     O1 - C5    
     6     12      1 ;     O1 - H5    
     7      2      1 ;     O2 - C2    
     7      3      1 ;     O2 - C3    
     7     12      1 ;     O2 - H5    
     8     10      1 ;     H1 - H3    
     8     11      1 ;     H1 - H4    
     8     12      1 ;     H1 - H5    
     9     10      1 ;     H2 - H3    
     9     11      1 ;     H2 - H4    
     9     12      1 ;     H2 - H5    
    10     12      1 ;     H3 - H5    
    11     12      1 ;     H4 - H5    

[ angles ]
;   ai     aj     ak    funct   theta         cth
     1      4      2      1    1.1799e+02    4.9915e+02 ;     C1 - C4     - C2    
     1      4      3      1    1.1799e+02    4.9915e+02 ;     C1 - C4     - C3    
     1      4     12      1    1.1663e+02    3.5815e+02 ;     C1 - C4     - H5    
     1      7      5      1    1.1582e+02    7.4835e+02 ;     C1 - O2     - C5    
     2      3      4      1    6.0000e+01    6.9881e+02 ;     C2 - C3     - C4    
     2      3     10      1    1.1769e+02    3.5556e+02 ;     C2 - C3     - H3    
     2      3     11      1    1.1769e+02    3.5556e+02 ;     C2 - C3     - H4    
     2      4      3      1    6.0000e+01    6.9881e+02 ;     C2 - C4     - C3    
     2      4     12      1    1.1769e+02    3.5556e+02 ;     C2 - C4     - H5    
     3      2      4      1    6.0000e+01    6.9881e+02 ;     C3 - C2     - C4    
     3      2      8      1    1.1769e+02    3.5556e+02 ;     C3 - C2     - H1    
     3      2      9      1    1.1769e+02    3.5556e+02 ;     C3 - C2     - H2    
     3      4     12      1    1.1769e+02    3.5556e+02 ;     C3 - C4     - H5    
     4      1      6      1    1.2272e+02    6.4785e+02 ;     C4 - C1     - O1    
     4      1      7      1    1.1167e+02    6.5630e+02 ;     C4 - C1     - O2    
     4      2      8      1    1.1769e+02    3.5556e+02 ;     C4 - C2     - H1    
     4      2      9      1    1.1769e+02    3.5556e+02 ;     C4 - C2     - H2    
     4      3     10      1    1.1769e+02    3.5556e+02 ;     C4 - C3     - H3    
     4      3     11      1    1.1769e+02    3.5556e+02 ;     C4 - C3     - H4    
     6      1      7      1    1.2320e+02    8.4734e+02 ;     O1 - C1     - O2    
     7      5     13      1    1.1034e+02    4.7028e+02 ;     O2 - C5     - H6    
     7      5     14      1    1.1034e+02    4.7028e+02 ;     O2 - C5     - H7    
     7      5     15      1    1.1034e+02    4.7028e+02 ;     O2 - C5     - H8    
     8      2      9      1    1.1443e+02    2.9330e+02 ;     H1 - C2     - H2    
    10      3     11      1    1.1443e+02    2.9330e+02 ;     H3 - C3     - H4    
    13      5     14      1    1.0855e+02    2.9824e+02 ;     H6 - C5     - H7    
    13      5     15      1    1.0855e+02    2.9824e+02 ;     H6 - C5     - H8    
    14      5     15      1    1.0855e+02    2.9824e+02 ;     H7 - C5     - H8    

[ dihedrals ] ; propers
; for gromacs 4.5 or higher, using funct 9
;    i      j      k      l   func   phase     kd      pn
     1      4      2      3      9     0.00   0.65084   3 ;     C1-    C4-    C2-    C3
     1      4      2      8      9     0.00   0.65084   3 ;     C1-    C4-    C2-    H1
     1      4      2      9      9     0.00   0.65084   3 ;     C1-    C4-    C2-    H2
     1      4      3      2      9     0.00   0.65084   3 ;     C1-    C4-    C3-    C2
     1      4      3     10      9     0.00   0.65084   3 ;     C1-    C4-    C3-    H3
     1      4      3     11      9     0.00   0.65084   3 ;     C1-    C4-    C3-    H4
     1      7      5     13      9     0.00   1.60387   3 ;     C1-    O2-    C5-    H6
     1      7      5     14      9     0.00   1.60387   3 ;     C1-    O2-    C5-    H7
     1      7      5     15      9     0.00   1.60387   3 ;     C1-    O2-    C5-    H8
     2      3      4     12      9     0.00   0.65084   3 ;     C2-    C3-    C4-    H5
     2      4      3     10      9     0.00   0.65084   3 ;     C2-    C4-    C3-    H3
     2      4      3     11      9     0.00   0.65084   3 ;     C2-    C4-    C3-    H4
     3      2      4     12      9     0.00   0.65084   3 ;     C3-    C2-    C4-    H5
     3      4      2      8      9     0.00   0.65084   3 ;     C3-    C4-    C2-    H1
     3      4      2      9      9     0.00   0.65084   3 ;     C3-    C4-    C2-    H2
     4      1      7      5      9   180.00  11.29680   2 ;     C4-    C1-    O2-    C5
     4      2      3     10      9     0.00   0.65084   3 ;     C4-    C2-    C3-    H3
     4      2      3     11      9     0.00   0.65084   3 ;     C4-    C2-    C3-    H4
     4      3      2      8      9     0.00   0.65084   3 ;     C4-    C3-    C2-    H1
     4      3      2      9      9     0.00   0.65084   3 ;     C4-    C3-    C2-    H2
     6      1      4      2      9   180.00   0.00000   2 ;     O1-    C1-    C4-    C2
     6      1      4      3      9   180.00   0.00000   2 ;     O1-    C1-    C4-    C3
     6      1      4     12      9   180.00   0.00000   2 ;     O1-    C1-    C4-    H5
     6      1      7      5      9   180.00   5.85760   1 ;     O1-    C1-    O2-    C5
     6      1      7      5      9   180.00  11.29680   2 ;     O1-    C1-    O2-    C5
     7      1      4      2      9   180.00   0.00000   2 ;     O2-    C1-    C4-    C2
     7      1      4      3      9   180.00   0.00000   2 ;     O2-    C1-    C4-    C3
     7      1      4     12      9   180.00   0.00000   2 ;     O2-    C1-    C4-    H5
     8      2      3     10      9     0.00   0.65084   3 ;     H1-    C2-    C3-    H3
     8      2      3     11      9     0.00   0.65084   3 ;     H1-    C2-    C3-    H4
     8      2      4     12      9     0.00   0.65084   3 ;     H1-    C2-    C4-    H5
     9      2      3     10      9     0.00   0.65084   3 ;     H2-    C2-    C3-    H3
     9      2      3     11      9     0.00   0.65084   3 ;     H2-    C2-    C3-    H4
     9      2      4     12      9     0.00   0.65084   3 ;     H2-    C2-    C4-    H5
    10      3      4     12      9     0.00   0.65084   3 ;     H3-    C3-    C4-    H5
    11      3      4     12      9     0.00   0.65084   3 ;     H4-    C3-    C4-    H5

[ dihedrals ] ; impropers
; treated as propers in GROMACS to use correct AMBER analytical function
;    i      j      k      l   func   phase     kd      pn
     7      1      6      4      4   180.00   4.60240   2 ;     O2-    C1-    O1-    C4
