mobley_994483_GMX.gro created by acpype (v: 2023.10.27) on Thu May 14 13:46:28 2026
 1361
    1MOL     C1    1   1.125   1.179   1.149
    1MOL     C2    2   1.238   1.207   1.246
    1MOL    BR1    3   1.409   1.196   1.153
    1MOL     H1    4   1.029   1.184   1.201
    1MOL     H2    5   1.124   1.251   1.067
    1MOL     H3    6   1.134   1.078   1.105
    1MOL     H4    7   1.241   1.133   1.326
    1MOL     H5    8   1.231   1.307   1.288
    2SOL     OW    9   0.230   0.628   0.113
    2SOL    HW1   10   0.137   0.626   0.150
    2SOL    HW2   11   0.231   0.589   0.021
    3SOL     OW   12   0.225   0.275   0.996
    3SOL    HW1   13   0.260   0.258   1.088
    3SOL    HW2   14   0.137   0.230   0.984
    4SOL     OW   15   0.019   0.368   0.647
    4SOL    HW1   16  -0.063   0.411   0.686
    4SOL    HW2   17  -0.009   0.295   0.584
    5SOL     OW   18   0.569   1.275   1.165
    5SOL    HW1   19   0.476   1.268   1.128
    5SOL    HW2   20   0.580   1.364   1.209
    6SOL     OW   21   1.555   1.511   0.703
    6SOL    HW1   22   1.498   1.495   0.784
    6SOL    HW2   23   1.496   1.521   0.623
    7SOL     OW   24   1.135   0.703   0.717
    7SOL    HW1   25   1.192   0.781   0.692
    7SOL    HW2   26   1.075   0.729   0.793
    8SOL     OW   27   1.755   0.607   0.231
    8SOL    HW1   28   1.743   0.594   0.132
    8SOL    HW2   29   1.725   0.526   0.280
    9SOL     OW   30   0.768   1.144   1.023
    9SOL    HW1   31   0.690   1.161   1.083
    9SOL    HW2   32   0.802   1.231   0.987
   10SOL     OW   33   0.850   0.798   1.823
   10SOL    HW1   34   0.846   0.874   1.888
   10SOL    HW2   35   0.872   0.834   1.732
   11SOL     OW   36   0.685   1.012   0.665
   11SOL    HW1   37   0.754   0.996   0.735
   11SOL    HW2   38   0.612   1.069   0.703
   12SOL     OW   39   0.686   1.161   1.803
   12SOL    HW1   40   0.746   1.240   1.817
   12SOL    HW2   41   0.600   1.192   1.762
   13SOL     OW   42   0.335   1.435   1.061
   13SOL    HW1   43   0.257   1.404   1.008
   13SOL    HW2   44   0.393   1.493   1.004
   14SOL     OW   45   1.460   1.505   1.339
   14SOL    HW1   46   1.484   1.599   1.365
   14SOL    HW2   47   1.444   1.451   1.421
   15SOL     OW   48   0.438   0.392   1.499
   15SOL    HW1   49   0.520   0.336   1.508
   15SOL    HW2   50   0.357   0.334   1.503
   16SOL     OW   51   1.603   0.447   0.737
   16SOL    HW1   52   1.529   0.493   0.687
   16SOL    HW2   53   1.654   0.515   0.790
   17SOL     OW   54   0.231   1.713   0.483
   17SOL    HW1   55   0.265   1.790   0.537
   17SOL    HW2   56   0.275   1.713   0.393
   18SOL     OW   57   1.127   1.341   1.690
   18SOL    HW1   58   1.174   1.341   1.778
   18SOL    HW2   59   1.079   1.254   1.679
   19SOL     OW   60   0.230   1.434   0.538
   19SOL    HW1   61   0.204   1.530   0.538
   19SOL    HW2   62   0.159   1.380   0.583
   20SOL     OW   63   0.240   1.091   0.886
   20SOL    HW1   64   0.254   1.007   0.938
   20SOL    HW2   65   0.185   1.155   0.941
   21SOL     OW   66   0.620   1.786   1.439
   21SOL    HW1   67   0.528   1.769   1.474
   21SOL    HW2   68   0.648   1.878   1.465
   22SOL     OW   69   0.606   0.964   0.123
   22SOL    HW1   70   0.613   1.048   0.069
   22SOL    HW2   71   0.652   0.977   0.211
   23SOL     OW   72   1.594   0.114   1.480
   23SOL    HW1   73   1.576   0.181   1.408
   23SOL    HW2   74   1.591   0.160   1.569
   24SOL     OW   75   0.122   0.643   0.563
   24SOL    HW1   76   0.077   0.555   0.580
   24SOL    HW2   77   0.121   0.697   0.647
   25SOL     OW   78   1.842   1.767   0.359
   25SOL    HW1   79   1.896   1.738   0.439
   25SOL    HW2   80   1.872   1.857   0.330
   26SOL     OW   81   0.027   1.596   0.117
   26SOL    HW1   82   0.008   1.500   0.138
   26SOL    HW2   83  -0.006   1.654   0.192
   27SOL     OW   84   1.689   0.922   0.612
   27SOL    HW1   85   1.784   0.893   0.620
   27SOL    HW2   86   1.681   0.987   0.537
   28SOL     OW   87   1.641   1.108   0.432
   28SOL    HW1   88   1.727   1.110   0.380
   28SOL    HW2   89   1.655   1.155   0.520
   29SOL     OW   90   0.113   0.737   1.597
   29SOL    HW1   91   0.201   0.724   1.642
   29SOL    HW2   92   0.100   0.834   1.575
   30SOL     OW   93   0.613   1.365   0.726
   30SOL    HW1   94   0.564   1.278   0.735
   30SOL    HW2   95   0.590   1.408   0.639
   31SOL     OW   96   0.809   0.004   0.502
   31SOL    HW1   97   0.849   0.095   0.493
   31SOL    HW2   98   0.709   0.012   0.508
   32SOL     OW   99   0.197   0.976   1.264
   32SOL    HW1  100   0.286   0.931   1.250
   32SOL    HW2  101   0.124   0.911   1.245
   33SOL     OW  102   1.525   0.999   0.190
   33SOL    HW1  103   1.462   0.923   0.203
   33SOL    HW2  104   1.573   1.017   0.276
   34SOL     OW  105   1.187   1.792   1.616
   34SOL    HW1  106   1.211   1.852   1.540
   34SOL    HW2  107   1.194   1.697   1.586
   35SOL     OW  108   0.317   0.251   1.801
   35SOL    HW1  109   0.388   0.322   1.807
   35SOL    HW2  110   0.229   0.290   1.829
   36SOL     OW  111   1.466   1.417   0.953
   36SOL    HW1  112   1.407   1.423   1.033
   36SOL    HW2  113   1.451   1.329   0.907
   37SOL     OW  114   1.667   1.714   0.572
   37SOL    HW1  115   1.626   1.691   0.484
   37SOL    HW2  116   1.649   1.640   0.637
   38SOL     OW  117   0.598   0.729   0.270
   38SOL    HW1  118   0.622   0.798   0.202
   38SOL    HW2  119   0.520   0.762   0.324
   39SOL     OW  120   1.281   0.345   0.944
   39SOL    HW1  121   1.195   0.295   0.931
   39SOL    HW2  122   1.343   0.291   1.000
   40SOL     OW  123   1.576   1.662   0.307
   40SOL    HW1  124   1.665   1.708   0.310
   40SOL    HW2  125   1.555   1.638   0.212
   41SOL     OW  126   0.807   0.605   1.465
   41SOL    HW1  127   0.760   0.602   1.554
   41SOL    HW2  128   0.756   0.550   1.399
   42SOL     OW  129   1.394   0.469   1.674
   42SOL    HW1  130   1.374   0.512   1.762
   42SOL    HW2  131   1.472   0.407   1.683
   43SOL     OW  132   0.973   0.890   1.572
   43SOL    HW1  133   1.019   0.806   1.543
   43SOL    HW2  134   0.917   0.924   1.497
   44SOL     OW  135   0.991   0.410   1.242
   44SOL    HW1  136   0.914   0.444   1.296
   44SOL    HW2  137   0.957   0.359   1.163
   45SOL     OW  138   1.041   0.701   0.429
   45SOL    HW1  139   1.067   0.697   0.525
   45SOL    HW2  140   0.956   0.650   0.415
   46SOL     OW  141   0.076   0.811   0.789
   46SOL    HW1  142   0.175   0.799   0.798
   46SOL    HW2  143   0.052   0.906   0.810
   47SOL     OW  144   0.130   1.821   1.571
   47SOL    HW1  145   0.120   1.806   1.670
   47SOL    HW2  146   0.044   1.857   1.535
   48SOL     OW  147   0.865   0.348   0.195
   48SOL    HW1  148   0.924   0.411   0.146
   48SOL    HW2  149   0.884   0.254   0.166
   49SOL     OW  150   1.719   0.585   1.831
   49SOL    HW1  151   1.693   0.674   1.795
   49SOL    HW2  152   1.717   0.517   1.758
   50SOL     OW  153   1.362   1.144   0.545
   50SOL    HW1  154   1.445   1.115   0.497
   50SOL    HW2  155   1.313   1.211   0.489
   51SOL     OW  156   0.550   0.196   0.885
   51SOL    HW1  157   0.545   0.191   0.985
   51SOL    HW2  158   0.552   0.292   0.856
   52SOL     OW  159   1.008   1.456   0.477
   52SOL    HW1  160   0.962   1.528   0.425
   52SOL    HW2  161   1.004   1.476   0.575
   53SOL     OW  162   0.351   1.801   0.853
   53SOL    HW1  163   0.401   1.715   0.859
   53SOL    HW2  164   0.416   1.878   0.850
   54SOL     OW  165   1.795   1.066   0.873
   54SOL    HW1  166   1.733   1.051   0.797
   54SOL    HW2  167   1.743   1.077   0.958
   55SOL     OW  168   1.227   1.550   1.506
   55SOL    HW1  169   1.233   1.473   1.570
   55SOL    HW2  170   1.175   1.524   1.426
   56SOL     OW  171   0.321   0.943   0.242
   56SOL    HW1  172   0.403   0.982   0.200
   56SOL    HW2  173   0.294   0.861   0.193
   57SOL     OW  174   1.458   0.735   0.728
   57SOL    HW1  175   1.453   0.670   0.803
   57SOL    HW2  176   1.538   0.794   0.741
   58SOL     OW  177   0.461   1.266   1.727
   58SOL    HW1  178   0.411   1.267   1.641
   58SOL    HW2  179   0.398   1.248   1.803
   59SOL     OW  180   1.111   1.776   0.237
   59SOL    HW1  181   1.051   1.714   0.287
   59SOL    HW2  182   1.142   1.732   0.152
   60SOL     OW  183   0.202   0.285   1.498
   60SOL    HW1  184   0.122   0.345   1.485
   60SOL    HW2  185   0.192   0.236   1.584
   61SOL     OW  186   1.632   1.377   0.081
   61SOL    HW1  187   1.600   1.471   0.071
   61SOL    HW2  188   1.556   1.314   0.069
   62SOL     OW  189   0.464   1.743   0.323
   62SOL    HW1  190   0.497   1.782   0.409
   62SOL    HW2  191   0.540   1.736   0.258
   63SOL     OW  192   1.400   0.107   0.426
   63SOL    HW1  193   1.376   0.070   0.336
   63SOL    HW2  194   1.499   0.123   0.430
   64SOL     OW  195   0.249   1.785   1.241
   64SOL    HW1  196   0.306   1.720   1.291
   64SOL    HW2  197   0.233   1.752   1.148
   65SOL     OW  198   0.940   1.698   0.904
   65SOL    HW1  199   1.020   1.641   0.925
   65SOL    HW2  200   0.891   1.658   0.827
   66SOL     OW  201   0.382   0.700   0.480
   66SOL    HW1  202   0.427   0.610   0.477
   66SOL    HW2  203   0.288   0.689   0.513
   67SOL     OW  204   1.547   0.222   1.729
   67SOL    HW1  205   1.542   0.259   1.821
   67SOL    HW2  206   1.475   0.153   1.717
   68SOL     OW  207   0.614   0.122   0.117
   68SOL    HW1  208   0.712   0.100   0.124
   68SOL    HW2  209   0.583   0.105   0.024
   69SOL     OW  210   0.781   0.264   1.749
   69SOL    HW1  211   0.848   0.203   1.792
   69SOL    HW2  212   0.708   0.283   1.814
   70SOL     OW  213   0.888   1.514   1.195
   70SOL    HW1  214   0.865   1.489   1.101
   70SOL    HW2  215   0.949   1.445   1.234
   71SOL     OW  216   1.351   0.590   1.433
   71SOL    HW1  217   1.379   0.547   1.518
   71SOL    HW2  218   1.376   0.686   1.434
   72SOL     OW  219   0.803   1.402   0.924
   72SOL    HW1  220   0.893   1.416   0.882
   72SOL    HW2  221   0.732   1.404   0.853
   73SOL     OW  222   0.922   0.503   0.899
   73SOL    HW1  223   0.897   0.494   0.803
   73SOL    HW2  224   0.970   0.421   0.930
   74SOL     OW  225   0.539   0.064   0.512
   74SOL    HW1  226   0.458   0.065   0.570
   74SOL    HW2  227   0.542   0.147   0.457
   75SOL     OW  228   1.434   1.188   0.041
   75SOL    HW1  229   1.466   1.112   0.098
   75SOL    HW2  230   1.342   1.215   0.071
   76SOL     OW  231   0.297   0.035   0.171
   76SOL    HW1  232   0.346   0.119   0.150
   76SOL    HW2  233   0.359  -0.030   0.216
   77SOL     OW  234   0.935   0.236   0.480
   77SOL    HW1  235   0.887   0.277   0.402
   77SOL    HW2  236   1.034   0.234   0.461
   78SOL     OW  237   1.076   0.683   1.464
   78SOL    HW1  238   0.996   0.622   1.467
   78SOL    HW2  239   1.157   0.630   1.440
   79SOL     OW  240   1.227   1.570   0.793
   79SOL    HW1  241   1.248   1.644   0.728
   79SOL    HW2  242   1.295   1.570   0.866
   80SOL     OW  243   0.459   1.152   0.741
   80SOL    HW1  244   0.388   1.125   0.806
   80SOL    HW2  245   0.433   1.124   0.648
   81SOL     OW  246   1.271   1.797   0.591
   81SOL    HW1  247   1.315   1.861   0.527
   81SOL    HW2  248   1.221   1.849   0.661
   82SOL     OW  249   1.032   0.549   0.016
   82SOL    HW1  250   0.991   0.631  -0.023
   82SOL    HW2  251   1.096   0.575   0.089
   83SOL     OW  252   0.078   0.556   1.386
   83SOL    HW1  253   0.170   0.555   1.345
   83SOL    HW2  254   0.072   0.630   1.453
   84SOL     OW  255   0.561   0.222   1.147
   84SOL    HW1  256   0.599   0.138   1.184
   84SOL    HW2  257   0.473   0.241   1.191
   85SOL     OW  258   0.866   0.454   0.642
   85SOL    HW1  259   0.834   0.526   0.580
   85SOL    HW2  260   0.890   0.373   0.589
   86SOL     OW  261   1.017   0.039   0.753
   86SOL    HW1  262   0.945   0.044   0.684
   86SOL    HW2  263   0.993  -0.030   0.822
   87SOL     OW  264   1.429   1.173   0.867
   87SOL    HW1  265   1.374   1.089   0.860
   87SOL    HW2  266   1.455   1.202   0.775
   88SOL     OW  267   1.466   0.590   0.992
   88SOL    HW1  268   1.436   0.495   0.999
   88SOL    HW2  269   1.539   0.606   1.058
   89SOL     OW  270   1.857   0.833   0.377
   89SOL    HW1  271   1.899   0.769   0.441
   89SOL    HW2  272   1.819   0.782   0.299
   90SOL     OW  273   0.488   1.385   0.174
   90SOL    HW1  274   0.401   1.370   0.221
   90SOL    HW2  275   0.471   1.411   0.079
   91SOL     OW  276   1.664   1.280   0.657
   91SOL    HW1  277   1.763   1.288   0.671
   91SOL    HW2  278   1.619   1.364   0.688
   92SOL     OW  279   1.390   0.575   0.078
   92SOL    HW1  280   1.336   0.554   0.159
   92SOL    HW2  281   1.481   0.534   0.087
   93SOL     OW  282   0.527   0.256   0.328
   93SOL    HW1  283   0.554   0.197   0.253
   93SOL    HW2  284   0.527   0.351   0.297
   94SOL     OW  285   1.754   1.223   1.588
   94SOL    HW1  286   1.845   1.184   1.575
   94SOL    HW2  287   1.762   1.319   1.612
   95SOL     OW  288   1.592   1.629   1.625
   95SOL    HW1  289   1.619   1.663   1.535
   95SOL    HW2  290   1.671   1.591   1.671
   96SOL     OW  291   1.638   1.099   1.079
   96SOL    HW1  292   1.643   1.180   1.138
   96SOL    HW2  293   1.552   1.101   1.028
   97SOL     OW  294   0.915   0.089   1.402
   97SOL    HW1  295   0.940   0.069   1.307
   97SOL    HW2  296   0.987   0.145   1.444
   98SOL     OW  297   0.980   1.116   1.719
   98SOL    HW1  298   0.881   1.122   1.729
   98SOL    HW2  299   1.003   1.036   1.663
   99SOL     OW  300   0.705   1.050   0.368
   99SOL    HW1  301   0.691   1.057   0.467
   99SOL    HW2  302   0.789   0.999   0.350
  100SOL     OW  303   0.410   0.813   1.251
  100SOL    HW1  304   0.496   0.825   1.301
  100SOL    HW2  305   0.368   0.726   1.278
  101SOL     OW  306   1.274   0.386   1.262
  101SOL    HW1  307   1.295   0.460   1.326
  101SOL    HW2  308   1.185   0.403   1.219
  102SOL     OW  309   0.064   1.564   1.331
  102SOL    HW1  310   0.018   1.646   1.297
  102SOL    HW2  311   0.162   1.583   1.340
  103SOL     OW  312   0.367   1.100   0.501
  103SOL    HW1  313   0.360   1.183   0.445
  103SOL    HW2  314   0.371   1.020   0.441
  104SOL     OW  315   0.566   0.537   0.865
  104SOL    HW1  316   0.578   0.603   0.791
  104SOL    HW2  317   0.612   0.571   0.948
  105SOL     OW  318   1.252   1.348   0.388
  105SOL    HW1  319   1.302   1.425   0.428
  105SOL    HW2  320   1.157   1.350   0.420
  106SOL     OW  321   1.272   1.445   1.142
  106SOL    HW1  322   1.319   1.458   1.229
  106SOL    HW2  323   1.206   1.371   1.151
  107SOL     OW  324   1.582   0.639   0.472
  107SOL    HW1  325   1.551   0.700   0.545
  107SOL    HW2  326   1.632   0.691   0.403
  108SOL     OW  327   0.354   1.510   1.329
  108SOL    HW1  328   0.333   1.466   1.242
  108SOL    HW2  329   0.451   1.536   1.332
  109SOL     OW  330   0.402   0.751   1.598
  109SOL    HW1  331   0.470   0.806   1.551
  109SOL    HW2  332   0.442   0.663   1.625
  110SOL     OW  333   1.587   0.779   1.670
  110SOL    HW1  334   1.495   0.817   1.665
  110SOL    HW2  335   1.647   0.826   1.605
  111SOL     OW  336   1.013   0.105   1.770
  111SOL    HW1  337   1.019   0.190   1.718
  111SOL    HW2  338   1.045   0.029   1.713
  112SOL     OW  339   0.504   0.050   1.740
  112SOL    HW1  340   0.462  -0.007   1.670
  112SOL    HW2  341   0.438   0.119   1.772
  113SOL     OW  342   0.573   0.870   1.029
  113SOL    HW1  343   0.617   0.959   1.020
  113SOL    HW2  344   0.510   0.870   1.106
  114SOL     OW  345   1.360   0.862   1.045
  114SOL    HW1  346   1.285   0.862   0.979
  114SOL    HW2  347   1.397   0.770   1.054
  115SOL     OW  348   1.209   0.525   0.275
  115SOL    HW1  349   1.222   0.441   0.329
  115SOL    HW2  350   1.180   0.599   0.335
  116SOL     OW  351   0.307   0.213   1.231
  116SOL    HW1  352   0.284   0.250   1.321
  116SOL    HW2  353   0.277   0.118   1.225
  117SOL     OW  354   0.037   1.310   1.282
  117SOL    HW1  355   0.090   1.261   1.350
  117SOL    HW2  356   0.059   1.408   1.287
  118SOL     OW  357   0.732   0.634   1.064
  118SOL    HW1  358   0.791   0.608   0.988
  118SOL    HW2  359   0.704   0.730   1.053
  119SOL     OW  360   1.728   0.935   1.854
  119SOL    HW1  361   1.682   0.928   1.765
  119SOL    HW2  362   1.666   0.979   1.920
  120SOL     OW  363   0.307   0.063   0.618
  120SOL    HW1  364   0.296   0.157   0.651
  120SOL    HW2  365   0.302   0.000   0.695
  121SOL     OW  366   1.622   0.367   0.374
  121SOL    HW1  367   1.624   0.291   0.438
  121SOL    HW2  368   1.574   0.444   0.414
  122SOL     OW  369   1.023   0.766   0.966
  122SOL    HW1  370   1.038   0.787   1.062
  122SOL    HW2  371   0.993   0.671   0.957
  123SOL     OW  372   0.980   1.573   1.700
  123SOL    HW1  373   0.960   1.617   1.612
  123SOL    HW2  374   1.019   1.482   1.684
  124SOL     OW  375   1.859   1.518   1.605
  124SOL    HW1  376   1.873   1.545   1.510
  124SOL    HW2  377   1.942   1.540   1.658
  125SOL     OW  378   0.350   0.898   1.804
  125SOL    HW1  379   0.426   0.942   1.852
  125SOL    HW2  380   0.385   0.851   1.722
  126SOL     OW  381   1.540   0.274   0.125
  126SOL    HW1  382   1.479   0.199   0.148
  126SOL    HW2  383   1.562   0.326   0.208
  127SOL     OW  384   1.303   0.838   0.042
  127SOL    HW1  385   1.337   0.745   0.057
  127SOL    HW2  386   1.321   0.865  -0.053
  128SOL     OW  387   1.068   1.333   0.849
  128SOL    HW1  388   1.075   1.249   0.794
  128SOL    HW2  389   1.130   1.402   0.813
  129SOL     OW  390   0.319   0.810   0.949
  129SOL    HW1  391   0.412   0.846   0.954
  129SOL    HW2  392   0.313   0.725   1.001
  130SOL     OW  393   0.339   0.509   1.006
  130SOL    HW1  394   0.287   0.426   0.989
  130SOL    HW2  395   0.416   0.514   0.942
  131SOL     OW  396   1.138   0.380   1.678
  131SOL    HW1  397   1.093   0.443   1.742
  131SOL    HW2  398   1.231   0.411   1.661
  132SOL     OW  399   1.160   0.207   1.477
  132SOL    HW1  400   1.160   0.271   1.554
  132SOL    HW2  401   1.188   0.255   1.394
  133SOL     OW  402   0.008   1.326   0.200
  133SOL    HW1  403  -0.085   1.347   0.169
  133SOL    HW2  404   0.018   1.227   0.213
  134SOL     OW  405   0.088   1.801   0.927
  134SOL    HW1  406   0.046   1.715   0.900
  134SOL    HW2  407   0.182   1.804   0.893
  135SOL     OW  408   0.504   1.568   0.910
  135SOL    HW1  409   0.570   1.642   0.919
  135SOL    HW2  410   0.548   1.489   0.868
  136SOL     OW  411   1.002   0.796   1.238
  136SOL    HW1  412   1.043   0.764   1.324
  136SOL    HW2  413   0.906   0.769   1.235
  137SOL     OW  414   0.040   0.544   1.114
  137SOL    HW1  415   0.125   0.511   1.073
  137SOL    HW2  416   0.053   0.559   1.212
  138SOL     OW  417   0.189   0.520   1.722
  138SOL    HW1  418   0.248   0.480   1.652
  138SOL    HW2  419   0.131   0.591   1.681
  139SOL     OW  420   1.369   0.950   1.660
  139SOL    HW1  421   1.408   1.039   1.680
  139SOL    HW2  422   1.379   0.930   1.563
  140SOL     OW  423   0.815   0.572   0.325
  140SOL    HW1  424   0.822   0.483   0.279
  140SOL    HW2  425   0.721   0.606   0.317
  141SOL     OW  426   1.657   0.604   1.206
  141SOL    HW1  427   1.619   0.535   1.268
  141SOL    HW2  428   1.739   0.568   1.162
  142SOL     OW  429   0.252   1.564   1.744
  142SOL    HW1  430   0.222   1.621   1.820
  142SOL    HW2  431   0.245   1.467   1.770
  143SOL     OW  432   0.671   0.464   1.269
  143SOL    HW1  433   0.637   0.375   1.239
  143SOL    HW2  434   0.697   0.518   1.189
  144SOL     OW  435   0.930   1.678   1.465
  144SOL    HW1  436   0.906   1.660   1.370
  144SOL    HW2  437   0.960   1.772   1.475
  145SOL     OW  438   0.473   0.500   0.191
  145SOL    HW1  439   0.534   0.580   0.195
  145SOL    HW2  440   0.378   0.531   0.198
  146SOL     OW  441   0.159   1.137   1.466
  146SOL    HW1  442   0.181   1.076   1.542
  146SOL    HW2  443   0.169   1.088   1.380
  147SOL     OW  444   1.302   0.855   0.309
  147SOL    HW1  445   1.216   0.824   0.351
  147SOL    HW2  446   1.298   0.841   0.210
  148SOL     OW  447   1.759   1.747   1.154
  148SOL    HW1  448   1.820   1.777   1.081
  148SOL    HW2  449   1.721   1.658   1.132
  149SOL     OW  450   1.252   1.731   1.128
  149SOL    HW1  451   1.336   1.736   1.074
  149SOL    HW2  452   1.229   1.635   1.146
  150SOL     OW  453   0.083   1.258   1.022
  150SOL    HW1  454   0.078   1.257   1.122
  150SOL    HW2  455   0.000   1.217   0.984
  151SOL     OW  456   0.688   1.662   1.716
  151SOL    HW1  457   0.632   1.743   1.725
  151SOL    HW2  458   0.740   1.666   1.630
  152SOL     OW  459   0.903   0.086   0.133
  152SOL    HW1  460   0.954   0.087   0.047
  152SOL    HW2  461   0.959   0.044   0.204
  153SOL     OW  462   1.726   0.135   0.523
  153SOL    HW1  463   1.799   0.118   0.456
  153SOL    HW2  464   1.695   0.048   0.561
  154SOL     OW  465   1.388   1.573   0.477
  154SOL    HW1  466   1.455   1.585   0.403
  154SOL    HW2  467   1.348   1.662   0.500
  155SOL     OW  468   0.130   1.794   1.851
  155SOL    HW1  469   0.089   1.720   1.904
  155SOL    HW2  470   0.194   1.845   1.909
  156SOL     OW  471   1.280   0.927   0.672
  156SOL    HW1  472   1.340   0.846   0.674
  156SOL    HW2  473   1.320   0.996   0.612
  157SOL     OW  474   0.830   1.273   1.422
  157SOL    HW1  475   0.825   1.306   1.517
  157SOL    HW2  476   0.744   1.292   1.376
  158SOL     OW  477   0.672   1.616   0.154
  158SOL    HW1  478   0.681   1.626   0.055
  158SOL    HW2  479   0.632   1.527   0.175
  159SOL     OW  480   1.650   1.720   1.394
  159SOL    HW1  481   1.703   1.730   1.310
  159SOL    HW2  482   1.623   1.810   1.428
  160SOL     OW  483   1.841   0.175   0.963
  160SOL    HW1  484   1.880   0.090   0.927
  160SOL    HW2  485   1.743   0.177   0.944
  161SOL     OW  486   0.263   0.326   0.720
  161SOL    HW1  487   0.184   0.377   0.686
  161SOL    HW2  488   0.254   0.311   0.818
  162SOL     OW  489   1.194   1.612   0.031
  162SOL    HW1  490   1.200   1.519   0.068
  162SOL    HW2  491   1.135   1.612  -0.049
  163SOL     OW  492   0.822   1.002   1.372
  163SOL    HW1  493   0.862   1.001   1.280
  163SOL    HW2  494   0.832   1.094   1.412
  164SOL     OW  495   0.916   0.910   0.291
  164SOL    HW1  496   0.979   0.948   0.223
  164SOL    HW2  497   0.956   0.827   0.330
  165SOL     OW  498   1.504   1.607   0.044
  165SOL    HW1  499   1.412   1.644   0.051
  165SOL    HW2  500   1.542   1.627  -0.046
  166SOL     OW  501   0.372   1.288   1.490
  166SOL    HW1  502   0.359   1.381   1.456
  166SOL    HW2  503   0.288   1.236   1.477
  167SOL     OW  504   1.614   1.292   1.289
  167SOL    HW1  505   1.674   1.295   1.369
  167SOL    HW2  506   1.539   1.356   1.302
  168SOL     OW  507   1.039   1.098   0.696
  168SOL    HW1  508   0.969   1.051   0.750
  168SOL    HW2  509   1.098   1.030   0.653
  169SOL     OW  510   1.014   0.236   0.971
  169SOL    HW1  511   1.006   0.200   0.878
  169SOL    HW2  512   1.012   0.160   1.036
  170SOL     OW  513   0.590   1.487   0.491
  170SOL    HW1  514   0.632   1.429   0.421
  170SOL    HW2  515   0.546   1.566   0.447
  171SOL     OW  516   1.709   0.385   1.381
  171SOL    HW1  517   1.782   0.454   1.385
  171SOL    HW2  518   1.737   0.310   1.322
  172SOL     OW  519   0.255   1.348   0.290
  172SOL    HW1  520   0.159   1.349   0.263
  172SOL    HW2  521   0.267   1.401   0.374
  173SOL     OW  522   0.105   1.013   1.726
  173SOL    HW1  523   0.028   0.980   1.780
  173SOL    HW2  524   0.190   0.983   1.768
  174SOL     OW  525   0.672   0.203   1.489
  174SOL    HW1  526   0.762   0.187   1.449
  174SOL    HW2  527   0.680   0.208   1.588
  175SOL     OW  528   0.075   0.345   0.033
  175SOL    HW1  529  -0.017   0.317   0.004
  175SOL    HW2  530   0.106   0.422  -0.023
  176SOL     OW  531   1.440   0.856   1.398
  176SOL    HW1  532   1.383   0.908   1.335
  176SOL    HW2  533   1.536   0.868   1.374
  177SOL     OW  534   0.072   0.166   0.318
  177SOL    HW1  535   0.055   0.249   0.264
  177SOL    HW2  536   0.162   0.129   0.296
  178SOL     OW  537   1.183   1.335   0.119
  178SOL    HW1  538   1.084   1.324   0.121
  178SOL    HW2  539   1.217   1.350   0.212
  179SOL     OW  540   0.613   0.842   1.431
  179SOL    HW1  541   0.669   0.923   1.414
  179SOL    HW2  542   0.672   0.762   1.434
  180SOL     OW  543   1.493   1.767   0.959
  180SOL    HW1  544   1.526   1.831   0.890
  180SOL    HW2  545   1.559   1.761   1.034
  181SOL     OW  546   0.716   0.565   1.708
  181SOL    HW1  547   0.735   0.630   1.782
  181SOL    HW2  548   0.776   0.485   1.717
  182SOL     OW  549   1.450   1.220   1.633
  182SOL    HW1  550   1.441   1.210   1.732
  182SOL    HW2  551   1.546   1.213   1.607
  183SOL     OW  552   0.390   1.741   1.560
  183SOL    HW1  553   0.299   1.782   1.558
  183SOL    HW2  554   0.383   1.647   1.592
  184SOL     OW  555   1.674   0.883   1.254
  184SOL    HW1  556   1.647   0.794   1.217
  184SOL    HW2  557   1.675   0.951   1.181
  185SOL     OW  558   1.225   0.325   0.449
  185SOL    HW1  559   1.290   0.251   0.438
  185SOL    HW2  560   1.245   0.375   0.533
  186SOL     OW  561   0.594   0.745   0.652
  186SOL    HW1  562   0.644   0.830   0.633
  186SOL    HW2  563   0.506   0.747   0.604
  187SOL     OW  564   1.777   0.342   1.642
  187SOL    HW1  565   1.760   0.373   1.548
  187SOL    HW2  566   1.693   0.305   1.680
  188SOL     OW  567   1.730   0.934   1.517
  188SOL    HW1  568   1.768   1.025   1.532
  188SOL    HW2  569   1.722   0.917   1.418
  189SOL     OW  570   0.859   1.374   0.016
  189SOL    HW1  571   0.813   1.389   0.104
  189SOL    HW2  572   0.903   1.459  -0.014
  190SOL     OW  573   0.661   1.790   0.953
  190SOL    HW1  574   0.615   1.878   0.940
  190SOL    HW2  575   0.760   1.802   0.946
  191SOL     OW  576   0.859   0.956   0.861
  191SOL    HW1  577   0.913   0.887   0.909
  191SOL    HW2  578   0.827   1.025   0.927
  192SOL     OW  579   1.083   0.984   0.087
  192SOL    HW1  580   1.060   1.037   0.005
  192SOL    HW2  581   1.164   0.928   0.068
  193SOL     OW  582   1.861   1.569   0.851
  193SOL    HW1  583   1.790   1.557   0.781
  193SOL    HW2  584   1.862   1.490   0.911
  194SOL     OW  585   0.221   1.314   1.844
  194SOL    HW1  586   0.156   1.241   1.823
  194SOL    HW2  587   0.225   1.328   1.942
  195SOL     OW  588   0.079   1.240   0.653
  195SOL    HW1  589   0.078   1.193   0.741
  195SOL    HW2  590   0.161   1.212   0.602
  196SOL     OW  591   0.672   1.391   1.624
  196SOL    HW1  592   0.594   1.341   1.662
  196SOL    HW2  593   0.669   1.486   1.655
  197SOL     OW  594   1.824   0.192   1.227
  197SOL    HW1  595   1.820   0.102   1.271
  197SOL    HW2  596   1.827   0.181   1.128
  198SOL     OW  597   0.428   0.424   0.520
  198SOL    HW1  598   0.458   0.352   0.458
  198SOL    HW2  599   0.389   0.384   0.603
  199SOL     OW  600   1.705   1.487   1.104
  199SOL    HW1  601   1.612   1.462   1.077
  199SOL    HW2  602   1.731   1.437   1.186
  200SOL     OW  603   0.317   0.547   1.280
  200SOL    HW1  604   0.355   0.488   1.352
  200SOL    HW2  605   0.357   0.521   1.192
  201SOL     OW  606   0.812   1.586   0.687
  201SOL    HW1  607   0.844   1.596   0.593
  201SOL    HW2  608   0.733   1.524   0.689
  202SOL     OW  609   1.424   0.214   1.112
  202SOL    HW1  610   1.476   0.149   1.167
  202SOL    HW2  611   1.375   0.277   1.173
  203SOL     OW  612   1.001   0.034   1.154
  203SOL    HW1  613   0.938  -0.038   1.123
  203SOL    HW2  614   1.094  -0.002   1.154
  204SOL     OW  615   0.770   1.330   0.301
  204SOL    HW1  616   0.724   1.243   0.318
  204SOL    HW2  617   0.861   1.327   0.342
  205SOL     OW  618   0.618   1.567   1.284
  205SOL    HW1  619   0.613   1.649   1.341
  205SOL    HW2  620   0.707   1.564   1.239
  206SOL     OW  621   1.352   0.052   0.168
  206SOL    HW1  622   1.387   0.011   0.084
  206SOL    HW2  623   1.262   0.014   0.188
  207SOL     OW  624   1.300   0.453   0.691
  207SOL    HW1  625   1.241   0.533   0.695
  207SOL    HW2  626   1.315   0.418   0.784
  208SOL     OW  627   1.593   0.221   0.882
  208SOL    HW1  628   1.509   0.220   0.936
  208SOL    HW2  629   1.595   0.304   0.826
  209SOL     OW  630   0.039   1.077   0.300
  209SOL    HW1  631   0.138   1.066   0.291
  209SOL    HW2  632  -0.001   0.991   0.332
  210SOL     OW  633   0.875   1.646   0.337
  210SOL    HW1  634   0.798   1.611   0.283
  210SOL    HW2  635   0.843   1.717   0.399
  211SOL     OW  636   0.230   0.628   1.975
  211SOL    HW1  637   0.137   0.626   2.012
  211SOL    HW2  638   0.231   0.589   1.883
  212SOL     OW  639   1.755   0.607   2.093
  212SOL    HW1  640   1.743   0.594   1.994
  212SOL    HW2  641   1.725   0.526   2.142
  213SOL     OW  642   0.231   1.713   2.345
  213SOL    HW1  643   0.265   1.790   2.399
  213SOL    HW2  644   0.275   1.713   2.255
  214SOL     OW  645   0.230   1.434   2.400
  214SOL    HW1  646   0.204   1.530   2.400
  214SOL    HW2  647   0.159   1.380   2.445
  215SOL     OW  648   0.606   0.964   1.985
  215SOL    HW1  649   0.613   1.048   1.931
  215SOL    HW2  650   0.652   0.977   2.073
  216SOL     OW  651   1.842   1.767   2.221
  216SOL    HW1  652   1.896   1.738   2.301
  216SOL    HW2  653   1.872   1.857   2.192
  217SOL     OW  654   0.027   1.596   1.979
  217SOL    HW1  655   0.008   1.500   2.000
  217SOL    HW2  656  -0.006   1.654   2.054
  218SOL     OW  657   1.689   0.922   2.474
  218SOL    HW1  658   1.784   0.893   2.482
  218SOL    HW2  659   1.681   0.987   2.399
  219SOL     OW  660   1.641   1.108   2.294
  219SOL    HW1  661   1.727   1.110   2.242
  219SOL    HW2  662   1.655   1.155   2.382
  220SOL     OW  663   1.525   0.999   2.052
  220SOL    HW1  664   1.462   0.923   2.065
  220SOL    HW2  665   1.573   1.017   2.138
  221SOL     OW  666   0.598   0.729   2.132
  221SOL    HW1  667   0.622   0.798   2.064
  221SOL    HW2  668   0.520   0.762   2.186
  222SOL     OW  669   1.576   1.662   2.169
  222SOL    HW1  670   1.665   1.708   2.172
  222SOL    HW2  671   1.555   1.638   2.074
  223SOL     OW  672   0.865   0.348   2.057
  223SOL    HW1  673   0.924   0.411   2.008
  223SOL    HW2  674   0.884   0.254   2.028
  224SOL     OW  675   0.321   0.943   2.104
  224SOL    HW1  676   0.403   0.982   2.062
  224SOL    HW2  677   0.294   0.861   2.055
  225SOL     OW  678   1.458   0.735   2.590
  225SOL    HW1  679   1.453   0.670   2.665
  225SOL    HW2  680   1.538   0.794   2.603
  226SOL     OW  681   1.111   1.776   2.099
  226SOL    HW1  682   1.051   1.714   2.149
  226SOL    HW2  683   1.142   1.732   2.014
  227SOL     OW  684   1.632   1.377   1.943
  227SOL    HW1  685   1.600   1.471   1.933
  227SOL    HW2  686   1.556   1.314   1.931
  228SOL     OW  687   0.464   1.743   2.185
  228SOL    HW1  688   0.497   1.782   2.271
  228SOL    HW2  689   0.540   1.736   2.120
  229SOL     OW  690   1.400   0.107   2.288
  229SOL    HW1  691   1.376   0.070   2.198
  229SOL    HW2  692   1.499   0.123   2.292
  230SOL     OW  693   0.614   0.122   1.979
  230SOL    HW1  694   0.712   0.100   1.986
  230SOL    HW2  695   0.583   0.105   1.886
  231SOL     OW  696   1.434   1.188   1.903
  231SOL    HW1  697   1.466   1.112   1.960
  231SOL    HW2  698   1.342   1.215   1.933
  232SOL     OW  699   0.297   0.035   2.033
  232SOL    HW1  700   0.346   0.119   2.012
  232SOL    HW2  701   0.359  -0.030   2.078
  233SOL     OW  702   0.935   0.236   2.342
  233SOL    HW1  703   0.887   0.277   2.264
  233SOL    HW2  704   1.034   0.234   2.323
  234SOL     OW  705   1.227   1.570   2.655
  234SOL    HW1  706   1.248   1.644   2.590
  234SOL    HW2  707   1.295   1.570   2.728
  235SOL     OW  708   0.459   1.152   2.603
  235SOL    HW1  709   0.388   1.125   2.668
  235SOL    HW2  710   0.433   1.124   2.510
  236SOL     OW  711   1.271   1.797   2.453
  236SOL    HW1  712   1.315   1.861   2.389
  236SOL    HW2  713   1.221   1.849   2.523
  237SOL     OW  714   1.032   0.549   1.878
  237SOL    HW1  715   0.991   0.631   1.839
  237SOL    HW2  716   1.096   0.575   1.951
  238SOL     OW  717   1.429   1.173   2.729
  238SOL    HW1  718   1.374   1.089   2.722
  238SOL    HW2  719   1.455   1.202   2.637
  239SOL     OW  720   1.857   0.833   2.239
  239SOL    HW1  721   1.899   0.769   2.303
  239SOL    HW2  722   1.819   0.782   2.161
  240SOL     OW  723   0.488   1.385   2.036
  240SOL    HW1  724   0.401   1.370   2.083
  240SOL    HW2  725   0.471   1.411   1.941
  241SOL     OW  726   1.390   0.575   1.940
  241SOL    HW1  727   1.336   0.554   2.021
  241SOL    HW2  728   1.481   0.534   1.949
  242SOL     OW  729   0.527   0.256   2.190
  242SOL    HW1  730   0.554   0.197   2.115
  242SOL    HW2  731   0.527   0.351   2.159
  243SOL     OW  732   0.705   1.050   2.230
  243SOL    HW1  733   0.691   1.057   2.329
  243SOL    HW2  734   0.789   0.999   2.212
  244SOL     OW  735   0.367   1.100   2.363
  244SOL    HW1  736   0.360   1.183   2.307
  244SOL    HW2  737   0.371   1.020   2.303
  245SOL     OW  738   1.252   1.348   2.250
  245SOL    HW1  739   1.302   1.425   2.290
  245SOL    HW2  740   1.157   1.350   2.282
  246SOL     OW  741   1.582   0.639   2.334
  246SOL    HW1  742   1.551   0.700   2.407
  246SOL    HW2  743   1.632   0.691   2.265
  247SOL     OW  744   1.209   0.525   2.137
  247SOL    HW1  745   1.222   0.441   2.191
  247SOL    HW2  746   1.180   0.599   2.197
  248SOL     OW  747   1.622   0.367   2.236
  248SOL    HW1  748   1.624   0.291   2.300
  248SOL    HW2  749   1.574   0.444   2.276
  249SOL     OW  750   1.540   0.274   1.987
  249SOL    HW1  751   1.479   0.199   2.010
  249SOL    HW2  752   1.562   0.326   2.070
  250SOL     OW  753   1.303   0.838   1.904
  250SOL    HW1  754   1.337   0.745   1.919
  250SOL    HW2  755   1.321   0.865   1.809
  251SOL     OW  756   0.008   1.326   2.062
  251SOL    HW1  757  -0.085   1.347   2.031
  251SOL    HW2  758   0.018   1.227   2.075
  252SOL     OW  759   0.815   0.572   2.187
  252SOL    HW1  760   0.822   0.483   2.141
  252SOL    HW2  761   0.721   0.606   2.179
  253SOL     OW  762   0.473   0.500   2.053
  253SOL    HW1  763   0.534   0.580   2.057
  253SOL    HW2  764   0.378   0.531   2.060
  254SOL     OW  765   1.302   0.855   2.171
  254SOL    HW1  766   1.216   0.824   2.213
  254SOL    HW2  767   1.298   0.841   2.072
  255SOL     OW  768   1.726   0.135   2.385
  255SOL    HW1  769   1.799   0.118   2.318
  255SOL    HW2  770   1.695   0.048   2.423
  256SOL     OW  771   0.672   1.616   2.016
  256SOL    HW1  772   0.681   1.626   1.917
  256SOL    HW2  773   0.632   1.527   2.037
  257SOL     OW  774   0.263   0.326   2.582
  257SOL    HW1  775   0.184   0.377   2.548
  257SOL    HW2  776   0.254   0.311   2.680
  258SOL     OW  777   1.194   1.612   1.893
  258SOL    HW1  778   1.200   1.519   1.930
  258SOL    HW2  779   1.135   1.612   1.813
  259SOL     OW  780   0.916   0.910   2.153
  259SOL    HW1  781   0.979   0.948   2.085
  259SOL    HW2  782   0.956   0.827   2.192
  260SOL     OW  783   1.504   1.607   1.906
  260SOL    HW1  784   1.412   1.644   1.913
  260SOL    HW2  785   1.542   1.627   1.816
  261SOL     OW  786   0.590   1.487   2.353
  261SOL    HW1  787   0.632   1.429   2.283
  261SOL    HW2  788   0.546   1.566   2.309
  262SOL     OW  789   0.255   1.348   2.152
  262SOL    HW1  790   0.159   1.349   2.125
  262SOL    HW2  791   0.267   1.401   2.236
  263SOL     OW  792   0.075   0.345   1.895
  263SOL    HW1  793  -0.017   0.317   1.866
  263SOL    HW2  794   0.106   0.422   1.839
  264SOL     OW  795   0.072   0.166   2.180
  264SOL    HW1  796   0.055   0.249   2.126
  264SOL    HW2  797   0.162   0.129   2.158
  265SOL     OW  798   1.183   1.335   1.981
  265SOL    HW1  799   1.084   1.324   1.983
  265SOL    HW2  800   1.217   1.350   2.074
  266SOL     OW  801   1.225   0.325   2.311
  266SOL    HW1  802   1.290   0.251   2.300
  266SOL    HW2  803   1.245   0.375   2.395
  267SOL     OW  804   0.859   1.374   1.878
  267SOL    HW1  805   0.813   1.389   1.966
  267SOL    HW2  806   0.903   1.459   1.848
  268SOL     OW  807   1.083   0.984   1.949
  268SOL    HW1  808   1.060   1.037   1.867
  268SOL    HW2  809   1.164   0.928   1.930
  269SOL     OW  810   1.861   1.569   2.713
  269SOL    HW1  811   1.790   1.557   2.643
  269SOL    HW2  812   1.862   1.490   2.773
  270SOL     OW  813   0.428   0.424   2.382
  270SOL    HW1  814   0.458   0.352   2.320
  270SOL    HW2  815   0.389   0.384   2.465
  271SOL     OW  816   0.770   1.330   2.163
  271SOL    HW1  817   0.724   1.243   2.180
  271SOL    HW2  818   0.861   1.327   2.204
  272SOL     OW  819   1.352   0.052   2.030
  272SOL    HW1  820   1.387   0.011   1.946
  272SOL    HW2  821   1.262   0.014   2.050
  273SOL     OW  822   0.039   1.077   2.162
  273SOL    HW1  823   0.138   1.066   2.153
  273SOL    HW2  824  -0.001   0.991   2.194
  274SOL     OW  825   0.875   1.646   2.199
  274SOL    HW1  826   0.798   1.611   2.145
  274SOL    HW2  827   0.843   1.717   2.261
  275SOL     OW  828   0.225   2.137   0.996
  275SOL    HW1  829   0.260   2.120   1.088
  275SOL    HW2  830   0.137   2.092   0.984
  276SOL     OW  831   0.019   2.230   0.647
  276SOL    HW1  832  -0.063   2.273   0.686
  276SOL    HW2  833  -0.009   2.157   0.584
  277SOL     OW  834   0.438   2.254   1.499
  277SOL    HW1  835   0.520   2.198   1.508
  277SOL    HW2  836   0.357   2.196   1.503
  278SOL     OW  837   1.603   2.309   0.737
  278SOL    HW1  838   1.529   2.355   0.687
  278SOL    HW2  839   1.654   2.377   0.790
  279SOL     OW  840   1.594   1.976   1.480
  279SOL    HW1  841   1.576   2.043   1.408
  279SOL    HW2  842   1.591   2.022   1.569
  280SOL     OW  843   0.122   2.505   0.563
  280SOL    HW1  844   0.077   2.417   0.580
  280SOL    HW2  845   0.121   2.559   0.647
  281SOL     OW  846   0.809   1.866   0.502
  281SOL    HW1  847   0.849   1.957   0.493
  281SOL    HW2  848   0.709   1.874   0.508
  282SOL     OW  849   0.317   2.113   1.801
  282SOL    HW1  850   0.388   2.184   1.807
  282SOL    HW2  851   0.229   2.152   1.829
  283SOL     OW  852   1.281   2.207   0.944
  283SOL    HW1  853   1.195   2.157   0.931
  283SOL    HW2  854   1.343   2.153   1.000
  284SOL     OW  855   1.394   2.331   1.674
  284SOL    HW1  856   1.374   2.374   1.762
  284SOL    HW2  857   1.472   2.269   1.683
  285SOL     OW  858   0.865   2.210   0.195
  285SOL    HW1  859   0.924   2.273   0.146
  285SOL    HW2  860   0.884   2.116   0.166
  286SOL     OW  861   1.719   2.447   1.831
  286SOL    HW1  862   1.693   2.536   1.795
  286SOL    HW2  863   1.717   2.379   1.758
  287SOL     OW  864   0.550   2.058   0.885
  287SOL    HW1  865   0.545   2.053   0.985
  287SOL    HW2  866   0.552   2.154   0.856
  288SOL     OW  867   0.202   2.147   1.498
  288SOL    HW1  868   0.122   2.207   1.485
  288SOL    HW2  869   0.192   2.098   1.584
  289SOL     OW  870   1.400   1.969   0.426
  289SOL    HW1  871   1.376   1.932   0.336
  289SOL    HW2  872   1.499   1.985   0.430
  290SOL     OW  873   1.547   2.084   1.729
  290SOL    HW1  874   1.542   2.121   1.821
  290SOL    HW2  875   1.475   2.015   1.717
  291SOL     OW  876   0.614   1.984   0.117
  291SOL    HW1  877   0.712   1.962   0.124
  291SOL    HW2  878   0.583   1.967   0.024
  292SOL     OW  879   0.781   2.126   1.749
  292SOL    HW1  880   0.848   2.065   1.792
  292SOL    HW2  881   0.708   2.145   1.814
  293SOL     OW  882   1.351   2.452   1.433
  293SOL    HW1  883   1.379   2.409   1.518
  293SOL    HW2  884   1.376   2.548   1.434
  294SOL     OW  885   0.539   1.926   0.512
  294SOL    HW1  886   0.458   1.927   0.570
  294SOL    HW2  887   0.542   2.009   0.457
  295SOL     OW  888   0.297   1.897   0.171
  295SOL    HW1  889   0.346   1.981   0.150
  295SOL    HW2  890   0.359   1.832   0.216
  296SOL     OW  891   0.935   2.098   0.480
  296SOL    HW1  892   0.887   2.139   0.402
  296SOL    HW2  893   1.034   2.096   0.461
  297SOL     OW  894   0.078   2.418   1.386
  297SOL    HW1  895   0.170   2.417   1.345
  297SOL    HW2  896   0.072   2.492   1.453
  298SOL     OW  897   0.561   2.084   1.147
  298SOL    HW1  898   0.599   2.000   1.184
  298SOL    HW2  899   0.473   2.103   1.191
  299SOL     OW  900   1.017   1.901   0.753
  299SOL    HW1  901   0.945   1.906   0.684
  299SOL    HW2  902   0.993   1.832   0.822
  300SOL     OW  903   1.466   2.452   0.992
  300SOL    HW1  904   1.436   2.357   0.999
  300SOL    HW2  905   1.539   2.468   1.058
  301SOL     OW  906   0.527   2.118   0.328
  301SOL    HW1  907   0.554   2.059   0.253
  301SOL    HW2  908   0.527   2.213   0.297
  302SOL     OW  909   0.915   1.951   1.402
  302SOL    HW1  910   0.940   1.931   1.307
  302SOL    HW2  911   0.987   2.007   1.444
  303SOL     OW  912   1.274   2.248   1.262
  303SOL    HW1  913   1.295   2.322   1.326
  303SOL    HW2  914   1.185   2.265   1.219
  304SOL     OW  915   1.013   1.967   1.770
  304SOL    HW1  916   1.019   2.052   1.718
  304SOL    HW2  917   1.045   1.891   1.713
  305SOL     OW  918   0.504   1.912   1.740
  305SOL    HW1  919   0.462   1.855   1.670
  305SOL    HW2  920   0.438   1.981   1.772
  306SOL     OW  921   0.307   2.075   1.231
  306SOL    HW1  922   0.284   2.112   1.321
  306SOL    HW2  923   0.277   1.980   1.225
  307SOL     OW  924   0.732   2.496   1.064
  307SOL    HW1  925   0.791   2.470   0.988
  307SOL    HW2  926   0.704   2.592   1.053
  308SOL     OW  927   0.307   1.925   0.618
  308SOL    HW1  928   0.296   2.019   0.651
  308SOL    HW2  929   0.302   1.862   0.695
  309SOL     OW  930   1.622   2.229   0.374
  309SOL    HW1  931   1.624   2.153   0.438
  309SOL    HW2  932   1.574   2.306   0.414
  310SOL     OW  933   1.540   2.136   0.125
  310SOL    HW1  934   1.479   2.061   0.148
  310SOL    HW2  935   1.562   2.188   0.208
  311SOL     OW  936   0.339   2.371   1.006
  311SOL    HW1  937   0.287   2.288   0.989
  311SOL    HW2  938   0.416   2.376   0.942
  312SOL     OW  939   1.160   2.069   1.477
  312SOL    HW1  940   1.160   2.133   1.554
  312SOL    HW2  941   1.188   2.117   1.394
  313SOL     OW  942   0.040   2.406   1.114
  313SOL    HW1  943   0.125   2.373   1.073
  313SOL    HW2  944   0.053   2.421   1.212
  314SOL     OW  945   0.189   2.382   1.722
  314SOL    HW1  946   0.248   2.342   1.652
  314SOL    HW2  947   0.131   2.453   1.681
  315SOL     OW  948   0.815   2.434   0.325
  315SOL    HW1  949   0.822   2.345   0.279
  315SOL    HW2  950   0.721   2.468   0.317
  316SOL     OW  951   1.657   2.466   1.206
  316SOL    HW1  952   1.619   2.397   1.268
  316SOL    HW2  953   1.739   2.430   1.162
  317SOL     OW  954   0.671   2.326   1.269
  317SOL    HW1  955   0.637   2.237   1.239
  317SOL    HW2  956   0.697   2.380   1.189
  318SOL     OW  957   0.903   1.948   0.133
  318SOL    HW1  958   0.954   1.949   0.047
  318SOL    HW2  959   0.959   1.906   0.204
  319SOL     OW  960   1.726   1.997   0.523
  319SOL    HW1  961   1.799   1.980   0.456
  319SOL    HW2  962   1.695   1.910   0.561
  320SOL     OW  963   1.841   2.037   0.963
  320SOL    HW1  964   1.880   1.952   0.927
  320SOL    HW2  965   1.743   2.039   0.944
  321SOL     OW  966   0.263   2.188   0.720
  321SOL    HW1  967   0.184   2.239   0.686
  321SOL    HW2  968   0.254   2.173   0.818
  322SOL     OW  969   1.014   2.098   0.971
  322SOL    HW1  970   1.006   2.062   0.878
  322SOL    HW2  971   1.012   2.022   1.036
  323SOL     OW  972   1.709   2.247   1.381
  323SOL    HW1  973   1.782   2.316   1.385
  323SOL    HW2  974   1.737   2.172   1.322
  324SOL     OW  975   0.672   2.065   1.489
  324SOL    HW1  976   0.762   2.049   1.449
  324SOL    HW2  977   0.680   2.070   1.588
  325SOL     OW  978   0.075   2.207   0.033
  325SOL    HW1  979  -0.017   2.179   0.004
  325SOL    HW2  980   0.106   2.284  -0.023
  326SOL     OW  981   0.072   2.028   0.318
  326SOL    HW1  982   0.055   2.111   0.264
  326SOL    HW2  983   0.162   1.991   0.296
  327SOL     OW  984   0.716   2.427   1.708
  327SOL    HW1  985   0.735   2.492   1.782
  327SOL    HW2  986   0.776   2.347   1.717
  328SOL     OW  987   1.225   2.187   0.449
  328SOL    HW1  988   1.290   2.113   0.438
  328SOL    HW2  989   1.245   2.237   0.533
  329SOL     OW  990   0.594   2.607   0.652
  329SOL    HW1  991   0.644   2.692   0.633
  329SOL    HW2  992   0.506   2.609   0.604
  330SOL     OW  993   1.777   2.204   1.642
  330SOL    HW1  994   1.760   2.235   1.548
  330SOL    HW2  995   1.693   2.167   1.680
  331SOL     OW  996   1.824   2.054   1.227
  331SOL    HW1  997   1.820   1.964   1.271
  331SOL    HW2  998   1.827   2.043   1.128
  332SOL     OW  999   0.428   2.286   0.520
  332SOL    HW1 1000   0.458   2.214   0.458
  332SOL    HW2 1001   0.389   2.246   0.603
  333SOL     OW 1002   1.424   2.076   1.112
  333SOL    HW1 1003   1.476   2.011   1.167
  333SOL    HW2 1004   1.375   2.139   1.173
  334SOL     OW 1005   1.001   1.896   1.154
  334SOL    HW1 1006   0.938   1.824   1.123
  334SOL    HW2 1007   1.094   1.860   1.154
  335SOL     OW 1008   1.300   2.315   0.691
  335SOL    HW1 1009   1.241   2.395   0.695
  335SOL    HW2 1010   1.315   2.280   0.784
  336SOL     OW 1011   1.593   2.083   0.882
  336SOL    HW1 1012   1.509   2.082   0.936
  336SOL    HW2 1013   1.595   2.166   0.826
  337SOL     OW 1014   1.135   2.565   2.579
  337SOL    HW1 1015   1.192   2.643   2.554
  337SOL    HW2 1016   1.075   2.591   2.655
  338SOL     OW 1017   1.755   2.469   2.093
  338SOL    HW1 1018   1.743   2.456   1.994
  338SOL    HW2 1019   1.725   2.388   2.142
  339SOL     OW 1020   0.122   2.505   2.425
  339SOL    HW1 1021   0.077   2.417   2.442
  339SOL    HW2 1022   0.121   2.559   2.509
  340SOL     OW 1023   0.865   2.210   2.057
  340SOL    HW1 1024   0.924   2.273   2.008
  340SOL    HW2 1025   0.884   2.116   2.028
  341SOL     OW 1026   1.400   1.969   2.288
  341SOL    HW1 1027   1.376   1.932   2.198
  341SOL    HW2 1028   1.499   1.985   2.292
  342SOL     OW 1029   0.382   2.562   2.342
  342SOL    HW1 1030   0.427   2.472   2.339
  342SOL    HW2 1031   0.288   2.551   2.375
  343SOL     OW 1032   0.614   1.984   1.979
  343SOL    HW1 1033   0.712   1.962   1.986
  343SOL    HW2 1034   0.583   1.967   1.886
  344SOL     OW 1035   0.297   1.897   2.033
  344SOL    HW1 1036   0.346   1.981   2.012
  344SOL    HW2 1037   0.359   1.832   2.078
  345SOL     OW 1038   0.935   2.098   2.342
  345SOL    HW1 1039   0.887   2.139   2.264
  345SOL    HW2 1040   1.034   2.096   2.323
  346SOL     OW 1041   0.527   2.118   2.190
  346SOL    HW1 1042   0.554   2.059   2.115
  346SOL    HW2 1043   0.527   2.213   2.159
  347SOL     OW 1044   1.622   2.229   2.236
  347SOL    HW1 1045   1.624   2.153   2.300
  347SOL    HW2 1046   1.574   2.306   2.276
  348SOL     OW 1047   1.540   2.136   1.987
  348SOL    HW1 1048   1.479   2.061   2.010
  348SOL    HW2 1049   1.562   2.188   2.070
  349SOL     OW 1050   1.303   2.700   1.904
  349SOL    HW1 1051   1.337   2.607   1.919
  349SOL    HW2 1052   1.321   2.727   1.809
  350SOL     OW 1053   0.815   2.434   2.187
  350SOL    HW1 1054   0.822   2.345   2.141
  350SOL    HW2 1055   0.721   2.468   2.179
  351SOL     OW 1056   1.726   1.997   2.385
  351SOL    HW1 1057   1.799   1.980   2.318
  351SOL    HW2 1058   1.695   1.910   2.423
  352SOL     OW 1059   0.263   2.188   2.582
  352SOL    HW1 1060   0.184   2.239   2.548
  352SOL    HW2 1061   0.254   2.173   2.680
  353SOL     OW 1062   0.075   2.207   1.895
  353SOL    HW1 1063  -0.017   2.179   1.866
  353SOL    HW2 1064   0.106   2.284   1.839
  354SOL     OW 1065   0.072   2.028   2.180
  354SOL    HW1 1066   0.055   2.111   2.126
  354SOL    HW2 1067   0.162   1.991   2.158
  355SOL     OW 1068   1.225   2.187   2.311
  355SOL    HW1 1069   1.290   2.113   2.300
  355SOL    HW2 1070   1.245   2.237   2.395
  356SOL     OW 1071   0.428   2.286   2.382
  356SOL    HW1 1072   0.458   2.214   2.320
  356SOL    HW2 1073   0.389   2.246   2.465
  357SOL     OW 1074   1.352   1.914   2.030
  357SOL    HW1 1075   1.387   1.873   1.946
  357SOL    HW2 1076   1.262   1.876   2.050
  358SOL     OW 1077   2.092   0.628   0.113
  358SOL    HW1 1078   1.999   0.626   0.150
  358SOL    HW2 1079   2.093   0.589   0.021
  359SOL     OW 1080   2.087   0.275   0.996
  359SOL    HW1 1081   2.122   0.258   1.088
  359SOL    HW2 1082   1.999   0.230   0.984
  360SOL     OW 1083   1.881   0.368   0.647
  360SOL    HW1 1084   1.799   0.411   0.686
  360SOL    HW2 1085   1.853   0.295   0.584
  361SOL     OW 1086   2.197   1.435   1.061
  361SOL    HW1 1087   2.119   1.404   1.008
  361SOL    HW2 1088   2.255   1.493   1.004
  362SOL     OW 1089   2.093   1.713   0.483
  362SOL    HW1 1090   2.127   1.790   0.537
  362SOL    HW2 1091   2.137   1.713   0.393
  363SOL     OW 1092   2.092   1.434   0.538
  363SOL    HW1 1093   2.066   1.530   0.538
  363SOL    HW2 1094   2.021   1.380   0.583
  364SOL     OW 1095   2.102   1.091   0.886
  364SOL    HW1 1096   2.116   1.007   0.938
  364SOL    HW2 1097   2.047   1.155   0.941
  365SOL     OW 1098   1.984   0.643   0.563
  365SOL    HW1 1099   1.939   0.555   0.580
  365SOL    HW2 1100   1.983   0.697   0.647
  366SOL     OW 1101   1.975   0.737   1.597
  366SOL    HW1 1102   2.063   0.724   1.642
  366SOL    HW2 1103   1.962   0.834   1.575
  367SOL     OW 1104   2.059   0.976   1.264
  367SOL    HW1 1105   2.148   0.931   1.250
  367SOL    HW2 1106   1.986   0.911   1.245
  368SOL     OW 1107   2.460   0.729   0.270
  368SOL    HW1 1108   2.484   0.798   0.202
  368SOL    HW2 1109   2.382   0.762   0.324
  369SOL     OW 1110   1.938   0.811   0.789
  369SOL    HW1 1111   2.037   0.799   0.798
  369SOL    HW2 1112   1.914   0.906   0.810
  370SOL     OW 1113   1.992   1.821   1.571
  370SOL    HW1 1114   1.982   1.806   1.670
  370SOL    HW2 1115   1.906   1.857   1.535
  371SOL     OW 1116   2.213   1.801   0.853
  371SOL    HW1 1117   2.263   1.715   0.859
  371SOL    HW2 1118   2.278   1.878   0.850
  372SOL     OW 1119   2.183   0.943   0.242
  372SOL    HW1 1120   2.265   0.982   0.200
  372SOL    HW2 1121   2.156   0.861   0.193
  373SOL     OW 1122   2.323   1.266   1.727
  373SOL    HW1 1123   2.273   1.267   1.641
  373SOL    HW2 1124   2.260   1.248   1.803
  374SOL     OW 1125   2.064   0.285   1.498
  374SOL    HW1 1126   1.984   0.345   1.485
  374SOL    HW2 1127   2.054   0.236   1.584
  375SOL     OW 1128   2.111   1.785   1.241
  375SOL    HW1 1129   2.168   1.720   1.291
  375SOL    HW2 1130   2.095   1.752   1.148
  376SOL     OW 1131   2.244   0.700   0.480
  376SOL    HW1 1132   2.289   0.610   0.477
  376SOL    HW2 1133   2.150   0.689   0.513
  377SOL     OW 1134   2.159   0.035   0.171
  377SOL    HW1 1135   2.208   0.119   0.150
  377SOL    HW2 1136   2.221  -0.030   0.216
  378SOL     OW 1137   1.940   0.556   1.386
  378SOL    HW1 1138   2.032   0.555   1.345
  378SOL    HW2 1139   1.934   0.630   1.453
  379SOL     OW 1140   2.272   0.813   1.251
  379SOL    HW1 1141   2.358   0.825   1.301
  379SOL    HW2 1142   2.230   0.726   1.278
  380SOL     OW 1143   1.926   1.564   1.331
  380SOL    HW1 1144   1.880   1.646   1.297
  380SOL    HW2 1145   2.024   1.583   1.340
  381SOL     OW 1146   2.229   1.100   0.501
  381SOL    HW1 1147   2.222   1.183   0.445
  381SOL    HW2 1148   2.233   1.020   0.441
  382SOL     OW 1149   2.428   0.537   0.865
  382SOL    HW1 1150   2.440   0.603   0.791
  382SOL    HW2 1151   2.474   0.571   0.948
  383SOL     OW 1152   2.264   0.751   1.598
  383SOL    HW1 1153   2.332   0.806   1.551
  383SOL    HW2 1154   2.304   0.663   1.625
  384SOL     OW 1155   2.366   0.050   1.740
  384SOL    HW1 1156   2.324  -0.007   1.670
  384SOL    HW2 1157   2.300   0.119   1.772
  385SOL     OW 1158   2.435   0.870   1.029
  385SOL    HW1 1159   2.479   0.959   1.020
  385SOL    HW2 1160   2.372   0.870   1.106
  386SOL     OW 1161   2.169   0.213   1.231
  386SOL    HW1 1162   2.146   0.250   1.321
  386SOL    HW2 1163   2.139   0.118   1.225
  387SOL     OW 1164   1.899   1.310   1.282
  387SOL    HW1 1165   1.952   1.261   1.350
  387SOL    HW2 1166   1.921   1.408   1.287
  388SOL     OW 1167   2.169   0.063   0.618
  388SOL    HW1 1168   2.158   0.157   0.651
  388SOL    HW2 1169   2.164   0.000   0.695
  389SOL     OW 1170   2.212   0.898   1.804
  389SOL    HW1 1171   2.288   0.942   1.852
  389SOL    HW2 1172   2.247   0.851   1.722
  390SOL     OW 1173   2.181   0.810   0.949
  390SOL    HW1 1174   2.274   0.846   0.954
  390SOL    HW2 1175   2.175   0.725   1.001
  391SOL     OW 1176   2.201   0.509   1.006
  391SOL    HW1 1177   2.149   0.426   0.989
  391SOL    HW2 1178   2.278   0.514   0.942
  392SOL     OW 1179   1.870   1.326   0.200
  392SOL    HW1 1180   1.777   1.347   0.169
  392SOL    HW2 1181   1.880   1.227   0.213
  393SOL     OW 1182   1.950   1.801   0.927
  393SOL    HW1 1183   1.908   1.715   0.900
  393SOL    HW2 1184   2.044   1.804   0.893
  394SOL     OW 1185   1.902   0.544   1.114
  394SOL    HW1 1186   1.987   0.511   1.073
  394SOL    HW2 1187   1.915   0.559   1.212
  395SOL     OW 1188   2.051   0.520   1.722
  395SOL    HW1 1189   2.110   0.480   1.652
  395SOL    HW2 1190   1.993   0.591   1.681
  396SOL     OW 1191   2.114   1.564   1.744
  396SOL    HW1 1192   2.084   1.621   1.820
  396SOL    HW2 1193   2.107   1.467   1.770
  397SOL     OW 1194   2.335   0.500   0.191
  397SOL    HW1 1195   2.396   0.580   0.195
  397SOL    HW2 1196   2.240   0.531   0.198
  398SOL     OW 1197   2.021   1.137   1.466
  398SOL    HW1 1198   2.043   1.076   1.542
  398SOL    HW2 1199   2.031   1.088   1.380
  399SOL     OW 1200   1.945   1.258   1.022
  399SOL    HW1 1201   1.940   1.257   1.122
  399SOL    HW2 1202   1.862   1.217   0.984
  400SOL     OW 1203   1.992   1.794   1.851
  400SOL    HW1 1204   1.951   1.720   1.904
  400SOL    HW2 1205   2.056   1.845   1.909
  401SOL     OW 1206   2.125   0.326   0.720
  401SOL    HW1 1207   2.046   0.377   0.686
  401SOL    HW2 1208   2.116   0.311   0.818
  402SOL     OW 1209   2.234   1.288   1.490
  402SOL    HW1 1210   2.221   1.381   1.456
  402SOL    HW2 1211   2.150   1.236   1.477
  403SOL     OW 1212   2.117   1.348   0.290
  403SOL    HW1 1213   2.021   1.349   0.263
  403SOL    HW2 1214   2.129   1.401   0.374
  404SOL     OW 1215   1.967   1.013   1.726
  404SOL    HW1 1216   1.890   0.980   1.780
  404SOL    HW2 1217   2.052   0.983   1.768
  405SOL     OW 1218   1.937   0.345   0.033
  405SOL    HW1 1219   1.845   0.317   0.004
  405SOL    HW2 1220   1.968   0.422  -0.023
  406SOL     OW 1221   1.934   0.166   0.318
  406SOL    HW1 1222   1.917   0.249   0.264
  406SOL    HW2 1223   2.024   0.129   0.296
  407SOL     OW 1224   2.252   1.741   1.560
  407SOL    HW1 1225   2.161   1.782   1.558
  407SOL    HW2 1226   2.245   1.647   1.592
  408SOL     OW 1227   2.083   1.314   1.844
  408SOL    HW1 1228   2.018   1.241   1.823
  408SOL    HW2 1229   2.087   1.328   1.942
  409SOL     OW 1230   1.941   1.240   0.653
  409SOL    HW1 1231   1.940   1.193   0.741
  409SOL    HW2 1232   2.023   1.212   0.602
  410SOL     OW 1233   2.534   1.391   1.624
  410SOL    HW1 1234   2.456   1.341   1.662
  410SOL    HW2 1235   2.531   1.486   1.655
  411SOL     OW 1236   2.179   0.547   1.280
  411SOL    HW1 1237   2.217   0.488   1.352
  411SOL    HW2 1238   2.219   0.521   1.192
  412SOL     OW 1239   2.674   1.586   0.687
  412SOL    HW1 1240   2.706   1.596   0.593
  412SOL    HW2 1241   2.595   1.524   0.689
  413SOL     OW 1242   1.901   1.077   0.300
  413SOL    HW1 1243   2.000   1.066   0.291
  413SOL    HW2 1244   1.861   0.991   0.332
  414SOL     OW 1245   2.092   0.628   1.975
  414SOL    HW1 1246   1.999   0.626   2.012
  414SOL    HW2 1247   2.093   0.589   1.883
  415SOL     OW 1248   2.093   1.713   2.345
  415SOL    HW1 1249   2.127   1.790   2.399
  415SOL    HW2 1250   2.137   1.713   2.255
  416SOL     OW 1251   2.092   1.434   2.400
  416SOL    HW1 1252   2.066   1.530   2.400
  416SOL    HW2 1253   2.021   1.380   2.445
  417SOL     OW 1254   1.889   1.596   1.979
  417SOL    HW1 1255   1.870   1.500   2.000
  417SOL    HW2 1256   1.856   1.654   2.054
  418SOL     OW 1257   2.460   0.729   2.132
  418SOL    HW1 1258   2.484   0.798   2.064
  418SOL    HW2 1259   2.382   0.762   2.186
  419SOL     OW 1260   2.183   0.943   2.104
  419SOL    HW1 1261   2.265   0.982   2.062
  419SOL    HW2 1262   2.156   0.861   2.055
  420SOL     OW 1263   2.159   0.035   2.033
  420SOL    HW1 1264   2.208   0.119   2.012
  420SOL    HW2 1265   2.221  -0.030   2.078
  421SOL     OW 1266   2.229   1.100   2.363
  421SOL    HW1 1267   2.222   1.183   2.307
  421SOL    HW2 1268   2.233   1.020   2.303
  422SOL     OW 1269   1.870   1.326   2.062
  422SOL    HW1 1270   1.777   1.347   2.031
  422SOL    HW2 1271   1.880   1.227   2.075
  423SOL     OW 1272   2.335   0.500   2.053
  423SOL    HW1 1273   2.396   0.580   2.057
  423SOL    HW2 1274   2.240   0.531   2.060
  424SOL     OW 1275   2.125   0.326   2.582
  424SOL    HW1 1276   2.046   0.377   2.548
  424SOL    HW2 1277   2.116   0.311   2.680
  425SOL     OW 1278   2.117   1.348   2.152
  425SOL    HW1 1279   2.021   1.349   2.125
  425SOL    HW2 1280   2.129   1.401   2.236
  426SOL     OW 1281   1.937   0.345   1.895
  426SOL    HW1 1282   1.845   0.317   1.866
  426SOL    HW2 1283   1.968   0.422   1.839
  427SOL     OW 1284   1.934   0.166   2.180
  427SOL    HW1 1285   1.917   0.249   2.126
  427SOL    HW2 1286   2.024   0.129   2.158
  428SOL     OW 1287   2.674   1.586   2.549
  428SOL    HW1 1288   2.706   1.596   2.455
  428SOL    HW2 1289   2.595   1.524   2.551
  429SOL     OW 1290   1.901   1.077   2.162
  429SOL    HW1 1291   2.000   1.066   2.153
  429SOL    HW2 1292   1.861   0.991   2.194
  430SOL     OW 1293   2.087   2.137   0.996
  430SOL    HW1 1294   2.122   2.120   1.088
  430SOL    HW2 1295   1.999   2.092   0.984
  431SOL     OW 1296   1.881   2.230   0.647
  431SOL    HW1 1297   1.799   2.273   0.686
  431SOL    HW2 1298   1.853   2.157   0.584
  432SOL     OW 1299   1.984   2.505   0.563
  432SOL    HW1 1300   1.939   2.417   0.580
  432SOL    HW2 1301   1.983   2.559   0.647
  433SOL     OW 1302   2.064   2.147   1.498
  433SOL    HW1 1303   1.984   2.207   1.485
  433SOL    HW2 1304   2.054   2.098   1.584
  434SOL     OW 1305   2.159   1.897   0.171
  434SOL    HW1 1306   2.208   1.981   0.150
  434SOL    HW2 1307   2.221   1.832   0.216
  435SOL     OW 1308   1.940   2.418   1.386
  435SOL    HW1 1309   2.032   2.417   1.345
  435SOL    HW2 1310   1.934   2.492   1.453
  436SOL     OW 1311   2.423   2.084   1.147
  436SOL    HW1 1312   2.461   2.000   1.184
  436SOL    HW2 1313   2.335   2.103   1.191
  437SOL     OW 1314   2.428   2.399   0.865
  437SOL    HW1 1315   2.440   2.465   0.791
  437SOL    HW2 1316   2.474   2.433   0.948
  438SOL     OW 1317   2.264   2.613   1.598
  438SOL    HW1 1318   2.332   2.668   1.551
  438SOL    HW2 1319   2.304   2.525   1.625
  439SOL     OW 1320   2.366   1.912   1.740
  439SOL    HW1 1321   2.324   1.855   1.670
  439SOL    HW2 1322   2.300   1.981   1.772
  440SOL     OW 1323   2.169   2.075   1.231
  440SOL    HW1 1324   2.146   2.112   1.321
  440SOL    HW2 1325   2.139   1.980   1.225
  441SOL     OW 1326   2.169   1.925   0.618
  441SOL    HW1 1327   2.158   2.019   0.651
  441SOL    HW2 1328   2.164   1.862   0.695
  442SOL     OW 1329   2.201   2.371   1.006
  442SOL    HW1 1330   2.149   2.288   0.989
  442SOL    HW2 1331   2.278   2.376   0.942
  443SOL     OW 1332   2.051   2.382   1.722
  443SOL    HW1 1333   2.110   2.342   1.652
  443SOL    HW2 1334   1.993   2.453   1.681
  444SOL     OW 1335   2.125   2.188   0.720
  444SOL    HW1 1336   2.046   2.239   0.686
  444SOL    HW2 1337   2.116   2.173   0.818
  445SOL     OW 1338   1.937   2.207   0.033
  445SOL    HW1 1339   1.845   2.179   0.004
  445SOL    HW2 1340   1.968   2.284  -0.023
  446SOL     OW 1341   1.934   2.028   0.318
  446SOL    HW1 1342   1.917   2.111   0.264
  446SOL    HW2 1343   2.024   1.991   0.296
  447SOL     OW 1344   1.984   2.505   2.425
  447SOL    HW1 1345   1.939   2.417   2.442
  447SOL    HW2 1346   1.983   2.559   2.509
  448SOL     OW 1347   2.244   2.562   2.342
  448SOL    HW1 1348   2.289   2.472   2.339
  448SOL    HW2 1349   2.150   2.551   2.375
  449SOL     OW 1350   2.159   1.897   2.033
  449SOL    HW1 1351   2.208   1.981   2.012
  449SOL    HW2 1352   2.221   1.832   2.078
  450SOL     OW 1353   2.125   2.188   2.582
  450SOL    HW1 1354   2.046   2.239   2.548
  450SOL    HW2 1355   2.116   2.173   2.680
  451SOL     OW 1356   1.937   2.207   1.895
  451SOL    HW1 1357   1.845   2.179   1.866
  451SOL    HW2 1358   1.968   2.284   1.839
  452SOL     OW 1359   1.934   2.028   2.180
  452SOL    HW1 1360   1.917   2.111   2.126
  452SOL    HW2 1361   2.024   1.991   2.158
   2.38321   2.38321   2.38321
