; mobley_4587267_GMX.itp created by acpype (v: 2023.10.27) on Thu May 14 13:18:35 2026

[ atomtypes ]
;name   bond_type     mass     charge   ptype   sigma         epsilon       Amb
 c3       c3          0.00000  0.00000   A     3.39771e-01   4.51035e-01 ; 1.91  0.1078
 oh       oh          0.00000  0.00000   A     3.24287e-01   3.89112e-01 ; 1.82  0.0930
 h1       h1          0.00000  0.00000   A     2.42200e-01   8.70272e-02 ; 1.36  0.0208
 ho       ho          0.00000  0.00000   A     5.37925e-02   1.96648e-02 ; 0.30  0.0047

[ moleculetype ]
;name            nrexcl
 mobley_4587267   3

[ atoms ]
;   nr  type  resi  res  atom  cgnr     charge      mass       ; qtot   bond_type
     1   c3     1   MOL    C1    1     0.115900     12.01000 ; qtot 0.116
     2   c3     1   MOL    C2    2     0.115900     12.01000 ; qtot 0.232
     3   c3     1   MOL    C3    3     0.079600     12.01000 ; qtot 0.311
     4   c3     1   MOL    C4    4     0.079600     12.01000 ; qtot 0.391
     5   c3     1   MOL    C5    5     0.136600     12.01000 ; qtot 0.528
     6   c3     1   MOL    C6    6     0.136600     12.01000 ; qtot 0.664
     7   oh     1   MOL    O1    7    -0.604800     16.00000 ; qtot 0.059
     8   oh     1   MOL    O2    8    -0.604800     16.00000 ; qtot -0.545
     9   oh     1   MOL    O3    9    -0.612300     16.00000 ; qtot -1.158
    10   oh     1   MOL    O4   10    -0.612300     16.00000 ; qtot -1.770
    11   oh     1   MOL    O5   11    -0.586800     16.00000 ; qtot -2.357
    12   oh     1   MOL    O6   12    -0.586800     16.00000 ; qtot -2.944
    13   h1     1   MOL    H1   13     0.052700      1.00800 ; qtot -2.891
    14   h1     1   MOL    H2   14     0.052700      1.00800 ; qtot -2.838
    15   h1     1   MOL    H3   15     0.052700      1.00800 ; qtot -2.785
    16   h1     1   MOL    H4   16     0.052700      1.00800 ; qtot -2.733
    17   h1     1   MOL    H5   17     0.057700      1.00800 ; qtot -2.675
    18   h1     1   MOL    H6   18     0.057700      1.00800 ; qtot -2.617
    19   h1     1   MOL    H7   19     0.058700      1.00800 ; qtot -2.559
    20   h1     1   MOL    H8   20     0.058700      1.00800 ; qtot -2.500
    21   ho     1   MOL    H9   21     0.413500      1.00800 ; qtot -2.086
    22   ho     1   MOL   H10   22     0.413500      1.00800 ; qtot -1.673
    23   ho     1   MOL   H11   23     0.419000      1.00800 ; qtot -1.254
    24   ho     1   MOL   H12   24     0.419000      1.00800 ; qtot -0.835
    25   ho     1   MOL   H13   25     0.417500      1.00800 ; qtot -0.417
    26   ho     1   MOL   H14   26     0.417500      1.00800 ; qtot 0.000

[ bonds ]
;   ai     aj funct   r             k
     1      3   1    1.5354e-01    1.9154e+05 ;     C1 - C3    
     1      7   1    1.4242e-01    2.3861e+05 ;     C1 - O1    
     1     13   1    1.0969e-01    2.8804e+05 ;     C1 - H1    
     1     14   1    1.0969e-01    2.8804e+05 ;     C1 - H2    
     2      4   1    1.5354e-01    1.9154e+05 ;     C2 - C4    
     2      8   1    1.4242e-01    2.3861e+05 ;     C2 - O2    
     2     15   1    1.0969e-01    2.8804e+05 ;     C2 - H3    
     2     16   1    1.0969e-01    2.8804e+05 ;     C2 - H4    
     3      5   1    1.5354e-01    1.9154e+05 ;     C3 - C5    
     3      9   1    1.4242e-01    2.3861e+05 ;     C3 - O3    
     3     17   1    1.0969e-01    2.8804e+05 ;     C3 - H5    
     4      6   1    1.5354e-01    1.9154e+05 ;     C4 - C6    
     4     10   1    1.4242e-01    2.3861e+05 ;     C4 - O4    
     4     18   1    1.0969e-01    2.8804e+05 ;     C4 - H6    
     5      6   1    1.5354e-01    1.9154e+05 ;     C5 - C6    
     5     11   1    1.4242e-01    2.3861e+05 ;     C5 - O5    
     5     19   1    1.0969e-01    2.8804e+05 ;     C5 - H7    
     6     12   1    1.4242e-01    2.3861e+05 ;     C6 - O6    
     6     20   1    1.0969e-01    2.8804e+05 ;     C6 - H8    
     7     21   1    9.7250e-02    4.4811e+05 ;     O1 - H9    
     8     22   1    9.7250e-02    4.4811e+05 ;     O2 - H10   
     9     23   1    9.7250e-02    4.4811e+05 ;     O3 - H11   
    10     24   1    9.7250e-02    4.4811e+05 ;     O4 - H12   
    11     25   1    9.7250e-02    4.4811e+05 ;     O5 - H13   
    12     26   1    9.7250e-02    4.4811e+05 ;     O6 - H14   

[ pairs ]
;   ai     aj    funct
     1      6      1 ;     C1 - C6    
     1     11      1 ;     C1 - O5    
     1     19      1 ;     C1 - H7    
     1     23      1 ;     C1 - H11   
     2      5      1 ;     C2 - C5    
     2     12      1 ;     C2 - O6    
     2     20      1 ;     C2 - H8    
     2     24      1 ;     C2 - H12   
     3      4      1 ;     C3 - C4    
     3     12      1 ;     C3 - O6    
     3     20      1 ;     C3 - H8    
     3     21      1 ;     C3 - H9    
     3     25      1 ;     C3 - H13   
     4     11      1 ;     C4 - O5    
     4     19      1 ;     C4 - H7    
     4     22      1 ;     C4 - H10   
     4     26      1 ;     C4 - H14   
     5     10      1 ;     C5 - O4    
     5     18      1 ;     C5 - H6    
     5     23      1 ;     C5 - H11   
     5     26      1 ;     C5 - H14   
     6      8      1 ;     C6 - O2    
     6      9      1 ;     C6 - O3    
     6     15      1 ;     C6 - H3    
     6     16      1 ;     C6 - H4    
     6     17      1 ;     C6 - H5    
     6     24      1 ;     C6 - H12   
     6     25      1 ;     C6 - H13   
     7      5      1 ;     O1 - C5    
     7      9      1 ;     O1 - O3    
     7     17      1 ;     O1 - H5    
     8     10      1 ;     O2 - O4    
     8     18      1 ;     O2 - H6    
     9     11      1 ;     O3 - O5    
     9     19      1 ;     O3 - H7    
    10     12      1 ;     O4 - O6    
    10     15      1 ;     O4 - H3    
    10     16      1 ;     O4 - H4    
    10     20      1 ;     O4 - H8    
    11     12      1 ;     O5 - O6    
    11     17      1 ;     O5 - H5    
    11     20      1 ;     O5 - H8    
    12     18      1 ;     O6 - H6    
    12     19      1 ;     O6 - H7    
    13      5      1 ;     H1 - C5    
    13      9      1 ;     H1 - O3    
    13     17      1 ;     H1 - H5    
    13     21      1 ;     H1 - H9    
    14      5      1 ;     H2 - C5    
    14      9      1 ;     H2 - O3    
    14     17      1 ;     H2 - H5    
    14     21      1 ;     H2 - H9    
    15     18      1 ;     H3 - H6    
    15     22      1 ;     H3 - H10   
    16     18      1 ;     H4 - H6    
    16     22      1 ;     H4 - H10   
    17     19      1 ;     H5 - H7    
    17     23      1 ;     H5 - H11   
    18     20      1 ;     H6 - H8    
    18     24      1 ;     H6 - H12   
    19     20      1 ;     H7 - H8    
    19     25      1 ;     H7 - H13   
    20     26      1 ;     H8 - H14   

[ angles ]
;   ai     aj     ak    funct   theta         cth
     1      3      5      1    1.1263e+02    5.0099e+02 ;     C1 - C3     - C5    
     1      3      9      1    1.0966e+02    6.4258e+02 ;     C1 - C3     - O3    
     1      3     17      1    1.0959e+02    3.6217e+02 ;     C1 - C3     - H5    
     1      7     21      1    1.0739e+02    5.4501e+02 ;     C1 - O1     - H9    
     2      4      6      1    1.1263e+02    5.0099e+02 ;     C2 - C4     - C6    
     2      4     10      1    1.0966e+02    6.4258e+02 ;     C2 - C4     - O4    
     2      4     18      1    1.0959e+02    3.6217e+02 ;     C2 - C4     - H6    
     2      8     22      1    1.0739e+02    5.4501e+02 ;     C2 - O2     - H10   
     3      1      7      1    1.0966e+02    6.4258e+02 ;     C3 - C1     - O1    
     3      1     13      1    1.0959e+02    3.6217e+02 ;     C3 - C1     - H1    
     3      1     14      1    1.0959e+02    3.6217e+02 ;     C3 - C1     - H2    
     3      5      6      1    1.1263e+02    5.0099e+02 ;     C3 - C5     - C6    
     3      5     11      1    1.0966e+02    6.4258e+02 ;     C3 - C5     - O5    
     3      5     19      1    1.0959e+02    3.6217e+02 ;     C3 - C5     - H7    
     3      9     23      1    1.0739e+02    5.4501e+02 ;     C3 - O3     - H11   
     4      2      8      1    1.0966e+02    6.4258e+02 ;     C4 - C2     - O2    
     4      2     15      1    1.0959e+02    3.6217e+02 ;     C4 - C2     - H3    
     4      2     16      1    1.0959e+02    3.6217e+02 ;     C4 - C2     - H4    
     4      6      5      1    1.1263e+02    5.0099e+02 ;     C4 - C6     - C5    
     4      6     12      1    1.0966e+02    6.4258e+02 ;     C4 - C6     - O6    
     4      6     20      1    1.0959e+02    3.6217e+02 ;     C4 - C6     - H8    
     4     10     24      1    1.0739e+02    5.4501e+02 ;     C4 - O4     - H12   
     5      3      9      1    1.0966e+02    6.4258e+02 ;     C5 - C3     - O3    
     5      3     17      1    1.0959e+02    3.6217e+02 ;     C5 - C3     - H5    
     5      6     12      1    1.0966e+02    6.4258e+02 ;     C5 - C6     - O6    
     5      6     20      1    1.0959e+02    3.6217e+02 ;     C5 - C6     - H8    
     5     11     25      1    1.0739e+02    5.4501e+02 ;     C5 - O5     - H13   
     6      4     10      1    1.0966e+02    6.4258e+02 ;     C6 - C4     - O4    
     6      4     18      1    1.0959e+02    3.6217e+02 ;     C6 - C4     - H6    
     6      5     11      1    1.0966e+02    6.4258e+02 ;     C6 - C5     - O5    
     6      5     19      1    1.0959e+02    3.6217e+02 ;     C6 - C5     - H7    
     6     12     26      1    1.0739e+02    5.4501e+02 ;     C6 - O6     - H14   
     7      1     13      1    1.1038e+02    4.7103e+02 ;     O1 - C1     - H1    
     7      1     14      1    1.1038e+02    4.7103e+02 ;     O1 - C1     - H2    
     8      2     15      1    1.1038e+02    4.7103e+02 ;     O2 - C2     - H3    
     8      2     16      1    1.1038e+02    4.7103e+02 ;     O2 - C2     - H4    
     9      3     17      1    1.1038e+02    4.7103e+02 ;     O3 - C3     - H5    
    10      4     18      1    1.1038e+02    4.7103e+02 ;     O4 - C4     - H6    
    11      5     19      1    1.1038e+02    4.7103e+02 ;     O5 - C5     - H7    
    12      6     20      1    1.1038e+02    4.7103e+02 ;     O6 - C6     - H8    
    13      1     14      1    1.0855e+02    2.9824e+02 ;     H1 - C1     - H2    
    15      2     16      1    1.0855e+02    2.9824e+02 ;     H3 - C2     - H4    

[ dihedrals ] ; propers
; for gromacs 4.5 or higher, using funct 9
;    i      j      k      l   func   phase     kd      pn
     1      3      5      6      9     0.00   2.17568   3 ;     C1-    C3-    C5-    C6
     1      3      5     11      9     0.00   0.75312   3 ;     C1-    C3-    C5-    O5
     1      3      5     19      9     0.00   0.65084   3 ;     C1-    C3-    C5-    H7
     1      3      9     23      9     0.00   0.25104   3 ;     C1-    C3-    O3-   H11
     2      4      6      5      9     0.00   2.17568   3 ;     C2-    C4-    C6-    C5
     2      4      6     12      9     0.00   0.75312   3 ;     C2-    C4-    C6-    O6
     2      4      6     20      9     0.00   0.65084   3 ;     C2-    C4-    C6-    H8
     2      4     10     24      9     0.00   0.25104   3 ;     C2-    C4-    O4-   H12
     3      1      7     21      9     0.00   0.25104   3 ;     C3-    C1-    O1-    H9
     3      5      6      4      9     0.00   2.17568   3 ;     C3-    C5-    C6-    C4
     3      5      6     12      9     0.00   0.75312   3 ;     C3-    C5-    C6-    O6
     3      5      6     20      9     0.00   0.65084   3 ;     C3-    C5-    C6-    H8
     3      5     11     25      9     0.00   0.25104   3 ;     C3-    C5-    O5-   H13
     4      2      8     22      9     0.00   0.25104   3 ;     C4-    C2-    O2-   H10
     4      6      5     11      9     0.00   0.75312   3 ;     C4-    C6-    C5-    O5
     4      6      5     19      9     0.00   0.65084   3 ;     C4-    C6-    C5-    H7
     4      6     12     26      9     0.00   0.25104   3 ;     C4-    C6-    O6-   H14
     5      3      9     23      9     0.00   0.25104   3 ;     C5-    C3-    O3-   H11
     5      6      4     10      9     0.00   0.75312   3 ;     C5-    C6-    C4-    O4
     5      6      4     18      9     0.00   0.65084   3 ;     C5-    C6-    C4-    H6
     5      6     12     26      9     0.00   0.25104   3 ;     C5-    C6-    O6-   H14
     6      4      2      8      9     0.00   0.75312   3 ;     C6-    C4-    C2-    O2
     6      4      2     15      9     0.00   0.65084   3 ;     C6-    C4-    C2-    H3
     6      4      2     16      9     0.00   0.65084   3 ;     C6-    C4-    C2-    H4
     6      4     10     24      9     0.00   0.25104   3 ;     C6-    C4-    O4-   H12
     6      5      3      9      9     0.00   0.75312   3 ;     C6-    C5-    C3-    O3
     6      5      3     17      9     0.00   0.65084   3 ;     C6-    C5-    C3-    H5
     6      5     11     25      9     0.00   0.25104   3 ;     C6-    C5-    O5-   H13
     7      1      3      5      9     0.00   0.75312   3 ;     O1-    C1-    C3-    C5
     7      1      3      9      9     0.00   4.18400   1 ;     O1-    C1-    C3-    O3
     7      1      3      9      9     0.00   6.02496   3 ;     O1-    C1-    C3-    O3
     7      1      3     17      9     0.00   0.00000   0 ;     O1-    C1-    C3-    H5
     7      1      3     17      9     0.00   1.04600   1 ;     O1-    C1-    C3-    H5
     8      2      4     10      9     0.00   4.18400   1 ;     O2-    C2-    C4-    O4
     8      2      4     10      9     0.00   6.02496   3 ;     O2-    C2-    C4-    O4
     8      2      4     18      9     0.00   0.00000   0 ;     O2-    C2-    C4-    H6
     8      2      4     18      9     0.00   1.04600   1 ;     O2-    C2-    C4-    H6
     9      3      5     11      9     0.00   4.18400   1 ;     O3-    C3-    C5-    O5
     9      3      5     11      9     0.00   6.02496   3 ;     O3-    C3-    C5-    O5
     9      3      5     19      9     0.00   0.00000   0 ;     O3-    C3-    C5-    H7
     9      3      5     19      9     0.00   1.04600   1 ;     O3-    C3-    C5-    H7
    10      4      2     15      9     0.00   0.00000   0 ;     O4-    C4-    C2-    H3
    10      4      2     15      9     0.00   1.04600   1 ;     O4-    C4-    C2-    H3
    10      4      2     16      9     0.00   0.00000   0 ;     O4-    C4-    C2-    H4
    10      4      2     16      9     0.00   1.04600   1 ;     O4-    C4-    C2-    H4
    10      4      6     12      9     0.00   4.18400   1 ;     O4-    C4-    C6-    O6
    10      4      6     12      9     0.00   6.02496   3 ;     O4-    C4-    C6-    O6
    10      4      6     20      9     0.00   0.00000   0 ;     O4-    C4-    C6-    H8
    10      4      6     20      9     0.00   1.04600   1 ;     O4-    C4-    C6-    H8
    11      5      3     17      9     0.00   0.00000   0 ;     O5-    C5-    C3-    H5
    11      5      3     17      9     0.00   1.04600   1 ;     O5-    C5-    C3-    H5
    11      5      6     12      9     0.00   4.18400   1 ;     O5-    C5-    C6-    O6
    11      5      6     12      9     0.00   6.02496   3 ;     O5-    C5-    C6-    O6
    11      5      6     20      9     0.00   0.00000   0 ;     O5-    C5-    C6-    H8
    11      5      6     20      9     0.00   1.04600   1 ;     O5-    C5-    C6-    H8
    12      6      4     18      9     0.00   0.00000   0 ;     O6-    C6-    C4-    H6
    12      6      4     18      9     0.00   1.04600   1 ;     O6-    C6-    C4-    H6
    12      6      5     19      9     0.00   0.00000   0 ;     O6-    C6-    C5-    H7
    12      6      5     19      9     0.00   1.04600   1 ;     O6-    C6-    C5-    H7
    13      1      3      5      9     0.00   0.65084   3 ;     H1-    C1-    C3-    C5
    13      1      3      9      9     0.00   0.00000   0 ;     H1-    C1-    C3-    O3
    13      1      3      9      9     0.00   1.04600   1 ;     H1-    C1-    C3-    O3
    13      1      3     17      9     0.00   0.65084   3 ;     H1-    C1-    C3-    H5
    13      1      7     21      9     0.00   0.51463   3 ;     H1-    C1-    O1-    H9
    14      1      3      5      9     0.00   0.65084   3 ;     H2-    C1-    C3-    C5
    14      1      3      9      9     0.00   0.00000   0 ;     H2-    C1-    C3-    O3
    14      1      3      9      9     0.00   1.04600   1 ;     H2-    C1-    C3-    O3
    14      1      3     17      9     0.00   0.65084   3 ;     H2-    C1-    C3-    H5
    14      1      7     21      9     0.00   0.51463   3 ;     H2-    C1-    O1-    H9
    15      2      4     18      9     0.00   0.65084   3 ;     H3-    C2-    C4-    H6
    15      2      8     22      9     0.00   0.51463   3 ;     H3-    C2-    O2-   H10
    16      2      4     18      9     0.00   0.65084   3 ;     H4-    C2-    C4-    H6
    16      2      8     22      9     0.00   0.51463   3 ;     H4-    C2-    O2-   H10
    17      3      5     19      9     0.00   0.65084   3 ;     H5-    C3-    C5-    H7
    17      3      9     23      9     0.00   0.51463   3 ;     H5-    C3-    O3-   H11
    18      4      6     20      9     0.00   0.65084   3 ;     H6-    C4-    C6-    H8
    18      4     10     24      9     0.00   0.51463   3 ;     H6-    C4-    O4-   H12
    19      5      6     20      9     0.00   0.65084   3 ;     H7-    C5-    C6-    H8
    19      5     11     25      9     0.00   0.51463   3 ;     H7-    C5-    O5-   H13
    20      6     12     26      9     0.00   0.51463   3 ;     H8-    C6-    O6-   H14
