; mobley_6175884_GMX.itp created by acpype (v: 2023.10.27) on Thu May 14 13:41:43 2026

[ atomtypes ]
;name   bond_type     mass     charge   ptype   sigma         epsilon       Amb
 ca       ca          0.00000  0.00000   A     3.31521e-01   4.13379e-01 ; 1.86  0.0988
 c        c           0.00000  0.00000   A     3.31521e-01   4.13379e-01 ; 1.86  0.0988
 c3       c3          0.00000  0.00000   A     3.39771e-01   4.51035e-01 ; 1.91  0.1078
 o        o           0.00000  0.00000   A     3.04812e-01   6.12119e-01 ; 1.71  0.1463
 ha       ha          0.00000  0.00000   A     2.62548e-01   6.73624e-02 ; 1.47  0.0161
 h4       h4          0.00000  0.00000   A     2.53639e-01   6.73624e-02 ; 1.42  0.0161
 hc       hc          0.00000  0.00000   A     2.60018e-01   8.70272e-02 ; 1.46  0.0208

[ moleculetype ]
;name            nrexcl
 mobley_6175884   3

[ atoms ]
;   nr  type  resi  res  atom  cgnr     charge      mass       ; qtot   bond_type
     1   ca     1   MOL    C1    1    -0.074000     12.01000 ; qtot -0.074
     2   ca     1   MOL    C2    2    -0.074000     12.01000 ; qtot -0.148
     3   ca     1   MOL    C3    3    -0.148000     12.01000 ; qtot -0.296
     4   ca     1   MOL    C4    4    -0.148000     12.01000 ; qtot -0.444
     5   ca     1   MOL    C5    5    -0.203600     12.01000 ; qtot -0.648
     6   ca     1   MOL    C6    6    -0.042300     12.01000 ; qtot -0.690
     7    c     1   MOL    C7    7     0.577501     12.01000 ; qtot -0.112
     8   c3     1   MOL    C8    8    -0.061800     12.01000 ; qtot -0.174
     9    o     1   MOL    O1    9    -0.530100     16.00000 ; qtot -0.704
    10   ha     1   MOL    H1   10     0.143500      1.00800 ; qtot -0.561
    11   ha     1   MOL    H2   11     0.143500      1.00800 ; qtot -0.417
    12   ha     1   MOL    H3   12     0.137000      1.00800 ; qtot -0.280
    13   ha     1   MOL    H4   13     0.137000      1.00800 ; qtot -0.143
    14   h4     1   MOL    H5   14    -0.003800      1.00800 ; qtot -0.147
    15   hc     1   MOL    H6   15     0.049033      1.00800 ; qtot -0.098
    16   hc     1   MOL    H7   16     0.049033      1.00800 ; qtot -0.049
    17   hc     1   MOL    H8   17     0.049033      1.00800 ; qtot -0.000

[ bonds ]
;   ai     aj funct   r             k
     1      3   1    1.3986e-01    2.9644e+05 ;     C1 - C3    
     1      5   1    1.3986e-01    2.9644e+05 ;     C1 - C5    
     1     10   1    1.0860e-01    3.0183e+05 ;     C1 - H1    
     2      4   1    1.3986e-01    2.9644e+05 ;     C2 - C4    
     2      5   1    1.3986e-01    2.9644e+05 ;     C2 - C5    
     2     11   1    1.0860e-01    3.0183e+05 ;     C2 - H2    
     3      6   1    1.3986e-01    2.9644e+05 ;     C3 - C6    
     3     12   1    1.0860e-01    3.0183e+05 ;     C3 - H3    
     4      6   1    1.3986e-01    2.9644e+05 ;     C4 - C6    
     4     13   1    1.0860e-01    3.0183e+05 ;     C4 - H4    
     5      7   1    1.4907e-01    2.1994e+05 ;     C5 - C7    
     6      8   1    1.5147e-01    2.0410e+05 ;     C6 - C8    
     7      9   1    1.2190e-01    4.9421e+05 ;     C7 - O1    
     7     14   1    1.1123e-01    2.6984e+05 ;     C7 - H5    
     8     15   1    1.0962e-01    2.8891e+05 ;     C8 - H6    
     8     16   1    1.0962e-01    2.8891e+05 ;     C8 - H7    
     8     17   1    1.0962e-01    2.8891e+05 ;     C8 - H8    

[ pairs ]
;   ai     aj    funct
     1      4      1 ;     C1 - C4    
     1      8      1 ;     C1 - C8    
     1      9      1 ;     C1 - O1    
     1     11      1 ;     C1 - H2    
     1     14      1 ;     C1 - H5    
     2      3      1 ;     C2 - C3    
     2      8      1 ;     C2 - C8    
     2      9      1 ;     C2 - O1    
     2     14      1 ;     C2 - H5    
     3      7      1 ;     C3 - C7    
     3     13      1 ;     C3 - H4    
     3     15      1 ;     C3 - H6    
     3     16      1 ;     C3 - H7    
     3     17      1 ;     C3 - H8    
     4      7      1 ;     C4 - C7    
     4     12      1 ;     C4 - H3    
     4     15      1 ;     C4 - H6    
     4     16      1 ;     C4 - H7    
     4     17      1 ;     C4 - H8    
     5      6      1 ;     C5 - C6    
     5     12      1 ;     C5 - H3    
     5     13      1 ;     C5 - H4    
     6     11      1 ;     C6 - H2    
     7     11      1 ;     C7 - H2    
     8     12      1 ;     C8 - H3    
     8     13      1 ;     C8 - H4    
    10      2      1 ;     H1 - C2    
    10      6      1 ;     H1 - C6    
    10      7      1 ;     H1 - C7    
    10     12      1 ;     H1 - H3    
    11     13      1 ;     H2 - H4    

[ angles ]
;   ai     aj     ak    funct   theta         cth
     1      3      6      1    1.2002e+02    5.3279e+02 ;     C1 - C3     - C6    
     1      3     12      1    1.1988e+02    3.7572e+02 ;     C1 - C3     - H3    
     1      5      2      1    1.2002e+02    5.3279e+02 ;     C1 - C5     - C2    
     1      5      7      1    1.2033e+02    5.1413e+02 ;     C1 - C5     - C7    
     2      4      6      1    1.2002e+02    5.3279e+02 ;     C2 - C4     - C6    
     2      4     13      1    1.1988e+02    3.7572e+02 ;     C2 - C4     - H4    
     2      5      7      1    1.2033e+02    5.1413e+02 ;     C2 - C5     - C7    
     3      1      5      1    1.2002e+02    5.3279e+02 ;     C3 - C1     - C5    
     3      1     10      1    1.1988e+02    3.7572e+02 ;     C3 - C1     - H1    
     3      6      4      1    1.2002e+02    5.3279e+02 ;     C3 - C6     - C4    
     3      6      8      1    1.2083e+02    5.0827e+02 ;     C3 - C6     - C8    
     4      2      5      1    1.2002e+02    5.3279e+02 ;     C4 - C2     - C5    
     4      2     11      1    1.1988e+02    3.7572e+02 ;     C4 - C2     - H2    
     4      6      8      1    1.2083e+02    5.0827e+02 ;     C4 - C6     - C8    
     5      1     10      1    1.1988e+02    3.7572e+02 ;     C5 - C1     - H1    
     5      2     11      1    1.1988e+02    3.7572e+02 ;     C5 - C2     - H2    
     5      7      9      1    1.2260e+02    6.5237e+02 ;     C5 - C7     - O1    
     5      7     14      1    1.1514e+02    3.6208e+02 ;     C5 - C7     - H5    
     6      3     12      1    1.1988e+02    3.7572e+02 ;     C6 - C3     - H3    
     6      4     13      1    1.1988e+02    3.7572e+02 ;     C6 - C4     - H4    
     6      8     15      1    1.1063e+02    3.6493e+02 ;     C6 - C8     - H6    
     6      8     16      1    1.1063e+02    3.6493e+02 ;     C6 - C8     - H7    
     6      8     17      1    1.1063e+02    3.6493e+02 ;     C6 - C8     - H8    
     9      7     14      1    1.2062e+02    5.0191e+02 ;     O1 - C7     - H5    
    15      8     16      1    1.0773e+02    2.9957e+02 ;     H6 - C8     - H7    
    15      8     17      1    1.0773e+02    2.9957e+02 ;     H6 - C8     - H8    
    16      8     17      1    1.0773e+02    2.9957e+02 ;     H7 - C8     - H8    

[ dihedrals ] ; propers
; for gromacs 4.5 or higher, using funct 9
;    i      j      k      l   func   phase     kd      pn
     1      3      6      4      9   180.00  15.16700   2 ;     C1-    C3-    C6-    C4
     1      3      6      8      9   180.00  15.16700   2 ;     C1-    C3-    C6-    C8
     1      5      2      4      9   180.00  15.16700   2 ;     C1-    C5-    C2-    C4
     1      5      2     11      9   180.00  15.16700   2 ;     C1-    C5-    C2-    H2
     1      5      7      9      9   180.00   2.42672   2 ;     C1-    C5-    C7-    O1
     1      5      7     14      9   180.00   4.18400   2 ;     C1-    C5-    C7-    H5
     2      4      6      3      9   180.00  15.16700   2 ;     C2-    C4-    C6-    C3
     2      4      6      8      9   180.00  15.16700   2 ;     C2-    C4-    C6-    C8
     2      5      7      9      9   180.00   2.42672   2 ;     C2-    C5-    C7-    O1
     2      5      7     14      9   180.00   4.18400   2 ;     C2-    C5-    C7-    H5
     3      1      5      2      9   180.00  15.16700   2 ;     C3-    C1-    C5-    C2
     3      1      5      7      9   180.00  15.16700   2 ;     C3-    C1-    C5-    C7
     3      6      4     13      9   180.00  15.16700   2 ;     C3-    C6-    C4-    H4
     3      6      8     15      9     0.00   0.00000   0 ;     C3-    C6-    C8-    H6
     3      6      8     16      9     0.00   0.00000   0 ;     C3-    C6-    C8-    H7
     3      6      8     17      9     0.00   0.00000   0 ;     C3-    C6-    C8-    H8
     4      2      5      7      9   180.00  15.16700   2 ;     C4-    C2-    C5-    C7
     4      6      3     12      9   180.00  15.16700   2 ;     C4-    C6-    C3-    H3
     4      6      8     15      9     0.00   0.00000   0 ;     C4-    C6-    C8-    H6
     4      6      8     16      9     0.00   0.00000   0 ;     C4-    C6-    C8-    H7
     4      6      8     17      9     0.00   0.00000   0 ;     C4-    C6-    C8-    H8
     5      1      3      6      9   180.00  15.16700   2 ;     C5-    C1-    C3-    C6
     5      1      3     12      9   180.00  15.16700   2 ;     C5-    C1-    C3-    H3
     5      2      4      6      9   180.00  15.16700   2 ;     C5-    C2-    C4-    C6
     5      2      4     13      9   180.00  15.16700   2 ;     C5-    C2-    C4-    H4
     6      4      2     11      9   180.00  15.16700   2 ;     C6-    C4-    C2-    H2
     7      5      2     11      9   180.00  15.16700   2 ;     C7-    C5-    C2-    H2
     8      6      3     12      9   180.00  15.16700   2 ;     C8-    C6-    C3-    H3
     8      6      4     13      9   180.00  15.16700   2 ;     C8-    C6-    C4-    H4
    10      1      3      6      9   180.00  15.16700   2 ;     H1-    C1-    C3-    C6
    10      1      3     12      9   180.00  15.16700   2 ;     H1-    C1-    C3-    H3
    10      1      5      2      9   180.00  15.16700   2 ;     H1-    C1-    C5-    C2
    10      1      5      7      9   180.00  15.16700   2 ;     H1-    C1-    C5-    C7
    11      2      4     13      9   180.00  15.16700   2 ;     H2-    C2-    C4-    H4

[ dihedrals ] ; impropers
; treated as propers in GROMACS to use correct AMBER analytical function
;    i      j      k      l   func   phase     kd      pn
     1      6      3     12      4   180.00   4.60240   2 ;     C1-    C6-    C3-    H3
     2      6      4     13      4   180.00   4.60240   2 ;     C2-    C6-    C4-    H4
     3      4      6      8      4   180.00   4.60240   2 ;     C3-    C4-    C6-    C8
     4      5      2     11      4   180.00   4.60240   2 ;     C4-    C5-    C2-    H2
     5     14      7      9      4   180.00  43.93200   2 ;     C5-    H5-    C7-    O1
     7      1      5      2      4   180.00   4.60240   2 ;     C7-    C1-    C5-    C2
    10      1      5      3      4   180.00   4.60240   2 ;     H1-    C1-    C5-    C3
