mobley_9100956_GMX.gro created by acpype (v: 2023.10.27) on Thu May 14 13:55:04 2026
 1755
    1MOL     C1    1   1.210   1.444   1.404
    1MOL     C2    2   1.207   1.299   1.453
    1MOL     C3    3   1.219   1.451   1.252
    1MOL     C4    4   1.326   1.219   1.400
    1MOL     C5    5   1.337   1.371   1.198
    1MOL     C6    6   1.335   1.226   1.247
    1MOL     C7    7   1.457   1.150   1.196
    1MOL     H1    8   1.120   1.496   1.438
    1MOL     H2    9   1.296   1.496   1.448
    1MOL     H3   10   1.208   1.298   1.563
    1MOL     H4   11   1.114   1.251   1.421
    1MOL     H5   12   1.126   1.412   1.208
    1MOL     H6   13   1.227   1.555   1.220
    1MOL     H7   14   1.419   1.259   1.444
    1MOL     H8   15   1.317   1.115   1.432
    1MOL     H9   16   1.337   1.374   1.088
    1MOL    H10   17   1.431   1.419   1.230
    1MOL    H11   18   1.246   1.177   1.205
    1MOL    H12   19   1.508   1.099   1.279
    1MOL    H13   20   1.428   1.075   1.122
    1MOL    H14   21   1.529   1.218   1.150
    2SOL     OW   22   0.230   0.628   0.113
    2SOL    HW1   23   0.137   0.626   0.150
    2SOL    HW2   24   0.231   0.589   0.021
    3SOL     OW   25   0.225   0.275   0.996
    3SOL    HW1   26   0.260   0.258   1.088
    3SOL    HW2   27   0.137   0.230   0.984
    4SOL     OW   28   0.019   0.368   0.647
    4SOL    HW1   29  -0.063   0.411   0.686
    4SOL    HW2   30  -0.009   0.295   0.584
    5SOL     OW   31   0.569   1.275   1.165
    5SOL    HW1   32   0.476   1.268   1.128
    5SOL    HW2   33   0.580   1.364   1.209
    6SOL     OW   34   1.555   1.511   0.703
    6SOL    HW1   35   1.498   1.495   0.784
    6SOL    HW2   36   1.496   1.521   0.623
    7SOL     OW   37   1.135   0.703   0.717
    7SOL    HW1   38   1.192   0.781   0.692
    7SOL    HW2   39   1.075   0.729   0.793
    8SOL     OW   40   1.755   0.607   0.231
    8SOL    HW1   41   1.743   0.594   0.132
    8SOL    HW2   42   1.725   0.526   0.280
    9SOL     OW   43   0.768   1.144   1.023
    9SOL    HW1   44   0.690   1.161   1.083
    9SOL    HW2   45   0.802   1.231   0.987
   10SOL     OW   46   0.850   0.798   1.823
   10SOL    HW1   47   0.846   0.874   1.888
   10SOL    HW2   48   0.872   0.834   1.732
   11SOL     OW   49   0.685   1.012   0.665
   11SOL    HW1   50   0.754   0.996   0.735
   11SOL    HW2   51   0.612   1.069   0.703
   12SOL     OW   52   0.686   1.161   1.803
   12SOL    HW1   53   0.746   1.240   1.817
   12SOL    HW2   54   0.600   1.192   1.762
   13SOL     OW   55   0.335   1.435   1.061
   13SOL    HW1   56   0.257   1.404   1.008
   13SOL    HW2   57   0.393   1.493   1.004
   14SOL     OW   58   0.438   0.392   1.499
   14SOL    HW1   59   0.520   0.336   1.508
   14SOL    HW2   60   0.357   0.334   1.503
   15SOL     OW   61   1.603   0.447   0.737
   15SOL    HW1   62   1.529   0.493   0.687
   15SOL    HW2   63   1.654   0.515   0.790
   16SOL     OW   64   0.231   1.713   0.483
   16SOL    HW1   65   0.265   1.790   0.537
   16SOL    HW2   66   0.275   1.713   0.393
   17SOL     OW   67   1.127   1.341   1.690
   17SOL    HW1   68   1.174   1.341   1.778
   17SOL    HW2   69   1.079   1.254   1.679
   18SOL     OW   70   0.230   1.434   0.538
   18SOL    HW1   71   0.204   1.530   0.538
   18SOL    HW2   72   0.159   1.380   0.583
   19SOL     OW   73   0.240   1.091   0.886
   19SOL    HW1   74   0.254   1.007   0.938
   19SOL    HW2   75   0.185   1.155   0.941
   20SOL     OW   76   0.620   1.786   1.439
   20SOL    HW1   77   0.528   1.769   1.474
   20SOL    HW2   78   0.648   1.878   1.465
   21SOL     OW   79   0.606   0.964   0.123
   21SOL    HW1   80   0.613   1.048   0.069
   21SOL    HW2   81   0.652   0.977   0.211
   22SOL     OW   82   1.594   0.114   1.480
   22SOL    HW1   83   1.576   0.181   1.408
   22SOL    HW2   84   1.591   0.160   1.569
   23SOL     OW   85   0.122   0.643   0.563
   23SOL    HW1   86   0.077   0.555   0.580
   23SOL    HW2   87   0.121   0.697   0.647
   24SOL     OW   88   1.842   1.767   0.359
   24SOL    HW1   89   1.896   1.738   0.439
   24SOL    HW2   90   1.872   1.857   0.330
   25SOL     OW   91   0.027   1.596   0.117
   25SOL    HW1   92   0.008   1.500   0.138
   25SOL    HW2   93  -0.006   1.654   0.192
   26SOL     OW   94   1.689   0.922   0.612
   26SOL    HW1   95   1.784   0.893   0.620
   26SOL    HW2   96   1.681   0.987   0.537
   27SOL     OW   97   1.641   1.108   0.432
   27SOL    HW1   98   1.727   1.110   0.380
   27SOL    HW2   99   1.655   1.155   0.520
   28SOL     OW  100   0.113   0.737   1.597
   28SOL    HW1  101   0.201   0.724   1.642
   28SOL    HW2  102   0.100   0.834   1.575
   29SOL     OW  103   0.613   1.365   0.726
   29SOL    HW1  104   0.564   1.278   0.735
   29SOL    HW2  105   0.590   1.408   0.639
   30SOL     OW  106   0.809   0.004   0.502
   30SOL    HW1  107   0.849   0.095   0.493
   30SOL    HW2  108   0.709   0.012   0.508
   31SOL     OW  109   0.197   0.976   1.264
   31SOL    HW1  110   0.286   0.931   1.250
   31SOL    HW2  111   0.124   0.911   1.245
   32SOL     OW  112   1.525   0.999   0.190
   32SOL    HW1  113   1.462   0.923   0.203
   32SOL    HW2  114   1.573   1.017   0.276
   33SOL     OW  115   1.187   1.792   1.616
   33SOL    HW1  116   1.211   1.852   1.540
   33SOL    HW2  117   1.194   1.697   1.586
   34SOL     OW  118   0.317   0.251   1.801
   34SOL    HW1  119   0.388   0.322   1.807
   34SOL    HW2  120   0.229   0.290   1.829
   35SOL     OW  121   1.667   1.714   0.572
   35SOL    HW1  122   1.626   1.691   0.484
   35SOL    HW2  123   1.649   1.640   0.637
   36SOL     OW  124   0.598   0.729   0.270
   36SOL    HW1  125   0.622   0.798   0.202
   36SOL    HW2  126   0.520   0.762   0.324
   37SOL     OW  127   1.281   0.345   0.944
   37SOL    HW1  128   1.195   0.295   0.931
   37SOL    HW2  129   1.343   0.291   1.000
   38SOL     OW  130   1.576   1.662   0.307
   38SOL    HW1  131   1.665   1.708   0.310
   38SOL    HW2  132   1.555   1.638   0.212
   39SOL     OW  133   0.807   0.605   1.465
   39SOL    HW1  134   0.760   0.602   1.554
   39SOL    HW2  135   0.756   0.550   1.399
   40SOL     OW  136   1.394   0.469   1.674
   40SOL    HW1  137   1.374   0.512   1.762
   40SOL    HW2  138   1.472   0.407   1.683
   41SOL     OW  139   0.973   0.890   1.572
   41SOL    HW1  140   1.019   0.806   1.543
   41SOL    HW2  141   0.917   0.924   1.497
   42SOL     OW  142   0.991   0.410   1.242
   42SOL    HW1  143   0.914   0.444   1.296
   42SOL    HW2  144   0.957   0.359   1.163
   43SOL     OW  145   1.041   0.701   0.429
   43SOL    HW1  146   1.067   0.697   0.525
   43SOL    HW2  147   0.956   0.650   0.415
   44SOL     OW  148   0.076   0.811   0.789
   44SOL    HW1  149   0.175   0.799   0.798
   44SOL    HW2  150   0.052   0.906   0.810
   45SOL     OW  151   0.130   1.821   1.571
   45SOL    HW1  152   0.120   1.806   1.670
   45SOL    HW2  153   0.044   1.857   1.535
   46SOL     OW  154   0.865   0.348   0.195
   46SOL    HW1  155   0.924   0.411   0.146
   46SOL    HW2  156   0.884   0.254   0.166
   47SOL     OW  157   1.719   0.585   1.831
   47SOL    HW1  158   1.693   0.674   1.795
   47SOL    HW2  159   1.717   0.517   1.758
   48SOL     OW  160   1.362   1.144   0.545
   48SOL    HW1  161   1.445   1.115   0.497
   48SOL    HW2  162   1.313   1.211   0.489
   49SOL     OW  163   0.550   0.196   0.885
   49SOL    HW1  164   0.545   0.191   0.985
   49SOL    HW2  165   0.552   0.292   0.856
   50SOL     OW  166   1.008   1.456   0.477
   50SOL    HW1  167   0.962   1.528   0.425
   50SOL    HW2  168   1.004   1.476   0.575
   51SOL     OW  169   0.351   1.801   0.853
   51SOL    HW1  170   0.401   1.715   0.859
   51SOL    HW2  171   0.416   1.878   0.850
   52SOL     OW  172   1.795   1.066   0.873
   52SOL    HW1  173   1.733   1.051   0.797
   52SOL    HW2  174   1.743   1.077   0.958
   53SOL     OW  175   0.321   0.943   0.242
   53SOL    HW1  176   0.403   0.982   0.200
   53SOL    HW2  177   0.294   0.861   0.193
   54SOL     OW  178   1.458   0.735   0.728
   54SOL    HW1  179   1.453   0.670   0.803
   54SOL    HW2  180   1.538   0.794   0.741
   55SOL     OW  181   0.461   1.266   1.727
   55SOL    HW1  182   0.411   1.267   1.641
   55SOL    HW2  183   0.398   1.248   1.803
   56SOL     OW  184   1.111   1.776   0.237
   56SOL    HW1  185   1.051   1.714   0.287
   56SOL    HW2  186   1.142   1.732   0.152
   57SOL     OW  187   0.202   0.285   1.498
   57SOL    HW1  188   0.122   0.345   1.485
   57SOL    HW2  189   0.192   0.236   1.584
   58SOL     OW  190   1.632   1.377   0.081
   58SOL    HW1  191   1.600   1.471   0.071
   58SOL    HW2  192   1.556   1.314   0.069
   59SOL     OW  193   0.464   1.743   0.323
   59SOL    HW1  194   0.497   1.782   0.409
   59SOL    HW2  195   0.540   1.736   0.258
   60SOL     OW  196   1.400   0.107   0.426
   60SOL    HW1  197   1.376   0.070   0.336
   60SOL    HW2  198   1.499   0.123   0.430
   61SOL     OW  199   0.249   1.785   1.241
   61SOL    HW1  200   0.306   1.720   1.291
   61SOL    HW2  201   0.233   1.752   1.148
   62SOL     OW  202   0.940   1.698   0.904
   62SOL    HW1  203   1.020   1.641   0.925
   62SOL    HW2  204   0.891   1.658   0.827
   63SOL     OW  205   0.382   0.700   0.480
   63SOL    HW1  206   0.427   0.610   0.477
   63SOL    HW2  207   0.288   0.689   0.513
   64SOL     OW  208   1.547   0.222   1.729
   64SOL    HW1  209   1.542   0.259   1.821
   64SOL    HW2  210   1.475   0.153   1.717
   65SOL     OW  211   0.614   0.122   0.117
   65SOL    HW1  212   0.712   0.100   0.124
   65SOL    HW2  213   0.583   0.105   0.024
   66SOL     OW  214   0.781   0.264   1.749
   66SOL    HW1  215   0.848   0.203   1.792
   66SOL    HW2  216   0.708   0.283   1.814
   67SOL     OW  217   0.888   1.514   1.195
   67SOL    HW1  218   0.865   1.489   1.101
   67SOL    HW2  219   0.949   1.445   1.234
   68SOL     OW  220   1.351   0.590   1.433
   68SOL    HW1  221   1.379   0.547   1.518
   68SOL    HW2  222   1.376   0.686   1.434
   69SOL     OW  223   0.803   1.402   0.924
   69SOL    HW1  224   0.893   1.416   0.882
   69SOL    HW2  225   0.732   1.404   0.853
   70SOL     OW  226   0.922   0.503   0.899
   70SOL    HW1  227   0.897   0.494   0.803
   70SOL    HW2  228   0.970   0.421   0.930
   71SOL     OW  229   0.539   0.064   0.512
   71SOL    HW1  230   0.458   0.065   0.570
   71SOL    HW2  231   0.542   0.147   0.457
   72SOL     OW  232   1.434   1.188   0.041
   72SOL    HW1  233   1.466   1.112   0.098
   72SOL    HW2  234   1.342   1.215   0.071
   73SOL     OW  235   0.297   0.035   0.171
   73SOL    HW1  236   0.346   0.119   0.150
   73SOL    HW2  237   0.359  -0.030   0.216
   74SOL     OW  238   0.935   0.236   0.480
   74SOL    HW1  239   0.887   0.277   0.402
   74SOL    HW2  240   1.034   0.234   0.461
   75SOL     OW  241   1.076   0.683   1.464
   75SOL    HW1  242   0.996   0.622   1.467
   75SOL    HW2  243   1.157   0.630   1.440
   76SOL     OW  244   1.227   1.570   0.793
   76SOL    HW1  245   1.248   1.644   0.728
   76SOL    HW2  246   1.295   1.570   0.866
   77SOL     OW  247   0.459   1.152   0.741
   77SOL    HW1  248   0.388   1.125   0.806
   77SOL    HW2  249   0.433   1.124   0.648
   78SOL     OW  250   1.271   1.797   0.591
   78SOL    HW1  251   1.315   1.861   0.527
   78SOL    HW2  252   1.221   1.849   0.661
   79SOL     OW  253   1.032   0.549   0.016
   79SOL    HW1  254   0.991   0.631  -0.023
   79SOL    HW2  255   1.096   0.575   0.089
   80SOL     OW  256   0.078   0.556   1.386
   80SOL    HW1  257   0.170   0.555   1.345
   80SOL    HW2  258   0.072   0.630   1.453
   81SOL     OW  259   0.561   0.222   1.147
   81SOL    HW1  260   0.599   0.138   1.184
   81SOL    HW2  261   0.473   0.241   1.191
   82SOL     OW  262   0.866   0.454   0.642
   82SOL    HW1  263   0.834   0.526   0.580
   82SOL    HW2  264   0.890   0.373   0.589
   83SOL     OW  265   1.017   0.039   0.753
   83SOL    HW1  266   0.945   0.044   0.684
   83SOL    HW2  267   0.993  -0.030   0.822
   84SOL     OW  268   1.429   1.173   0.867
   84SOL    HW1  269   1.374   1.089   0.860
   84SOL    HW2  270   1.455   1.202   0.775
   85SOL     OW  271   1.466   0.590   0.992
   85SOL    HW1  272   1.436   0.495   0.999
   85SOL    HW2  273   1.539   0.606   1.058
   86SOL     OW  274   1.857   0.833   0.377
   86SOL    HW1  275   1.899   0.769   0.441
   86SOL    HW2  276   1.819   0.782   0.299
   87SOL     OW  277   0.488   1.385   0.174
   87SOL    HW1  278   0.401   1.370   0.221
   87SOL    HW2  279   0.471   1.411   0.079
   88SOL     OW  280   1.664   1.280   0.657
   88SOL    HW1  281   1.763   1.288   0.671
   88SOL    HW2  282   1.619   1.364   0.688
   89SOL     OW  283   1.390   0.575   0.078
   89SOL    HW1  284   1.336   0.554   0.159
   89SOL    HW2  285   1.481   0.534   0.087
   90SOL     OW  286   0.527   0.256   0.328
   90SOL    HW1  287   0.554   0.197   0.253
   90SOL    HW2  288   0.527   0.351   0.297
   91SOL     OW  289   1.754   1.223   1.588
   91SOL    HW1  290   1.845   1.184   1.575
   91SOL    HW2  291   1.762   1.319   1.612
   92SOL     OW  292   1.592   1.629   1.625
   92SOL    HW1  293   1.619   1.663   1.535
   92SOL    HW2  294   1.671   1.591   1.671
   93SOL     OW  295   1.111   1.195   1.100
   93SOL    HW1  296   1.071   1.239   1.181
   93SOL    HW2  297   1.070   1.232   1.017
   94SOL     OW  298   0.915   0.089   1.402
   94SOL    HW1  299   0.940   0.069   1.307
   94SOL    HW2  300   0.987   0.145   1.444
   95SOL     OW  301   0.980   1.116   1.719
   95SOL    HW1  302   0.881   1.122   1.729
   95SOL    HW2  303   1.003   1.036   1.663
   96SOL     OW  304   0.705   1.050   0.368
   96SOL    HW1  305   0.691   1.057   0.467
   96SOL    HW2  306   0.789   0.999   0.350
   97SOL     OW  307   0.410   0.813   1.251
   97SOL    HW1  308   0.496   0.825   1.301
   97SOL    HW2  309   0.368   0.726   1.278
   98SOL     OW  310   1.274   0.386   1.262
   98SOL    HW1  311   1.295   0.460   1.326
   98SOL    HW2  312   1.185   0.403   1.219
   99SOL     OW  313   0.064   1.564   1.331
   99SOL    HW1  314   0.018   1.646   1.297
   99SOL    HW2  315   0.162   1.583   1.340
  100SOL     OW  316   0.367   1.100   0.501
  100SOL    HW1  317   0.360   1.183   0.445
  100SOL    HW2  318   0.371   1.020   0.441
  101SOL     OW  319   0.566   0.537   0.865
  101SOL    HW1  320   0.578   0.603   0.791
  101SOL    HW2  321   0.612   0.571   0.948
  102SOL     OW  322   1.252   1.348   0.388
  102SOL    HW1  323   1.302   1.425   0.428
  102SOL    HW2  324   1.157   1.350   0.420
  103SOL     OW  325   1.582   0.639   0.472
  103SOL    HW1  326   1.551   0.700   0.545
  103SOL    HW2  327   1.632   0.691   0.403
  104SOL     OW  328   0.354   1.510   1.329
  104SOL    HW1  329   0.333   1.466   1.242
  104SOL    HW2  330   0.451   1.536   1.332
  105SOL     OW  331   0.402   0.751   1.598
  105SOL    HW1  332   0.470   0.806   1.551
  105SOL    HW2  333   0.442   0.663   1.625
  106SOL     OW  334   1.587   0.779   1.670
  106SOL    HW1  335   1.495   0.817   1.665
  106SOL    HW2  336   1.647   0.826   1.605
  107SOL     OW  337   1.013   0.105   1.770
  107SOL    HW1  338   1.019   0.190   1.718
  107SOL    HW2  339   1.045   0.029   1.713
  108SOL     OW  340   0.504   0.050   1.740
  108SOL    HW1  341   0.462  -0.007   1.670
  108SOL    HW2  342   0.438   0.119   1.772
  109SOL     OW  343   0.573   0.870   1.029
  109SOL    HW1  344   0.617   0.959   1.020
  109SOL    HW2  345   0.510   0.870   1.106
  110SOL     OW  346   1.360   0.862   1.045
  110SOL    HW1  347   1.285   0.862   0.979
  110SOL    HW2  348   1.397   0.770   1.054
  111SOL     OW  349   1.209   0.525   0.275
  111SOL    HW1  350   1.222   0.441   0.329
  111SOL    HW2  351   1.180   0.599   0.335
  112SOL     OW  352   0.307   0.213   1.231
  112SOL    HW1  353   0.284   0.250   1.321
  112SOL    HW2  354   0.277   0.118   1.225
  113SOL     OW  355   0.037   1.310   1.282
  113SOL    HW1  356   0.090   1.261   1.350
  113SOL    HW2  357   0.059   1.408   1.287
  114SOL     OW  358   0.732   0.634   1.064
  114SOL    HW1  359   0.791   0.608   0.988
  114SOL    HW2  360   0.704   0.730   1.053
  115SOL     OW  361   1.728   0.935   1.854
  115SOL    HW1  362   1.682   0.928   1.765
  115SOL    HW2  363   1.666   0.979   1.920
  116SOL     OW  364   0.307   0.063   0.618
  116SOL    HW1  365   0.296   0.157   0.651
  116SOL    HW2  366   0.302   0.000   0.695
  117SOL     OW  367   1.622   0.367   0.374
  117SOL    HW1  368   1.624   0.291   0.438
  117SOL    HW2  369   1.574   0.444   0.414
  118SOL     OW  370   1.023   0.766   0.966
  118SOL    HW1  371   1.038   0.787   1.062
  118SOL    HW2  372   0.993   0.671   0.957
  119SOL     OW  373   0.980   1.573   1.700
  119SOL    HW1  374   0.960   1.617   1.612
  119SOL    HW2  375   1.019   1.482   1.684
  120SOL     OW  376   1.859   1.518   1.605
  120SOL    HW1  377   1.873   1.545   1.510
  120SOL    HW2  378   1.942   1.540   1.658
  121SOL     OW  379   0.350   0.898   1.804
  121SOL    HW1  380   0.426   0.942   1.852
  121SOL    HW2  381   0.385   0.851   1.722
  122SOL     OW  382   1.540   0.274   0.125
  122SOL    HW1  383   1.479   0.199   0.148
  122SOL    HW2  384   1.562   0.326   0.208
  123SOL     OW  385   1.303   0.838   0.042
  123SOL    HW1  386   1.337   0.745   0.057
  123SOL    HW2  387   1.321   0.865  -0.053
  124SOL     OW  388   1.068   1.333   0.849
  124SOL    HW1  389   1.075   1.249   0.794
  124SOL    HW2  390   1.130   1.402   0.813
  125SOL     OW  391   0.319   0.810   0.949
  125SOL    HW1  392   0.412   0.846   0.954
  125SOL    HW2  393   0.313   0.725   1.001
  126SOL     OW  394   0.339   0.509   1.006
  126SOL    HW1  395   0.287   0.426   0.989
  126SOL    HW2  396   0.416   0.514   0.942
  127SOL     OW  397   1.138   0.380   1.678
  127SOL    HW1  398   1.093   0.443   1.742
  127SOL    HW2  399   1.231   0.411   1.661
  128SOL     OW  400   1.160   0.207   1.477
  128SOL    HW1  401   1.160   0.271   1.554
  128SOL    HW2  402   1.188   0.255   1.394
  129SOL     OW  403   0.008   1.326   0.200
  129SOL    HW1  404  -0.085   1.347   0.169
  129SOL    HW2  405   0.018   1.227   0.213
  130SOL     OW  406   0.088   1.801   0.927
  130SOL    HW1  407   0.046   1.715   0.900
  130SOL    HW2  408   0.182   1.804   0.893
  131SOL     OW  409   0.504   1.568   0.910
  131SOL    HW1  410   0.570   1.642   0.919
  131SOL    HW2  411   0.548   1.489   0.868
  132SOL     OW  412   1.002   0.796   1.238
  132SOL    HW1  413   1.043   0.764   1.324
  132SOL    HW2  414   0.906   0.769   1.235
  133SOL     OW  415   0.040   0.544   1.114
  133SOL    HW1  416   0.125   0.511   1.073
  133SOL    HW2  417   0.053   0.559   1.212
  134SOL     OW  418   0.189   0.520   1.722
  134SOL    HW1  419   0.248   0.480   1.652
  134SOL    HW2  420   0.131   0.591   1.681
  135SOL     OW  421   1.369   0.950   1.660
  135SOL    HW1  422   1.408   1.039   1.680
  135SOL    HW2  423   1.379   0.930   1.563
  136SOL     OW  424   0.815   0.572   0.325
  136SOL    HW1  425   0.822   0.483   0.279
  136SOL    HW2  426   0.721   0.606   0.317
  137SOL     OW  427   1.657   0.604   1.206
  137SOL    HW1  428   1.619   0.535   1.268
  137SOL    HW2  429   1.739   0.568   1.162
  138SOL     OW  430   0.252   1.564   1.744
  138SOL    HW1  431   0.222   1.621   1.820
  138SOL    HW2  432   0.245   1.467   1.770
  139SOL     OW  433   0.671   0.464   1.269
  139SOL    HW1  434   0.637   0.375   1.239
  139SOL    HW2  435   0.697   0.518   1.189
  140SOL     OW  436   0.930   1.678   1.465
  140SOL    HW1  437   0.906   1.660   1.370
  140SOL    HW2  438   0.960   1.772   1.475
  141SOL     OW  439   0.473   0.500   0.191
  141SOL    HW1  440   0.534   0.580   0.195
  141SOL    HW2  441   0.378   0.531   0.198
  142SOL     OW  442   0.159   1.137   1.466
  142SOL    HW1  443   0.181   1.076   1.542
  142SOL    HW2  444   0.169   1.088   1.380
  143SOL     OW  445   1.302   0.855   0.309
  143SOL    HW1  446   1.216   0.824   0.351
  143SOL    HW2  447   1.298   0.841   0.210
  144SOL     OW  448   1.759   1.747   1.154
  144SOL    HW1  449   1.820   1.777   1.081
  144SOL    HW2  450   1.721   1.658   1.132
  145SOL     OW  451   0.083   1.258   1.022
  145SOL    HW1  452   0.078   1.257   1.122
  145SOL    HW2  453   0.000   1.217   0.984
  146SOL     OW  454   0.688   1.662   1.716
  146SOL    HW1  455   0.632   1.743   1.725
  146SOL    HW2  456   0.740   1.666   1.630
  147SOL     OW  457   0.903   0.086   0.133
  147SOL    HW1  458   0.954   0.087   0.047
  147SOL    HW2  459   0.959   0.044   0.204
  148SOL     OW  460   1.726   0.135   0.523
  148SOL    HW1  461   1.799   0.118   0.456
  148SOL    HW2  462   1.695   0.048   0.561
  149SOL     OW  463   1.388   1.573   0.477
  149SOL    HW1  464   1.455   1.585   0.403
  149SOL    HW2  465   1.348   1.662   0.500
  150SOL     OW  466   0.130   1.794   1.851
  150SOL    HW1  467   0.089   1.720   1.904
  150SOL    HW2  468   0.194   1.845   1.909
  151SOL     OW  469   1.280   0.927   0.672
  151SOL    HW1  470   1.340   0.846   0.674
  151SOL    HW2  471   1.320   0.996   0.612
  152SOL     OW  472   0.830   1.273   1.422
  152SOL    HW1  473   0.825   1.306   1.517
  152SOL    HW2  474   0.744   1.292   1.376
  153SOL     OW  475   0.672   1.616   0.154
  153SOL    HW1  476   0.681   1.626   0.055
  153SOL    HW2  477   0.632   1.527   0.175
  154SOL     OW  478   1.650   1.720   1.394
  154SOL    HW1  479   1.703   1.730   1.310
  154SOL    HW2  480   1.623   1.810   1.428
  155SOL     OW  481   1.841   0.175   0.963
  155SOL    HW1  482   1.880   0.090   0.927
  155SOL    HW2  483   1.743   0.177   0.944
  156SOL     OW  484   0.263   0.326   0.720
  156SOL    HW1  485   0.184   0.377   0.686
  156SOL    HW2  486   0.254   0.311   0.818
  157SOL     OW  487   1.194   1.612   0.031
  157SOL    HW1  488   1.200   1.519   0.068
  157SOL    HW2  489   1.135   1.612  -0.049
  158SOL     OW  490   0.822   1.002   1.372
  158SOL    HW1  491   0.862   1.001   1.280
  158SOL    HW2  492   0.832   1.094   1.412
  159SOL     OW  493   0.916   0.910   0.291
  159SOL    HW1  494   0.979   0.948   0.223
  159SOL    HW2  495   0.956   0.827   0.330
  160SOL     OW  496   1.504   1.607   0.044
  160SOL    HW1  497   1.412   1.644   0.051
  160SOL    HW2  498   1.542   1.627  -0.046
  161SOL     OW  499   0.372   1.288   1.490
  161SOL    HW1  500   0.359   1.381   1.456
  161SOL    HW2  501   0.288   1.236   1.477
  162SOL     OW  502   1.614   1.292   1.289
  162SOL    HW1  503   1.674   1.295   1.369
  162SOL    HW2  504   1.539   1.356   1.302
  163SOL     OW  505   1.039   1.098   0.696
  163SOL    HW1  506   0.969   1.051   0.750
  163SOL    HW2  507   1.098   1.030   0.653
  164SOL     OW  508   1.014   0.236   0.971
  164SOL    HW1  509   1.006   0.200   0.878
  164SOL    HW2  510   1.012   0.160   1.036
  165SOL     OW  511   0.590   1.487   0.491
  165SOL    HW1  512   0.632   1.429   0.421
  165SOL    HW2  513   0.546   1.566   0.447
  166SOL     OW  514   1.709   0.385   1.381
  166SOL    HW1  515   1.782   0.454   1.385
  166SOL    HW2  516   1.737   0.310   1.322
  167SOL     OW  517   0.255   1.348   0.290
  167SOL    HW1  518   0.159   1.349   0.263
  167SOL    HW2  519   0.267   1.401   0.374
  168SOL     OW  520   0.105   1.013   1.726
  168SOL    HW1  521   0.028   0.980   1.780
  168SOL    HW2  522   0.190   0.983   1.768
  169SOL     OW  523   0.672   0.203   1.489
  169SOL    HW1  524   0.762   0.187   1.449
  169SOL    HW2  525   0.680   0.208   1.588
  170SOL     OW  526   0.075   0.345   0.033
  170SOL    HW1  527  -0.017   0.317   0.004
  170SOL    HW2  528   0.106   0.422  -0.023
  171SOL     OW  529   1.440   0.856   1.398
  171SOL    HW1  530   1.383   0.908   1.335
  171SOL    HW2  531   1.536   0.868   1.374
  172SOL     OW  532   0.072   0.166   0.318
  172SOL    HW1  533   0.055   0.249   0.264
  172SOL    HW2  534   0.162   0.129   0.296
  173SOL     OW  535   1.183   1.335   0.119
  173SOL    HW1  536   1.084   1.324   0.121
  173SOL    HW2  537   1.217   1.350   0.212
  174SOL     OW  538   0.613   0.842   1.431
  174SOL    HW1  539   0.669   0.923   1.414
  174SOL    HW2  540   0.672   0.762   1.434
  175SOL     OW  541   1.493   1.767   0.959
  175SOL    HW1  542   1.526   1.831   0.890
  175SOL    HW2  543   1.559   1.761   1.034
  176SOL     OW  544   0.716   0.565   1.708
  176SOL    HW1  545   0.735   0.630   1.782
  176SOL    HW2  546   0.776   0.485   1.717
  177SOL     OW  547   1.450   1.220   1.633
  177SOL    HW1  548   1.441   1.210   1.732
  177SOL    HW2  549   1.546   1.213   1.607
  178SOL     OW  550   0.390   1.741   1.560
  178SOL    HW1  551   0.299   1.782   1.558
  178SOL    HW2  552   0.383   1.647   1.592
  179SOL     OW  553   1.674   0.883   1.254
  179SOL    HW1  554   1.647   0.794   1.217
  179SOL    HW2  555   1.675   0.951   1.181
  180SOL     OW  556   1.225   0.325   0.449
  180SOL    HW1  557   1.290   0.251   0.438
  180SOL    HW2  558   1.245   0.375   0.533
  181SOL     OW  559   0.594   0.745   0.652
  181SOL    HW1  560   0.644   0.830   0.633
  181SOL    HW2  561   0.506   0.747   0.604
  182SOL     OW  562   1.777   0.342   1.642
  182SOL    HW1  563   1.760   0.373   1.548
  182SOL    HW2  564   1.693   0.305   1.680
  183SOL     OW  565   1.730   0.934   1.517
  183SOL    HW1  566   1.768   1.025   1.532
  183SOL    HW2  567   1.722   0.917   1.418
  184SOL     OW  568   0.859   1.374   0.016
  184SOL    HW1  569   0.813   1.389   0.104
  184SOL    HW2  570   0.903   1.459  -0.014
  185SOL     OW  571   0.661   1.790   0.953
  185SOL    HW1  572   0.615   1.878   0.940
  185SOL    HW2  573   0.760   1.802   0.946
  186SOL     OW  574   0.859   0.956   0.861
  186SOL    HW1  575   0.913   0.887   0.909
  186SOL    HW2  576   0.827   1.025   0.927
  187SOL     OW  577   1.083   0.984   0.087
  187SOL    HW1  578   1.060   1.037   0.005
  187SOL    HW2  579   1.164   0.928   0.068
  188SOL     OW  580   1.861   1.569   0.851
  188SOL    HW1  581   1.790   1.557   0.781
  188SOL    HW2  582   1.862   1.490   0.911
  189SOL     OW  583   0.221   1.314   1.844
  189SOL    HW1  584   0.156   1.241   1.823
  189SOL    HW2  585   0.225   1.328   1.942
  190SOL     OW  586   0.079   1.240   0.653
  190SOL    HW1  587   0.078   1.193   0.741
  190SOL    HW2  588   0.161   1.212   0.602
  191SOL     OW  589   0.672   1.391   1.624
  191SOL    HW1  590   0.594   1.341   1.662
  191SOL    HW2  591   0.669   1.486   1.655
  192SOL     OW  592   1.824   0.192   1.227
  192SOL    HW1  593   1.820   0.102   1.271
  192SOL    HW2  594   1.827   0.181   1.128
  193SOL     OW  595   0.428   0.424   0.520
  193SOL    HW1  596   0.458   0.352   0.458
  193SOL    HW2  597   0.389   0.384   0.603
  194SOL     OW  598   1.705   1.487   1.104
  194SOL    HW1  599   1.612   1.462   1.077
  194SOL    HW2  600   1.731   1.437   1.186
  195SOL     OW  601   0.317   0.547   1.280
  195SOL    HW1  602   0.355   0.488   1.352
  195SOL    HW2  603   0.357   0.521   1.192
  196SOL     OW  604   0.812   1.586   0.687
  196SOL    HW1  605   0.844   1.596   0.593
  196SOL    HW2  606   0.733   1.524   0.689
  197SOL     OW  607   1.424   0.214   1.112
  197SOL    HW1  608   1.476   0.149   1.167
  197SOL    HW2  609   1.375   0.277   1.173
  198SOL     OW  610   1.001   0.034   1.154
  198SOL    HW1  611   0.938  -0.038   1.123
  198SOL    HW2  612   1.094  -0.002   1.154
  199SOL     OW  613   0.770   1.330   0.301
  199SOL    HW1  614   0.724   1.243   0.318
  199SOL    HW2  615   0.861   1.327   0.342
  200SOL     OW  616   0.618   1.567   1.284
  200SOL    HW1  617   0.613   1.649   1.341
  200SOL    HW2  618   0.707   1.564   1.239
  201SOL     OW  619   1.352   0.052   0.168
  201SOL    HW1  620   1.387   0.011   0.084
  201SOL    HW2  621   1.262   0.014   0.188
  202SOL     OW  622   1.300   0.453   0.691
  202SOL    HW1  623   1.241   0.533   0.695
  202SOL    HW2  624   1.315   0.418   0.784
  203SOL     OW  625   1.593   0.221   0.882
  203SOL    HW1  626   1.509   0.220   0.936
  203SOL    HW2  627   1.595   0.304   0.826
  204SOL     OW  628   0.039   1.077   0.300
  204SOL    HW1  629   0.138   1.066   0.291
  204SOL    HW2  630  -0.001   0.991   0.332
  205SOL     OW  631   0.875   1.646   0.337
  205SOL    HW1  632   0.798   1.611   0.283
  205SOL    HW2  633   0.843   1.717   0.399
  206SOL     OW  634   0.230   0.628   1.975
  206SOL    HW1  635   0.137   0.626   2.012
  206SOL    HW2  636   0.231   0.589   1.883
  207SOL     OW  637   1.135   0.703   2.579
  207SOL    HW1  638   1.192   0.781   2.554
  207SOL    HW2  639   1.075   0.729   2.655
  208SOL     OW  640   1.755   0.607   2.093
  208SOL    HW1  641   1.743   0.594   1.994
  208SOL    HW2  642   1.725   0.526   2.142
  209SOL     OW  643   1.603   0.447   2.599
  209SOL    HW1  644   1.529   0.493   2.549
  209SOL    HW2  645   1.654   0.515   2.652
  210SOL     OW  646   0.231   1.713   2.345
  210SOL    HW1  647   0.265   1.790   2.399
  210SOL    HW2  648   0.275   1.713   2.255
  211SOL     OW  649   0.230   1.434   2.400
  211SOL    HW1  650   0.204   1.530   2.400
  211SOL    HW2  651   0.159   1.380   2.445
  212SOL     OW  652   0.606   0.964   1.985
  212SOL    HW1  653   0.613   1.048   1.931
  212SOL    HW2  654   0.652   0.977   2.073
  213SOL     OW  655   0.122   0.643   2.425
  213SOL    HW1  656   0.077   0.555   2.442
  213SOL    HW2  657   0.121   0.697   2.509
  214SOL     OW  658   1.842   1.767   2.221
  214SOL    HW1  659   1.896   1.738   2.301
  214SOL    HW2  660   1.872   1.857   2.192
  215SOL     OW  661   0.027   1.596   1.979
  215SOL    HW1  662   0.008   1.500   2.000
  215SOL    HW2  663  -0.006   1.654   2.054
  216SOL     OW  664   1.689   0.922   2.474
  216SOL    HW1  665   1.784   0.893   2.482
  216SOL    HW2  666   1.681   0.987   2.399
  217SOL     OW  667   1.641   1.108   2.294
  217SOL    HW1  668   1.727   1.110   2.242
  217SOL    HW2  669   1.655   1.155   2.382
  218SOL     OW  670   0.613   1.365   2.588
  218SOL    HW1  671   0.564   1.278   2.597
  218SOL    HW2  672   0.590   1.408   2.501
  219SOL     OW  673   0.809   0.004   2.364
  219SOL    HW1  674   0.849   0.095   2.355
  219SOL    HW2  675   0.709   0.012   2.370
  220SOL     OW  676   1.525   0.999   2.052
  220SOL    HW1  677   1.462   0.923   2.065
  220SOL    HW2  678   1.573   1.017   2.138
  221SOL     OW  679   1.466   1.417   2.815
  221SOL    HW1  680   1.407   1.423   2.895
  221SOL    HW2  681   1.451   1.329   2.769
  222SOL     OW  682   0.598   0.729   2.132
  222SOL    HW1  683   0.622   0.798   2.064
  222SOL    HW2  684   0.520   0.762   2.186
  223SOL     OW  685   1.281   0.345   2.806
  223SOL    HW1  686   1.195   0.295   2.793
  223SOL    HW2  687   1.343   0.291   2.862
  224SOL     OW  688   1.576   1.662   2.169
  224SOL    HW1  689   1.665   1.708   2.172
  224SOL    HW2  690   1.555   1.638   2.074
  225SOL     OW  691   1.041   0.701   2.291
  225SOL    HW1  692   1.067   0.697   2.387
  225SOL    HW2  693   0.956   0.650   2.277
  226SOL     OW  694   0.076   0.811   2.651
  226SOL    HW1  695   0.175   0.799   2.660
  226SOL    HW2  696   0.052   0.906   2.672
  227SOL     OW  697   0.865   0.348   2.057
  227SOL    HW1  698   0.924   0.411   2.008
  227SOL    HW2  699   0.884   0.254   2.028
  228SOL     OW  700   1.362   1.144   2.407
  228SOL    HW1  701   1.445   1.115   2.359
  228SOL    HW2  702   1.313   1.211   2.351
  229SOL     OW  703   1.008   1.456   2.339
  229SOL    HW1  704   0.962   1.528   2.287
  229SOL    HW2  705   1.004   1.476   2.437
  230SOL     OW  706   0.351   1.801   2.715
  230SOL    HW1  707   0.401   1.715   2.721
  230SOL    HW2  708   0.416   1.878   2.712
  231SOL     OW  709   1.795   1.066   2.735
  231SOL    HW1  710   1.733   1.051   2.659
  231SOL    HW2  711   1.743   1.077   2.820
  232SOL     OW  712   0.321   0.943   2.104
  232SOL    HW1  713   0.403   0.982   2.062
  232SOL    HW2  714   0.294   0.861   2.055
  233SOL     OW  715   1.111   1.776   2.099
  233SOL    HW1  716   1.051   1.714   2.149
  233SOL    HW2  717   1.142   1.732   2.014
  234SOL     OW  718   1.632   1.377   1.943
  234SOL    HW1  719   1.600   1.471   1.933
  234SOL    HW2  720   1.556   1.314   1.931
  235SOL     OW  721   0.464   1.743   2.185
  235SOL    HW1  722   0.497   1.782   2.271
  235SOL    HW2  723   0.540   1.736   2.120
  236SOL     OW  724   1.400   0.107   2.288
  236SOL    HW1  725   1.376   0.070   2.198
  236SOL    HW2  726   1.499   0.123   2.292
  237SOL     OW  727   0.382   0.700   2.342
  237SOL    HW1  728   0.427   0.610   2.339
  237SOL    HW2  729   0.288   0.689   2.375
  238SOL     OW  730   0.614   0.122   1.979
  238SOL    HW1  731   0.712   0.100   1.986
  238SOL    HW2  732   0.583   0.105   1.886
  239SOL     OW  733   0.539   0.064   2.374
  239SOL    HW1  734   0.458   0.065   2.432
  239SOL    HW2  735   0.542   0.147   2.319
  240SOL     OW  736   1.434   1.188   1.903
  240SOL    HW1  737   1.466   1.112   1.960
  240SOL    HW2  738   1.342   1.215   1.933
  241SOL     OW  739   0.297   0.035   2.033
  241SOL    HW1  740   0.346   0.119   2.012
  241SOL    HW2  741   0.359  -0.030   2.078
  242SOL     OW  742   0.935   0.236   2.342
  242SOL    HW1  743   0.887   0.277   2.264
  242SOL    HW2  744   1.034   0.234   2.323
  243SOL     OW  745   0.459   1.152   2.603
  243SOL    HW1  746   0.388   1.125   2.668
  243SOL    HW2  747   0.433   1.124   2.510
  244SOL     OW  748   1.271   1.797   2.453
  244SOL    HW1  749   1.315   1.861   2.389
  244SOL    HW2  750   1.221   1.849   2.523
  245SOL     OW  751   1.032   0.549   1.878
  245SOL    HW1  752   0.991   0.631   1.839
  245SOL    HW2  753   1.096   0.575   1.951
  246SOL     OW  754   0.866   0.454   2.504
  246SOL    HW1  755   0.834   0.526   2.442
  246SOL    HW2  756   0.890   0.373   2.451
  247SOL     OW  757   1.466   0.590   2.854
  247SOL    HW1  758   1.436   0.495   2.861
  247SOL    HW2  759   1.539   0.606   2.920
  248SOL     OW  760   1.857   0.833   2.239
  248SOL    HW1  761   1.899   0.769   2.303
  248SOL    HW2  762   1.819   0.782   2.161
  249SOL     OW  763   0.488   1.385   2.036
  249SOL    HW1  764   0.401   1.370   2.083
  249SOL    HW2  765   0.471   1.411   1.941
  250SOL     OW  766   1.390   0.575   1.940
  250SOL    HW1  767   1.336   0.554   2.021
  250SOL    HW2  768   1.481   0.534   1.949
  251SOL     OW  769   0.527   0.256   2.190
  251SOL    HW1  770   0.554   0.197   2.115
  251SOL    HW2  771   0.527   0.351   2.159
  252SOL     OW  772   0.705   1.050   2.230
  252SOL    HW1  773   0.691   1.057   2.329
  252SOL    HW2  774   0.789   0.999   2.212
  253SOL     OW  775   0.367   1.100   2.363
  253SOL    HW1  776   0.360   1.183   2.307
  253SOL    HW2  777   0.371   1.020   2.303
  254SOL     OW  778   1.252   1.348   2.250
  254SOL    HW1  779   1.302   1.425   2.290
  254SOL    HW2  780   1.157   1.350   2.282
  255SOL     OW  781   1.582   0.639   2.334
  255SOL    HW1  782   1.551   0.700   2.407
  255SOL    HW2  783   1.632   0.691   2.265
  256SOL     OW  784   1.209   0.525   2.137
  256SOL    HW1  785   1.222   0.441   2.191
  256SOL    HW2  786   1.180   0.599   2.197
  257SOL     OW  787   0.307   0.063   2.480
  257SOL    HW1  788   0.296   0.157   2.513
  257SOL    HW2  789   0.302   0.000   2.557
  258SOL     OW  790   1.622   0.367   2.236
  258SOL    HW1  791   1.624   0.291   2.300
  258SOL    HW2  792   1.574   0.444   2.276
  259SOL     OW  793   1.540   0.274   1.987
  259SOL    HW1  794   1.479   0.199   2.010
  259SOL    HW2  795   1.562   0.326   2.070
  260SOL     OW  796   1.303   0.838   1.904
  260SOL    HW1  797   1.337   0.745   1.919
  260SOL    HW2  798   1.321   0.865   1.809
  261SOL     OW  799   0.008   1.326   2.062
  261SOL    HW1  800  -0.085   1.347   2.031
  261SOL    HW2  801   0.018   1.227   2.075
  262SOL     OW  802   0.815   0.572   2.187
  262SOL    HW1  803   0.822   0.483   2.141
  262SOL    HW2  804   0.721   0.606   2.179
  263SOL     OW  805   0.473   0.500   2.053
  263SOL    HW1  806   0.534   0.580   2.057
  263SOL    HW2  807   0.378   0.531   2.060
  264SOL     OW  808   1.302   0.855   2.171
  264SOL    HW1  809   1.216   0.824   2.213
  264SOL    HW2  810   1.298   0.841   2.072
  265SOL     OW  811   1.726   0.135   2.385
  265SOL    HW1  812   1.799   0.118   2.318
  265SOL    HW2  813   1.695   0.048   2.423
  266SOL     OW  814   1.388   1.573   2.339
  266SOL    HW1  815   1.455   1.585   2.265
  266SOL    HW2  816   1.348   1.662   2.362
  267SOL     OW  817   0.672   1.616   2.016
  267SOL    HW1  818   0.681   1.626   1.917
  267SOL    HW2  819   0.632   1.527   2.037
  268SOL     OW  820   1.841   0.175   2.825
  268SOL    HW1  821   1.880   0.090   2.789
  268SOL    HW2  822   1.743   0.177   2.806
  269SOL     OW  823   1.194   1.612   1.893
  269SOL    HW1  824   1.200   1.519   1.930
  269SOL    HW2  825   1.135   1.612   1.813
  270SOL     OW  826   0.916   0.910   2.153
  270SOL    HW1  827   0.979   0.948   2.085
  270SOL    HW2  828   0.956   0.827   2.192
  271SOL     OW  829   1.504   1.607   1.906
  271SOL    HW1  830   1.412   1.644   1.913
  271SOL    HW2  831   1.542   1.627   1.816
  272SOL     OW  832   0.590   1.487   2.353
  272SOL    HW1  833   0.632   1.429   2.283
  272SOL    HW2  834   0.546   1.566   2.309
  273SOL     OW  835   0.255   1.348   2.152
  273SOL    HW1  836   0.159   1.349   2.125
  273SOL    HW2  837   0.267   1.401   2.236
  274SOL     OW  838   0.075   0.345   1.895
  274SOL    HW1  839  -0.017   0.317   1.866
  274SOL    HW2  840   0.106   0.422   1.839
  275SOL     OW  841   0.072   0.166   2.180
  275SOL    HW1  842   0.055   0.249   2.126
  275SOL    HW2  843   0.162   0.129   2.158
  276SOL     OW  844   1.183   1.335   1.981
  276SOL    HW1  845   1.084   1.324   1.983
  276SOL    HW2  846   1.217   1.350   2.074
  277SOL     OW  847   1.225   0.325   2.311
  277SOL    HW1  848   1.290   0.251   2.300
  277SOL    HW2  849   1.245   0.375   2.395
  278SOL     OW  850   0.594   0.745   2.514
  278SOL    HW1  851   0.644   0.830   2.495
  278SOL    HW2  852   0.506   0.747   2.466
  279SOL     OW  853   0.859   1.374   1.878
  279SOL    HW1  854   0.813   1.389   1.966
  279SOL    HW2  855   0.903   1.459   1.848
  280SOL     OW  856   1.083   0.984   1.949
  280SOL    HW1  857   1.060   1.037   1.867
  280SOL    HW2  858   1.164   0.928   1.930
  281SOL     OW  859   0.079   1.240   2.515
  281SOL    HW1  860   0.078   1.193   2.603
  281SOL    HW2  861   0.161   1.212   2.464
  282SOL     OW  862   0.428   0.424   2.382
  282SOL    HW1  863   0.458   0.352   2.320
  282SOL    HW2  864   0.389   0.384   2.465
  283SOL     OW  865   0.812   1.586   2.549
  283SOL    HW1  866   0.844   1.596   2.455
  283SOL    HW2  867   0.733   1.524   2.551
  284SOL     OW  868   0.770   1.330   2.163
  284SOL    HW1  869   0.724   1.243   2.180
  284SOL    HW2  870   0.861   1.327   2.204
  285SOL     OW  871   1.352   0.052   2.030
  285SOL    HW1  872   1.387   0.011   1.946
  285SOL    HW2  873   1.262   0.014   2.050
  286SOL     OW  874   1.300   0.453   2.553
  286SOL    HW1  875   1.241   0.533   2.557
  286SOL    HW2  876   1.315   0.418   2.646
  287SOL     OW  877   0.039   1.077   2.162
  287SOL    HW1  878   0.138   1.066   2.153
  287SOL    HW2  879  -0.001   0.991   2.194
  288SOL     OW  880   0.875   1.646   2.199
  288SOL    HW1  881   0.798   1.611   2.145
  288SOL    HW2  882   0.843   1.717   2.261
  289SOL     OW  883   0.230   2.490   0.113
  289SOL    HW1  884   0.137   2.488   0.150
  289SOL    HW2  885   0.231   2.451   0.021
  290SOL     OW  886   0.225   2.137   0.996
  290SOL    HW1  887   0.260   2.120   1.088
  290SOL    HW2  888   0.137   2.092   0.984
  291SOL     OW  889   0.019   2.230   0.647
  291SOL    HW1  890  -0.063   2.273   0.686
  291SOL    HW2  891  -0.009   2.157   0.584
  292SOL     OW  892   1.755   2.469   0.231
  292SOL    HW1  893   1.743   2.456   0.132
  292SOL    HW2  894   1.725   2.388   0.280
  293SOL     OW  895   0.685   2.874   0.665
  293SOL    HW1  896   0.754   2.858   0.735
  293SOL    HW2  897   0.612   2.931   0.703
  294SOL     OW  898   0.438   2.254   1.499
  294SOL    HW1  899   0.520   2.198   1.508
  294SOL    HW2  900   0.357   2.196   1.503
  295SOL     OW  901   1.603   2.309   0.737
  295SOL    HW1  902   1.529   2.355   0.687
  295SOL    HW2  903   1.654   2.377   0.790
  296SOL     OW  904   1.594   1.976   1.480
  296SOL    HW1  905   1.576   2.043   1.408
  296SOL    HW2  906   1.591   2.022   1.569
  297SOL     OW  907   0.122   2.505   0.563
  297SOL    HW1  908   0.077   2.417   0.580
  297SOL    HW2  909   0.121   2.559   0.647
  298SOL     OW  910   0.113   2.599   1.597
  298SOL    HW1  911   0.201   2.586   1.642
  298SOL    HW2  912   0.100   2.696   1.575
  299SOL     OW  913   0.809   1.866   0.502
  299SOL    HW1  914   0.849   1.957   0.493
  299SOL    HW2  915   0.709   1.874   0.508
  300SOL     OW  916   0.317   2.113   1.801
  300SOL    HW1  917   0.388   2.184   1.807
  300SOL    HW2  918   0.229   2.152   1.829
  301SOL     OW  919   1.281   2.207   0.944
  301SOL    HW1  920   1.195   2.157   0.931
  301SOL    HW2  921   1.343   2.153   1.000
  302SOL     OW  922   0.807   2.467   1.465
  302SOL    HW1  923   0.760   2.464   1.554
  302SOL    HW2  924   0.756   2.412   1.399
  303SOL     OW  925   1.394   2.331   1.674
  303SOL    HW1  926   1.374   2.374   1.762
  303SOL    HW2  927   1.472   2.269   1.683
  304SOL     OW  928   0.991   2.272   1.242
  304SOL    HW1  929   0.914   2.306   1.296
  304SOL    HW2  930   0.957   2.221   1.163
  305SOL     OW  931   1.041   2.563   0.429
  305SOL    HW1  932   1.067   2.559   0.525
  305SOL    HW2  933   0.956   2.512   0.415
  306SOL     OW  934   0.076   2.673   0.789
  306SOL    HW1  935   0.175   2.661   0.798
  306SOL    HW2  936   0.052   2.768   0.810
  307SOL     OW  937   0.865   2.210   0.195
  307SOL    HW1  938   0.924   2.273   0.146
  307SOL    HW2  939   0.884   2.116   0.166
  308SOL     OW  940   1.719   2.447   1.831
  308SOL    HW1  941   1.693   2.536   1.795
  308SOL    HW2  942   1.717   2.379   1.758
  309SOL     OW  943   0.550   2.058   0.885
  309SOL    HW1  944   0.545   2.053   0.985
  309SOL    HW2  945   0.552   2.154   0.856
  310SOL     OW  946   1.458   2.597   0.728
  310SOL    HW1  947   1.453   2.532   0.803
  310SOL    HW2  948   1.538   2.656   0.741
  311SOL     OW  949   0.202   2.147   1.498
  311SOL    HW1  950   0.122   2.207   1.485
  311SOL    HW2  951   0.192   2.098   1.584
  312SOL     OW  952   1.400   1.969   0.426
  312SOL    HW1  953   1.376   1.932   0.336
  312SOL    HW2  954   1.499   1.985   0.430
  313SOL     OW  955   0.382   2.562   0.480
  313SOL    HW1  956   0.427   2.472   0.477
  313SOL    HW2  957   0.288   2.551   0.513
  314SOL     OW  958   1.547   2.084   1.729
  314SOL    HW1  959   1.542   2.121   1.821
  314SOL    HW2  960   1.475   2.015   1.717
  315SOL     OW  961   0.614   1.984   0.117
  315SOL    HW1  962   0.712   1.962   0.124
  315SOL    HW2  963   0.583   1.967   0.024
  316SOL     OW  964   0.781   2.126   1.749
  316SOL    HW1  965   0.848   2.065   1.792
  316SOL    HW2  966   0.708   2.145   1.814
  317SOL     OW  967   1.351   2.452   1.433
  317SOL    HW1  968   1.379   2.409   1.518
  317SOL    HW2  969   1.376   2.548   1.434
  318SOL     OW  970   0.922   2.365   0.899
  318SOL    HW1  971   0.897   2.356   0.803
  318SOL    HW2  972   0.970   2.283   0.930
  319SOL     OW  973   0.539   1.926   0.512
  319SOL    HW1  974   0.458   1.927   0.570
  319SOL    HW2  975   0.542   2.009   0.457
  320SOL     OW  976   0.935   2.098   0.480
  320SOL    HW1  977   0.887   2.139   0.402
  320SOL    HW2  978   1.034   2.096   0.461
  321SOL     OW  979   1.076   2.545   1.464
  321SOL    HW1  980   0.996   2.484   1.467
  321SOL    HW2  981   1.157   2.492   1.440
  322SOL     OW  982   1.032   2.411   0.016
  322SOL    HW1  983   0.991   2.493  -0.023
  322SOL    HW2  984   1.096   2.437   0.089
  323SOL     OW  985   0.078   2.418   1.386
  323SOL    HW1  986   0.170   2.417   1.345
  323SOL    HW2  987   0.072   2.492   1.453
  324SOL     OW  988   0.561   2.084   1.147
  324SOL    HW1  989   0.599   2.000   1.184
  324SOL    HW2  990   0.473   2.103   1.191
  325SOL     OW  991   0.866   2.316   0.642
  325SOL    HW1  992   0.834   2.388   0.580
  325SOL    HW2  993   0.890   2.235   0.589
  326SOL     OW  994   1.017   1.901   0.753
  326SOL    HW1  995   0.945   1.906   0.684
  326SOL    HW2  996   0.993   1.832   0.822
  327SOL     OW  997   1.466   2.452   0.992
  327SOL    HW1  998   1.436   2.357   0.999
  327SOL    HW2  999   1.539   2.468   1.058
  328SOL     OW 1000   1.390   2.437   0.078
  328SOL    HW1 1001   1.336   2.416   0.159
  328SOL    HW2 1002   1.481   2.396   0.087
  329SOL     OW 1003   0.527   2.118   0.328
  329SOL    HW1 1004   0.554   2.059   0.253
  329SOL    HW2 1005   0.527   2.213   0.297
  330SOL     OW 1006   0.915   1.951   1.402
  330SOL    HW1 1007   0.940   1.931   1.307
  330SOL    HW2 1008   0.987   2.007   1.444
  331SOL     OW 1009   1.274   2.248   1.262
  331SOL    HW1 1010   1.295   2.322   1.326
  331SOL    HW2 1011   1.185   2.265   1.219
  332SOL     OW 1012   0.566   2.399   0.865
  332SOL    HW1 1013   0.578   2.465   0.791
  332SOL    HW2 1014   0.612   2.433   0.948
  333SOL     OW 1015   1.582   2.501   0.472
  333SOL    HW1 1016   1.551   2.562   0.545
  333SOL    HW2 1017   1.632   2.553   0.403
  334SOL     OW 1018   1.013   1.967   1.770
  334SOL    HW1 1019   1.019   2.052   1.718
  334SOL    HW2 1020   1.045   1.891   1.713
  335SOL     OW 1021   0.504   1.912   1.740
  335SOL    HW1 1022   0.462   1.855   1.670
  335SOL    HW2 1023   0.438   1.981   1.772
  336SOL     OW 1024   1.209   2.387   0.275
  336SOL    HW1 1025   1.222   2.303   0.329
  336SOL    HW2 1026   1.180   2.461   0.335
  337SOL     OW 1027   0.307   2.075   1.231
  337SOL    HW1 1028   0.284   2.112   1.321
  337SOL    HW2 1029   0.277   1.980   1.225
  338SOL     OW 1030   0.732   2.496   1.064
  338SOL    HW1 1031   0.791   2.470   0.988
  338SOL    HW2 1032   0.704   2.592   1.053
  339SOL     OW 1033   0.307   1.925   0.618
  339SOL    HW1 1034   0.296   2.019   0.651
  339SOL    HW2 1035   0.302   1.862   0.695
  340SOL     OW 1036   1.622   2.229   0.374
  340SOL    HW1 1037   1.624   2.153   0.438
  340SOL    HW2 1038   1.574   2.306   0.414
  341SOL     OW 1039   1.540   2.136   0.125
  341SOL    HW1 1040   1.479   2.061   0.148
  341SOL    HW2 1041   1.562   2.188   0.208
  342SOL     OW 1042   0.319   2.672   0.949
  342SOL    HW1 1043   0.412   2.708   0.954
  342SOL    HW2 1044   0.313   2.587   1.001
  343SOL     OW 1045   0.339   2.371   1.006
  343SOL    HW1 1046   0.287   2.288   0.989
  343SOL    HW2 1047   0.416   2.376   0.942
  344SOL     OW 1048   1.138   2.242   1.678
  344SOL    HW1 1049   1.093   2.305   1.742
  344SOL    HW2 1050   1.231   2.273   1.661
  345SOL     OW 1051   1.160   2.069   1.477
  345SOL    HW1 1052   1.160   2.133   1.554
  345SOL    HW2 1053   1.188   2.117   1.394
  346SOL     OW 1054   0.040   2.406   1.114
  346SOL    HW1 1055   0.125   2.373   1.073
  346SOL    HW2 1056   0.053   2.421   1.212
  347SOL     OW 1057   0.189   2.382   1.722
  347SOL    HW1 1058   0.248   2.342   1.652
  347SOL    HW2 1059   0.131   2.453   1.681
  348SOL     OW 1060   0.815   2.434   0.325
  348SOL    HW1 1061   0.822   2.345   0.279
  348SOL    HW2 1062   0.721   2.468   0.317
  349SOL     OW 1063   1.657   2.466   1.206
  349SOL    HW1 1064   1.619   2.397   1.268
  349SOL    HW2 1065   1.739   2.430   1.162
  350SOL     OW 1066   0.671   2.326   1.269
  350SOL    HW1 1067   0.637   2.237   1.239
  350SOL    HW2 1068   0.697   2.380   1.189
  351SOL     OW 1069   0.473   2.362   0.191
  351SOL    HW1 1070   0.534   2.442   0.195
  351SOL    HW2 1071   0.378   2.393   0.198
  352SOL     OW 1072   0.903   1.948   0.133
  352SOL    HW1 1073   0.954   1.949   0.047
  352SOL    HW2 1074   0.959   1.906   0.204
  353SOL     OW 1075   1.726   1.997   0.523
  353SOL    HW1 1076   1.799   1.980   0.456
  353SOL    HW2 1077   1.695   1.910   0.561
  354SOL     OW 1078   1.280   2.789   0.672
  354SOL    HW1 1079   1.340   2.708   0.674
  354SOL    HW2 1080   1.320   2.858   0.612
  355SOL     OW 1081   1.841   2.037   0.963
  355SOL    HW1 1082   1.880   1.952   0.927
  355SOL    HW2 1083   1.743   2.039   0.944
  356SOL     OW 1084   0.263   2.188   0.720
  356SOL    HW1 1085   0.184   2.239   0.686
  356SOL    HW2 1086   0.254   2.173   0.818
  357SOL     OW 1087   1.014   2.098   0.971
  357SOL    HW1 1088   1.006   2.062   0.878
  357SOL    HW2 1089   1.012   2.022   1.036
  358SOL     OW 1090   1.709   2.247   1.381
  358SOL    HW1 1091   1.782   2.316   1.385
  358SOL    HW2 1092   1.737   2.172   1.322
  359SOL     OW 1093   0.672   2.065   1.489
  359SOL    HW1 1094   0.762   2.049   1.449
  359SOL    HW2 1095   0.680   2.070   1.588
  360SOL     OW 1096   0.075   2.207   0.033
  360SOL    HW1 1097  -0.017   2.179   0.004
  360SOL    HW2 1098   0.106   2.284  -0.023
  361SOL     OW 1099   0.072   2.028   0.318
  361SOL    HW1 1100   0.055   2.111   0.264
  361SOL    HW2 1101   0.162   1.991   0.296
  362SOL     OW 1102   0.716   2.427   1.708
  362SOL    HW1 1103   0.735   2.492   1.782
  362SOL    HW2 1104   0.776   2.347   1.717
  363SOL     OW 1105   1.225   2.187   0.449
  363SOL    HW1 1106   1.290   2.113   0.438
  363SOL    HW2 1107   1.245   2.237   0.533
  364SOL     OW 1108   1.777   2.204   1.642
  364SOL    HW1 1109   1.760   2.235   1.548
  364SOL    HW2 1110   1.693   2.167   1.680
  365SOL     OW 1111   1.083   2.846   0.087
  365SOL    HW1 1112   1.060   2.899   0.005
  365SOL    HW2 1113   1.164   2.790   0.068
  366SOL     OW 1114   1.824   2.054   1.227
  366SOL    HW1 1115   1.820   1.964   1.271
  366SOL    HW2 1116   1.827   2.043   1.128
  367SOL     OW 1117   0.428   2.286   0.520
  367SOL    HW1 1118   0.458   2.214   0.458
  367SOL    HW2 1119   0.389   2.246   0.603
  368SOL     OW 1120   0.317   2.409   1.280
  368SOL    HW1 1121   0.355   2.350   1.352
  368SOL    HW2 1122   0.357   2.383   1.192
  369SOL     OW 1123   1.424   2.076   1.112
  369SOL    HW1 1124   1.476   2.011   1.167
  369SOL    HW2 1125   1.375   2.139   1.173
  370SOL     OW 1126   1.001   1.896   1.154
  370SOL    HW1 1127   0.938   1.824   1.123
  370SOL    HW2 1128   1.094   1.860   1.154
  371SOL     OW 1129   1.352   1.914   0.168
  371SOL    HW1 1130   1.387   1.873   0.084
  371SOL    HW2 1131   1.262   1.876   0.188
  372SOL     OW 1132   1.300   2.315   0.691
  372SOL    HW1 1133   1.241   2.395   0.695
  372SOL    HW2 1134   1.315   2.280   0.784
  373SOL     OW 1135   1.593   2.083   0.882
  373SOL    HW1 1136   1.509   2.082   0.936
  373SOL    HW2 1137   1.595   2.166   0.826
  374SOL     OW 1138   0.230   2.490   1.975
  374SOL    HW1 1139   0.137   2.488   2.012
  374SOL    HW2 1140   0.231   2.451   1.883
  375SOL     OW 1141   1.135   2.565   2.579
  375SOL    HW1 1142   1.192   2.643   2.554
  375SOL    HW2 1143   1.075   2.591   2.655
  376SOL     OW 1144   1.755   2.469   2.093
  376SOL    HW1 1145   1.743   2.456   1.994
  376SOL    HW2 1146   1.725   2.388   2.142
  377SOL     OW 1147   0.685   2.874   2.527
  377SOL    HW1 1148   0.754   2.858   2.597
  377SOL    HW2 1149   0.612   2.931   2.565
  378SOL     OW 1150   1.603   2.309   2.599
  378SOL    HW1 1151   1.529   2.355   2.549
  378SOL    HW2 1152   1.654   2.377   2.652
  379SOL     OW 1153   0.240   2.953   2.748
  379SOL    HW1 1154   0.254   2.869   2.800
  379SOL    HW2 1155   0.185   3.017   2.803
  380SOL     OW 1156   0.122   2.505   2.425
  380SOL    HW1 1157   0.077   2.417   2.442
  380SOL    HW2 1158   0.121   2.559   2.509
  381SOL     OW 1159   0.809   1.866   2.364
  381SOL    HW1 1160   0.849   1.957   2.355
  381SOL    HW2 1161   0.709   1.874   2.370
  382SOL     OW 1162   1.281   2.207   2.806
  382SOL    HW1 1163   1.195   2.157   2.793
  382SOL    HW2 1164   1.343   2.153   2.862
  383SOL     OW 1165   1.041   2.563   2.291
  383SOL    HW1 1166   1.067   2.559   2.387
  383SOL    HW2 1167   0.956   2.512   2.277
  384SOL     OW 1168   0.076   2.673   2.651
  384SOL    HW1 1169   0.175   2.661   2.660
  384SOL    HW2 1170   0.052   2.768   2.672
  385SOL     OW 1171   0.865   2.210   2.057
  385SOL    HW1 1172   0.924   2.273   2.008
  385SOL    HW2 1173   0.884   2.116   2.028
  386SOL     OW 1174   1.400   1.969   2.288
  386SOL    HW1 1175   1.376   1.932   2.198
  386SOL    HW2 1176   1.499   1.985   2.292
  387SOL     OW 1177   0.382   2.562   2.342
  387SOL    HW1 1178   0.427   2.472   2.339
  387SOL    HW2 1179   0.288   2.551   2.375
  388SOL     OW 1180   0.614   1.984   1.979
  388SOL    HW1 1181   0.712   1.962   1.986
  388SOL    HW2 1182   0.583   1.967   1.886
  389SOL     OW 1183   0.539   1.926   2.374
  389SOL    HW1 1184   0.458   1.927   2.432
  389SOL    HW2 1185   0.542   2.009   2.319
  390SOL     OW 1186   0.297   1.897   2.033
  390SOL    HW1 1187   0.346   1.981   2.012
  390SOL    HW2 1188   0.359   1.832   2.078
  391SOL     OW 1189   0.935   2.098   2.342
  391SOL    HW1 1190   0.887   2.139   2.264
  391SOL    HW2 1191   1.034   2.096   2.323
  392SOL     OW 1192   1.032   2.411   1.878
  392SOL    HW1 1193   0.991   2.493   1.839
  392SOL    HW2 1194   1.096   2.437   1.951
  393SOL     OW 1195   0.866   2.316   2.504
  393SOL    HW1 1196   0.834   2.388   2.442
  393SOL    HW2 1197   0.890   2.235   2.451
  394SOL     OW 1198   1.466   2.452   2.854
  394SOL    HW1 1199   1.436   2.357   2.861
  394SOL    HW2 1200   1.539   2.468   2.920
  395SOL     OW 1201   1.390   2.437   1.940
  395SOL    HW1 1202   1.336   2.416   2.021
  395SOL    HW2 1203   1.481   2.396   1.949
  396SOL     OW 1204   0.527   2.118   2.190
  396SOL    HW1 1205   0.554   2.059   2.115
  396SOL    HW2 1206   0.527   2.213   2.159
  397SOL     OW 1207   1.582   2.501   2.334
  397SOL    HW1 1208   1.551   2.562   2.407
  397SOL    HW2 1209   1.632   2.553   2.265
  398SOL     OW 1210   1.209   2.387   2.137
  398SOL    HW1 1211   1.222   2.303   2.191
  398SOL    HW2 1212   1.180   2.461   2.197
  399SOL     OW 1213   0.307   1.925   2.480
  399SOL    HW1 1214   0.296   2.019   2.513
  399SOL    HW2 1215   0.302   1.862   2.557
  400SOL     OW 1216   1.622   2.229   2.236
  400SOL    HW1 1217   1.624   2.153   2.300
  400SOL    HW2 1218   1.574   2.306   2.276
  401SOL     OW 1219   1.540   2.136   1.987
  401SOL    HW1 1220   1.479   2.061   2.010
  401SOL    HW2 1221   1.562   2.188   2.070
  402SOL     OW 1222   0.815   2.434   2.187
  402SOL    HW1 1223   0.822   2.345   2.141
  402SOL    HW2 1224   0.721   2.468   2.179
  403SOL     OW 1225   0.473   2.362   2.053
  403SOL    HW1 1226   0.534   2.442   2.057
  403SOL    HW2 1227   0.378   2.393   2.060
  404SOL     OW 1228   1.726   1.997   2.385
  404SOL    HW1 1229   1.799   1.980   2.318
  404SOL    HW2 1230   1.695   1.910   2.423
  405SOL     OW 1231   1.280   2.789   2.534
  405SOL    HW1 1232   1.340   2.708   2.536
  405SOL    HW2 1233   1.320   2.858   2.474
  406SOL     OW 1234   1.841   2.037   2.825
  406SOL    HW1 1235   1.880   1.952   2.789
  406SOL    HW2 1236   1.743   2.039   2.806
  407SOL     OW 1237   0.075   2.207   1.895
  407SOL    HW1 1238  -0.017   2.179   1.866
  407SOL    HW2 1239   0.106   2.284   1.839
  408SOL     OW 1240   0.072   2.028   2.180
  408SOL    HW1 1241   0.055   2.111   2.126
  408SOL    HW2 1242   0.162   1.991   2.158
  409SOL     OW 1243   1.225   2.187   2.311
  409SOL    HW1 1244   1.290   2.113   2.300
  409SOL    HW2 1245   1.245   2.237   2.395
  410SOL     OW 1246   1.083   2.846   1.949
  410SOL    HW1 1247   1.060   2.899   1.867
  410SOL    HW2 1248   1.164   2.790   1.930
  411SOL     OW 1249   0.428   2.286   2.382
  411SOL    HW1 1250   0.458   2.214   2.320
  411SOL    HW2 1251   0.389   2.246   2.465
  412SOL     OW 1252   1.352   1.914   2.030
  412SOL    HW1 1253   1.387   1.873   1.946
  412SOL    HW2 1254   1.262   1.876   2.050
  413SOL     OW 1255   1.300   2.315   2.553
  413SOL    HW1 1256   1.241   2.395   2.557
  413SOL    HW2 1257   1.315   2.280   2.646
  414SOL     OW 1258   2.092   0.628   0.113
  414SOL    HW1 1259   1.999   0.626   0.150
  414SOL    HW2 1260   2.093   0.589   0.021
  415SOL     OW 1261   2.087   0.275   0.996
  415SOL    HW1 1262   2.122   0.258   1.088
  415SOL    HW2 1263   1.999   0.230   0.984
  416SOL     OW 1264   1.881   0.368   0.647
  416SOL    HW1 1265   1.799   0.411   0.686
  416SOL    HW2 1266   1.853   0.295   0.584
  417SOL     OW 1267   2.431   1.275   1.165
  417SOL    HW1 1268   2.338   1.268   1.128
  417SOL    HW2 1269   2.442   1.364   1.209
  418SOL     OW 1270   2.712   0.798   1.823
  418SOL    HW1 1271   2.708   0.874   1.888
  418SOL    HW2 1272   2.734   0.834   1.732
  419SOL     OW 1273   2.548   1.161   1.803
  419SOL    HW1 1274   2.608   1.240   1.817
  419SOL    HW2 1275   2.462   1.192   1.762
  420SOL     OW 1276   2.197   1.435   1.061
  420SOL    HW1 1277   2.119   1.404   1.008
  420SOL    HW2 1278   2.255   1.493   1.004
  421SOL     OW 1279   2.300   0.392   1.499
  421SOL    HW1 1280   2.382   0.336   1.508
  421SOL    HW2 1281   2.219   0.334   1.503
  422SOL     OW 1282   2.093   1.713   0.483
  422SOL    HW1 1283   2.127   1.790   0.537
  422SOL    HW2 1284   2.137   1.713   0.393
  423SOL     OW 1285   2.092   1.434   0.538
  423SOL    HW1 1286   2.066   1.530   0.538
  423SOL    HW2 1287   2.021   1.380   0.583
  424SOL     OW 1288   2.102   1.091   0.886
  424SOL    HW1 1289   2.116   1.007   0.938
  424SOL    HW2 1290   2.047   1.155   0.941
  425SOL     OW 1291   2.482   1.786   1.439
  425SOL    HW1 1292   2.390   1.769   1.474
  425SOL    HW2 1293   2.510   1.878   1.465
  426SOL     OW 1294   2.468   0.964   0.123
  426SOL    HW1 1295   2.475   1.048   0.069
  426SOL    HW2 1296   2.514   0.977   0.211
  427SOL     OW 1297   1.984   0.643   0.563
  427SOL    HW1 1298   1.939   0.555   0.580
  427SOL    HW2 1299   1.983   0.697   0.647
  428SOL     OW 1300   1.889   1.596   0.117
  428SOL    HW1 1301   1.870   1.500   0.138
  428SOL    HW2 1302   1.856   1.654   0.192
  429SOL     OW 1303   1.975   0.737   1.597
  429SOL    HW1 1304   2.063   0.724   1.642
  429SOL    HW2 1305   1.962   0.834   1.575
  430SOL     OW 1306   2.475   1.365   0.726
  430SOL    HW1 1307   2.426   1.278   0.735
  430SOL    HW2 1308   2.452   1.408   0.639
  431SOL     OW 1309   2.059   0.976   1.264
  431SOL    HW1 1310   2.148   0.931   1.250
  431SOL    HW2 1311   1.986   0.911   1.245
  432SOL     OW 1312   2.179   0.251   1.801
  432SOL    HW1 1313   2.250   0.322   1.807
  432SOL    HW2 1314   2.091   0.290   1.829
  433SOL     OW 1315   2.460   0.729   0.270
  433SOL    HW1 1316   2.484   0.798   0.202
  433SOL    HW2 1317   2.382   0.762   0.324
  434SOL     OW 1318   1.938   0.811   0.789
  434SOL    HW1 1319   2.037   0.799   0.798
  434SOL    HW2 1320   1.914   0.906   0.810
  435SOL     OW 1321   1.992   1.821   1.571
  435SOL    HW1 1322   1.982   1.806   1.670
  435SOL    HW2 1323   1.906   1.857   1.535
  436SOL     OW 1324   2.412   0.196   0.885
  436SOL    HW1 1325   2.407   0.191   0.985
  436SOL    HW2 1326   2.414   0.292   0.856
  437SOL     OW 1327   2.213   1.801   0.853
  437SOL    HW1 1328   2.263   1.715   0.859
  437SOL    HW2 1329   2.278   1.878   0.850
  438SOL     OW 1330   2.183   0.943   0.242
  438SOL    HW1 1331   2.265   0.982   0.200
  438SOL    HW2 1332   2.156   0.861   0.193
  439SOL     OW 1333   2.323   1.266   1.727
  439SOL    HW1 1334   2.273   1.267   1.641
  439SOL    HW2 1335   2.260   1.248   1.803
  440SOL     OW 1336   2.064   0.285   1.498
  440SOL    HW1 1337   1.984   0.345   1.485
  440SOL    HW2 1338   2.054   0.236   1.584
  441SOL     OW 1339   2.326   1.743   0.323
  441SOL    HW1 1340   2.359   1.782   0.409
  441SOL    HW2 1341   2.402   1.736   0.258
  442SOL     OW 1342   2.111   1.785   1.241
  442SOL    HW1 1343   2.168   1.720   1.291
  442SOL    HW2 1344   2.095   1.752   1.148
  443SOL     OW 1345   2.244   0.700   0.480
  443SOL    HW1 1346   2.289   0.610   0.477
  443SOL    HW2 1347   2.150   0.689   0.513
  444SOL     OW 1348   2.665   1.402   0.924
  444SOL    HW1 1349   2.755   1.416   0.882
  444SOL    HW2 1350   2.594   1.404   0.853
  445SOL     OW 1351   2.401   0.064   0.512
  445SOL    HW1 1352   2.320   0.065   0.570
  445SOL    HW2 1353   2.404   0.147   0.457
  446SOL     OW 1354   2.159   0.035   0.171
  446SOL    HW1 1355   2.208   0.119   0.150
  446SOL    HW2 1356   2.221  -0.030   0.216
  447SOL     OW 1357   2.321   1.152   0.741
  447SOL    HW1 1358   2.250   1.125   0.806
  447SOL    HW2 1359   2.295   1.124   0.648
  448SOL     OW 1360   1.940   0.556   1.386
  448SOL    HW1 1361   2.032   0.555   1.345
  448SOL    HW2 1362   1.934   0.630   1.453
  449SOL     OW 1363   2.423   0.222   1.147
  449SOL    HW1 1364   2.461   0.138   1.184
  449SOL    HW2 1365   2.335   0.241   1.191
  450SOL     OW 1366   2.350   1.385   0.174
  450SOL    HW1 1367   2.263   1.370   0.221
  450SOL    HW2 1368   2.333   1.411   0.079
  451SOL     OW 1369   2.389   0.256   0.328
  451SOL    HW1 1370   2.416   0.197   0.253
  451SOL    HW2 1371   2.389   0.351   0.297
  452SOL     OW 1372   2.272   0.813   1.251
  452SOL    HW1 1373   2.358   0.825   1.301
  452SOL    HW2 1374   2.230   0.726   1.278
  453SOL     OW 1375   1.926   1.564   1.331
  453SOL    HW1 1376   1.880   1.646   1.297
  453SOL    HW2 1377   2.024   1.583   1.340
  454SOL     OW 1378   2.229   1.100   0.501
  454SOL    HW1 1379   2.222   1.183   0.445
  454SOL    HW2 1380   2.233   1.020   0.441
  455SOL     OW 1381   2.428   0.537   0.865
  455SOL    HW1 1382   2.440   0.603   0.791
  455SOL    HW2 1383   2.474   0.571   0.948
  456SOL     OW 1384   2.216   1.510   1.329
  456SOL    HW1 1385   2.195   1.466   1.242
  456SOL    HW2 1386   2.313   1.536   1.332
  457SOL     OW 1387   2.264   0.751   1.598
  457SOL    HW1 1388   2.332   0.806   1.551
  457SOL    HW2 1389   2.304   0.663   1.625
  458SOL     OW 1390   2.366   0.050   1.740
  458SOL    HW1 1391   2.324  -0.007   1.670
  458SOL    HW2 1392   2.300   0.119   1.772
  459SOL     OW 1393   2.435   0.870   1.029
  459SOL    HW1 1394   2.479   0.959   1.020
  459SOL    HW2 1395   2.372   0.870   1.106
  460SOL     OW 1396   2.169   0.213   1.231
  460SOL    HW1 1397   2.146   0.250   1.321
  460SOL    HW2 1398   2.139   0.118   1.225
  461SOL     OW 1399   1.899   1.310   1.282
  461SOL    HW1 1400   1.952   1.261   1.350
  461SOL    HW2 1401   1.921   1.408   1.287
  462SOL     OW 1402   2.169   0.063   0.618
  462SOL    HW1 1403   2.158   0.157   0.651
  462SOL    HW2 1404   2.164   0.000   0.695
  463SOL     OW 1405   2.212   0.898   1.804
  463SOL    HW1 1406   2.288   0.942   1.852
  463SOL    HW2 1407   2.247   0.851   1.722
  464SOL     OW 1408   2.181   0.810   0.949
  464SOL    HW1 1409   2.274   0.846   0.954
  464SOL    HW2 1410   2.175   0.725   1.001
  465SOL     OW 1411   2.201   0.509   1.006
  465SOL    HW1 1412   2.149   0.426   0.989
  465SOL    HW2 1413   2.278   0.514   0.942
  466SOL     OW 1414   1.870   1.326   0.200
  466SOL    HW1 1415   1.777   1.347   0.169
  466SOL    HW2 1416   1.880   1.227   0.213
  467SOL     OW 1417   1.950   1.801   0.927
  467SOL    HW1 1418   1.908   1.715   0.900
  467SOL    HW2 1419   2.044   1.804   0.893
  468SOL     OW 1420   2.366   1.568   0.910
  468SOL    HW1 1421   2.432   1.642   0.919
  468SOL    HW2 1422   2.410   1.489   0.868
  469SOL     OW 1423   1.902   0.544   1.114
  469SOL    HW1 1424   1.987   0.511   1.073
  469SOL    HW2 1425   1.915   0.559   1.212
  470SOL     OW 1426   2.051   0.520   1.722
  470SOL    HW1 1427   2.110   0.480   1.652
  470SOL    HW2 1428   1.993   0.591   1.681
  471SOL     OW 1429   2.677   0.572   0.325
  471SOL    HW1 1430   2.684   0.483   0.279
  471SOL    HW2 1431   2.583   0.606   0.317
  472SOL     OW 1432   2.114   1.564   1.744
  472SOL    HW1 1433   2.084   1.621   1.820
  472SOL    HW2 1434   2.107   1.467   1.770
  473SOL     OW 1435   2.335   0.500   0.191
  473SOL    HW1 1436   2.396   0.580   0.195
  473SOL    HW2 1437   2.240   0.531   0.198
  474SOL     OW 1438   2.021   1.137   1.466
  474SOL    HW1 1439   2.043   1.076   1.542
  474SOL    HW2 1440   2.031   1.088   1.380
  475SOL     OW 1441   1.945   1.258   1.022
  475SOL    HW1 1442   1.940   1.257   1.122
  475SOL    HW2 1443   1.862   1.217   0.984
  476SOL     OW 1444   2.550   1.662   1.716
  476SOL    HW1 1445   2.494   1.743   1.725
  476SOL    HW2 1446   2.602   1.666   1.630
  477SOL     OW 1447   1.992   1.794   1.851
  477SOL    HW1 1448   1.951   1.720   1.904
  477SOL    HW2 1449   2.056   1.845   1.909
  478SOL     OW 1450   2.125   0.326   0.720
  478SOL    HW1 1451   2.046   0.377   0.686
  478SOL    HW2 1452   2.116   0.311   0.818
  479SOL     OW 1453   2.234   1.288   1.490
  479SOL    HW1 1454   2.221   1.381   1.456
  479SOL    HW2 1455   2.150   1.236   1.477
  480SOL     OW 1456   2.452   1.487   0.491
  480SOL    HW1 1457   2.494   1.429   0.421
  480SOL    HW2 1458   2.408   1.566   0.447
  481SOL     OW 1459   2.117   1.348   0.290
  481SOL    HW1 1460   2.021   1.349   0.263
  481SOL    HW2 1461   2.129   1.401   0.374
  482SOL     OW 1462   1.967   1.013   1.726
  482SOL    HW1 1463   1.890   0.980   1.780
  482SOL    HW2 1464   2.052   0.983   1.768
  483SOL     OW 1465   2.534   0.203   1.489
  483SOL    HW1 1466   2.624   0.187   1.449
  483SOL    HW2 1467   2.542   0.208   1.588
  484SOL     OW 1468   1.937   0.345   0.033
  484SOL    HW1 1469   1.845   0.317   0.004
  484SOL    HW2 1470   1.968   0.422  -0.023
  485SOL     OW 1471   2.475   0.842   1.431
  485SOL    HW1 1472   2.531   0.923   1.414
  485SOL    HW2 1473   2.534   0.762   1.434
  486SOL     OW 1474   2.578   0.565   1.708
  486SOL    HW1 1475   2.597   0.630   1.782
  486SOL    HW2 1476   2.638   0.485   1.717
  487SOL     OW 1477   2.252   1.741   1.560
  487SOL    HW1 1478   2.161   1.782   1.558
  487SOL    HW2 1479   2.245   1.647   1.592
  488SOL     OW 1480   2.456   0.745   0.652
  488SOL    HW1 1481   2.506   0.830   0.633
  488SOL    HW2 1482   2.368   0.747   0.604
  489SOL     OW 1483   2.083   1.314   1.844
  489SOL    HW1 1484   2.018   1.241   1.823
  489SOL    HW2 1485   2.087   1.328   1.942
  490SOL     OW 1486   1.941   1.240   0.653
  490SOL    HW1 1487   1.940   1.193   0.741
  490SOL    HW2 1488   2.023   1.212   0.602
  491SOL     OW 1489   2.534   1.391   1.624
  491SOL    HW1 1490   2.456   1.341   1.662
  491SOL    HW2 1491   2.531   1.486   1.655
  492SOL     OW 1492   2.290   0.424   0.520
  492SOL    HW1 1493   2.320   0.352   0.458
  492SOL    HW2 1494   2.251   0.384   0.603
  493SOL     OW 1495   2.179   0.547   1.280
  493SOL    HW1 1496   2.217   0.488   1.352
  493SOL    HW2 1497   2.219   0.521   1.192
  494SOL     OW 1498   2.674   1.586   0.687
  494SOL    HW1 1499   2.706   1.596   0.593
  494SOL    HW2 1500   2.595   1.524   0.689
  495SOL     OW 1501   1.901   1.077   0.300
  495SOL    HW1 1502   2.000   1.066   0.291
  495SOL    HW2 1503   1.861   0.991   0.332
  496SOL     OW 1504   2.092   0.628   1.975
  496SOL    HW1 1505   1.999   0.626   2.012
  496SOL    HW2 1506   2.093   0.589   1.883
  497SOL     OW 1507   2.087   0.275   2.858
  497SOL    HW1 1508   2.122   0.258   2.950
  497SOL    HW2 1509   1.999   0.230   2.846
  498SOL     OW 1510   2.093   1.713   2.345
  498SOL    HW1 1511   2.127   1.790   2.399
  498SOL    HW2 1512   2.137   1.713   2.255
  499SOL     OW 1513   2.092   1.434   2.400
  499SOL    HW1 1514   2.066   1.530   2.400
  499SOL    HW2 1515   2.021   1.380   2.445
  500SOL     OW 1516   2.468   0.964   1.985
  500SOL    HW1 1517   2.475   1.048   1.931
  500SOL    HW2 1518   2.514   0.977   2.073
  501SOL     OW 1519   1.984   0.643   2.425
  501SOL    HW1 1520   1.939   0.555   2.442
  501SOL    HW2 1521   1.983   0.697   2.509
  502SOL     OW 1522   1.889   1.596   1.979
  502SOL    HW1 1523   1.870   1.500   2.000
  502SOL    HW2 1524   1.856   1.654   2.054
  503SOL     OW 1525   2.475   1.365   2.588
  503SOL    HW1 1526   2.426   1.278   2.597
  503SOL    HW2 1527   2.452   1.408   2.501
  504SOL     OW 1528   2.460   0.729   2.132
  504SOL    HW1 1529   2.484   0.798   2.064
  504SOL    HW2 1530   2.382   0.762   2.186
  505SOL     OW 1531   1.938   0.811   2.651
  505SOL    HW1 1532   2.037   0.799   2.660
  505SOL    HW2 1533   1.914   0.906   2.672
  506SOL     OW 1534   2.213   1.801   2.715
  506SOL    HW1 1535   2.263   1.715   2.721
  506SOL    HW2 1536   2.278   1.878   2.712
  507SOL     OW 1537   2.183   0.943   2.104
  507SOL    HW1 1538   2.265   0.982   2.062
  507SOL    HW2 1539   2.156   0.861   2.055
  508SOL     OW 1540   2.326   1.743   2.185
  508SOL    HW1 1541   2.359   1.782   2.271
  508SOL    HW2 1542   2.402   1.736   2.120
  509SOL     OW 1543   2.244   0.700   2.342
  509SOL    HW1 1544   2.289   0.610   2.339
  509SOL    HW2 1545   2.150   0.689   2.375
  510SOL     OW 1546   2.476   0.122   1.979
  510SOL    HW1 1547   2.574   0.100   1.986
  510SOL    HW2 1548   2.445   0.105   1.886
  511SOL     OW 1549   2.401   0.064   2.374
  511SOL    HW1 1550   2.320   0.065   2.432
  511SOL    HW2 1551   2.404   0.147   2.319
  512SOL     OW 1552   2.159   0.035   2.033
  512SOL    HW1 1553   2.208   0.119   2.012
  512SOL    HW2 1554   2.221  -0.030   2.078
  513SOL     OW 1555   2.321   1.152   2.603
  513SOL    HW1 1556   2.250   1.125   2.668
  513SOL    HW2 1557   2.295   1.124   2.510
  514SOL     OW 1558   2.350   1.385   2.036
  514SOL    HW1 1559   2.263   1.370   2.083
  514SOL    HW2 1560   2.333   1.411   1.941
  515SOL     OW 1561   2.389   0.256   2.190
  515SOL    HW1 1562   2.416   0.197   2.115
  515SOL    HW2 1563   2.389   0.351   2.159
  516SOL     OW 1564   2.229   1.100   2.363
  516SOL    HW1 1565   2.222   1.183   2.307
  516SOL    HW2 1566   2.233   1.020   2.303
  517SOL     OW 1567   2.169   0.063   2.480
  517SOL    HW1 1568   2.158   0.157   2.513
  517SOL    HW2 1569   2.164   0.000   2.557
  518SOL     OW 1570   1.870   1.326   2.062
  518SOL    HW1 1571   1.777   1.347   2.031
  518SOL    HW2 1572   1.880   1.227   2.075
  519SOL     OW 1573   2.677   0.572   2.187
  519SOL    HW1 1574   2.684   0.483   2.141
  519SOL    HW2 1575   2.583   0.606   2.179
  520SOL     OW 1576   2.335   0.500   2.053
  520SOL    HW1 1577   2.396   0.580   2.057
  520SOL    HW2 1578   2.240   0.531   2.060
  521SOL     OW 1579   2.452   1.487   2.353
  521SOL    HW1 1580   2.494   1.429   2.283
  521SOL    HW2 1581   2.408   1.566   2.309
  522SOL     OW 1582   2.117   1.348   2.152
  522SOL    HW1 1583   2.021   1.349   2.125
  522SOL    HW2 1584   2.129   1.401   2.236
  523SOL     OW 1585   1.937   0.345   1.895
  523SOL    HW1 1586   1.845   0.317   1.866
  523SOL    HW2 1587   1.968   0.422   1.839
  524SOL     OW 1588   1.934   0.166   2.180
  524SOL    HW1 1589   1.917   0.249   2.126
  524SOL    HW2 1590   2.024   0.129   2.158
  525SOL     OW 1591   2.456   0.745   2.514
  525SOL    HW1 1592   2.506   0.830   2.495
  525SOL    HW2 1593   2.368   0.747   2.466
  526SOL     OW 1594   1.941   1.240   2.515
  526SOL    HW1 1595   1.940   1.193   2.603
  526SOL    HW2 1596   2.023   1.212   2.464
  527SOL     OW 1597   2.290   0.424   2.382
  527SOL    HW1 1598   2.320   0.352   2.320
  527SOL    HW2 1599   2.251   0.384   2.465
  528SOL     OW 1600   2.674   1.586   2.549
  528SOL    HW1 1601   2.706   1.596   2.455
  528SOL    HW2 1602   2.595   1.524   2.551
  529SOL     OW 1603   1.901   1.077   2.162
  529SOL    HW1 1604   2.000   1.066   2.153
  529SOL    HW2 1605   1.861   0.991   2.194
  530SOL     OW 1606   2.092   2.490   0.113
  530SOL    HW1 1607   1.999   2.488   0.150
  530SOL    HW2 1608   2.093   2.451   0.021
  531SOL     OW 1609   2.087   2.137   0.996
  531SOL    HW1 1610   2.122   2.120   1.088
  531SOL    HW2 1611   1.999   2.092   0.984
  532SOL     OW 1612   1.881   2.230   0.647
  532SOL    HW1 1613   1.799   2.273   0.686
  532SOL    HW2 1614   1.853   2.157   0.584
  533SOL     OW 1615   2.712   2.660   1.823
  533SOL    HW1 1616   2.708   2.736   1.888
  533SOL    HW2 1617   2.734   2.696   1.732
  534SOL     OW 1618   2.300   2.254   1.499
  534SOL    HW1 1619   2.382   2.198   1.508
  534SOL    HW2 1620   2.219   2.196   1.503
  535SOL     OW 1621   1.984   2.505   0.563
  535SOL    HW1 1622   1.939   2.417   0.580
  535SOL    HW2 1623   1.983   2.559   0.647
  536SOL     OW 1624   1.975   2.599   1.597
  536SOL    HW1 1625   2.063   2.586   1.642
  536SOL    HW2 1626   1.962   2.696   1.575
  537SOL     OW 1627   2.671   1.866   0.502
  537SOL    HW1 1628   2.711   1.957   0.493
  537SOL    HW2 1629   2.571   1.874   0.508
  538SOL     OW 1630   2.179   2.113   1.801
  538SOL    HW1 1631   2.250   2.184   1.807
  538SOL    HW2 1632   2.091   2.152   1.829
  539SOL     OW 1633   2.460   2.591   0.270
  539SOL    HW1 1634   2.484   2.660   0.202
  539SOL    HW2 1635   2.382   2.624   0.324
  540SOL     OW 1636   2.412   2.058   0.885
  540SOL    HW1 1637   2.407   2.053   0.985
  540SOL    HW2 1638   2.414   2.154   0.856
  541SOL     OW 1639   2.064   2.147   1.498
  541SOL    HW1 1640   1.984   2.207   1.485
  541SOL    HW2 1641   2.054   2.098   1.584
  542SOL     OW 1642   2.244   2.562   0.480
  542SOL    HW1 1643   2.289   2.472   0.477
  542SOL    HW2 1644   2.150   2.551   0.513
  543SOL     OW 1645   2.476   1.984   0.117
  543SOL    HW1 1646   2.574   1.962   0.124
  543SOL    HW2 1647   2.445   1.967   0.024
  544SOL     OW 1648   2.401   1.926   0.512
  544SOL    HW1 1649   2.320   1.927   0.570
  544SOL    HW2 1650   2.404   2.009   0.457
  545SOL     OW 1651   2.938   2.545   1.464
  545SOL    HW1 1652   2.858   2.484   1.467
  545SOL    HW2 1653   3.019   2.492   1.440
  546SOL     OW 1654   1.940   2.418   1.386
  546SOL    HW1 1655   2.032   2.417   1.345
  546SOL    HW2 1656   1.934   2.492   1.453
  547SOL     OW 1657   2.423   2.084   1.147
  547SOL    HW1 1658   2.461   2.000   1.184
  547SOL    HW2 1659   2.335   2.103   1.191
  548SOL     OW 1660   2.389   2.118   0.328
  548SOL    HW1 1661   2.416   2.059   0.253
  548SOL    HW2 1662   2.389   2.213   0.297
  549SOL     OW 1663   2.428   2.399   0.865
  549SOL    HW1 1664   2.440   2.465   0.791
  549SOL    HW2 1665   2.474   2.433   0.948
  550SOL     OW 1666   2.366   1.912   1.740
  550SOL    HW1 1667   2.324   1.855   1.670
  550SOL    HW2 1668   2.300   1.981   1.772
  551SOL     OW 1669   2.169   2.075   1.231
  551SOL    HW1 1670   2.146   2.112   1.321
  551SOL    HW2 1671   2.139   1.980   1.225
  552SOL     OW 1672   2.169   1.925   0.618
  552SOL    HW1 1673   2.158   2.019   0.651
  552SOL    HW2 1674   2.164   1.862   0.695
  553SOL     OW 1675   2.181   2.672   0.949
  553SOL    HW1 1676   2.274   2.708   0.954
  553SOL    HW2 1677   2.175   2.587   1.001
  554SOL     OW 1678   2.201   2.371   1.006
  554SOL    HW1 1679   2.149   2.288   0.989
  554SOL    HW2 1680   2.278   2.376   0.942
  555SOL     OW 1681   1.902   2.406   1.114
  555SOL    HW1 1682   1.987   2.373   1.073
  555SOL    HW2 1683   1.915   2.421   1.212
  556SOL     OW 1684   2.051   2.382   1.722
  556SOL    HW1 1685   2.110   2.342   1.652
  556SOL    HW2 1686   1.993   2.453   1.681
  557SOL     OW 1687   2.677   2.434   0.325
  557SOL    HW1 1688   2.684   2.345   0.279
  557SOL    HW2 1689   2.583   2.468   0.317
  558SOL     OW 1690   2.335   2.362   0.191
  558SOL    HW1 1691   2.396   2.442   0.195
  558SOL    HW2 1692   2.240   2.393   0.198
  559SOL     OW 1693   2.125   2.188   0.720
  559SOL    HW1 1694   2.046   2.239   0.686
  559SOL    HW2 1695   2.116   2.173   0.818
  560SOL     OW 1696   2.534   2.065   1.489
  560SOL    HW1 1697   2.624   2.049   1.449
  560SOL    HW2 1698   2.542   2.070   1.588
  561SOL     OW 1699   1.937   2.207   0.033
  561SOL    HW1 1700   1.845   2.179   0.004
  561SOL    HW2 1701   1.968   2.284  -0.023
  562SOL     OW 1702   2.578   2.427   1.708
  562SOL    HW1 1703   2.597   2.492   1.782
  562SOL    HW2 1704   2.638   2.347   1.717
  563SOL     OW 1705   2.290   2.286   0.520
  563SOL    HW1 1706   2.320   2.214   0.458
  563SOL    HW2 1707   2.251   2.246   0.603
  564SOL     OW 1708   2.179   2.409   1.280
  564SOL    HW1 1709   2.217   2.350   1.352
  564SOL    HW2 1710   2.219   2.383   1.192
  565SOL     OW 1711   2.092   2.490   1.975
  565SOL    HW1 1712   1.999   2.488   2.012
  565SOL    HW2 1713   2.093   2.451   1.883
  566SOL     OW 1714   2.087   2.137   2.858
  566SOL    HW1 1715   2.122   2.120   2.950
  566SOL    HW2 1716   1.999   2.092   2.846
  567SOL     OW 1717   1.984   2.505   2.425
  567SOL    HW1 1718   1.939   2.417   2.442
  567SOL    HW2 1719   1.983   2.559   2.509
  568SOL     OW 1720   2.671   1.866   2.364
  568SOL    HW1 1721   2.711   1.957   2.355
  568SOL    HW2 1722   2.571   1.874   2.370
  569SOL     OW 1723   2.244   2.562   2.342
  569SOL    HW1 1724   2.289   2.472   2.339
  569SOL    HW2 1725   2.150   2.551   2.375
  570SOL     OW 1726   2.476   1.984   1.979
  570SOL    HW1 1727   2.574   1.962   1.986
  570SOL    HW2 1728   2.445   1.967   1.886
  571SOL     OW 1729   2.401   1.926   2.374
  571SOL    HW1 1730   2.320   1.927   2.432
  571SOL    HW2 1731   2.404   2.009   2.319
  572SOL     OW 1732   2.159   1.897   2.033
  572SOL    HW1 1733   2.208   1.981   2.012
  572SOL    HW2 1734   2.221   1.832   2.078
  573SOL     OW 1735   2.389   2.118   2.190
  573SOL    HW1 1736   2.416   2.059   2.115
  573SOL    HW2 1737   2.389   2.213   2.159
  574SOL     OW 1738   2.169   1.925   2.480
  574SOL    HW1 1739   2.158   2.019   2.513
  574SOL    HW2 1740   2.164   1.862   2.557
  575SOL     OW 1741   2.677   2.434   2.187
  575SOL    HW1 1742   2.684   2.345   2.141
  575SOL    HW2 1743   2.583   2.468   2.179
  576SOL     OW 1744   2.335   2.362   2.053
  576SOL    HW1 1745   2.396   2.442   2.057
  576SOL    HW2 1746   2.240   2.393   2.060
  577SOL     OW 1747   1.937   2.207   1.895
  577SOL    HW1 1748   1.845   2.179   1.866
  577SOL    HW2 1749   1.968   2.284   1.839
  578SOL     OW 1750   1.934   2.028   2.180
  578SOL    HW1 1751   1.917   2.111   2.126
  578SOL    HW2 1752   2.024   1.991   2.158
  579SOL     OW 1753   2.290   2.286   2.382
  579SOL    HW1 1754   2.320   2.214   2.320
  579SOL    HW2 1755   2.251   2.246   2.465
   2.60989   2.60989   2.60989
