; mobley_9671033_GMX.itp created by acpype (v: 2023.10.27) on Thu May 14 13:17:57 2026

[ atomtypes ]
;name   bond_type     mass     charge   ptype   sigma         epsilon       Amb
 c3       c3          0.00000  0.00000   A     3.39771e-01   4.51035e-01 ; 1.91  0.1078
 no       no          0.00000  0.00000   A     3.36510e-01   3.58987e-01 ; 1.89  0.0858
 o        o           0.00000  0.00000   A     3.04812e-01   6.12119e-01 ; 1.71  0.1463
 hc       hc          0.00000  0.00000   A     2.60018e-01   8.70272e-02 ; 1.46  0.0208
 h1       h1          0.00000  0.00000   A     2.42200e-01   8.70272e-02 ; 1.36  0.0208

[ moleculetype ]
;name            nrexcl
 mobley_9671033   3

[ atoms ]
;   nr  type  resi  res  atom  cgnr     charge      mass       ; qtot   bond_type
     1   c3     1   MOL    C1    1    -0.096100     12.01000 ; qtot -0.096
     2   c3     1   MOL    C2    2    -0.093400     12.01000 ; qtot -0.190
     3   c3     1   MOL    C3    3    -0.077700     12.01000 ; qtot -0.267
     4   no     1   MOL    N1    4     0.228301     14.01000 ; qtot -0.039
     5    o     1   MOL    O1    5    -0.211000     16.00000 ; qtot -0.250
     6    o     1   MOL    O2    6    -0.211000     16.00000 ; qtot -0.461
     7   hc     1   MOL    H1    7     0.044033      1.00800 ; qtot -0.417
     8   hc     1   MOL    H2    8     0.044033      1.00800 ; qtot -0.373
     9   hc     1   MOL    H3    9     0.044033      1.00800 ; qtot -0.329
    10   hc     1   MOL    H4   10     0.069700      1.00800 ; qtot -0.259
    11   hc     1   MOL    H5   11     0.069700      1.00800 ; qtot -0.189
    12   h1     1   MOL    H6   12     0.094700      1.00800 ; qtot -0.095
    13   h1     1   MOL    H7   13     0.094700      1.00800 ; qtot -0.000

[ bonds ]
;   ai     aj funct   r             k
     1      2   1    1.5354e-01    1.9154e+05 ;     C1 - C2    
     1      7   1    1.0962e-01    2.8891e+05 ;     C1 - H1    
     1      8   1    1.0962e-01    2.8891e+05 ;     C1 - H2    
     1      9   1    1.0962e-01    2.8891e+05 ;     C1 - H3    
     2      3   1    1.5354e-01    1.9154e+05 ;     C2 - C3    
     2     10   1    1.0962e-01    2.8891e+05 ;     C2 - H4    
     2     11   1    1.0962e-01    2.8891e+05 ;     C2 - H5    
     3      4   1    1.5232e-01    1.7705e+05 ;     C3 - N1    
     3     12   1    1.0969e-01    2.8804e+05 ;     C3 - H6    
     3     13   1    1.0969e-01    2.8804e+05 ;     C3 - H7    
     4      5   1    1.2311e-01    3.0270e+05 ;     N1 - O1    
     4      6   1    1.2311e-01    3.0270e+05 ;     N1 - O2    

[ pairs ]
;   ai     aj    funct
     1      4      1 ;     C1 - N1    
     1     12      1 ;     C1 - H6    
     1     13      1 ;     C1 - H7    
     2      5      1 ;     C2 - O1    
     2      6      1 ;     C2 - O2    
     4     10      1 ;     N1 - H4    
     4     11      1 ;     N1 - H5    
     5     12      1 ;     O1 - H6    
     5     13      1 ;     O1 - H7    
     6     12      1 ;     O2 - H6    
     6     13      1 ;     O2 - H7    
     7      3      1 ;     H1 - C3    
     7     10      1 ;     H1 - H4    
     7     11      1 ;     H1 - H5    
     8      3      1 ;     H2 - C3    
     8     10      1 ;     H2 - H4    
     8     11      1 ;     H2 - H5    
     9      3      1 ;     H3 - C3    
     9     10      1 ;     H3 - H4    
     9     11      1 ;     H3 - H5    
    10     12      1 ;     H4 - H6    
    10     13      1 ;     H4 - H7    
    11     12      1 ;     H5 - H6    
    11     13      1 ;     H5 - H7    

[ angles ]
;   ai     aj     ak    funct   theta         cth
     1      2      3      1    1.1263e+02    5.0099e+02 ;     C1 - C2     - C3    
     1      2     10      1    1.0968e+02    3.6208e+02 ;     C1 - C2     - H4    
     1      2     11      1    1.0968e+02    3.6208e+02 ;     C1 - C2     - H5    
     2      1      7      1    1.0968e+02    3.6208e+02 ;     C2 - C1     - H1    
     2      1      8      1    1.0968e+02    3.6208e+02 ;     C2 - C1     - H2    
     2      1      9      1    1.0968e+02    3.6208e+02 ;     C2 - C1     - H3    
     2      3      4      1    1.0962e+02    5.4124e+02 ;     C2 - C3     - N1    
     2      3     12      1    1.0959e+02    3.6217e+02 ;     C2 - C3     - H6    
     2      3     13      1    1.0959e+02    3.6217e+02 ;     C2 - C3     - H7    
     3      2     10      1    1.0968e+02    3.6208e+02 ;     C3 - C2     - H4    
     3      2     11      1    1.0968e+02    3.6208e+02 ;     C3 - C2     - H5    
     3      4      5      1    1.1693e+02    8.1027e+02 ;     C3 - N1     - O1    
     3      4      6      1    1.1693e+02    8.1027e+02 ;     C3 - N1     - O2    
     4      3     12      1    1.0556e+02    3.9455e+02 ;     N1 - C3     - H6    
     4      3     13      1    1.0556e+02    3.9455e+02 ;     N1 - C3     - H7    
     5      4      6      1    1.2505e+02    1.0964e+03 ;     O1 - N1     - O2    
     7      1      8      1    1.0773e+02    2.9957e+02 ;     H1 - C1     - H2    
     7      1      9      1    1.0773e+02    2.9957e+02 ;     H1 - C1     - H3    
     8      1      9      1    1.0773e+02    2.9957e+02 ;     H2 - C1     - H3    
    10      2     11      1    1.0773e+02    2.9957e+02 ;     H4 - C2     - H5    
    12      3     13      1    1.0855e+02    2.9824e+02 ;     H6 - C3     - H7    

[ dihedrals ] ; propers
; for gromacs 4.5 or higher, using funct 9
;    i      j      k      l   func   phase     kd      pn
     1      2      3      4      9     0.00   0.65084   3 ;     C1-    C2-    C3-    N1
     1      2      3     12      9     0.00   0.65084   3 ;     C1-    C2-    C3-    H6
     1      2      3     13      9     0.00   0.65084   3 ;     C1-    C2-    C3-    H7
     2      3      4      5      9     0.00   0.00000   0 ;     C2-    C3-    N1-    O1
     2      3      4      6      9     0.00   0.00000   0 ;     C2-    C3-    N1-    O2
     4      3      2     10      9     0.00   0.65084   3 ;     N1-    C3-    C2-    H4
     4      3      2     11      9     0.00   0.65084   3 ;     N1-    C3-    C2-    H5
     5      4      3     12      9     0.00   0.00000   0 ;     O1-    N1-    C3-    H6
     5      4      3     13      9     0.00   0.00000   0 ;     O1-    N1-    C3-    H7
     6      4      3     12      9     0.00   0.00000   0 ;     O2-    N1-    C3-    H6
     6      4      3     13      9     0.00   0.00000   0 ;     O2-    N1-    C3-    H7
     7      1      2      3      9     0.00   0.54392   3 ;     H1-    C1-    C2-    C3
     7      1      2     10      9     0.00   0.50208   3 ;     H1-    C1-    C2-    H4
     7      1      2     11      9     0.00   0.50208   3 ;     H1-    C1-    C2-    H5
     8      1      2      3      9     0.00   0.54392   3 ;     H2-    C1-    C2-    C3
     8      1      2     10      9     0.00   0.50208   3 ;     H2-    C1-    C2-    H4
     8      1      2     11      9     0.00   0.50208   3 ;     H2-    C1-    C2-    H5
     9      1      2      3      9     0.00   0.54392   3 ;     H3-    C1-    C2-    C3
     9      1      2     10      9     0.00   0.50208   3 ;     H3-    C1-    C2-    H4
     9      1      2     11      9     0.00   0.50208   3 ;     H3-    C1-    C2-    H5
    10      2      3     12      9     0.00   0.65084   3 ;     H4-    C2-    C3-    H6
    10      2      3     13      9     0.00   0.65084   3 ;     H4-    C2-    C3-    H7
    11      2      3     12      9     0.00   0.65084   3 ;     H5-    C2-    C3-    H6
    11      2      3     13      9     0.00   0.65084   3 ;     H5-    C2-    C3-    H7

[ dihedrals ] ; impropers
; treated as propers in GROMACS to use correct AMBER analytical function
;    i      j      k      l   func   phase     kd      pn
     3      5      4      6      4   180.00   4.60240   2 ;     C3-    O1-    N1-    O2
