mobley_7066554_GMX.gro created by acpype (v: 2023.10.27) on Thu May 14 13:24:41 2026
 1753
    1MOL     C1    1   1.201   1.373   1.261
    1MOL     C2    2   1.413   1.257   1.267
    1MOL     C3    3   1.199   1.376   1.401
    1MOL     C4    4   1.411   1.260   1.406
    1MOL     C5    5   1.308   1.314   1.194
    1MOL     C6    6   1.304   1.320   1.473
    1MOL     O1    7   1.310   1.311   1.058
    1MOL    CL1    8   1.302   1.324   1.645
    1MOL     H1    9   1.119   1.417   1.206
    1MOL     H2   10   1.496   1.211   1.215
    1MOL     H3   11   1.115   1.423   1.452
    1MOL     H4   12   1.493   1.216   1.462
    1MOL     H5   13   1.387   1.259   1.029
    2SOL     OW   14   0.230   0.628   0.113
    2SOL    HW1   15   0.137   0.626   0.150
    2SOL    HW2   16   0.231   0.589   0.021
    3SOL     OW   17   0.225   0.275   0.996
    3SOL    HW1   18   0.260   0.258   1.088
    3SOL    HW2   19   0.137   0.230   0.984
    4SOL     OW   20   0.019   0.368   0.647
    4SOL    HW1   21  -0.063   0.411   0.686
    4SOL    HW2   22  -0.009   0.295   0.584
    5SOL     OW   23   0.569   1.275   1.165
    5SOL    HW1   24   0.476   1.268   1.128
    5SOL    HW2   25   0.580   1.364   1.209
    6SOL     OW   26   1.555   1.511   0.703
    6SOL    HW1   27   1.498   1.495   0.784
    6SOL    HW2   28   1.496   1.521   0.623
    7SOL     OW   29   1.135   0.703   0.717
    7SOL    HW1   30   1.192   0.781   0.692
    7SOL    HW2   31   1.075   0.729   0.793
    8SOL     OW   32   1.755   0.607   0.231
    8SOL    HW1   33   1.743   0.594   0.132
    8SOL    HW2   34   1.725   0.526   0.280
    9SOL     OW   35   0.768   1.144   1.023
    9SOL    HW1   36   0.690   1.161   1.083
    9SOL    HW2   37   0.802   1.231   0.987
   10SOL     OW   38   0.850   0.798   1.823
   10SOL    HW1   39   0.846   0.874   1.888
   10SOL    HW2   40   0.872   0.834   1.732
   11SOL     OW   41   0.685   1.012   0.665
   11SOL    HW1   42   0.754   0.996   0.735
   11SOL    HW2   43   0.612   1.069   0.703
   12SOL     OW   44   0.686   1.161   1.803
   12SOL    HW1   45   0.746   1.240   1.817
   12SOL    HW2   46   0.600   1.192   1.762
   13SOL     OW   47   0.335   1.435   1.061
   13SOL    HW1   48   0.257   1.404   1.008
   13SOL    HW2   49   0.393   1.493   1.004
   14SOL     OW   50   1.460   1.505   1.339
   14SOL    HW1   51   1.484   1.599   1.365
   14SOL    HW2   52   1.444   1.451   1.421
   15SOL     OW   53   0.438   0.392   1.499
   15SOL    HW1   54   0.520   0.336   1.508
   15SOL    HW2   55   0.357   0.334   1.503
   16SOL     OW   56   1.603   0.447   0.737
   16SOL    HW1   57   1.529   0.493   0.687
   16SOL    HW2   58   1.654   0.515   0.790
   17SOL     OW   59   0.231   1.713   0.483
   17SOL    HW1   60   0.265   1.790   0.537
   17SOL    HW2   61   0.275   1.713   0.393
   18SOL     OW   62   0.230   1.434   0.538
   18SOL    HW1   63   0.204   1.530   0.538
   18SOL    HW2   64   0.159   1.380   0.583
   19SOL     OW   65   0.240   1.091   0.886
   19SOL    HW1   66   0.254   1.007   0.938
   19SOL    HW2   67   0.185   1.155   0.941
   20SOL     OW   68   0.620   1.786   1.439
   20SOL    HW1   69   0.528   1.769   1.474
   20SOL    HW2   70   0.648   1.878   1.465
   21SOL     OW   71   0.606   0.964   0.123
   21SOL    HW1   72   0.613   1.048   0.069
   21SOL    HW2   73   0.652   0.977   0.211
   22SOL     OW   74   1.594   0.114   1.480
   22SOL    HW1   75   1.576   0.181   1.408
   22SOL    HW2   76   1.591   0.160   1.569
   23SOL     OW   77   0.122   0.643   0.563
   23SOL    HW1   78   0.077   0.555   0.580
   23SOL    HW2   79   0.121   0.697   0.647
   24SOL     OW   80   1.842   1.767   0.359
   24SOL    HW1   81   1.896   1.738   0.439
   24SOL    HW2   82   1.872   1.857   0.330
   25SOL     OW   83   0.027   1.596   0.117
   25SOL    HW1   84   0.008   1.500   0.138
   25SOL    HW2   85  -0.006   1.654   0.192
   26SOL     OW   86   1.689   0.922   0.612
   26SOL    HW1   87   1.784   0.893   0.620
   26SOL    HW2   88   1.681   0.987   0.537
   27SOL     OW   89   1.641   1.108   0.432
   27SOL    HW1   90   1.727   1.110   0.380
   27SOL    HW2   91   1.655   1.155   0.520
   28SOL     OW   92   0.113   0.737   1.597
   28SOL    HW1   93   0.201   0.724   1.642
   28SOL    HW2   94   0.100   0.834   1.575
   29SOL     OW   95   0.613   1.365   0.726
   29SOL    HW1   96   0.564   1.278   0.735
   29SOL    HW2   97   0.590   1.408   0.639
   30SOL     OW   98   0.809   0.004   0.502
   30SOL    HW1   99   0.849   0.095   0.493
   30SOL    HW2  100   0.709   0.012   0.508
   31SOL     OW  101   0.197   0.976   1.264
   31SOL    HW1  102   0.286   0.931   1.250
   31SOL    HW2  103   0.124   0.911   1.245
   32SOL     OW  104   1.525   0.999   0.190
   32SOL    HW1  105   1.462   0.923   0.203
   32SOL    HW2  106   1.573   1.017   0.276
   33SOL     OW  107   1.187   1.792   1.616
   33SOL    HW1  108   1.211   1.852   1.540
   33SOL    HW2  109   1.194   1.697   1.586
   34SOL     OW  110   0.317   0.251   1.801
   34SOL    HW1  111   0.388   0.322   1.807
   34SOL    HW2  112   0.229   0.290   1.829
   35SOL     OW  113   1.667   1.714   0.572
   35SOL    HW1  114   1.626   1.691   0.484
   35SOL    HW2  115   1.649   1.640   0.637
   36SOL     OW  116   0.598   0.729   0.270
   36SOL    HW1  117   0.622   0.798   0.202
   36SOL    HW2  118   0.520   0.762   0.324
   37SOL     OW  119   1.281   0.345   0.944
   37SOL    HW1  120   1.195   0.295   0.931
   37SOL    HW2  121   1.343   0.291   1.000
   38SOL     OW  122   1.576   1.662   0.307
   38SOL    HW1  123   1.665   1.708   0.310
   38SOL    HW2  124   1.555   1.638   0.212
   39SOL     OW  125   0.807   0.605   1.465
   39SOL    HW1  126   0.760   0.602   1.554
   39SOL    HW2  127   0.756   0.550   1.399
   40SOL     OW  128   1.394   0.469   1.674
   40SOL    HW1  129   1.374   0.512   1.762
   40SOL    HW2  130   1.472   0.407   1.683
   41SOL     OW  131   0.973   0.890   1.572
   41SOL    HW1  132   1.019   0.806   1.543
   41SOL    HW2  133   0.917   0.924   1.497
   42SOL     OW  134   0.991   0.410   1.242
   42SOL    HW1  135   0.914   0.444   1.296
   42SOL    HW2  136   0.957   0.359   1.163
   43SOL     OW  137   1.041   0.701   0.429
   43SOL    HW1  138   1.067   0.697   0.525
   43SOL    HW2  139   0.956   0.650   0.415
   44SOL     OW  140   0.076   0.811   0.789
   44SOL    HW1  141   0.175   0.799   0.798
   44SOL    HW2  142   0.052   0.906   0.810
   45SOL     OW  143   0.130   1.821   1.571
   45SOL    HW1  144   0.120   1.806   1.670
   45SOL    HW2  145   0.044   1.857   1.535
   46SOL     OW  146   0.865   0.348   0.195
   46SOL    HW1  147   0.924   0.411   0.146
   46SOL    HW2  148   0.884   0.254   0.166
   47SOL     OW  149   1.719   0.585   1.831
   47SOL    HW1  150   1.693   0.674   1.795
   47SOL    HW2  151   1.717   0.517   1.758
   48SOL     OW  152   1.362   1.144   0.545
   48SOL    HW1  153   1.445   1.115   0.497
   48SOL    HW2  154   1.313   1.211   0.489
   49SOL     OW  155   0.550   0.196   0.885
   49SOL    HW1  156   0.545   0.191   0.985
   49SOL    HW2  157   0.552   0.292   0.856
   50SOL     OW  158   1.008   1.456   0.477
   50SOL    HW1  159   0.962   1.528   0.425
   50SOL    HW2  160   1.004   1.476   0.575
   51SOL     OW  161   0.351   1.801   0.853
   51SOL    HW1  162   0.401   1.715   0.859
   51SOL    HW2  163   0.416   1.878   0.850
   52SOL     OW  164   1.795   1.066   0.873
   52SOL    HW1  165   1.733   1.051   0.797
   52SOL    HW2  166   1.743   1.077   0.958
   53SOL     OW  167   0.321   0.943   0.242
   53SOL    HW1  168   0.403   0.982   0.200
   53SOL    HW2  169   0.294   0.861   0.193
   54SOL     OW  170   1.458   0.735   0.728
   54SOL    HW1  171   1.453   0.670   0.803
   54SOL    HW2  172   1.538   0.794   0.741
   55SOL     OW  173   0.461   1.266   1.727
   55SOL    HW1  174   0.411   1.267   1.641
   55SOL    HW2  175   0.398   1.248   1.803
   56SOL     OW  176   1.111   1.776   0.237
   56SOL    HW1  177   1.051   1.714   0.287
   56SOL    HW2  178   1.142   1.732   0.152
   57SOL     OW  179   0.202   0.285   1.498
   57SOL    HW1  180   0.122   0.345   1.485
   57SOL    HW2  181   0.192   0.236   1.584
   58SOL     OW  182   1.632   1.377   0.081
   58SOL    HW1  183   1.600   1.471   0.071
   58SOL    HW2  184   1.556   1.314   0.069
   59SOL     OW  185   0.464   1.743   0.323
   59SOL    HW1  186   0.497   1.782   0.409
   59SOL    HW2  187   0.540   1.736   0.258
   60SOL     OW  188   1.400   0.107   0.426
   60SOL    HW1  189   1.376   0.070   0.336
   60SOL    HW2  190   1.499   0.123   0.430
   61SOL     OW  191   0.249   1.785   1.241
   61SOL    HW1  192   0.306   1.720   1.291
   61SOL    HW2  193   0.233   1.752   1.148
   62SOL     OW  194   0.940   1.698   0.904
   62SOL    HW1  195   1.020   1.641   0.925
   62SOL    HW2  196   0.891   1.658   0.827
   63SOL     OW  197   0.382   0.700   0.480
   63SOL    HW1  198   0.427   0.610   0.477
   63SOL    HW2  199   0.288   0.689   0.513
   64SOL     OW  200   1.547   0.222   1.729
   64SOL    HW1  201   1.542   0.259   1.821
   64SOL    HW2  202   1.475   0.153   1.717
   65SOL     OW  203   0.614   0.122   0.117
   65SOL    HW1  204   0.712   0.100   0.124
   65SOL    HW2  205   0.583   0.105   0.024
   66SOL     OW  206   0.781   0.264   1.749
   66SOL    HW1  207   0.848   0.203   1.792
   66SOL    HW2  208   0.708   0.283   1.814
   67SOL     OW  209   0.888   1.514   1.195
   67SOL    HW1  210   0.865   1.489   1.101
   67SOL    HW2  211   0.949   1.445   1.234
   68SOL     OW  212   1.351   0.590   1.433
   68SOL    HW1  213   1.379   0.547   1.518
   68SOL    HW2  214   1.376   0.686   1.434
   69SOL     OW  215   0.803   1.402   0.924
   69SOL    HW1  216   0.893   1.416   0.882
   69SOL    HW2  217   0.732   1.404   0.853
   70SOL     OW  218   0.922   0.503   0.899
   70SOL    HW1  219   0.897   0.494   0.803
   70SOL    HW2  220   0.970   0.421   0.930
   71SOL     OW  221   0.539   0.064   0.512
   71SOL    HW1  222   0.458   0.065   0.570
   71SOL    HW2  223   0.542   0.147   0.457
   72SOL     OW  224   1.434   1.188   0.041
   72SOL    HW1  225   1.466   1.112   0.098
   72SOL    HW2  226   1.342   1.215   0.071
   73SOL     OW  227   0.297   0.035   0.171
   73SOL    HW1  228   0.346   0.119   0.150
   73SOL    HW2  229   0.359  -0.030   0.216
   74SOL     OW  230   0.935   0.236   0.480
   74SOL    HW1  231   0.887   0.277   0.402
   74SOL    HW2  232   1.034   0.234   0.461
   75SOL     OW  233   1.076   0.683   1.464
   75SOL    HW1  234   0.996   0.622   1.467
   75SOL    HW2  235   1.157   0.630   1.440
   76SOL     OW  236   1.227   1.570   0.793
   76SOL    HW1  237   1.248   1.644   0.728
   76SOL    HW2  238   1.295   1.570   0.866
   77SOL     OW  239   0.459   1.152   0.741
   77SOL    HW1  240   0.388   1.125   0.806
   77SOL    HW2  241   0.433   1.124   0.648
   78SOL     OW  242   1.271   1.797   0.591
   78SOL    HW1  243   1.315   1.861   0.527
   78SOL    HW2  244   1.221   1.849   0.661
   79SOL     OW  245   1.032   0.549   0.016
   79SOL    HW1  246   0.991   0.631  -0.023
   79SOL    HW2  247   1.096   0.575   0.089
   80SOL     OW  248   0.078   0.556   1.386
   80SOL    HW1  249   0.170   0.555   1.345
   80SOL    HW2  250   0.072   0.630   1.453
   81SOL     OW  251   0.561   0.222   1.147
   81SOL    HW1  252   0.599   0.138   1.184
   81SOL    HW2  253   0.473   0.241   1.191
   82SOL     OW  254   0.866   0.454   0.642
   82SOL    HW1  255   0.834   0.526   0.580
   82SOL    HW2  256   0.890   0.373   0.589
   83SOL     OW  257   1.017   0.039   0.753
   83SOL    HW1  258   0.945   0.044   0.684
   83SOL    HW2  259   0.993  -0.030   0.822
   84SOL     OW  260   1.429   1.173   0.867
   84SOL    HW1  261   1.374   1.089   0.860
   84SOL    HW2  262   1.455   1.202   0.775
   85SOL     OW  263   1.466   0.590   0.992
   85SOL    HW1  264   1.436   0.495   0.999
   85SOL    HW2  265   1.539   0.606   1.058
   86SOL     OW  266   1.857   0.833   0.377
   86SOL    HW1  267   1.899   0.769   0.441
   86SOL    HW2  268   1.819   0.782   0.299
   87SOL     OW  269   0.488   1.385   0.174
   87SOL    HW1  270   0.401   1.370   0.221
   87SOL    HW2  271   0.471   1.411   0.079
   88SOL     OW  272   1.664   1.280   0.657
   88SOL    HW1  273   1.763   1.288   0.671
   88SOL    HW2  274   1.619   1.364   0.688
   89SOL     OW  275   1.390   0.575   0.078
   89SOL    HW1  276   1.336   0.554   0.159
   89SOL    HW2  277   1.481   0.534   0.087
   90SOL     OW  278   0.527   0.256   0.328
   90SOL    HW1  279   0.554   0.197   0.253
   90SOL    HW2  280   0.527   0.351   0.297
   91SOL     OW  281   1.754   1.223   1.588
   91SOL    HW1  282   1.845   1.184   1.575
   91SOL    HW2  283   1.762   1.319   1.612
   92SOL     OW  284   1.592   1.629   1.625
   92SOL    HW1  285   1.619   1.663   1.535
   92SOL    HW2  286   1.671   1.591   1.671
   93SOL     OW  287   1.111   1.195   1.100
   93SOL    HW1  288   1.071   1.239   1.181
   93SOL    HW2  289   1.070   1.232   1.017
   94SOL     OW  290   1.638   1.099   1.079
   94SOL    HW1  291   1.643   1.180   1.138
   94SOL    HW2  292   1.552   1.101   1.028
   95SOL     OW  293   0.915   0.089   1.402
   95SOL    HW1  294   0.940   0.069   1.307
   95SOL    HW2  295   0.987   0.145   1.444
   96SOL     OW  296   0.980   1.116   1.719
   96SOL    HW1  297   0.881   1.122   1.729
   96SOL    HW2  298   1.003   1.036   1.663
   97SOL     OW  299   0.705   1.050   0.368
   97SOL    HW1  300   0.691   1.057   0.467
   97SOL    HW2  301   0.789   0.999   0.350
   98SOL     OW  302   0.410   0.813   1.251
   98SOL    HW1  303   0.496   0.825   1.301
   98SOL    HW2  304   0.368   0.726   1.278
   99SOL     OW  305   1.274   0.386   1.262
   99SOL    HW1  306   1.295   0.460   1.326
   99SOL    HW2  307   1.185   0.403   1.219
  100SOL     OW  308   0.064   1.564   1.331
  100SOL    HW1  309   0.018   1.646   1.297
  100SOL    HW2  310   0.162   1.583   1.340
  101SOL     OW  311   0.367   1.100   0.501
  101SOL    HW1  312   0.360   1.183   0.445
  101SOL    HW2  313   0.371   1.020   0.441
  102SOL     OW  314   0.566   0.537   0.865
  102SOL    HW1  315   0.578   0.603   0.791
  102SOL    HW2  316   0.612   0.571   0.948
  103SOL     OW  317   1.252   1.348   0.388
  103SOL    HW1  318   1.302   1.425   0.428
  103SOL    HW2  319   1.157   1.350   0.420
  104SOL     OW  320   1.582   0.639   0.472
  104SOL    HW1  321   1.551   0.700   0.545
  104SOL    HW2  322   1.632   0.691   0.403
  105SOL     OW  323   0.354   1.510   1.329
  105SOL    HW1  324   0.333   1.466   1.242
  105SOL    HW2  325   0.451   1.536   1.332
  106SOL     OW  326   0.402   0.751   1.598
  106SOL    HW1  327   0.470   0.806   1.551
  106SOL    HW2  328   0.442   0.663   1.625
  107SOL     OW  329   1.587   0.779   1.670
  107SOL    HW1  330   1.495   0.817   1.665
  107SOL    HW2  331   1.647   0.826   1.605
  108SOL     OW  332   1.013   0.105   1.770
  108SOL    HW1  333   1.019   0.190   1.718
  108SOL    HW2  334   1.045   0.029   1.713
  109SOL     OW  335   0.504   0.050   1.740
  109SOL    HW1  336   0.462  -0.007   1.670
  109SOL    HW2  337   0.438   0.119   1.772
  110SOL     OW  338   0.573   0.870   1.029
  110SOL    HW1  339   0.617   0.959   1.020
  110SOL    HW2  340   0.510   0.870   1.106
  111SOL     OW  341   1.360   0.862   1.045
  111SOL    HW1  342   1.285   0.862   0.979
  111SOL    HW2  343   1.397   0.770   1.054
  112SOL     OW  344   1.209   0.525   0.275
  112SOL    HW1  345   1.222   0.441   0.329
  112SOL    HW2  346   1.180   0.599   0.335
  113SOL     OW  347   0.307   0.213   1.231
  113SOL    HW1  348   0.284   0.250   1.321
  113SOL    HW2  349   0.277   0.118   1.225
  114SOL     OW  350   0.037   1.310   1.282
  114SOL    HW1  351   0.090   1.261   1.350
  114SOL    HW2  352   0.059   1.408   1.287
  115SOL     OW  353   0.732   0.634   1.064
  115SOL    HW1  354   0.791   0.608   0.988
  115SOL    HW2  355   0.704   0.730   1.053
  116SOL     OW  356   1.728   0.935   1.854
  116SOL    HW1  357   1.682   0.928   1.765
  116SOL    HW2  358   1.666   0.979   1.920
  117SOL     OW  359   0.307   0.063   0.618
  117SOL    HW1  360   0.296   0.157   0.651
  117SOL    HW2  361   0.302   0.000   0.695
  118SOL     OW  362   1.622   0.367   0.374
  118SOL    HW1  363   1.624   0.291   0.438
  118SOL    HW2  364   1.574   0.444   0.414
  119SOL     OW  365   1.023   0.766   0.966
  119SOL    HW1  366   1.038   0.787   1.062
  119SOL    HW2  367   0.993   0.671   0.957
  120SOL     OW  368   0.980   1.573   1.700
  120SOL    HW1  369   0.960   1.617   1.612
  120SOL    HW2  370   1.019   1.482   1.684
  121SOL     OW  371   1.859   1.518   1.605
  121SOL    HW1  372   1.873   1.545   1.510
  121SOL    HW2  373   1.942   1.540   1.658
  122SOL     OW  374   0.350   0.898   1.804
  122SOL    HW1  375   0.426   0.942   1.852
  122SOL    HW2  376   0.385   0.851   1.722
  123SOL     OW  377   1.540   0.274   0.125
  123SOL    HW1  378   1.479   0.199   0.148
  123SOL    HW2  379   1.562   0.326   0.208
  124SOL     OW  380   1.303   0.838   0.042
  124SOL    HW1  381   1.337   0.745   0.057
  124SOL    HW2  382   1.321   0.865  -0.053
  125SOL     OW  383   1.068   1.333   0.849
  125SOL    HW1  384   1.075   1.249   0.794
  125SOL    HW2  385   1.130   1.402   0.813
  126SOL     OW  386   0.319   0.810   0.949
  126SOL    HW1  387   0.412   0.846   0.954
  126SOL    HW2  388   0.313   0.725   1.001
  127SOL     OW  389   0.339   0.509   1.006
  127SOL    HW1  390   0.287   0.426   0.989
  127SOL    HW2  391   0.416   0.514   0.942
  128SOL     OW  392   1.138   0.380   1.678
  128SOL    HW1  393   1.093   0.443   1.742
  128SOL    HW2  394   1.231   0.411   1.661
  129SOL     OW  395   1.160   0.207   1.477
  129SOL    HW1  396   1.160   0.271   1.554
  129SOL    HW2  397   1.188   0.255   1.394
  130SOL     OW  398   0.008   1.326   0.200
  130SOL    HW1  399  -0.085   1.347   0.169
  130SOL    HW2  400   0.018   1.227   0.213
  131SOL     OW  401   0.088   1.801   0.927
  131SOL    HW1  402   0.046   1.715   0.900
  131SOL    HW2  403   0.182   1.804   0.893
  132SOL     OW  404   0.504   1.568   0.910
  132SOL    HW1  405   0.570   1.642   0.919
  132SOL    HW2  406   0.548   1.489   0.868
  133SOL     OW  407   1.002   0.796   1.238
  133SOL    HW1  408   1.043   0.764   1.324
  133SOL    HW2  409   0.906   0.769   1.235
  134SOL     OW  410   0.040   0.544   1.114
  134SOL    HW1  411   0.125   0.511   1.073
  134SOL    HW2  412   0.053   0.559   1.212
  135SOL     OW  413   0.189   0.520   1.722
  135SOL    HW1  414   0.248   0.480   1.652
  135SOL    HW2  415   0.131   0.591   1.681
  136SOL     OW  416   1.369   0.950   1.660
  136SOL    HW1  417   1.408   1.039   1.680
  136SOL    HW2  418   1.379   0.930   1.563
  137SOL     OW  419   0.815   0.572   0.325
  137SOL    HW1  420   0.822   0.483   0.279
  137SOL    HW2  421   0.721   0.606   0.317
  138SOL     OW  422   1.657   0.604   1.206
  138SOL    HW1  423   1.619   0.535   1.268
  138SOL    HW2  424   1.739   0.568   1.162
  139SOL     OW  425   0.252   1.564   1.744
  139SOL    HW1  426   0.222   1.621   1.820
  139SOL    HW2  427   0.245   1.467   1.770
  140SOL     OW  428   0.671   0.464   1.269
  140SOL    HW1  429   0.637   0.375   1.239
  140SOL    HW2  430   0.697   0.518   1.189
  141SOL     OW  431   0.930   1.678   1.465
  141SOL    HW1  432   0.906   1.660   1.370
  141SOL    HW2  433   0.960   1.772   1.475
  142SOL     OW  434   0.473   0.500   0.191
  142SOL    HW1  435   0.534   0.580   0.195
  142SOL    HW2  436   0.378   0.531   0.198
  143SOL     OW  437   0.159   1.137   1.466
  143SOL    HW1  438   0.181   1.076   1.542
  143SOL    HW2  439   0.169   1.088   1.380
  144SOL     OW  440   1.347   1.059   1.234
  144SOL    HW1  441   1.371   0.996   1.160
  144SOL    HW2  442   1.257   1.099   1.216
  145SOL     OW  443   1.302   0.855   0.309
  145SOL    HW1  444   1.216   0.824   0.351
  145SOL    HW2  445   1.298   0.841   0.210
  146SOL     OW  446   1.759   1.747   1.154
  146SOL    HW1  447   1.820   1.777   1.081
  146SOL    HW2  448   1.721   1.658   1.132
  147SOL     OW  449   1.252   1.731   1.128
  147SOL    HW1  450   1.336   1.736   1.074
  147SOL    HW2  451   1.229   1.635   1.146
  148SOL     OW  452   0.083   1.258   1.022
  148SOL    HW1  453   0.078   1.257   1.122
  148SOL    HW2  454   0.000   1.217   0.984
  149SOL     OW  455   0.688   1.662   1.716
  149SOL    HW1  456   0.632   1.743   1.725
  149SOL    HW2  457   0.740   1.666   1.630
  150SOL     OW  458   0.903   0.086   0.133
  150SOL    HW1  459   0.954   0.087   0.047
  150SOL    HW2  460   0.959   0.044   0.204
  151SOL     OW  461   1.726   0.135   0.523
  151SOL    HW1  462   1.799   0.118   0.456
  151SOL    HW2  463   1.695   0.048   0.561
  152SOL     OW  464   1.388   1.573   0.477
  152SOL    HW1  465   1.455   1.585   0.403
  152SOL    HW2  466   1.348   1.662   0.500
  153SOL     OW  467   0.130   1.794   1.851
  153SOL    HW1  468   0.089   1.720   1.904
  153SOL    HW2  469   0.194   1.845   1.909
  154SOL     OW  470   1.280   0.927   0.672
  154SOL    HW1  471   1.340   0.846   0.674
  154SOL    HW2  472   1.320   0.996   0.612
  155SOL     OW  473   0.830   1.273   1.422
  155SOL    HW1  474   0.825   1.306   1.517
  155SOL    HW2  475   0.744   1.292   1.376
  156SOL     OW  476   0.672   1.616   0.154
  156SOL    HW1  477   0.681   1.626   0.055
  156SOL    HW2  478   0.632   1.527   0.175
  157SOL     OW  479   1.650   1.720   1.394
  157SOL    HW1  480   1.703   1.730   1.310
  157SOL    HW2  481   1.623   1.810   1.428
  158SOL     OW  482   1.841   0.175   0.963
  158SOL    HW1  483   1.880   0.090   0.927
  158SOL    HW2  484   1.743   0.177   0.944
  159SOL     OW  485   0.263   0.326   0.720
  159SOL    HW1  486   0.184   0.377   0.686
  159SOL    HW2  487   0.254   0.311   0.818
  160SOL     OW  488   1.194   1.612   0.031
  160SOL    HW1  489   1.200   1.519   0.068
  160SOL    HW2  490   1.135   1.612  -0.049
  161SOL     OW  491   0.822   1.002   1.372
  161SOL    HW1  492   0.862   1.001   1.280
  161SOL    HW2  493   0.832   1.094   1.412
  162SOL     OW  494   0.916   0.910   0.291
  162SOL    HW1  495   0.979   0.948   0.223
  162SOL    HW2  496   0.956   0.827   0.330
  163SOL     OW  497   1.504   1.607   0.044
  163SOL    HW1  498   1.412   1.644   0.051
  163SOL    HW2  499   1.542   1.627  -0.046
  164SOL     OW  500   0.372   1.288   1.490
  164SOL    HW1  501   0.359   1.381   1.456
  164SOL    HW2  502   0.288   1.236   1.477
  165SOL     OW  503   1.039   1.098   0.696
  165SOL    HW1  504   0.969   1.051   0.750
  165SOL    HW2  505   1.098   1.030   0.653
  166SOL     OW  506   1.014   0.236   0.971
  166SOL    HW1  507   1.006   0.200   0.878
  166SOL    HW2  508   1.012   0.160   1.036
  167SOL     OW  509   0.590   1.487   0.491
  167SOL    HW1  510   0.632   1.429   0.421
  167SOL    HW2  511   0.546   1.566   0.447
  168SOL     OW  512   1.709   0.385   1.381
  168SOL    HW1  513   1.782   0.454   1.385
  168SOL    HW2  514   1.737   0.310   1.322
  169SOL     OW  515   0.255   1.348   0.290
  169SOL    HW1  516   0.159   1.349   0.263
  169SOL    HW2  517   0.267   1.401   0.374
  170SOL     OW  518   0.105   1.013   1.726
  170SOL    HW1  519   0.028   0.980   1.780
  170SOL    HW2  520   0.190   0.983   1.768
  171SOL     OW  521   0.672   0.203   1.489
  171SOL    HW1  522   0.762   0.187   1.449
  171SOL    HW2  523   0.680   0.208   1.588
  172SOL     OW  524   0.075   0.345   0.033
  172SOL    HW1  525  -0.017   0.317   0.004
  172SOL    HW2  526   0.106   0.422  -0.023
  173SOL     OW  527   1.440   0.856   1.398
  173SOL    HW1  528   1.383   0.908   1.335
  173SOL    HW2  529   1.536   0.868   1.374
  174SOL     OW  530   0.072   0.166   0.318
  174SOL    HW1  531   0.055   0.249   0.264
  174SOL    HW2  532   0.162   0.129   0.296
  175SOL     OW  533   1.183   1.335   0.119
  175SOL    HW1  534   1.084   1.324   0.121
  175SOL    HW2  535   1.217   1.350   0.212
  176SOL     OW  536   0.613   0.842   1.431
  176SOL    HW1  537   0.669   0.923   1.414
  176SOL    HW2  538   0.672   0.762   1.434
  177SOL     OW  539   1.493   1.767   0.959
  177SOL    HW1  540   1.526   1.831   0.890
  177SOL    HW2  541   1.559   1.761   1.034
  178SOL     OW  542   0.716   0.565   1.708
  178SOL    HW1  543   0.735   0.630   1.782
  178SOL    HW2  544   0.776   0.485   1.717
  179SOL     OW  545   0.390   1.741   1.560
  179SOL    HW1  546   0.299   1.782   1.558
  179SOL    HW2  547   0.383   1.647   1.592
  180SOL     OW  548   1.674   0.883   1.254
  180SOL    HW1  549   1.647   0.794   1.217
  180SOL    HW2  550   1.675   0.951   1.181
  181SOL     OW  551   1.225   0.325   0.449
  181SOL    HW1  552   1.290   0.251   0.438
  181SOL    HW2  553   1.245   0.375   0.533
  182SOL     OW  554   0.594   0.745   0.652
  182SOL    HW1  555   0.644   0.830   0.633
  182SOL    HW2  556   0.506   0.747   0.604
  183SOL     OW  557   1.777   0.342   1.642
  183SOL    HW1  558   1.760   0.373   1.548
  183SOL    HW2  559   1.693   0.305   1.680
  184SOL     OW  560   1.730   0.934   1.517
  184SOL    HW1  561   1.768   1.025   1.532
  184SOL    HW2  562   1.722   0.917   1.418
  185SOL     OW  563   0.859   1.374   0.016
  185SOL    HW1  564   0.813   1.389   0.104
  185SOL    HW2  565   0.903   1.459  -0.014
  186SOL     OW  566   0.661   1.790   0.953
  186SOL    HW1  567   0.615   1.878   0.940
  186SOL    HW2  568   0.760   1.802   0.946
  187SOL     OW  569   0.859   0.956   0.861
  187SOL    HW1  570   0.913   0.887   0.909
  187SOL    HW2  571   0.827   1.025   0.927
  188SOL     OW  572   1.083   0.984   0.087
  188SOL    HW1  573   1.060   1.037   0.005
  188SOL    HW2  574   1.164   0.928   0.068
  189SOL     OW  575   1.861   1.569   0.851
  189SOL    HW1  576   1.790   1.557   0.781
  189SOL    HW2  577   1.862   1.490   0.911
  190SOL     OW  578   0.221   1.314   1.844
  190SOL    HW1  579   0.156   1.241   1.823
  190SOL    HW2  580   0.225   1.328   1.942
  191SOL     OW  581   0.079   1.240   0.653
  191SOL    HW1  582   0.078   1.193   0.741
  191SOL    HW2  583   0.161   1.212   0.602
  192SOL     OW  584   0.672   1.391   1.624
  192SOL    HW1  585   0.594   1.341   1.662
  192SOL    HW2  586   0.669   1.486   1.655
  193SOL     OW  587   1.824   0.192   1.227
  193SOL    HW1  588   1.820   0.102   1.271
  193SOL    HW2  589   1.827   0.181   1.128
  194SOL     OW  590   0.428   0.424   0.520
  194SOL    HW1  591   0.458   0.352   0.458
  194SOL    HW2  592   0.389   0.384   0.603
  195SOL     OW  593   1.705   1.487   1.104
  195SOL    HW1  594   1.612   1.462   1.077
  195SOL    HW2  595   1.731   1.437   1.186
  196SOL     OW  596   0.317   0.547   1.280
  196SOL    HW1  597   0.355   0.488   1.352
  196SOL    HW2  598   0.357   0.521   1.192
  197SOL     OW  599   0.812   1.586   0.687
  197SOL    HW1  600   0.844   1.596   0.593
  197SOL    HW2  601   0.733   1.524   0.689
  198SOL     OW  602   1.424   0.214   1.112
  198SOL    HW1  603   1.476   0.149   1.167
  198SOL    HW2  604   1.375   0.277   1.173
  199SOL     OW  605   1.001   0.034   1.154
  199SOL    HW1  606   0.938  -0.038   1.123
  199SOL    HW2  607   1.094  -0.002   1.154
  200SOL     OW  608   0.770   1.330   0.301
  200SOL    HW1  609   0.724   1.243   0.318
  200SOL    HW2  610   0.861   1.327   0.342
  201SOL     OW  611   0.618   1.567   1.284
  201SOL    HW1  612   0.613   1.649   1.341
  201SOL    HW2  613   0.707   1.564   1.239
  202SOL     OW  614   1.352   0.052   0.168
  202SOL    HW1  615   1.387   0.011   0.084
  202SOL    HW2  616   1.262   0.014   0.188
  203SOL     OW  617   1.300   0.453   0.691
  203SOL    HW1  618   1.241   0.533   0.695
  203SOL    HW2  619   1.315   0.418   0.784
  204SOL     OW  620   1.593   0.221   0.882
  204SOL    HW1  621   1.509   0.220   0.936
  204SOL    HW2  622   1.595   0.304   0.826
  205SOL     OW  623   0.039   1.077   0.300
  205SOL    HW1  624   0.138   1.066   0.291
  205SOL    HW2  625  -0.001   0.991   0.332
  206SOL     OW  626   0.875   1.646   0.337
  206SOL    HW1  627   0.798   1.611   0.283
  206SOL    HW2  628   0.843   1.717   0.399
  207SOL     OW  629   0.230   0.628   1.975
  207SOL    HW1  630   0.137   0.626   2.012
  207SOL    HW2  631   0.231   0.589   1.883
  208SOL     OW  632   1.135   0.703   2.579
  208SOL    HW1  633   1.192   0.781   2.554
  208SOL    HW2  634   1.075   0.729   2.655
  209SOL     OW  635   1.755   0.607   2.093
  209SOL    HW1  636   1.743   0.594   1.994
  209SOL    HW2  637   1.725   0.526   2.142
  210SOL     OW  638   1.603   0.447   2.599
  210SOL    HW1  639   1.529   0.493   2.549
  210SOL    HW2  640   1.654   0.515   2.652
  211SOL     OW  641   0.231   1.713   2.345
  211SOL    HW1  642   0.265   1.790   2.399
  211SOL    HW2  643   0.275   1.713   2.255
  212SOL     OW  644   0.230   1.434   2.400
  212SOL    HW1  645   0.204   1.530   2.400
  212SOL    HW2  646   0.159   1.380   2.445
  213SOL     OW  647   0.606   0.964   1.985
  213SOL    HW1  648   0.613   1.048   1.931
  213SOL    HW2  649   0.652   0.977   2.073
  214SOL     OW  650   0.122   0.643   2.425
  214SOL    HW1  651   0.077   0.555   2.442
  214SOL    HW2  652   0.121   0.697   2.509
  215SOL     OW  653   1.842   1.767   2.221
  215SOL    HW1  654   1.896   1.738   2.301
  215SOL    HW2  655   1.872   1.857   2.192
  216SOL     OW  656   0.027   1.596   1.979
  216SOL    HW1  657   0.008   1.500   2.000
  216SOL    HW2  658  -0.006   1.654   2.054
  217SOL     OW  659   1.689   0.922   2.474
  217SOL    HW1  660   1.784   0.893   2.482
  217SOL    HW2  661   1.681   0.987   2.399
  218SOL     OW  662   1.641   1.108   2.294
  218SOL    HW1  663   1.727   1.110   2.242
  218SOL    HW2  664   1.655   1.155   2.382
  219SOL     OW  665   0.613   1.365   2.588
  219SOL    HW1  666   0.564   1.278   2.597
  219SOL    HW2  667   0.590   1.408   2.501
  220SOL     OW  668   0.809   0.004   2.364
  220SOL    HW1  669   0.849   0.095   2.355
  220SOL    HW2  670   0.709   0.012   2.370
  221SOL     OW  671   1.525   0.999   2.052
  221SOL    HW1  672   1.462   0.923   2.065
  221SOL    HW2  673   1.573   1.017   2.138
  222SOL     OW  674   0.598   0.729   2.132
  222SOL    HW1  675   0.622   0.798   2.064
  222SOL    HW2  676   0.520   0.762   2.186
  223SOL     OW  677   1.281   0.345   2.806
  223SOL    HW1  678   1.195   0.295   2.793
  223SOL    HW2  679   1.343   0.291   2.862
  224SOL     OW  680   1.576   1.662   2.169
  224SOL    HW1  681   1.665   1.708   2.172
  224SOL    HW2  682   1.555   1.638   2.074
  225SOL     OW  683   1.041   0.701   2.291
  225SOL    HW1  684   1.067   0.697   2.387
  225SOL    HW2  685   0.956   0.650   2.277
  226SOL     OW  686   0.076   0.811   2.651
  226SOL    HW1  687   0.175   0.799   2.660
  226SOL    HW2  688   0.052   0.906   2.672
  227SOL     OW  689   0.865   0.348   2.057
  227SOL    HW1  690   0.924   0.411   2.008
  227SOL    HW2  691   0.884   0.254   2.028
  228SOL     OW  692   1.362   1.144   2.407
  228SOL    HW1  693   1.445   1.115   2.359
  228SOL    HW2  694   1.313   1.211   2.351
  229SOL     OW  695   1.008   1.456   2.339
  229SOL    HW1  696   0.962   1.528   2.287
  229SOL    HW2  697   1.004   1.476   2.437
  230SOL     OW  698   0.351   1.801   2.715
  230SOL    HW1  699   0.401   1.715   2.721
  230SOL    HW2  700   0.416   1.878   2.712
  231SOL     OW  701   1.795   1.066   2.735
  231SOL    HW1  702   1.733   1.051   2.659
  231SOL    HW2  703   1.743   1.077   2.820
  232SOL     OW  704   0.321   0.943   2.104
  232SOL    HW1  705   0.403   0.982   2.062
  232SOL    HW2  706   0.294   0.861   2.055
  233SOL     OW  707   1.111   1.776   2.099
  233SOL    HW1  708   1.051   1.714   2.149
  233SOL    HW2  709   1.142   1.732   2.014
  234SOL     OW  710   1.632   1.377   1.943
  234SOL    HW1  711   1.600   1.471   1.933
  234SOL    HW2  712   1.556   1.314   1.931
  235SOL     OW  713   0.464   1.743   2.185
  235SOL    HW1  714   0.497   1.782   2.271
  235SOL    HW2  715   0.540   1.736   2.120
  236SOL     OW  716   1.400   0.107   2.288
  236SOL    HW1  717   1.376   0.070   2.198
  236SOL    HW2  718   1.499   0.123   2.292
  237SOL     OW  719   0.940   1.698   2.766
  237SOL    HW1  720   1.020   1.641   2.787
  237SOL    HW2  721   0.891   1.658   2.689
  238SOL     OW  722   0.382   0.700   2.342
  238SOL    HW1  723   0.427   0.610   2.339
  238SOL    HW2  724   0.288   0.689   2.375
  239SOL     OW  725   0.614   0.122   1.979
  239SOL    HW1  726   0.712   0.100   1.986
  239SOL    HW2  727   0.583   0.105   1.886
  240SOL     OW  728   0.539   0.064   2.374
  240SOL    HW1  729   0.458   0.065   2.432
  240SOL    HW2  730   0.542   0.147   2.319
  241SOL     OW  731   1.434   1.188   1.903
  241SOL    HW1  732   1.466   1.112   1.960
  241SOL    HW2  733   1.342   1.215   1.933
  242SOL     OW  734   0.297   0.035   2.033
  242SOL    HW1  735   0.346   0.119   2.012
  242SOL    HW2  736   0.359  -0.030   2.078
  243SOL     OW  737   0.935   0.236   2.342
  243SOL    HW1  738   0.887   0.277   2.264
  243SOL    HW2  739   1.034   0.234   2.323
  244SOL     OW  740   0.459   1.152   2.603
  244SOL    HW1  741   0.388   1.125   2.668
  244SOL    HW2  742   0.433   1.124   2.510
  245SOL     OW  743   1.271   1.797   2.453
  245SOL    HW1  744   1.315   1.861   2.389
  245SOL    HW2  745   1.221   1.849   2.523
  246SOL     OW  746   1.032   0.549   1.878
  246SOL    HW1  747   0.991   0.631   1.839
  246SOL    HW2  748   1.096   0.575   1.951
  247SOL     OW  749   0.866   0.454   2.504
  247SOL    HW1  750   0.834   0.526   2.442
  247SOL    HW2  751   0.890   0.373   2.451
  248SOL     OW  752   1.857   0.833   2.239
  248SOL    HW1  753   1.899   0.769   2.303
  248SOL    HW2  754   1.819   0.782   2.161
  249SOL     OW  755   0.488   1.385   2.036
  249SOL    HW1  756   0.401   1.370   2.083
  249SOL    HW2  757   0.471   1.411   1.941
  250SOL     OW  758   1.664   1.280   2.519
  250SOL    HW1  759   1.763   1.288   2.533
  250SOL    HW2  760   1.619   1.364   2.550
  251SOL     OW  761   1.390   0.575   1.940
  251SOL    HW1  762   1.336   0.554   2.021
  251SOL    HW2  763   1.481   0.534   1.949
  252SOL     OW  764   0.527   0.256   2.190
  252SOL    HW1  765   0.554   0.197   2.115
  252SOL    HW2  766   0.527   0.351   2.159
  253SOL     OW  767   1.111   1.195   2.962
  253SOL    HW1  768   1.071   1.239   3.043
  253SOL    HW2  769   1.070   1.232   2.879
  254SOL     OW  770   0.705   1.050   2.230
  254SOL    HW1  771   0.691   1.057   2.329
  254SOL    HW2  772   0.789   0.999   2.212
  255SOL     OW  773   0.367   1.100   2.363
  255SOL    HW1  774   0.360   1.183   2.307
  255SOL    HW2  775   0.371   1.020   2.303
  256SOL     OW  776   1.252   1.348   2.250
  256SOL    HW1  777   1.302   1.425   2.290
  256SOL    HW2  778   1.157   1.350   2.282
  257SOL     OW  779   1.582   0.639   2.334
  257SOL    HW1  780   1.551   0.700   2.407
  257SOL    HW2  781   1.632   0.691   2.265
  258SOL     OW  782   1.209   0.525   2.137
  258SOL    HW1  783   1.222   0.441   2.191
  258SOL    HW2  784   1.180   0.599   2.197
  259SOL     OW  785   0.307   0.063   2.480
  259SOL    HW1  786   0.296   0.157   2.513
  259SOL    HW2  787   0.302   0.000   2.557
  260SOL     OW  788   1.622   0.367   2.236
  260SOL    HW1  789   1.624   0.291   2.300
  260SOL    HW2  790   1.574   0.444   2.276
  261SOL     OW  791   1.540   0.274   1.987
  261SOL    HW1  792   1.479   0.199   2.010
  261SOL    HW2  793   1.562   0.326   2.070
  262SOL     OW  794   1.303   0.838   1.904
  262SOL    HW1  795   1.337   0.745   1.919
  262SOL    HW2  796   1.321   0.865   1.809
  263SOL     OW  797   0.008   1.326   2.062
  263SOL    HW1  798  -0.085   1.347   2.031
  263SOL    HW2  799   0.018   1.227   2.075
  264SOL     OW  800   0.815   0.572   2.187
  264SOL    HW1  801   0.822   0.483   2.141
  264SOL    HW2  802   0.721   0.606   2.179
  265SOL     OW  803   0.473   0.500   2.053
  265SOL    HW1  804   0.534   0.580   2.057
  265SOL    HW2  805   0.378   0.531   2.060
  266SOL     OW  806   1.302   0.855   2.171
  266SOL    HW1  807   1.216   0.824   2.213
  266SOL    HW2  808   1.298   0.841   2.072
  267SOL     OW  809   1.726   0.135   2.385
  267SOL    HW1  810   1.799   0.118   2.318
  267SOL    HW2  811   1.695   0.048   2.423
  268SOL     OW  812   1.388   1.573   2.339
  268SOL    HW1  813   1.455   1.585   2.265
  268SOL    HW2  814   1.348   1.662   2.362
  269SOL     OW  815   0.672   1.616   2.016
  269SOL    HW1  816   0.681   1.626   1.917
  269SOL    HW2  817   0.632   1.527   2.037
  270SOL     OW  818   1.841   0.175   2.825
  270SOL    HW1  819   1.880   0.090   2.789
  270SOL    HW2  820   1.743   0.177   2.806
  271SOL     OW  821   1.194   1.612   1.893
  271SOL    HW1  822   1.200   1.519   1.930
  271SOL    HW2  823   1.135   1.612   1.813
  272SOL     OW  824   0.916   0.910   2.153
  272SOL    HW1  825   0.979   0.948   2.085
  272SOL    HW2  826   0.956   0.827   2.192
  273SOL     OW  827   1.504   1.607   1.906
  273SOL    HW1  828   1.412   1.644   1.913
  273SOL    HW2  829   1.542   1.627   1.816
  274SOL     OW  830   0.590   1.487   2.353
  274SOL    HW1  831   0.632   1.429   2.283
  274SOL    HW2  832   0.546   1.566   2.309
  275SOL     OW  833   0.255   1.348   2.152
  275SOL    HW1  834   0.159   1.349   2.125
  275SOL    HW2  835   0.267   1.401   2.236
  276SOL     OW  836   0.075   0.345   1.895
  276SOL    HW1  837  -0.017   0.317   1.866
  276SOL    HW2  838   0.106   0.422   1.839
  277SOL     OW  839   0.072   0.166   2.180
  277SOL    HW1  840   0.055   0.249   2.126
  277SOL    HW2  841   0.162   0.129   2.158
  278SOL     OW  842   1.183   1.335   1.981
  278SOL    HW1  843   1.084   1.324   1.983
  278SOL    HW2  844   1.217   1.350   2.074
  279SOL     OW  845   1.225   0.325   2.311
  279SOL    HW1  846   1.290   0.251   2.300
  279SOL    HW2  847   1.245   0.375   2.395
  280SOL     OW  848   0.594   0.745   2.514
  280SOL    HW1  849   0.644   0.830   2.495
  280SOL    HW2  850   0.506   0.747   2.466
  281SOL     OW  851   0.859   1.374   1.878
  281SOL    HW1  852   0.813   1.389   1.966
  281SOL    HW2  853   0.903   1.459   1.848
  282SOL     OW  854   1.083   0.984   1.949
  282SOL    HW1  855   1.060   1.037   1.867
  282SOL    HW2  856   1.164   0.928   1.930
  283SOL     OW  857   0.079   1.240   2.515
  283SOL    HW1  858   0.078   1.193   2.603
  283SOL    HW2  859   0.161   1.212   2.464
  284SOL     OW  860   0.428   0.424   2.382
  284SOL    HW1  861   0.458   0.352   2.320
  284SOL    HW2  862   0.389   0.384   2.465
  285SOL     OW  863   0.812   1.586   2.549
  285SOL    HW1  864   0.844   1.596   2.455
  285SOL    HW2  865   0.733   1.524   2.551
  286SOL     OW  866   0.770   1.330   2.163
  286SOL    HW1  867   0.724   1.243   2.180
  286SOL    HW2  868   0.861   1.327   2.204
  287SOL     OW  869   1.352   0.052   2.030
  287SOL    HW1  870   1.387   0.011   1.946
  287SOL    HW2  871   1.262   0.014   2.050
  288SOL     OW  872   1.300   0.453   2.553
  288SOL    HW1  873   1.241   0.533   2.557
  288SOL    HW2  874   1.315   0.418   2.646
  289SOL     OW  875   0.039   1.077   2.162
  289SOL    HW1  876   0.138   1.066   2.153
  289SOL    HW2  877  -0.001   0.991   2.194
  290SOL     OW  878   0.875   1.646   2.199
  290SOL    HW1  879   0.798   1.611   2.145
  290SOL    HW2  880   0.843   1.717   2.261
  291SOL     OW  881   0.230   2.490   0.113
  291SOL    HW1  882   0.137   2.488   0.150
  291SOL    HW2  883   0.231   2.451   0.021
  292SOL     OW  884   0.225   2.137   0.996
  292SOL    HW1  885   0.260   2.120   1.088
  292SOL    HW2  886   0.137   2.092   0.984
  293SOL     OW  887   0.019   2.230   0.647
  293SOL    HW1  888  -0.063   2.273   0.686
  293SOL    HW2  889  -0.009   2.157   0.584
  294SOL     OW  890   1.755   2.469   0.231
  294SOL    HW1  891   1.743   2.456   0.132
  294SOL    HW2  892   1.725   2.388   0.280
  295SOL     OW  893   0.685   2.874   0.665
  295SOL    HW1  894   0.754   2.858   0.735
  295SOL    HW2  895   0.612   2.931   0.703
  296SOL     OW  896   0.438   2.254   1.499
  296SOL    HW1  897   0.520   2.198   1.508
  296SOL    HW2  898   0.357   2.196   1.503
  297SOL     OW  899   1.603   2.309   0.737
  297SOL    HW1  900   1.529   2.355   0.687
  297SOL    HW2  901   1.654   2.377   0.790
  298SOL     OW  902   1.594   1.976   1.480
  298SOL    HW1  903   1.576   2.043   1.408
  298SOL    HW2  904   1.591   2.022   1.569
  299SOL     OW  905   0.122   2.505   0.563
  299SOL    HW1  906   0.077   2.417   0.580
  299SOL    HW2  907   0.121   2.559   0.647
  300SOL     OW  908   0.113   2.599   1.597
  300SOL    HW1  909   0.201   2.586   1.642
  300SOL    HW2  910   0.100   2.696   1.575
  301SOL     OW  911   0.809   1.866   0.502
  301SOL    HW1  912   0.849   1.957   0.493
  301SOL    HW2  913   0.709   1.874   0.508
  302SOL     OW  914   0.317   2.113   1.801
  302SOL    HW1  915   0.388   2.184   1.807
  302SOL    HW2  916   0.229   2.152   1.829
  303SOL     OW  917   1.281   2.207   0.944
  303SOL    HW1  918   1.195   2.157   0.931
  303SOL    HW2  919   1.343   2.153   1.000
  304SOL     OW  920   0.807   2.467   1.465
  304SOL    HW1  921   0.760   2.464   1.554
  304SOL    HW2  922   0.756   2.412   1.399
  305SOL     OW  923   1.394   2.331   1.674
  305SOL    HW1  924   1.374   2.374   1.762
  305SOL    HW2  925   1.472   2.269   1.683
  306SOL     OW  926   0.991   2.272   1.242
  306SOL    HW1  927   0.914   2.306   1.296
  306SOL    HW2  928   0.957   2.221   1.163
  307SOL     OW  929   1.041   2.563   0.429
  307SOL    HW1  930   1.067   2.559   0.525
  307SOL    HW2  931   0.956   2.512   0.415
  308SOL     OW  932   0.076   2.673   0.789
  308SOL    HW1  933   0.175   2.661   0.798
  308SOL    HW2  934   0.052   2.768   0.810
  309SOL     OW  935   0.865   2.210   0.195
  309SOL    HW1  936   0.924   2.273   0.146
  309SOL    HW2  937   0.884   2.116   0.166
  310SOL     OW  938   1.719   2.447   1.831
  310SOL    HW1  939   1.693   2.536   1.795
  310SOL    HW2  940   1.717   2.379   1.758
  311SOL     OW  941   0.550   2.058   0.885
  311SOL    HW1  942   0.545   2.053   0.985
  311SOL    HW2  943   0.552   2.154   0.856
  312SOL     OW  944   1.458   2.597   0.728
  312SOL    HW1  945   1.453   2.532   0.803
  312SOL    HW2  946   1.538   2.656   0.741
  313SOL     OW  947   0.202   2.147   1.498
  313SOL    HW1  948   0.122   2.207   1.485
  313SOL    HW2  949   0.192   2.098   1.584
  314SOL     OW  950   1.400   1.969   0.426
  314SOL    HW1  951   1.376   1.932   0.336
  314SOL    HW2  952   1.499   1.985   0.430
  315SOL     OW  953   0.382   2.562   0.480
  315SOL    HW1  954   0.427   2.472   0.477
  315SOL    HW2  955   0.288   2.551   0.513
  316SOL     OW  956   1.547   2.084   1.729
  316SOL    HW1  957   1.542   2.121   1.821
  316SOL    HW2  958   1.475   2.015   1.717
  317SOL     OW  959   0.614   1.984   0.117
  317SOL    HW1  960   0.712   1.962   0.124
  317SOL    HW2  961   0.583   1.967   0.024
  318SOL     OW  962   0.781   2.126   1.749
  318SOL    HW1  963   0.848   2.065   1.792
  318SOL    HW2  964   0.708   2.145   1.814
  319SOL     OW  965   1.351   2.452   1.433
  319SOL    HW1  966   1.379   2.409   1.518
  319SOL    HW2  967   1.376   2.548   1.434
  320SOL     OW  968   0.922   2.365   0.899
  320SOL    HW1  969   0.897   2.356   0.803
  320SOL    HW2  970   0.970   2.283   0.930
  321SOL     OW  971   0.539   1.926   0.512
  321SOL    HW1  972   0.458   1.927   0.570
  321SOL    HW2  973   0.542   2.009   0.457
  322SOL     OW  974   0.935   2.098   0.480
  322SOL    HW1  975   0.887   2.139   0.402
  322SOL    HW2  976   1.034   2.096   0.461
  323SOL     OW  977   1.076   2.545   1.464
  323SOL    HW1  978   0.996   2.484   1.467
  323SOL    HW2  979   1.157   2.492   1.440
  324SOL     OW  980   1.032   2.411   0.016
  324SOL    HW1  981   0.991   2.493  -0.023
  324SOL    HW2  982   1.096   2.437   0.089
  325SOL     OW  983   0.078   2.418   1.386
  325SOL    HW1  984   0.170   2.417   1.345
  325SOL    HW2  985   0.072   2.492   1.453
  326SOL     OW  986   0.561   2.084   1.147
  326SOL    HW1  987   0.599   2.000   1.184
  326SOL    HW2  988   0.473   2.103   1.191
  327SOL     OW  989   0.866   2.316   0.642
  327SOL    HW1  990   0.834   2.388   0.580
  327SOL    HW2  991   0.890   2.235   0.589
  328SOL     OW  992   1.017   1.901   0.753
  328SOL    HW1  993   0.945   1.906   0.684
  328SOL    HW2  994   0.993   1.832   0.822
  329SOL     OW  995   1.466   2.452   0.992
  329SOL    HW1  996   1.436   2.357   0.999
  329SOL    HW2  997   1.539   2.468   1.058
  330SOL     OW  998   1.390   2.437   0.078
  330SOL    HW1  999   1.336   2.416   0.159
  330SOL    HW2 1000   1.481   2.396   0.087
  331SOL     OW 1001   0.527   2.118   0.328
  331SOL    HW1 1002   0.554   2.059   0.253
  331SOL    HW2 1003   0.527   2.213   0.297
  332SOL     OW 1004   0.915   1.951   1.402
  332SOL    HW1 1005   0.940   1.931   1.307
  332SOL    HW2 1006   0.987   2.007   1.444
  333SOL     OW 1007   1.274   2.248   1.262
  333SOL    HW1 1008   1.295   2.322   1.326
  333SOL    HW2 1009   1.185   2.265   1.219
  334SOL     OW 1010   0.566   2.399   0.865
  334SOL    HW1 1011   0.578   2.465   0.791
  334SOL    HW2 1012   0.612   2.433   0.948
  335SOL     OW 1013   1.582   2.501   0.472
  335SOL    HW1 1014   1.551   2.562   0.545
  335SOL    HW2 1015   1.632   2.553   0.403
  336SOL     OW 1016   1.013   1.967   1.770
  336SOL    HW1 1017   1.019   2.052   1.718
  336SOL    HW2 1018   1.045   1.891   1.713
  337SOL     OW 1019   0.504   1.912   1.740
  337SOL    HW1 1020   0.462   1.855   1.670
  337SOL    HW2 1021   0.438   1.981   1.772
  338SOL     OW 1022   1.209   2.387   0.275
  338SOL    HW1 1023   1.222   2.303   0.329
  338SOL    HW2 1024   1.180   2.461   0.335
  339SOL     OW 1025   0.307   2.075   1.231
  339SOL    HW1 1026   0.284   2.112   1.321
  339SOL    HW2 1027   0.277   1.980   1.225
  340SOL     OW 1028   0.732   2.496   1.064
  340SOL    HW1 1029   0.791   2.470   0.988
  340SOL    HW2 1030   0.704   2.592   1.053
  341SOL     OW 1031   0.307   1.925   0.618
  341SOL    HW1 1032   0.296   2.019   0.651
  341SOL    HW2 1033   0.302   1.862   0.695
  342SOL     OW 1034   1.622   2.229   0.374
  342SOL    HW1 1035   1.624   2.153   0.438
  342SOL    HW2 1036   1.574   2.306   0.414
  343SOL     OW 1037   1.540   2.136   0.125
  343SOL    HW1 1038   1.479   2.061   0.148
  343SOL    HW2 1039   1.562   2.188   0.208
  344SOL     OW 1040   0.319   2.672   0.949
  344SOL    HW1 1041   0.412   2.708   0.954
  344SOL    HW2 1042   0.313   2.587   1.001
  345SOL     OW 1043   0.339   2.371   1.006
  345SOL    HW1 1044   0.287   2.288   0.989
  345SOL    HW2 1045   0.416   2.376   0.942
  346SOL     OW 1046   1.138   2.242   1.678
  346SOL    HW1 1047   1.093   2.305   1.742
  346SOL    HW2 1048   1.231   2.273   1.661
  347SOL     OW 1049   1.160   2.069   1.477
  347SOL    HW1 1050   1.160   2.133   1.554
  347SOL    HW2 1051   1.188   2.117   1.394
  348SOL     OW 1052   0.040   2.406   1.114
  348SOL    HW1 1053   0.125   2.373   1.073
  348SOL    HW2 1054   0.053   2.421   1.212
  349SOL     OW 1055   0.189   2.382   1.722
  349SOL    HW1 1056   0.248   2.342   1.652
  349SOL    HW2 1057   0.131   2.453   1.681
  350SOL     OW 1058   0.815   2.434   0.325
  350SOL    HW1 1059   0.822   2.345   0.279
  350SOL    HW2 1060   0.721   2.468   0.317
  351SOL     OW 1061   1.657   2.466   1.206
  351SOL    HW1 1062   1.619   2.397   1.268
  351SOL    HW2 1063   1.739   2.430   1.162
  352SOL     OW 1064   0.671   2.326   1.269
  352SOL    HW1 1065   0.637   2.237   1.239
  352SOL    HW2 1066   0.697   2.380   1.189
  353SOL     OW 1067   0.473   2.362   0.191
  353SOL    HW1 1068   0.534   2.442   0.195
  353SOL    HW2 1069   0.378   2.393   0.198
  354SOL     OW 1070   0.903   1.948   0.133
  354SOL    HW1 1071   0.954   1.949   0.047
  354SOL    HW2 1072   0.959   1.906   0.204
  355SOL     OW 1073   1.726   1.997   0.523
  355SOL    HW1 1074   1.799   1.980   0.456
  355SOL    HW2 1075   1.695   1.910   0.561
  356SOL     OW 1076   1.280   2.789   0.672
  356SOL    HW1 1077   1.340   2.708   0.674
  356SOL    HW2 1078   1.320   2.858   0.612
  357SOL     OW 1079   1.841   2.037   0.963
  357SOL    HW1 1080   1.880   1.952   0.927
  357SOL    HW2 1081   1.743   2.039   0.944
  358SOL     OW 1082   0.263   2.188   0.720
  358SOL    HW1 1083   0.184   2.239   0.686
  358SOL    HW2 1084   0.254   2.173   0.818
  359SOL     OW 1085   1.014   2.098   0.971
  359SOL    HW1 1086   1.006   2.062   0.878
  359SOL    HW2 1087   1.012   2.022   1.036
  360SOL     OW 1088   1.709   2.247   1.381
  360SOL    HW1 1089   1.782   2.316   1.385
  360SOL    HW2 1090   1.737   2.172   1.322
  361SOL     OW 1091   0.672   2.065   1.489
  361SOL    HW1 1092   0.762   2.049   1.449
  361SOL    HW2 1093   0.680   2.070   1.588
  362SOL     OW 1094   0.075   2.207   0.033
  362SOL    HW1 1095  -0.017   2.179   0.004
  362SOL    HW2 1096   0.106   2.284  -0.023
  363SOL     OW 1097   0.072   2.028   0.318
  363SOL    HW1 1098   0.055   2.111   0.264
  363SOL    HW2 1099   0.162   1.991   0.296
  364SOL     OW 1100   0.716   2.427   1.708
  364SOL    HW1 1101   0.735   2.492   1.782
  364SOL    HW2 1102   0.776   2.347   1.717
  365SOL     OW 1103   1.225   2.187   0.449
  365SOL    HW1 1104   1.290   2.113   0.438
  365SOL    HW2 1105   1.245   2.237   0.533
  366SOL     OW 1106   1.777   2.204   1.642
  366SOL    HW1 1107   1.760   2.235   1.548
  366SOL    HW2 1108   1.693   2.167   1.680
  367SOL     OW 1109   1.083   2.846   0.087
  367SOL    HW1 1110   1.060   2.899   0.005
  367SOL    HW2 1111   1.164   2.790   0.068
  368SOL     OW 1112   1.824   2.054   1.227
  368SOL    HW1 1113   1.820   1.964   1.271
  368SOL    HW2 1114   1.827   2.043   1.128
  369SOL     OW 1115   0.428   2.286   0.520
  369SOL    HW1 1116   0.458   2.214   0.458
  369SOL    HW2 1117   0.389   2.246   0.603
  370SOL     OW 1118   0.317   2.409   1.280
  370SOL    HW1 1119   0.355   2.350   1.352
  370SOL    HW2 1120   0.357   2.383   1.192
  371SOL     OW 1121   1.424   2.076   1.112
  371SOL    HW1 1122   1.476   2.011   1.167
  371SOL    HW2 1123   1.375   2.139   1.173
  372SOL     OW 1124   1.001   1.896   1.154
  372SOL    HW1 1125   0.938   1.824   1.123
  372SOL    HW2 1126   1.094   1.860   1.154
  373SOL     OW 1127   1.352   1.914   0.168
  373SOL    HW1 1128   1.387   1.873   0.084
  373SOL    HW2 1129   1.262   1.876   0.188
  374SOL     OW 1130   1.300   2.315   0.691
  374SOL    HW1 1131   1.241   2.395   0.695
  374SOL    HW2 1132   1.315   2.280   0.784
  375SOL     OW 1133   1.593   2.083   0.882
  375SOL    HW1 1134   1.509   2.082   0.936
  375SOL    HW2 1135   1.595   2.166   0.826
  376SOL     OW 1136   0.230   2.490   1.975
  376SOL    HW1 1137   0.137   2.488   2.012
  376SOL    HW2 1138   0.231   2.451   1.883
  377SOL     OW 1139   1.135   2.565   2.579
  377SOL    HW1 1140   1.192   2.643   2.554
  377SOL    HW2 1141   1.075   2.591   2.655
  378SOL     OW 1142   1.755   2.469   2.093
  378SOL    HW1 1143   1.743   2.456   1.994
  378SOL    HW2 1144   1.725   2.388   2.142
  379SOL     OW 1145   0.685   2.874   2.527
  379SOL    HW1 1146   0.754   2.858   2.597
  379SOL    HW2 1147   0.612   2.931   2.565
  380SOL     OW 1148   1.603   2.309   2.599
  380SOL    HW1 1149   1.529   2.355   2.549
  380SOL    HW2 1150   1.654   2.377   2.652
  381SOL     OW 1151   0.240   2.953   2.748
  381SOL    HW1 1152   0.254   2.869   2.800
  381SOL    HW2 1153   0.185   3.017   2.803
  382SOL     OW 1154   0.122   2.505   2.425
  382SOL    HW1 1155   0.077   2.417   2.442
  382SOL    HW2 1156   0.121   2.559   2.509
  383SOL     OW 1157   0.809   1.866   2.364
  383SOL    HW1 1158   0.849   1.957   2.355
  383SOL    HW2 1159   0.709   1.874   2.370
  384SOL     OW 1160   1.281   2.207   2.806
  384SOL    HW1 1161   1.195   2.157   2.793
  384SOL    HW2 1162   1.343   2.153   2.862
  385SOL     OW 1163   1.041   2.563   2.291
  385SOL    HW1 1164   1.067   2.559   2.387
  385SOL    HW2 1165   0.956   2.512   2.277
  386SOL     OW 1166   0.076   2.673   2.651
  386SOL    HW1 1167   0.175   2.661   2.660
  386SOL    HW2 1168   0.052   2.768   2.672
  387SOL     OW 1169   0.865   2.210   2.057
  387SOL    HW1 1170   0.924   2.273   2.008
  387SOL    HW2 1171   0.884   2.116   2.028
  388SOL     OW 1172   1.400   1.969   2.288
  388SOL    HW1 1173   1.376   1.932   2.198
  388SOL    HW2 1174   1.499   1.985   2.292
  389SOL     OW 1175   0.382   2.562   2.342
  389SOL    HW1 1176   0.427   2.472   2.339
  389SOL    HW2 1177   0.288   2.551   2.375
  390SOL     OW 1178   0.614   1.984   1.979
  390SOL    HW1 1179   0.712   1.962   1.986
  390SOL    HW2 1180   0.583   1.967   1.886
  391SOL     OW 1181   0.539   1.926   2.374
  391SOL    HW1 1182   0.458   1.927   2.432
  391SOL    HW2 1183   0.542   2.009   2.319
  392SOL     OW 1184   0.297   1.897   2.033
  392SOL    HW1 1185   0.346   1.981   2.012
  392SOL    HW2 1186   0.359   1.832   2.078
  393SOL     OW 1187   0.935   2.098   2.342
  393SOL    HW1 1188   0.887   2.139   2.264
  393SOL    HW2 1189   1.034   2.096   2.323
  394SOL     OW 1190   1.032   2.411   1.878
  394SOL    HW1 1191   0.991   2.493   1.839
  394SOL    HW2 1192   1.096   2.437   1.951
  395SOL     OW 1193   0.866   2.316   2.504
  395SOL    HW1 1194   0.834   2.388   2.442
  395SOL    HW2 1195   0.890   2.235   2.451
  396SOL     OW 1196   1.390   2.437   1.940
  396SOL    HW1 1197   1.336   2.416   2.021
  396SOL    HW2 1198   1.481   2.396   1.949
  397SOL     OW 1199   0.527   2.118   2.190
  397SOL    HW1 1200   0.554   2.059   2.115
  397SOL    HW2 1201   0.527   2.213   2.159
  398SOL     OW 1202   1.582   2.501   2.334
  398SOL    HW1 1203   1.551   2.562   2.407
  398SOL    HW2 1204   1.632   2.553   2.265
  399SOL     OW 1205   1.209   2.387   2.137
  399SOL    HW1 1206   1.222   2.303   2.191
  399SOL    HW2 1207   1.180   2.461   2.197
  400SOL     OW 1208   0.307   1.925   2.480
  400SOL    HW1 1209   0.296   2.019   2.513
  400SOL    HW2 1210   0.302   1.862   2.557
  401SOL     OW 1211   1.622   2.229   2.236
  401SOL    HW1 1212   1.624   2.153   2.300
  401SOL    HW2 1213   1.574   2.306   2.276
  402SOL     OW 1214   1.540   2.136   1.987
  402SOL    HW1 1215   1.479   2.061   2.010
  402SOL    HW2 1216   1.562   2.188   2.070
  403SOL     OW 1217   0.815   2.434   2.187
  403SOL    HW1 1218   0.822   2.345   2.141
  403SOL    HW2 1219   0.721   2.468   2.179
  404SOL     OW 1220   0.473   2.362   2.053
  404SOL    HW1 1221   0.534   2.442   2.057
  404SOL    HW2 1222   0.378   2.393   2.060
  405SOL     OW 1223   1.726   1.997   2.385
  405SOL    HW1 1224   1.799   1.980   2.318
  405SOL    HW2 1225   1.695   1.910   2.423
  406SOL     OW 1226   1.280   2.789   2.534
  406SOL    HW1 1227   1.340   2.708   2.536
  406SOL    HW2 1228   1.320   2.858   2.474
  407SOL     OW 1229   1.841   2.037   2.825
  407SOL    HW1 1230   1.880   1.952   2.789
  407SOL    HW2 1231   1.743   2.039   2.806
  408SOL     OW 1232   0.075   2.207   1.895
  408SOL    HW1 1233  -0.017   2.179   1.866
  408SOL    HW2 1234   0.106   2.284   1.839
  409SOL     OW 1235   0.072   2.028   2.180
  409SOL    HW1 1236   0.055   2.111   2.126
  409SOL    HW2 1237   0.162   1.991   2.158
  410SOL     OW 1238   1.225   2.187   2.311
  410SOL    HW1 1239   1.290   2.113   2.300
  410SOL    HW2 1240   1.245   2.237   2.395
  411SOL     OW 1241   1.083   2.846   1.949
  411SOL    HW1 1242   1.060   2.899   1.867
  411SOL    HW2 1243   1.164   2.790   1.930
  412SOL     OW 1244   0.428   2.286   2.382
  412SOL    HW1 1245   0.458   2.214   2.320
  412SOL    HW2 1246   0.389   2.246   2.465
  413SOL     OW 1247   1.352   1.914   2.030
  413SOL    HW1 1248   1.387   1.873   1.946
  413SOL    HW2 1249   1.262   1.876   2.050
  414SOL     OW 1250   1.300   2.315   2.553
  414SOL    HW1 1251   1.241   2.395   2.557
  414SOL    HW2 1252   1.315   2.280   2.646
  415SOL     OW 1253   2.092   0.628   0.113
  415SOL    HW1 1254   1.999   0.626   0.150
  415SOL    HW2 1255   2.093   0.589   0.021
  416SOL     OW 1256   2.087   0.275   0.996
  416SOL    HW1 1257   2.122   0.258   1.088
  416SOL    HW2 1258   1.999   0.230   0.984
  417SOL     OW 1259   1.881   0.368   0.647
  417SOL    HW1 1260   1.799   0.411   0.686
  417SOL    HW2 1261   1.853   0.295   0.584
  418SOL     OW 1262   2.431   1.275   1.165
  418SOL    HW1 1263   2.338   1.268   1.128
  418SOL    HW2 1264   2.442   1.364   1.209
  419SOL     OW 1265   2.712   0.798   1.823
  419SOL    HW1 1266   2.708   0.874   1.888
  419SOL    HW2 1267   2.734   0.834   1.732
  420SOL     OW 1268   2.548   1.161   1.803
  420SOL    HW1 1269   2.608   1.240   1.817
  420SOL    HW2 1270   2.462   1.192   1.762
  421SOL     OW 1271   2.197   1.435   1.061
  421SOL    HW1 1272   2.119   1.404   1.008
  421SOL    HW2 1273   2.255   1.493   1.004
  422SOL     OW 1274   2.300   0.392   1.499
  422SOL    HW1 1275   2.382   0.336   1.508
  422SOL    HW2 1276   2.219   0.334   1.503
  423SOL     OW 1277   2.093   1.713   0.483
  423SOL    HW1 1278   2.127   1.790   0.537
  423SOL    HW2 1279   2.137   1.713   0.393
  424SOL     OW 1280   2.092   1.434   0.538
  424SOL    HW1 1281   2.066   1.530   0.538
  424SOL    HW2 1282   2.021   1.380   0.583
  425SOL     OW 1283   2.102   1.091   0.886
  425SOL    HW1 1284   2.116   1.007   0.938
  425SOL    HW2 1285   2.047   1.155   0.941
  426SOL     OW 1286   2.482   1.786   1.439
  426SOL    HW1 1287   2.390   1.769   1.474
  426SOL    HW2 1288   2.510   1.878   1.465
  427SOL     OW 1289   2.468   0.964   0.123
  427SOL    HW1 1290   2.475   1.048   0.069
  427SOL    HW2 1291   2.514   0.977   0.211
  428SOL     OW 1292   1.984   0.643   0.563
  428SOL    HW1 1293   1.939   0.555   0.580
  428SOL    HW2 1294   1.983   0.697   0.647
  429SOL     OW 1295   1.889   1.596   0.117
  429SOL    HW1 1296   1.870   1.500   0.138
  429SOL    HW2 1297   1.856   1.654   0.192
  430SOL     OW 1298   1.975   0.737   1.597
  430SOL    HW1 1299   2.063   0.724   1.642
  430SOL    HW2 1300   1.962   0.834   1.575
  431SOL     OW 1301   2.475   1.365   0.726
  431SOL    HW1 1302   2.426   1.278   0.735
  431SOL    HW2 1303   2.452   1.408   0.639
  432SOL     OW 1304   2.059   0.976   1.264
  432SOL    HW1 1305   2.148   0.931   1.250
  432SOL    HW2 1306   1.986   0.911   1.245
  433SOL     OW 1307   2.179   0.251   1.801
  433SOL    HW1 1308   2.250   0.322   1.807
  433SOL    HW2 1309   2.091   0.290   1.829
  434SOL     OW 1310   2.460   0.729   0.270
  434SOL    HW1 1311   2.484   0.798   0.202
  434SOL    HW2 1312   2.382   0.762   0.324
  435SOL     OW 1313   1.938   0.811   0.789
  435SOL    HW1 1314   2.037   0.799   0.798
  435SOL    HW2 1315   1.914   0.906   0.810
  436SOL     OW 1316   1.992   1.821   1.571
  436SOL    HW1 1317   1.982   1.806   1.670
  436SOL    HW2 1318   1.906   1.857   1.535
  437SOL     OW 1319   2.412   0.196   0.885
  437SOL    HW1 1320   2.407   0.191   0.985
  437SOL    HW2 1321   2.414   0.292   0.856
  438SOL     OW 1322   2.213   1.801   0.853
  438SOL    HW1 1323   2.263   1.715   0.859
  438SOL    HW2 1324   2.278   1.878   0.850
  439SOL     OW 1325   2.183   0.943   0.242
  439SOL    HW1 1326   2.265   0.982   0.200
  439SOL    HW2 1327   2.156   0.861   0.193
  440SOL     OW 1328   2.323   1.266   1.727
  440SOL    HW1 1329   2.273   1.267   1.641
  440SOL    HW2 1330   2.260   1.248   1.803
  441SOL     OW 1331   2.064   0.285   1.498
  441SOL    HW1 1332   1.984   0.345   1.485
  441SOL    HW2 1333   2.054   0.236   1.584
  442SOL     OW 1334   2.326   1.743   0.323
  442SOL    HW1 1335   2.359   1.782   0.409
  442SOL    HW2 1336   2.402   1.736   0.258
  443SOL     OW 1337   2.111   1.785   1.241
  443SOL    HW1 1338   2.168   1.720   1.291
  443SOL    HW2 1339   2.095   1.752   1.148
  444SOL     OW 1340   2.244   0.700   0.480
  444SOL    HW1 1341   2.289   0.610   0.477
  444SOL    HW2 1342   2.150   0.689   0.513
  445SOL     OW 1343   2.665   1.402   0.924
  445SOL    HW1 1344   2.755   1.416   0.882
  445SOL    HW2 1345   2.594   1.404   0.853
  446SOL     OW 1346   2.401   0.064   0.512
  446SOL    HW1 1347   2.320   0.065   0.570
  446SOL    HW2 1348   2.404   0.147   0.457
  447SOL     OW 1349   2.159   0.035   0.171
  447SOL    HW1 1350   2.208   0.119   0.150
  447SOL    HW2 1351   2.221  -0.030   0.216
  448SOL     OW 1352   2.938   0.683   1.464
  448SOL    HW1 1353   2.858   0.622   1.467
  448SOL    HW2 1354   3.019   0.630   1.440
  449SOL     OW 1355   2.321   1.152   0.741
  449SOL    HW1 1356   2.250   1.125   0.806
  449SOL    HW2 1357   2.295   1.124   0.648
  450SOL     OW 1358   1.940   0.556   1.386
  450SOL    HW1 1359   2.032   0.555   1.345
  450SOL    HW2 1360   1.934   0.630   1.453
  451SOL     OW 1361   2.423   0.222   1.147
  451SOL    HW1 1362   2.461   0.138   1.184
  451SOL    HW2 1363   2.335   0.241   1.191
  452SOL     OW 1364   2.350   1.385   0.174
  452SOL    HW1 1365   2.263   1.370   0.221
  452SOL    HW2 1366   2.333   1.411   0.079
  453SOL     OW 1367   2.389   0.256   0.328
  453SOL    HW1 1368   2.416   0.197   0.253
  453SOL    HW2 1369   2.389   0.351   0.297
  454SOL     OW 1370   2.272   0.813   1.251
  454SOL    HW1 1371   2.358   0.825   1.301
  454SOL    HW2 1372   2.230   0.726   1.278
  455SOL     OW 1373   1.926   1.564   1.331
  455SOL    HW1 1374   1.880   1.646   1.297
  455SOL    HW2 1375   2.024   1.583   1.340
  456SOL     OW 1376   2.229   1.100   0.501
  456SOL    HW1 1377   2.222   1.183   0.445
  456SOL    HW2 1378   2.233   1.020   0.441
  457SOL     OW 1379   2.428   0.537   0.865
  457SOL    HW1 1380   2.440   0.603   0.791
  457SOL    HW2 1381   2.474   0.571   0.948
  458SOL     OW 1382   2.216   1.510   1.329
  458SOL    HW1 1383   2.195   1.466   1.242
  458SOL    HW2 1384   2.313   1.536   1.332
  459SOL     OW 1385   2.264   0.751   1.598
  459SOL    HW1 1386   2.332   0.806   1.551
  459SOL    HW2 1387   2.304   0.663   1.625
  460SOL     OW 1388   2.366   0.050   1.740
  460SOL    HW1 1389   2.324  -0.007   1.670
  460SOL    HW2 1390   2.300   0.119   1.772
  461SOL     OW 1391   2.435   0.870   1.029
  461SOL    HW1 1392   2.479   0.959   1.020
  461SOL    HW2 1393   2.372   0.870   1.106
  462SOL     OW 1394   2.169   0.213   1.231
  462SOL    HW1 1395   2.146   0.250   1.321
  462SOL    HW2 1396   2.139   0.118   1.225
  463SOL     OW 1397   1.899   1.310   1.282
  463SOL    HW1 1398   1.952   1.261   1.350
  463SOL    HW2 1399   1.921   1.408   1.287
  464SOL     OW 1400   2.169   0.063   0.618
  464SOL    HW1 1401   2.158   0.157   0.651
  464SOL    HW2 1402   2.164   0.000   0.695
  465SOL     OW 1403   2.212   0.898   1.804
  465SOL    HW1 1404   2.288   0.942   1.852
  465SOL    HW2 1405   2.247   0.851   1.722
  466SOL     OW 1406   2.181   0.810   0.949
  466SOL    HW1 1407   2.274   0.846   0.954
  466SOL    HW2 1408   2.175   0.725   1.001
  467SOL     OW 1409   2.201   0.509   1.006
  467SOL    HW1 1410   2.149   0.426   0.989
  467SOL    HW2 1411   2.278   0.514   0.942
  468SOL     OW 1412   1.870   1.326   0.200
  468SOL    HW1 1413   1.777   1.347   0.169
  468SOL    HW2 1414   1.880   1.227   0.213
  469SOL     OW 1415   1.950   1.801   0.927
  469SOL    HW1 1416   1.908   1.715   0.900
  469SOL    HW2 1417   2.044   1.804   0.893
  470SOL     OW 1418   2.366   1.568   0.910
  470SOL    HW1 1419   2.432   1.642   0.919
  470SOL    HW2 1420   2.410   1.489   0.868
  471SOL     OW 1421   1.902   0.544   1.114
  471SOL    HW1 1422   1.987   0.511   1.073
  471SOL    HW2 1423   1.915   0.559   1.212
  472SOL     OW 1424   2.051   0.520   1.722
  472SOL    HW1 1425   2.110   0.480   1.652
  472SOL    HW2 1426   1.993   0.591   1.681
  473SOL     OW 1427   2.677   0.572   0.325
  473SOL    HW1 1428   2.684   0.483   0.279
  473SOL    HW2 1429   2.583   0.606   0.317
  474SOL     OW 1430   2.114   1.564   1.744
  474SOL    HW1 1431   2.084   1.621   1.820
  474SOL    HW2 1432   2.107   1.467   1.770
  475SOL     OW 1433   2.335   0.500   0.191
  475SOL    HW1 1434   2.396   0.580   0.195
  475SOL    HW2 1435   2.240   0.531   0.198
  476SOL     OW 1436   2.021   1.137   1.466
  476SOL    HW1 1437   2.043   1.076   1.542
  476SOL    HW2 1438   2.031   1.088   1.380
  477SOL     OW 1439   1.945   1.258   1.022
  477SOL    HW1 1440   1.940   1.257   1.122
  477SOL    HW2 1441   1.862   1.217   0.984
  478SOL     OW 1442   2.550   1.662   1.716
  478SOL    HW1 1443   2.494   1.743   1.725
  478SOL    HW2 1444   2.602   1.666   1.630
  479SOL     OW 1445   1.992   1.794   1.851
  479SOL    HW1 1446   1.951   1.720   1.904
  479SOL    HW2 1447   2.056   1.845   1.909
  480SOL     OW 1448   2.125   0.326   0.720
  480SOL    HW1 1449   2.046   0.377   0.686
  480SOL    HW2 1450   2.116   0.311   0.818
  481SOL     OW 1451   2.234   1.288   1.490
  481SOL    HW1 1452   2.221   1.381   1.456
  481SOL    HW2 1453   2.150   1.236   1.477
  482SOL     OW 1454   2.452   1.487   0.491
  482SOL    HW1 1455   2.494   1.429   0.421
  482SOL    HW2 1456   2.408   1.566   0.447
  483SOL     OW 1457   2.117   1.348   0.290
  483SOL    HW1 1458   2.021   1.349   0.263
  483SOL    HW2 1459   2.129   1.401   0.374
  484SOL     OW 1460   1.967   1.013   1.726
  484SOL    HW1 1461   1.890   0.980   1.780
  484SOL    HW2 1462   2.052   0.983   1.768
  485SOL     OW 1463   2.534   0.203   1.489
  485SOL    HW1 1464   2.624   0.187   1.449
  485SOL    HW2 1465   2.542   0.208   1.588
  486SOL     OW 1466   1.937   0.345   0.033
  486SOL    HW1 1467   1.845   0.317   0.004
  486SOL    HW2 1468   1.968   0.422  -0.023
  487SOL     OW 1469   2.475   0.842   1.431
  487SOL    HW1 1470   2.531   0.923   1.414
  487SOL    HW2 1471   2.534   0.762   1.434
  488SOL     OW 1472   2.578   0.565   1.708
  488SOL    HW1 1473   2.597   0.630   1.782
  488SOL    HW2 1474   2.638   0.485   1.717
  489SOL     OW 1475   2.252   1.741   1.560
  489SOL    HW1 1476   2.161   1.782   1.558
  489SOL    HW2 1477   2.245   1.647   1.592
  490SOL     OW 1478   2.456   0.745   0.652
  490SOL    HW1 1479   2.506   0.830   0.633
  490SOL    HW2 1480   2.368   0.747   0.604
  491SOL     OW 1481   2.083   1.314   1.844
  491SOL    HW1 1482   2.018   1.241   1.823
  491SOL    HW2 1483   2.087   1.328   1.942
  492SOL     OW 1484   1.941   1.240   0.653
  492SOL    HW1 1485   1.940   1.193   0.741
  492SOL    HW2 1486   2.023   1.212   0.602
  493SOL     OW 1487   2.534   1.391   1.624
  493SOL    HW1 1488   2.456   1.341   1.662
  493SOL    HW2 1489   2.531   1.486   1.655
  494SOL     OW 1490   2.290   0.424   0.520
  494SOL    HW1 1491   2.320   0.352   0.458
  494SOL    HW2 1492   2.251   0.384   0.603
  495SOL     OW 1493   2.179   0.547   1.280
  495SOL    HW1 1494   2.217   0.488   1.352
  495SOL    HW2 1495   2.219   0.521   1.192
  496SOL     OW 1496   2.674   1.586   0.687
  496SOL    HW1 1497   2.706   1.596   0.593
  496SOL    HW2 1498   2.595   1.524   0.689
  497SOL     OW 1499   1.901   1.077   0.300
  497SOL    HW1 1500   2.000   1.066   0.291
  497SOL    HW2 1501   1.861   0.991   0.332
  498SOL     OW 1502   2.092   0.628   1.975
  498SOL    HW1 1503   1.999   0.626   2.012
  498SOL    HW2 1504   2.093   0.589   1.883
  499SOL     OW 1505   2.087   0.275   2.858
  499SOL    HW1 1506   2.122   0.258   2.950
  499SOL    HW2 1507   1.999   0.230   2.846
  500SOL     OW 1508   2.093   1.713   2.345
  500SOL    HW1 1509   2.127   1.790   2.399
  500SOL    HW2 1510   2.137   1.713   2.255
  501SOL     OW 1511   2.092   1.434   2.400
  501SOL    HW1 1512   2.066   1.530   2.400
  501SOL    HW2 1513   2.021   1.380   2.445
  502SOL     OW 1514   2.468   0.964   1.985
  502SOL    HW1 1515   2.475   1.048   1.931
  502SOL    HW2 1516   2.514   0.977   2.073
  503SOL     OW 1517   1.984   0.643   2.425
  503SOL    HW1 1518   1.939   0.555   2.442
  503SOL    HW2 1519   1.983   0.697   2.509
  504SOL     OW 1520   1.889   1.596   1.979
  504SOL    HW1 1521   1.870   1.500   2.000
  504SOL    HW2 1522   1.856   1.654   2.054
  505SOL     OW 1523   2.475   1.365   2.588
  505SOL    HW1 1524   2.426   1.278   2.597
  505SOL    HW2 1525   2.452   1.408   2.501
  506SOL     OW 1526   2.460   0.729   2.132
  506SOL    HW1 1527   2.484   0.798   2.064
  506SOL    HW2 1528   2.382   0.762   2.186
  507SOL     OW 1529   1.938   0.811   2.651
  507SOL    HW1 1530   2.037   0.799   2.660
  507SOL    HW2 1531   1.914   0.906   2.672
  508SOL     OW 1532   2.213   1.801   2.715
  508SOL    HW1 1533   2.263   1.715   2.721
  508SOL    HW2 1534   2.278   1.878   2.712
  509SOL     OW 1535   2.183   0.943   2.104
  509SOL    HW1 1536   2.265   0.982   2.062
  509SOL    HW2 1537   2.156   0.861   2.055
  510SOL     OW 1538   2.326   1.743   2.185
  510SOL    HW1 1539   2.359   1.782   2.271
  510SOL    HW2 1540   2.402   1.736   2.120
  511SOL     OW 1541   2.244   0.700   2.342
  511SOL    HW1 1542   2.289   0.610   2.339
  511SOL    HW2 1543   2.150   0.689   2.375
  512SOL     OW 1544   2.476   0.122   1.979
  512SOL    HW1 1545   2.574   0.100   1.986
  512SOL    HW2 1546   2.445   0.105   1.886
  513SOL     OW 1547   2.401   0.064   2.374
  513SOL    HW1 1548   2.320   0.065   2.432
  513SOL    HW2 1549   2.404   0.147   2.319
  514SOL     OW 1550   2.159   0.035   2.033
  514SOL    HW1 1551   2.208   0.119   2.012
  514SOL    HW2 1552   2.221  -0.030   2.078
  515SOL     OW 1553   2.321   1.152   2.603
  515SOL    HW1 1554   2.250   1.125   2.668
  515SOL    HW2 1555   2.295   1.124   2.510
  516SOL     OW 1556   2.350   1.385   2.036
  516SOL    HW1 1557   2.263   1.370   2.083
  516SOL    HW2 1558   2.333   1.411   1.941
  517SOL     OW 1559   2.389   0.256   2.190
  517SOL    HW1 1560   2.416   0.197   2.115
  517SOL    HW2 1561   2.389   0.351   2.159
  518SOL     OW 1562   2.229   1.100   2.363
  518SOL    HW1 1563   2.222   1.183   2.307
  518SOL    HW2 1564   2.233   1.020   2.303
  519SOL     OW 1565   2.169   0.063   2.480
  519SOL    HW1 1566   2.158   0.157   2.513
  519SOL    HW2 1567   2.164   0.000   2.557
  520SOL     OW 1568   1.870   1.326   2.062
  520SOL    HW1 1569   1.777   1.347   2.031
  520SOL    HW2 1570   1.880   1.227   2.075
  521SOL     OW 1571   2.677   0.572   2.187
  521SOL    HW1 1572   2.684   0.483   2.141
  521SOL    HW2 1573   2.583   0.606   2.179
  522SOL     OW 1574   2.335   0.500   2.053
  522SOL    HW1 1575   2.396   0.580   2.057
  522SOL    HW2 1576   2.240   0.531   2.060
  523SOL     OW 1577   2.452   1.487   2.353
  523SOL    HW1 1578   2.494   1.429   2.283
  523SOL    HW2 1579   2.408   1.566   2.309
  524SOL     OW 1580   2.117   1.348   2.152
  524SOL    HW1 1581   2.021   1.349   2.125
  524SOL    HW2 1582   2.129   1.401   2.236
  525SOL     OW 1583   1.937   0.345   1.895
  525SOL    HW1 1584   1.845   0.317   1.866
  525SOL    HW2 1585   1.968   0.422   1.839
  526SOL     OW 1586   1.934   0.166   2.180
  526SOL    HW1 1587   1.917   0.249   2.126
  526SOL    HW2 1588   2.024   0.129   2.158
  527SOL     OW 1589   2.456   0.745   2.514
  527SOL    HW1 1590   2.506   0.830   2.495
  527SOL    HW2 1591   2.368   0.747   2.466
  528SOL     OW 1592   1.941   1.240   2.515
  528SOL    HW1 1593   1.940   1.193   2.603
  528SOL    HW2 1594   2.023   1.212   2.464
  529SOL     OW 1595   2.290   0.424   2.382
  529SOL    HW1 1596   2.320   0.352   2.320
  529SOL    HW2 1597   2.251   0.384   2.465
  530SOL     OW 1598   2.674   1.586   2.549
  530SOL    HW1 1599   2.706   1.596   2.455
  530SOL    HW2 1600   2.595   1.524   2.551
  531SOL     OW 1601   1.901   1.077   2.162
  531SOL    HW1 1602   2.000   1.066   2.153
  531SOL    HW2 1603   1.861   0.991   2.194
  532SOL     OW 1604   2.092   2.490   0.113
  532SOL    HW1 1605   1.999   2.488   0.150
  532SOL    HW2 1606   2.093   2.451   0.021
  533SOL     OW 1607   2.087   2.137   0.996
  533SOL    HW1 1608   2.122   2.120   1.088
  533SOL    HW2 1609   1.999   2.092   0.984
  534SOL     OW 1610   1.881   2.230   0.647
  534SOL    HW1 1611   1.799   2.273   0.686
  534SOL    HW2 1612   1.853   2.157   0.584
  535SOL     OW 1613   2.712   2.660   1.823
  535SOL    HW1 1614   2.708   2.736   1.888
  535SOL    HW2 1615   2.734   2.696   1.732
  536SOL     OW 1616   2.300   2.254   1.499
  536SOL    HW1 1617   2.382   2.198   1.508
  536SOL    HW2 1618   2.219   2.196   1.503
  537SOL     OW 1619   1.984   2.505   0.563
  537SOL    HW1 1620   1.939   2.417   0.580
  537SOL    HW2 1621   1.983   2.559   0.647
  538SOL     OW 1622   1.975   2.599   1.597
  538SOL    HW1 1623   2.063   2.586   1.642
  538SOL    HW2 1624   1.962   2.696   1.575
  539SOL     OW 1625   2.671   1.866   0.502
  539SOL    HW1 1626   2.711   1.957   0.493
  539SOL    HW2 1627   2.571   1.874   0.508
  540SOL     OW 1628   2.179   2.113   1.801
  540SOL    HW1 1629   2.250   2.184   1.807
  540SOL    HW2 1630   2.091   2.152   1.829
  541SOL     OW 1631   2.460   2.591   0.270
  541SOL    HW1 1632   2.484   2.660   0.202
  541SOL    HW2 1633   2.382   2.624   0.324
  542SOL     OW 1634   2.412   2.058   0.885
  542SOL    HW1 1635   2.407   2.053   0.985
  542SOL    HW2 1636   2.414   2.154   0.856
  543SOL     OW 1637   2.064   2.147   1.498
  543SOL    HW1 1638   1.984   2.207   1.485
  543SOL    HW2 1639   2.054   2.098   1.584
  544SOL     OW 1640   2.244   2.562   0.480
  544SOL    HW1 1641   2.289   2.472   0.477
  544SOL    HW2 1642   2.150   2.551   0.513
  545SOL     OW 1643   2.476   1.984   0.117
  545SOL    HW1 1644   2.574   1.962   0.124
  545SOL    HW2 1645   2.445   1.967   0.024
  546SOL     OW 1646   2.401   1.926   0.512
  546SOL    HW1 1647   2.320   1.927   0.570
  546SOL    HW2 1648   2.404   2.009   0.457
  547SOL     OW 1649   2.938   2.545   1.464
  547SOL    HW1 1650   2.858   2.484   1.467
  547SOL    HW2 1651   3.019   2.492   1.440
  548SOL     OW 1652   1.940   2.418   1.386
  548SOL    HW1 1653   2.032   2.417   1.345
  548SOL    HW2 1654   1.934   2.492   1.453
  549SOL     OW 1655   2.423   2.084   1.147
  549SOL    HW1 1656   2.461   2.000   1.184
  549SOL    HW2 1657   2.335   2.103   1.191
  550SOL     OW 1658   2.389   2.118   0.328
  550SOL    HW1 1659   2.416   2.059   0.253
  550SOL    HW2 1660   2.389   2.213   0.297
  551SOL     OW 1661   2.428   2.399   0.865
  551SOL    HW1 1662   2.440   2.465   0.791
  551SOL    HW2 1663   2.474   2.433   0.948
  552SOL     OW 1664   2.366   1.912   1.740
  552SOL    HW1 1665   2.324   1.855   1.670
  552SOL    HW2 1666   2.300   1.981   1.772
  553SOL     OW 1667   2.169   2.075   1.231
  553SOL    HW1 1668   2.146   2.112   1.321
  553SOL    HW2 1669   2.139   1.980   1.225
  554SOL     OW 1670   2.169   1.925   0.618
  554SOL    HW1 1671   2.158   2.019   0.651
  554SOL    HW2 1672   2.164   1.862   0.695
  555SOL     OW 1673   2.181   2.672   0.949
  555SOL    HW1 1674   2.274   2.708   0.954
  555SOL    HW2 1675   2.175   2.587   1.001
  556SOL     OW 1676   2.201   2.371   1.006
  556SOL    HW1 1677   2.149   2.288   0.989
  556SOL    HW2 1678   2.278   2.376   0.942
  557SOL     OW 1679   1.902   2.406   1.114
  557SOL    HW1 1680   1.987   2.373   1.073
  557SOL    HW2 1681   1.915   2.421   1.212
  558SOL     OW 1682   2.051   2.382   1.722
  558SOL    HW1 1683   2.110   2.342   1.652
  558SOL    HW2 1684   1.993   2.453   1.681
  559SOL     OW 1685   2.677   2.434   0.325
  559SOL    HW1 1686   2.684   2.345   0.279
  559SOL    HW2 1687   2.583   2.468   0.317
  560SOL     OW 1688   2.335   2.362   0.191
  560SOL    HW1 1689   2.396   2.442   0.195
  560SOL    HW2 1690   2.240   2.393   0.198
  561SOL     OW 1691   2.125   2.188   0.720
  561SOL    HW1 1692   2.046   2.239   0.686
  561SOL    HW2 1693   2.116   2.173   0.818
  562SOL     OW 1694   2.534   2.065   1.489
  562SOL    HW1 1695   2.624   2.049   1.449
  562SOL    HW2 1696   2.542   2.070   1.588
  563SOL     OW 1697   1.937   2.207   0.033
  563SOL    HW1 1698   1.845   2.179   0.004
  563SOL    HW2 1699   1.968   2.284  -0.023
  564SOL     OW 1700   2.578   2.427   1.708
  564SOL    HW1 1701   2.597   2.492   1.782
  564SOL    HW2 1702   2.638   2.347   1.717
  565SOL     OW 1703   2.290   2.286   0.520
  565SOL    HW1 1704   2.320   2.214   0.458
  565SOL    HW2 1705   2.251   2.246   0.603
  566SOL     OW 1706   2.179   2.409   1.280
  566SOL    HW1 1707   2.217   2.350   1.352
  566SOL    HW2 1708   2.219   2.383   1.192
  567SOL     OW 1709   2.092   2.490   1.975
  567SOL    HW1 1710   1.999   2.488   2.012
  567SOL    HW2 1711   2.093   2.451   1.883
  568SOL     OW 1712   2.087   2.137   2.858
  568SOL    HW1 1713   2.122   2.120   2.950
  568SOL    HW2 1714   1.999   2.092   2.846
  569SOL     OW 1715   1.984   2.505   2.425
  569SOL    HW1 1716   1.939   2.417   2.442
  569SOL    HW2 1717   1.983   2.559   2.509
  570SOL     OW 1718   2.671   1.866   2.364
  570SOL    HW1 1719   2.711   1.957   2.355
  570SOL    HW2 1720   2.571   1.874   2.370
  571SOL     OW 1721   2.244   2.562   2.342
  571SOL    HW1 1722   2.289   2.472   2.339
  571SOL    HW2 1723   2.150   2.551   2.375
  572SOL     OW 1724   2.476   1.984   1.979
  572SOL    HW1 1725   2.574   1.962   1.986
  572SOL    HW2 1726   2.445   1.967   1.886
  573SOL     OW 1727   2.401   1.926   2.374
  573SOL    HW1 1728   2.320   1.927   2.432
  573SOL    HW2 1729   2.404   2.009   2.319
  574SOL     OW 1730   2.159   1.897   2.033
  574SOL    HW1 1731   2.208   1.981   2.012
  574SOL    HW2 1732   2.221   1.832   2.078
  575SOL     OW 1733   2.389   2.118   2.190
  575SOL    HW1 1734   2.416   2.059   2.115
  575SOL    HW2 1735   2.389   2.213   2.159
  576SOL     OW 1736   2.169   1.925   2.480
  576SOL    HW1 1737   2.158   2.019   2.513
  576SOL    HW2 1738   2.164   1.862   2.557
  577SOL     OW 1739   2.677   2.434   2.187
  577SOL    HW1 1740   2.684   2.345   2.141
  577SOL    HW2 1741   2.583   2.468   2.179
  578SOL     OW 1742   2.335   2.362   2.053
  578SOL    HW1 1743   2.396   2.442   2.057
  578SOL    HW2 1744   2.240   2.393   2.060
  579SOL     OW 1745   1.937   2.207   1.895
  579SOL    HW1 1746   1.845   2.179   1.866
  579SOL    HW2 1747   1.968   2.284   1.839
  580SOL     OW 1748   1.934   2.028   2.180
  580SOL    HW1 1749   1.917   2.111   2.126
  580SOL    HW2 1750   2.024   1.991   2.158
  581SOL     OW 1751   2.290   2.286   2.382
  581SOL    HW1 1752   2.320   2.214   2.320
  581SOL    HW2 1753   2.251   2.246   2.465
   2.62522   2.62522   2.62522
