; mobley_8221999_GMX.itp created by acpype (v: 2023.10.27) on Thu May 14 13:26:12 2026

[ atomtypes ]
;name   bond_type     mass     charge   ptype   sigma         epsilon       Amb
 c1       c1          0.00000  0.00000   A     3.47896e-01   6.67766e-01 ; 1.95  0.1596
 c3       c3          0.00000  0.00000   A     3.39771e-01   4.51035e-01 ; 1.91  0.1078
 n1       n1          0.00000  0.00000   A     3.27352e-01   4.59403e-01 ; 1.84  0.1098
 hc       hc          0.00000  0.00000   A     2.60018e-01   8.70272e-02 ; 1.46  0.0208

[ moleculetype ]
;name            nrexcl
 mobley_8221999   3

[ atoms ]
;   nr  type  resi  res  atom  cgnr     charge      mass       ; qtot   bond_type
     1   c1     1   MOL    C1    1     0.210700     12.01000 ; qtot 0.211
     2   c3     1   MOL    C2    2    -0.096100     12.01000 ; qtot 0.115
     3   c3     1   MOL    C3    3    -0.024300     12.01000 ; qtot 0.090
     4   c3     1   MOL    C4    4    -0.078400     12.01000 ; qtot 0.012
     5   n1     1   MOL    N1    5    -0.378800     14.01000 ; qtot -0.367
     6   hc     1   MOL    H1    6     0.038700      1.00800 ; qtot -0.328
     7   hc     1   MOL    H2    7     0.038700      1.00800 ; qtot -0.289
     8   hc     1   MOL    H3    8     0.038700      1.00800 ; qtot -0.251
     9   hc     1   MOL    H4    9     0.072700      1.00800 ; qtot -0.178
    10   hc     1   MOL    H5   10     0.072700      1.00800 ; qtot -0.105
    11   hc     1   MOL    H6   11     0.052700      1.00800 ; qtot -0.053
    12   hc     1   MOL    H7   12     0.052700      1.00800 ; qtot 0.000

[ bonds ]
;   ai     aj funct   r             k
     1      3   1    1.4656e-01    2.3814e+05 ;     C1 - C3    
     1      5   1    1.1619e-01    6.2865e+05 ;     C1 - N1    
     2      4   1    1.5354e-01    1.9154e+05 ;     C2 - C4    
     2      6   1    1.0962e-01    2.8891e+05 ;     C2 - H1    
     2      7   1    1.0962e-01    2.8891e+05 ;     C2 - H2    
     2      8   1    1.0962e-01    2.8891e+05 ;     C2 - H3    
     3      4   1    1.5354e-01    1.9154e+05 ;     C3 - C4    
     3      9   1    1.0962e-01    2.8891e+05 ;     C3 - H4    
     3     10   1    1.0962e-01    2.8891e+05 ;     C3 - H5    
     4     11   1    1.0962e-01    2.8891e+05 ;     C4 - H6    
     4     12   1    1.0962e-01    2.8891e+05 ;     C4 - H7    

[ pairs ]
;   ai     aj    funct
     1      2      1 ;     C1 - C2    
     1     11      1 ;     C1 - H6    
     1     12      1 ;     C1 - H7    
     2      9      1 ;     C2 - H4    
     2     10      1 ;     C2 - H5    
     3      6      1 ;     C3 - H1    
     3      7      1 ;     C3 - H2    
     3      8      1 ;     C3 - H3    
     5      4      1 ;     N1 - C4    
     5      9      1 ;     N1 - H4    
     5     10      1 ;     N1 - H5    
     6     11      1 ;     H1 - H6    
     6     12      1 ;     H1 - H7    
     7     11      1 ;     H2 - H6    
     7     12      1 ;     H2 - H7    
     8     11      1 ;     H3 - H6    
     8     12      1 ;     H3 - H7    
     9     11      1 ;     H4 - H6    
     9     12      1 ;     H4 - H7    
    10     11      1 ;     H5 - H6    
    10     12      1 ;     H5 - H7    

[ angles ]
;   ai     aj     ak    funct   theta         cth
     1      3      4      1    1.1202e+02    5.1354e+02 ;     C1 - C3     - C4    
     1      3      9      1    1.0945e+02    3.7765e+02 ;     C1 - C3     - H4    
     1      3     10      1    1.0945e+02    3.7765e+02 ;     C1 - C3     - H5    
     2      4      3      1    1.1263e+02    5.0099e+02 ;     C2 - C4     - C3    
     2      4     11      1    1.0968e+02    3.6208e+02 ;     C2 - C4     - H6    
     2      4     12      1    1.0968e+02    3.6208e+02 ;     C2 - C4     - H7    
     3      1      5      1    1.7866e+02    4.8049e+02 ;     C3 - C1     - N1    
     3      4     11      1    1.0968e+02    3.6208e+02 ;     C3 - C4     - H6    
     3      4     12      1    1.0968e+02    3.6208e+02 ;     C3 - C4     - H7    
     4      2      6      1    1.0968e+02    3.6208e+02 ;     C4 - C2     - H1    
     4      2      7      1    1.0968e+02    3.6208e+02 ;     C4 - C2     - H2    
     4      2      8      1    1.0968e+02    3.6208e+02 ;     C4 - C2     - H3    
     4      3      9      1    1.0968e+02    3.6208e+02 ;     C4 - C3     - H4    
     4      3     10      1    1.0968e+02    3.6208e+02 ;     C4 - C3     - H5    
     6      2      7      1    1.0773e+02    2.9957e+02 ;     H1 - C2     - H2    
     6      2      8      1    1.0773e+02    2.9957e+02 ;     H1 - C2     - H3    
     7      2      8      1    1.0773e+02    2.9957e+02 ;     H2 - C2     - H3    
     9      3     10      1    1.0773e+02    2.9957e+02 ;     H4 - C3     - H5    
    11      4     12      1    1.0773e+02    2.9957e+02 ;     H6 - C4     - H7    

[ dihedrals ] ; propers
; for gromacs 4.5 or higher, using funct 9
;    i      j      k      l   func   phase     kd      pn
     1      3      4      2      9     0.00   0.65084   3 ;     C1-    C3-    C4-    C2
     1      3      4     11      9     0.00   0.65084   3 ;     C1-    C3-    C4-    H6
     1      3      4     12      9     0.00   0.65084   3 ;     C1-    C3-    C4-    H7
     2      4      3      9      9     0.00   0.54392   3 ;     C2-    C4-    C3-    H4
     2      4      3     10      9     0.00   0.54392   3 ;     C2-    C4-    C3-    H5
     3      4      2      6      9     0.00   0.54392   3 ;     C3-    C4-    C2-    H1
     3      4      2      7      9     0.00   0.54392   3 ;     C3-    C4-    C2-    H2
     3      4      2      8      9     0.00   0.54392   3 ;     C3-    C4-    C2-    H3
     5      1      3      4      9   180.00   0.00000   2 ;     N1-    C1-    C3-    C4
     5      1      3      9      9   180.00   0.00000   2 ;     N1-    C1-    C3-    H4
     5      1      3     10      9   180.00   0.00000   2 ;     N1-    C1-    C3-    H5
     6      2      4     11      9     0.00   0.50208   3 ;     H1-    C2-    C4-    H6
     6      2      4     12      9     0.00   0.50208   3 ;     H1-    C2-    C4-    H7
     7      2      4     11      9     0.00   0.50208   3 ;     H2-    C2-    C4-    H6
     7      2      4     12      9     0.00   0.50208   3 ;     H2-    C2-    C4-    H7
     8      2      4     11      9     0.00   0.50208   3 ;     H3-    C2-    C4-    H6
     8      2      4     12      9     0.00   0.50208   3 ;     H3-    C2-    C4-    H7
     9      3      4     11      9     0.00   0.50208   3 ;     H4-    C3-    C4-    H6
     9      3      4     12      9     0.00   0.50208   3 ;     H4-    C3-    C4-    H7
    10      3      4     11      9     0.00   0.50208   3 ;     H5-    C3-    C4-    H6
    10      3      4     12      9     0.00   0.50208   3 ;     H5-    C3-    C4-    H7
