mobley_242480_GMX.gro created by acpype (v: 2023.10.27) on Thu May 14 13:48:40 2026
 2608
    1MOL     C1    1   1.812   1.562   1.710
    1MOL     C2    2   1.851   1.440   1.655
    1MOL     C3    3   1.688   1.617   1.678
    1MOL     C4    4   1.766   1.373   1.567
    1MOL     C5    5   1.173   1.525   1.342
    1MOL     C6    6   1.212   1.403   1.287
    1MOL     C7    7   1.603   1.550   1.590
    1MOL     C8    8   1.642   1.428   1.534
    1MOL     C9    9   1.382   1.537   1.463
    1MOL    C10   10   1.421   1.415   1.407
    1MOL    C11   11   1.258   1.592   1.430
    1MOL    C12   12   1.336   1.348   1.319
    1MOL    C13   13   1.471   1.609   1.556
    1MOL    C14   14   1.552   1.356   1.441
    1MOL     N1   15   1.211   1.715   1.482
    1MOL     N2   16   1.368   1.224   1.259
    1MOL     O1   17   1.441   1.716   1.607
    1MOL     O2   18   1.590   1.249   1.395
    1MOL     H1   19   1.878   1.614   1.779
    1MOL     H2   20   1.948   1.398   1.680
    1MOL     H3   21   1.660   1.712   1.723
    1MOL     H4   22   1.799   1.278   1.525
    1MOL     H5   23   1.076   1.566   1.316
    1MOL     H6   24   1.144   1.352   1.218
    1MOL     H7   25   1.123   1.751   1.451
    1MOL     H8   26   1.271   1.768   1.542
    1MOL     H9   27   1.301   1.179   1.201
    1MOL    H10   28   1.454   1.179   1.284
    2SOL     OW   29   0.230   0.628   0.113
    2SOL    HW1   30   0.137   0.626   0.150
    2SOL    HW2   31   0.231   0.589   0.021
    3SOL     OW   32   0.225   0.275   0.996
    3SOL    HW1   33   0.260   0.258   1.088
    3SOL    HW2   34   0.137   0.230   0.984
    4SOL     OW   35   0.019   0.368   0.647
    4SOL    HW1   36  -0.063   0.411   0.686
    4SOL    HW2   37  -0.009   0.295   0.584
    5SOL     OW   38   0.569   1.275   1.165
    5SOL    HW1   39   0.476   1.268   1.128
    5SOL    HW2   40   0.580   1.364   1.209
    6SOL     OW   41   1.555   1.511   0.703
    6SOL    HW1   42   1.498   1.495   0.784
    6SOL    HW2   43   1.496   1.521   0.623
    7SOL     OW   44   1.135   0.703   0.717
    7SOL    HW1   45   1.192   0.781   0.692
    7SOL    HW2   46   1.075   0.729   0.793
    8SOL     OW   47   1.755   0.607   0.231
    8SOL    HW1   48   1.743   0.594   0.132
    8SOL    HW2   49   1.725   0.526   0.280
    9SOL     OW   50   0.768   1.144   1.023
    9SOL    HW1   51   0.690   1.161   1.083
    9SOL    HW2   52   0.802   1.231   0.987
   10SOL     OW   53   0.850   0.798   1.823
   10SOL    HW1   54   0.846   0.874   1.888
   10SOL    HW2   55   0.872   0.834   1.732
   11SOL     OW   56   0.685   1.012   0.665
   11SOL    HW1   57   0.754   0.996   0.735
   11SOL    HW2   58   0.612   1.069   0.703
   12SOL     OW   59   0.686   1.161   1.803
   12SOL    HW1   60   0.746   1.240   1.817
   12SOL    HW2   61   0.600   1.192   1.762
   13SOL     OW   62   0.335   1.435   1.061
   13SOL    HW1   63   0.257   1.404   1.008
   13SOL    HW2   64   0.393   1.493   1.004
   14SOL     OW   65   0.438   0.392   1.499
   14SOL    HW1   66   0.520   0.336   1.508
   14SOL    HW2   67   0.357   0.334   1.503
   15SOL     OW   68   1.603   0.447   0.737
   15SOL    HW1   69   1.529   0.493   0.687
   15SOL    HW2   70   1.654   0.515   0.790
   16SOL     OW   71   0.231   1.713   0.483
   16SOL    HW1   72   0.265   1.790   0.537
   16SOL    HW2   73   0.275   1.713   0.393
   17SOL     OW   74   1.127   1.341   1.690
   17SOL    HW1   75   1.174   1.341   1.778
   17SOL    HW2   76   1.079   1.254   1.679
   18SOL     OW   77   0.230   1.434   0.538
   18SOL    HW1   78   0.204   1.530   0.538
   18SOL    HW2   79   0.159   1.380   0.583
   19SOL     OW   80   0.240   1.091   0.886
   19SOL    HW1   81   0.254   1.007   0.938
   19SOL    HW2   82   0.185   1.155   0.941
   20SOL     OW   83   0.620   1.786   1.439
   20SOL    HW1   84   0.528   1.769   1.474
   20SOL    HW2   85   0.648   1.878   1.465
   21SOL     OW   86   0.606   0.964   0.123
   21SOL    HW1   87   0.613   1.048   0.069
   21SOL    HW2   88   0.652   0.977   0.211
   22SOL     OW   89   1.594   0.114   1.480
   22SOL    HW1   90   1.576   0.181   1.408
   22SOL    HW2   91   1.591   0.160   1.569
   23SOL     OW   92   0.122   0.643   0.563
   23SOL    HW1   93   0.077   0.555   0.580
   23SOL    HW2   94   0.121   0.697   0.647
   24SOL     OW   95   1.842   1.767   0.359
   24SOL    HW1   96   1.896   1.738   0.439
   24SOL    HW2   97   1.872   1.857   0.330
   25SOL     OW   98   0.027   1.596   0.117
   25SOL    HW1   99   0.008   1.500   0.138
   25SOL    HW2  100  -0.006   1.654   0.192
   26SOL     OW  101   1.689   0.922   0.612
   26SOL    HW1  102   1.784   0.893   0.620
   26SOL    HW2  103   1.681   0.987   0.537
   27SOL     OW  104   1.641   1.108   0.432
   27SOL    HW1  105   1.727   1.110   0.380
   27SOL    HW2  106   1.655   1.155   0.520
   28SOL     OW  107   0.113   0.737   1.597
   28SOL    HW1  108   0.201   0.724   1.642
   28SOL    HW2  109   0.100   0.834   1.575
   29SOL     OW  110   0.613   1.365   0.726
   29SOL    HW1  111   0.564   1.278   0.735
   29SOL    HW2  112   0.590   1.408   0.639
   30SOL     OW  113   0.809   0.004   0.502
   30SOL    HW1  114   0.849   0.095   0.493
   30SOL    HW2  115   0.709   0.012   0.508
   31SOL     OW  116   0.197   0.976   1.264
   31SOL    HW1  117   0.286   0.931   1.250
   31SOL    HW2  118   0.124   0.911   1.245
   32SOL     OW  119   1.525   0.999   0.190
   32SOL    HW1  120   1.462   0.923   0.203
   32SOL    HW2  121   1.573   1.017   0.276
   33SOL     OW  122   0.317   0.251   1.801
   33SOL    HW1  123   0.388   0.322   1.807
   33SOL    HW2  124   0.229   0.290   1.829
   34SOL     OW  125   1.466   1.417   0.953
   34SOL    HW1  126   1.407   1.423   1.033
   34SOL    HW2  127   1.451   1.329   0.907
   35SOL     OW  128   1.667   1.714   0.572
   35SOL    HW1  129   1.626   1.691   0.484
   35SOL    HW2  130   1.649   1.640   0.637
   36SOL     OW  131   0.598   0.729   0.270
   36SOL    HW1  132   0.622   0.798   0.202
   36SOL    HW2  133   0.520   0.762   0.324
   37SOL     OW  134   1.281   0.345   0.944
   37SOL    HW1  135   1.195   0.295   0.931
   37SOL    HW2  136   1.343   0.291   1.000
   38SOL     OW  137   1.576   1.662   0.307
   38SOL    HW1  138   1.665   1.708   0.310
   38SOL    HW2  139   1.555   1.638   0.212
   39SOL     OW  140   0.807   0.605   1.465
   39SOL    HW1  141   0.760   0.602   1.554
   39SOL    HW2  142   0.756   0.550   1.399
   40SOL     OW  143   1.394   0.469   1.674
   40SOL    HW1  144   1.374   0.512   1.762
   40SOL    HW2  145   1.472   0.407   1.683
   41SOL     OW  146   0.973   0.890   1.572
   41SOL    HW1  147   1.019   0.806   1.543
   41SOL    HW2  148   0.917   0.924   1.497
   42SOL     OW  149   0.991   0.410   1.242
   42SOL    HW1  150   0.914   0.444   1.296
   42SOL    HW2  151   0.957   0.359   1.163
   43SOL     OW  152   1.041   0.701   0.429
   43SOL    HW1  153   1.067   0.697   0.525
   43SOL    HW2  154   0.956   0.650   0.415
   44SOL     OW  155   0.076   0.811   0.789
   44SOL    HW1  156   0.175   0.799   0.798
   44SOL    HW2  157   0.052   0.906   0.810
   45SOL     OW  158   0.130   1.821   1.571
   45SOL    HW1  159   0.120   1.806   1.670
   45SOL    HW2  160   0.044   1.857   1.535
   46SOL     OW  161   0.865   0.348   0.195
   46SOL    HW1  162   0.924   0.411   0.146
   46SOL    HW2  163   0.884   0.254   0.166
   47SOL     OW  164   1.719   0.585   1.831
   47SOL    HW1  165   1.693   0.674   1.795
   47SOL    HW2  166   1.717   0.517   1.758
   48SOL     OW  167   1.362   1.144   0.545
   48SOL    HW1  168   1.445   1.115   0.497
   48SOL    HW2  169   1.313   1.211   0.489
   49SOL     OW  170   0.550   0.196   0.885
   49SOL    HW1  171   0.545   0.191   0.985
   49SOL    HW2  172   0.552   0.292   0.856
   50SOL     OW  173   1.008   1.456   0.477
   50SOL    HW1  174   0.962   1.528   0.425
   50SOL    HW2  175   1.004   1.476   0.575
   51SOL     OW  176   0.351   1.801   0.853
   51SOL    HW1  177   0.401   1.715   0.859
   51SOL    HW2  178   0.416   1.878   0.850
   52SOL     OW  179   1.795   1.066   0.873
   52SOL    HW1  180   1.733   1.051   0.797
   52SOL    HW2  181   1.743   1.077   0.958
   53SOL     OW  182   0.321   0.943   0.242
   53SOL    HW1  183   0.403   0.982   0.200
   53SOL    HW2  184   0.294   0.861   0.193
   54SOL     OW  185   1.458   0.735   0.728
   54SOL    HW1  186   1.453   0.670   0.803
   54SOL    HW2  187   1.538   0.794   0.741
   55SOL     OW  188   0.461   1.266   1.727
   55SOL    HW1  189   0.411   1.267   1.641
   55SOL    HW2  190   0.398   1.248   1.803
   56SOL     OW  191   1.111   1.776   0.237
   56SOL    HW1  192   1.051   1.714   0.287
   56SOL    HW2  193   1.142   1.732   0.152
   57SOL     OW  194   0.202   0.285   1.498
   57SOL    HW1  195   0.122   0.345   1.485
   57SOL    HW2  196   0.192   0.236   1.584
   58SOL     OW  197   1.632   1.377   0.081
   58SOL    HW1  198   1.600   1.471   0.071
   58SOL    HW2  199   1.556   1.314   0.069
   59SOL     OW  200   0.464   1.743   0.323
   59SOL    HW1  201   0.497   1.782   0.409
   59SOL    HW2  202   0.540   1.736   0.258
   60SOL     OW  203   1.400   0.107   0.426
   60SOL    HW1  204   1.376   0.070   0.336
   60SOL    HW2  205   1.499   0.123   0.430
   61SOL     OW  206   0.249   1.785   1.241
   61SOL    HW1  207   0.306   1.720   1.291
   61SOL    HW2  208   0.233   1.752   1.148
   62SOL     OW  209   0.940   1.698   0.904
   62SOL    HW1  210   1.020   1.641   0.925
   62SOL    HW2  211   0.891   1.658   0.827
   63SOL     OW  212   0.382   0.700   0.480
   63SOL    HW1  213   0.427   0.610   0.477
   63SOL    HW2  214   0.288   0.689   0.513
   64SOL     OW  215   1.547   0.222   1.729
   64SOL    HW1  216   1.542   0.259   1.821
   64SOL    HW2  217   1.475   0.153   1.717
   65SOL     OW  218   0.614   0.122   0.117
   65SOL    HW1  219   0.712   0.100   0.124
   65SOL    HW2  220   0.583   0.105   0.024
   66SOL     OW  221   0.781   0.264   1.749
   66SOL    HW1  222   0.848   0.203   1.792
   66SOL    HW2  223   0.708   0.283   1.814
   67SOL     OW  224   0.888   1.514   1.195
   67SOL    HW1  225   0.865   1.489   1.101
   67SOL    HW2  226   0.949   1.445   1.234
   68SOL     OW  227   1.351   0.590   1.433
   68SOL    HW1  228   1.379   0.547   1.518
   68SOL    HW2  229   1.376   0.686   1.434
   69SOL     OW  230   0.803   1.402   0.924
   69SOL    HW1  231   0.893   1.416   0.882
   69SOL    HW2  232   0.732   1.404   0.853
   70SOL     OW  233   0.922   0.503   0.899
   70SOL    HW1  234   0.897   0.494   0.803
   70SOL    HW2  235   0.970   0.421   0.930
   71SOL     OW  236   0.539   0.064   0.512
   71SOL    HW1  237   0.458   0.065   0.570
   71SOL    HW2  238   0.542   0.147   0.457
   72SOL     OW  239   1.434   1.188   0.041
   72SOL    HW1  240   1.466   1.112   0.098
   72SOL    HW2  241   1.342   1.215   0.071
   73SOL     OW  242   0.297   0.035   0.171
   73SOL    HW1  243   0.346   0.119   0.150
   73SOL    HW2  244   0.359  -0.030   0.216
   74SOL     OW  245   0.935   0.236   0.480
   74SOL    HW1  246   0.887   0.277   0.402
   74SOL    HW2  247   1.034   0.234   0.461
   75SOL     OW  248   1.076   0.683   1.464
   75SOL    HW1  249   0.996   0.622   1.467
   75SOL    HW2  250   1.157   0.630   1.440
   76SOL     OW  251   1.227   1.570   0.793
   76SOL    HW1  252   1.248   1.644   0.728
   76SOL    HW2  253   1.295   1.570   0.866
   77SOL     OW  254   0.459   1.152   0.741
   77SOL    HW1  255   0.388   1.125   0.806
   77SOL    HW2  256   0.433   1.124   0.648
   78SOL     OW  257   1.271   1.797   0.591
   78SOL    HW1  258   1.315   1.861   0.527
   78SOL    HW2  259   1.221   1.849   0.661
   79SOL     OW  260   1.032   0.549   0.016
   79SOL    HW1  261   0.991   0.631  -0.023
   79SOL    HW2  262   1.096   0.575   0.089
   80SOL     OW  263   0.078   0.556   1.386
   80SOL    HW1  264   0.170   0.555   1.345
   80SOL    HW2  265   0.072   0.630   1.453
   81SOL     OW  266   0.561   0.222   1.147
   81SOL    HW1  267   0.599   0.138   1.184
   81SOL    HW2  268   0.473   0.241   1.191
   82SOL     OW  269   0.866   0.454   0.642
   82SOL    HW1  270   0.834   0.526   0.580
   82SOL    HW2  271   0.890   0.373   0.589
   83SOL     OW  272   1.017   0.039   0.753
   83SOL    HW1  273   0.945   0.044   0.684
   83SOL    HW2  274   0.993  -0.030   0.822
   84SOL     OW  275   1.429   1.173   0.867
   84SOL    HW1  276   1.374   1.089   0.860
   84SOL    HW2  277   1.455   1.202   0.775
   85SOL     OW  278   1.466   0.590   0.992
   85SOL    HW1  279   1.436   0.495   0.999
   85SOL    HW2  280   1.539   0.606   1.058
   86SOL     OW  281   1.857   0.833   0.377
   86SOL    HW1  282   1.899   0.769   0.441
   86SOL    HW2  283   1.819   0.782   0.299
   87SOL     OW  284   0.488   1.385   0.174
   87SOL    HW1  285   0.401   1.370   0.221
   87SOL    HW2  286   0.471   1.411   0.079
   88SOL     OW  287   1.664   1.280   0.657
   88SOL    HW1  288   1.763   1.288   0.671
   88SOL    HW2  289   1.619   1.364   0.688
   89SOL     OW  290   1.390   0.575   0.078
   89SOL    HW1  291   1.336   0.554   0.159
   89SOL    HW2  292   1.481   0.534   0.087
   90SOL     OW  293   0.527   0.256   0.328
   90SOL    HW1  294   0.554   0.197   0.253
   90SOL    HW2  295   0.527   0.351   0.297
   91SOL     OW  296   1.111   1.195   1.100
   91SOL    HW1  297   1.071   1.239   1.181
   91SOL    HW2  298   1.070   1.232   1.017
   92SOL     OW  299   1.638   1.099   1.079
   92SOL    HW1  300   1.643   1.180   1.138
   92SOL    HW2  301   1.552   1.101   1.028
   93SOL     OW  302   0.915   0.089   1.402
   93SOL    HW1  303   0.940   0.069   1.307
   93SOL    HW2  304   0.987   0.145   1.444
   94SOL     OW  305   0.980   1.116   1.719
   94SOL    HW1  306   0.881   1.122   1.729
   94SOL    HW2  307   1.003   1.036   1.663
   95SOL     OW  308   0.705   1.050   0.368
   95SOL    HW1  309   0.691   1.057   0.467
   95SOL    HW2  310   0.789   0.999   0.350
   96SOL     OW  311   0.410   0.813   1.251
   96SOL    HW1  312   0.496   0.825   1.301
   96SOL    HW2  313   0.368   0.726   1.278
   97SOL     OW  314   1.274   0.386   1.262
   97SOL    HW1  315   1.295   0.460   1.326
   97SOL    HW2  316   1.185   0.403   1.219
   98SOL     OW  317   0.064   1.564   1.331
   98SOL    HW1  318   0.018   1.646   1.297
   98SOL    HW2  319   0.162   1.583   1.340
   99SOL     OW  320   0.367   1.100   0.501
   99SOL    HW1  321   0.360   1.183   0.445
   99SOL    HW2  322   0.371   1.020   0.441
  100SOL     OW  323   0.566   0.537   0.865
  100SOL    HW1  324   0.578   0.603   0.791
  100SOL    HW2  325   0.612   0.571   0.948
  101SOL     OW  326   1.252   1.348   0.388
  101SOL    HW1  327   1.302   1.425   0.428
  101SOL    HW2  328   1.157   1.350   0.420
  102SOL     OW  329   1.582   0.639   0.472
  102SOL    HW1  330   1.551   0.700   0.545
  102SOL    HW2  331   1.632   0.691   0.403
  103SOL     OW  332   0.354   1.510   1.329
  103SOL    HW1  333   0.333   1.466   1.242
  103SOL    HW2  334   0.451   1.536   1.332
  104SOL     OW  335   0.402   0.751   1.598
  104SOL    HW1  336   0.470   0.806   1.551
  104SOL    HW2  337   0.442   0.663   1.625
  105SOL     OW  338   1.587   0.779   1.670
  105SOL    HW1  339   1.495   0.817   1.665
  105SOL    HW2  340   1.647   0.826   1.605
  106SOL     OW  341   1.013   0.105   1.770
  106SOL    HW1  342   1.019   0.190   1.718
  106SOL    HW2  343   1.045   0.029   1.713
  107SOL     OW  344   0.504   0.050   1.740
  107SOL    HW1  345   0.462  -0.007   1.670
  107SOL    HW2  346   0.438   0.119   1.772
  108SOL     OW  347   0.573   0.870   1.029
  108SOL    HW1  348   0.617   0.959   1.020
  108SOL    HW2  349   0.510   0.870   1.106
  109SOL     OW  350   1.360   0.862   1.045
  109SOL    HW1  351   1.285   0.862   0.979
  109SOL    HW2  352   1.397   0.770   1.054
  110SOL     OW  353   1.209   0.525   0.275
  110SOL    HW1  354   1.222   0.441   0.329
  110SOL    HW2  355   1.180   0.599   0.335
  111SOL     OW  356   0.307   0.213   1.231
  111SOL    HW1  357   0.284   0.250   1.321
  111SOL    HW2  358   0.277   0.118   1.225
  112SOL     OW  359   0.037   1.310   1.282
  112SOL    HW1  360   0.090   1.261   1.350
  112SOL    HW2  361   0.059   1.408   1.287
  113SOL     OW  362   0.732   0.634   1.064
  113SOL    HW1  363   0.791   0.608   0.988
  113SOL    HW2  364   0.704   0.730   1.053
  114SOL     OW  365   1.728   0.935   1.854
  114SOL    HW1  366   1.682   0.928   1.765
  114SOL    HW2  367   1.666   0.979   1.920
  115SOL     OW  368   0.307   0.063   0.618
  115SOL    HW1  369   0.296   0.157   0.651
  115SOL    HW2  370   0.302   0.000   0.695
  116SOL     OW  371   1.622   0.367   0.374
  116SOL    HW1  372   1.624   0.291   0.438
  116SOL    HW2  373   1.574   0.444   0.414
  117SOL     OW  374   1.023   0.766   0.966
  117SOL    HW1  375   1.038   0.787   1.062
  117SOL    HW2  376   0.993   0.671   0.957
  118SOL     OW  377   0.980   1.573   1.700
  118SOL    HW1  378   0.960   1.617   1.612
  118SOL    HW2  379   1.019   1.482   1.684
  119SOL     OW  380   0.350   0.898   1.804
  119SOL    HW1  381   0.426   0.942   1.852
  119SOL    HW2  382   0.385   0.851   1.722
  120SOL     OW  383   1.540   0.274   0.125
  120SOL    HW1  384   1.479   0.199   0.148
  120SOL    HW2  385   1.562   0.326   0.208
  121SOL     OW  386   1.303   0.838   0.042
  121SOL    HW1  387   1.337   0.745   0.057
  121SOL    HW2  388   1.321   0.865  -0.053
  122SOL     OW  389   1.068   1.333   0.849
  122SOL    HW1  390   1.075   1.249   0.794
  122SOL    HW2  391   1.130   1.402   0.813
  123SOL     OW  392   0.319   0.810   0.949
  123SOL    HW1  393   0.412   0.846   0.954
  123SOL    HW2  394   0.313   0.725   1.001
  124SOL     OW  395   0.339   0.509   1.006
  124SOL    HW1  396   0.287   0.426   0.989
  124SOL    HW2  397   0.416   0.514   0.942
  125SOL     OW  398   1.138   0.380   1.678
  125SOL    HW1  399   1.093   0.443   1.742
  125SOL    HW2  400   1.231   0.411   1.661
  126SOL     OW  401   1.160   0.207   1.477
  126SOL    HW1  402   1.160   0.271   1.554
  126SOL    HW2  403   1.188   0.255   1.394
  127SOL     OW  404   0.008   1.326   0.200
  127SOL    HW1  405  -0.085   1.347   0.169
  127SOL    HW2  406   0.018   1.227   0.213
  128SOL     OW  407   0.088   1.801   0.927
  128SOL    HW1  408   0.046   1.715   0.900
  128SOL    HW2  409   0.182   1.804   0.893
  129SOL     OW  410   0.504   1.568   0.910
  129SOL    HW1  411   0.570   1.642   0.919
  129SOL    HW2  412   0.548   1.489   0.868
  130SOL     OW  413   1.002   0.796   1.238
  130SOL    HW1  414   1.043   0.764   1.324
  130SOL    HW2  415   0.906   0.769   1.235
  131SOL     OW  416   0.040   0.544   1.114
  131SOL    HW1  417   0.125   0.511   1.073
  131SOL    HW2  418   0.053   0.559   1.212
  132SOL     OW  419   0.189   0.520   1.722
  132SOL    HW1  420   0.248   0.480   1.652
  132SOL    HW2  421   0.131   0.591   1.681
  133SOL     OW  422   1.369   0.950   1.660
  133SOL    HW1  423   1.408   1.039   1.680
  133SOL    HW2  424   1.379   0.930   1.563
  134SOL     OW  425   0.815   0.572   0.325
  134SOL    HW1  426   0.822   0.483   0.279
  134SOL    HW2  427   0.721   0.606   0.317
  135SOL     OW  428   1.657   0.604   1.206
  135SOL    HW1  429   1.619   0.535   1.268
  135SOL    HW2  430   1.739   0.568   1.162
  136SOL     OW  431   0.252   1.564   1.744
  136SOL    HW1  432   0.222   1.621   1.820
  136SOL    HW2  433   0.245   1.467   1.770
  137SOL     OW  434   0.671   0.464   1.269
  137SOL    HW1  435   0.637   0.375   1.239
  137SOL    HW2  436   0.697   0.518   1.189
  138SOL     OW  437   0.930   1.678   1.465
  138SOL    HW1  438   0.906   1.660   1.370
  138SOL    HW2  439   0.960   1.772   1.475
  139SOL     OW  440   0.473   0.500   0.191
  139SOL    HW1  441   0.534   0.580   0.195
  139SOL    HW2  442   0.378   0.531   0.198
  140SOL     OW  443   0.159   1.137   1.466
  140SOL    HW1  444   0.181   1.076   1.542
  140SOL    HW2  445   0.169   1.088   1.380
  141SOL     OW  446   1.302   0.855   0.309
  141SOL    HW1  447   1.216   0.824   0.351
  141SOL    HW2  448   1.298   0.841   0.210
  142SOL     OW  449   1.759   1.747   1.154
  142SOL    HW1  450   1.820   1.777   1.081
  142SOL    HW2  451   1.721   1.658   1.132
  143SOL     OW  452   1.252   1.731   1.128
  143SOL    HW1  453   1.336   1.736   1.074
  143SOL    HW2  454   1.229   1.635   1.146
  144SOL     OW  455   0.083   1.258   1.022
  144SOL    HW1  456   0.078   1.257   1.122
  144SOL    HW2  457   0.000   1.217   0.984
  145SOL     OW  458   0.688   1.662   1.716
  145SOL    HW1  459   0.632   1.743   1.725
  145SOL    HW2  460   0.740   1.666   1.630
  146SOL     OW  461   0.903   0.086   0.133
  146SOL    HW1  462   0.954   0.087   0.047
  146SOL    HW2  463   0.959   0.044   0.204
  147SOL     OW  464   1.726   0.135   0.523
  147SOL    HW1  465   1.799   0.118   0.456
  147SOL    HW2  466   1.695   0.048   0.561
  148SOL     OW  467   1.388   1.573   0.477
  148SOL    HW1  468   1.455   1.585   0.403
  148SOL    HW2  469   1.348   1.662   0.500
  149SOL     OW  470   0.130   1.794   1.851
  149SOL    HW1  471   0.089   1.720   1.904
  149SOL    HW2  472   0.194   1.845   1.909
  150SOL     OW  473   1.280   0.927   0.672
  150SOL    HW1  474   1.340   0.846   0.674
  150SOL    HW2  475   1.320   0.996   0.612
  151SOL     OW  476   0.830   1.273   1.422
  151SOL    HW1  477   0.825   1.306   1.517
  151SOL    HW2  478   0.744   1.292   1.376
  152SOL     OW  479   0.672   1.616   0.154
  152SOL    HW1  480   0.681   1.626   0.055
  152SOL    HW2  481   0.632   1.527   0.175
  153SOL     OW  482   1.650   1.720   1.394
  153SOL    HW1  483   1.703   1.730   1.310
  153SOL    HW2  484   1.623   1.810   1.428
  154SOL     OW  485   1.841   0.175   0.963
  154SOL    HW1  486   1.880   0.090   0.927
  154SOL    HW2  487   1.743   0.177   0.944
  155SOL     OW  488   0.263   0.326   0.720
  155SOL    HW1  489   0.184   0.377   0.686
  155SOL    HW2  490   0.254   0.311   0.818
  156SOL     OW  491   1.194   1.612   0.031
  156SOL    HW1  492   1.200   1.519   0.068
  156SOL    HW2  493   1.135   1.612  -0.049
  157SOL     OW  494   0.822   1.002   1.372
  157SOL    HW1  495   0.862   1.001   1.280
  157SOL    HW2  496   0.832   1.094   1.412
  158SOL     OW  497   0.916   0.910   0.291
  158SOL    HW1  498   0.979   0.948   0.223
  158SOL    HW2  499   0.956   0.827   0.330
  159SOL     OW  500   1.504   1.607   0.044
  159SOL    HW1  501   1.412   1.644   0.051
  159SOL    HW2  502   1.542   1.627  -0.046
  160SOL     OW  503   0.372   1.288   1.490
  160SOL    HW1  504   0.359   1.381   1.456
  160SOL    HW2  505   0.288   1.236   1.477
  161SOL     OW  506   1.039   1.098   0.696
  161SOL    HW1  507   0.969   1.051   0.750
  161SOL    HW2  508   1.098   1.030   0.653
  162SOL     OW  509   1.014   0.236   0.971
  162SOL    HW1  510   1.006   0.200   0.878
  162SOL    HW2  511   1.012   0.160   1.036
  163SOL     OW  512   0.590   1.487   0.491
  163SOL    HW1  513   0.632   1.429   0.421
  163SOL    HW2  514   0.546   1.566   0.447
  164SOL     OW  515   1.709   0.385   1.381
  164SOL    HW1  516   1.782   0.454   1.385
  164SOL    HW2  517   1.737   0.310   1.322
  165SOL     OW  518   0.255   1.348   0.290
  165SOL    HW1  519   0.159   1.349   0.263
  165SOL    HW2  520   0.267   1.401   0.374
  166SOL     OW  521   0.105   1.013   1.726
  166SOL    HW1  522   0.028   0.980   1.780
  166SOL    HW2  523   0.190   0.983   1.768
  167SOL     OW  524   0.672   0.203   1.489
  167SOL    HW1  525   0.762   0.187   1.449
  167SOL    HW2  526   0.680   0.208   1.588
  168SOL     OW  527   0.075   0.345   0.033
  168SOL    HW1  528  -0.017   0.317   0.004
  168SOL    HW2  529   0.106   0.422  -0.023
  169SOL     OW  530   1.440   0.856   1.398
  169SOL    HW1  531   1.383   0.908   1.335
  169SOL    HW2  532   1.536   0.868   1.374
  170SOL     OW  533   0.072   0.166   0.318
  170SOL    HW1  534   0.055   0.249   0.264
  170SOL    HW2  535   0.162   0.129   0.296
  171SOL     OW  536   1.183   1.335   0.119
  171SOL    HW1  537   1.084   1.324   0.121
  171SOL    HW2  538   1.217   1.350   0.212
  172SOL     OW  539   0.613   0.842   1.431
  172SOL    HW1  540   0.669   0.923   1.414
  172SOL    HW2  541   0.672   0.762   1.434
  173SOL     OW  542   1.493   1.767   0.959
  173SOL    HW1  543   1.526   1.831   0.890
  173SOL    HW2  544   1.559   1.761   1.034
  174SOL     OW  545   0.716   0.565   1.708
  174SOL    HW1  546   0.735   0.630   1.782
  174SOL    HW2  547   0.776   0.485   1.717
  175SOL     OW  548   1.450   1.220   1.633
  175SOL    HW1  549   1.441   1.210   1.732
  175SOL    HW2  550   1.546   1.213   1.607
  176SOL     OW  551   0.390   1.741   1.560
  176SOL    HW1  552   0.299   1.782   1.558
  176SOL    HW2  553   0.383   1.647   1.592
  177SOL     OW  554   1.674   0.883   1.254
  177SOL    HW1  555   1.647   0.794   1.217
  177SOL    HW2  556   1.675   0.951   1.181
  178SOL     OW  557   1.225   0.325   0.449
  178SOL    HW1  558   1.290   0.251   0.438
  178SOL    HW2  559   1.245   0.375   0.533
  179SOL     OW  560   0.594   0.745   0.652
  179SOL    HW1  561   0.644   0.830   0.633
  179SOL    HW2  562   0.506   0.747   0.604
  180SOL     OW  563   1.777   0.342   1.642
  180SOL    HW1  564   1.760   0.373   1.548
  180SOL    HW2  565   1.693   0.305   1.680
  181SOL     OW  566   1.730   0.934   1.517
  181SOL    HW1  567   1.768   1.025   1.532
  181SOL    HW2  568   1.722   0.917   1.418
  182SOL     OW  569   0.859   1.374   0.016
  182SOL    HW1  570   0.813   1.389   0.104
  182SOL    HW2  571   0.903   1.459  -0.014
  183SOL     OW  572   0.661   1.790   0.953
  183SOL    HW1  573   0.615   1.878   0.940
  183SOL    HW2  574   0.760   1.802   0.946
  184SOL     OW  575   0.859   0.956   0.861
  184SOL    HW1  576   0.913   0.887   0.909
  184SOL    HW2  577   0.827   1.025   0.927
  185SOL     OW  578   1.083   0.984   0.087
  185SOL    HW1  579   1.060   1.037   0.005
  185SOL    HW2  580   1.164   0.928   0.068
  186SOL     OW  581   1.861   1.569   0.851
  186SOL    HW1  582   1.790   1.557   0.781
  186SOL    HW2  583   1.862   1.490   0.911
  187SOL     OW  584   0.221   1.314   1.844
  187SOL    HW1  585   0.156   1.241   1.823
  187SOL    HW2  586   0.225   1.328   1.942
  188SOL     OW  587   0.079   1.240   0.653
  188SOL    HW1  588   0.078   1.193   0.741
  188SOL    HW2  589   0.161   1.212   0.602
  189SOL     OW  590   0.672   1.391   1.624
  189SOL    HW1  591   0.594   1.341   1.662
  189SOL    HW2  592   0.669   1.486   1.655
  190SOL     OW  593   1.824   0.192   1.227
  190SOL    HW1  594   1.820   0.102   1.271
  190SOL    HW2  595   1.827   0.181   1.128
  191SOL     OW  596   0.428   0.424   0.520
  191SOL    HW1  597   0.458   0.352   0.458
  191SOL    HW2  598   0.389   0.384   0.603
  192SOL     OW  599   1.705   1.487   1.104
  192SOL    HW1  600   1.612   1.462   1.077
  192SOL    HW2  601   1.731   1.437   1.186
  193SOL     OW  602   0.317   0.547   1.280
  193SOL    HW1  603   0.355   0.488   1.352
  193SOL    HW2  604   0.357   0.521   1.192
  194SOL     OW  605   0.812   1.586   0.687
  194SOL    HW1  606   0.844   1.596   0.593
  194SOL    HW2  607   0.733   1.524   0.689
  195SOL     OW  608   1.424   0.214   1.112
  195SOL    HW1  609   1.476   0.149   1.167
  195SOL    HW2  610   1.375   0.277   1.173
  196SOL     OW  611   1.001   0.034   1.154
  196SOL    HW1  612   0.938  -0.038   1.123
  196SOL    HW2  613   1.094  -0.002   1.154
  197SOL     OW  614   0.770   1.330   0.301
  197SOL    HW1  615   0.724   1.243   0.318
  197SOL    HW2  616   0.861   1.327   0.342
  198SOL     OW  617   0.618   1.567   1.284
  198SOL    HW1  618   0.613   1.649   1.341
  198SOL    HW2  619   0.707   1.564   1.239
  199SOL     OW  620   1.352   0.052   0.168
  199SOL    HW1  621   1.387   0.011   0.084
  199SOL    HW2  622   1.262   0.014   0.188
  200SOL     OW  623   1.300   0.453   0.691
  200SOL    HW1  624   1.241   0.533   0.695
  200SOL    HW2  625   1.315   0.418   0.784
  201SOL     OW  626   1.593   0.221   0.882
  201SOL    HW1  627   1.509   0.220   0.936
  201SOL    HW2  628   1.595   0.304   0.826
  202SOL     OW  629   0.039   1.077   0.300
  202SOL    HW1  630   0.138   1.066   0.291
  202SOL    HW2  631  -0.001   0.991   0.332
  203SOL     OW  632   0.875   1.646   0.337
  203SOL    HW1  633   0.798   1.611   0.283
  203SOL    HW2  634   0.843   1.717   0.399
  204SOL     OW  635   0.230   0.628   1.975
  204SOL    HW1  636   0.137   0.626   2.012
  204SOL    HW2  637   0.231   0.589   1.883
  205SOL     OW  638   0.225   0.275   2.858
  205SOL    HW1  639   0.260   0.258   2.950
  205SOL    HW2  640   0.137   0.230   2.846
  206SOL     OW  641   0.019   0.368   2.509
  206SOL    HW1  642  -0.063   0.411   2.548
  206SOL    HW2  643  -0.009   0.295   2.446
  207SOL     OW  644   1.555   1.511   2.565
  207SOL    HW1  645   1.498   1.495   2.646
  207SOL    HW2  646   1.496   1.521   2.485
  208SOL     OW  647   1.135   0.703   2.579
  208SOL    HW1  648   1.192   0.781   2.554
  208SOL    HW2  649   1.075   0.729   2.655
  209SOL     OW  650   1.755   0.607   2.093
  209SOL    HW1  651   1.743   0.594   1.994
  209SOL    HW2  652   1.725   0.526   2.142
  210SOL     OW  653   0.768   1.144   2.885
  210SOL    HW1  654   0.690   1.161   2.945
  210SOL    HW2  655   0.802   1.231   2.849
  211SOL     OW  656   0.685   1.012   2.527
  211SOL    HW1  657   0.754   0.996   2.597
  211SOL    HW2  658   0.612   1.069   2.565
  212SOL     OW  659   0.335   1.435   2.923
  212SOL    HW1  660   0.257   1.404   2.870
  212SOL    HW2  661   0.393   1.493   2.866
  213SOL     OW  662   1.603   0.447   2.599
  213SOL    HW1  663   1.529   0.493   2.549
  213SOL    HW2  664   1.654   0.515   2.652
  214SOL     OW  665   0.231   1.713   2.345
  214SOL    HW1  666   0.265   1.790   2.399
  214SOL    HW2  667   0.275   1.713   2.255
  215SOL     OW  668   0.230   1.434   2.400
  215SOL    HW1  669   0.204   1.530   2.400
  215SOL    HW2  670   0.159   1.380   2.445
  216SOL     OW  671   0.240   1.091   2.748
  216SOL    HW1  672   0.254   1.007   2.800
  216SOL    HW2  673   0.185   1.155   2.803
  217SOL     OW  674   0.606   0.964   1.985
  217SOL    HW1  675   0.613   1.048   1.931
  217SOL    HW2  676   0.652   0.977   2.073
  218SOL     OW  677   0.122   0.643   2.425
  218SOL    HW1  678   0.077   0.555   2.442
  218SOL    HW2  679   0.121   0.697   2.509
  219SOL     OW  680   1.842   1.767   2.221
  219SOL    HW1  681   1.896   1.738   2.301
  219SOL    HW2  682   1.872   1.857   2.192
  220SOL     OW  683   0.027   1.596   1.979
  220SOL    HW1  684   0.008   1.500   2.000
  220SOL    HW2  685  -0.006   1.654   2.054
  221SOL     OW  686   1.689   0.922   2.474
  221SOL    HW1  687   1.784   0.893   2.482
  221SOL    HW2  688   1.681   0.987   2.399
  222SOL     OW  689   1.641   1.108   2.294
  222SOL    HW1  690   1.727   1.110   2.242
  222SOL    HW2  691   1.655   1.155   2.382
  223SOL     OW  692   0.613   1.365   2.588
  223SOL    HW1  693   0.564   1.278   2.597
  223SOL    HW2  694   0.590   1.408   2.501
  224SOL     OW  695   0.809   0.004   2.364
  224SOL    HW1  696   0.849   0.095   2.355
  224SOL    HW2  697   0.709   0.012   2.370
  225SOL     OW  698   1.525   0.999   2.052
  225SOL    HW1  699   1.462   0.923   2.065
  225SOL    HW2  700   1.573   1.017   2.138
  226SOL     OW  701   1.466   1.417   2.815
  226SOL    HW1  702   1.407   1.423   2.895
  226SOL    HW2  703   1.451   1.329   2.769
  227SOL     OW  704   1.667   1.714   2.434
  227SOL    HW1  705   1.626   1.691   2.346
  227SOL    HW2  706   1.649   1.640   2.499
  228SOL     OW  707   0.598   0.729   2.132
  228SOL    HW1  708   0.622   0.798   2.064
  228SOL    HW2  709   0.520   0.762   2.186
  229SOL     OW  710   1.281   0.345   2.806
  229SOL    HW1  711   1.195   0.295   2.793
  229SOL    HW2  712   1.343   0.291   2.862
  230SOL     OW  713   1.576   1.662   2.169
  230SOL    HW1  714   1.665   1.708   2.172
  230SOL    HW2  715   1.555   1.638   2.074
  231SOL     OW  716   1.041   0.701   2.291
  231SOL    HW1  717   1.067   0.697   2.387
  231SOL    HW2  718   0.956   0.650   2.277
  232SOL     OW  719   0.076   0.811   2.651
  232SOL    HW1  720   0.175   0.799   2.660
  232SOL    HW2  721   0.052   0.906   2.672
  233SOL     OW  722   0.865   0.348   2.057
  233SOL    HW1  723   0.924   0.411   2.008
  233SOL    HW2  724   0.884   0.254   2.028
  234SOL     OW  725   1.362   1.144   2.407
  234SOL    HW1  726   1.445   1.115   2.359
  234SOL    HW2  727   1.313   1.211   2.351
  235SOL     OW  728   0.550   0.196   2.747
  235SOL    HW1  729   0.545   0.191   2.847
  235SOL    HW2  730   0.552   0.292   2.718
  236SOL     OW  731   1.008   1.456   2.339
  236SOL    HW1  732   0.962   1.528   2.287
  236SOL    HW2  733   1.004   1.476   2.437
  237SOL     OW  734   0.351   1.801   2.715
  237SOL    HW1  735   0.401   1.715   2.721
  237SOL    HW2  736   0.416   1.878   2.712
  238SOL     OW  737   1.795   1.066   2.735
  238SOL    HW1  738   1.733   1.051   2.659
  238SOL    HW2  739   1.743   1.077   2.820
  239SOL     OW  740   0.321   0.943   2.104
  239SOL    HW1  741   0.403   0.982   2.062
  239SOL    HW2  742   0.294   0.861   2.055
  240SOL     OW  743   1.458   0.735   2.590
  240SOL    HW1  744   1.453   0.670   2.665
  240SOL    HW2  745   1.538   0.794   2.603
  241SOL     OW  746   1.111   1.776   2.099
  241SOL    HW1  747   1.051   1.714   2.149
  241SOL    HW2  748   1.142   1.732   2.014
  242SOL     OW  749   1.632   1.377   1.943
  242SOL    HW1  750   1.600   1.471   1.933
  242SOL    HW2  751   1.556   1.314   1.931
  243SOL     OW  752   0.464   1.743   2.185
  243SOL    HW1  753   0.497   1.782   2.271
  243SOL    HW2  754   0.540   1.736   2.120
  244SOL     OW  755   1.400   0.107   2.288
  244SOL    HW1  756   1.376   0.070   2.198
  244SOL    HW2  757   1.499   0.123   2.292
  245SOL     OW  758   0.249   1.785   3.103
  245SOL    HW1  759   0.306   1.720   3.153
  245SOL    HW2  760   0.233   1.752   3.010
  246SOL     OW  761   0.940   1.698   2.766
  246SOL    HW1  762   1.020   1.641   2.787
  246SOL    HW2  763   0.891   1.658   2.689
  247SOL     OW  764   0.382   0.700   2.342
  247SOL    HW1  765   0.427   0.610   2.339
  247SOL    HW2  766   0.288   0.689   2.375
  248SOL     OW  767   0.614   0.122   1.979
  248SOL    HW1  768   0.712   0.100   1.986
  248SOL    HW2  769   0.583   0.105   1.886
  249SOL     OW  770   0.803   1.402   2.786
  249SOL    HW1  771   0.893   1.416   2.744
  249SOL    HW2  772   0.732   1.404   2.715
  250SOL     OW  773   0.922   0.503   2.761
  250SOL    HW1  774   0.897   0.494   2.665
  250SOL    HW2  775   0.970   0.421   2.792
  251SOL     OW  776   0.539   0.064   2.374
  251SOL    HW1  777   0.458   0.065   2.432
  251SOL    HW2  778   0.542   0.147   2.319
  252SOL     OW  779   1.434   1.188   1.903
  252SOL    HW1  780   1.466   1.112   1.960
  252SOL    HW2  781   1.342   1.215   1.933
  253SOL     OW  782   0.297   0.035   2.033
  253SOL    HW1  783   0.346   0.119   2.012
  253SOL    HW2  784   0.359  -0.030   2.078
  254SOL     OW  785   0.935   0.236   2.342
  254SOL    HW1  786   0.887   0.277   2.264
  254SOL    HW2  787   1.034   0.234   2.323
  255SOL     OW  788   1.227   1.570   2.655
  255SOL    HW1  789   1.248   1.644   2.590
  255SOL    HW2  790   1.295   1.570   2.728
  256SOL     OW  791   0.459   1.152   2.603
  256SOL    HW1  792   0.388   1.125   2.668
  256SOL    HW2  793   0.433   1.124   2.510
  257SOL     OW  794   1.271   1.797   2.453
  257SOL    HW1  795   1.315   1.861   2.389
  257SOL    HW2  796   1.221   1.849   2.523
  258SOL     OW  797   1.032   0.549   1.878
  258SOL    HW1  798   0.991   0.631   1.839
  258SOL    HW2  799   1.096   0.575   1.951
  259SOL     OW  800   0.866   0.454   2.504
  259SOL    HW1  801   0.834   0.526   2.442
  259SOL    HW2  802   0.890   0.373   2.451
  260SOL     OW  803   1.017   0.039   2.615
  260SOL    HW1  804   0.945   0.044   2.546
  260SOL    HW2  805   0.993  -0.030   2.684
  261SOL     OW  806   1.429   1.173   2.729
  261SOL    HW1  807   1.374   1.089   2.722
  261SOL    HW2  808   1.455   1.202   2.637
  262SOL     OW  809   1.466   0.590   2.854
  262SOL    HW1  810   1.436   0.495   2.861
  262SOL    HW2  811   1.539   0.606   2.920
  263SOL     OW  812   1.857   0.833   2.239
  263SOL    HW1  813   1.899   0.769   2.303
  263SOL    HW2  814   1.819   0.782   2.161
  264SOL     OW  815   0.488   1.385   2.036
  264SOL    HW1  816   0.401   1.370   2.083
  264SOL    HW2  817   0.471   1.411   1.941
  265SOL     OW  818   1.664   1.280   2.519
  265SOL    HW1  819   1.763   1.288   2.533
  265SOL    HW2  820   1.619   1.364   2.550
  266SOL     OW  821   1.390   0.575   1.940
  266SOL    HW1  822   1.336   0.554   2.021
  266SOL    HW2  823   1.481   0.534   1.949
  267SOL     OW  824   0.527   0.256   2.190
  267SOL    HW1  825   0.554   0.197   2.115
  267SOL    HW2  826   0.527   0.351   2.159
  268SOL     OW  827   1.638   1.099   2.941
  268SOL    HW1  828   1.643   1.180   3.000
  268SOL    HW2  829   1.552   1.101   2.890
  269SOL     OW  830   0.705   1.050   2.230
  269SOL    HW1  831   0.691   1.057   2.329
  269SOL    HW2  832   0.789   0.999   2.212
  270SOL     OW  833   0.367   1.100   2.363
  270SOL    HW1  834   0.360   1.183   2.307
  270SOL    HW2  835   0.371   1.020   2.303
  271SOL     OW  836   0.566   0.537   2.727
  271SOL    HW1  837   0.578   0.603   2.653
  271SOL    HW2  838   0.612   0.571   2.810
  272SOL     OW  839   1.252   1.348   2.250
  272SOL    HW1  840   1.302   1.425   2.290
  272SOL    HW2  841   1.157   1.350   2.282
  273SOL     OW  842   1.582   0.639   2.334
  273SOL    HW1  843   1.551   0.700   2.407
  273SOL    HW2  844   1.632   0.691   2.265
  274SOL     OW  845   0.573   0.870   2.891
  274SOL    HW1  846   0.617   0.959   2.882
  274SOL    HW2  847   0.510   0.870   2.968
  275SOL     OW  848   1.209   0.525   2.137
  275SOL    HW1  849   1.222   0.441   2.191
  275SOL    HW2  850   1.180   0.599   2.197
  276SOL     OW  851   0.732   0.634   2.926
  276SOL    HW1  852   0.791   0.608   2.850
  276SOL    HW2  853   0.704   0.730   2.915
  277SOL     OW  854   0.307   0.063   2.480
  277SOL    HW1  855   0.296   0.157   2.513
  277SOL    HW2  856   0.302   0.000   2.557
  278SOL     OW  857   1.622   0.367   2.236
  278SOL    HW1  858   1.624   0.291   2.300
  278SOL    HW2  859   1.574   0.444   2.276
  279SOL     OW  860   1.540   0.274   1.987
  279SOL    HW1  861   1.479   0.199   2.010
  279SOL    HW2  862   1.562   0.326   2.070
  280SOL     OW  863   1.303   0.838   1.904
  280SOL    HW1  864   1.337   0.745   1.919
  280SOL    HW2  865   1.321   0.865   1.809
  281SOL     OW  866   1.068   1.333   2.711
  281SOL    HW1  867   1.075   1.249   2.656
  281SOL    HW2  868   1.130   1.402   2.675
  282SOL     OW  869   0.319   0.810   2.811
  282SOL    HW1  870   0.412   0.846   2.816
  282SOL    HW2  871   0.313   0.725   2.863
  283SOL     OW  872   0.339   0.509   2.868
  283SOL    HW1  873   0.287   0.426   2.851
  283SOL    HW2  874   0.416   0.514   2.804
  284SOL     OW  875   0.008   1.326   2.062
  284SOL    HW1  876  -0.085   1.347   2.031
  284SOL    HW2  877   0.018   1.227   2.075
  285SOL     OW  878   0.088   1.801   2.789
  285SOL    HW1  879   0.046   1.715   2.762
  285SOL    HW2  880   0.182   1.804   2.755
  286SOL     OW  881   0.504   1.568   2.772
  286SOL    HW1  882   0.570   1.642   2.781
  286SOL    HW2  883   0.548   1.489   2.730
  287SOL     OW  884   1.002   0.796   3.100
  287SOL    HW1  885   1.043   0.764   3.186
  287SOL    HW2  886   0.906   0.769   3.097
  288SOL     OW  887   0.815   0.572   2.187
  288SOL    HW1  888   0.822   0.483   2.141
  288SOL    HW2  889   0.721   0.606   2.179
  289SOL     OW  890   0.671   0.464   3.131
  289SOL    HW1  891   0.637   0.375   3.101
  289SOL    HW2  892   0.697   0.518   3.051
  290SOL     OW  893   0.473   0.500   2.053
  290SOL    HW1  894   0.534   0.580   2.057
  290SOL    HW2  895   0.378   0.531   2.060
  291SOL     OW  896   1.302   0.855   2.171
  291SOL    HW1  897   1.216   0.824   2.213
  291SOL    HW2  898   1.298   0.841   2.072
  292SOL     OW  899   1.759   1.747   3.016
  292SOL    HW1  900   1.820   1.777   2.943
  292SOL    HW2  901   1.721   1.658   2.994
  293SOL     OW  902   0.083   1.258   2.884
  293SOL    HW1  903   0.078   1.257   2.984
  293SOL    HW2  904   0.000   1.217   2.846
  294SOL     OW  905   1.726   0.135   2.385
  294SOL    HW1  906   1.799   0.118   2.318
  294SOL    HW2  907   1.695   0.048   2.423
  295SOL     OW  908   1.388   1.573   2.339
  295SOL    HW1  909   1.455   1.585   2.265
  295SOL    HW2  910   1.348   1.662   2.362
  296SOL     OW  911   1.280   0.927   2.534
  296SOL    HW1  912   1.340   0.846   2.536
  296SOL    HW2  913   1.320   0.996   2.474
  297SOL     OW  914   0.672   1.616   2.016
  297SOL    HW1  915   0.681   1.626   1.917
  297SOL    HW2  916   0.632   1.527   2.037
  298SOL     OW  917   1.841   0.175   2.825
  298SOL    HW1  918   1.880   0.090   2.789
  298SOL    HW2  919   1.743   0.177   2.806
  299SOL     OW  920   0.263   0.326   2.582
  299SOL    HW1  921   0.184   0.377   2.548
  299SOL    HW2  922   0.254   0.311   2.680
  300SOL     OW  923   1.194   1.612   1.893
  300SOL    HW1  924   1.200   1.519   1.930
  300SOL    HW2  925   1.135   1.612   1.813
  301SOL     OW  926   0.916   0.910   2.153
  301SOL    HW1  927   0.979   0.948   2.085
  301SOL    HW2  928   0.956   0.827   2.192
  302SOL     OW  929   1.504   1.607   1.906
  302SOL    HW1  930   1.412   1.644   1.913
  302SOL    HW2  931   1.542   1.627   1.816
  303SOL     OW  932   1.039   1.098   2.558
  303SOL    HW1  933   0.969   1.051   2.612
  303SOL    HW2  934   1.098   1.030   2.515
  304SOL     OW  935   1.014   0.236   2.833
  304SOL    HW1  936   1.006   0.200   2.740
  304SOL    HW2  937   1.012   0.160   2.898
  305SOL     OW  938   0.590   1.487   2.353
  305SOL    HW1  939   0.632   1.429   2.283
  305SOL    HW2  940   0.546   1.566   2.309
  306SOL     OW  941   0.255   1.348   2.152
  306SOL    HW1  942   0.159   1.349   2.125
  306SOL    HW2  943   0.267   1.401   2.236
  307SOL     OW  944   0.075   0.345   1.895
  307SOL    HW1  945  -0.017   0.317   1.866
  307SOL    HW2  946   0.106   0.422   1.839
  308SOL     OW  947   0.072   0.166   2.180
  308SOL    HW1  948   0.055   0.249   2.126
  308SOL    HW2  949   0.162   0.129   2.158
  309SOL     OW  950   1.183   1.335   1.981
  309SOL    HW1  951   1.084   1.324   1.983
  309SOL    HW2  952   1.217   1.350   2.074
  310SOL     OW  953   1.674   0.883   3.116
  310SOL    HW1  954   1.647   0.794   3.079
  310SOL    HW2  955   1.675   0.951   3.043
  311SOL     OW  956   1.225   0.325   2.311
  311SOL    HW1  957   1.290   0.251   2.300
  311SOL    HW2  958   1.245   0.375   2.395
  312SOL     OW  959   0.594   0.745   2.514
  312SOL    HW1  960   0.644   0.830   2.495
  312SOL    HW2  961   0.506   0.747   2.466
  313SOL     OW  962   0.859   1.374   1.878
  313SOL    HW1  963   0.813   1.389   1.966
  313SOL    HW2  964   0.903   1.459   1.848
  314SOL     OW  965   0.661   1.790   2.815
  314SOL    HW1  966   0.615   1.878   2.802
  314SOL    HW2  967   0.760   1.802   2.808
  315SOL     OW  968   0.859   0.956   2.723
  315SOL    HW1  969   0.913   0.887   2.771
  315SOL    HW2  970   0.827   1.025   2.789
  316SOL     OW  971   1.083   0.984   1.949
  316SOL    HW1  972   1.060   1.037   1.867
  316SOL    HW2  973   1.164   0.928   1.930
  317SOL     OW  974   1.861   1.569   2.713
  317SOL    HW1  975   1.790   1.557   2.643
  317SOL    HW2  976   1.862   1.490   2.773
  318SOL     OW  977   0.079   1.240   2.515
  318SOL    HW1  978   0.078   1.193   2.603
  318SOL    HW2  979   0.161   1.212   2.464
  319SOL     OW  980   1.824   0.192   3.089
  319SOL    HW1  981   1.820   0.102   3.133
  319SOL    HW2  982   1.827   0.181   2.990
  320SOL     OW  983   0.428   0.424   2.382
  320SOL    HW1  984   0.458   0.352   2.320
  320SOL    HW2  985   0.389   0.384   2.465
  321SOL     OW  986   0.812   1.586   2.549
  321SOL    HW1  987   0.844   1.596   2.455
  321SOL    HW2  988   0.733   1.524   2.551
  322SOL     OW  989   0.770   1.330   2.163
  322SOL    HW1  990   0.724   1.243   2.180
  322SOL    HW2  991   0.861   1.327   2.204
  323SOL     OW  992   1.352   0.052   2.030
  323SOL    HW1  993   1.387   0.011   1.946
  323SOL    HW2  994   1.262   0.014   2.050
  324SOL     OW  995   1.300   0.453   2.553
  324SOL    HW1  996   1.241   0.533   2.557
  324SOL    HW2  997   1.315   0.418   2.646
  325SOL     OW  998   1.593   0.221   2.744
  325SOL    HW1  999   1.509   0.220   2.798
  325SOL    HW2 1000   1.595   0.304   2.688
  326SOL     OW 1001   0.039   1.077   2.162
  326SOL    HW1 1002   0.138   1.066   2.153
  326SOL    HW2 1003  -0.001   0.991   2.194
  327SOL     OW 1004   0.875   1.646   2.199
  327SOL    HW1 1005   0.798   1.611   2.145
  327SOL    HW2 1006   0.843   1.717   2.261
  328SOL     OW 1007   0.230   2.490   0.113
  328SOL    HW1 1008   0.137   2.488   0.150
  328SOL    HW2 1009   0.231   2.451   0.021
  329SOL     OW 1010   0.225   2.137   0.996
  329SOL    HW1 1011   0.260   2.120   1.088
  329SOL    HW2 1012   0.137   2.092   0.984
  330SOL     OW 1013   0.019   2.230   0.647
  330SOL    HW1 1014  -0.063   2.273   0.686
  330SOL    HW2 1015  -0.009   2.157   0.584
  331SOL     OW 1016   1.135   2.565   0.717
  331SOL    HW1 1017   1.192   2.643   0.692
  331SOL    HW2 1018   1.075   2.591   0.793
  332SOL     OW 1019   1.755   2.469   0.231
  332SOL    HW1 1020   1.743   2.456   0.132
  332SOL    HW2 1021   1.725   2.388   0.280
  333SOL     OW 1022   0.768   3.006   1.023
  333SOL    HW1 1023   0.690   3.023   1.083
  333SOL    HW2 1024   0.802   3.093   0.987
  334SOL     OW 1025   0.850   2.660   1.823
  334SOL    HW1 1026   0.846   2.736   1.888
  334SOL    HW2 1027   0.872   2.696   1.732
  335SOL     OW 1028   0.685   2.874   0.665
  335SOL    HW1 1029   0.754   2.858   0.735
  335SOL    HW2 1030   0.612   2.931   0.703
  336SOL     OW 1031   0.438   2.254   1.499
  336SOL    HW1 1032   0.520   2.198   1.508
  336SOL    HW2 1033   0.357   2.196   1.503
  337SOL     OW 1034   1.603   2.309   0.737
  337SOL    HW1 1035   1.529   2.355   0.687
  337SOL    HW2 1036   1.654   2.377   0.790
  338SOL     OW 1037   0.240   2.953   0.886
  338SOL    HW1 1038   0.254   2.869   0.938
  338SOL    HW2 1039   0.185   3.017   0.941
  339SOL     OW 1040   0.606   2.826   0.123
  339SOL    HW1 1041   0.613   2.910   0.069
  339SOL    HW2 1042   0.652   2.839   0.211
  340SOL     OW 1043   1.594   1.976   1.480
  340SOL    HW1 1044   1.576   2.043   1.408
  340SOL    HW2 1045   1.591   2.022   1.569
  341SOL     OW 1046   0.122   2.505   0.563
  341SOL    HW1 1047   0.077   2.417   0.580
  341SOL    HW2 1048   0.121   2.559   0.647
  342SOL     OW 1049   1.689   2.784   0.612
  342SOL    HW1 1050   1.784   2.755   0.620
  342SOL    HW2 1051   1.681   2.849   0.537
  343SOL     OW 1052   0.113   2.599   1.597
  343SOL    HW1 1053   0.201   2.586   1.642
  343SOL    HW2 1054   0.100   2.696   1.575
  344SOL     OW 1055   0.809   1.866   0.502
  344SOL    HW1 1056   0.849   1.957   0.493
  344SOL    HW2 1057   0.709   1.874   0.508
  345SOL     OW 1058   0.197   2.838   1.264
  345SOL    HW1 1059   0.286   2.793   1.250
  345SOL    HW2 1060   0.124   2.773   1.245
  346SOL     OW 1061   1.525   2.861   0.190
  346SOL    HW1 1062   1.462   2.785   0.203
  346SOL    HW2 1063   1.573   2.879   0.276
  347SOL     OW 1064   0.317   2.113   1.801
  347SOL    HW1 1065   0.388   2.184   1.807
  347SOL    HW2 1066   0.229   2.152   1.829
  348SOL     OW 1067   0.598   2.591   0.270
  348SOL    HW1 1068   0.622   2.660   0.202
  348SOL    HW2 1069   0.520   2.624   0.324
  349SOL     OW 1070   1.281   2.207   0.944
  349SOL    HW1 1071   1.195   2.157   0.931
  349SOL    HW2 1072   1.343   2.153   1.000
  350SOL     OW 1073   0.807   2.467   1.465
  350SOL    HW1 1074   0.760   2.464   1.554
  350SOL    HW2 1075   0.756   2.412   1.399
  351SOL     OW 1076   1.394   2.331   1.674
  351SOL    HW1 1077   1.374   2.374   1.762
  351SOL    HW2 1078   1.472   2.269   1.683
  352SOL     OW 1079   0.973   2.752   1.572
  352SOL    HW1 1080   1.019   2.668   1.543
  352SOL    HW2 1081   0.917   2.786   1.497
  353SOL     OW 1082   0.991   2.272   1.242
  353SOL    HW1 1083   0.914   2.306   1.296
  353SOL    HW2 1084   0.957   2.221   1.163
  354SOL     OW 1085   1.041   2.563   0.429
  354SOL    HW1 1086   1.067   2.559   0.525
  354SOL    HW2 1087   0.956   2.512   0.415
  355SOL     OW 1088   0.076   2.673   0.789
  355SOL    HW1 1089   0.175   2.661   0.798
  355SOL    HW2 1090   0.052   2.768   0.810
  356SOL     OW 1091   0.865   2.210   0.195
  356SOL    HW1 1092   0.924   2.273   0.146
  356SOL    HW2 1093   0.884   2.116   0.166
  357SOL     OW 1094   1.719   2.447   1.831
  357SOL    HW1 1095   1.693   2.536   1.795
  357SOL    HW2 1096   1.717   2.379   1.758
  358SOL     OW 1097   0.550   2.058   0.885
  358SOL    HW1 1098   0.545   2.053   0.985
  358SOL    HW2 1099   0.552   2.154   0.856
  359SOL     OW 1100   1.795   2.928   0.873
  359SOL    HW1 1101   1.733   2.913   0.797
  359SOL    HW2 1102   1.743   2.939   0.958
  360SOL     OW 1103   1.458   2.597   0.728
  360SOL    HW1 1104   1.453   2.532   0.803
  360SOL    HW2 1105   1.538   2.656   0.741
  361SOL     OW 1106   0.202   2.147   1.498
  361SOL    HW1 1107   0.122   2.207   1.485
  361SOL    HW2 1108   0.192   2.098   1.584
  362SOL     OW 1109   1.400   1.969   0.426
  362SOL    HW1 1110   1.376   1.932   0.336
  362SOL    HW2 1111   1.499   1.985   0.430
  363SOL     OW 1112   0.382   2.562   0.480
  363SOL    HW1 1113   0.427   2.472   0.477
  363SOL    HW2 1114   0.288   2.551   0.513
  364SOL     OW 1115   1.547   2.084   1.729
  364SOL    HW1 1116   1.542   2.121   1.821
  364SOL    HW2 1117   1.475   2.015   1.717
  365SOL     OW 1118   0.614   1.984   0.117
  365SOL    HW1 1119   0.712   1.962   0.124
  365SOL    HW2 1120   0.583   1.967   0.024
  366SOL     OW 1121   0.781   2.126   1.749
  366SOL    HW1 1122   0.848   2.065   1.792
  366SOL    HW2 1123   0.708   2.145   1.814
  367SOL     OW 1124   1.351   2.452   1.433
  367SOL    HW1 1125   1.379   2.409   1.518
  367SOL    HW2 1126   1.376   2.548   1.434
  368SOL     OW 1127   0.922   2.365   0.899
  368SOL    HW1 1128   0.897   2.356   0.803
  368SOL    HW2 1129   0.970   2.283   0.930
  369SOL     OW 1130   0.539   1.926   0.512
  369SOL    HW1 1131   0.458   1.927   0.570
  369SOL    HW2 1132   0.542   2.009   0.457
  370SOL     OW 1133   0.935   2.098   0.480
  370SOL    HW1 1134   0.887   2.139   0.402
  370SOL    HW2 1135   1.034   2.096   0.461
  371SOL     OW 1136   1.076   2.545   1.464
  371SOL    HW1 1137   0.996   2.484   1.467
  371SOL    HW2 1138   1.157   2.492   1.440
  372SOL     OW 1139   1.032   2.411   0.016
  372SOL    HW1 1140   0.991   2.493  -0.023
  372SOL    HW2 1141   1.096   2.437   0.089
  373SOL     OW 1142   0.078   2.418   1.386
  373SOL    HW1 1143   0.170   2.417   1.345
  373SOL    HW2 1144   0.072   2.492   1.453
  374SOL     OW 1145   0.561   2.084   1.147
  374SOL    HW1 1146   0.599   2.000   1.184
  374SOL    HW2 1147   0.473   2.103   1.191
  375SOL     OW 1148   0.866   2.316   0.642
  375SOL    HW1 1149   0.834   2.388   0.580
  375SOL    HW2 1150   0.890   2.235   0.589
  376SOL     OW 1151   1.017   1.901   0.753
  376SOL    HW1 1152   0.945   1.906   0.684
  376SOL    HW2 1153   0.993   1.832   0.822
  377SOL     OW 1154   1.429   3.035   0.867
  377SOL    HW1 1155   1.374   2.951   0.860
  377SOL    HW2 1156   1.455   3.064   0.775
  378SOL     OW 1157   1.466   2.452   0.992
  378SOL    HW1 1158   1.436   2.357   0.999
  378SOL    HW2 1159   1.539   2.468   1.058
  379SOL     OW 1160   1.857   2.695   0.377
  379SOL    HW1 1161   1.899   2.631   0.441
  379SOL    HW2 1162   1.819   2.644   0.299
  380SOL     OW 1163   1.390   2.437   0.078
  380SOL    HW1 1164   1.336   2.416   0.159
  380SOL    HW2 1165   1.481   2.396   0.087
  381SOL     OW 1166   0.527   2.118   0.328
  381SOL    HW1 1167   0.554   2.059   0.253
  381SOL    HW2 1168   0.527   2.213   0.297
  382SOL     OW 1169   1.638   2.961   1.079
  382SOL    HW1 1170   1.643   3.042   1.138
  382SOL    HW2 1171   1.552   2.963   1.028
  383SOL     OW 1172   0.915   1.951   1.402
  383SOL    HW1 1173   0.940   1.931   1.307
  383SOL    HW2 1174   0.987   2.007   1.444
  384SOL     OW 1175   0.410   2.675   1.251
  384SOL    HW1 1176   0.496   2.687   1.301
  384SOL    HW2 1177   0.368   2.588   1.278
  385SOL     OW 1178   1.274   2.248   1.262
  385SOL    HW1 1179   1.295   2.322   1.326
  385SOL    HW2 1180   1.185   2.265   1.219
  386SOL     OW 1181   0.566   2.399   0.865
  386SOL    HW1 1182   0.578   2.465   0.791
  386SOL    HW2 1183   0.612   2.433   0.948
  387SOL     OW 1184   1.582   2.501   0.472
  387SOL    HW1 1185   1.551   2.562   0.545
  387SOL    HW2 1186   1.632   2.553   0.403
  388SOL     OW 1187   0.402   2.613   1.598
  388SOL    HW1 1188   0.470   2.668   1.551
  388SOL    HW2 1189   0.442   2.525   1.625
  389SOL     OW 1190   1.587   2.641   1.670
  389SOL    HW1 1191   1.495   2.679   1.665
  389SOL    HW2 1192   1.647   2.688   1.605
  390SOL     OW 1193   1.013   1.967   1.770
  390SOL    HW1 1194   1.019   2.052   1.718
  390SOL    HW2 1195   1.045   1.891   1.713
  391SOL     OW 1196   0.504   1.912   1.740
  391SOL    HW1 1197   0.462   1.855   1.670
  391SOL    HW2 1198   0.438   1.981   1.772
  392SOL     OW 1199   0.573   2.732   1.029
  392SOL    HW1 1200   0.617   2.821   1.020
  392SOL    HW2 1201   0.510   2.732   1.106
  393SOL     OW 1202   1.360   2.724   1.045
  393SOL    HW1 1203   1.285   2.724   0.979
  393SOL    HW2 1204   1.397   2.632   1.054
  394SOL     OW 1205   1.209   2.387   0.275
  394SOL    HW1 1206   1.222   2.303   0.329
  394SOL    HW2 1207   1.180   2.461   0.335
  395SOL     OW 1208   0.307   2.075   1.231
  395SOL    HW1 1209   0.284   2.112   1.321
  395SOL    HW2 1210   0.277   1.980   1.225
  396SOL     OW 1211   0.037   3.172   1.282
  396SOL    HW1 1212   0.090   3.123   1.350
  396SOL    HW2 1213   0.059   3.270   1.287
  397SOL     OW 1214   0.732   2.496   1.064
  397SOL    HW1 1215   0.791   2.470   0.988
  397SOL    HW2 1216   0.704   2.592   1.053
  398SOL     OW 1217   1.728   2.797   1.854
  398SOL    HW1 1218   1.682   2.790   1.765
  398SOL    HW2 1219   1.666   2.841   1.920
  399SOL     OW 1220   0.307   1.925   0.618
  399SOL    HW1 1221   0.296   2.019   0.651
  399SOL    HW2 1222   0.302   1.862   0.695
  400SOL     OW 1223   1.622   2.229   0.374
  400SOL    HW1 1224   1.624   2.153   0.438
  400SOL    HW2 1225   1.574   2.306   0.414
  401SOL     OW 1226   1.023   2.628   0.966
  401SOL    HW1 1227   1.038   2.649   1.062
  401SOL    HW2 1228   0.993   2.533   0.957
  402SOL     OW 1229   0.350   2.760   1.804
  402SOL    HW1 1230   0.426   2.804   1.852
  402SOL    HW2 1231   0.385   2.713   1.722
  403SOL     OW 1232   1.540   2.136   0.125
  403SOL    HW1 1233   1.479   2.061   0.148
  403SOL    HW2 1234   1.562   2.188   0.208
  404SOL     OW 1235   1.303   2.700   0.042
  404SOL    HW1 1236   1.337   2.607   0.057
  404SOL    HW2 1237   1.321   2.727  -0.053
  405SOL     OW 1238   0.319   2.672   0.949
  405SOL    HW1 1239   0.412   2.708   0.954
  405SOL    HW2 1240   0.313   2.587   1.001
  406SOL     OW 1241   0.339   2.371   1.006
  406SOL    HW1 1242   0.287   2.288   0.989
  406SOL    HW2 1243   0.416   2.376   0.942
  407SOL     OW 1244   1.138   2.242   1.678
  407SOL    HW1 1245   1.093   2.305   1.742
  407SOL    HW2 1246   1.231   2.273   1.661
  408SOL     OW 1247   1.160   2.069   1.477
  408SOL    HW1 1248   1.160   2.133   1.554
  408SOL    HW2 1249   1.188   2.117   1.394
  409SOL     OW 1250   1.002   2.658   1.238
  409SOL    HW1 1251   1.043   2.626   1.324
  409SOL    HW2 1252   0.906   2.631   1.235
  410SOL     OW 1253   0.040   2.406   1.114
  410SOL    HW1 1254   0.125   2.373   1.073
  410SOL    HW2 1255   0.053   2.421   1.212
  411SOL     OW 1256   0.189   2.382   1.722
  411SOL    HW1 1257   0.248   2.342   1.652
  411SOL    HW2 1258   0.131   2.453   1.681
  412SOL     OW 1259   1.369   2.812   1.660
  412SOL    HW1 1260   1.408   2.901   1.680
  412SOL    HW2 1261   1.379   2.792   1.563
  413SOL     OW 1262   0.815   2.434   0.325
  413SOL    HW1 1263   0.822   2.345   0.279
  413SOL    HW2 1264   0.721   2.468   0.317
  414SOL     OW 1265   1.657   2.466   1.206
  414SOL    HW1 1266   1.619   2.397   1.268
  414SOL    HW2 1267   1.739   2.430   1.162
  415SOL     OW 1268   0.671   2.326   1.269
  415SOL    HW1 1269   0.637   2.237   1.239
  415SOL    HW2 1270   0.697   2.380   1.189
  416SOL     OW 1271   0.473   2.362   0.191
  416SOL    HW1 1272   0.534   2.442   0.195
  416SOL    HW2 1273   0.378   2.393   0.198
  417SOL     OW 1274   0.159   2.999   1.466
  417SOL    HW1 1275   0.181   2.938   1.542
  417SOL    HW2 1276   0.169   2.950   1.380
  418SOL     OW 1277   1.347   2.921   1.234
  418SOL    HW1 1278   1.371   2.858   1.160
  418SOL    HW2 1279   1.257   2.961   1.216
  419SOL     OW 1280   1.302   2.717   0.309
  419SOL    HW1 1281   1.216   2.686   0.351
  419SOL    HW2 1282   1.298   2.703   0.210
  420SOL     OW 1283   0.903   1.948   0.133
  420SOL    HW1 1284   0.954   1.949   0.047
  420SOL    HW2 1285   0.959   1.906   0.204
  421SOL     OW 1286   1.726   1.997   0.523
  421SOL    HW1 1287   1.799   1.980   0.456
  421SOL    HW2 1288   1.695   1.910   0.561
  422SOL     OW 1289   1.280   2.789   0.672
  422SOL    HW1 1290   1.340   2.708   0.674
  422SOL    HW2 1291   1.320   2.858   0.612
  423SOL     OW 1292   1.841   2.037   0.963
  423SOL    HW1 1293   1.880   1.952   0.927
  423SOL    HW2 1294   1.743   2.039   0.944
  424SOL     OW 1295   0.263   2.188   0.720
  424SOL    HW1 1296   0.184   2.239   0.686
  424SOL    HW2 1297   0.254   2.173   0.818
  425SOL     OW 1298   0.916   2.772   0.291
  425SOL    HW1 1299   0.979   2.810   0.223
  425SOL    HW2 1300   0.956   2.689   0.330
  426SOL     OW 1301   1.014   2.098   0.971
  426SOL    HW1 1302   1.006   2.062   0.878
  426SOL    HW2 1303   1.012   2.022   1.036
  427SOL     OW 1304   1.709   2.247   1.381
  427SOL    HW1 1305   1.782   2.316   1.385
  427SOL    HW2 1306   1.737   2.172   1.322
  428SOL     OW 1307   0.105   2.875   1.726
  428SOL    HW1 1308   0.028   2.842   1.780
  428SOL    HW2 1309   0.190   2.845   1.768
  429SOL     OW 1310   0.672   2.065   1.489
  429SOL    HW1 1311   0.762   2.049   1.449
  429SOL    HW2 1312   0.680   2.070   1.588
  430SOL     OW 1313   0.075   2.207   0.033
  430SOL    HW1 1314  -0.017   2.179   0.004
  430SOL    HW2 1315   0.106   2.284  -0.023
  431SOL     OW 1316   1.440   2.718   1.398
  431SOL    HW1 1317   1.383   2.770   1.335
  431SOL    HW2 1318   1.536   2.730   1.374
  432SOL     OW 1319   0.072   2.028   0.318
  432SOL    HW1 1320   0.055   2.111   0.264
  432SOL    HW2 1321   0.162   1.991   0.296
  433SOL     OW 1322   1.183   3.197   0.119
  433SOL    HW1 1323   1.084   3.186   0.121
  433SOL    HW2 1324   1.217   3.212   0.212
  434SOL     OW 1325   0.613   2.704   1.431
  434SOL    HW1 1326   0.669   2.785   1.414
  434SOL    HW2 1327   0.672   2.624   1.434
  435SOL     OW 1328   0.716   2.427   1.708
  435SOL    HW1 1329   0.735   2.492   1.782
  435SOL    HW2 1330   0.776   2.347   1.717
  436SOL     OW 1331   1.674   2.745   1.254
  436SOL    HW1 1332   1.647   2.656   1.217
  436SOL    HW2 1333   1.675   2.813   1.181
  437SOL     OW 1334   1.225   2.187   0.449
  437SOL    HW1 1335   1.290   2.113   0.438
  437SOL    HW2 1336   1.245   2.237   0.533
  438SOL     OW 1337   0.594   2.607   0.652
  438SOL    HW1 1338   0.644   2.692   0.633
  438SOL    HW2 1339   0.506   2.609   0.604
  439SOL     OW 1340   1.777   2.204   1.642
  439SOL    HW1 1341   1.760   2.235   1.548
  439SOL    HW2 1342   1.693   2.167   1.680
  440SOL     OW 1343   1.730   2.796   1.517
  440SOL    HW1 1344   1.768   2.887   1.532
  440SOL    HW2 1345   1.722   2.779   1.418
  441SOL     OW 1346   0.859   2.818   0.861
  441SOL    HW1 1347   0.913   2.749   0.909
  441SOL    HW2 1348   0.827   2.887   0.927
  442SOL     OW 1349   1.083   2.846   0.087
  442SOL    HW1 1350   1.060   2.899   0.005
  442SOL    HW2 1351   1.164   2.790   0.068
  443SOL     OW 1352   0.079   3.102   0.653
  443SOL    HW1 1353   0.078   3.055   0.741
  443SOL    HW2 1354   0.161   3.074   0.602
  444SOL     OW 1355   1.824   2.054   1.227
  444SOL    HW1 1356   1.820   1.964   1.271
  444SOL    HW2 1357   1.827   2.043   1.128
  445SOL     OW 1358   0.428   2.286   0.520
  445SOL    HW1 1359   0.458   2.214   0.458
  445SOL    HW2 1360   0.389   2.246   0.603
  446SOL     OW 1361   0.317   2.409   1.280
  446SOL    HW1 1362   0.355   2.350   1.352
  446SOL    HW2 1363   0.357   2.383   1.192
  447SOL     OW 1364   1.424   2.076   1.112
  447SOL    HW1 1365   1.476   2.011   1.167
  447SOL    HW2 1366   1.375   2.139   1.173
  448SOL     OW 1367   1.001   1.896   1.154
  448SOL    HW1 1368   0.938   1.824   1.123
  448SOL    HW2 1369   1.094   1.860   1.154
  449SOL     OW 1370   1.352   1.914   0.168
  449SOL    HW1 1371   1.387   1.873   0.084
  449SOL    HW2 1372   1.262   1.876   0.188
  450SOL     OW 1373   1.300   2.315   0.691
  450SOL    HW1 1374   1.241   2.395   0.695
  450SOL    HW2 1375   1.315   2.280   0.784
  451SOL     OW 1376   1.593   2.083   0.882
  451SOL    HW1 1377   1.509   2.082   0.936
  451SOL    HW2 1378   1.595   2.166   0.826
  452SOL     OW 1379   0.039   2.939   0.300
  452SOL    HW1 1380   0.138   2.928   0.291
  452SOL    HW2 1381  -0.001   2.853   0.332
  453SOL     OW 1382   0.230   2.490   1.975
  453SOL    HW1 1383   0.137   2.488   2.012
  453SOL    HW2 1384   0.231   2.451   1.883
  454SOL     OW 1385   0.225   2.137   2.858
  454SOL    HW1 1386   0.260   2.120   2.950
  454SOL    HW2 1387   0.137   2.092   2.846
  455SOL     OW 1388   0.019   2.230   2.509
  455SOL    HW1 1389  -0.063   2.273   2.548
  455SOL    HW2 1390  -0.009   2.157   2.446
  456SOL     OW 1391   1.135   2.565   2.579
  456SOL    HW1 1392   1.192   2.643   2.554
  456SOL    HW2 1393   1.075   2.591   2.655
  457SOL     OW 1394   1.755   2.469   2.093
  457SOL    HW1 1395   1.743   2.456   1.994
  457SOL    HW2 1396   1.725   2.388   2.142
  458SOL     OW 1397   0.685   2.874   2.527
  458SOL    HW1 1398   0.754   2.858   2.597
  458SOL    HW2 1399   0.612   2.931   2.565
  459SOL     OW 1400   1.603   2.309   2.599
  459SOL    HW1 1401   1.529   2.355   2.549
  459SOL    HW2 1402   1.654   2.377   2.652
  460SOL     OW 1403   0.240   2.953   2.748
  460SOL    HW1 1404   0.254   2.869   2.800
  460SOL    HW2 1405   0.185   3.017   2.803
  461SOL     OW 1406   0.606   2.826   1.985
  461SOL    HW1 1407   0.613   2.910   1.931
  461SOL    HW2 1408   0.652   2.839   2.073
  462SOL     OW 1409   0.122   2.505   2.425
  462SOL    HW1 1410   0.077   2.417   2.442
  462SOL    HW2 1411   0.121   2.559   2.509
  463SOL     OW 1412   1.689   2.784   2.474
  463SOL    HW1 1413   1.784   2.755   2.482
  463SOL    HW2 1414   1.681   2.849   2.399
  464SOL     OW 1415   0.809   1.866   2.364
  464SOL    HW1 1416   0.849   1.957   2.355
  464SOL    HW2 1417   0.709   1.874   2.370
  465SOL     OW 1418   0.197   2.838   3.126
  465SOL    HW1 1419   0.286   2.793   3.112
  465SOL    HW2 1420   0.124   2.773   3.107
  466SOL     OW 1421   1.525   2.861   2.052
  466SOL    HW1 1422   1.462   2.785   2.065
  466SOL    HW2 1423   1.573   2.879   2.138
  467SOL     OW 1424   0.598   2.591   2.132
  467SOL    HW1 1425   0.622   2.660   2.064
  467SOL    HW2 1426   0.520   2.624   2.186
  468SOL     OW 1427   1.281   2.207   2.806
  468SOL    HW1 1428   1.195   2.157   2.793
  468SOL    HW2 1429   1.343   2.153   2.862
  469SOL     OW 1430   1.041   2.563   2.291
  469SOL    HW1 1431   1.067   2.559   2.387
  469SOL    HW2 1432   0.956   2.512   2.277
  470SOL     OW 1433   0.076   2.673   2.651
  470SOL    HW1 1434   0.175   2.661   2.660
  470SOL    HW2 1435   0.052   2.768   2.672
  471SOL     OW 1436   0.865   2.210   2.057
  471SOL    HW1 1437   0.924   2.273   2.008
  471SOL    HW2 1438   0.884   2.116   2.028
  472SOL     OW 1439   0.550   2.058   2.747
  472SOL    HW1 1440   0.545   2.053   2.847
  472SOL    HW2 1441   0.552   2.154   2.718
  473SOL     OW 1442   1.795   2.928   2.735
  473SOL    HW1 1443   1.733   2.913   2.659
  473SOL    HW2 1444   1.743   2.939   2.820
  474SOL     OW 1445   1.458   2.597   2.590
  474SOL    HW1 1446   1.453   2.532   2.665
  474SOL    HW2 1447   1.538   2.656   2.603
  475SOL     OW 1448   1.400   1.969   2.288
  475SOL    HW1 1449   1.376   1.932   2.198
  475SOL    HW2 1450   1.499   1.985   2.292
  476SOL     OW 1451   0.382   2.562   2.342
  476SOL    HW1 1452   0.427   2.472   2.339
  476SOL    HW2 1453   0.288   2.551   2.375
  477SOL     OW 1454   0.614   1.984   1.979
  477SOL    HW1 1455   0.712   1.962   1.986
  477SOL    HW2 1456   0.583   1.967   1.886
  478SOL     OW 1457   0.922   2.365   2.761
  478SOL    HW1 1458   0.897   2.356   2.665
  478SOL    HW2 1459   0.970   2.283   2.792
  479SOL     OW 1460   0.539   1.926   2.374
  479SOL    HW1 1461   0.458   1.927   2.432
  479SOL    HW2 1462   0.542   2.009   2.319
  480SOL     OW 1463   0.297   1.897   2.033
  480SOL    HW1 1464   0.346   1.981   2.012
  480SOL    HW2 1465   0.359   1.832   2.078
  481SOL     OW 1466   0.935   2.098   2.342
  481SOL    HW1 1467   0.887   2.139   2.264
  481SOL    HW2 1468   1.034   2.096   2.323
  482SOL     OW 1469   1.032   2.411   1.878
  482SOL    HW1 1470   0.991   2.493   1.839
  482SOL    HW2 1471   1.096   2.437   1.951
  483SOL     OW 1472   0.866   2.316   2.504
  483SOL    HW1 1473   0.834   2.388   2.442
  483SOL    HW2 1474   0.890   2.235   2.451
  484SOL     OW 1475   1.017   1.901   2.615
  484SOL    HW1 1476   0.945   1.906   2.546
  484SOL    HW2 1477   0.993   1.832   2.684
  485SOL     OW 1478   1.429   3.035   2.729
  485SOL    HW1 1479   1.374   2.951   2.722
  485SOL    HW2 1480   1.455   3.064   2.637
  486SOL     OW 1481   1.466   2.452   2.854
  486SOL    HW1 1482   1.436   2.357   2.861
  486SOL    HW2 1483   1.539   2.468   2.920
  487SOL     OW 1484   1.857   2.695   2.239
  487SOL    HW1 1485   1.899   2.631   2.303
  487SOL    HW2 1486   1.819   2.644   2.161
  488SOL     OW 1487   1.390   2.437   1.940
  488SOL    HW1 1488   1.336   2.416   2.021
  488SOL    HW2 1489   1.481   2.396   1.949
  489SOL     OW 1490   0.527   2.118   2.190
  489SOL    HW1 1491   0.554   2.059   2.115
  489SOL    HW2 1492   0.527   2.213   2.159
  490SOL     OW 1493   1.638   2.961   2.941
  490SOL    HW1 1494   1.643   3.042   3.000
  490SOL    HW2 1495   1.552   2.963   2.890
  491SOL     OW 1496   0.566   2.399   2.727
  491SOL    HW1 1497   0.578   2.465   2.653
  491SOL    HW2 1498   0.612   2.433   2.810
  492SOL     OW 1499   1.582   2.501   2.334
  492SOL    HW1 1500   1.551   2.562   2.407
  492SOL    HW2 1501   1.632   2.553   2.265
  493SOL     OW 1502   0.573   2.732   2.891
  493SOL    HW1 1503   0.617   2.821   2.882
  493SOL    HW2 1504   0.510   2.732   2.968
  494SOL     OW 1505   1.209   2.387   2.137
  494SOL    HW1 1506   1.222   2.303   2.191
  494SOL    HW2 1507   1.180   2.461   2.197
  495SOL     OW 1508   0.307   2.075   3.093
  495SOL    HW1 1509   0.284   2.112   3.183
  495SOL    HW2 1510   0.277   1.980   3.087
  496SOL     OW 1511   0.732   2.496   2.926
  496SOL    HW1 1512   0.791   2.470   2.850
  496SOL    HW2 1513   0.704   2.592   2.915
  497SOL     OW 1514   0.307   1.925   2.480
  497SOL    HW1 1515   0.296   2.019   2.513
  497SOL    HW2 1516   0.302   1.862   2.557
  498SOL     OW 1517   1.622   2.229   2.236
  498SOL    HW1 1518   1.624   2.153   2.300
  498SOL    HW2 1519   1.574   2.306   2.276
  499SOL     OW 1520   1.540   2.136   1.987
  499SOL    HW1 1521   1.479   2.061   2.010
  499SOL    HW2 1522   1.562   2.188   2.070
  500SOL     OW 1523   1.303   2.700   1.904
  500SOL    HW1 1524   1.337   2.607   1.919
  500SOL    HW2 1525   1.321   2.727   1.809
  501SOL     OW 1526   0.319   2.672   2.811
  501SOL    HW1 1527   0.412   2.708   2.816
  501SOL    HW2 1528   0.313   2.587   2.863
  502SOL     OW 1529   0.339   2.371   2.868
  502SOL    HW1 1530   0.287   2.288   2.851
  502SOL    HW2 1531   0.416   2.376   2.804
  503SOL     OW 1532   1.002   2.658   3.100
  503SOL    HW1 1533   1.043   2.626   3.186
  503SOL    HW2 1534   0.906   2.631   3.097
  504SOL     OW 1535   0.815   2.434   2.187
  504SOL    HW1 1536   0.822   2.345   2.141
  504SOL    HW2 1537   0.721   2.468   2.179
  505SOL     OW 1538   0.671   2.326   3.131
  505SOL    HW1 1539   0.637   2.237   3.101
  505SOL    HW2 1540   0.697   2.380   3.051
  506SOL     OW 1541   0.473   2.362   2.053
  506SOL    HW1 1542   0.534   2.442   2.057
  506SOL    HW2 1543   0.378   2.393   2.060
  507SOL     OW 1544   1.302   2.717   2.171
  507SOL    HW1 1545   1.216   2.686   2.213
  507SOL    HW2 1546   1.298   2.703   2.072
  508SOL     OW 1547   1.726   1.997   2.385
  508SOL    HW1 1548   1.799   1.980   2.318
  508SOL    HW2 1549   1.695   1.910   2.423
  509SOL     OW 1550   1.280   2.789   2.534
  509SOL    HW1 1551   1.340   2.708   2.536
  509SOL    HW2 1552   1.320   2.858   2.474
  510SOL     OW 1553   1.841   2.037   2.825
  510SOL    HW1 1554   1.880   1.952   2.789
  510SOL    HW2 1555   1.743   2.039   2.806
  511SOL     OW 1556   0.263   2.188   2.582
  511SOL    HW1 1557   0.184   2.239   2.548
  511SOL    HW2 1558   0.254   2.173   2.680
  512SOL     OW 1559   0.916   2.772   2.153
  512SOL    HW1 1560   0.979   2.810   2.085
  512SOL    HW2 1561   0.956   2.689   2.192
  513SOL     OW 1562   1.014   2.098   2.833
  513SOL    HW1 1563   1.006   2.062   2.740
  513SOL    HW2 1564   1.012   2.022   2.898
  514SOL     OW 1565   0.075   2.207   1.895
  514SOL    HW1 1566  -0.017   2.179   1.866
  514SOL    HW2 1567   0.106   2.284   1.839
  515SOL     OW 1568   0.072   2.028   2.180
  515SOL    HW1 1569   0.055   2.111   2.126
  515SOL    HW2 1570   0.162   1.991   2.158
  516SOL     OW 1571   1.183   3.197   1.981
  516SOL    HW1 1572   1.084   3.186   1.983
  516SOL    HW2 1573   1.217   3.212   2.074
  517SOL     OW 1574   1.674   2.745   3.116
  517SOL    HW1 1575   1.647   2.656   3.079
  517SOL    HW2 1576   1.675   2.813   3.043
  518SOL     OW 1577   1.225   2.187   2.311
  518SOL    HW1 1578   1.290   2.113   2.300
  518SOL    HW2 1579   1.245   2.237   2.395
  519SOL     OW 1580   0.594   2.607   2.514
  519SOL    HW1 1581   0.644   2.692   2.495
  519SOL    HW2 1582   0.506   2.609   2.466
  520SOL     OW 1583   0.859   2.818   2.723
  520SOL    HW1 1584   0.913   2.749   2.771
  520SOL    HW2 1585   0.827   2.887   2.789
  521SOL     OW 1586   1.083   2.846   1.949
  521SOL    HW1 1587   1.060   2.899   1.867
  521SOL    HW2 1588   1.164   2.790   1.930
  522SOL     OW 1589   0.079   3.102   2.515
  522SOL    HW1 1590   0.078   3.055   2.603
  522SOL    HW2 1591   0.161   3.074   2.464
  523SOL     OW 1592   1.824   2.054   3.089
  523SOL    HW1 1593   1.820   1.964   3.133
  523SOL    HW2 1594   1.827   2.043   2.990
  524SOL     OW 1595   0.428   2.286   2.382
  524SOL    HW1 1596   0.458   2.214   2.320
  524SOL    HW2 1597   0.389   2.246   2.465
  525SOL     OW 1598   1.352   1.914   2.030
  525SOL    HW1 1599   1.387   1.873   1.946
  525SOL    HW2 1600   1.262   1.876   2.050
  526SOL     OW 1601   1.300   2.315   2.553
  526SOL    HW1 1602   1.241   2.395   2.557
  526SOL    HW2 1603   1.315   2.280   2.646
  527SOL     OW 1604   1.593   2.083   2.744
  527SOL    HW1 1605   1.509   2.082   2.798
  527SOL    HW2 1606   1.595   2.166   2.688
  528SOL     OW 1607   0.039   2.939   2.162
  528SOL    HW1 1608   0.138   2.928   2.153
  528SOL    HW2 1609  -0.001   2.853   2.194
  529SOL     OW 1610   2.092   0.628   0.113
  529SOL    HW1 1611   1.999   0.626   0.150
  529SOL    HW2 1612   2.093   0.589   0.021
  530SOL     OW 1613   2.087   0.275   0.996
  530SOL    HW1 1614   2.122   0.258   1.088
  530SOL    HW2 1615   1.999   0.230   0.984
  531SOL     OW 1616   1.881   0.368   0.647
  531SOL    HW1 1617   1.799   0.411   0.686
  531SOL    HW2 1618   1.853   0.295   0.584
  532SOL     OW 1619   2.431   1.275   1.165
  532SOL    HW1 1620   2.338   1.268   1.128
  532SOL    HW2 1621   2.442   1.364   1.209
  533SOL     OW 1622   2.630   1.144   1.023
  533SOL    HW1 1623   2.552   1.161   1.083
  533SOL    HW2 1624   2.664   1.231   0.987
  534SOL     OW 1625   2.712   0.798   1.823
  534SOL    HW1 1626   2.708   0.874   1.888
  534SOL    HW2 1627   2.734   0.834   1.732
  535SOL     OW 1628   2.547   1.012   0.665
  535SOL    HW1 1629   2.616   0.996   0.735
  535SOL    HW2 1630   2.474   1.069   0.703
  536SOL     OW 1631   2.548   1.161   1.803
  536SOL    HW1 1632   2.608   1.240   1.817
  536SOL    HW2 1633   2.462   1.192   1.762
  537SOL     OW 1634   2.197   1.435   1.061
  537SOL    HW1 1635   2.119   1.404   1.008
  537SOL    HW2 1636   2.255   1.493   1.004
  538SOL     OW 1637   2.300   0.392   1.499
  538SOL    HW1 1638   2.382   0.336   1.508
  538SOL    HW2 1639   2.219   0.334   1.503
  539SOL     OW 1640   2.093   1.713   0.483
  539SOL    HW1 1641   2.127   1.790   0.537
  539SOL    HW2 1642   2.137   1.713   0.393
  540SOL     OW 1643   2.092   1.434   0.538
  540SOL    HW1 1644   2.066   1.530   0.538
  540SOL    HW2 1645   2.021   1.380   0.583
  541SOL     OW 1646   2.102   1.091   0.886
  541SOL    HW1 1647   2.116   1.007   0.938
  541SOL    HW2 1648   2.047   1.155   0.941
  542SOL     OW 1649   2.482   1.786   1.439
  542SOL    HW1 1650   2.390   1.769   1.474
  542SOL    HW2 1651   2.510   1.878   1.465
  543SOL     OW 1652   2.468   0.964   0.123
  543SOL    HW1 1653   2.475   1.048   0.069
  543SOL    HW2 1654   2.514   0.977   0.211
  544SOL     OW 1655   1.984   0.643   0.563
  544SOL    HW1 1656   1.939   0.555   0.580
  544SOL    HW2 1657   1.983   0.697   0.647
  545SOL     OW 1658   1.889   1.596   0.117
  545SOL    HW1 1659   1.870   1.500   0.138
  545SOL    HW2 1660   1.856   1.654   0.192
  546SOL     OW 1661   1.975   0.737   1.597
  546SOL    HW1 1662   2.063   0.724   1.642
  546SOL    HW2 1663   1.962   0.834   1.575
  547SOL     OW 1664   2.475   1.365   0.726
  547SOL    HW1 1665   2.426   1.278   0.735
  547SOL    HW2 1666   2.452   1.408   0.639
  548SOL     OW 1667   2.671   0.004   0.502
  548SOL    HW1 1668   2.711   0.095   0.493
  548SOL    HW2 1669   2.571   0.012   0.508
  549SOL     OW 1670   2.059   0.976   1.264
  549SOL    HW1 1671   2.148   0.931   1.250
  549SOL    HW2 1672   1.986   0.911   1.245
  550SOL     OW 1673   2.179   0.251   1.801
  550SOL    HW1 1674   2.250   0.322   1.807
  550SOL    HW2 1675   2.091   0.290   1.829
  551SOL     OW 1676   2.460   0.729   0.270
  551SOL    HW1 1677   2.484   0.798   0.202
  551SOL    HW2 1678   2.382   0.762   0.324
  552SOL     OW 1679   2.669   0.605   1.465
  552SOL    HW1 1680   2.622   0.602   1.554
  552SOL    HW2 1681   2.618   0.550   1.399
  553SOL     OW 1682   2.835   0.890   1.572
  553SOL    HW1 1683   2.881   0.806   1.543
  553SOL    HW2 1684   2.779   0.924   1.497
  554SOL     OW 1685   2.853   0.410   1.242
  554SOL    HW1 1686   2.776   0.444   1.296
  554SOL    HW2 1687   2.819   0.359   1.163
  555SOL     OW 1688   2.903   0.701   0.429
  555SOL    HW1 1689   2.929   0.697   0.525
  555SOL    HW2 1690   2.818   0.650   0.415
  556SOL     OW 1691   1.938   0.811   0.789
  556SOL    HW1 1692   2.037   0.799   0.798
  556SOL    HW2 1693   1.914   0.906   0.810
  557SOL     OW 1694   1.992   1.821   1.571
  557SOL    HW1 1695   1.982   1.806   1.670
  557SOL    HW2 1696   1.906   1.857   1.535
  558SOL     OW 1697   2.727   0.348   0.195
  558SOL    HW1 1698   2.786   0.411   0.146
  558SOL    HW2 1699   2.746   0.254   0.166
  559SOL     OW 1700   2.412   0.196   0.885
  559SOL    HW1 1701   2.407   0.191   0.985
  559SOL    HW2 1702   2.414   0.292   0.856
  560SOL     OW 1703   2.870   1.456   0.477
  560SOL    HW1 1704   2.824   1.528   0.425
  560SOL    HW2 1705   2.866   1.476   0.575
  561SOL     OW 1706   2.213   1.801   0.853
  561SOL    HW1 1707   2.263   1.715   0.859
  561SOL    HW2 1708   2.278   1.878   0.850
  562SOL     OW 1709   2.183   0.943   0.242
  562SOL    HW1 1710   2.265   0.982   0.200
  562SOL    HW2 1711   2.156   0.861   0.193
  563SOL     OW 1712   2.323   1.266   1.727
  563SOL    HW1 1713   2.273   1.267   1.641
  563SOL    HW2 1714   2.260   1.248   1.803
  564SOL     OW 1715   2.064   0.285   1.498
  564SOL    HW1 1716   1.984   0.345   1.485
  564SOL    HW2 1717   2.054   0.236   1.584
  565SOL     OW 1718   2.326   1.743   0.323
  565SOL    HW1 1719   2.359   1.782   0.409
  565SOL    HW2 1720   2.402   1.736   0.258
  566SOL     OW 1721   2.111   1.785   1.241
  566SOL    HW1 1722   2.168   1.720   1.291
  566SOL    HW2 1723   2.095   1.752   1.148
  567SOL     OW 1724   2.802   1.698   0.904
  567SOL    HW1 1725   2.882   1.641   0.925
  567SOL    HW2 1726   2.753   1.658   0.827
  568SOL     OW 1727   2.244   0.700   0.480
  568SOL    HW1 1728   2.289   0.610   0.477
  568SOL    HW2 1729   2.150   0.689   0.513
  569SOL     OW 1730   2.476   0.122   0.117
  569SOL    HW1 1731   2.574   0.100   0.124
  569SOL    HW2 1732   2.445   0.105   0.024
  570SOL     OW 1733   2.643   0.264   1.749
  570SOL    HW1 1734   2.710   0.203   1.792
  570SOL    HW2 1735   2.570   0.283   1.814
  571SOL     OW 1736   2.750   1.514   1.195
  571SOL    HW1 1737   2.727   1.489   1.101
  571SOL    HW2 1738   2.811   1.445   1.234
  572SOL     OW 1739   2.665   1.402   0.924
  572SOL    HW1 1740   2.755   1.416   0.882
  572SOL    HW2 1741   2.594   1.404   0.853
  573SOL     OW 1742   2.784   0.503   0.899
  573SOL    HW1 1743   2.759   0.494   0.803
  573SOL    HW2 1744   2.832   0.421   0.930
  574SOL     OW 1745   2.401   0.064   0.512
  574SOL    HW1 1746   2.320   0.065   0.570
  574SOL    HW2 1747   2.404   0.147   0.457
  575SOL     OW 1748   3.296   1.188   0.041
  575SOL    HW1 1749   3.328   1.112   0.098
  575SOL    HW2 1750   3.204   1.215   0.071
  576SOL     OW 1751   2.159   0.035   0.171
  576SOL    HW1 1752   2.208   0.119   0.150
  576SOL    HW2 1753   2.221  -0.030   0.216
  577SOL     OW 1754   2.797   0.236   0.480
  577SOL    HW1 1755   2.749   0.277   0.402
  577SOL    HW2 1756   2.896   0.234   0.461
  578SOL     OW 1757   3.089   1.570   0.793
  578SOL    HW1 1758   3.110   1.644   0.728
  578SOL    HW2 1759   3.157   1.570   0.866
  579SOL     OW 1760   2.321   1.152   0.741
  579SOL    HW1 1761   2.250   1.125   0.806
  579SOL    HW2 1762   2.295   1.124   0.648
  580SOL     OW 1763   2.894   0.549   0.016
  580SOL    HW1 1764   2.853   0.631  -0.023
  580SOL    HW2 1765   2.958   0.575   0.089
  581SOL     OW 1766   1.940   0.556   1.386
  581SOL    HW1 1767   2.032   0.555   1.345
  581SOL    HW2 1768   1.934   0.630   1.453
  582SOL     OW 1769   2.423   0.222   1.147
  582SOL    HW1 1770   2.461   0.138   1.184
  582SOL    HW2 1771   2.335   0.241   1.191
  583SOL     OW 1772   2.728   0.454   0.642
  583SOL    HW1 1773   2.696   0.526   0.580
  583SOL    HW2 1774   2.752   0.373   0.589
  584SOL     OW 1775   2.879   0.039   0.753
  584SOL    HW1 1776   2.807   0.044   0.684
  584SOL    HW2 1777   2.855  -0.030   0.822
  585SOL     OW 1778   2.350   1.385   0.174
  585SOL    HW1 1779   2.263   1.370   0.221
  585SOL    HW2 1780   2.333   1.411   0.079
  586SOL     OW 1781   2.389   0.256   0.328
  586SOL    HW1 1782   2.416   0.197   0.253
  586SOL    HW2 1783   2.389   0.351   0.297
  587SOL     OW 1784   2.777   0.089   1.402
  587SOL    HW1 1785   2.802   0.069   1.307
  587SOL    HW2 1786   2.849   0.145   1.444
  588SOL     OW 1787   2.842   1.116   1.719
  588SOL    HW1 1788   2.743   1.122   1.729
  588SOL    HW2 1789   2.865   1.036   1.663
  589SOL     OW 1790   2.567   1.050   0.368
  589SOL    HW1 1791   2.553   1.057   0.467
  589SOL    HW2 1792   2.651   0.999   0.350
  590SOL     OW 1793   2.272   0.813   1.251
  590SOL    HW1 1794   2.358   0.825   1.301
  590SOL    HW2 1795   2.230   0.726   1.278
  591SOL     OW 1796   1.926   1.564   1.331
  591SOL    HW1 1797   1.880   1.646   1.297
  591SOL    HW2 1798   2.024   1.583   1.340
  592SOL     OW 1799   2.229   1.100   0.501
  592SOL    HW1 1800   2.222   1.183   0.445
  592SOL    HW2 1801   2.233   1.020   0.441
  593SOL     OW 1802   2.428   0.537   0.865
  593SOL    HW1 1803   2.440   0.603   0.791
  593SOL    HW2 1804   2.474   0.571   0.948
  594SOL     OW 1805   2.216   1.510   1.329
  594SOL    HW1 1806   2.195   1.466   1.242
  594SOL    HW2 1807   2.313   1.536   1.332
  595SOL     OW 1808   2.264   0.751   1.598
  595SOL    HW1 1809   2.332   0.806   1.551
  595SOL    HW2 1810   2.304   0.663   1.625
  596SOL     OW 1811   2.875   0.105   1.770
  596SOL    HW1 1812   2.881   0.190   1.718
  596SOL    HW2 1813   2.907   0.029   1.713
  597SOL     OW 1814   2.366   0.050   1.740
  597SOL    HW1 1815   2.324  -0.007   1.670
  597SOL    HW2 1816   2.300   0.119   1.772
  598SOL     OW 1817   2.435   0.870   1.029
  598SOL    HW1 1818   2.479   0.959   1.020
  598SOL    HW2 1819   2.372   0.870   1.106
  599SOL     OW 1820   3.071   0.525   0.275
  599SOL    HW1 1821   3.084   0.441   0.329
  599SOL    HW2 1822   3.042   0.599   0.335
  600SOL     OW 1823   2.169   0.213   1.231
  600SOL    HW1 1824   2.146   0.250   1.321
  600SOL    HW2 1825   2.139   0.118   1.225
  601SOL     OW 1826   1.899   1.310   1.282
  601SOL    HW1 1827   1.952   1.261   1.350
  601SOL    HW2 1828   1.921   1.408   1.287
  602SOL     OW 1829   2.594   0.634   1.064
  602SOL    HW1 1830   2.653   0.608   0.988
  602SOL    HW2 1831   2.566   0.730   1.053
  603SOL     OW 1832   2.169   0.063   0.618
  603SOL    HW1 1833   2.158   0.157   0.651
  603SOL    HW2 1834   2.164   0.000   0.695
  604SOL     OW 1835   2.885   0.766   0.966
  604SOL    HW1 1836   2.900   0.787   1.062
  604SOL    HW2 1837   2.855   0.671   0.957
  605SOL     OW 1838   2.842   1.573   1.700
  605SOL    HW1 1839   2.822   1.617   1.612
  605SOL    HW2 1840   2.881   1.482   1.684
  606SOL     OW 1841   2.212   0.898   1.804
  606SOL    HW1 1842   2.288   0.942   1.852
  606SOL    HW2 1843   2.247   0.851   1.722
  607SOL     OW 1844   2.181   0.810   0.949
  607SOL    HW1 1845   2.274   0.846   0.954
  607SOL    HW2 1846   2.175   0.725   1.001
  608SOL     OW 1847   2.201   0.509   1.006
  608SOL    HW1 1848   2.149   0.426   0.989
  608SOL    HW2 1849   2.278   0.514   0.942
  609SOL     OW 1850   1.870   1.326   0.200
  609SOL    HW1 1851   1.777   1.347   0.169
  609SOL    HW2 1852   1.880   1.227   0.213
  610SOL     OW 1853   1.950   1.801   0.927
  610SOL    HW1 1854   1.908   1.715   0.900
  610SOL    HW2 1855   2.044   1.804   0.893
  611SOL     OW 1856   2.366   1.568   0.910
  611SOL    HW1 1857   2.432   1.642   0.919
  611SOL    HW2 1858   2.410   1.489   0.868
  612SOL     OW 1859   2.864   0.796   1.238
  612SOL    HW1 1860   2.905   0.764   1.324
  612SOL    HW2 1861   2.768   0.769   1.235
  613SOL     OW 1862   1.902   0.544   1.114
  613SOL    HW1 1863   1.987   0.511   1.073
  613SOL    HW2 1864   1.915   0.559   1.212
  614SOL     OW 1865   2.051   0.520   1.722
  614SOL    HW1 1866   2.110   0.480   1.652
  614SOL    HW2 1867   1.993   0.591   1.681
  615SOL     OW 1868   2.677   0.572   0.325
  615SOL    HW1 1869   2.684   0.483   0.279
  615SOL    HW2 1870   2.583   0.606   0.317
  616SOL     OW 1871   2.114   1.564   1.744
  616SOL    HW1 1872   2.084   1.621   1.820
  616SOL    HW2 1873   2.107   1.467   1.770
  617SOL     OW 1874   2.533   0.464   1.269
  617SOL    HW1 1875   2.499   0.375   1.239
  617SOL    HW2 1876   2.559   0.518   1.189
  618SOL     OW 1877   2.792   1.678   1.465
  618SOL    HW1 1878   2.768   1.660   1.370
  618SOL    HW2 1879   2.822   1.772   1.475
  619SOL     OW 1880   2.335   0.500   0.191
  619SOL    HW1 1881   2.396   0.580   0.195
  619SOL    HW2 1882   2.240   0.531   0.198
  620SOL     OW 1883   2.021   1.137   1.466
  620SOL    HW1 1884   2.043   1.076   1.542
  620SOL    HW2 1885   2.031   1.088   1.380
  621SOL     OW 1886   1.945   1.258   1.022
  621SOL    HW1 1887   1.940   1.257   1.122
  621SOL    HW2 1888   1.862   1.217   0.984
  622SOL     OW 1889   2.550   1.662   1.716
  622SOL    HW1 1890   2.494   1.743   1.725
  622SOL    HW2 1891   2.602   1.666   1.630
  623SOL     OW 1892   2.765   0.086   0.133
  623SOL    HW1 1893   2.816   0.087   0.047
  623SOL    HW2 1894   2.821   0.044   0.204
  624SOL     OW 1895   1.992   1.794   1.851
  624SOL    HW1 1896   1.951   1.720   1.904
  624SOL    HW2 1897   2.056   1.845   1.909
  625SOL     OW 1898   3.142   0.927   0.672
  625SOL    HW1 1899   3.202   0.846   0.674
  625SOL    HW2 1900   3.182   0.996   0.612
  626SOL     OW 1901   2.692   1.273   1.422
  626SOL    HW1 1902   2.687   1.306   1.517
  626SOL    HW2 1903   2.606   1.292   1.376
  627SOL     OW 1904   2.534   1.616   0.154
  627SOL    HW1 1905   2.543   1.626   0.055
  627SOL    HW2 1906   2.494   1.527   0.175
  628SOL     OW 1907   2.125   0.326   0.720
  628SOL    HW1 1908   2.046   0.377   0.686
  628SOL    HW2 1909   2.116   0.311   0.818
  629SOL     OW 1910   2.684   1.002   1.372
  629SOL    HW1 1911   2.724   1.001   1.280
  629SOL    HW2 1912   2.694   1.094   1.412
  630SOL     OW 1913   2.778   0.910   0.291
  630SOL    HW1 1914   2.841   0.948   0.223
  630SOL    HW2 1915   2.818   0.827   0.330
  631SOL     OW 1916   2.234   1.288   1.490
  631SOL    HW1 1917   2.221   1.381   1.456
  631SOL    HW2 1918   2.150   1.236   1.477
  632SOL     OW 1919   2.901   1.098   0.696
  632SOL    HW1 1920   2.831   1.051   0.750
  632SOL    HW2 1921   2.960   1.030   0.653
  633SOL     OW 1922   2.876   0.236   0.971
  633SOL    HW1 1923   2.868   0.200   0.878
  633SOL    HW2 1924   2.874   0.160   1.036
  634SOL     OW 1925   2.452   1.487   0.491
  634SOL    HW1 1926   2.494   1.429   0.421
  634SOL    HW2 1927   2.408   1.566   0.447
  635SOL     OW 1928   2.117   1.348   0.290
  635SOL    HW1 1929   2.021   1.349   0.263
  635SOL    HW2 1930   2.129   1.401   0.374
  636SOL     OW 1931   1.967   1.013   1.726
  636SOL    HW1 1932   1.890   0.980   1.780
  636SOL    HW2 1933   2.052   0.983   1.768
  637SOL     OW 1934   2.534   0.203   1.489
  637SOL    HW1 1935   2.624   0.187   1.449
  637SOL    HW2 1936   2.542   0.208   1.588
  638SOL     OW 1937   1.937   0.345   0.033
  638SOL    HW1 1938   1.845   0.317   0.004
  638SOL    HW2 1939   1.968   0.422  -0.023
  639SOL     OW 1940   1.934   0.166   0.318
  639SOL    HW1 1941   1.917   0.249   0.264
  639SOL    HW2 1942   2.024   0.129   0.296
  640SOL     OW 1943   2.475   0.842   1.431
  640SOL    HW1 1944   2.531   0.923   1.414
  640SOL    HW2 1945   2.534   0.762   1.434
  641SOL     OW 1946   2.578   0.565   1.708
  641SOL    HW1 1947   2.597   0.630   1.782
  641SOL    HW2 1948   2.638   0.485   1.717
  642SOL     OW 1949   2.252   1.741   1.560
  642SOL    HW1 1950   2.161   1.782   1.558
  642SOL    HW2 1951   2.245   1.647   1.592
  643SOL     OW 1952   3.087   0.325   0.449
  643SOL    HW1 1953   3.152   0.251   0.438
  643SOL    HW2 1954   3.107   0.375   0.533
  644SOL     OW 1955   2.456   0.745   0.652
  644SOL    HW1 1956   2.506   0.830   0.633
  644SOL    HW2 1957   2.368   0.747   0.604
  645SOL     OW 1958   2.721   1.374   0.016
  645SOL    HW1 1959   2.675   1.389   0.104
  645SOL    HW2 1960   2.765   1.459  -0.014
  646SOL     OW 1961   2.523   1.790   0.953
  646SOL    HW1 1962   2.477   1.878   0.940
  646SOL    HW2 1963   2.622   1.802   0.946
  647SOL     OW 1964   2.721   0.956   0.861
  647SOL    HW1 1965   2.775   0.887   0.909
  647SOL    HW2 1966   2.689   1.025   0.927
  648SOL     OW 1967   2.945   0.984   0.087
  648SOL    HW1 1968   2.922   1.037   0.005
  648SOL    HW2 1969   3.026   0.928   0.068
  649SOL     OW 1970   2.083   1.314   1.844
  649SOL    HW1 1971   2.018   1.241   1.823
  649SOL    HW2 1972   2.087   1.328   1.942
  650SOL     OW 1973   1.941   1.240   0.653
  650SOL    HW1 1974   1.940   1.193   0.741
  650SOL    HW2 1975   2.023   1.212   0.602
  651SOL     OW 1976   2.534   1.391   1.624
  651SOL    HW1 1977   2.456   1.341   1.662
  651SOL    HW2 1978   2.531   1.486   1.655
  652SOL     OW 1979   2.290   0.424   0.520
  652SOL    HW1 1980   2.320   0.352   0.458
  652SOL    HW2 1981   2.251   0.384   0.603
  653SOL     OW 1982   2.179   0.547   1.280
  653SOL    HW1 1983   2.217   0.488   1.352
  653SOL    HW2 1984   2.219   0.521   1.192
  654SOL     OW 1985   2.674   1.586   0.687
  654SOL    HW1 1986   2.706   1.596   0.593
  654SOL    HW2 1987   2.595   1.524   0.689
  655SOL     OW 1988   2.863   0.034   1.154
  655SOL    HW1 1989   2.800  -0.038   1.123
  655SOL    HW2 1990   2.956  -0.002   1.154
  656SOL     OW 1991   2.632   1.330   0.301
  656SOL    HW1 1992   2.586   1.243   0.318
  656SOL    HW2 1993   2.723   1.327   0.342
  657SOL     OW 1994   2.480   1.567   1.284
  657SOL    HW1 1995   2.475   1.649   1.341
  657SOL    HW2 1996   2.569   1.564   1.239
  658SOL     OW 1997   1.901   1.077   0.300
  658SOL    HW1 1998   2.000   1.066   0.291
  658SOL    HW2 1999   1.861   0.991   0.332
  659SOL     OW 2000   2.737   1.646   0.337
  659SOL    HW1 2001   2.660   1.611   0.283
  659SOL    HW2 2002   2.705   1.717   0.399
  660SOL     OW 2003   2.092   0.628   1.975
  660SOL    HW1 2004   1.999   0.626   2.012
  660SOL    HW2 2005   2.093   0.589   1.883
  661SOL     OW 2006   2.087   0.275   2.858
  661SOL    HW1 2007   2.122   0.258   2.950
  661SOL    HW2 2008   1.999   0.230   2.846
  662SOL     OW 2009   1.881   0.368   2.509
  662SOL    HW1 2010   1.799   0.411   2.548
  662SOL    HW2 2011   1.853   0.295   2.446
  663SOL     OW 2012   2.630   1.144   2.885
  663SOL    HW1 2013   2.552   1.161   2.945
  663SOL    HW2 2014   2.664   1.231   2.849
  664SOL     OW 2015   2.547   1.012   2.527
  664SOL    HW1 2016   2.616   0.996   2.597
  664SOL    HW2 2017   2.474   1.069   2.565
  665SOL     OW 2018   2.197   1.435   2.923
  665SOL    HW1 2019   2.119   1.404   2.870
  665SOL    HW2 2020   2.255   1.493   2.866
  666SOL     OW 2021   2.093   1.713   2.345
  666SOL    HW1 2022   2.127   1.790   2.399
  666SOL    HW2 2023   2.137   1.713   2.255
  667SOL     OW 2024   2.092   1.434   2.400
  667SOL    HW1 2025   2.066   1.530   2.400
  667SOL    HW2 2026   2.021   1.380   2.445
  668SOL     OW 2027   2.102   1.091   2.748
  668SOL    HW1 2028   2.116   1.007   2.800
  668SOL    HW2 2029   2.047   1.155   2.803
  669SOL     OW 2030   2.468   0.964   1.985
  669SOL    HW1 2031   2.475   1.048   1.931
  669SOL    HW2 2032   2.514   0.977   2.073
  670SOL     OW 2033   1.984   0.643   2.425
  670SOL    HW1 2034   1.939   0.555   2.442
  670SOL    HW2 2035   1.983   0.697   2.509
  671SOL     OW 2036   1.889   1.596   1.979
  671SOL    HW1 2037   1.870   1.500   2.000
  671SOL    HW2 2038   1.856   1.654   2.054
  672SOL     OW 2039   2.475   1.365   2.588
  672SOL    HW1 2040   2.426   1.278   2.597
  672SOL    HW2 2041   2.452   1.408   2.501
  673SOL     OW 2042   2.671   0.004   2.364
  673SOL    HW1 2043   2.711   0.095   2.355
  673SOL    HW2 2044   2.571   0.012   2.370
  674SOL     OW 2045   2.460   0.729   2.132
  674SOL    HW1 2046   2.484   0.798   2.064
  674SOL    HW2 2047   2.382   0.762   2.186
  675SOL     OW 2048   2.903   0.701   2.291
  675SOL    HW1 2049   2.929   0.697   2.387
  675SOL    HW2 2050   2.818   0.650   2.277
  676SOL     OW 2051   1.938   0.811   2.651
  676SOL    HW1 2052   2.037   0.799   2.660
  676SOL    HW2 2053   1.914   0.906   2.672
  677SOL     OW 2054   2.727   0.348   2.057
  677SOL    HW1 2055   2.786   0.411   2.008
  677SOL    HW2 2056   2.746   0.254   2.028
  678SOL     OW 2057   2.412   0.196   2.747
  678SOL    HW1 2058   2.407   0.191   2.847
  678SOL    HW2 2059   2.414   0.292   2.718
  679SOL     OW 2060   2.870   1.456   2.339
  679SOL    HW1 2061   2.824   1.528   2.287
  679SOL    HW2 2062   2.866   1.476   2.437
  680SOL     OW 2063   2.213   1.801   2.715
  680SOL    HW1 2064   2.263   1.715   2.721
  680SOL    HW2 2065   2.278   1.878   2.712
  681SOL     OW 2066   2.183   0.943   2.104
  681SOL    HW1 2067   2.265   0.982   2.062
  681SOL    HW2 2068   2.156   0.861   2.055
  682SOL     OW 2069   2.326   1.743   2.185
  682SOL    HW1 2070   2.359   1.782   2.271
  682SOL    HW2 2071   2.402   1.736   2.120
  683SOL     OW 2072   2.111   1.785   3.103
  683SOL    HW1 2073   2.168   1.720   3.153
  683SOL    HW2 2074   2.095   1.752   3.010
  684SOL     OW 2075   2.802   1.698   2.766
  684SOL    HW1 2076   2.882   1.641   2.787
  684SOL    HW2 2077   2.753   1.658   2.689
  685SOL     OW 2078   2.244   0.700   2.342
  685SOL    HW1 2079   2.289   0.610   2.339
  685SOL    HW2 2080   2.150   0.689   2.375
  686SOL     OW 2081   2.476   0.122   1.979
  686SOL    HW1 2082   2.574   0.100   1.986
  686SOL    HW2 2083   2.445   0.105   1.886
  687SOL     OW 2084   2.665   1.402   2.786
  687SOL    HW1 2085   2.755   1.416   2.744
  687SOL    HW2 2086   2.594   1.404   2.715
  688SOL     OW 2087   2.784   0.503   2.761
  688SOL    HW1 2088   2.759   0.494   2.665
  688SOL    HW2 2089   2.832   0.421   2.792
  689SOL     OW 2090   2.401   0.064   2.374
  689SOL    HW1 2091   2.320   0.065   2.432
  689SOL    HW2 2092   2.404   0.147   2.319
  690SOL     OW 2093   2.159   0.035   2.033
  690SOL    HW1 2094   2.208   0.119   2.012
  690SOL    HW2 2095   2.221  -0.030   2.078
  691SOL     OW 2096   2.797   0.236   2.342
  691SOL    HW1 2097   2.749   0.277   2.264
  691SOL    HW2 2098   2.896   0.234   2.323
  692SOL     OW 2099   3.089   1.570   2.655
  692SOL    HW1 2100   3.110   1.644   2.590
  692SOL    HW2 2101   3.157   1.570   2.728
  693SOL     OW 2102   2.321   1.152   2.603
  693SOL    HW1 2103   2.250   1.125   2.668
  693SOL    HW2 2104   2.295   1.124   2.510
  694SOL     OW 2105   2.894   0.549   1.878
  694SOL    HW1 2106   2.853   0.631   1.839
  694SOL    HW2 2107   2.958   0.575   1.951
  695SOL     OW 2108   2.728   0.454   2.504
  695SOL    HW1 2109   2.696   0.526   2.442
  695SOL    HW2 2110   2.752   0.373   2.451
  696SOL     OW 2111   2.879   0.039   2.615
  696SOL    HW1 2112   2.807   0.044   2.546
  696SOL    HW2 2113   2.855  -0.030   2.684
  697SOL     OW 2114   2.350   1.385   2.036
  697SOL    HW1 2115   2.263   1.370   2.083
  697SOL    HW2 2116   2.333   1.411   1.941
  698SOL     OW 2117   2.389   0.256   2.190
  698SOL    HW1 2118   2.416   0.197   2.115
  698SOL    HW2 2119   2.389   0.351   2.159
  699SOL     OW 2120   2.567   1.050   2.230
  699SOL    HW1 2121   2.553   1.057   2.329
  699SOL    HW2 2122   2.651   0.999   2.212
  700SOL     OW 2123   2.229   1.100   2.363
  700SOL    HW1 2124   2.222   1.183   2.307
  700SOL    HW2 2125   2.233   1.020   2.303
  701SOL     OW 2126   2.428   0.537   2.727
  701SOL    HW1 2127   2.440   0.603   2.653
  701SOL    HW2 2128   2.474   0.571   2.810
  702SOL     OW 2129   2.435   0.870   2.891
  702SOL    HW1 2130   2.479   0.959   2.882
  702SOL    HW2 2131   2.372   0.870   2.968
  703SOL     OW 2132   3.071   0.525   2.137
  703SOL    HW1 2133   3.084   0.441   2.191
  703SOL    HW2 2134   3.042   0.599   2.197
  704SOL     OW 2135   2.594   0.634   2.926
  704SOL    HW1 2136   2.653   0.608   2.850
  704SOL    HW2 2137   2.566   0.730   2.915
  705SOL     OW 2138   2.169   0.063   2.480
  705SOL    HW1 2139   2.158   0.157   2.513
  705SOL    HW2 2140   2.164   0.000   2.557
  706SOL     OW 2141   2.181   0.810   2.811
  706SOL    HW1 2142   2.274   0.846   2.816
  706SOL    HW2 2143   2.175   0.725   2.863
  707SOL     OW 2144   2.201   0.509   2.868
  707SOL    HW1 2145   2.149   0.426   2.851
  707SOL    HW2 2146   2.278   0.514   2.804
  708SOL     OW 2147   1.870   1.326   2.062
  708SOL    HW1 2148   1.777   1.347   2.031
  708SOL    HW2 2149   1.880   1.227   2.075
  709SOL     OW 2150   1.950   1.801   2.789
  709SOL    HW1 2151   1.908   1.715   2.762
  709SOL    HW2 2152   2.044   1.804   2.755
  710SOL     OW 2153   2.366   1.568   2.772
  710SOL    HW1 2154   2.432   1.642   2.781
  710SOL    HW2 2155   2.410   1.489   2.730
  711SOL     OW 2156   2.864   0.796   3.100
  711SOL    HW1 2157   2.905   0.764   3.186
  711SOL    HW2 2158   2.768   0.769   3.097
  712SOL     OW 2159   2.677   0.572   2.187
  712SOL    HW1 2160   2.684   0.483   2.141
  712SOL    HW2 2161   2.583   0.606   2.179
  713SOL     OW 2162   2.533   0.464   3.131
  713SOL    HW1 2163   2.499   0.375   3.101
  713SOL    HW2 2164   2.559   0.518   3.051
  714SOL     OW 2165   2.335   0.500   2.053
  714SOL    HW1 2166   2.396   0.580   2.057
  714SOL    HW2 2167   2.240   0.531   2.060
  715SOL     OW 2168   1.945   1.258   2.884
  715SOL    HW1 2169   1.940   1.257   2.984
  715SOL    HW2 2170   1.862   1.217   2.846
  716SOL     OW 2171   3.142   0.927   2.534
  716SOL    HW1 2172   3.202   0.846   2.536
  716SOL    HW2 2173   3.182   0.996   2.474
  717SOL     OW 2174   2.534   1.616   2.016
  717SOL    HW1 2175   2.543   1.626   1.917
  717SOL    HW2 2176   2.494   1.527   2.037
  718SOL     OW 2177   2.125   0.326   2.582
  718SOL    HW1 2178   2.046   0.377   2.548
  718SOL    HW2 2179   2.116   0.311   2.680
  719SOL     OW 2180   2.778   0.910   2.153
  719SOL    HW1 2181   2.841   0.948   2.085
  719SOL    HW2 2182   2.818   0.827   2.192
  720SOL     OW 2183   2.901   1.098   2.558
  720SOL    HW1 2184   2.831   1.051   2.612
  720SOL    HW2 2185   2.960   1.030   2.515
  721SOL     OW 2186   2.876   0.236   2.833
  721SOL    HW1 2187   2.868   0.200   2.740
  721SOL    HW2 2188   2.874   0.160   2.898
  722SOL     OW 2189   2.452   1.487   2.353
  722SOL    HW1 2190   2.494   1.429   2.283
  722SOL    HW2 2191   2.408   1.566   2.309
  723SOL     OW 2192   2.117   1.348   2.152
  723SOL    HW1 2193   2.021   1.349   2.125
  723SOL    HW2 2194   2.129   1.401   2.236
  724SOL     OW 2195   1.937   0.345   1.895
  724SOL    HW1 2196   1.845   0.317   1.866
  724SOL    HW2 2197   1.968   0.422   1.839
  725SOL     OW 2198   1.934   0.166   2.180
  725SOL    HW1 2199   1.917   0.249   2.126
  725SOL    HW2 2200   2.024   0.129   2.158
  726SOL     OW 2201   3.087   0.325   2.311
  726SOL    HW1 2202   3.152   0.251   2.300
  726SOL    HW2 2203   3.107   0.375   2.395
  727SOL     OW 2204   2.456   0.745   2.514
  727SOL    HW1 2205   2.506   0.830   2.495
  727SOL    HW2 2206   2.368   0.747   2.466
  728SOL     OW 2207   2.721   1.374   1.878
  728SOL    HW1 2208   2.675   1.389   1.966
  728SOL    HW2 2209   2.765   1.459   1.848
  729SOL     OW 2210   2.523   1.790   2.815
  729SOL    HW1 2211   2.477   1.878   2.802
  729SOL    HW2 2212   2.622   1.802   2.808
  730SOL     OW 2213   2.721   0.956   2.723
  730SOL    HW1 2214   2.775   0.887   2.771
  730SOL    HW2 2215   2.689   1.025   2.789
  731SOL     OW 2216   1.941   1.240   2.515
  731SOL    HW1 2217   1.940   1.193   2.603
  731SOL    HW2 2218   2.023   1.212   2.464
  732SOL     OW 2219   2.290   0.424   2.382
  732SOL    HW1 2220   2.320   0.352   2.320
  732SOL    HW2 2221   2.251   0.384   2.465
  733SOL     OW 2222   2.674   1.586   2.549
  733SOL    HW1 2223   2.706   1.596   2.455
  733SOL    HW2 2224   2.595   1.524   2.551
  734SOL     OW 2225   2.632   1.330   2.163
  734SOL    HW1 2226   2.586   1.243   2.180
  734SOL    HW2 2227   2.723   1.327   2.204
  735SOL     OW 2228   1.901   1.077   2.162
  735SOL    HW1 2229   2.000   1.066   2.153
  735SOL    HW2 2230   1.861   0.991   2.194
  736SOL     OW 2231   2.737   1.646   2.199
  736SOL    HW1 2232   2.660   1.611   2.145
  736SOL    HW2 2233   2.705   1.717   2.261
  737SOL     OW 2234   2.092   2.490   0.113
  737SOL    HW1 2235   1.999   2.488   0.150
  737SOL    HW2 2236   2.093   2.451   0.021
  738SOL     OW 2237   2.087   2.137   0.996
  738SOL    HW1 2238   2.122   2.120   1.088
  738SOL    HW2 2239   1.999   2.092   0.984
  739SOL     OW 2240   1.881   2.230   0.647
  739SOL    HW1 2241   1.799   2.273   0.686
  739SOL    HW2 2242   1.853   2.157   0.584
  740SOL     OW 2243   2.630   3.006   1.023
  740SOL    HW1 2244   2.552   3.023   1.083
  740SOL    HW2 2245   2.664   3.093   0.987
  741SOL     OW 2246   2.712   2.660   1.823
  741SOL    HW1 2247   2.708   2.736   1.888
  741SOL    HW2 2248   2.734   2.696   1.732
  742SOL     OW 2249   2.547   2.874   0.665
  742SOL    HW1 2250   2.616   2.858   0.735
  742SOL    HW2 2251   2.474   2.931   0.703
  743SOL     OW 2252   2.300   2.254   1.499
  743SOL    HW1 2253   2.382   2.198   1.508
  743SOL    HW2 2254   2.219   2.196   1.503
  744SOL     OW 2255   2.102   2.953   0.886
  744SOL    HW1 2256   2.116   2.869   0.938
  744SOL    HW2 2257   2.047   3.017   0.941
  745SOL     OW 2258   2.468   2.826   0.123
  745SOL    HW1 2259   2.475   2.910   0.069
  745SOL    HW2 2260   2.514   2.839   0.211
  746SOL     OW 2261   1.984   2.505   0.563
  746SOL    HW1 2262   1.939   2.417   0.580
  746SOL    HW2 2263   1.983   2.559   0.647
  747SOL     OW 2264   1.975   2.599   1.597
  747SOL    HW1 2265   2.063   2.586   1.642
  747SOL    HW2 2266   1.962   2.696   1.575
  748SOL     OW 2267   2.671   1.866   0.502
  748SOL    HW1 2268   2.711   1.957   0.493
  748SOL    HW2 2269   2.571   1.874   0.508
  749SOL     OW 2270   2.059   2.838   1.264
  749SOL    HW1 2271   2.148   2.793   1.250
  749SOL    HW2 2272   1.986   2.773   1.245
  750SOL     OW 2273   2.179   2.113   1.801
  750SOL    HW1 2274   2.250   2.184   1.807
  750SOL    HW2 2275   2.091   2.152   1.829
  751SOL     OW 2276   2.460   2.591   0.270
  751SOL    HW1 2277   2.484   2.660   0.202
  751SOL    HW2 2278   2.382   2.624   0.324
  752SOL     OW 2279   2.669   2.467   1.465
  752SOL    HW1 2280   2.622   2.464   1.554
  752SOL    HW2 2281   2.618   2.412   1.399
  753SOL     OW 2282   2.835   2.752   1.572
  753SOL    HW1 2283   2.881   2.668   1.543
  753SOL    HW2 2284   2.779   2.786   1.497
  754SOL     OW 2285   2.853   2.272   1.242
  754SOL    HW1 2286   2.776   2.306   1.296
  754SOL    HW2 2287   2.819   2.221   1.163
  755SOL     OW 2288   2.903   2.563   0.429
  755SOL    HW1 2289   2.929   2.559   0.525
  755SOL    HW2 2290   2.818   2.512   0.415
  756SOL     OW 2291   1.938   2.673   0.789
  756SOL    HW1 2292   2.037   2.661   0.798
  756SOL    HW2 2293   1.914   2.768   0.810
  757SOL     OW 2294   2.727   2.210   0.195
  757SOL    HW1 2295   2.786   2.273   0.146
  757SOL    HW2 2296   2.746   2.116   0.166
  758SOL     OW 2297   2.412   2.058   0.885
  758SOL    HW1 2298   2.407   2.053   0.985
  758SOL    HW2 2299   2.414   2.154   0.856
  759SOL     OW 2300   2.064   2.147   1.498
  759SOL    HW1 2301   1.984   2.207   1.485
  759SOL    HW2 2302   2.054   2.098   1.584
  760SOL     OW 2303   2.244   2.562   0.480
  760SOL    HW1 2304   2.289   2.472   0.477
  760SOL    HW2 2305   2.150   2.551   0.513
  761SOL     OW 2306   2.476   1.984   0.117
  761SOL    HW1 2307   2.574   1.962   0.124
  761SOL    HW2 2308   2.445   1.967   0.024
  762SOL     OW 2309   2.643   2.126   1.749
  762SOL    HW1 2310   2.710   2.065   1.792
  762SOL    HW2 2311   2.570   2.145   1.814
  763SOL     OW 2312   2.784   2.365   0.899
  763SOL    HW1 2313   2.759   2.356   0.803
  763SOL    HW2 2314   2.832   2.283   0.930
  764SOL     OW 2315   2.401   1.926   0.512
  764SOL    HW1 2316   2.320   1.927   0.570
  764SOL    HW2 2317   2.404   2.009   0.457
  765SOL     OW 2318   2.797   2.098   0.480
  765SOL    HW1 2319   2.749   2.139   0.402
  765SOL    HW2 2320   2.896   2.096   0.461
  766SOL     OW 2321   2.894   2.411   0.016
  766SOL    HW1 2322   2.853   2.493  -0.023
  766SOL    HW2 2323   2.958   2.437   0.089
  767SOL     OW 2324   1.940   2.418   1.386
  767SOL    HW1 2325   2.032   2.417   1.345
  767SOL    HW2 2326   1.934   2.492   1.453
  768SOL     OW 2327   2.423   2.084   1.147
  768SOL    HW1 2328   2.461   2.000   1.184
  768SOL    HW2 2329   2.335   2.103   1.191
  769SOL     OW 2330   2.728   2.316   0.642
  769SOL    HW1 2331   2.696   2.388   0.580
  769SOL    HW2 2332   2.752   2.235   0.589
  770SOL     OW 2333   2.879   1.901   0.753
  770SOL    HW1 2334   2.807   1.906   0.684
  770SOL    HW2 2335   2.855   1.832   0.822
  771SOL     OW 2336   2.389   2.118   0.328
  771SOL    HW1 2337   2.416   2.059   0.253
  771SOL    HW2 2338   2.389   2.213   0.297
  772SOL     OW 2339   2.777   1.951   1.402
  772SOL    HW1 2340   2.802   1.931   1.307
  772SOL    HW2 2341   2.849   2.007   1.444
  773SOL     OW 2342   2.272   2.675   1.251
  773SOL    HW1 2343   2.358   2.687   1.301
  773SOL    HW2 2344   2.230   2.588   1.278
  774SOL     OW 2345   2.428   2.399   0.865
  774SOL    HW1 2346   2.440   2.465   0.791
  774SOL    HW2 2347   2.474   2.433   0.948
  775SOL     OW 2348   2.264   2.613   1.598
  775SOL    HW1 2349   2.332   2.668   1.551
  775SOL    HW2 2350   2.304   2.525   1.625
  776SOL     OW 2351   2.875   1.967   1.770
  776SOL    HW1 2352   2.881   2.052   1.718
  776SOL    HW2 2353   2.907   1.891   1.713
  777SOL     OW 2354   2.366   1.912   1.740
  777SOL    HW1 2355   2.324   1.855   1.670
  777SOL    HW2 2356   2.300   1.981   1.772
  778SOL     OW 2357   2.435   2.732   1.029
  778SOL    HW1 2358   2.479   2.821   1.020
  778SOL    HW2 2359   2.372   2.732   1.106
  779SOL     OW 2360   3.071   2.387   0.275
  779SOL    HW1 2361   3.084   2.303   0.329
  779SOL    HW2 2362   3.042   2.461   0.335
  780SOL     OW 2363   2.169   2.075   1.231
  780SOL    HW1 2364   2.146   2.112   1.321
  780SOL    HW2 2365   2.139   1.980   1.225
  781SOL     OW 2366   2.594   2.496   1.064
  781SOL    HW1 2367   2.653   2.470   0.988
  781SOL    HW2 2368   2.566   2.592   1.053
  782SOL     OW 2369   2.169   1.925   0.618
  782SOL    HW1 2370   2.158   2.019   0.651
  782SOL    HW2 2371   2.164   1.862   0.695
  783SOL     OW 2372   2.885   2.628   0.966
  783SOL    HW1 2373   2.900   2.649   1.062
  783SOL    HW2 2374   2.855   2.533   0.957
  784SOL     OW 2375   2.212   2.760   1.804
  784SOL    HW1 2376   2.288   2.804   1.852
  784SOL    HW2 2377   2.247   2.713   1.722
  785SOL     OW 2378   2.181   2.672   0.949
  785SOL    HW1 2379   2.274   2.708   0.954
  785SOL    HW2 2380   2.175   2.587   1.001
  786SOL     OW 2381   2.201   2.371   1.006
  786SOL    HW1 2382   2.149   2.288   0.989
  786SOL    HW2 2383   2.278   2.376   0.942
  787SOL     OW 2384   2.864   2.658   1.238
  787SOL    HW1 2385   2.905   2.626   1.324
  787SOL    HW2 2386   2.768   2.631   1.235
  788SOL     OW 2387   1.902   2.406   1.114
  788SOL    HW1 2388   1.987   2.373   1.073
  788SOL    HW2 2389   1.915   2.421   1.212
  789SOL     OW 2390   2.051   2.382   1.722
  789SOL    HW1 2391   2.110   2.342   1.652
  789SOL    HW2 2392   1.993   2.453   1.681
  790SOL     OW 2393   2.677   2.434   0.325
  790SOL    HW1 2394   2.684   2.345   0.279
  790SOL    HW2 2395   2.583   2.468   0.317
  791SOL     OW 2396   2.533   2.326   1.269
  791SOL    HW1 2397   2.499   2.237   1.239
  791SOL    HW2 2398   2.559   2.380   1.189
  792SOL     OW 2399   2.335   2.362   0.191
  792SOL    HW1 2400   2.396   2.442   0.195
  792SOL    HW2 2401   2.240   2.393   0.198
  793SOL     OW 2402   2.021   2.999   1.466
  793SOL    HW1 2403   2.043   2.938   1.542
  793SOL    HW2 2404   2.031   2.950   1.380
  794SOL     OW 2405   2.765   1.948   0.133
  794SOL    HW1 2406   2.816   1.949   0.047
  794SOL    HW2 2407   2.821   1.906   0.204
  795SOL     OW 2408   3.142   2.789   0.672
  795SOL    HW1 2409   3.202   2.708   0.674
  795SOL    HW2 2410   3.182   2.858   0.612
  796SOL     OW 2411   2.125   2.188   0.720
  796SOL    HW1 2412   2.046   2.239   0.686
  796SOL    HW2 2413   2.116   2.173   0.818
  797SOL     OW 2414   2.778   2.772   0.291
  797SOL    HW1 2415   2.841   2.810   0.223
  797SOL    HW2 2416   2.818   2.689   0.330
  798SOL     OW 2417   2.876   2.098   0.971
  798SOL    HW1 2418   2.868   2.062   0.878
  798SOL    HW2 2419   2.874   2.022   1.036
  799SOL     OW 2420   1.967   2.875   1.726
  799SOL    HW1 2421   1.890   2.842   1.780
  799SOL    HW2 2422   2.052   2.845   1.768
  800SOL     OW 2423   2.534   2.065   1.489
  800SOL    HW1 2424   2.624   2.049   1.449
  800SOL    HW2 2425   2.542   2.070   1.588
  801SOL     OW 2426   1.937   2.207   0.033
  801SOL    HW1 2427   1.845   2.179   0.004
  801SOL    HW2 2428   1.968   2.284  -0.023
  802SOL     OW 2429   1.934   2.028   0.318
  802SOL    HW1 2430   1.917   2.111   0.264
  802SOL    HW2 2431   2.024   1.991   0.296
  803SOL     OW 2432   2.475   2.704   1.431
  803SOL    HW1 2433   2.531   2.785   1.414
  803SOL    HW2 2434   2.534   2.624   1.434
  804SOL     OW 2435   2.578   2.427   1.708
  804SOL    HW1 2436   2.597   2.492   1.782
  804SOL    HW2 2437   2.638   2.347   1.717
  805SOL     OW 2438   3.087   2.187   0.449
  805SOL    HW1 2439   3.152   2.113   0.438
  805SOL    HW2 2440   3.107   2.237   0.533
  806SOL     OW 2441   2.456   2.607   0.652
  806SOL    HW1 2442   2.506   2.692   0.633
  806SOL    HW2 2443   2.368   2.609   0.604
  807SOL     OW 2444   2.721   2.818   0.861
  807SOL    HW1 2445   2.775   2.749   0.909
  807SOL    HW2 2446   2.689   2.887   0.927
  808SOL     OW 2447   1.941   3.102   0.653
  808SOL    HW1 2448   1.940   3.055   0.741
  808SOL    HW2 2449   2.023   3.074   0.602
  809SOL     OW 2450   2.290   2.286   0.520
  809SOL    HW1 2451   2.320   2.214   0.458
  809SOL    HW2 2452   2.251   2.246   0.603
  810SOL     OW 2453   2.179   2.409   1.280
  810SOL    HW1 2454   2.217   2.350   1.352
  810SOL    HW2 2455   2.219   2.383   1.192
  811SOL     OW 2456   2.863   1.896   1.154
  811SOL    HW1 2457   2.800   1.824   1.123
  811SOL    HW2 2458   2.956   1.860   1.154
  812SOL     OW 2459   1.901   2.939   0.300
  812SOL    HW1 2460   2.000   2.928   0.291
  812SOL    HW2 2461   1.861   2.853   0.332
  813SOL     OW 2462   2.092   2.490   1.975
  813SOL    HW1 2463   1.999   2.488   2.012
  813SOL    HW2 2464   2.093   2.451   1.883
  814SOL     OW 2465   2.087   2.137   2.858
  814SOL    HW1 2466   2.122   2.120   2.950
  814SOL    HW2 2467   1.999   2.092   2.846
  815SOL     OW 2468   1.881   2.230   2.509
  815SOL    HW1 2469   1.799   2.273   2.548
  815SOL    HW2 2470   1.853   2.157   2.446
  816SOL     OW 2471   2.547   2.874   2.527
  816SOL    HW1 2472   2.616   2.858   2.597
  816SOL    HW2 2473   2.474   2.931   2.565
  817SOL     OW 2474   2.102   2.953   2.748
  817SOL    HW1 2475   2.116   2.869   2.800
  817SOL    HW2 2476   2.047   3.017   2.803
  818SOL     OW 2477   2.468   2.826   1.985
  818SOL    HW1 2478   2.475   2.910   1.931
  818SOL    HW2 2479   2.514   2.839   2.073
  819SOL     OW 2480   1.984   2.505   2.425
  819SOL    HW1 2481   1.939   2.417   2.442
  819SOL    HW2 2482   1.983   2.559   2.509
  820SOL     OW 2483   2.671   1.866   2.364
  820SOL    HW1 2484   2.711   1.957   2.355
  820SOL    HW2 2485   2.571   1.874   2.370
  821SOL     OW 2486   2.059   2.838   3.126
  821SOL    HW1 2487   2.148   2.793   3.112
  821SOL    HW2 2488   1.986   2.773   3.107
  822SOL     OW 2489   2.460   2.591   2.132
  822SOL    HW1 2490   2.484   2.660   2.064
  822SOL    HW2 2491   2.382   2.624   2.186
  823SOL     OW 2492   2.903   2.563   2.291
  823SOL    HW1 2493   2.929   2.559   2.387
  823SOL    HW2 2494   2.818   2.512   2.277
  824SOL     OW 2495   1.938   2.673   2.651
  824SOL    HW1 2496   2.037   2.661   2.660
  824SOL    HW2 2497   1.914   2.768   2.672
  825SOL     OW 2498   2.727   2.210   2.057
  825SOL    HW1 2499   2.786   2.273   2.008
  825SOL    HW2 2500   2.746   2.116   2.028
  826SOL     OW 2501   2.412   2.058   2.747
  826SOL    HW1 2502   2.407   2.053   2.847
  826SOL    HW2 2503   2.414   2.154   2.718
  827SOL     OW 2504   2.244   2.562   2.342
  827SOL    HW1 2505   2.289   2.472   2.339
  827SOL    HW2 2506   2.150   2.551   2.375
  828SOL     OW 2507   2.476   1.984   1.979
  828SOL    HW1 2508   2.574   1.962   1.986
  828SOL    HW2 2509   2.445   1.967   1.886
  829SOL     OW 2510   2.784   2.365   2.761
  829SOL    HW1 2511   2.759   2.356   2.665
  829SOL    HW2 2512   2.832   2.283   2.792
  830SOL     OW 2513   2.401   1.926   2.374
  830SOL    HW1 2514   2.320   1.927   2.432
  830SOL    HW2 2515   2.404   2.009   2.319
  831SOL     OW 2516   2.159   1.897   2.033
  831SOL    HW1 2517   2.208   1.981   2.012
  831SOL    HW2 2518   2.221   1.832   2.078
  832SOL     OW 2519   2.797   2.098   2.342
  832SOL    HW1 2520   2.749   2.139   2.264
  832SOL    HW2 2521   2.896   2.096   2.323
  833SOL     OW 2522   2.894   2.411   1.878
  833SOL    HW1 2523   2.853   2.493   1.839
  833SOL    HW2 2524   2.958   2.437   1.951
  834SOL     OW 2525   2.728   2.316   2.504
  834SOL    HW1 2526   2.696   2.388   2.442
  834SOL    HW2 2527   2.752   2.235   2.451
  835SOL     OW 2528   2.879   1.901   2.615
  835SOL    HW1 2529   2.807   1.906   2.546
  835SOL    HW2 2530   2.855   1.832   2.684
  836SOL     OW 2531   2.389   2.118   2.190
  836SOL    HW1 2532   2.416   2.059   2.115
  836SOL    HW2 2533   2.389   2.213   2.159
  837SOL     OW 2534   2.428   2.399   2.727
  837SOL    HW1 2535   2.440   2.465   2.653
  837SOL    HW2 2536   2.474   2.433   2.810
  838SOL     OW 2537   2.435   2.732   2.891
  838SOL    HW1 2538   2.479   2.821   2.882
  838SOL    HW2 2539   2.372   2.732   2.968
  839SOL     OW 2540   3.071   2.387   2.137
  839SOL    HW1 2541   3.084   2.303   2.191
  839SOL    HW2 2542   3.042   2.461   2.197
  840SOL     OW 2543   2.169   2.075   3.093
  840SOL    HW1 2544   2.146   2.112   3.183
  840SOL    HW2 2545   2.139   1.980   3.087
  841SOL     OW 2546   2.594   2.496   2.926
  841SOL    HW1 2547   2.653   2.470   2.850
  841SOL    HW2 2548   2.566   2.592   2.915
  842SOL     OW 2549   2.169   1.925   2.480
  842SOL    HW1 2550   2.158   2.019   2.513
  842SOL    HW2 2551   2.164   1.862   2.557
  843SOL     OW 2552   2.181   2.672   2.811
  843SOL    HW1 2553   2.274   2.708   2.816
  843SOL    HW2 2554   2.175   2.587   2.863
  844SOL     OW 2555   2.201   2.371   2.868
  844SOL    HW1 2556   2.149   2.288   2.851
  844SOL    HW2 2557   2.278   2.376   2.804
  845SOL     OW 2558   2.864   2.658   3.100
  845SOL    HW1 2559   2.905   2.626   3.186
  845SOL    HW2 2560   2.768   2.631   3.097
  846SOL     OW 2561   2.677   2.434   2.187
  846SOL    HW1 2562   2.684   2.345   2.141
  846SOL    HW2 2563   2.583   2.468   2.179
  847SOL     OW 2564   2.533   2.326   3.131
  847SOL    HW1 2565   2.499   2.237   3.101
  847SOL    HW2 2566   2.559   2.380   3.051
  848SOL     OW 2567   2.335   2.362   2.053
  848SOL    HW1 2568   2.396   2.442   2.057
  848SOL    HW2 2569   2.240   2.393   2.060
  849SOL     OW 2570   3.164   2.717   2.171
  849SOL    HW1 2571   3.078   2.686   2.213
  849SOL    HW2 2572   3.160   2.703   2.072
  850SOL     OW 2573   3.142   2.789   2.534
  850SOL    HW1 2574   3.202   2.708   2.536
  850SOL    HW2 2575   3.182   2.858   2.474
  851SOL     OW 2576   2.125   2.188   2.582
  851SOL    HW1 2577   2.046   2.239   2.548
  851SOL    HW2 2578   2.116   2.173   2.680
  852SOL     OW 2579   2.778   2.772   2.153
  852SOL    HW1 2580   2.841   2.810   2.085
  852SOL    HW2 2581   2.818   2.689   2.192
  853SOL     OW 2582   2.876   2.098   2.833
  853SOL    HW1 2583   2.868   2.062   2.740
  853SOL    HW2 2584   2.874   2.022   2.898
  854SOL     OW 2585   1.937   2.207   1.895
  854SOL    HW1 2586   1.845   2.179   1.866
  854SOL    HW2 2587   1.968   2.284   1.839
  855SOL     OW 2588   1.934   2.028   2.180
  855SOL    HW1 2589   1.917   2.111   2.126
  855SOL    HW2 2590   2.024   1.991   2.158
  856SOL     OW 2591   3.087   2.187   2.311
  856SOL    HW1 2592   3.152   2.113   2.300
  856SOL    HW2 2593   3.107   2.237   2.395
  857SOL     OW 2594   2.456   2.607   2.514
  857SOL    HW1 2595   2.506   2.692   2.495
  857SOL    HW2 2596   2.368   2.609   2.466
  858SOL     OW 2597   2.721   2.818   2.723
  858SOL    HW1 2598   2.775   2.749   2.771
  858SOL    HW2 2599   2.689   2.887   2.789
  859SOL     OW 2600   1.941   3.102   2.515
  859SOL    HW1 2601   1.940   3.055   2.603
  859SOL    HW2 2602   2.023   3.074   2.464
  860SOL     OW 2603   2.290   2.286   2.382
  860SOL    HW1 2604   2.320   2.214   2.320
  860SOL    HW2 2605   2.251   2.246   2.465
  861SOL     OW 2606   1.901   2.939   2.162
  861SOL    HW1 2607   2.000   2.928   2.153
  861SOL    HW2 2608   1.861   2.853   2.194
   2.96027   2.96027   2.96027
