; mobley_1873346_GMX.itp created by acpype (v: 2023.10.27) on Thu May 14 13:57:11 2026

[ atomtypes ]
;name   bond_type     mass     charge   ptype   sigma         epsilon       Amb
 hc       hc          0.00000  0.00000   A     2.60018e-01   8.70272e-02 ; 1.46  0.0208
 c3       c3          0.00000  0.00000   A     3.39771e-01   4.51035e-01 ; 1.91  0.1078
 ca       ca          0.00000  0.00000   A     3.31521e-01   4.13379e-01 ; 1.86  0.0988
 ha       ha          0.00000  0.00000   A     2.62548e-01   6.73624e-02 ; 1.47  0.0161

[ moleculetype ]
;name            nrexcl
 mobley_1873346   3

[ atoms ]
;   nr  type  resi  res  atom  cgnr     charge      mass       ; qtot   bond_type
     1   hc     1   MOL    H1    1     0.044033      1.00800 ; qtot 0.044
     2   c3     1   MOL    C1    2    -0.053800     12.01000 ; qtot -0.010
     3   hc     1   MOL    H2    3     0.044033      1.00800 ; qtot 0.034
     4   hc     1   MOL    H8    4     0.044033      1.00800 ; qtot 0.078
     5   ca     1   MOL    C2    5    -0.077300     12.01000 ; qtot 0.001
     6   ca     1   MOL    C3    6    -0.131000     12.01000 ; qtot -0.130
     7   ha     1   MOL    H3    7     0.130000      1.00800 ; qtot -0.000
     8   ca     1   MOL    C5    8    -0.127000     12.01000 ; qtot -0.127
     9   ha     1   MOL    H5    9     0.130000      1.00800 ; qtot 0.003
    10   ca     1   MOL    C7   10    -0.134999     12.01000 ; qtot -0.132
    11   ca     1   MOL    C6   11    -0.127000     12.01000 ; qtot -0.259
    12   ha     1   MOL    H6   12     0.130000      1.00800 ; qtot -0.129
    13   ca     1   MOL    C4   13    -0.131000     12.01000 ; qtot -0.260
    14   ha     1   MOL    H4   14     0.130000      1.00800 ; qtot -0.130
    15   ha     1   MOL    H7   15     0.130000      1.00800 ; qtot -0.000

[ bonds ]
;   ai     aj funct   r             k
     1      2   1    1.0962e-01    2.8891e+05 ;     H1 - C1    
     2      3   1    1.0962e-01    2.8891e+05 ;     C1 - H2    
     2      4   1    1.0962e-01    2.8891e+05 ;     C1 - H8    
     2      5   1    1.5147e-01    2.0410e+05 ;     C1 - C2    
     5      6   1    1.3986e-01    2.9644e+05 ;     C2 - C3    
     5     13   1    1.3986e-01    2.9644e+05 ;     C2 - C4    
     6      7   1    1.0860e-01    3.0183e+05 ;     C3 - H3    
     6      8   1    1.3986e-01    2.9644e+05 ;     C3 - C5    
     8      9   1    1.0860e-01    3.0183e+05 ;     C5 - H5    
     8     10   1    1.3986e-01    2.9644e+05 ;     C5 - C7    
    10     11   1    1.3986e-01    2.9644e+05 ;     C7 - C6    
    10     15   1    1.0860e-01    3.0183e+05 ;     C7 - H7    
    11     12   1    1.0860e-01    3.0183e+05 ;     C6 - H6    
    11     13   1    1.3986e-01    2.9644e+05 ;     C6 - C4    
    13     14   1    1.0860e-01    3.0183e+05 ;     C4 - H4    

[ pairs ]
;   ai     aj    funct
     1      6      1 ;     H1 - C3    
     1     13      1 ;     H1 - C4    
     2      7      1 ;     C1 - H3    
     2      8      1 ;     C1 - C5    
     2     11      1 ;     C1 - C6    
     2     14      1 ;     C1 - H4    
     3      6      1 ;     H2 - C3    
     3     13      1 ;     H2 - C4    
     4      6      1 ;     H8 - C3    
     4     13      1 ;     H8 - C4    
     5      9      1 ;     C2 - H5    
     5     10      1 ;     C2 - C7    
     5     12      1 ;     C2 - H6    
     6     11      1 ;     C3 - C6    
     6     14      1 ;     C3 - H4    
     6     15      1 ;     C3 - H7    
     7      9      1 ;     H3 - H5    
     7     10      1 ;     H3 - C7    
     7     13      1 ;     H3 - C4    
     8     12      1 ;     C5 - H6    
     8     13      1 ;     C5 - C4    
     9     11      1 ;     H5 - C6    
     9     15      1 ;     H5 - H7    
    10     14      1 ;     C7 - H4    
    12     14      1 ;     H6 - H4    
    12     15      1 ;     H6 - H7    
    13     15      1 ;     C4 - H7    

[ angles ]
;   ai     aj     ak    funct   theta         cth
     1      2      3      1    1.0773e+02    2.9957e+02 ;     H1 - C1     - H2    
     1      2      4      1    1.0773e+02    2.9957e+02 ;     H1 - C1     - H8    
     1      2      5      1    1.1063e+02    3.6493e+02 ;     H1 - C1     - C2    
     2      5      6      1    1.2083e+02    5.0827e+02 ;     C1 - C2     - C3    
     2      5     13      1    1.2083e+02    5.0827e+02 ;     C1 - C2     - C4    
     3      2      4      1    1.0773e+02    2.9957e+02 ;     H2 - C1     - H8    
     3      2      5      1    1.1063e+02    3.6493e+02 ;     H2 - C1     - C2    
     4      2      5      1    1.1063e+02    3.6493e+02 ;     H8 - C1     - C2    
     5      6      7      1    1.1988e+02    3.7572e+02 ;     C2 - C3     - H3    
     5      6      8      1    1.2002e+02    5.3279e+02 ;     C2 - C3     - C5    
     5     13     11      1    1.2002e+02    5.3279e+02 ;     C2 - C4     - C6    
     5     13     14      1    1.1988e+02    3.7572e+02 ;     C2 - C4     - H4    
     6      5     13      1    1.2002e+02    5.3279e+02 ;     C3 - C2     - C4    
     6      8      9      1    1.1988e+02    3.7572e+02 ;     C3 - C5     - H5    
     6      8     10      1    1.2002e+02    5.3279e+02 ;     C3 - C5     - C7    
     7      6      8      1    1.1988e+02    3.7572e+02 ;     H3 - C3     - C5    
     8     10     11      1    1.2002e+02    5.3279e+02 ;     C5 - C7     - C6    
     8     10     15      1    1.1988e+02    3.7572e+02 ;     C5 - C7     - H7    
     9      8     10      1    1.1988e+02    3.7572e+02 ;     H5 - C5     - C7    
    10     11     12      1    1.1988e+02    3.7572e+02 ;     C7 - C6     - H6    
    10     11     13      1    1.2002e+02    5.3279e+02 ;     C7 - C6     - C4    
    11     10     15      1    1.1988e+02    3.7572e+02 ;     C6 - C7     - H7    
    11     13     14      1    1.1988e+02    3.7572e+02 ;     C6 - C4     - H4    
    12     11     13      1    1.1988e+02    3.7572e+02 ;     H6 - C6     - C4    

[ dihedrals ] ; propers
; for gromacs 4.5 or higher, using funct 9
;    i      j      k      l   func   phase     kd      pn
     1      2      5      6      9     0.00   0.00000   0 ;     H1-    C1-    C2-    C3
     1      2      5     13      9     0.00   0.00000   0 ;     H1-    C1-    C2-    C4
     2      5      6      7      9   180.00  15.16700   2 ;     C1-    C2-    C3-    H3
     2      5      6      8      9   180.00  15.16700   2 ;     C1-    C2-    C3-    C5
     2      5     13     11      9   180.00  15.16700   2 ;     C1-    C2-    C4-    C6
     2      5     13     14      9   180.00  15.16700   2 ;     C1-    C2-    C4-    H4
     3      2      5      6      9     0.00   0.00000   0 ;     H2-    C1-    C2-    C3
     3      2      5     13      9     0.00   0.00000   0 ;     H2-    C1-    C2-    C4
     4      2      5      6      9     0.00   0.00000   0 ;     H8-    C1-    C2-    C3
     4      2      5     13      9     0.00   0.00000   0 ;     H8-    C1-    C2-    C4
     5      6      8      9      9   180.00  15.16700   2 ;     C2-    C3-    C5-    H5
     5      6      8     10      9   180.00  15.16700   2 ;     C2-    C3-    C5-    C7
     5     13     11     10      9   180.00  15.16700   2 ;     C2-    C4-    C6-    C7
     5     13     11     12      9   180.00  15.16700   2 ;     C2-    C4-    C6-    H6
     6      5     13     11      9   180.00  15.16700   2 ;     C3-    C2-    C4-    C6
     6      5     13     14      9   180.00  15.16700   2 ;     C3-    C2-    C4-    H4
     6      8     10     11      9   180.00  15.16700   2 ;     C3-    C5-    C7-    C6
     6      8     10     15      9   180.00  15.16700   2 ;     C3-    C5-    C7-    H7
     7      6      5     13      9   180.00  15.16700   2 ;     H3-    C3-    C2-    C4
     7      6      8      9      9   180.00  15.16700   2 ;     H3-    C3-    C5-    H5
     7      6      8     10      9   180.00  15.16700   2 ;     H3-    C3-    C5-    C7
     8      6      5     13      9   180.00  15.16700   2 ;     C5-    C3-    C2-    C4
     8     10     11     12      9   180.00  15.16700   2 ;     C5-    C7-    C6-    H6
     8     10     11     13      9   180.00  15.16700   2 ;     C5-    C7-    C6-    C4
     9      8     10     11      9   180.00  15.16700   2 ;     H5-    C5-    C7-    C6
     9      8     10     15      9   180.00  15.16700   2 ;     H5-    C5-    C7-    H7
    10     11     13     14      9   180.00  15.16700   2 ;     C7-    C6-    C4-    H4
    12     11     10     15      9   180.00  15.16700   2 ;     H6-    C6-    C7-    H7
    12     11     13     14      9   180.00  15.16700   2 ;     H6-    C6-    C4-    H4
    13     11     10     15      9   180.00  15.16700   2 ;     C4-    C6-    C7-    H7

[ dihedrals ] ; impropers
; treated as propers in GROMACS to use correct AMBER analytical function
;    i      j      k      l   func   phase     kd      pn
     5      8      6      7      4   180.00   4.60240   2 ;     C2-    C5-    C3-    H3
     5     11     13     14      4   180.00   4.60240   2 ;     C2-    C6-    C4-    H4
     6     10      8      9      4   180.00   4.60240   2 ;     C3-    C7-    C5-    H5
     6     13      5      2      4   180.00   4.60240   2 ;     C3-    C4-    C2-    C1
     8     11     10     15      4   180.00   4.60240   2 ;     C5-    C6-    C7-    H7
    10     13     11     12      4   180.00   4.60240   2 ;     C7-    C4-    C6-    H6
