; mobley_9114381_GMX.itp created by acpype (v: 2023.10.27) on Thu May 14 13:48:56 2026

[ atomtypes ]
;name   bond_type     mass     charge   ptype   sigma         epsilon       Amb
 c1       c1          0.00000  0.00000   A     3.47896e-01   6.67766e-01 ; 1.95  0.1596
 c        c           0.00000  0.00000   A     3.31521e-01   4.13379e-01 ; 1.86  0.0988
 c3       c3          0.00000  0.00000   A     3.39771e-01   4.51035e-01 ; 1.91  0.1078
 n1       n1          0.00000  0.00000   A     3.27352e-01   4.59403e-01 ; 1.84  0.1098
 o        o           0.00000  0.00000   A     3.04812e-01   6.12119e-01 ; 1.71  0.1463
 os       os          0.00000  0.00000   A     3.15610e-01   3.03758e-01 ; 1.77  0.0726
 h1       h1          0.00000  0.00000   A     2.42200e-01   8.70272e-02 ; 1.36  0.0208
 hc       hc          0.00000  0.00000   A     2.60018e-01   8.70272e-02 ; 1.46  0.0208

[ moleculetype ]
;name            nrexcl
 mobley_9114381   3

[ atoms ]
;   nr  type  resi  res  atom  cgnr     charge      mass       ; qtot   bond_type
     1   c1     1   MOL    C1    1     0.209700     12.01000 ; qtot 0.210
     2    c     1   MOL    C2    2     0.632101     12.01000 ; qtot 0.842
     3   c3     1   MOL    C3    3     0.124700     12.01000 ; qtot 0.967
     4   c3     1   MOL    C4    4    -0.066300     12.01000 ; qtot 0.900
     5   n1     1   MOL    N1    5    -0.337800     14.01000 ; qtot 0.562
     6    o     1   MOL    O1    6    -0.516000     16.00000 ; qtot 0.046
     7   os     1   MOL    O2    7    -0.433900     16.00000 ; qtot -0.387
     8   h1     1   MOL    H1    8     0.056033      1.00800 ; qtot -0.331
     9   h1     1   MOL    H2    9     0.056033      1.00800 ; qtot -0.275
    10   h1     1   MOL    H3   10     0.056033      1.00800 ; qtot -0.219
    11   hc     1   MOL    H4   11     0.109700      1.00800 ; qtot -0.110
    12   hc     1   MOL    H5   12     0.109700      1.00800 ; qtot 0.000

[ bonds ]
;   ai     aj funct   r             k
     1      4   1    1.4656e-01    2.3814e+05 ;     C1 - C4    
     1      5   1    1.1619e-01    6.2865e+05 ;     C1 - N1    
     2      4   1    1.5270e-01    1.9652e+05 ;     C2 - C4    
     2      6   1    1.2190e-01    4.9421e+05 ;     C2 - O1    
     2      7   1    1.3621e-01    2.9398e+05 ;     C2 - O2    
     3      7   1    1.4273e-01    2.3620e+05 ;     C3 - O2    
     3      8   1    1.0969e-01    2.8804e+05 ;     C3 - H1    
     3      9   1    1.0969e-01    2.8804e+05 ;     C3 - H2    
     3     10   1    1.0969e-01    2.8804e+05 ;     C3 - H3    
     4     11   1    1.0962e-01    2.8891e+05 ;     C4 - H4    
     4     12   1    1.0962e-01    2.8891e+05 ;     C4 - H5    

[ pairs ]
;   ai     aj    funct
     1      6      1 ;     C1 - O1    
     1      7      1 ;     C1 - O2    
     2      8      1 ;     C2 - H1    
     2      9      1 ;     C2 - H2    
     2     10      1 ;     C2 - H3    
     3      4      1 ;     C3 - C4    
     3      6      1 ;     C3 - O1    
     5      2      1 ;     N1 - C2    
     5     11      1 ;     N1 - H4    
     5     12      1 ;     N1 - H5    
     6     11      1 ;     O1 - H4    
     6     12      1 ;     O1 - H5    
     7     11      1 ;     O2 - H4    
     7     12      1 ;     O2 - H5    

[ angles ]
;   ai     aj     ak    funct   theta         cth
     1      4      2      1    1.1279e+02    5.1329e+02 ;     C1 - C4     - C2    
     1      4     11      1    1.0945e+02    3.7765e+02 ;     C1 - C4     - H4    
     1      4     12      1    1.0945e+02    3.7765e+02 ;     C1 - C4     - H5    
     2      4     11      1    1.0895e+02    3.6510e+02 ;     C2 - C4     - H4    
     2      4     12      1    1.0895e+02    3.6510e+02 ;     C2 - C4     - H5    
     2      7      3      1    1.1582e+02    7.4835e+02 ;     C2 - O2     - C3    
     4      1      5      1    1.7866e+02    4.8049e+02 ;     C4 - C1     - N1    
     4      2      6      1    1.2290e+02    6.3973e+02 ;     C4 - C2     - O1    
     4      2      7      1    1.1080e+02    6.5245e+02 ;     C4 - C2     - O2    
     6      2      7      1    1.2320e+02    8.4734e+02 ;     O1 - C2     - O2    
     7      3      8      1    1.1034e+02    4.7028e+02 ;     O2 - C3     - H1    
     7      3      9      1    1.1034e+02    4.7028e+02 ;     O2 - C3     - H2    
     7      3     10      1    1.1034e+02    4.7028e+02 ;     O2 - C3     - H3    
     8      3      9      1    1.0855e+02    2.9824e+02 ;     H1 - C3     - H2    
     8      3     10      1    1.0855e+02    2.9824e+02 ;     H1 - C3     - H3    
     9      3     10      1    1.0855e+02    2.9824e+02 ;     H2 - C3     - H3    
    11      4     12      1    1.0773e+02    2.9957e+02 ;     H4 - C4     - H5    

[ dihedrals ] ; propers
; for gromacs 4.5 or higher, using funct 9
;    i      j      k      l   func   phase     kd      pn
     1      4      2      6      9   180.00   0.00000   2 ;     C1-    C4-    C2-    O1
     1      4      2      7      9   180.00   0.00000   2 ;     C1-    C4-    C2-    O2
     2      7      3      8      9     0.00   1.60387   3 ;     C2-    O2-    C3-    H1
     2      7      3      9      9     0.00   1.60387   3 ;     C2-    O2-    C3-    H2
     2      7      3     10      9     0.00   1.60387   3 ;     C2-    O2-    C3-    H3
     3      7      2      4      9     0.00   3.13800   3 ;     C3-    O2-    C2-    C4
     3      7      2      4      9   180.00   7.90776   1 ;     C3-    O2-    C2-    C4
     3      7      2      4      9   180.00  13.76536   2 ;     C3-    O2-    C2-    C4
     3      7      2      6      9   180.00   5.85760   1 ;     C3-    O2-    C2-    O1
     3      7      2      6      9   180.00  11.29680   2 ;     C3-    O2-    C2-    O1
     5      1      4      2      9   180.00   0.00000   2 ;     N1-    C1-    C4-    C2
     5      1      4     11      9   180.00   0.00000   2 ;     N1-    C1-    C4-    H4
     5      1      4     12      9   180.00   0.00000   2 ;     N1-    C1-    C4-    H5
     6      2      4     11      9     0.00  16.86152   1 ;     O1-    C2-    C4-    H4
     6      2      4     11      9   180.00  15.31344   2 ;     O1-    C2-    C4-    H4
     6      2      4     12      9     0.00  16.86152   1 ;     O1-    C2-    C4-    H5
     6      2      4     12      9   180.00  15.31344   2 ;     O1-    C2-    C4-    H5
     7      2      4     11      9   180.00   0.00000   2 ;     O2-    C2-    C4-    H4
     7      2      4     12      9   180.00   0.00000   2 ;     O2-    C2-    C4-    H5

[ dihedrals ] ; impropers
; treated as propers in GROMACS to use correct AMBER analytical function
;    i      j      k      l   func   phase     kd      pn
     4      6      2      7      4   180.00   4.60240   2 ;     C4-    O1-    C2-    O2
