mobley_2517158_GMX.gro created by acpype (v: 2023.10.27) on Thu May 14 13:23:48 2026
 2648
    1MOL     C1    1   1.134   1.552   1.594
    1MOL     C2    2   1.282   1.568   1.626
    1MOL     C3    3   1.370   1.511   1.515
    1MOL     C4    4   1.518   1.524   1.549
    1MOL     C5    5   1.606   1.470   1.436
    1MOL     C6    6   1.756   1.480   1.465
    1MOL     C7    7   1.842   1.423   1.354
    1MOL    BR1    8   2.030   1.434   1.405
    1MOL     H1    9   1.073   1.594   1.675
    1MOL     H2   10   1.108   1.605   1.501
    1MOL     H3   11   1.108   1.447   1.582
    1MOL     H4   12   1.304   1.518   1.721
    1MOL     H5   13   1.304   1.675   1.640
    1MOL     H6   14   1.349   1.563   1.421
    1MOL     H7   15   1.345   1.405   1.499
    1MOL     H8   16   1.539   1.470   1.642
    1MOL     H9   17   1.542   1.630   1.567
    1MOL    H10   18   1.585   1.527   1.344
    1MOL    H11   19   1.580   1.366   1.415
    1MOL    H12   20   1.781   1.586   1.481
    1MOL    H13   21   1.778   1.429   1.560
    1MOL    H14   22   1.822   1.317   1.335
    1MOL    H15   23   1.832   1.479   1.261
    2SOL     OW   24   0.230   0.628   0.113
    2SOL    HW1   25   0.137   0.626   0.150
    2SOL    HW2   26   0.231   0.589   0.021
    3SOL     OW   27   0.225   0.275   0.996
    3SOL    HW1   28   0.260   0.258   1.088
    3SOL    HW2   29   0.137   0.230   0.984
    4SOL     OW   30   0.019   0.368   0.647
    4SOL    HW1   31  -0.063   0.411   0.686
    4SOL    HW2   32  -0.009   0.295   0.584
    5SOL     OW   33   0.569   1.275   1.165
    5SOL    HW1   34   0.476   1.268   1.128
    5SOL    HW2   35   0.580   1.364   1.209
    6SOL     OW   36   1.555   1.511   0.703
    6SOL    HW1   37   1.498   1.495   0.784
    6SOL    HW2   38   1.496   1.521   0.623
    7SOL     OW   39   1.135   0.703   0.717
    7SOL    HW1   40   1.192   0.781   0.692
    7SOL    HW2   41   1.075   0.729   0.793
    8SOL     OW   42   1.755   0.607   0.231
    8SOL    HW1   43   1.743   0.594   0.132
    8SOL    HW2   44   1.725   0.526   0.280
    9SOL     OW   45   0.768   1.144   1.023
    9SOL    HW1   46   0.690   1.161   1.083
    9SOL    HW2   47   0.802   1.231   0.987
   10SOL     OW   48   0.850   0.798   1.823
   10SOL    HW1   49   0.846   0.874   1.888
   10SOL    HW2   50   0.872   0.834   1.732
   11SOL     OW   51   0.685   1.012   0.665
   11SOL    HW1   52   0.754   0.996   0.735
   11SOL    HW2   53   0.612   1.069   0.703
   12SOL     OW   54   0.686   1.161   1.803
   12SOL    HW1   55   0.746   1.240   1.817
   12SOL    HW2   56   0.600   1.192   1.762
   13SOL     OW   57   0.335   1.435   1.061
   13SOL    HW1   58   0.257   1.404   1.008
   13SOL    HW2   59   0.393   1.493   1.004
   14SOL     OW   60   0.438   0.392   1.499
   14SOL    HW1   61   0.520   0.336   1.508
   14SOL    HW2   62   0.357   0.334   1.503
   15SOL     OW   63   1.603   0.447   0.737
   15SOL    HW1   64   1.529   0.493   0.687
   15SOL    HW2   65   1.654   0.515   0.790
   16SOL     OW   66   0.231   1.713   0.483
   16SOL    HW1   67   0.265   1.790   0.537
   16SOL    HW2   68   0.275   1.713   0.393
   17SOL     OW   69   0.230   1.434   0.538
   17SOL    HW1   70   0.204   1.530   0.538
   17SOL    HW2   71   0.159   1.380   0.583
   18SOL     OW   72   0.240   1.091   0.886
   18SOL    HW1   73   0.254   1.007   0.938
   18SOL    HW2   74   0.185   1.155   0.941
   19SOL     OW   75   0.620   1.786   1.439
   19SOL    HW1   76   0.528   1.769   1.474
   19SOL    HW2   77   0.648   1.878   1.465
   20SOL     OW   78   0.606   0.964   0.123
   20SOL    HW1   79   0.613   1.048   0.069
   20SOL    HW2   80   0.652   0.977   0.211
   21SOL     OW   81   1.594   0.114   1.480
   21SOL    HW1   82   1.576   0.181   1.408
   21SOL    HW2   83   1.591   0.160   1.569
   22SOL     OW   84   0.122   0.643   0.563
   22SOL    HW1   85   0.077   0.555   0.580
   22SOL    HW2   86   0.121   0.697   0.647
   23SOL     OW   87   1.842   1.767   0.359
   23SOL    HW1   88   1.896   1.738   0.439
   23SOL    HW2   89   1.872   1.857   0.330
   24SOL     OW   90   0.027   1.596   0.117
   24SOL    HW1   91   0.008   1.500   0.138
   24SOL    HW2   92  -0.006   1.654   0.192
   25SOL     OW   93   1.689   0.922   0.612
   25SOL    HW1   94   1.784   0.893   0.620
   25SOL    HW2   95   1.681   0.987   0.537
   26SOL     OW   96   1.641   1.108   0.432
   26SOL    HW1   97   1.727   1.110   0.380
   26SOL    HW2   98   1.655   1.155   0.520
   27SOL     OW   99   0.113   0.737   1.597
   27SOL    HW1  100   0.201   0.724   1.642
   27SOL    HW2  101   0.100   0.834   1.575
   28SOL     OW  102   0.613   1.365   0.726
   28SOL    HW1  103   0.564   1.278   0.735
   28SOL    HW2  104   0.590   1.408   0.639
   29SOL     OW  105   1.293   1.228   1.423
   29SOL    HW1  106   1.330   1.155   1.365
   29SOL    HW2  107   1.345   1.233   1.508
   30SOL     OW  108   0.809   0.004   0.502
   30SOL    HW1  109   0.849   0.095   0.493
   30SOL    HW2  110   0.709   0.012   0.508
   31SOL     OW  111   0.197   0.976   1.264
   31SOL    HW1  112   0.286   0.931   1.250
   31SOL    HW2  113   0.124   0.911   1.245
   32SOL     OW  114   1.525   0.999   0.190
   32SOL    HW1  115   1.462   0.923   0.203
   32SOL    HW2  116   1.573   1.017   0.276
   33SOL     OW  117   0.317   0.251   1.801
   33SOL    HW1  118   0.388   0.322   1.807
   33SOL    HW2  119   0.229   0.290   1.829
   34SOL     OW  120   1.466   1.417   0.953
   34SOL    HW1  121   1.407   1.423   1.033
   34SOL    HW2  122   1.451   1.329   0.907
   35SOL     OW  123   1.667   1.714   0.572
   35SOL    HW1  124   1.626   1.691   0.484
   35SOL    HW2  125   1.649   1.640   0.637
   36SOL     OW  126   0.598   0.729   0.270
   36SOL    HW1  127   0.622   0.798   0.202
   36SOL    HW2  128   0.520   0.762   0.324
   37SOL     OW  129   1.281   0.345   0.944
   37SOL    HW1  130   1.195   0.295   0.931
   37SOL    HW2  131   1.343   0.291   1.000
   38SOL     OW  132   1.576   1.662   0.307
   38SOL    HW1  133   1.665   1.708   0.310
   38SOL    HW2  134   1.555   1.638   0.212
   39SOL     OW  135   0.807   0.605   1.465
   39SOL    HW1  136   0.760   0.602   1.554
   39SOL    HW2  137   0.756   0.550   1.399
   40SOL     OW  138   1.394   0.469   1.674
   40SOL    HW1  139   1.374   0.512   1.762
   40SOL    HW2  140   1.472   0.407   1.683
   41SOL     OW  141   0.973   0.890   1.572
   41SOL    HW1  142   1.019   0.806   1.543
   41SOL    HW2  143   0.917   0.924   1.497
   42SOL     OW  144   0.991   0.410   1.242
   42SOL    HW1  145   0.914   0.444   1.296
   42SOL    HW2  146   0.957   0.359   1.163
   43SOL     OW  147   1.041   0.701   0.429
   43SOL    HW1  148   1.067   0.697   0.525
   43SOL    HW2  149   0.956   0.650   0.415
   44SOL     OW  150   0.076   0.811   0.789
   44SOL    HW1  151   0.175   0.799   0.798
   44SOL    HW2  152   0.052   0.906   0.810
   45SOL     OW  153   0.130   1.821   1.571
   45SOL    HW1  154   0.120   1.806   1.670
   45SOL    HW2  155   0.044   1.857   1.535
   46SOL     OW  156   0.865   0.348   0.195
   46SOL    HW1  157   0.924   0.411   0.146
   46SOL    HW2  158   0.884   0.254   0.166
   47SOL     OW  159   1.719   0.585   1.831
   47SOL    HW1  160   1.693   0.674   1.795
   47SOL    HW2  161   1.717   0.517   1.758
   48SOL     OW  162   1.362   1.144   0.545
   48SOL    HW1  163   1.445   1.115   0.497
   48SOL    HW2  164   1.313   1.211   0.489
   49SOL     OW  165   0.550   0.196   0.885
   49SOL    HW1  166   0.545   0.191   0.985
   49SOL    HW2  167   0.552   0.292   0.856
   50SOL     OW  168   1.008   1.456   0.477
   50SOL    HW1  169   0.962   1.528   0.425
   50SOL    HW2  170   1.004   1.476   0.575
   51SOL     OW  171   0.351   1.801   0.853
   51SOL    HW1  172   0.401   1.715   0.859
   51SOL    HW2  173   0.416   1.878   0.850
   52SOL     OW  174   1.795   1.066   0.873
   52SOL    HW1  175   1.733   1.051   0.797
   52SOL    HW2  176   1.743   1.077   0.958
   53SOL     OW  177   0.321   0.943   0.242
   53SOL    HW1  178   0.403   0.982   0.200
   53SOL    HW2  179   0.294   0.861   0.193
   54SOL     OW  180   1.458   0.735   0.728
   54SOL    HW1  181   1.453   0.670   0.803
   54SOL    HW2  182   1.538   0.794   0.741
   55SOL     OW  183   0.461   1.266   1.727
   55SOL    HW1  184   0.411   1.267   1.641
   55SOL    HW2  185   0.398   1.248   1.803
   56SOL     OW  186   1.111   1.776   0.237
   56SOL    HW1  187   1.051   1.714   0.287
   56SOL    HW2  188   1.142   1.732   0.152
   57SOL     OW  189   0.202   0.285   1.498
   57SOL    HW1  190   0.122   0.345   1.485
   57SOL    HW2  191   0.192   0.236   1.584
   58SOL     OW  192   1.632   1.377   0.081
   58SOL    HW1  193   1.600   1.471   0.071
   58SOL    HW2  194   1.556   1.314   0.069
   59SOL     OW  195   0.464   1.743   0.323
   59SOL    HW1  196   0.497   1.782   0.409
   59SOL    HW2  197   0.540   1.736   0.258
   60SOL     OW  198   1.400   0.107   0.426
   60SOL    HW1  199   1.376   0.070   0.336
   60SOL    HW2  200   1.499   0.123   0.430
   61SOL     OW  201   0.249   1.785   1.241
   61SOL    HW1  202   0.306   1.720   1.291
   61SOL    HW2  203   0.233   1.752   1.148
   62SOL     OW  204   0.940   1.698   0.904
   62SOL    HW1  205   1.020   1.641   0.925
   62SOL    HW2  206   0.891   1.658   0.827
   63SOL     OW  207   0.382   0.700   0.480
   63SOL    HW1  208   0.427   0.610   0.477
   63SOL    HW2  209   0.288   0.689   0.513
   64SOL     OW  210   1.547   0.222   1.729
   64SOL    HW1  211   1.542   0.259   1.821
   64SOL    HW2  212   1.475   0.153   1.717
   65SOL     OW  213   0.614   0.122   0.117
   65SOL    HW1  214   0.712   0.100   0.124
   65SOL    HW2  215   0.583   0.105   0.024
   66SOL     OW  216   0.781   0.264   1.749
   66SOL    HW1  217   0.848   0.203   1.792
   66SOL    HW2  218   0.708   0.283   1.814
   67SOL     OW  219   0.888   1.514   1.195
   67SOL    HW1  220   0.865   1.489   1.101
   67SOL    HW2  221   0.949   1.445   1.234
   68SOL     OW  222   1.351   0.590   1.433
   68SOL    HW1  223   1.379   0.547   1.518
   68SOL    HW2  224   1.376   0.686   1.434
   69SOL     OW  225   0.803   1.402   0.924
   69SOL    HW1  226   0.893   1.416   0.882
   69SOL    HW2  227   0.732   1.404   0.853
   70SOL     OW  228   0.922   0.503   0.899
   70SOL    HW1  229   0.897   0.494   0.803
   70SOL    HW2  230   0.970   0.421   0.930
   71SOL     OW  231   0.539   0.064   0.512
   71SOL    HW1  232   0.458   0.065   0.570
   71SOL    HW2  233   0.542   0.147   0.457
   72SOL     OW  234   1.434   1.188   0.041
   72SOL    HW1  235   1.466   1.112   0.098
   72SOL    HW2  236   1.342   1.215   0.071
   73SOL     OW  237   0.297   0.035   0.171
   73SOL    HW1  238   0.346   0.119   0.150
   73SOL    HW2  239   0.359  -0.030   0.216
   74SOL     OW  240   0.935   0.236   0.480
   74SOL    HW1  241   0.887   0.277   0.402
   74SOL    HW2  242   1.034   0.234   0.461
   75SOL     OW  243   1.076   0.683   1.464
   75SOL    HW1  244   0.996   0.622   1.467
   75SOL    HW2  245   1.157   0.630   1.440
   76SOL     OW  246   1.227   1.570   0.793
   76SOL    HW1  247   1.248   1.644   0.728
   76SOL    HW2  248   1.295   1.570   0.866
   77SOL     OW  249   0.459   1.152   0.741
   77SOL    HW1  250   0.388   1.125   0.806
   77SOL    HW2  251   0.433   1.124   0.648
   78SOL     OW  252   1.271   1.797   0.591
   78SOL    HW1  253   1.315   1.861   0.527
   78SOL    HW2  254   1.221   1.849   0.661
   79SOL     OW  255   1.032   0.549   0.016
   79SOL    HW1  256   0.991   0.631  -0.023
   79SOL    HW2  257   1.096   0.575   0.089
   80SOL     OW  258   0.078   0.556   1.386
   80SOL    HW1  259   0.170   0.555   1.345
   80SOL    HW2  260   0.072   0.630   1.453
   81SOL     OW  261   0.561   0.222   1.147
   81SOL    HW1  262   0.599   0.138   1.184
   81SOL    HW2  263   0.473   0.241   1.191
   82SOL     OW  264   0.866   0.454   0.642
   82SOL    HW1  265   0.834   0.526   0.580
   82SOL    HW2  266   0.890   0.373   0.589
   83SOL     OW  267   1.017   0.039   0.753
   83SOL    HW1  268   0.945   0.044   0.684
   83SOL    HW2  269   0.993  -0.030   0.822
   84SOL     OW  270   1.429   1.173   0.867
   84SOL    HW1  271   1.374   1.089   0.860
   84SOL    HW2  272   1.455   1.202   0.775
   85SOL     OW  273   1.466   0.590   0.992
   85SOL    HW1  274   1.436   0.495   0.999
   85SOL    HW2  275   1.539   0.606   1.058
   86SOL     OW  276   1.857   0.833   0.377
   86SOL    HW1  277   1.899   0.769   0.441
   86SOL    HW2  278   1.819   0.782   0.299
   87SOL     OW  279   0.488   1.385   0.174
   87SOL    HW1  280   0.401   1.370   0.221
   87SOL    HW2  281   0.471   1.411   0.079
   88SOL     OW  282   1.664   1.280   0.657
   88SOL    HW1  283   1.763   1.288   0.671
   88SOL    HW2  284   1.619   1.364   0.688
   89SOL     OW  285   1.390   0.575   0.078
   89SOL    HW1  286   1.336   0.554   0.159
   89SOL    HW2  287   1.481   0.534   0.087
   90SOL     OW  288   0.527   0.256   0.328
   90SOL    HW1  289   0.554   0.197   0.253
   90SOL    HW2  290   0.527   0.351   0.297
   91SOL     OW  291   1.064   1.347   1.340
   91SOL    HW1  292   0.984   1.324   1.395
   91SOL    HW2  293   1.147   1.321   1.389
   92SOL     OW  294   1.111   1.195   1.100
   92SOL    HW1  295   1.071   1.239   1.181
   92SOL    HW2  296   1.070   1.232   1.017
   93SOL     OW  297   1.638   1.099   1.079
   93SOL    HW1  298   1.643   1.180   1.138
   93SOL    HW2  299   1.552   1.101   1.028
   94SOL     OW  300   0.915   0.089   1.402
   94SOL    HW1  301   0.940   0.069   1.307
   94SOL    HW2  302   0.987   0.145   1.444
   95SOL     OW  303   0.980   1.116   1.719
   95SOL    HW1  304   0.881   1.122   1.729
   95SOL    HW2  305   1.003   1.036   1.663
   96SOL     OW  306   0.705   1.050   0.368
   96SOL    HW1  307   0.691   1.057   0.467
   96SOL    HW2  308   0.789   0.999   0.350
   97SOL     OW  309   0.410   0.813   1.251
   97SOL    HW1  310   0.496   0.825   1.301
   97SOL    HW2  311   0.368   0.726   1.278
   98SOL     OW  312   1.274   0.386   1.262
   98SOL    HW1  313   1.295   0.460   1.326
   98SOL    HW2  314   1.185   0.403   1.219
   99SOL     OW  315   0.064   1.564   1.331
   99SOL    HW1  316   0.018   1.646   1.297
   99SOL    HW2  317   0.162   1.583   1.340
  100SOL     OW  318   0.367   1.100   0.501
  100SOL    HW1  319   0.360   1.183   0.445
  100SOL    HW2  320   0.371   1.020   0.441
  101SOL     OW  321   0.566   0.537   0.865
  101SOL    HW1  322   0.578   0.603   0.791
  101SOL    HW2  323   0.612   0.571   0.948
  102SOL     OW  324   1.252   1.348   0.388
  102SOL    HW1  325   1.302   1.425   0.428
  102SOL    HW2  326   1.157   1.350   0.420
  103SOL     OW  327   1.272   1.445   1.142
  103SOL    HW1  328   1.319   1.458   1.229
  103SOL    HW2  329   1.206   1.371   1.151
  104SOL     OW  330   1.582   0.639   0.472
  104SOL    HW1  331   1.551   0.700   0.545
  104SOL    HW2  332   1.632   0.691   0.403
  105SOL     OW  333   0.354   1.510   1.329
  105SOL    HW1  334   0.333   1.466   1.242
  105SOL    HW2  335   0.451   1.536   1.332
  106SOL     OW  336   0.402   0.751   1.598
  106SOL    HW1  337   0.470   0.806   1.551
  106SOL    HW2  338   0.442   0.663   1.625
  107SOL     OW  339   1.587   0.779   1.670
  107SOL    HW1  340   1.495   0.817   1.665
  107SOL    HW2  341   1.647   0.826   1.605
  108SOL     OW  342   1.013   0.105   1.770
  108SOL    HW1  343   1.019   0.190   1.718
  108SOL    HW2  344   1.045   0.029   1.713
  109SOL     OW  345   0.504   0.050   1.740
  109SOL    HW1  346   0.462  -0.007   1.670
  109SOL    HW2  347   0.438   0.119   1.772
  110SOL     OW  348   0.573   0.870   1.029
  110SOL    HW1  349   0.617   0.959   1.020
  110SOL    HW2  350   0.510   0.870   1.106
  111SOL     OW  351   1.360   0.862   1.045
  111SOL    HW1  352   1.285   0.862   0.979
  111SOL    HW2  353   1.397   0.770   1.054
  112SOL     OW  354   1.209   0.525   0.275
  112SOL    HW1  355   1.222   0.441   0.329
  112SOL    HW2  356   1.180   0.599   0.335
  113SOL     OW  357   0.307   0.213   1.231
  113SOL    HW1  358   0.284   0.250   1.321
  113SOL    HW2  359   0.277   0.118   1.225
  114SOL     OW  360   0.037   1.310   1.282
  114SOL    HW1  361   0.090   1.261   1.350
  114SOL    HW2  362   0.059   1.408   1.287
  115SOL     OW  363   0.732   0.634   1.064
  115SOL    HW1  364   0.791   0.608   0.988
  115SOL    HW2  365   0.704   0.730   1.053
  116SOL     OW  366   1.728   0.935   1.854
  116SOL    HW1  367   1.682   0.928   1.765
  116SOL    HW2  368   1.666   0.979   1.920
  117SOL     OW  369   0.307   0.063   0.618
  117SOL    HW1  370   0.296   0.157   0.651
  117SOL    HW2  371   0.302   0.000   0.695
  118SOL     OW  372   1.622   0.367   0.374
  118SOL    HW1  373   1.624   0.291   0.438
  118SOL    HW2  374   1.574   0.444   0.414
  119SOL     OW  375   1.023   0.766   0.966
  119SOL    HW1  376   1.038   0.787   1.062
  119SOL    HW2  377   0.993   0.671   0.957
  120SOL     OW  378   0.350   0.898   1.804
  120SOL    HW1  379   0.426   0.942   1.852
  120SOL    HW2  380   0.385   0.851   1.722
  121SOL     OW  381   1.540   0.274   0.125
  121SOL    HW1  382   1.479   0.199   0.148
  121SOL    HW2  383   1.562   0.326   0.208
  122SOL     OW  384   1.303   0.838   0.042
  122SOL    HW1  385   1.337   0.745   0.057
  122SOL    HW2  386   1.321   0.865  -0.053
  123SOL     OW  387   1.068   1.333   0.849
  123SOL    HW1  388   1.075   1.249   0.794
  123SOL    HW2  389   1.130   1.402   0.813
  124SOL     OW  390   0.319   0.810   0.949
  124SOL    HW1  391   0.412   0.846   0.954
  124SOL    HW2  392   0.313   0.725   1.001
  125SOL     OW  393   0.339   0.509   1.006
  125SOL    HW1  394   0.287   0.426   0.989
  125SOL    HW2  395   0.416   0.514   0.942
  126SOL     OW  396   1.138   0.380   1.678
  126SOL    HW1  397   1.093   0.443   1.742
  126SOL    HW2  398   1.231   0.411   1.661
  127SOL     OW  399   1.160   0.207   1.477
  127SOL    HW1  400   1.160   0.271   1.554
  127SOL    HW2  401   1.188   0.255   1.394
  128SOL     OW  402   0.008   1.326   0.200
  128SOL    HW1  403  -0.085   1.347   0.169
  128SOL    HW2  404   0.018   1.227   0.213
  129SOL     OW  405   0.088   1.801   0.927
  129SOL    HW1  406   0.046   1.715   0.900
  129SOL    HW2  407   0.182   1.804   0.893
  130SOL     OW  408   0.504   1.568   0.910
  130SOL    HW1  409   0.570   1.642   0.919
  130SOL    HW2  410   0.548   1.489   0.868
  131SOL     OW  411   1.002   0.796   1.238
  131SOL    HW1  412   1.043   0.764   1.324
  131SOL    HW2  413   0.906   0.769   1.235
  132SOL     OW  414   0.040   0.544   1.114
  132SOL    HW1  415   0.125   0.511   1.073
  132SOL    HW2  416   0.053   0.559   1.212
  133SOL     OW  417   0.189   0.520   1.722
  133SOL    HW1  418   0.248   0.480   1.652
  133SOL    HW2  419   0.131   0.591   1.681
  134SOL     OW  420   1.369   0.950   1.660
  134SOL    HW1  421   1.408   1.039   1.680
  134SOL    HW2  422   1.379   0.930   1.563
  135SOL     OW  423   0.815   0.572   0.325
  135SOL    HW1  424   0.822   0.483   0.279
  135SOL    HW2  425   0.721   0.606   0.317
  136SOL     OW  426   1.657   0.604   1.206
  136SOL    HW1  427   1.619   0.535   1.268
  136SOL    HW2  428   1.739   0.568   1.162
  137SOL     OW  429   0.252   1.564   1.744
  137SOL    HW1  430   0.222   1.621   1.820
  137SOL    HW2  431   0.245   1.467   1.770
  138SOL     OW  432   0.671   0.464   1.269
  138SOL    HW1  433   0.637   0.375   1.239
  138SOL    HW2  434   0.697   0.518   1.189
  139SOL     OW  435   0.930   1.678   1.465
  139SOL    HW1  436   0.906   1.660   1.370
  139SOL    HW2  437   0.960   1.772   1.475
  140SOL     OW  438   0.473   0.500   0.191
  140SOL    HW1  439   0.534   0.580   0.195
  140SOL    HW2  440   0.378   0.531   0.198
  141SOL     OW  441   0.159   1.137   1.466
  141SOL    HW1  442   0.181   1.076   1.542
  141SOL    HW2  443   0.169   1.088   1.380
  142SOL     OW  444   1.347   1.059   1.234
  142SOL    HW1  445   1.371   0.996   1.160
  142SOL    HW2  446   1.257   1.099   1.216
  143SOL     OW  447   1.302   0.855   0.309
  143SOL    HW1  448   1.216   0.824   0.351
  143SOL    HW2  449   1.298   0.841   0.210
  144SOL     OW  450   1.759   1.747   1.154
  144SOL    HW1  451   1.820   1.777   1.081
  144SOL    HW2  452   1.721   1.658   1.132
  145SOL     OW  453   1.252   1.731   1.128
  145SOL    HW1  454   1.336   1.736   1.074
  145SOL    HW2  455   1.229   1.635   1.146
  146SOL     OW  456   0.083   1.258   1.022
  146SOL    HW1  457   0.078   1.257   1.122
  146SOL    HW2  458   0.000   1.217   0.984
  147SOL     OW  459   0.688   1.662   1.716
  147SOL    HW1  460   0.632   1.743   1.725
  147SOL    HW2  461   0.740   1.666   1.630
  148SOL     OW  462   0.903   0.086   0.133
  148SOL    HW1  463   0.954   0.087   0.047
  148SOL    HW2  464   0.959   0.044   0.204
  149SOL     OW  465   1.726   0.135   0.523
  149SOL    HW1  466   1.799   0.118   0.456
  149SOL    HW2  467   1.695   0.048   0.561
  150SOL     OW  468   1.388   1.573   0.477
  150SOL    HW1  469   1.455   1.585   0.403
  150SOL    HW2  470   1.348   1.662   0.500
  151SOL     OW  471   0.130   1.794   1.851
  151SOL    HW1  472   0.089   1.720   1.904
  151SOL    HW2  473   0.194   1.845   1.909
  152SOL     OW  474   1.280   0.927   0.672
  152SOL    HW1  475   1.340   0.846   0.674
  152SOL    HW2  476   1.320   0.996   0.612
  153SOL     OW  477   0.830   1.273   1.422
  153SOL    HW1  478   0.825   1.306   1.517
  153SOL    HW2  479   0.744   1.292   1.376
  154SOL     OW  480   0.672   1.616   0.154
  154SOL    HW1  481   0.681   1.626   0.055
  154SOL    HW2  482   0.632   1.527   0.175
  155SOL     OW  483   1.650   1.720   1.394
  155SOL    HW1  484   1.703   1.730   1.310
  155SOL    HW2  485   1.623   1.810   1.428
  156SOL     OW  486   1.841   0.175   0.963
  156SOL    HW1  487   1.880   0.090   0.927
  156SOL    HW2  488   1.743   0.177   0.944
  157SOL     OW  489   0.263   0.326   0.720
  157SOL    HW1  490   0.184   0.377   0.686
  157SOL    HW2  491   0.254   0.311   0.818
  158SOL     OW  492   1.194   1.612   0.031
  158SOL    HW1  493   1.200   1.519   0.068
  158SOL    HW2  494   1.135   1.612  -0.049
  159SOL     OW  495   0.822   1.002   1.372
  159SOL    HW1  496   0.862   1.001   1.280
  159SOL    HW2  497   0.832   1.094   1.412
  160SOL     OW  498   0.916   0.910   0.291
  160SOL    HW1  499   0.979   0.948   0.223
  160SOL    HW2  500   0.956   0.827   0.330
  161SOL     OW  501   1.504   1.607   0.044
  161SOL    HW1  502   1.412   1.644   0.051
  161SOL    HW2  503   1.542   1.627  -0.046
  162SOL     OW  504   0.372   1.288   1.490
  162SOL    HW1  505   0.359   1.381   1.456
  162SOL    HW2  506   0.288   1.236   1.477
  163SOL     OW  507   1.039   1.098   0.696
  163SOL    HW1  508   0.969   1.051   0.750
  163SOL    HW2  509   1.098   1.030   0.653
  164SOL     OW  510   1.014   0.236   0.971
  164SOL    HW1  511   1.006   0.200   0.878
  164SOL    HW2  512   1.012   0.160   1.036
  165SOL     OW  513   0.590   1.487   0.491
  165SOL    HW1  514   0.632   1.429   0.421
  165SOL    HW2  515   0.546   1.566   0.447
  166SOL     OW  516   1.709   0.385   1.381
  166SOL    HW1  517   1.782   0.454   1.385
  166SOL    HW2  518   1.737   0.310   1.322
  167SOL     OW  519   0.255   1.348   0.290
  167SOL    HW1  520   0.159   1.349   0.263
  167SOL    HW2  521   0.267   1.401   0.374
  168SOL     OW  522   0.105   1.013   1.726
  168SOL    HW1  523   0.028   0.980   1.780
  168SOL    HW2  524   0.190   0.983   1.768
  169SOL     OW  525   0.672   0.203   1.489
  169SOL    HW1  526   0.762   0.187   1.449
  169SOL    HW2  527   0.680   0.208   1.588
  170SOL     OW  528   0.075   0.345   0.033
  170SOL    HW1  529  -0.017   0.317   0.004
  170SOL    HW2  530   0.106   0.422  -0.023
  171SOL     OW  531   1.440   0.856   1.398
  171SOL    HW1  532   1.383   0.908   1.335
  171SOL    HW2  533   1.536   0.868   1.374
  172SOL     OW  534   0.072   0.166   0.318
  172SOL    HW1  535   0.055   0.249   0.264
  172SOL    HW2  536   0.162   0.129   0.296
  173SOL     OW  537   1.183   1.335   0.119
  173SOL    HW1  538   1.084   1.324   0.121
  173SOL    HW2  539   1.217   1.350   0.212
  174SOL     OW  540   0.613   0.842   1.431
  174SOL    HW1  541   0.669   0.923   1.414
  174SOL    HW2  542   0.672   0.762   1.434
  175SOL     OW  543   1.493   1.767   0.959
  175SOL    HW1  544   1.526   1.831   0.890
  175SOL    HW2  545   1.559   1.761   1.034
  176SOL     OW  546   0.716   0.565   1.708
  176SOL    HW1  547   0.735   0.630   1.782
  176SOL    HW2  548   0.776   0.485   1.717
  177SOL     OW  549   1.450   1.220   1.633
  177SOL    HW1  550   1.441   1.210   1.732
  177SOL    HW2  551   1.546   1.213   1.607
  178SOL     OW  552   0.390   1.741   1.560
  178SOL    HW1  553   0.299   1.782   1.558
  178SOL    HW2  554   0.383   1.647   1.592
  179SOL     OW  555   1.674   0.883   1.254
  179SOL    HW1  556   1.647   0.794   1.217
  179SOL    HW2  557   1.675   0.951   1.181
  180SOL     OW  558   1.225   0.325   0.449
  180SOL    HW1  559   1.290   0.251   0.438
  180SOL    HW2  560   1.245   0.375   0.533
  181SOL     OW  561   0.594   0.745   0.652
  181SOL    HW1  562   0.644   0.830   0.633
  181SOL    HW2  563   0.506   0.747   0.604
  182SOL     OW  564   1.777   0.342   1.642
  182SOL    HW1  565   1.760   0.373   1.548
  182SOL    HW2  566   1.693   0.305   1.680
  183SOL     OW  567   1.730   0.934   1.517
  183SOL    HW1  568   1.768   1.025   1.532
  183SOL    HW2  569   1.722   0.917   1.418
  184SOL     OW  570   0.859   1.374   0.016
  184SOL    HW1  571   0.813   1.389   0.104
  184SOL    HW2  572   0.903   1.459  -0.014
  185SOL     OW  573   0.661   1.790   0.953
  185SOL    HW1  574   0.615   1.878   0.940
  185SOL    HW2  575   0.760   1.802   0.946
  186SOL     OW  576   0.859   0.956   0.861
  186SOL    HW1  577   0.913   0.887   0.909
  186SOL    HW2  578   0.827   1.025   0.927
  187SOL     OW  579   1.083   0.984   0.087
  187SOL    HW1  580   1.060   1.037   0.005
  187SOL    HW2  581   1.164   0.928   0.068
  188SOL     OW  582   1.861   1.569   0.851
  188SOL    HW1  583   1.790   1.557   0.781
  188SOL    HW2  584   1.862   1.490   0.911
  189SOL     OW  585   0.221   1.314   1.844
  189SOL    HW1  586   0.156   1.241   1.823
  189SOL    HW2  587   0.225   1.328   1.942
  190SOL     OW  588   0.079   1.240   0.653
  190SOL    HW1  589   0.078   1.193   0.741
  190SOL    HW2  590   0.161   1.212   0.602
  191SOL     OW  591   0.672   1.391   1.624
  191SOL    HW1  592   0.594   1.341   1.662
  191SOL    HW2  593   0.669   1.486   1.655
  192SOL     OW  594   1.824   0.192   1.227
  192SOL    HW1  595   1.820   0.102   1.271
  192SOL    HW2  596   1.827   0.181   1.128
  193SOL     OW  597   0.428   0.424   0.520
  193SOL    HW1  598   0.458   0.352   0.458
  193SOL    HW2  599   0.389   0.384   0.603
  194SOL     OW  600   0.317   0.547   1.280
  194SOL    HW1  601   0.355   0.488   1.352
  194SOL    HW2  602   0.357   0.521   1.192
  195SOL     OW  603   0.812   1.586   0.687
  195SOL    HW1  604   0.844   1.596   0.593
  195SOL    HW2  605   0.733   1.524   0.689
  196SOL     OW  606   1.424   0.214   1.112
  196SOL    HW1  607   1.476   0.149   1.167
  196SOL    HW2  608   1.375   0.277   1.173
  197SOL     OW  609   1.001   0.034   1.154
  197SOL    HW1  610   0.938  -0.038   1.123
  197SOL    HW2  611   1.094  -0.002   1.154
  198SOL     OW  612   0.770   1.330   0.301
  198SOL    HW1  613   0.724   1.243   0.318
  198SOL    HW2  614   0.861   1.327   0.342
  199SOL     OW  615   0.618   1.567   1.284
  199SOL    HW1  616   0.613   1.649   1.341
  199SOL    HW2  617   0.707   1.564   1.239
  200SOL     OW  618   1.352   0.052   0.168
  200SOL    HW1  619   1.387   0.011   0.084
  200SOL    HW2  620   1.262   0.014   0.188
  201SOL     OW  621   1.300   0.453   0.691
  201SOL    HW1  622   1.241   0.533   0.695
  201SOL    HW2  623   1.315   0.418   0.784
  202SOL     OW  624   1.593   0.221   0.882
  202SOL    HW1  625   1.509   0.220   0.936
  202SOL    HW2  626   1.595   0.304   0.826
  203SOL     OW  627   0.039   1.077   0.300
  203SOL    HW1  628   0.138   1.066   0.291
  203SOL    HW2  629  -0.001   0.991   0.332
  204SOL     OW  630   0.875   1.646   0.337
  204SOL    HW1  631   0.798   1.611   0.283
  204SOL    HW2  632   0.843   1.717   0.399
  205SOL     OW  633   0.230   0.628   1.975
  205SOL    HW1  634   0.137   0.626   2.012
  205SOL    HW2  635   0.231   0.589   1.883
  206SOL     OW  636   0.225   0.275   2.858
  206SOL    HW1  637   0.260   0.258   2.950
  206SOL    HW2  638   0.137   0.230   2.846
  207SOL     OW  639   0.019   0.368   2.509
  207SOL    HW1  640  -0.063   0.411   2.548
  207SOL    HW2  641  -0.009   0.295   2.446
  208SOL     OW  642   1.555   1.511   2.565
  208SOL    HW1  643   1.498   1.495   2.646
  208SOL    HW2  644   1.496   1.521   2.485
  209SOL     OW  645   1.135   0.703   2.579
  209SOL    HW1  646   1.192   0.781   2.554
  209SOL    HW2  647   1.075   0.729   2.655
  210SOL     OW  648   1.755   0.607   2.093
  210SOL    HW1  649   1.743   0.594   1.994
  210SOL    HW2  650   1.725   0.526   2.142
  211SOL     OW  651   0.768   1.144   2.885
  211SOL    HW1  652   0.690   1.161   2.945
  211SOL    HW2  653   0.802   1.231   2.849
  212SOL     OW  654   0.685   1.012   2.527
  212SOL    HW1  655   0.754   0.996   2.597
  212SOL    HW2  656   0.612   1.069   2.565
  213SOL     OW  657   0.335   1.435   2.923
  213SOL    HW1  658   0.257   1.404   2.870
  213SOL    HW2  659   0.393   1.493   2.866
  214SOL     OW  660   1.603   0.447   2.599
  214SOL    HW1  661   1.529   0.493   2.549
  214SOL    HW2  662   1.654   0.515   2.652
  215SOL     OW  663   0.231   1.713   2.345
  215SOL    HW1  664   0.265   1.790   2.399
  215SOL    HW2  665   0.275   1.713   2.255
  216SOL     OW  666   0.230   1.434   2.400
  216SOL    HW1  667   0.204   1.530   2.400
  216SOL    HW2  668   0.159   1.380   2.445
  217SOL     OW  669   0.240   1.091   2.748
  217SOL    HW1  670   0.254   1.007   2.800
  217SOL    HW2  671   0.185   1.155   2.803
  218SOL     OW  672   0.606   0.964   1.985
  218SOL    HW1  673   0.613   1.048   1.931
  218SOL    HW2  674   0.652   0.977   2.073
  219SOL     OW  675   0.122   0.643   2.425
  219SOL    HW1  676   0.077   0.555   2.442
  219SOL    HW2  677   0.121   0.697   2.509
  220SOL     OW  678   1.842   1.767   2.221
  220SOL    HW1  679   1.896   1.738   2.301
  220SOL    HW2  680   1.872   1.857   2.192
  221SOL     OW  681   0.027   1.596   1.979
  221SOL    HW1  682   0.008   1.500   2.000
  221SOL    HW2  683  -0.006   1.654   2.054
  222SOL     OW  684   1.689   0.922   2.474
  222SOL    HW1  685   1.784   0.893   2.482
  222SOL    HW2  686   1.681   0.987   2.399
  223SOL     OW  687   1.641   1.108   2.294
  223SOL    HW1  688   1.727   1.110   2.242
  223SOL    HW2  689   1.655   1.155   2.382
  224SOL     OW  690   0.613   1.365   2.588
  224SOL    HW1  691   0.564   1.278   2.597
  224SOL    HW2  692   0.590   1.408   2.501
  225SOL     OW  693   0.809   0.004   2.364
  225SOL    HW1  694   0.849   0.095   2.355
  225SOL    HW2  695   0.709   0.012   2.370
  226SOL     OW  696   1.525   0.999   2.052
  226SOL    HW1  697   1.462   0.923   2.065
  226SOL    HW2  698   1.573   1.017   2.138
  227SOL     OW  699   1.466   1.417   2.815
  227SOL    HW1  700   1.407   1.423   2.895
  227SOL    HW2  701   1.451   1.329   2.769
  228SOL     OW  702   1.667   1.714   2.434
  228SOL    HW1  703   1.626   1.691   2.346
  228SOL    HW2  704   1.649   1.640   2.499
  229SOL     OW  705   0.598   0.729   2.132
  229SOL    HW1  706   0.622   0.798   2.064
  229SOL    HW2  707   0.520   0.762   2.186
  230SOL     OW  708   1.281   0.345   2.806
  230SOL    HW1  709   1.195   0.295   2.793
  230SOL    HW2  710   1.343   0.291   2.862
  231SOL     OW  711   1.576   1.662   2.169
  231SOL    HW1  712   1.665   1.708   2.172
  231SOL    HW2  713   1.555   1.638   2.074
  232SOL     OW  714   1.041   0.701   2.291
  232SOL    HW1  715   1.067   0.697   2.387
  232SOL    HW2  716   0.956   0.650   2.277
  233SOL     OW  717   0.076   0.811   2.651
  233SOL    HW1  718   0.175   0.799   2.660
  233SOL    HW2  719   0.052   0.906   2.672
  234SOL     OW  720   0.865   0.348   2.057
  234SOL    HW1  721   0.924   0.411   2.008
  234SOL    HW2  722   0.884   0.254   2.028
  235SOL     OW  723   1.362   1.144   2.407
  235SOL    HW1  724   1.445   1.115   2.359
  235SOL    HW2  725   1.313   1.211   2.351
  236SOL     OW  726   0.550   0.196   2.747
  236SOL    HW1  727   0.545   0.191   2.847
  236SOL    HW2  728   0.552   0.292   2.718
  237SOL     OW  729   1.008   1.456   2.339
  237SOL    HW1  730   0.962   1.528   2.287
  237SOL    HW2  731   1.004   1.476   2.437
  238SOL     OW  732   0.351   1.801   2.715
  238SOL    HW1  733   0.401   1.715   2.721
  238SOL    HW2  734   0.416   1.878   2.712
  239SOL     OW  735   1.795   1.066   2.735
  239SOL    HW1  736   1.733   1.051   2.659
  239SOL    HW2  737   1.743   1.077   2.820
  240SOL     OW  738   0.321   0.943   2.104
  240SOL    HW1  739   0.403   0.982   2.062
  240SOL    HW2  740   0.294   0.861   2.055
  241SOL     OW  741   1.458   0.735   2.590
  241SOL    HW1  742   1.453   0.670   2.665
  241SOL    HW2  743   1.538   0.794   2.603
  242SOL     OW  744   1.111   1.776   2.099
  242SOL    HW1  745   1.051   1.714   2.149
  242SOL    HW2  746   1.142   1.732   2.014
  243SOL     OW  747   1.632   1.377   1.943
  243SOL    HW1  748   1.600   1.471   1.933
  243SOL    HW2  749   1.556   1.314   1.931
  244SOL     OW  750   0.464   1.743   2.185
  244SOL    HW1  751   0.497   1.782   2.271
  244SOL    HW2  752   0.540   1.736   2.120
  245SOL     OW  753   1.400   0.107   2.288
  245SOL    HW1  754   1.376   0.070   2.198
  245SOL    HW2  755   1.499   0.123   2.292
  246SOL     OW  756   0.249   1.785   3.103
  246SOL    HW1  757   0.306   1.720   3.153
  246SOL    HW2  758   0.233   1.752   3.010
  247SOL     OW  759   0.940   1.698   2.766
  247SOL    HW1  760   1.020   1.641   2.787
  247SOL    HW2  761   0.891   1.658   2.689
  248SOL     OW  762   0.382   0.700   2.342
  248SOL    HW1  763   0.427   0.610   2.339
  248SOL    HW2  764   0.288   0.689   2.375
  249SOL     OW  765   0.614   0.122   1.979
  249SOL    HW1  766   0.712   0.100   1.986
  249SOL    HW2  767   0.583   0.105   1.886
  250SOL     OW  768   0.803   1.402   2.786
  250SOL    HW1  769   0.893   1.416   2.744
  250SOL    HW2  770   0.732   1.404   2.715
  251SOL     OW  771   0.922   0.503   2.761
  251SOL    HW1  772   0.897   0.494   2.665
  251SOL    HW2  773   0.970   0.421   2.792
  252SOL     OW  774   0.539   0.064   2.374
  252SOL    HW1  775   0.458   0.065   2.432
  252SOL    HW2  776   0.542   0.147   2.319
  253SOL     OW  777   1.434   1.188   1.903
  253SOL    HW1  778   1.466   1.112   1.960
  253SOL    HW2  779   1.342   1.215   1.933
  254SOL     OW  780   0.297   0.035   2.033
  254SOL    HW1  781   0.346   0.119   2.012
  254SOL    HW2  782   0.359  -0.030   2.078
  255SOL     OW  783   0.935   0.236   2.342
  255SOL    HW1  784   0.887   0.277   2.264
  255SOL    HW2  785   1.034   0.234   2.323
  256SOL     OW  786   1.227   1.570   2.655
  256SOL    HW1  787   1.248   1.644   2.590
  256SOL    HW2  788   1.295   1.570   2.728
  257SOL     OW  789   0.459   1.152   2.603
  257SOL    HW1  790   0.388   1.125   2.668
  257SOL    HW2  791   0.433   1.124   2.510
  258SOL     OW  792   1.271   1.797   2.453
  258SOL    HW1  793   1.315   1.861   2.389
  258SOL    HW2  794   1.221   1.849   2.523
  259SOL     OW  795   1.032   0.549   1.878
  259SOL    HW1  796   0.991   0.631   1.839
  259SOL    HW2  797   1.096   0.575   1.951
  260SOL     OW  798   0.866   0.454   2.504
  260SOL    HW1  799   0.834   0.526   2.442
  260SOL    HW2  800   0.890   0.373   2.451
  261SOL     OW  801   1.017   0.039   2.615
  261SOL    HW1  802   0.945   0.044   2.546
  261SOL    HW2  803   0.993  -0.030   2.684
  262SOL     OW  804   1.429   1.173   2.729
  262SOL    HW1  805   1.374   1.089   2.722
  262SOL    HW2  806   1.455   1.202   2.637
  263SOL     OW  807   1.466   0.590   2.854
  263SOL    HW1  808   1.436   0.495   2.861
  263SOL    HW2  809   1.539   0.606   2.920
  264SOL     OW  810   1.857   0.833   2.239
  264SOL    HW1  811   1.899   0.769   2.303
  264SOL    HW2  812   1.819   0.782   2.161
  265SOL     OW  813   0.488   1.385   2.036
  265SOL    HW1  814   0.401   1.370   2.083
  265SOL    HW2  815   0.471   1.411   1.941
  266SOL     OW  816   1.664   1.280   2.519
  266SOL    HW1  817   1.763   1.288   2.533
  266SOL    HW2  818   1.619   1.364   2.550
  267SOL     OW  819   1.390   0.575   1.940
  267SOL    HW1  820   1.336   0.554   2.021
  267SOL    HW2  821   1.481   0.534   1.949
  268SOL     OW  822   0.527   0.256   2.190
  268SOL    HW1  823   0.554   0.197   2.115
  268SOL    HW2  824   0.527   0.351   2.159
  269SOL     OW  825   1.638   1.099   2.941
  269SOL    HW1  826   1.643   1.180   3.000
  269SOL    HW2  827   1.552   1.101   2.890
  270SOL     OW  828   0.705   1.050   2.230
  270SOL    HW1  829   0.691   1.057   2.329
  270SOL    HW2  830   0.789   0.999   2.212
  271SOL     OW  831   0.367   1.100   2.363
  271SOL    HW1  832   0.360   1.183   2.307
  271SOL    HW2  833   0.371   1.020   2.303
  272SOL     OW  834   0.566   0.537   2.727
  272SOL    HW1  835   0.578   0.603   2.653
  272SOL    HW2  836   0.612   0.571   2.810
  273SOL     OW  837   1.252   1.348   2.250
  273SOL    HW1  838   1.302   1.425   2.290
  273SOL    HW2  839   1.157   1.350   2.282
  274SOL     OW  840   1.582   0.639   2.334
  274SOL    HW1  841   1.551   0.700   2.407
  274SOL    HW2  842   1.632   0.691   2.265
  275SOL     OW  843   0.573   0.870   2.891
  275SOL    HW1  844   0.617   0.959   2.882
  275SOL    HW2  845   0.510   0.870   2.968
  276SOL     OW  846   1.209   0.525   2.137
  276SOL    HW1  847   1.222   0.441   2.191
  276SOL    HW2  848   1.180   0.599   2.197
  277SOL     OW  849   0.732   0.634   2.926
  277SOL    HW1  850   0.791   0.608   2.850
  277SOL    HW2  851   0.704   0.730   2.915
  278SOL     OW  852   0.307   0.063   2.480
  278SOL    HW1  853   0.296   0.157   2.513
  278SOL    HW2  854   0.302   0.000   2.557
  279SOL     OW  855   1.622   0.367   2.236
  279SOL    HW1  856   1.624   0.291   2.300
  279SOL    HW2  857   1.574   0.444   2.276
  280SOL     OW  858   1.023   0.766   2.828
  280SOL    HW1  859   1.038   0.787   2.924
  280SOL    HW2  860   0.993   0.671   2.819
  281SOL     OW  861   1.540   0.274   1.987
  281SOL    HW1  862   1.479   0.199   2.010
  281SOL    HW2  863   1.562   0.326   2.070
  282SOL     OW  864   1.303   0.838   1.904
  282SOL    HW1  865   1.337   0.745   1.919
  282SOL    HW2  866   1.321   0.865   1.809
  283SOL     OW  867   1.068   1.333   2.711
  283SOL    HW1  868   1.075   1.249   2.656
  283SOL    HW2  869   1.130   1.402   2.675
  284SOL     OW  870   0.319   0.810   2.811
  284SOL    HW1  871   0.412   0.846   2.816
  284SOL    HW2  872   0.313   0.725   2.863
  285SOL     OW  873   0.339   0.509   2.868
  285SOL    HW1  874   0.287   0.426   2.851
  285SOL    HW2  875   0.416   0.514   2.804
  286SOL     OW  876   0.008   1.326   2.062
  286SOL    HW1  877  -0.085   1.347   2.031
  286SOL    HW2  878   0.018   1.227   2.075
  287SOL     OW  879   0.088   1.801   2.789
  287SOL    HW1  880   0.046   1.715   2.762
  287SOL    HW2  881   0.182   1.804   2.755
  288SOL     OW  882   0.504   1.568   2.772
  288SOL    HW1  883   0.570   1.642   2.781
  288SOL    HW2  884   0.548   1.489   2.730
  289SOL     OW  885   1.002   0.796   3.100
  289SOL    HW1  886   1.043   0.764   3.186
  289SOL    HW2  887   0.906   0.769   3.097
  290SOL     OW  888   0.815   0.572   2.187
  290SOL    HW1  889   0.822   0.483   2.141
  290SOL    HW2  890   0.721   0.606   2.179
  291SOL     OW  891   0.671   0.464   3.131
  291SOL    HW1  892   0.637   0.375   3.101
  291SOL    HW2  893   0.697   0.518   3.051
  292SOL     OW  894   0.473   0.500   2.053
  292SOL    HW1  895   0.534   0.580   2.057
  292SOL    HW2  896   0.378   0.531   2.060
  293SOL     OW  897   1.302   0.855   2.171
  293SOL    HW1  898   1.216   0.824   2.213
  293SOL    HW2  899   1.298   0.841   2.072
  294SOL     OW  900   1.759   1.747   3.016
  294SOL    HW1  901   1.820   1.777   2.943
  294SOL    HW2  902   1.721   1.658   2.994
  295SOL     OW  903   0.083   1.258   2.884
  295SOL    HW1  904   0.078   1.257   2.984
  295SOL    HW2  905   0.000   1.217   2.846
  296SOL     OW  906   1.726   0.135   2.385
  296SOL    HW1  907   1.799   0.118   2.318
  296SOL    HW2  908   1.695   0.048   2.423
  297SOL     OW  909   1.388   1.573   2.339
  297SOL    HW1  910   1.455   1.585   2.265
  297SOL    HW2  911   1.348   1.662   2.362
  298SOL     OW  912   1.280   0.927   2.534
  298SOL    HW1  913   1.340   0.846   2.536
  298SOL    HW2  914   1.320   0.996   2.474
  299SOL     OW  915   0.672   1.616   2.016
  299SOL    HW1  916   0.681   1.626   1.917
  299SOL    HW2  917   0.632   1.527   2.037
  300SOL     OW  918   1.841   0.175   2.825
  300SOL    HW1  919   1.880   0.090   2.789
  300SOL    HW2  920   1.743   0.177   2.806
  301SOL     OW  921   0.263   0.326   2.582
  301SOL    HW1  922   0.184   0.377   2.548
  301SOL    HW2  923   0.254   0.311   2.680
  302SOL     OW  924   1.194   1.612   1.893
  302SOL    HW1  925   1.200   1.519   1.930
  302SOL    HW2  926   1.135   1.612   1.813
  303SOL     OW  927   0.916   0.910   2.153
  303SOL    HW1  928   0.979   0.948   2.085
  303SOL    HW2  929   0.956   0.827   2.192
  304SOL     OW  930   1.504   1.607   1.906
  304SOL    HW1  931   1.412   1.644   1.913
  304SOL    HW2  932   1.542   1.627   1.816
  305SOL     OW  933   1.039   1.098   2.558
  305SOL    HW1  934   0.969   1.051   2.612
  305SOL    HW2  935   1.098   1.030   2.515
  306SOL     OW  936   1.014   0.236   2.833
  306SOL    HW1  937   1.006   0.200   2.740
  306SOL    HW2  938   1.012   0.160   2.898
  307SOL     OW  939   0.590   1.487   2.353
  307SOL    HW1  940   0.632   1.429   2.283
  307SOL    HW2  941   0.546   1.566   2.309
  308SOL     OW  942   0.255   1.348   2.152
  308SOL    HW1  943   0.159   1.349   2.125
  308SOL    HW2  944   0.267   1.401   2.236
  309SOL     OW  945   0.075   0.345   1.895
  309SOL    HW1  946  -0.017   0.317   1.866
  309SOL    HW2  947   0.106   0.422   1.839
  310SOL     OW  948   0.072   0.166   2.180
  310SOL    HW1  949   0.055   0.249   2.126
  310SOL    HW2  950   0.162   0.129   2.158
  311SOL     OW  951   1.183   1.335   1.981
  311SOL    HW1  952   1.084   1.324   1.983
  311SOL    HW2  953   1.217   1.350   2.074
  312SOL     OW  954   1.493   1.767   2.821
  312SOL    HW1  955   1.526   1.831   2.752
  312SOL    HW2  956   1.559   1.761   2.896
  313SOL     OW  957   1.674   0.883   3.116
  313SOL    HW1  958   1.647   0.794   3.079
  313SOL    HW2  959   1.675   0.951   3.043
  314SOL     OW  960   1.225   0.325   2.311
  314SOL    HW1  961   1.290   0.251   2.300
  314SOL    HW2  962   1.245   0.375   2.395
  315SOL     OW  963   0.594   0.745   2.514
  315SOL    HW1  964   0.644   0.830   2.495
  315SOL    HW2  965   0.506   0.747   2.466
  316SOL     OW  966   0.859   1.374   1.878
  316SOL    HW1  967   0.813   1.389   1.966
  316SOL    HW2  968   0.903   1.459   1.848
  317SOL     OW  969   0.661   1.790   2.815
  317SOL    HW1  970   0.615   1.878   2.802
  317SOL    HW2  971   0.760   1.802   2.808
  318SOL     OW  972   0.859   0.956   2.723
  318SOL    HW1  973   0.913   0.887   2.771
  318SOL    HW2  974   0.827   1.025   2.789
  319SOL     OW  975   1.083   0.984   1.949
  319SOL    HW1  976   1.060   1.037   1.867
  319SOL    HW2  977   1.164   0.928   1.930
  320SOL     OW  978   1.861   1.569   2.713
  320SOL    HW1  979   1.790   1.557   2.643
  320SOL    HW2  980   1.862   1.490   2.773
  321SOL     OW  981   0.079   1.240   2.515
  321SOL    HW1  982   0.078   1.193   2.603
  321SOL    HW2  983   0.161   1.212   2.464
  322SOL     OW  984   1.824   0.192   3.089
  322SOL    HW1  985   1.820   0.102   3.133
  322SOL    HW2  986   1.827   0.181   2.990
  323SOL     OW  987   0.428   0.424   2.382
  323SOL    HW1  988   0.458   0.352   2.320
  323SOL    HW2  989   0.389   0.384   2.465
  324SOL     OW  990   0.812   1.586   2.549
  324SOL    HW1  991   0.844   1.596   2.455
  324SOL    HW2  992   0.733   1.524   2.551
  325SOL     OW  993   0.770   1.330   2.163
  325SOL    HW1  994   0.724   1.243   2.180
  325SOL    HW2  995   0.861   1.327   2.204
  326SOL     OW  996   1.352   0.052   2.030
  326SOL    HW1  997   1.387   0.011   1.946
  326SOL    HW2  998   1.262   0.014   2.050
  327SOL     OW  999   1.300   0.453   2.553
  327SOL    HW1 1000   1.241   0.533   2.557
  327SOL    HW2 1001   1.315   0.418   2.646
  328SOL     OW 1002   1.593   0.221   2.744
  328SOL    HW1 1003   1.509   0.220   2.798
  328SOL    HW2 1004   1.595   0.304   2.688
  329SOL     OW 1005   0.039   1.077   2.162
  329SOL    HW1 1006   0.138   1.066   2.153
  329SOL    HW2 1007  -0.001   0.991   2.194
  330SOL     OW 1008   0.875   1.646   2.199
  330SOL    HW1 1009   0.798   1.611   2.145
  330SOL    HW2 1010   0.843   1.717   2.261
  331SOL     OW 1011   0.230   2.490   0.113
  331SOL    HW1 1012   0.137   2.488   0.150
  331SOL    HW2 1013   0.231   2.451   0.021
  332SOL     OW 1014   0.225   2.137   0.996
  332SOL    HW1 1015   0.260   2.120   1.088
  332SOL    HW2 1016   0.137   2.092   0.984
  333SOL     OW 1017   0.019   2.230   0.647
  333SOL    HW1 1018  -0.063   2.273   0.686
  333SOL    HW2 1019  -0.009   2.157   0.584
  334SOL     OW 1020   1.135   2.565   0.717
  334SOL    HW1 1021   1.192   2.643   0.692
  334SOL    HW2 1022   1.075   2.591   0.793
  335SOL     OW 1023   1.755   2.469   0.231
  335SOL    HW1 1024   1.743   2.456   0.132
  335SOL    HW2 1025   1.725   2.388   0.280
  336SOL     OW 1026   0.768   3.006   1.023
  336SOL    HW1 1027   0.690   3.023   1.083
  336SOL    HW2 1028   0.802   3.093   0.987
  337SOL     OW 1029   0.850   2.660   1.823
  337SOL    HW1 1030   0.846   2.736   1.888
  337SOL    HW2 1031   0.872   2.696   1.732
  338SOL     OW 1032   0.685   2.874   0.665
  338SOL    HW1 1033   0.754   2.858   0.735
  338SOL    HW2 1034   0.612   2.931   0.703
  339SOL     OW 1035   0.438   2.254   1.499
  339SOL    HW1 1036   0.520   2.198   1.508
  339SOL    HW2 1037   0.357   2.196   1.503
  340SOL     OW 1038   1.603   2.309   0.737
  340SOL    HW1 1039   1.529   2.355   0.687
  340SOL    HW2 1040   1.654   2.377   0.790
  341SOL     OW 1041   0.230   3.296   0.538
  341SOL    HW1 1042   0.204   3.392   0.538
  341SOL    HW2 1043   0.159   3.242   0.583
  342SOL     OW 1044   0.240   2.953   0.886
  342SOL    HW1 1045   0.254   2.869   0.938
  342SOL    HW2 1046   0.185   3.017   0.941
  343SOL     OW 1047   0.606   2.826   0.123
  343SOL    HW1 1048   0.613   2.910   0.069
  343SOL    HW2 1049   0.652   2.839   0.211
  344SOL     OW 1050   1.594   1.976   1.480
  344SOL    HW1 1051   1.576   2.043   1.408
  344SOL    HW2 1052   1.591   2.022   1.569
  345SOL     OW 1053   0.122   2.505   0.563
  345SOL    HW1 1054   0.077   2.417   0.580
  345SOL    HW2 1055   0.121   2.559   0.647
  346SOL     OW 1056   1.689   2.784   0.612
  346SOL    HW1 1057   1.784   2.755   0.620
  346SOL    HW2 1058   1.681   2.849   0.537
  347SOL     OW 1059   0.113   2.599   1.597
  347SOL    HW1 1060   0.201   2.586   1.642
  347SOL    HW2 1061   0.100   2.696   1.575
  348SOL     OW 1062   1.293   3.090   1.423
  348SOL    HW1 1063   1.330   3.017   1.365
  348SOL    HW2 1064   1.345   3.095   1.508
  349SOL     OW 1065   0.809   1.866   0.502
  349SOL    HW1 1066   0.849   1.957   0.493
  349SOL    HW2 1067   0.709   1.874   0.508
  350SOL     OW 1068   0.197   2.838   1.264
  350SOL    HW1 1069   0.286   2.793   1.250
  350SOL    HW2 1070   0.124   2.773   1.245
  351SOL     OW 1071   1.525   2.861   0.190
  351SOL    HW1 1072   1.462   2.785   0.203
  351SOL    HW2 1073   1.573   2.879   0.276
  352SOL     OW 1074   0.317   2.113   1.801
  352SOL    HW1 1075   0.388   2.184   1.807
  352SOL    HW2 1076   0.229   2.152   1.829
  353SOL     OW 1077   0.598   2.591   0.270
  353SOL    HW1 1078   0.622   2.660   0.202
  353SOL    HW2 1079   0.520   2.624   0.324
  354SOL     OW 1080   1.281   2.207   0.944
  354SOL    HW1 1081   1.195   2.157   0.931
  354SOL    HW2 1082   1.343   2.153   1.000
  355SOL     OW 1083   0.807   2.467   1.465
  355SOL    HW1 1084   0.760   2.464   1.554
  355SOL    HW2 1085   0.756   2.412   1.399
  356SOL     OW 1086   1.394   2.331   1.674
  356SOL    HW1 1087   1.374   2.374   1.762
  356SOL    HW2 1088   1.472   2.269   1.683
  357SOL     OW 1089   0.973   2.752   1.572
  357SOL    HW1 1090   1.019   2.668   1.543
  357SOL    HW2 1091   0.917   2.786   1.497
  358SOL     OW 1092   0.991   2.272   1.242
  358SOL    HW1 1093   0.914   2.306   1.296
  358SOL    HW2 1094   0.957   2.221   1.163
  359SOL     OW 1095   1.041   2.563   0.429
  359SOL    HW1 1096   1.067   2.559   0.525
  359SOL    HW2 1097   0.956   2.512   0.415
  360SOL     OW 1098   0.076   2.673   0.789
  360SOL    HW1 1099   0.175   2.661   0.798
  360SOL    HW2 1100   0.052   2.768   0.810
  361SOL     OW 1101   0.865   2.210   0.195
  361SOL    HW1 1102   0.924   2.273   0.146
  361SOL    HW2 1103   0.884   2.116   0.166
  362SOL     OW 1104   1.719   2.447   1.831
  362SOL    HW1 1105   1.693   2.536   1.795
  362SOL    HW2 1106   1.717   2.379   1.758
  363SOL     OW 1107   0.550   2.058   0.885
  363SOL    HW1 1108   0.545   2.053   0.985
  363SOL    HW2 1109   0.552   2.154   0.856
  364SOL     OW 1110   1.795   2.928   0.873
  364SOL    HW1 1111   1.733   2.913   0.797
  364SOL    HW2 1112   1.743   2.939   0.958
  365SOL     OW 1113   0.321   2.805   0.242
  365SOL    HW1 1114   0.403   2.844   0.200
  365SOL    HW2 1115   0.294   2.723   0.193
  366SOL     OW 1116   1.458   2.597   0.728
  366SOL    HW1 1117   1.453   2.532   0.803
  366SOL    HW2 1118   1.538   2.656   0.741
  367SOL     OW 1119   0.202   2.147   1.498
  367SOL    HW1 1120   0.122   2.207   1.485
  367SOL    HW2 1121   0.192   2.098   1.584
  368SOL     OW 1122   1.400   1.969   0.426
  368SOL    HW1 1123   1.376   1.932   0.336
  368SOL    HW2 1124   1.499   1.985   0.430
  369SOL     OW 1125   0.382   2.562   0.480
  369SOL    HW1 1126   0.427   2.472   0.477
  369SOL    HW2 1127   0.288   2.551   0.513
  370SOL     OW 1128   1.547   2.084   1.729
  370SOL    HW1 1129   1.542   2.121   1.821
  370SOL    HW2 1130   1.475   2.015   1.717
  371SOL     OW 1131   0.614   1.984   0.117
  371SOL    HW1 1132   0.712   1.962   0.124
  371SOL    HW2 1133   0.583   1.967   0.024
  372SOL     OW 1134   0.781   2.126   1.749
  372SOL    HW1 1135   0.848   2.065   1.792
  372SOL    HW2 1136   0.708   2.145   1.814
  373SOL     OW 1137   1.351   2.452   1.433
  373SOL    HW1 1138   1.379   2.409   1.518
  373SOL    HW2 1139   1.376   2.548   1.434
  374SOL     OW 1140   0.922   2.365   0.899
  374SOL    HW1 1141   0.897   2.356   0.803
  374SOL    HW2 1142   0.970   2.283   0.930
  375SOL     OW 1143   0.539   1.926   0.512
  375SOL    HW1 1144   0.458   1.927   0.570
  375SOL    HW2 1145   0.542   2.009   0.457
  376SOL     OW 1146   0.935   2.098   0.480
  376SOL    HW1 1147   0.887   2.139   0.402
  376SOL    HW2 1148   1.034   2.096   0.461
  377SOL     OW 1149   1.076   2.545   1.464
  377SOL    HW1 1150   0.996   2.484   1.467
  377SOL    HW2 1151   1.157   2.492   1.440
  378SOL     OW 1152   1.032   2.411   0.016
  378SOL    HW1 1153   0.991   2.493  -0.023
  378SOL    HW2 1154   1.096   2.437   0.089
  379SOL     OW 1155   0.078   2.418   1.386
  379SOL    HW1 1156   0.170   2.417   1.345
  379SOL    HW2 1157   0.072   2.492   1.453
  380SOL     OW 1158   0.561   2.084   1.147
  380SOL    HW1 1159   0.599   2.000   1.184
  380SOL    HW2 1160   0.473   2.103   1.191
  381SOL     OW 1161   0.866   2.316   0.642
  381SOL    HW1 1162   0.834   2.388   0.580
  381SOL    HW2 1163   0.890   2.235   0.589
  382SOL     OW 1164   1.017   1.901   0.753
  382SOL    HW1 1165   0.945   1.906   0.684
  382SOL    HW2 1166   0.993   1.832   0.822
  383SOL     OW 1167   1.429   3.035   0.867
  383SOL    HW1 1168   1.374   2.951   0.860
  383SOL    HW2 1169   1.455   3.064   0.775
  384SOL     OW 1170   1.466   2.452   0.992
  384SOL    HW1 1171   1.436   2.357   0.999
  384SOL    HW2 1172   1.539   2.468   1.058
  385SOL     OW 1173   1.857   2.695   0.377
  385SOL    HW1 1174   1.899   2.631   0.441
  385SOL    HW2 1175   1.819   2.644   0.299
  386SOL     OW 1176   1.390   2.437   0.078
  386SOL    HW1 1177   1.336   2.416   0.159
  386SOL    HW2 1178   1.481   2.396   0.087
  387SOL     OW 1179   0.527   2.118   0.328
  387SOL    HW1 1180   0.554   2.059   0.253
  387SOL    HW2 1181   0.527   2.213   0.297
  388SOL     OW 1182   1.754   3.085   1.588
  388SOL    HW1 1183   1.845   3.046   1.575
  388SOL    HW2 1184   1.762   3.181   1.612
  389SOL     OW 1185   1.638   2.961   1.079
  389SOL    HW1 1186   1.643   3.042   1.138
  389SOL    HW2 1187   1.552   2.963   1.028
  390SOL     OW 1188   0.915   1.951   1.402
  390SOL    HW1 1189   0.940   1.931   1.307
  390SOL    HW2 1190   0.987   2.007   1.444
  391SOL     OW 1191   0.410   2.675   1.251
  391SOL    HW1 1192   0.496   2.687   1.301
  391SOL    HW2 1193   0.368   2.588   1.278
  392SOL     OW 1194   1.274   2.248   1.262
  392SOL    HW1 1195   1.295   2.322   1.326
  392SOL    HW2 1196   1.185   2.265   1.219
  393SOL     OW 1197   0.566   2.399   0.865
  393SOL    HW1 1198   0.578   2.465   0.791
  393SOL    HW2 1199   0.612   2.433   0.948
  394SOL     OW 1200   1.582   2.501   0.472
  394SOL    HW1 1201   1.551   2.562   0.545
  394SOL    HW2 1202   1.632   2.553   0.403
  395SOL     OW 1203   0.402   2.613   1.598
  395SOL    HW1 1204   0.470   2.668   1.551
  395SOL    HW2 1205   0.442   2.525   1.625
  396SOL     OW 1206   1.587   2.641   1.670
  396SOL    HW1 1207   1.495   2.679   1.665
  396SOL    HW2 1208   1.647   2.688   1.605
  397SOL     OW 1209   1.013   1.967   1.770
  397SOL    HW1 1210   1.019   2.052   1.718
  397SOL    HW2 1211   1.045   1.891   1.713
  398SOL     OW 1212   0.504   1.912   1.740
  398SOL    HW1 1213   0.462   1.855   1.670
  398SOL    HW2 1214   0.438   1.981   1.772
  399SOL     OW 1215   0.573   2.732   1.029
  399SOL    HW1 1216   0.617   2.821   1.020
  399SOL    HW2 1217   0.510   2.732   1.106
  400SOL     OW 1218   1.360   2.724   1.045
  400SOL    HW1 1219   1.285   2.724   0.979
  400SOL    HW2 1220   1.397   2.632   1.054
  401SOL     OW 1221   1.209   2.387   0.275
  401SOL    HW1 1222   1.222   2.303   0.329
  401SOL    HW2 1223   1.180   2.461   0.335
  402SOL     OW 1224   0.307   2.075   1.231
  402SOL    HW1 1225   0.284   2.112   1.321
  402SOL    HW2 1226   0.277   1.980   1.225
  403SOL     OW 1227   0.037   3.172   1.282
  403SOL    HW1 1228   0.090   3.123   1.350
  403SOL    HW2 1229   0.059   3.270   1.287
  404SOL     OW 1230   0.732   2.496   1.064
  404SOL    HW1 1231   0.791   2.470   0.988
  404SOL    HW2 1232   0.704   2.592   1.053
  405SOL     OW 1233   1.728   2.797   1.854
  405SOL    HW1 1234   1.682   2.790   1.765
  405SOL    HW2 1235   1.666   2.841   1.920
  406SOL     OW 1236   0.307   1.925   0.618
  406SOL    HW1 1237   0.296   2.019   0.651
  406SOL    HW2 1238   0.302   1.862   0.695
  407SOL     OW 1239   1.622   2.229   0.374
  407SOL    HW1 1240   1.624   2.153   0.438
  407SOL    HW2 1241   1.574   2.306   0.414
  408SOL     OW 1242   1.023   2.628   0.966
  408SOL    HW1 1243   1.038   2.649   1.062
  408SOL    HW2 1244   0.993   2.533   0.957
  409SOL     OW 1245   0.350   2.760   1.804
  409SOL    HW1 1246   0.426   2.804   1.852
  409SOL    HW2 1247   0.385   2.713   1.722
  410SOL     OW 1248   1.540   2.136   0.125
  410SOL    HW1 1249   1.479   2.061   0.148
  410SOL    HW2 1250   1.562   2.188   0.208
  411SOL     OW 1251   1.303   2.700   0.042
  411SOL    HW1 1252   1.337   2.607   0.057
  411SOL    HW2 1253   1.321   2.727  -0.053
  412SOL     OW 1254   0.319   2.672   0.949
  412SOL    HW1 1255   0.412   2.708   0.954
  412SOL    HW2 1256   0.313   2.587   1.001
  413SOL     OW 1257   0.339   2.371   1.006
  413SOL    HW1 1258   0.287   2.288   0.989
  413SOL    HW2 1259   0.416   2.376   0.942
  414SOL     OW 1260   1.138   2.242   1.678
  414SOL    HW1 1261   1.093   2.305   1.742
  414SOL    HW2 1262   1.231   2.273   1.661
  415SOL     OW 1263   1.160   2.069   1.477
  415SOL    HW1 1264   1.160   2.133   1.554
  415SOL    HW2 1265   1.188   2.117   1.394
  416SOL     OW 1266   1.002   2.658   1.238
  416SOL    HW1 1267   1.043   2.626   1.324
  416SOL    HW2 1268   0.906   2.631   1.235
  417SOL     OW 1269   0.040   2.406   1.114
  417SOL    HW1 1270   0.125   2.373   1.073
  417SOL    HW2 1271   0.053   2.421   1.212
  418SOL     OW 1272   0.189   2.382   1.722
  418SOL    HW1 1273   0.248   2.342   1.652
  418SOL    HW2 1274   0.131   2.453   1.681
  419SOL     OW 1275   1.369   2.812   1.660
  419SOL    HW1 1276   1.408   2.901   1.680
  419SOL    HW2 1277   1.379   2.792   1.563
  420SOL     OW 1278   0.815   2.434   0.325
  420SOL    HW1 1279   0.822   2.345   0.279
  420SOL    HW2 1280   0.721   2.468   0.317
  421SOL     OW 1281   1.657   2.466   1.206
  421SOL    HW1 1282   1.619   2.397   1.268
  421SOL    HW2 1283   1.739   2.430   1.162
  422SOL     OW 1284   0.671   2.326   1.269
  422SOL    HW1 1285   0.637   2.237   1.239
  422SOL    HW2 1286   0.697   2.380   1.189
  423SOL     OW 1287   0.473   2.362   0.191
  423SOL    HW1 1288   0.534   2.442   0.195
  423SOL    HW2 1289   0.378   2.393   0.198
  424SOL     OW 1290   0.159   2.999   1.466
  424SOL    HW1 1291   0.181   2.938   1.542
  424SOL    HW2 1292   0.169   2.950   1.380
  425SOL     OW 1293   1.347   2.921   1.234
  425SOL    HW1 1294   1.371   2.858   1.160
  425SOL    HW2 1295   1.257   2.961   1.216
  426SOL     OW 1296   1.302   2.717   0.309
  426SOL    HW1 1297   1.216   2.686   0.351
  426SOL    HW2 1298   1.298   2.703   0.210
  427SOL     OW 1299   0.903   1.948   0.133
  427SOL    HW1 1300   0.954   1.949   0.047
  427SOL    HW2 1301   0.959   1.906   0.204
  428SOL     OW 1302   1.726   1.997   0.523
  428SOL    HW1 1303   1.799   1.980   0.456
  428SOL    HW2 1304   1.695   1.910   0.561
  429SOL     OW 1305   1.280   2.789   0.672
  429SOL    HW1 1306   1.340   2.708   0.674
  429SOL    HW2 1307   1.320   2.858   0.612
  430SOL     OW 1308   1.841   2.037   0.963
  430SOL    HW1 1309   1.880   1.952   0.927
  430SOL    HW2 1310   1.743   2.039   0.944
  431SOL     OW 1311   0.263   2.188   0.720
  431SOL    HW1 1312   0.184   2.239   0.686
  431SOL    HW2 1313   0.254   2.173   0.818
  432SOL     OW 1314   0.822   2.864   1.372
  432SOL    HW1 1315   0.862   2.863   1.280
  432SOL    HW2 1316   0.832   2.956   1.412
  433SOL     OW 1317   0.916   2.772   0.291
  433SOL    HW1 1318   0.979   2.810   0.223
  433SOL    HW2 1319   0.956   2.689   0.330
  434SOL     OW 1320   1.014   2.098   0.971
  434SOL    HW1 1321   1.006   2.062   0.878
  434SOL    HW2 1322   1.012   2.022   1.036
  435SOL     OW 1323   1.709   2.247   1.381
  435SOL    HW1 1324   1.782   2.316   1.385
  435SOL    HW2 1325   1.737   2.172   1.322
  436SOL     OW 1326   0.105   2.875   1.726
  436SOL    HW1 1327   0.028   2.842   1.780
  436SOL    HW2 1328   0.190   2.845   1.768
  437SOL     OW 1329   0.672   2.065   1.489
  437SOL    HW1 1330   0.762   2.049   1.449
  437SOL    HW2 1331   0.680   2.070   1.588
  438SOL     OW 1332   0.075   2.207   0.033
  438SOL    HW1 1333  -0.017   2.179   0.004
  438SOL    HW2 1334   0.106   2.284  -0.023
  439SOL     OW 1335   1.440   2.718   1.398
  439SOL    HW1 1336   1.383   2.770   1.335
  439SOL    HW2 1337   1.536   2.730   1.374
  440SOL     OW 1338   0.072   2.028   0.318
  440SOL    HW1 1339   0.055   2.111   0.264
  440SOL    HW2 1340   0.162   1.991   0.296
  441SOL     OW 1341   1.183   3.197   0.119
  441SOL    HW1 1342   1.084   3.186   0.121
  441SOL    HW2 1343   1.217   3.212   0.212
  442SOL     OW 1344   0.613   2.704   1.431
  442SOL    HW1 1345   0.669   2.785   1.414
  442SOL    HW2 1346   0.672   2.624   1.434
  443SOL     OW 1347   0.716   2.427   1.708
  443SOL    HW1 1348   0.735   2.492   1.782
  443SOL    HW2 1349   0.776   2.347   1.717
  444SOL     OW 1350   1.674   2.745   1.254
  444SOL    HW1 1351   1.647   2.656   1.217
  444SOL    HW2 1352   1.675   2.813   1.181
  445SOL     OW 1353   1.225   2.187   0.449
  445SOL    HW1 1354   1.290   2.113   0.438
  445SOL    HW2 1355   1.245   2.237   0.533
  446SOL     OW 1356   0.594   2.607   0.652
  446SOL    HW1 1357   0.644   2.692   0.633
  446SOL    HW2 1358   0.506   2.609   0.604
  447SOL     OW 1359   1.777   2.204   1.642
  447SOL    HW1 1360   1.760   2.235   1.548
  447SOL    HW2 1361   1.693   2.167   1.680
  448SOL     OW 1362   1.730   2.796   1.517
  448SOL    HW1 1363   1.768   2.887   1.532
  448SOL    HW2 1364   1.722   2.779   1.418
  449SOL     OW 1365   0.859   2.818   0.861
  449SOL    HW1 1366   0.913   2.749   0.909
  449SOL    HW2 1367   0.827   2.887   0.927
  450SOL     OW 1368   1.083   2.846   0.087
  450SOL    HW1 1369   1.060   2.899   0.005
  450SOL    HW2 1370   1.164   2.790   0.068
  451SOL     OW 1371   1.824   2.054   1.227
  451SOL    HW1 1372   1.820   1.964   1.271
  451SOL    HW2 1373   1.827   2.043   1.128
  452SOL     OW 1374   0.428   2.286   0.520
  452SOL    HW1 1375   0.458   2.214   0.458
  452SOL    HW2 1376   0.389   2.246   0.603
  453SOL     OW 1377   0.317   2.409   1.280
  453SOL    HW1 1378   0.355   2.350   1.352
  453SOL    HW2 1379   0.357   2.383   1.192
  454SOL     OW 1380   1.424   2.076   1.112
  454SOL    HW1 1381   1.476   2.011   1.167
  454SOL    HW2 1382   1.375   2.139   1.173
  455SOL     OW 1383   1.001   1.896   1.154
  455SOL    HW1 1384   0.938   1.824   1.123
  455SOL    HW2 1385   1.094   1.860   1.154
  456SOL     OW 1386   1.352   1.914   0.168
  456SOL    HW1 1387   1.387   1.873   0.084
  456SOL    HW2 1388   1.262   1.876   0.188
  457SOL     OW 1389   1.300   2.315   0.691
  457SOL    HW1 1390   1.241   2.395   0.695
  457SOL    HW2 1391   1.315   2.280   0.784
  458SOL     OW 1392   1.593   2.083   0.882
  458SOL    HW1 1393   1.509   2.082   0.936
  458SOL    HW2 1394   1.595   2.166   0.826
  459SOL     OW 1395   0.039   2.939   0.300
  459SOL    HW1 1396   0.138   2.928   0.291
  459SOL    HW2 1397  -0.001   2.853   0.332
  460SOL     OW 1398   0.230   2.490   1.975
  460SOL    HW1 1399   0.137   2.488   2.012
  460SOL    HW2 1400   0.231   2.451   1.883
  461SOL     OW 1401   0.225   2.137   2.858
  461SOL    HW1 1402   0.260   2.120   2.950
  461SOL    HW2 1403   0.137   2.092   2.846
  462SOL     OW 1404   0.019   2.230   2.509
  462SOL    HW1 1405  -0.063   2.273   2.548
  462SOL    HW2 1406  -0.009   2.157   2.446
  463SOL     OW 1407   1.135   2.565   2.579
  463SOL    HW1 1408   1.192   2.643   2.554
  463SOL    HW2 1409   1.075   2.591   2.655
  464SOL     OW 1410   1.755   2.469   2.093
  464SOL    HW1 1411   1.743   2.456   1.994
  464SOL    HW2 1412   1.725   2.388   2.142
  465SOL     OW 1413   0.768   3.006   2.885
  465SOL    HW1 1414   0.690   3.023   2.945
  465SOL    HW2 1415   0.802   3.093   2.849
  466SOL     OW 1416   0.685   2.874   2.527
  466SOL    HW1 1417   0.754   2.858   2.597
  466SOL    HW2 1418   0.612   2.931   2.565
  467SOL     OW 1419   1.603   2.309   2.599
  467SOL    HW1 1420   1.529   2.355   2.549
  467SOL    HW2 1421   1.654   2.377   2.652
  468SOL     OW 1422   0.230   3.296   2.400
  468SOL    HW1 1423   0.204   3.392   2.400
  468SOL    HW2 1424   0.159   3.242   2.445
  469SOL     OW 1425   0.240   2.953   2.748
  469SOL    HW1 1426   0.254   2.869   2.800
  469SOL    HW2 1427   0.185   3.017   2.803
  470SOL     OW 1428   0.606   2.826   1.985
  470SOL    HW1 1429   0.613   2.910   1.931
  470SOL    HW2 1430   0.652   2.839   2.073
  471SOL     OW 1431   0.122   2.505   2.425
  471SOL    HW1 1432   0.077   2.417   2.442
  471SOL    HW2 1433   0.121   2.559   2.509
  472SOL     OW 1434   1.689   2.784   2.474
  472SOL    HW1 1435   1.784   2.755   2.482
  472SOL    HW2 1436   1.681   2.849   2.399
  473SOL     OW 1437   0.809   1.866   2.364
  473SOL    HW1 1438   0.849   1.957   2.355
  473SOL    HW2 1439   0.709   1.874   2.370
  474SOL     OW 1440   1.525   2.861   2.052
  474SOL    HW1 1441   1.462   2.785   2.065
  474SOL    HW2 1442   1.573   2.879   2.138
  475SOL     OW 1443   0.598   2.591   2.132
  475SOL    HW1 1444   0.622   2.660   2.064
  475SOL    HW2 1445   0.520   2.624   2.186
  476SOL     OW 1446   1.281   2.207   2.806
  476SOL    HW1 1447   1.195   2.157   2.793
  476SOL    HW2 1448   1.343   2.153   2.862
  477SOL     OW 1449   1.041   2.563   2.291
  477SOL    HW1 1450   1.067   2.559   2.387
  477SOL    HW2 1451   0.956   2.512   2.277
  478SOL     OW 1452   0.076   2.673   2.651
  478SOL    HW1 1453   0.175   2.661   2.660
  478SOL    HW2 1454   0.052   2.768   2.672
  479SOL     OW 1455   0.865   2.210   2.057
  479SOL    HW1 1456   0.924   2.273   2.008
  479SOL    HW2 1457   0.884   2.116   2.028
  480SOL     OW 1458   0.550   2.058   2.747
  480SOL    HW1 1459   0.545   2.053   2.847
  480SOL    HW2 1460   0.552   2.154   2.718
  481SOL     OW 1461   1.795   2.928   2.735
  481SOL    HW1 1462   1.733   2.913   2.659
  481SOL    HW2 1463   1.743   2.939   2.820
  482SOL     OW 1464   0.321   2.805   2.104
  482SOL    HW1 1465   0.403   2.844   2.062
  482SOL    HW2 1466   0.294   2.723   2.055
  483SOL     OW 1467   1.458   2.597   2.590
  483SOL    HW1 1468   1.453   2.532   2.665
  483SOL    HW2 1469   1.538   2.656   2.603
  484SOL     OW 1470   1.400   1.969   2.288
  484SOL    HW1 1471   1.376   1.932   2.198
  484SOL    HW2 1472   1.499   1.985   2.292
  485SOL     OW 1473   0.382   2.562   2.342
  485SOL    HW1 1474   0.427   2.472   2.339
  485SOL    HW2 1475   0.288   2.551   2.375
  486SOL     OW 1476   0.614   1.984   1.979
  486SOL    HW1 1477   0.712   1.962   1.986
  486SOL    HW2 1478   0.583   1.967   1.886
  487SOL     OW 1479   0.922   2.365   2.761
  487SOL    HW1 1480   0.897   2.356   2.665
  487SOL    HW2 1481   0.970   2.283   2.792
  488SOL     OW 1482   0.539   1.926   2.374
  488SOL    HW1 1483   0.458   1.927   2.432
  488SOL    HW2 1484   0.542   2.009   2.319
  489SOL     OW 1485   0.297   1.897   2.033
  489SOL    HW1 1486   0.346   1.981   2.012
  489SOL    HW2 1487   0.359   1.832   2.078
  490SOL     OW 1488   0.935   2.098   2.342
  490SOL    HW1 1489   0.887   2.139   2.264
  490SOL    HW2 1490   1.034   2.096   2.323
  491SOL     OW 1491   1.032   2.411   1.878
  491SOL    HW1 1492   0.991   2.493   1.839
  491SOL    HW2 1493   1.096   2.437   1.951
  492SOL     OW 1494   0.866   2.316   2.504
  492SOL    HW1 1495   0.834   2.388   2.442
  492SOL    HW2 1496   0.890   2.235   2.451
  493SOL     OW 1497   1.017   1.901   2.615
  493SOL    HW1 1498   0.945   1.906   2.546
  493SOL    HW2 1499   0.993   1.832   2.684
  494SOL     OW 1500   1.429   3.035   2.729
  494SOL    HW1 1501   1.374   2.951   2.722
  494SOL    HW2 1502   1.455   3.064   2.637
  495SOL     OW 1503   1.466   2.452   2.854
  495SOL    HW1 1504   1.436   2.357   2.861
  495SOL    HW2 1505   1.539   2.468   2.920
  496SOL     OW 1506   1.857   2.695   2.239
  496SOL    HW1 1507   1.899   2.631   2.303
  496SOL    HW2 1508   1.819   2.644   2.161
  497SOL     OW 1509   1.390   2.437   1.940
  497SOL    HW1 1510   1.336   2.416   2.021
  497SOL    HW2 1511   1.481   2.396   1.949
  498SOL     OW 1512   0.527   2.118   2.190
  498SOL    HW1 1513   0.554   2.059   2.115
  498SOL    HW2 1514   0.527   2.213   2.159
  499SOL     OW 1515   1.638   2.961   2.941
  499SOL    HW1 1516   1.643   3.042   3.000
  499SOL    HW2 1517   1.552   2.963   2.890
  500SOL     OW 1518   0.566   2.399   2.727
  500SOL    HW1 1519   0.578   2.465   2.653
  500SOL    HW2 1520   0.612   2.433   2.810
  501SOL     OW 1521   1.582   2.501   2.334
  501SOL    HW1 1522   1.551   2.562   2.407
  501SOL    HW2 1523   1.632   2.553   2.265
  502SOL     OW 1524   0.573   2.732   2.891
  502SOL    HW1 1525   0.617   2.821   2.882
  502SOL    HW2 1526   0.510   2.732   2.968
  503SOL     OW 1527   1.209   2.387   2.137
  503SOL    HW1 1528   1.222   2.303   2.191
  503SOL    HW2 1529   1.180   2.461   2.197
  504SOL     OW 1530   0.307   2.075   3.093
  504SOL    HW1 1531   0.284   2.112   3.183
  504SOL    HW2 1532   0.277   1.980   3.087
  505SOL     OW 1533   0.732   2.496   2.926
  505SOL    HW1 1534   0.791   2.470   2.850
  505SOL    HW2 1535   0.704   2.592   2.915
  506SOL     OW 1536   0.307   1.925   2.480
  506SOL    HW1 1537   0.296   2.019   2.513
  506SOL    HW2 1538   0.302   1.862   2.557
  507SOL     OW 1539   1.622   2.229   2.236
  507SOL    HW1 1540   1.624   2.153   2.300
  507SOL    HW2 1541   1.574   2.306   2.276
  508SOL     OW 1542   1.023   2.628   2.828
  508SOL    HW1 1543   1.038   2.649   2.924
  508SOL    HW2 1544   0.993   2.533   2.819
  509SOL     OW 1545   1.540   2.136   1.987
  509SOL    HW1 1546   1.479   2.061   2.010
  509SOL    HW2 1547   1.562   2.188   2.070
  510SOL     OW 1548   1.303   2.700   1.904
  510SOL    HW1 1549   1.337   2.607   1.919
  510SOL    HW2 1550   1.321   2.727   1.809
  511SOL     OW 1551   0.319   2.672   2.811
  511SOL    HW1 1552   0.412   2.708   2.816
  511SOL    HW2 1553   0.313   2.587   2.863
  512SOL     OW 1554   0.339   2.371   2.868
  512SOL    HW1 1555   0.287   2.288   2.851
  512SOL    HW2 1556   0.416   2.376   2.804
  513SOL     OW 1557   1.002   2.658   3.100
  513SOL    HW1 1558   1.043   2.626   3.186
  513SOL    HW2 1559   0.906   2.631   3.097
  514SOL     OW 1560   0.815   2.434   2.187
  514SOL    HW1 1561   0.822   2.345   2.141
  514SOL    HW2 1562   0.721   2.468   2.179
  515SOL     OW 1563   0.671   2.326   3.131
  515SOL    HW1 1564   0.637   2.237   3.101
  515SOL    HW2 1565   0.697   2.380   3.051
  516SOL     OW 1566   0.473   2.362   2.053
  516SOL    HW1 1567   0.534   2.442   2.057
  516SOL    HW2 1568   0.378   2.393   2.060
  517SOL     OW 1569   1.302   2.717   2.171
  517SOL    HW1 1570   1.216   2.686   2.213
  517SOL    HW2 1571   1.298   2.703   2.072
  518SOL     OW 1572   1.726   1.997   2.385
  518SOL    HW1 1573   1.799   1.980   2.318
  518SOL    HW2 1574   1.695   1.910   2.423
  519SOL     OW 1575   1.280   2.789   2.534
  519SOL    HW1 1576   1.340   2.708   2.536
  519SOL    HW2 1577   1.320   2.858   2.474
  520SOL     OW 1578   1.841   2.037   2.825
  520SOL    HW1 1579   1.880   1.952   2.789
  520SOL    HW2 1580   1.743   2.039   2.806
  521SOL     OW 1581   0.263   2.188   2.582
  521SOL    HW1 1582   0.184   2.239   2.548
  521SOL    HW2 1583   0.254   2.173   2.680
  522SOL     OW 1584   0.916   2.772   2.153
  522SOL    HW1 1585   0.979   2.810   2.085
  522SOL    HW2 1586   0.956   2.689   2.192
  523SOL     OW 1587   1.014   2.098   2.833
  523SOL    HW1 1588   1.006   2.062   2.740
  523SOL    HW2 1589   1.012   2.022   2.898
  524SOL     OW 1590   0.075   2.207   1.895
  524SOL    HW1 1591  -0.017   2.179   1.866
  524SOL    HW2 1592   0.106   2.284   1.839
  525SOL     OW 1593   0.072   2.028   2.180
  525SOL    HW1 1594   0.055   2.111   2.126
  525SOL    HW2 1595   0.162   1.991   2.158
  526SOL     OW 1596   1.183   3.197   1.981
  526SOL    HW1 1597   1.084   3.186   1.983
  526SOL    HW2 1598   1.217   3.212   2.074
  527SOL     OW 1599   1.674   2.745   3.116
  527SOL    HW1 1600   1.647   2.656   3.079
  527SOL    HW2 1601   1.675   2.813   3.043
  528SOL     OW 1602   1.225   2.187   2.311
  528SOL    HW1 1603   1.290   2.113   2.300
  528SOL    HW2 1604   1.245   2.237   2.395
  529SOL     OW 1605   0.594   2.607   2.514
  529SOL    HW1 1606   0.644   2.692   2.495
  529SOL    HW2 1607   0.506   2.609   2.466
  530SOL     OW 1608   0.859   2.818   2.723
  530SOL    HW1 1609   0.913   2.749   2.771
  530SOL    HW2 1610   0.827   2.887   2.789
  531SOL     OW 1611   1.083   2.846   1.949
  531SOL    HW1 1612   1.060   2.899   1.867
  531SOL    HW2 1613   1.164   2.790   1.930
  532SOL     OW 1614   1.824   2.054   3.089
  532SOL    HW1 1615   1.820   1.964   3.133
  532SOL    HW2 1616   1.827   2.043   2.990
  533SOL     OW 1617   0.428   2.286   2.382
  533SOL    HW1 1618   0.458   2.214   2.320
  533SOL    HW2 1619   0.389   2.246   2.465
  534SOL     OW 1620   1.352   1.914   2.030
  534SOL    HW1 1621   1.387   1.873   1.946
  534SOL    HW2 1622   1.262   1.876   2.050
  535SOL     OW 1623   1.300   2.315   2.553
  535SOL    HW1 1624   1.241   2.395   2.557
  535SOL    HW2 1625   1.315   2.280   2.646
  536SOL     OW 1626   1.593   2.083   2.744
  536SOL    HW1 1627   1.509   2.082   2.798
  536SOL    HW2 1628   1.595   2.166   2.688
  537SOL     OW 1629   0.039   2.939   2.162
  537SOL    HW1 1630   0.138   2.928   2.153
  537SOL    HW2 1631  -0.001   2.853   2.194
  538SOL     OW 1632   2.092   0.628   0.113
  538SOL    HW1 1633   1.999   0.626   0.150
  538SOL    HW2 1634   2.093   0.589   0.021
  539SOL     OW 1635   2.087   0.275   0.996
  539SOL    HW1 1636   2.122   0.258   1.088
  539SOL    HW2 1637   1.999   0.230   0.984
  540SOL     OW 1638   1.881   0.368   0.647
  540SOL    HW1 1639   1.799   0.411   0.686
  540SOL    HW2 1640   1.853   0.295   0.584
  541SOL     OW 1641   2.431   1.275   1.165
  541SOL    HW1 1642   2.338   1.268   1.128
  541SOL    HW2 1643   2.442   1.364   1.209
  542SOL     OW 1644   2.630   1.144   1.023
  542SOL    HW1 1645   2.552   1.161   1.083
  542SOL    HW2 1646   2.664   1.231   0.987
  543SOL     OW 1647   2.712   0.798   1.823
  543SOL    HW1 1648   2.708   0.874   1.888
  543SOL    HW2 1649   2.734   0.834   1.732
  544SOL     OW 1650   2.547   1.012   0.665
  544SOL    HW1 1651   2.616   0.996   0.735
  544SOL    HW2 1652   2.474   1.069   0.703
  545SOL     OW 1653   2.548   1.161   1.803
  545SOL    HW1 1654   2.608   1.240   1.817
  545SOL    HW2 1655   2.462   1.192   1.762
  546SOL     OW 1656   2.197   1.435   1.061
  546SOL    HW1 1657   2.119   1.404   1.008
  546SOL    HW2 1658   2.255   1.493   1.004
  547SOL     OW 1659   2.300   0.392   1.499
  547SOL    HW1 1660   2.382   0.336   1.508
  547SOL    HW2 1661   2.219   0.334   1.503
  548SOL     OW 1662   2.093   1.713   0.483
  548SOL    HW1 1663   2.127   1.790   0.537
  548SOL    HW2 1664   2.137   1.713   0.393
  549SOL     OW 1665   2.989   1.341   1.690
  549SOL    HW1 1666   3.036   1.341   1.778
  549SOL    HW2 1667   2.941   1.254   1.679
  550SOL     OW 1668   2.092   1.434   0.538
  550SOL    HW1 1669   2.066   1.530   0.538
  550SOL    HW2 1670   2.021   1.380   0.583
  551SOL     OW 1671   2.102   1.091   0.886
  551SOL    HW1 1672   2.116   1.007   0.938
  551SOL    HW2 1673   2.047   1.155   0.941
  552SOL     OW 1674   2.482   1.786   1.439
  552SOL    HW1 1675   2.390   1.769   1.474
  552SOL    HW2 1676   2.510   1.878   1.465
  553SOL     OW 1677   2.468   0.964   0.123
  553SOL    HW1 1678   2.475   1.048   0.069
  553SOL    HW2 1679   2.514   0.977   0.211
  554SOL     OW 1680   1.984   0.643   0.563
  554SOL    HW1 1681   1.939   0.555   0.580
  554SOL    HW2 1682   1.983   0.697   0.647
  555SOL     OW 1683   1.889   1.596   0.117
  555SOL    HW1 1684   1.870   1.500   0.138
  555SOL    HW2 1685   1.856   1.654   0.192
  556SOL     OW 1686   1.975   0.737   1.597
  556SOL    HW1 1687   2.063   0.724   1.642
  556SOL    HW2 1688   1.962   0.834   1.575
  557SOL     OW 1689   2.475   1.365   0.726
  557SOL    HW1 1690   2.426   1.278   0.735
  557SOL    HW2 1691   2.452   1.408   0.639
  558SOL     OW 1692   2.671   0.004   0.502
  558SOL    HW1 1693   2.711   0.095   0.493
  558SOL    HW2 1694   2.571   0.012   0.508
  559SOL     OW 1695   2.059   0.976   1.264
  559SOL    HW1 1696   2.148   0.931   1.250
  559SOL    HW2 1697   1.986   0.911   1.245
  560SOL     OW 1698   2.179   0.251   1.801
  560SOL    HW1 1699   2.250   0.322   1.807
  560SOL    HW2 1700   2.091   0.290   1.829
  561SOL     OW 1701   2.460   0.729   0.270
  561SOL    HW1 1702   2.484   0.798   0.202
  561SOL    HW2 1703   2.382   0.762   0.324
  562SOL     OW 1704   2.669   0.605   1.465
  562SOL    HW1 1705   2.622   0.602   1.554
  562SOL    HW2 1706   2.618   0.550   1.399
  563SOL     OW 1707   2.835   0.890   1.572
  563SOL    HW1 1708   2.881   0.806   1.543
  563SOL    HW2 1709   2.779   0.924   1.497
  564SOL     OW 1710   2.853   0.410   1.242
  564SOL    HW1 1711   2.776   0.444   1.296
  564SOL    HW2 1712   2.819   0.359   1.163
  565SOL     OW 1713   2.903   0.701   0.429
  565SOL    HW1 1714   2.929   0.697   0.525
  565SOL    HW2 1715   2.818   0.650   0.415
  566SOL     OW 1716   1.938   0.811   0.789
  566SOL    HW1 1717   2.037   0.799   0.798
  566SOL    HW2 1718   1.914   0.906   0.810
  567SOL     OW 1719   1.992   1.821   1.571
  567SOL    HW1 1720   1.982   1.806   1.670
  567SOL    HW2 1721   1.906   1.857   1.535
  568SOL     OW 1722   2.727   0.348   0.195
  568SOL    HW1 1723   2.786   0.411   0.146
  568SOL    HW2 1724   2.746   0.254   0.166
  569SOL     OW 1725   2.412   0.196   0.885
  569SOL    HW1 1726   2.407   0.191   0.985
  569SOL    HW2 1727   2.414   0.292   0.856
  570SOL     OW 1728   2.870   1.456   0.477
  570SOL    HW1 1729   2.824   1.528   0.425
  570SOL    HW2 1730   2.866   1.476   0.575
  571SOL     OW 1731   2.213   1.801   0.853
  571SOL    HW1 1732   2.263   1.715   0.859
  571SOL    HW2 1733   2.278   1.878   0.850
  572SOL     OW 1734   2.183   0.943   0.242
  572SOL    HW1 1735   2.265   0.982   0.200
  572SOL    HW2 1736   2.156   0.861   0.193
  573SOL     OW 1737   2.323   1.266   1.727
  573SOL    HW1 1738   2.273   1.267   1.641
  573SOL    HW2 1739   2.260   1.248   1.803
  574SOL     OW 1740   2.064   0.285   1.498
  574SOL    HW1 1741   1.984   0.345   1.485
  574SOL    HW2 1742   2.054   0.236   1.584
  575SOL     OW 1743   2.326   1.743   0.323
  575SOL    HW1 1744   2.359   1.782   0.409
  575SOL    HW2 1745   2.402   1.736   0.258
  576SOL     OW 1746   2.111   1.785   1.241
  576SOL    HW1 1747   2.168   1.720   1.291
  576SOL    HW2 1748   2.095   1.752   1.148
  577SOL     OW 1749   2.802   1.698   0.904
  577SOL    HW1 1750   2.882   1.641   0.925
  577SOL    HW2 1751   2.753   1.658   0.827
  578SOL     OW 1752   2.244   0.700   0.480
  578SOL    HW1 1753   2.289   0.610   0.477
  578SOL    HW2 1754   2.150   0.689   0.513
  579SOL     OW 1755   2.476   0.122   0.117
  579SOL    HW1 1756   2.574   0.100   0.124
  579SOL    HW2 1757   2.445   0.105   0.024
  580SOL     OW 1758   2.643   0.264   1.749
  580SOL    HW1 1759   2.710   0.203   1.792
  580SOL    HW2 1760   2.570   0.283   1.814
  581SOL     OW 1761   2.750   1.514   1.195
  581SOL    HW1 1762   2.727   1.489   1.101
  581SOL    HW2 1763   2.811   1.445   1.234
  582SOL     OW 1764   2.665   1.402   0.924
  582SOL    HW1 1765   2.755   1.416   0.882
  582SOL    HW2 1766   2.594   1.404   0.853
  583SOL     OW 1767   2.784   0.503   0.899
  583SOL    HW1 1768   2.759   0.494   0.803
  583SOL    HW2 1769   2.832   0.421   0.930
  584SOL     OW 1770   2.401   0.064   0.512
  584SOL    HW1 1771   2.320   0.065   0.570
  584SOL    HW2 1772   2.404   0.147   0.457
  585SOL     OW 1773   3.296   1.188   0.041
  585SOL    HW1 1774   3.328   1.112   0.098
  585SOL    HW2 1775   3.204   1.215   0.071
  586SOL     OW 1776   2.159   0.035   0.171
  586SOL    HW1 1777   2.208   0.119   0.150
  586SOL    HW2 1778   2.221  -0.030   0.216
  587SOL     OW 1779   2.797   0.236   0.480
  587SOL    HW1 1780   2.749   0.277   0.402
  587SOL    HW2 1781   2.896   0.234   0.461
  588SOL     OW 1782   3.089   1.570   0.793
  588SOL    HW1 1783   3.110   1.644   0.728
  588SOL    HW2 1784   3.157   1.570   0.866
  589SOL     OW 1785   2.321   1.152   0.741
  589SOL    HW1 1786   2.250   1.125   0.806
  589SOL    HW2 1787   2.295   1.124   0.648
  590SOL     OW 1788   2.894   0.549   0.016
  590SOL    HW1 1789   2.853   0.631  -0.023
  590SOL    HW2 1790   2.958   0.575   0.089
  591SOL     OW 1791   1.940   0.556   1.386
  591SOL    HW1 1792   2.032   0.555   1.345
  591SOL    HW2 1793   1.934   0.630   1.453
  592SOL     OW 1794   2.423   0.222   1.147
  592SOL    HW1 1795   2.461   0.138   1.184
  592SOL    HW2 1796   2.335   0.241   1.191
  593SOL     OW 1797   2.728   0.454   0.642
  593SOL    HW1 1798   2.696   0.526   0.580
  593SOL    HW2 1799   2.752   0.373   0.589
  594SOL     OW 1800   2.879   0.039   0.753
  594SOL    HW1 1801   2.807   0.044   0.684
  594SOL    HW2 1802   2.855  -0.030   0.822
  595SOL     OW 1803   2.350   1.385   0.174
  595SOL    HW1 1804   2.263   1.370   0.221
  595SOL    HW2 1805   2.333   1.411   0.079
  596SOL     OW 1806   2.389   0.256   0.328
  596SOL    HW1 1807   2.416   0.197   0.253
  596SOL    HW2 1808   2.389   0.351   0.297
  597SOL     OW 1809   2.777   0.089   1.402
  597SOL    HW1 1810   2.802   0.069   1.307
  597SOL    HW2 1811   2.849   0.145   1.444
  598SOL     OW 1812   2.842   1.116   1.719
  598SOL    HW1 1813   2.743   1.122   1.729
  598SOL    HW2 1814   2.865   1.036   1.663
  599SOL     OW 1815   2.567   1.050   0.368
  599SOL    HW1 1816   2.553   1.057   0.467
  599SOL    HW2 1817   2.651   0.999   0.350
  600SOL     OW 1818   2.272   0.813   1.251
  600SOL    HW1 1819   2.358   0.825   1.301
  600SOL    HW2 1820   2.230   0.726   1.278
  601SOL     OW 1821   2.229   1.100   0.501
  601SOL    HW1 1822   2.222   1.183   0.445
  601SOL    HW2 1823   2.233   1.020   0.441
  602SOL     OW 1824   2.428   0.537   0.865
  602SOL    HW1 1825   2.440   0.603   0.791
  602SOL    HW2 1826   2.474   0.571   0.948
  603SOL     OW 1827   2.216   1.510   1.329
  603SOL    HW1 1828   2.195   1.466   1.242
  603SOL    HW2 1829   2.313   1.536   1.332
  604SOL     OW 1830   2.264   0.751   1.598
  604SOL    HW1 1831   2.332   0.806   1.551
  604SOL    HW2 1832   2.304   0.663   1.625
  605SOL     OW 1833   2.875   0.105   1.770
  605SOL    HW1 1834   2.881   0.190   1.718
  605SOL    HW2 1835   2.907   0.029   1.713
  606SOL     OW 1836   2.366   0.050   1.740
  606SOL    HW1 1837   2.324  -0.007   1.670
  606SOL    HW2 1838   2.300   0.119   1.772
  607SOL     OW 1839   2.435   0.870   1.029
  607SOL    HW1 1840   2.479   0.959   1.020
  607SOL    HW2 1841   2.372   0.870   1.106
  608SOL     OW 1842   3.071   0.525   0.275
  608SOL    HW1 1843   3.084   0.441   0.329
  608SOL    HW2 1844   3.042   0.599   0.335
  609SOL     OW 1845   2.169   0.213   1.231
  609SOL    HW1 1846   2.146   0.250   1.321
  609SOL    HW2 1847   2.139   0.118   1.225
  610SOL     OW 1848   2.594   0.634   1.064
  610SOL    HW1 1849   2.653   0.608   0.988
  610SOL    HW2 1850   2.566   0.730   1.053
  611SOL     OW 1851   2.169   0.063   0.618
  611SOL    HW1 1852   2.158   0.157   0.651
  611SOL    HW2 1853   2.164   0.000   0.695
  612SOL     OW 1854   2.885   0.766   0.966
  612SOL    HW1 1855   2.900   0.787   1.062
  612SOL    HW2 1856   2.855   0.671   0.957
  613SOL     OW 1857   2.842   1.573   1.700
  613SOL    HW1 1858   2.822   1.617   1.612
  613SOL    HW2 1859   2.881   1.482   1.684
  614SOL     OW 1860   2.212   0.898   1.804
  614SOL    HW1 1861   2.288   0.942   1.852
  614SOL    HW2 1862   2.247   0.851   1.722
  615SOL     OW 1863   2.930   1.333   0.849
  615SOL    HW1 1864   2.937   1.249   0.794
  615SOL    HW2 1865   2.992   1.402   0.813
  616SOL     OW 1866   2.181   0.810   0.949
  616SOL    HW1 1867   2.274   0.846   0.954
  616SOL    HW2 1868   2.175   0.725   1.001
  617SOL     OW 1869   2.201   0.509   1.006
  617SOL    HW1 1870   2.149   0.426   0.989
  617SOL    HW2 1871   2.278   0.514   0.942
  618SOL     OW 1872   3.000   0.380   1.678
  618SOL    HW1 1873   2.955   0.443   1.742
  618SOL    HW2 1874   3.093   0.411   1.661
  619SOL     OW 1875   1.870   1.326   0.200
  619SOL    HW1 1876   1.777   1.347   0.169
  619SOL    HW2 1877   1.880   1.227   0.213
  620SOL     OW 1878   1.950   1.801   0.927
  620SOL    HW1 1879   1.908   1.715   0.900
  620SOL    HW2 1880   2.044   1.804   0.893
  621SOL     OW 1881   2.366   1.568   0.910
  621SOL    HW1 1882   2.432   1.642   0.919
  621SOL    HW2 1883   2.410   1.489   0.868
  622SOL     OW 1884   2.864   0.796   1.238
  622SOL    HW1 1885   2.905   0.764   1.324
  622SOL    HW2 1886   2.768   0.769   1.235
  623SOL     OW 1887   1.902   0.544   1.114
  623SOL    HW1 1888   1.987   0.511   1.073
  623SOL    HW2 1889   1.915   0.559   1.212
  624SOL     OW 1890   2.051   0.520   1.722
  624SOL    HW1 1891   2.110   0.480   1.652
  624SOL    HW2 1892   1.993   0.591   1.681
  625SOL     OW 1893   2.677   0.572   0.325
  625SOL    HW1 1894   2.684   0.483   0.279
  625SOL    HW2 1895   2.583   0.606   0.317
  626SOL     OW 1896   2.114   1.564   1.744
  626SOL    HW1 1897   2.084   1.621   1.820
  626SOL    HW2 1898   2.107   1.467   1.770
  627SOL     OW 1899   2.533   0.464   1.269
  627SOL    HW1 1900   2.499   0.375   1.239
  627SOL    HW2 1901   2.559   0.518   1.189
  628SOL     OW 1902   2.792   1.678   1.465
  628SOL    HW1 1903   2.768   1.660   1.370
  628SOL    HW2 1904   2.822   1.772   1.475
  629SOL     OW 1905   2.335   0.500   0.191
  629SOL    HW1 1906   2.396   0.580   0.195
  629SOL    HW2 1907   2.240   0.531   0.198
  630SOL     OW 1908   2.021   1.137   1.466
  630SOL    HW1 1909   2.043   1.076   1.542
  630SOL    HW2 1910   2.031   1.088   1.380
  631SOL     OW 1911   3.164   0.855   0.309
  631SOL    HW1 1912   3.078   0.824   0.351
  631SOL    HW2 1913   3.160   0.841   0.210
  632SOL     OW 1914   1.945   1.258   1.022
  632SOL    HW1 1915   1.940   1.257   1.122
  632SOL    HW2 1916   1.862   1.217   0.984
  633SOL     OW 1917   2.550   1.662   1.716
  633SOL    HW1 1918   2.494   1.743   1.725
  633SOL    HW2 1919   2.602   1.666   1.630
  634SOL     OW 1920   2.765   0.086   0.133
  634SOL    HW1 1921   2.816   0.087   0.047
  634SOL    HW2 1922   2.821   0.044   0.204
  635SOL     OW 1923   1.992   1.794   1.851
  635SOL    HW1 1924   1.951   1.720   1.904
  635SOL    HW2 1925   2.056   1.845   1.909
  636SOL     OW 1926   2.692   1.273   1.422
  636SOL    HW1 1927   2.687   1.306   1.517
  636SOL    HW2 1928   2.606   1.292   1.376
  637SOL     OW 1929   2.534   1.616   0.154
  637SOL    HW1 1930   2.543   1.626   0.055
  637SOL    HW2 1931   2.494   1.527   0.175
  638SOL     OW 1932   2.125   0.326   0.720
  638SOL    HW1 1933   2.046   0.377   0.686
  638SOL    HW2 1934   2.116   0.311   0.818
  639SOL     OW 1935   2.684   1.002   1.372
  639SOL    HW1 1936   2.724   1.001   1.280
  639SOL    HW2 1937   2.694   1.094   1.412
  640SOL     OW 1938   2.778   0.910   0.291
  640SOL    HW1 1939   2.841   0.948   0.223
  640SOL    HW2 1940   2.818   0.827   0.330
  641SOL     OW 1941   2.234   1.288   1.490
  641SOL    HW1 1942   2.221   1.381   1.456
  641SOL    HW2 1943   2.150   1.236   1.477
  642SOL     OW 1944   2.901   1.098   0.696
  642SOL    HW1 1945   2.831   1.051   0.750
  642SOL    HW2 1946   2.960   1.030   0.653
  643SOL     OW 1947   2.876   0.236   0.971
  643SOL    HW1 1948   2.868   0.200   0.878
  643SOL    HW2 1949   2.874   0.160   1.036
  644SOL     OW 1950   2.452   1.487   0.491
  644SOL    HW1 1951   2.494   1.429   0.421
  644SOL    HW2 1952   2.408   1.566   0.447
  645SOL     OW 1953   2.117   1.348   0.290
  645SOL    HW1 1954   2.021   1.349   0.263
  645SOL    HW2 1955   2.129   1.401   0.374
  646SOL     OW 1956   1.967   1.013   1.726
  646SOL    HW1 1957   1.890   0.980   1.780
  646SOL    HW2 1958   2.052   0.983   1.768
  647SOL     OW 1959   2.534   0.203   1.489
  647SOL    HW1 1960   2.624   0.187   1.449
  647SOL    HW2 1961   2.542   0.208   1.588
  648SOL     OW 1962   1.934   0.166   0.318
  648SOL    HW1 1963   1.917   0.249   0.264
  648SOL    HW2 1964   2.024   0.129   0.296
  649SOL     OW 1965   2.475   0.842   1.431
  649SOL    HW1 1966   2.531   0.923   1.414
  649SOL    HW2 1967   2.534   0.762   1.434
  650SOL     OW 1968   2.578   0.565   1.708
  650SOL    HW1 1969   2.597   0.630   1.782
  650SOL    HW2 1970   2.638   0.485   1.717
  651SOL     OW 1971   2.252   1.741   1.560
  651SOL    HW1 1972   2.161   1.782   1.558
  651SOL    HW2 1973   2.245   1.647   1.592
  652SOL     OW 1974   2.456   0.745   0.652
  652SOL    HW1 1975   2.506   0.830   0.633
  652SOL    HW2 1976   2.368   0.747   0.604
  653SOL     OW 1977   2.721   1.374   0.016
  653SOL    HW1 1978   2.675   1.389   0.104
  653SOL    HW2 1979   2.765   1.459  -0.014
  654SOL     OW 1980   2.523   1.790   0.953
  654SOL    HW1 1981   2.477   1.878   0.940
  654SOL    HW2 1982   2.622   1.802   0.946
  655SOL     OW 1983   2.721   0.956   0.861
  655SOL    HW1 1984   2.775   0.887   0.909
  655SOL    HW2 1985   2.689   1.025   0.927
  656SOL     OW 1986   2.945   0.984   0.087
  656SOL    HW1 1987   2.922   1.037   0.005
  656SOL    HW2 1988   3.026   0.928   0.068
  657SOL     OW 1989   2.083   1.314   1.844
  657SOL    HW1 1990   2.018   1.241   1.823
  657SOL    HW2 1991   2.087   1.328   1.942
  658SOL     OW 1992   1.941   1.240   0.653
  658SOL    HW1 1993   1.940   1.193   0.741
  658SOL    HW2 1994   2.023   1.212   0.602
  659SOL     OW 1995   2.534   1.391   1.624
  659SOL    HW1 1996   2.456   1.341   1.662
  659SOL    HW2 1997   2.531   1.486   1.655
  660SOL     OW 1998   2.290   0.424   0.520
  660SOL    HW1 1999   2.320   0.352   0.458
  660SOL    HW2 2000   2.251   0.384   0.603
  661SOL     OW 2001   2.179   0.547   1.280
  661SOL    HW1 2002   2.217   0.488   1.352
  661SOL    HW2 2003   2.219   0.521   1.192
  662SOL     OW 2004   2.674   1.586   0.687
  662SOL    HW1 2005   2.706   1.596   0.593
  662SOL    HW2 2006   2.595   1.524   0.689
  663SOL     OW 2007   2.863   0.034   1.154
  663SOL    HW1 2008   2.800  -0.038   1.123
  663SOL    HW2 2009   2.956  -0.002   1.154
  664SOL     OW 2010   2.632   1.330   0.301
  664SOL    HW1 2011   2.586   1.243   0.318
  664SOL    HW2 2012   2.723   1.327   0.342
  665SOL     OW 2013   2.480   1.567   1.284
  665SOL    HW1 2014   2.475   1.649   1.341
  665SOL    HW2 2015   2.569   1.564   1.239
  666SOL     OW 2016   1.901   1.077   0.300
  666SOL    HW1 2017   2.000   1.066   0.291
  666SOL    HW2 2018   1.861   0.991   0.332
  667SOL     OW 2019   2.737   1.646   0.337
  667SOL    HW1 2020   2.660   1.611   0.283
  667SOL    HW2 2021   2.705   1.717   0.399
  668SOL     OW 2022   2.092   0.628   1.975
  668SOL    HW1 2023   1.999   0.626   2.012
  668SOL    HW2 2024   2.093   0.589   1.883
  669SOL     OW 2025   2.087   0.275   2.858
  669SOL    HW1 2026   2.122   0.258   2.950
  669SOL    HW2 2027   1.999   0.230   2.846
  670SOL     OW 2028   1.881   0.368   2.509
  670SOL    HW1 2029   1.799   0.411   2.548
  670SOL    HW2 2030   1.853   0.295   2.446
  671SOL     OW 2031   2.630   1.144   2.885
  671SOL    HW1 2032   2.552   1.161   2.945
  671SOL    HW2 2033   2.664   1.231   2.849
  672SOL     OW 2034   2.547   1.012   2.527
  672SOL    HW1 2035   2.616   0.996   2.597
  672SOL    HW2 2036   2.474   1.069   2.565
  673SOL     OW 2037   2.197   1.435   2.923
  673SOL    HW1 2038   2.119   1.404   2.870
  673SOL    HW2 2039   2.255   1.493   2.866
  674SOL     OW 2040   2.093   1.713   2.345
  674SOL    HW1 2041   2.127   1.790   2.399
  674SOL    HW2 2042   2.137   1.713   2.255
  675SOL     OW 2043   2.092   1.434   2.400
  675SOL    HW1 2044   2.066   1.530   2.400
  675SOL    HW2 2045   2.021   1.380   2.445
  676SOL     OW 2046   2.102   1.091   2.748
  676SOL    HW1 2047   2.116   1.007   2.800
  676SOL    HW2 2048   2.047   1.155   2.803
  677SOL     OW 2049   2.468   0.964   1.985
  677SOL    HW1 2050   2.475   1.048   1.931
  677SOL    HW2 2051   2.514   0.977   2.073
  678SOL     OW 2052   1.984   0.643   2.425
  678SOL    HW1 2053   1.939   0.555   2.442
  678SOL    HW2 2054   1.983   0.697   2.509
  679SOL     OW 2055   1.889   1.596   1.979
  679SOL    HW1 2056   1.870   1.500   2.000
  679SOL    HW2 2057   1.856   1.654   2.054
  680SOL     OW 2058   2.475   1.365   2.588
  680SOL    HW1 2059   2.426   1.278   2.597
  680SOL    HW2 2060   2.452   1.408   2.501
  681SOL     OW 2061   2.671   0.004   2.364
  681SOL    HW1 2062   2.711   0.095   2.355
  681SOL    HW2 2063   2.571   0.012   2.370
  682SOL     OW 2064   2.460   0.729   2.132
  682SOL    HW1 2065   2.484   0.798   2.064
  682SOL    HW2 2066   2.382   0.762   2.186
  683SOL     OW 2067   2.903   0.701   2.291
  683SOL    HW1 2068   2.929   0.697   2.387
  683SOL    HW2 2069   2.818   0.650   2.277
  684SOL     OW 2070   1.938   0.811   2.651
  684SOL    HW1 2071   2.037   0.799   2.660
  684SOL    HW2 2072   1.914   0.906   2.672
  685SOL     OW 2073   2.727   0.348   2.057
  685SOL    HW1 2074   2.786   0.411   2.008
  685SOL    HW2 2075   2.746   0.254   2.028
  686SOL     OW 2076   2.412   0.196   2.747
  686SOL    HW1 2077   2.407   0.191   2.847
  686SOL    HW2 2078   2.414   0.292   2.718
  687SOL     OW 2079   2.870   1.456   2.339
  687SOL    HW1 2080   2.824   1.528   2.287
  687SOL    HW2 2081   2.866   1.476   2.437
  688SOL     OW 2082   2.213   1.801   2.715
  688SOL    HW1 2083   2.263   1.715   2.721
  688SOL    HW2 2084   2.278   1.878   2.712
  689SOL     OW 2085   2.183   0.943   2.104
  689SOL    HW1 2086   2.265   0.982   2.062
  689SOL    HW2 2087   2.156   0.861   2.055
  690SOL     OW 2088   2.326   1.743   2.185
  690SOL    HW1 2089   2.359   1.782   2.271
  690SOL    HW2 2090   2.402   1.736   2.120
  691SOL     OW 2091   2.111   1.785   3.103
  691SOL    HW1 2092   2.168   1.720   3.153
  691SOL    HW2 2093   2.095   1.752   3.010
  692SOL     OW 2094   2.802   1.698   2.766
  692SOL    HW1 2095   2.882   1.641   2.787
  692SOL    HW2 2096   2.753   1.658   2.689
  693SOL     OW 2097   2.244   0.700   2.342
  693SOL    HW1 2098   2.289   0.610   2.339
  693SOL    HW2 2099   2.150   0.689   2.375
  694SOL     OW 2100   2.476   0.122   1.979
  694SOL    HW1 2101   2.574   0.100   1.986
  694SOL    HW2 2102   2.445   0.105   1.886
  695SOL     OW 2103   2.665   1.402   2.786
  695SOL    HW1 2104   2.755   1.416   2.744
  695SOL    HW2 2105   2.594   1.404   2.715
  696SOL     OW 2106   2.784   0.503   2.761
  696SOL    HW1 2107   2.759   0.494   2.665
  696SOL    HW2 2108   2.832   0.421   2.792
  697SOL     OW 2109   2.401   0.064   2.374
  697SOL    HW1 2110   2.320   0.065   2.432
  697SOL    HW2 2111   2.404   0.147   2.319
  698SOL     OW 2112   2.159   0.035   2.033
  698SOL    HW1 2113   2.208   0.119   2.012
  698SOL    HW2 2114   2.221  -0.030   2.078
  699SOL     OW 2115   2.797   0.236   2.342
  699SOL    HW1 2116   2.749   0.277   2.264
  699SOL    HW2 2117   2.896   0.234   2.323
  700SOL     OW 2118   3.089   1.570   2.655
  700SOL    HW1 2119   3.110   1.644   2.590
  700SOL    HW2 2120   3.157   1.570   2.728
  701SOL     OW 2121   2.321   1.152   2.603
  701SOL    HW1 2122   2.250   1.125   2.668
  701SOL    HW2 2123   2.295   1.124   2.510
  702SOL     OW 2124   2.894   0.549   1.878
  702SOL    HW1 2125   2.853   0.631   1.839
  702SOL    HW2 2126   2.958   0.575   1.951
  703SOL     OW 2127   2.728   0.454   2.504
  703SOL    HW1 2128   2.696   0.526   2.442
  703SOL    HW2 2129   2.752   0.373   2.451
  704SOL     OW 2130   2.879   0.039   2.615
  704SOL    HW1 2131   2.807   0.044   2.546
  704SOL    HW2 2132   2.855  -0.030   2.684
  705SOL     OW 2133   2.350   1.385   2.036
  705SOL    HW1 2134   2.263   1.370   2.083
  705SOL    HW2 2135   2.333   1.411   1.941
  706SOL     OW 2136   2.389   0.256   2.190
  706SOL    HW1 2137   2.416   0.197   2.115
  706SOL    HW2 2138   2.389   0.351   2.159
  707SOL     OW 2139   2.567   1.050   2.230
  707SOL    HW1 2140   2.553   1.057   2.329
  707SOL    HW2 2141   2.651   0.999   2.212
  708SOL     OW 2142   2.229   1.100   2.363
  708SOL    HW1 2143   2.222   1.183   2.307
  708SOL    HW2 2144   2.233   1.020   2.303
  709SOL     OW 2145   2.428   0.537   2.727
  709SOL    HW1 2146   2.440   0.603   2.653
  709SOL    HW2 2147   2.474   0.571   2.810
  710SOL     OW 2148   2.435   0.870   2.891
  710SOL    HW1 2149   2.479   0.959   2.882
  710SOL    HW2 2150   2.372   0.870   2.968
  711SOL     OW 2151   3.071   0.525   2.137
  711SOL    HW1 2152   3.084   0.441   2.191
  711SOL    HW2 2153   3.042   0.599   2.197
  712SOL     OW 2154   2.594   0.634   2.926
  712SOL    HW1 2155   2.653   0.608   2.850
  712SOL    HW2 2156   2.566   0.730   2.915
  713SOL     OW 2157   2.169   0.063   2.480
  713SOL    HW1 2158   2.158   0.157   2.513
  713SOL    HW2 2159   2.164   0.000   2.557
  714SOL     OW 2160   2.885   0.766   2.828
  714SOL    HW1 2161   2.900   0.787   2.924
  714SOL    HW2 2162   2.855   0.671   2.819
  715SOL     OW 2163   2.930   1.333   2.711
  715SOL    HW1 2164   2.937   1.249   2.656
  715SOL    HW2 2165   2.992   1.402   2.675
  716SOL     OW 2166   2.181   0.810   2.811
  716SOL    HW1 2167   2.274   0.846   2.816
  716SOL    HW2 2168   2.175   0.725   2.863
  717SOL     OW 2169   2.201   0.509   2.868
  717SOL    HW1 2170   2.149   0.426   2.851
  717SOL    HW2 2171   2.278   0.514   2.804
  718SOL     OW 2172   1.870   1.326   2.062
  718SOL    HW1 2173   1.777   1.347   2.031
  718SOL    HW2 2174   1.880   1.227   2.075
  719SOL     OW 2175   1.950   1.801   2.789
  719SOL    HW1 2176   1.908   1.715   2.762
  719SOL    HW2 2177   2.044   1.804   2.755
  720SOL     OW 2178   2.366   1.568   2.772
  720SOL    HW1 2179   2.432   1.642   2.781
  720SOL    HW2 2180   2.410   1.489   2.730
  721SOL     OW 2181   2.864   0.796   3.100
  721SOL    HW1 2182   2.905   0.764   3.186
  721SOL    HW2 2183   2.768   0.769   3.097
  722SOL     OW 2184   2.677   0.572   2.187
  722SOL    HW1 2185   2.684   0.483   2.141
  722SOL    HW2 2186   2.583   0.606   2.179
  723SOL     OW 2187   2.533   0.464   3.131
  723SOL    HW1 2188   2.499   0.375   3.101
  723SOL    HW2 2189   2.559   0.518   3.051
  724SOL     OW 2190   2.335   0.500   2.053
  724SOL    HW1 2191   2.396   0.580   2.057
  724SOL    HW2 2192   2.240   0.531   2.060
  725SOL     OW 2193   3.164   0.855   2.171
  725SOL    HW1 2194   3.078   0.824   2.213
  725SOL    HW2 2195   3.160   0.841   2.072
  726SOL     OW 2196   1.945   1.258   2.884
  726SOL    HW1 2197   1.940   1.257   2.984
  726SOL    HW2 2198   1.862   1.217   2.846
  727SOL     OW 2199   2.534   1.616   2.016
  727SOL    HW1 2200   2.543   1.626   1.917
  727SOL    HW2 2201   2.494   1.527   2.037
  728SOL     OW 2202   2.125   0.326   2.582
  728SOL    HW1 2203   2.046   0.377   2.548
  728SOL    HW2 2204   2.116   0.311   2.680
  729SOL     OW 2205   2.778   0.910   2.153
  729SOL    HW1 2206   2.841   0.948   2.085
  729SOL    HW2 2207   2.818   0.827   2.192
  730SOL     OW 2208   2.901   1.098   2.558
  730SOL    HW1 2209   2.831   1.051   2.612
  730SOL    HW2 2210   2.960   1.030   2.515
  731SOL     OW 2211   2.876   0.236   2.833
  731SOL    HW1 2212   2.868   0.200   2.740
  731SOL    HW2 2213   2.874   0.160   2.898
  732SOL     OW 2214   2.452   1.487   2.353
  732SOL    HW1 2215   2.494   1.429   2.283
  732SOL    HW2 2216   2.408   1.566   2.309
  733SOL     OW 2217   2.117   1.348   2.152
  733SOL    HW1 2218   2.021   1.349   2.125
  733SOL    HW2 2219   2.129   1.401   2.236
  734SOL     OW 2220   1.937   0.345   1.895
  734SOL    HW1 2221   1.845   0.317   1.866
  734SOL    HW2 2222   1.968   0.422   1.839
  735SOL     OW 2223   1.934   0.166   2.180
  735SOL    HW1 2224   1.917   0.249   2.126
  735SOL    HW2 2225   2.024   0.129   2.158
  736SOL     OW 2226   2.456   0.745   2.514
  736SOL    HW1 2227   2.506   0.830   2.495
  736SOL    HW2 2228   2.368   0.747   2.466
  737SOL     OW 2229   2.721   1.374   1.878
  737SOL    HW1 2230   2.675   1.389   1.966
  737SOL    HW2 2231   2.765   1.459   1.848
  738SOL     OW 2232   2.523   1.790   2.815
  738SOL    HW1 2233   2.477   1.878   2.802
  738SOL    HW2 2234   2.622   1.802   2.808
  739SOL     OW 2235   2.721   0.956   2.723
  739SOL    HW1 2236   2.775   0.887   2.771
  739SOL    HW2 2237   2.689   1.025   2.789
  740SOL     OW 2238   2.945   0.984   1.949
  740SOL    HW1 2239   2.922   1.037   1.867
  740SOL    HW2 2240   3.026   0.928   1.930
  741SOL     OW 2241   1.941   1.240   2.515
  741SOL    HW1 2242   1.940   1.193   2.603
  741SOL    HW2 2243   2.023   1.212   2.464
  742SOL     OW 2244   2.290   0.424   2.382
  742SOL    HW1 2245   2.320   0.352   2.320
  742SOL    HW2 2246   2.251   0.384   2.465
  743SOL     OW 2247   2.674   1.586   2.549
  743SOL    HW1 2248   2.706   1.596   2.455
  743SOL    HW2 2249   2.595   1.524   2.551
  744SOL     OW 2250   2.632   1.330   2.163
  744SOL    HW1 2251   2.586   1.243   2.180
  744SOL    HW2 2252   2.723   1.327   2.204
  745SOL     OW 2253   1.901   1.077   2.162
  745SOL    HW1 2254   2.000   1.066   2.153
  745SOL    HW2 2255   1.861   0.991   2.194
  746SOL     OW 2256   2.737   1.646   2.199
  746SOL    HW1 2257   2.660   1.611   2.145
  746SOL    HW2 2258   2.705   1.717   2.261
  747SOL     OW 2259   2.092   2.490   0.113
  747SOL    HW1 2260   1.999   2.488   0.150
  747SOL    HW2 2261   2.093   2.451   0.021
  748SOL     OW 2262   2.087   2.137   0.996
  748SOL    HW1 2263   2.122   2.120   1.088
  748SOL    HW2 2264   1.999   2.092   0.984
  749SOL     OW 2265   1.881   2.230   0.647
  749SOL    HW1 2266   1.799   2.273   0.686
  749SOL    HW2 2267   1.853   2.157   0.584
  750SOL     OW 2268   2.630   3.006   1.023
  750SOL    HW1 2269   2.552   3.023   1.083
  750SOL    HW2 2270   2.664   3.093   0.987
  751SOL     OW 2271   2.712   2.660   1.823
  751SOL    HW1 2272   2.708   2.736   1.888
  751SOL    HW2 2273   2.734   2.696   1.732
  752SOL     OW 2274   2.547   2.874   0.665
  752SOL    HW1 2275   2.616   2.858   0.735
  752SOL    HW2 2276   2.474   2.931   0.703
  753SOL     OW 2277   2.300   2.254   1.499
  753SOL    HW1 2278   2.382   2.198   1.508
  753SOL    HW2 2279   2.219   2.196   1.503
  754SOL     OW 2280   2.092   3.296   0.538
  754SOL    HW1 2281   2.066   3.392   0.538
  754SOL    HW2 2282   2.021   3.242   0.583
  755SOL     OW 2283   2.102   2.953   0.886
  755SOL    HW1 2284   2.116   2.869   0.938
  755SOL    HW2 2285   2.047   3.017   0.941
  756SOL     OW 2286   2.468   2.826   0.123
  756SOL    HW1 2287   2.475   2.910   0.069
  756SOL    HW2 2288   2.514   2.839   0.211
  757SOL     OW 2289   1.984   2.505   0.563
  757SOL    HW1 2290   1.939   2.417   0.580
  757SOL    HW2 2291   1.983   2.559   0.647
  758SOL     OW 2292   1.975   2.599   1.597
  758SOL    HW1 2293   2.063   2.586   1.642
  758SOL    HW2 2294   1.962   2.696   1.575
  759SOL     OW 2295   2.671   1.866   0.502
  759SOL    HW1 2296   2.711   1.957   0.493
  759SOL    HW2 2297   2.571   1.874   0.508
  760SOL     OW 2298   2.059   2.838   1.264
  760SOL    HW1 2299   2.148   2.793   1.250
  760SOL    HW2 2300   1.986   2.773   1.245
  761SOL     OW 2301   2.179   2.113   1.801
  761SOL    HW1 2302   2.250   2.184   1.807
  761SOL    HW2 2303   2.091   2.152   1.829
  762SOL     OW 2304   2.460   2.591   0.270
  762SOL    HW1 2305   2.484   2.660   0.202
  762SOL    HW2 2306   2.382   2.624   0.324
  763SOL     OW 2307   2.669   2.467   1.465
  763SOL    HW1 2308   2.622   2.464   1.554
  763SOL    HW2 2309   2.618   2.412   1.399
  764SOL     OW 2310   2.835   2.752   1.572
  764SOL    HW1 2311   2.881   2.668   1.543
  764SOL    HW2 2312   2.779   2.786   1.497
  765SOL     OW 2313   2.853   2.272   1.242
  765SOL    HW1 2314   2.776   2.306   1.296
  765SOL    HW2 2315   2.819   2.221   1.163
  766SOL     OW 2316   2.903   2.563   0.429
  766SOL    HW1 2317   2.929   2.559   0.525
  766SOL    HW2 2318   2.818   2.512   0.415
  767SOL     OW 2319   1.938   2.673   0.789
  767SOL    HW1 2320   2.037   2.661   0.798
  767SOL    HW2 2321   1.914   2.768   0.810
  768SOL     OW 2322   2.727   2.210   0.195
  768SOL    HW1 2323   2.786   2.273   0.146
  768SOL    HW2 2324   2.746   2.116   0.166
  769SOL     OW 2325   2.412   2.058   0.885
  769SOL    HW1 2326   2.407   2.053   0.985
  769SOL    HW2 2327   2.414   2.154   0.856
  770SOL     OW 2328   2.183   2.805   0.242
  770SOL    HW1 2329   2.265   2.844   0.200
  770SOL    HW2 2330   2.156   2.723   0.193
  771SOL     OW 2331   2.064   2.147   1.498
  771SOL    HW1 2332   1.984   2.207   1.485
  771SOL    HW2 2333   2.054   2.098   1.584
  772SOL     OW 2334   2.244   2.562   0.480
  772SOL    HW1 2335   2.289   2.472   0.477
  772SOL    HW2 2336   2.150   2.551   0.513
  773SOL     OW 2337   2.476   1.984   0.117
  773SOL    HW1 2338   2.574   1.962   0.124
  773SOL    HW2 2339   2.445   1.967   0.024
  774SOL     OW 2340   2.643   2.126   1.749
  774SOL    HW1 2341   2.710   2.065   1.792
  774SOL    HW2 2342   2.570   2.145   1.814
  775SOL     OW 2343   2.784   2.365   0.899
  775SOL    HW1 2344   2.759   2.356   0.803
  775SOL    HW2 2345   2.832   2.283   0.930
  776SOL     OW 2346   2.401   1.926   0.512
  776SOL    HW1 2347   2.320   1.927   0.570
  776SOL    HW2 2348   2.404   2.009   0.457
  777SOL     OW 2349   2.797   2.098   0.480
  777SOL    HW1 2350   2.749   2.139   0.402
  777SOL    HW2 2351   2.896   2.096   0.461
  778SOL     OW 2352   2.894   2.411   0.016
  778SOL    HW1 2353   2.853   2.493  -0.023
  778SOL    HW2 2354   2.958   2.437   0.089
  779SOL     OW 2355   1.940   2.418   1.386
  779SOL    HW1 2356   2.032   2.417   1.345
  779SOL    HW2 2357   1.934   2.492   1.453
  780SOL     OW 2358   2.423   2.084   1.147
  780SOL    HW1 2359   2.461   2.000   1.184
  780SOL    HW2 2360   2.335   2.103   1.191
  781SOL     OW 2361   2.728   2.316   0.642
  781SOL    HW1 2362   2.696   2.388   0.580
  781SOL    HW2 2363   2.752   2.235   0.589
  782SOL     OW 2364   2.879   1.901   0.753
  782SOL    HW1 2365   2.807   1.906   0.684
  782SOL    HW2 2366   2.855   1.832   0.822
  783SOL     OW 2367   2.389   2.118   0.328
  783SOL    HW1 2368   2.416   2.059   0.253
  783SOL    HW2 2369   2.389   2.213   0.297
  784SOL     OW 2370   2.777   1.951   1.402
  784SOL    HW1 2371   2.802   1.931   1.307
  784SOL    HW2 2372   2.849   2.007   1.444
  785SOL     OW 2373   2.272   2.675   1.251
  785SOL    HW1 2374   2.358   2.687   1.301
  785SOL    HW2 2375   2.230   2.588   1.278
  786SOL     OW 2376   2.428   2.399   0.865
  786SOL    HW1 2377   2.440   2.465   0.791
  786SOL    HW2 2378   2.474   2.433   0.948
  787SOL     OW 2379   2.264   2.613   1.598
  787SOL    HW1 2380   2.332   2.668   1.551
  787SOL    HW2 2381   2.304   2.525   1.625
  788SOL     OW 2382   2.875   1.967   1.770
  788SOL    HW1 2383   2.881   2.052   1.718
  788SOL    HW2 2384   2.907   1.891   1.713
  789SOL     OW 2385   2.366   1.912   1.740
  789SOL    HW1 2386   2.324   1.855   1.670
  789SOL    HW2 2387   2.300   1.981   1.772
  790SOL     OW 2388   2.435   2.732   1.029
  790SOL    HW1 2389   2.479   2.821   1.020
  790SOL    HW2 2390   2.372   2.732   1.106
  791SOL     OW 2391   3.071   2.387   0.275
  791SOL    HW1 2392   3.084   2.303   0.329
  791SOL    HW2 2393   3.042   2.461   0.335
  792SOL     OW 2394   2.169   2.075   1.231
  792SOL    HW1 2395   2.146   2.112   1.321
  792SOL    HW2 2396   2.139   1.980   1.225
  793SOL     OW 2397   2.594   2.496   1.064
  793SOL    HW1 2398   2.653   2.470   0.988
  793SOL    HW2 2399   2.566   2.592   1.053
  794SOL     OW 2400   2.169   1.925   0.618
  794SOL    HW1 2401   2.158   2.019   0.651
  794SOL    HW2 2402   2.164   1.862   0.695
  795SOL     OW 2403   2.885   2.628   0.966
  795SOL    HW1 2404   2.900   2.649   1.062
  795SOL    HW2 2405   2.855   2.533   0.957
  796SOL     OW 2406   2.212   2.760   1.804
  796SOL    HW1 2407   2.288   2.804   1.852
  796SOL    HW2 2408   2.247   2.713   1.722
  797SOL     OW 2409   2.181   2.672   0.949
  797SOL    HW1 2410   2.274   2.708   0.954
  797SOL    HW2 2411   2.175   2.587   1.001
  798SOL     OW 2412   2.201   2.371   1.006
  798SOL    HW1 2413   2.149   2.288   0.989
  798SOL    HW2 2414   2.278   2.376   0.942
  799SOL     OW 2415   3.000   2.242   1.678
  799SOL    HW1 2416   2.955   2.305   1.742
  799SOL    HW2 2417   3.093   2.273   1.661
  800SOL     OW 2418   3.022   2.069   1.477
  800SOL    HW1 2419   3.022   2.133   1.554
  800SOL    HW2 2420   3.050   2.117   1.394
  801SOL     OW 2421   2.864   2.658   1.238
  801SOL    HW1 2422   2.905   2.626   1.324
  801SOL    HW2 2423   2.768   2.631   1.235
  802SOL     OW 2424   1.902   2.406   1.114
  802SOL    HW1 2425   1.987   2.373   1.073
  802SOL    HW2 2426   1.915   2.421   1.212
  803SOL     OW 2427   2.051   2.382   1.722
  803SOL    HW1 2428   2.110   2.342   1.652
  803SOL    HW2 2429   1.993   2.453   1.681
  804SOL     OW 2430   2.677   2.434   0.325
  804SOL    HW1 2431   2.684   2.345   0.279
  804SOL    HW2 2432   2.583   2.468   0.317
  805SOL     OW 2433   2.533   2.326   1.269
  805SOL    HW1 2434   2.499   2.237   1.239
  805SOL    HW2 2435   2.559   2.380   1.189
  806SOL     OW 2436   2.335   2.362   0.191
  806SOL    HW1 2437   2.396   2.442   0.195
  806SOL    HW2 2438   2.240   2.393   0.198
  807SOL     OW 2439   2.021   2.999   1.466
  807SOL    HW1 2440   2.043   2.938   1.542
  807SOL    HW2 2441   2.031   2.950   1.380
  808SOL     OW 2442   3.164   2.717   0.309
  808SOL    HW1 2443   3.078   2.686   0.351
  808SOL    HW2 2444   3.160   2.703   0.210
  809SOL     OW 2445   2.765   1.948   0.133
  809SOL    HW1 2446   2.816   1.949   0.047
  809SOL    HW2 2447   2.821   1.906   0.204
  810SOL     OW 2448   2.125   2.188   0.720
  810SOL    HW1 2449   2.046   2.239   0.686
  810SOL    HW2 2450   2.116   2.173   0.818
  811SOL     OW 2451   2.684   2.864   1.372
  811SOL    HW1 2452   2.724   2.863   1.280
  811SOL    HW2 2453   2.694   2.956   1.412
  812SOL     OW 2454   2.778   2.772   0.291
  812SOL    HW1 2455   2.841   2.810   0.223
  812SOL    HW2 2456   2.818   2.689   0.330
  813SOL     OW 2457   2.876   2.098   0.971
  813SOL    HW1 2458   2.868   2.062   0.878
  813SOL    HW2 2459   2.874   2.022   1.036
  814SOL     OW 2460   1.967   2.875   1.726
  814SOL    HW1 2461   1.890   2.842   1.780
  814SOL    HW2 2462   2.052   2.845   1.768
  815SOL     OW 2463   2.534   2.065   1.489
  815SOL    HW1 2464   2.624   2.049   1.449
  815SOL    HW2 2465   2.542   2.070   1.588
  816SOL     OW 2466   1.934   2.028   0.318
  816SOL    HW1 2467   1.917   2.111   0.264
  816SOL    HW2 2468   2.024   1.991   0.296
  817SOL     OW 2469   2.475   2.704   1.431
  817SOL    HW1 2470   2.531   2.785   1.414
  817SOL    HW2 2471   2.534   2.624   1.434
  818SOL     OW 2472   2.578   2.427   1.708
  818SOL    HW1 2473   2.597   2.492   1.782
  818SOL    HW2 2474   2.638   2.347   1.717
  819SOL     OW 2475   2.456   2.607   0.652
  819SOL    HW1 2476   2.506   2.692   0.633
  819SOL    HW2 2477   2.368   2.609   0.604
  820SOL     OW 2478   2.721   2.818   0.861
  820SOL    HW1 2479   2.775   2.749   0.909
  820SOL    HW2 2480   2.689   2.887   0.927
  821SOL     OW 2481   2.945   2.846   0.087
  821SOL    HW1 2482   2.922   2.899   0.005
  821SOL    HW2 2483   3.026   2.790   0.068
  822SOL     OW 2484   2.290   2.286   0.520
  822SOL    HW1 2485   2.320   2.214   0.458
  822SOL    HW2 2486   2.251   2.246   0.603
  823SOL     OW 2487   2.179   2.409   1.280
  823SOL    HW1 2488   2.217   2.350   1.352
  823SOL    HW2 2489   2.219   2.383   1.192
  824SOL     OW 2490   2.863   1.896   1.154
  824SOL    HW1 2491   2.800   1.824   1.123
  824SOL    HW2 2492   2.956   1.860   1.154
  825SOL     OW 2493   1.901   2.939   0.300
  825SOL    HW1 2494   2.000   2.928   0.291
  825SOL    HW2 2495   1.861   2.853   0.332
  826SOL     OW 2496   2.092   2.490   1.975
  826SOL    HW1 2497   1.999   2.488   2.012
  826SOL    HW2 2498   2.093   2.451   1.883
  827SOL     OW 2499   2.087   2.137   2.858
  827SOL    HW1 2500   2.122   2.120   2.950
  827SOL    HW2 2501   1.999   2.092   2.846
  828SOL     OW 2502   1.881   2.230   2.509
  828SOL    HW1 2503   1.799   2.273   2.548
  828SOL    HW2 2504   1.853   2.157   2.446
  829SOL     OW 2505   2.630   3.006   2.885
  829SOL    HW1 2506   2.552   3.023   2.945
  829SOL    HW2 2507   2.664   3.093   2.849
  830SOL     OW 2508   2.547   2.874   2.527
  830SOL    HW1 2509   2.616   2.858   2.597
  830SOL    HW2 2510   2.474   2.931   2.565
  831SOL     OW 2511   2.092   3.296   2.400
  831SOL    HW1 2512   2.066   3.392   2.400
  831SOL    HW2 2513   2.021   3.242   2.445
  832SOL     OW 2514   2.102   2.953   2.748
  832SOL    HW1 2515   2.116   2.869   2.800
  832SOL    HW2 2516   2.047   3.017   2.803
  833SOL     OW 2517   2.468   2.826   1.985
  833SOL    HW1 2518   2.475   2.910   1.931
  833SOL    HW2 2519   2.514   2.839   2.073
  834SOL     OW 2520   1.984   2.505   2.425
  834SOL    HW1 2521   1.939   2.417   2.442
  834SOL    HW2 2522   1.983   2.559   2.509
  835SOL     OW 2523   2.671   1.866   2.364
  835SOL    HW1 2524   2.711   1.957   2.355
  835SOL    HW2 2525   2.571   1.874   2.370
  836SOL     OW 2526   2.460   2.591   2.132
  836SOL    HW1 2527   2.484   2.660   2.064
  836SOL    HW2 2528   2.382   2.624   2.186
  837SOL     OW 2529   2.903   2.563   2.291
  837SOL    HW1 2530   2.929   2.559   2.387
  837SOL    HW2 2531   2.818   2.512   2.277
  838SOL     OW 2532   1.938   2.673   2.651
  838SOL    HW1 2533   2.037   2.661   2.660
  838SOL    HW2 2534   1.914   2.768   2.672
  839SOL     OW 2535   2.727   2.210   2.057
  839SOL    HW1 2536   2.786   2.273   2.008
  839SOL    HW2 2537   2.746   2.116   2.028
  840SOL     OW 2538   2.412   2.058   2.747
  840SOL    HW1 2539   2.407   2.053   2.847
  840SOL    HW2 2540   2.414   2.154   2.718
  841SOL     OW 2541   2.183   2.805   2.104
  841SOL    HW1 2542   2.265   2.844   2.062
  841SOL    HW2 2543   2.156   2.723   2.055
  842SOL     OW 2544   2.244   2.562   2.342
  842SOL    HW1 2545   2.289   2.472   2.339
  842SOL    HW2 2546   2.150   2.551   2.375
  843SOL     OW 2547   2.476   1.984   1.979
  843SOL    HW1 2548   2.574   1.962   1.986
  843SOL    HW2 2549   2.445   1.967   1.886
  844SOL     OW 2550   2.784   2.365   2.761
  844SOL    HW1 2551   2.759   2.356   2.665
  844SOL    HW2 2552   2.832   2.283   2.792
  845SOL     OW 2553   2.401   1.926   2.374
  845SOL    HW1 2554   2.320   1.927   2.432
  845SOL    HW2 2555   2.404   2.009   2.319
  846SOL     OW 2556   2.159   1.897   2.033
  846SOL    HW1 2557   2.208   1.981   2.012
  846SOL    HW2 2558   2.221   1.832   2.078
  847SOL     OW 2559   2.797   2.098   2.342
  847SOL    HW1 2560   2.749   2.139   2.264
  847SOL    HW2 2561   2.896   2.096   2.323
  848SOL     OW 2562   2.894   2.411   1.878
  848SOL    HW1 2563   2.853   2.493   1.839
  848SOL    HW2 2564   2.958   2.437   1.951
  849SOL     OW 2565   2.728   2.316   2.504
  849SOL    HW1 2566   2.696   2.388   2.442
  849SOL    HW2 2567   2.752   2.235   2.451
  850SOL     OW 2568   2.879   1.901   2.615
  850SOL    HW1 2569   2.807   1.906   2.546
  850SOL    HW2 2570   2.855   1.832   2.684
  851SOL     OW 2571   2.389   2.118   2.190
  851SOL    HW1 2572   2.416   2.059   2.115
  851SOL    HW2 2573   2.389   2.213   2.159
  852SOL     OW 2574   2.428   2.399   2.727
  852SOL    HW1 2575   2.440   2.465   2.653
  852SOL    HW2 2576   2.474   2.433   2.810
  853SOL     OW 2577   2.435   2.732   2.891
  853SOL    HW1 2578   2.479   2.821   2.882
  853SOL    HW2 2579   2.372   2.732   2.968
  854SOL     OW 2580   3.071   2.387   2.137
  854SOL    HW1 2581   3.084   2.303   2.191
  854SOL    HW2 2582   3.042   2.461   2.197
  855SOL     OW 2583   2.169   2.075   3.093
  855SOL    HW1 2584   2.146   2.112   3.183
  855SOL    HW2 2585   2.139   1.980   3.087
  856SOL     OW 2586   2.594   2.496   2.926
  856SOL    HW1 2587   2.653   2.470   2.850
  856SOL    HW2 2588   2.566   2.592   2.915
  857SOL     OW 2589   2.169   1.925   2.480
  857SOL    HW1 2590   2.158   2.019   2.513
  857SOL    HW2 2591   2.164   1.862   2.557
  858SOL     OW 2592   2.885   2.628   2.828
  858SOL    HW1 2593   2.900   2.649   2.924
  858SOL    HW2 2594   2.855   2.533   2.819
  859SOL     OW 2595   2.181   2.672   2.811
  859SOL    HW1 2596   2.274   2.708   2.816
  859SOL    HW2 2597   2.175   2.587   2.863
  860SOL     OW 2598   2.201   2.371   2.868
  860SOL    HW1 2599   2.149   2.288   2.851
  860SOL    HW2 2600   2.278   2.376   2.804
  861SOL     OW 2601   2.864   2.658   3.100
  861SOL    HW1 2602   2.905   2.626   3.186
  861SOL    HW2 2603   2.768   2.631   3.097
  862SOL     OW 2604   2.677   2.434   2.187
  862SOL    HW1 2605   2.684   2.345   2.141
  862SOL    HW2 2606   2.583   2.468   2.179
  863SOL     OW 2607   2.533   2.326   3.131
  863SOL    HW1 2608   2.499   2.237   3.101
  863SOL    HW2 2609   2.559   2.380   3.051
  864SOL     OW 2610   2.335   2.362   2.053
  864SOL    HW1 2611   2.396   2.442   2.057
  864SOL    HW2 2612   2.240   2.393   2.060
  865SOL     OW 2613   3.209   2.921   3.096
  865SOL    HW1 2614   3.233   2.858   3.022
  865SOL    HW2 2615   3.119   2.961   3.078
  866SOL     OW 2616   3.164   2.717   2.171
  866SOL    HW1 2617   3.078   2.686   2.213
  866SOL    HW2 2618   3.160   2.703   2.072
  867SOL     OW 2619   2.125   2.188   2.582
  867SOL    HW1 2620   2.046   2.239   2.548
  867SOL    HW2 2621   2.116   2.173   2.680
  868SOL     OW 2622   2.778   2.772   2.153
  868SOL    HW1 2623   2.841   2.810   2.085
  868SOL    HW2 2624   2.818   2.689   2.192
  869SOL     OW 2625   2.876   2.098   2.833
  869SOL    HW1 2626   2.868   2.062   2.740
  869SOL    HW2 2627   2.874   2.022   2.898
  870SOL     OW 2628   1.937   2.207   1.895
  870SOL    HW1 2629   1.845   2.179   1.866
  870SOL    HW2 2630   1.968   2.284   1.839
  871SOL     OW 2631   1.934   2.028   2.180
  871SOL    HW1 2632   1.917   2.111   2.126
  871SOL    HW2 2633   2.024   1.991   2.158
  872SOL     OW 2634   2.456   2.607   2.514
  872SOL    HW1 2635   2.506   2.692   2.495
  872SOL    HW2 2636   2.368   2.609   2.466
  873SOL     OW 2637   2.721   2.818   2.723
  873SOL    HW1 2638   2.775   2.749   2.771
  873SOL    HW2 2639   2.689   2.887   2.789
  874SOL     OW 2640   2.945   2.846   1.949
  874SOL    HW1 2641   2.922   2.899   1.867
  874SOL    HW2 2642   3.026   2.790   1.930
  875SOL     OW 2643   2.290   2.286   2.382
  875SOL    HW1 2644   2.320   2.214   2.320
  875SOL    HW2 2645   2.251   2.246   2.465
  876SOL     OW 2646   1.901   2.939   2.162
  876SOL    HW1 2647   2.000   2.928   2.153
  876SOL    HW2 2648   1.861   2.853   2.194
   3.00715   3.00715   3.00715
