mobley_7295828_GMX.gro created by acpype (v: 2023.10.27) on Thu May 14 13:39:08 2026
 1933
    1MOL     C1    1   1.386   1.327   1.121
    1MOL     C2    2   1.279   1.387   1.188
    1MOL     C3    3   1.491   1.271   1.193
    1MOL     C4    4   1.277   1.390   1.328
    1MOL     C5    5   1.489   1.274   1.333
    1MOL     C6    6   1.382   1.333   1.400
    1MOL     C7    7   1.268   1.399   1.598
    1MOL     O1    8   1.380   1.336   1.536
    1MOL     H1    9   1.387   1.325   1.012
    1MOL     H2   10   1.197   1.431   1.132
    1MOL     H3   11   1.574   1.224   1.141
    1MOL     H4   12   1.194   1.437   1.380
    1MOL     H5   13   1.571   1.229   1.389
    1MOL     H6   14   1.186   1.327   1.607
    1MOL     H7   15   1.237   1.485   1.539
    1MOL     H8   16   1.297   1.432   1.698
    2SOL     OW   17   0.230   0.628   0.113
    2SOL    HW1   18   0.137   0.626   0.150
    2SOL    HW2   19   0.231   0.589   0.021
    3SOL     OW   20   0.225   0.275   0.996
    3SOL    HW1   21   0.260   0.258   1.088
    3SOL    HW2   22   0.137   0.230   0.984
    4SOL     OW   23   0.019   0.368   0.647
    4SOL    HW1   24  -0.063   0.411   0.686
    4SOL    HW2   25  -0.009   0.295   0.584
    5SOL     OW   26   0.569   1.275   1.165
    5SOL    HW1   27   0.476   1.268   1.128
    5SOL    HW2   28   0.580   1.364   1.209
    6SOL     OW   29   1.555   1.511   0.703
    6SOL    HW1   30   1.498   1.495   0.784
    6SOL    HW2   31   1.496   1.521   0.623
    7SOL     OW   32   1.135   0.703   0.717
    7SOL    HW1   33   1.192   0.781   0.692
    7SOL    HW2   34   1.075   0.729   0.793
    8SOL     OW   35   1.755   0.607   0.231
    8SOL    HW1   36   1.743   0.594   0.132
    8SOL    HW2   37   1.725   0.526   0.280
    9SOL     OW   38   0.768   1.144   1.023
    9SOL    HW1   39   0.690   1.161   1.083
    9SOL    HW2   40   0.802   1.231   0.987
   10SOL     OW   41   0.850   0.798   1.823
   10SOL    HW1   42   0.846   0.874   1.888
   10SOL    HW2   43   0.872   0.834   1.732
   11SOL     OW   44   0.685   1.012   0.665
   11SOL    HW1   45   0.754   0.996   0.735
   11SOL    HW2   46   0.612   1.069   0.703
   12SOL     OW   47   0.686   1.161   1.803
   12SOL    HW1   48   0.746   1.240   1.817
   12SOL    HW2   49   0.600   1.192   1.762
   13SOL     OW   50   0.335   1.435   1.061
   13SOL    HW1   51   0.257   1.404   1.008
   13SOL    HW2   52   0.393   1.493   1.004
   14SOL     OW   53   0.438   0.392   1.499
   14SOL    HW1   54   0.520   0.336   1.508
   14SOL    HW2   55   0.357   0.334   1.503
   15SOL     OW   56   1.603   0.447   0.737
   15SOL    HW1   57   1.529   0.493   0.687
   15SOL    HW2   58   1.654   0.515   0.790
   16SOL     OW   59   0.231   1.713   0.483
   16SOL    HW1   60   0.265   1.790   0.537
   16SOL    HW2   61   0.275   1.713   0.393
   17SOL     OW   62   0.230   1.434   0.538
   17SOL    HW1   63   0.204   1.530   0.538
   17SOL    HW2   64   0.159   1.380   0.583
   18SOL     OW   65   0.240   1.091   0.886
   18SOL    HW1   66   0.254   1.007   0.938
   18SOL    HW2   67   0.185   1.155   0.941
   19SOL     OW   68   0.620   1.786   1.439
   19SOL    HW1   69   0.528   1.769   1.474
   19SOL    HW2   70   0.648   1.878   1.465
   20SOL     OW   71   0.606   0.964   0.123
   20SOL    HW1   72   0.613   1.048   0.069
   20SOL    HW2   73   0.652   0.977   0.211
   21SOL     OW   74   1.594   0.114   1.480
   21SOL    HW1   75   1.576   0.181   1.408
   21SOL    HW2   76   1.591   0.160   1.569
   22SOL     OW   77   0.122   0.643   0.563
   22SOL    HW1   78   0.077   0.555   0.580
   22SOL    HW2   79   0.121   0.697   0.647
   23SOL     OW   80   1.842   1.767   0.359
   23SOL    HW1   81   1.896   1.738   0.439
   23SOL    HW2   82   1.872   1.857   0.330
   24SOL     OW   83   0.027   1.596   0.117
   24SOL    HW1   84   0.008   1.500   0.138
   24SOL    HW2   85  -0.006   1.654   0.192
   25SOL     OW   86   1.689   0.922   0.612
   25SOL    HW1   87   1.784   0.893   0.620
   25SOL    HW2   88   1.681   0.987   0.537
   26SOL     OW   89   1.641   1.108   0.432
   26SOL    HW1   90   1.727   1.110   0.380
   26SOL    HW2   91   1.655   1.155   0.520
   27SOL     OW   92   0.113   0.737   1.597
   27SOL    HW1   93   0.201   0.724   1.642
   27SOL    HW2   94   0.100   0.834   1.575
   28SOL     OW   95   0.613   1.365   0.726
   28SOL    HW1   96   0.564   1.278   0.735
   28SOL    HW2   97   0.590   1.408   0.639
   29SOL     OW   98   0.809   0.004   0.502
   29SOL    HW1   99   0.849   0.095   0.493
   29SOL    HW2  100   0.709   0.012   0.508
   30SOL     OW  101   0.197   0.976   1.264
   30SOL    HW1  102   0.286   0.931   1.250
   30SOL    HW2  103   0.124   0.911   1.245
   31SOL     OW  104   1.525   0.999   0.190
   31SOL    HW1  105   1.462   0.923   0.203
   31SOL    HW2  106   1.573   1.017   0.276
   32SOL     OW  107   1.187   1.792   1.616
   32SOL    HW1  108   1.211   1.852   1.540
   32SOL    HW2  109   1.194   1.697   1.586
   33SOL     OW  110   0.317   0.251   1.801
   33SOL    HW1  111   0.388   0.322   1.807
   33SOL    HW2  112   0.229   0.290   1.829
   34SOL     OW  113   1.667   1.714   0.572
   34SOL    HW1  114   1.626   1.691   0.484
   34SOL    HW2  115   1.649   1.640   0.637
   35SOL     OW  116   0.598   0.729   0.270
   35SOL    HW1  117   0.622   0.798   0.202
   35SOL    HW2  118   0.520   0.762   0.324
   36SOL     OW  119   1.281   0.345   0.944
   36SOL    HW1  120   1.195   0.295   0.931
   36SOL    HW2  121   1.343   0.291   1.000
   37SOL     OW  122   1.576   1.662   0.307
   37SOL    HW1  123   1.665   1.708   0.310
   37SOL    HW2  124   1.555   1.638   0.212
   38SOL     OW  125   0.807   0.605   1.465
   38SOL    HW1  126   0.760   0.602   1.554
   38SOL    HW2  127   0.756   0.550   1.399
   39SOL     OW  128   1.394   0.469   1.674
   39SOL    HW1  129   1.374   0.512   1.762
   39SOL    HW2  130   1.472   0.407   1.683
   40SOL     OW  131   0.973   0.890   1.572
   40SOL    HW1  132   1.019   0.806   1.543
   40SOL    HW2  133   0.917   0.924   1.497
   41SOL     OW  134   0.991   0.410   1.242
   41SOL    HW1  135   0.914   0.444   1.296
   41SOL    HW2  136   0.957   0.359   1.163
   42SOL     OW  137   1.041   0.701   0.429
   42SOL    HW1  138   1.067   0.697   0.525
   42SOL    HW2  139   0.956   0.650   0.415
   43SOL     OW  140   0.076   0.811   0.789
   43SOL    HW1  141   0.175   0.799   0.798
   43SOL    HW2  142   0.052   0.906   0.810
   44SOL     OW  143   0.130   1.821   1.571
   44SOL    HW1  144   0.120   1.806   1.670
   44SOL    HW2  145   0.044   1.857   1.535
   45SOL     OW  146   0.865   0.348   0.195
   45SOL    HW1  147   0.924   0.411   0.146
   45SOL    HW2  148   0.884   0.254   0.166
   46SOL     OW  149   1.719   0.585   1.831
   46SOL    HW1  150   1.693   0.674   1.795
   46SOL    HW2  151   1.717   0.517   1.758
   47SOL     OW  152   1.362   1.144   0.545
   47SOL    HW1  153   1.445   1.115   0.497
   47SOL    HW2  154   1.313   1.211   0.489
   48SOL     OW  155   0.550   0.196   0.885
   48SOL    HW1  156   0.545   0.191   0.985
   48SOL    HW2  157   0.552   0.292   0.856
   49SOL     OW  158   1.008   1.456   0.477
   49SOL    HW1  159   0.962   1.528   0.425
   49SOL    HW2  160   1.004   1.476   0.575
   50SOL     OW  161   0.351   1.801   0.853
   50SOL    HW1  162   0.401   1.715   0.859
   50SOL    HW2  163   0.416   1.878   0.850
   51SOL     OW  164   1.795   1.066   0.873
   51SOL    HW1  165   1.733   1.051   0.797
   51SOL    HW2  166   1.743   1.077   0.958
   52SOL     OW  167   0.321   0.943   0.242
   52SOL    HW1  168   0.403   0.982   0.200
   52SOL    HW2  169   0.294   0.861   0.193
   53SOL     OW  170   1.458   0.735   0.728
   53SOL    HW1  171   1.453   0.670   0.803
   53SOL    HW2  172   1.538   0.794   0.741
   54SOL     OW  173   0.461   1.266   1.727
   54SOL    HW1  174   0.411   1.267   1.641
   54SOL    HW2  175   0.398   1.248   1.803
   55SOL     OW  176   1.111   1.776   0.237
   55SOL    HW1  177   1.051   1.714   0.287
   55SOL    HW2  178   1.142   1.732   0.152
   56SOL     OW  179   0.202   0.285   1.498
   56SOL    HW1  180   0.122   0.345   1.485
   56SOL    HW2  181   0.192   0.236   1.584
   57SOL     OW  182   1.632   1.377   0.081
   57SOL    HW1  183   1.600   1.471   0.071
   57SOL    HW2  184   1.556   1.314   0.069
   58SOL     OW  185   0.464   1.743   0.323
   58SOL    HW1  186   0.497   1.782   0.409
   58SOL    HW2  187   0.540   1.736   0.258
   59SOL     OW  188   1.400   0.107   0.426
   59SOL    HW1  189   1.376   0.070   0.336
   59SOL    HW2  190   1.499   0.123   0.430
   60SOL     OW  191   0.249   1.785   1.241
   60SOL    HW1  192   0.306   1.720   1.291
   60SOL    HW2  193   0.233   1.752   1.148
   61SOL     OW  194   0.940   1.698   0.904
   61SOL    HW1  195   1.020   1.641   0.925
   61SOL    HW2  196   0.891   1.658   0.827
   62SOL     OW  197   0.382   0.700   0.480
   62SOL    HW1  198   0.427   0.610   0.477
   62SOL    HW2  199   0.288   0.689   0.513
   63SOL     OW  200   1.547   0.222   1.729
   63SOL    HW1  201   1.542   0.259   1.821
   63SOL    HW2  202   1.475   0.153   1.717
   64SOL     OW  203   0.614   0.122   0.117
   64SOL    HW1  204   0.712   0.100   0.124
   64SOL    HW2  205   0.583   0.105   0.024
   65SOL     OW  206   0.781   0.264   1.749
   65SOL    HW1  207   0.848   0.203   1.792
   65SOL    HW2  208   0.708   0.283   1.814
   66SOL     OW  209   0.888   1.514   1.195
   66SOL    HW1  210   0.865   1.489   1.101
   66SOL    HW2  211   0.949   1.445   1.234
   67SOL     OW  212   1.351   0.590   1.433
   67SOL    HW1  213   1.379   0.547   1.518
   67SOL    HW2  214   1.376   0.686   1.434
   68SOL     OW  215   0.803   1.402   0.924
   68SOL    HW1  216   0.893   1.416   0.882
   68SOL    HW2  217   0.732   1.404   0.853
   69SOL     OW  218   0.922   0.503   0.899
   69SOL    HW1  219   0.897   0.494   0.803
   69SOL    HW2  220   0.970   0.421   0.930
   70SOL     OW  221   0.539   0.064   0.512
   70SOL    HW1  222   0.458   0.065   0.570
   70SOL    HW2  223   0.542   0.147   0.457
   71SOL     OW  224   1.434   1.188   0.041
   71SOL    HW1  225   1.466   1.112   0.098
   71SOL    HW2  226   1.342   1.215   0.071
   72SOL     OW  227   0.297   0.035   0.171
   72SOL    HW1  228   0.346   0.119   0.150
   72SOL    HW2  229   0.359  -0.030   0.216
   73SOL     OW  230   0.935   0.236   0.480
   73SOL    HW1  231   0.887   0.277   0.402
   73SOL    HW2  232   1.034   0.234   0.461
   74SOL     OW  233   1.076   0.683   1.464
   74SOL    HW1  234   0.996   0.622   1.467
   74SOL    HW2  235   1.157   0.630   1.440
   75SOL     OW  236   1.227   1.570   0.793
   75SOL    HW1  237   1.248   1.644   0.728
   75SOL    HW2  238   1.295   1.570   0.866
   76SOL     OW  239   0.459   1.152   0.741
   76SOL    HW1  240   0.388   1.125   0.806
   76SOL    HW2  241   0.433   1.124   0.648
   77SOL     OW  242   1.271   1.797   0.591
   77SOL    HW1  243   1.315   1.861   0.527
   77SOL    HW2  244   1.221   1.849   0.661
   78SOL     OW  245   1.032   0.549   0.016
   78SOL    HW1  246   0.991   0.631  -0.023
   78SOL    HW2  247   1.096   0.575   0.089
   79SOL     OW  248   0.078   0.556   1.386
   79SOL    HW1  249   0.170   0.555   1.345
   79SOL    HW2  250   0.072   0.630   1.453
   80SOL     OW  251   0.561   0.222   1.147
   80SOL    HW1  252   0.599   0.138   1.184
   80SOL    HW2  253   0.473   0.241   1.191
   81SOL     OW  254   0.866   0.454   0.642
   81SOL    HW1  255   0.834   0.526   0.580
   81SOL    HW2  256   0.890   0.373   0.589
   82SOL     OW  257   1.017   0.039   0.753
   82SOL    HW1  258   0.945   0.044   0.684
   82SOL    HW2  259   0.993  -0.030   0.822
   83SOL     OW  260   1.429   1.173   0.867
   83SOL    HW1  261   1.374   1.089   0.860
   83SOL    HW2  262   1.455   1.202   0.775
   84SOL     OW  263   1.466   0.590   0.992
   84SOL    HW1  264   1.436   0.495   0.999
   84SOL    HW2  265   1.539   0.606   1.058
   85SOL     OW  266   1.857   0.833   0.377
   85SOL    HW1  267   1.899   0.769   0.441
   85SOL    HW2  268   1.819   0.782   0.299
   86SOL     OW  269   0.488   1.385   0.174
   86SOL    HW1  270   0.401   1.370   0.221
   86SOL    HW2  271   0.471   1.411   0.079
   87SOL     OW  272   1.664   1.280   0.657
   87SOL    HW1  273   1.763   1.288   0.671
   87SOL    HW2  274   1.619   1.364   0.688
   88SOL     OW  275   1.390   0.575   0.078
   88SOL    HW1  276   1.336   0.554   0.159
   88SOL    HW2  277   1.481   0.534   0.087
   89SOL     OW  278   0.527   0.256   0.328
   89SOL    HW1  279   0.554   0.197   0.253
   89SOL    HW2  280   0.527   0.351   0.297
   90SOL     OW  281   1.754   1.223   1.588
   90SOL    HW1  282   1.845   1.184   1.575
   90SOL    HW2  283   1.762   1.319   1.612
   91SOL     OW  284   1.592   1.629   1.625
   91SOL    HW1  285   1.619   1.663   1.535
   91SOL    HW2  286   1.671   1.591   1.671
   92SOL     OW  287   1.111   1.195   1.100
   92SOL    HW1  288   1.071   1.239   1.181
   92SOL    HW2  289   1.070   1.232   1.017
   93SOL     OW  290   0.915   0.089   1.402
   93SOL    HW1  291   0.940   0.069   1.307
   93SOL    HW2  292   0.987   0.145   1.444
   94SOL     OW  293   0.980   1.116   1.719
   94SOL    HW1  294   0.881   1.122   1.729
   94SOL    HW2  295   1.003   1.036   1.663
   95SOL     OW  296   0.705   1.050   0.368
   95SOL    HW1  297   0.691   1.057   0.467
   95SOL    HW2  298   0.789   0.999   0.350
   96SOL     OW  299   0.410   0.813   1.251
   96SOL    HW1  300   0.496   0.825   1.301
   96SOL    HW2  301   0.368   0.726   1.278
   97SOL     OW  302   1.274   0.386   1.262
   97SOL    HW1  303   1.295   0.460   1.326
   97SOL    HW2  304   1.185   0.403   1.219
   98SOL     OW  305   0.064   1.564   1.331
   98SOL    HW1  306   0.018   1.646   1.297
   98SOL    HW2  307   0.162   1.583   1.340
   99SOL     OW  308   0.367   1.100   0.501
   99SOL    HW1  309   0.360   1.183   0.445
   99SOL    HW2  310   0.371   1.020   0.441
  100SOL     OW  311   0.566   0.537   0.865
  100SOL    HW1  312   0.578   0.603   0.791
  100SOL    HW2  313   0.612   0.571   0.948
  101SOL     OW  314   1.252   1.348   0.388
  101SOL    HW1  315   1.302   1.425   0.428
  101SOL    HW2  316   1.157   1.350   0.420
  102SOL     OW  317   1.582   0.639   0.472
  102SOL    HW1  318   1.551   0.700   0.545
  102SOL    HW2  319   1.632   0.691   0.403
  103SOL     OW  320   0.354   1.510   1.329
  103SOL    HW1  321   0.333   1.466   1.242
  103SOL    HW2  322   0.451   1.536   1.332
  104SOL     OW  323   0.402   0.751   1.598
  104SOL    HW1  324   0.470   0.806   1.551
  104SOL    HW2  325   0.442   0.663   1.625
  105SOL     OW  326   1.587   0.779   1.670
  105SOL    HW1  327   1.495   0.817   1.665
  105SOL    HW2  328   1.647   0.826   1.605
  106SOL     OW  329   1.013   0.105   1.770
  106SOL    HW1  330   1.019   0.190   1.718
  106SOL    HW2  331   1.045   0.029   1.713
  107SOL     OW  332   0.504   0.050   1.740
  107SOL    HW1  333   0.462  -0.007   1.670
  107SOL    HW2  334   0.438   0.119   1.772
  108SOL     OW  335   0.573   0.870   1.029
  108SOL    HW1  336   0.617   0.959   1.020
  108SOL    HW2  337   0.510   0.870   1.106
  109SOL     OW  338   1.360   0.862   1.045
  109SOL    HW1  339   1.285   0.862   0.979
  109SOL    HW2  340   1.397   0.770   1.054
  110SOL     OW  341   1.209   0.525   0.275
  110SOL    HW1  342   1.222   0.441   0.329
  110SOL    HW2  343   1.180   0.599   0.335
  111SOL     OW  344   0.307   0.213   1.231
  111SOL    HW1  345   0.284   0.250   1.321
  111SOL    HW2  346   0.277   0.118   1.225
  112SOL     OW  347   0.037   1.310   1.282
  112SOL    HW1  348   0.090   1.261   1.350
  112SOL    HW2  349   0.059   1.408   1.287
  113SOL     OW  350   0.732   0.634   1.064
  113SOL    HW1  351   0.791   0.608   0.988
  113SOL    HW2  352   0.704   0.730   1.053
  114SOL     OW  353   1.728   0.935   1.854
  114SOL    HW1  354   1.682   0.928   1.765
  114SOL    HW2  355   1.666   0.979   1.920
  115SOL     OW  356   0.307   0.063   0.618
  115SOL    HW1  357   0.296   0.157   0.651
  115SOL    HW2  358   0.302   0.000   0.695
  116SOL     OW  359   1.622   0.367   0.374
  116SOL    HW1  360   1.624   0.291   0.438
  116SOL    HW2  361   1.574   0.444   0.414
  117SOL     OW  362   1.023   0.766   0.966
  117SOL    HW1  363   1.038   0.787   1.062
  117SOL    HW2  364   0.993   0.671   0.957
  118SOL     OW  365   0.980   1.573   1.700
  118SOL    HW1  366   0.960   1.617   1.612
  118SOL    HW2  367   1.019   1.482   1.684
  119SOL     OW  368   1.859   1.518   1.605
  119SOL    HW1  369   1.873   1.545   1.510
  119SOL    HW2  370   1.942   1.540   1.658
  120SOL     OW  371   0.350   0.898   1.804
  120SOL    HW1  372   0.426   0.942   1.852
  120SOL    HW2  373   0.385   0.851   1.722
  121SOL     OW  374   1.540   0.274   0.125
  121SOL    HW1  375   1.479   0.199   0.148
  121SOL    HW2  376   1.562   0.326   0.208
  122SOL     OW  377   1.303   0.838   0.042
  122SOL    HW1  378   1.337   0.745   0.057
  122SOL    HW2  379   1.321   0.865  -0.053
  123SOL     OW  380   1.068   1.333   0.849
  123SOL    HW1  381   1.075   1.249   0.794
  123SOL    HW2  382   1.130   1.402   0.813
  124SOL     OW  383   0.319   0.810   0.949
  124SOL    HW1  384   0.412   0.846   0.954
  124SOL    HW2  385   0.313   0.725   1.001
  125SOL     OW  386   0.339   0.509   1.006
  125SOL    HW1  387   0.287   0.426   0.989
  125SOL    HW2  388   0.416   0.514   0.942
  126SOL     OW  389   1.138   0.380   1.678
  126SOL    HW1  390   1.093   0.443   1.742
  126SOL    HW2  391   1.231   0.411   1.661
  127SOL     OW  392   1.160   0.207   1.477
  127SOL    HW1  393   1.160   0.271   1.554
  127SOL    HW2  394   1.188   0.255   1.394
  128SOL     OW  395   0.008   1.326   0.200
  128SOL    HW1  396  -0.085   1.347   0.169
  128SOL    HW2  397   0.018   1.227   0.213
  129SOL     OW  398   0.088   1.801   0.927
  129SOL    HW1  399   0.046   1.715   0.900
  129SOL    HW2  400   0.182   1.804   0.893
  130SOL     OW  401   0.504   1.568   0.910
  130SOL    HW1  402   0.570   1.642   0.919
  130SOL    HW2  403   0.548   1.489   0.868
  131SOL     OW  404   1.002   0.796   1.238
  131SOL    HW1  405   1.043   0.764   1.324
  131SOL    HW2  406   0.906   0.769   1.235
  132SOL     OW  407   0.040   0.544   1.114
  132SOL    HW1  408   0.125   0.511   1.073
  132SOL    HW2  409   0.053   0.559   1.212
  133SOL     OW  410   0.189   0.520   1.722
  133SOL    HW1  411   0.248   0.480   1.652
  133SOL    HW2  412   0.131   0.591   1.681
  134SOL     OW  413   1.369   0.950   1.660
  134SOL    HW1  414   1.408   1.039   1.680
  134SOL    HW2  415   1.379   0.930   1.563
  135SOL     OW  416   0.815   0.572   0.325
  135SOL    HW1  417   0.822   0.483   0.279
  135SOL    HW2  418   0.721   0.606   0.317
  136SOL     OW  419   1.657   0.604   1.206
  136SOL    HW1  420   1.619   0.535   1.268
  136SOL    HW2  421   1.739   0.568   1.162
  137SOL     OW  422   0.252   1.564   1.744
  137SOL    HW1  423   0.222   1.621   1.820
  137SOL    HW2  424   0.245   1.467   1.770
  138SOL     OW  425   0.671   0.464   1.269
  138SOL    HW1  426   0.637   0.375   1.239
  138SOL    HW2  427   0.697   0.518   1.189
  139SOL     OW  428   0.930   1.678   1.465
  139SOL    HW1  429   0.906   1.660   1.370
  139SOL    HW2  430   0.960   1.772   1.475
  140SOL     OW  431   0.473   0.500   0.191
  140SOL    HW1  432   0.534   0.580   0.195
  140SOL    HW2  433   0.378   0.531   0.198
  141SOL     OW  434   0.159   1.137   1.466
  141SOL    HW1  435   0.181   1.076   1.542
  141SOL    HW2  436   0.169   1.088   1.380
  142SOL     OW  437   1.347   1.059   1.234
  142SOL    HW1  438   1.371   0.996   1.160
  142SOL    HW2  439   1.257   1.099   1.216
  143SOL     OW  440   1.302   0.855   0.309
  143SOL    HW1  441   1.216   0.824   0.351
  143SOL    HW2  442   1.298   0.841   0.210
  144SOL     OW  443   1.759   1.747   1.154
  144SOL    HW1  444   1.820   1.777   1.081
  144SOL    HW2  445   1.721   1.658   1.132
  145SOL     OW  446   1.252   1.731   1.128
  145SOL    HW1  447   1.336   1.736   1.074
  145SOL    HW2  448   1.229   1.635   1.146
  146SOL     OW  449   0.083   1.258   1.022
  146SOL    HW1  450   0.078   1.257   1.122
  146SOL    HW2  451   0.000   1.217   0.984
  147SOL     OW  452   0.688   1.662   1.716
  147SOL    HW1  453   0.632   1.743   1.725
  147SOL    HW2  454   0.740   1.666   1.630
  148SOL     OW  455   0.903   0.086   0.133
  148SOL    HW1  456   0.954   0.087   0.047
  148SOL    HW2  457   0.959   0.044   0.204
  149SOL     OW  458   1.726   0.135   0.523
  149SOL    HW1  459   1.799   0.118   0.456
  149SOL    HW2  460   1.695   0.048   0.561
  150SOL     OW  461   1.388   1.573   0.477
  150SOL    HW1  462   1.455   1.585   0.403
  150SOL    HW2  463   1.348   1.662   0.500
  151SOL     OW  464   0.130   1.794   1.851
  151SOL    HW1  465   0.089   1.720   1.904
  151SOL    HW2  466   0.194   1.845   1.909
  152SOL     OW  467   1.280   0.927   0.672
  152SOL    HW1  468   1.340   0.846   0.674
  152SOL    HW2  469   1.320   0.996   0.612
  153SOL     OW  470   0.830   1.273   1.422
  153SOL    HW1  471   0.825   1.306   1.517
  153SOL    HW2  472   0.744   1.292   1.376
  154SOL     OW  473   0.672   1.616   0.154
  154SOL    HW1  474   0.681   1.626   0.055
  154SOL    HW2  475   0.632   1.527   0.175
  155SOL     OW  476   1.650   1.720   1.394
  155SOL    HW1  477   1.703   1.730   1.310
  155SOL    HW2  478   1.623   1.810   1.428
  156SOL     OW  479   1.841   0.175   0.963
  156SOL    HW1  480   1.880   0.090   0.927
  156SOL    HW2  481   1.743   0.177   0.944
  157SOL     OW  482   0.263   0.326   0.720
  157SOL    HW1  483   0.184   0.377   0.686
  157SOL    HW2  484   0.254   0.311   0.818
  158SOL     OW  485   1.194   1.612   0.031
  158SOL    HW1  486   1.200   1.519   0.068
  158SOL    HW2  487   1.135   1.612  -0.049
  159SOL     OW  488   0.822   1.002   1.372
  159SOL    HW1  489   0.862   1.001   1.280
  159SOL    HW2  490   0.832   1.094   1.412
  160SOL     OW  491   0.916   0.910   0.291
  160SOL    HW1  492   0.979   0.948   0.223
  160SOL    HW2  493   0.956   0.827   0.330
  161SOL     OW  494   1.504   1.607   0.044
  161SOL    HW1  495   1.412   1.644   0.051
  161SOL    HW2  496   1.542   1.627  -0.046
  162SOL     OW  497   0.372   1.288   1.490
  162SOL    HW1  498   0.359   1.381   1.456
  162SOL    HW2  499   0.288   1.236   1.477
  163SOL     OW  500   1.039   1.098   0.696
  163SOL    HW1  501   0.969   1.051   0.750
  163SOL    HW2  502   1.098   1.030   0.653
  164SOL     OW  503   1.014   0.236   0.971
  164SOL    HW1  504   1.006   0.200   0.878
  164SOL    HW2  505   1.012   0.160   1.036
  165SOL     OW  506   0.590   1.487   0.491
  165SOL    HW1  507   0.632   1.429   0.421
  165SOL    HW2  508   0.546   1.566   0.447
  166SOL     OW  509   1.709   0.385   1.381
  166SOL    HW1  510   1.782   0.454   1.385
  166SOL    HW2  511   1.737   0.310   1.322
  167SOL     OW  512   0.255   1.348   0.290
  167SOL    HW1  513   0.159   1.349   0.263
  167SOL    HW2  514   0.267   1.401   0.374
  168SOL     OW  515   0.105   1.013   1.726
  168SOL    HW1  516   0.028   0.980   1.780
  168SOL    HW2  517   0.190   0.983   1.768
  169SOL     OW  518   0.672   0.203   1.489
  169SOL    HW1  519   0.762   0.187   1.449
  169SOL    HW2  520   0.680   0.208   1.588
  170SOL     OW  521   0.075   0.345   0.033
  170SOL    HW1  522  -0.017   0.317   0.004
  170SOL    HW2  523   0.106   0.422  -0.023
  171SOL     OW  524   1.440   0.856   1.398
  171SOL    HW1  525   1.383   0.908   1.335
  171SOL    HW2  526   1.536   0.868   1.374
  172SOL     OW  527   0.072   0.166   0.318
  172SOL    HW1  528   0.055   0.249   0.264
  172SOL    HW2  529   0.162   0.129   0.296
  173SOL     OW  530   1.183   1.335   0.119
  173SOL    HW1  531   1.084   1.324   0.121
  173SOL    HW2  532   1.217   1.350   0.212
  174SOL     OW  533   0.613   0.842   1.431
  174SOL    HW1  534   0.669   0.923   1.414
  174SOL    HW2  535   0.672   0.762   1.434
  175SOL     OW  536   1.493   1.767   0.959
  175SOL    HW1  537   1.526   1.831   0.890
  175SOL    HW2  538   1.559   1.761   1.034
  176SOL     OW  539   0.716   0.565   1.708
  176SOL    HW1  540   0.735   0.630   1.782
  176SOL    HW2  541   0.776   0.485   1.717
  177SOL     OW  542   0.390   1.741   1.560
  177SOL    HW1  543   0.299   1.782   1.558
  177SOL    HW2  544   0.383   1.647   1.592
  178SOL     OW  545   1.674   0.883   1.254
  178SOL    HW1  546   1.647   0.794   1.217
  178SOL    HW2  547   1.675   0.951   1.181
  179SOL     OW  548   1.225   0.325   0.449
  179SOL    HW1  549   1.290   0.251   0.438
  179SOL    HW2  550   1.245   0.375   0.533
  180SOL     OW  551   0.594   0.745   0.652
  180SOL    HW1  552   0.644   0.830   0.633
  180SOL    HW2  553   0.506   0.747   0.604
  181SOL     OW  554   1.777   0.342   1.642
  181SOL    HW1  555   1.760   0.373   1.548
  181SOL    HW2  556   1.693   0.305   1.680
  182SOL     OW  557   1.730   0.934   1.517
  182SOL    HW1  558   1.768   1.025   1.532
  182SOL    HW2  559   1.722   0.917   1.418
  183SOL     OW  560   0.859   1.374   0.016
  183SOL    HW1  561   0.813   1.389   0.104
  183SOL    HW2  562   0.903   1.459  -0.014
  184SOL     OW  563   0.661   1.790   0.953
  184SOL    HW1  564   0.615   1.878   0.940
  184SOL    HW2  565   0.760   1.802   0.946
  185SOL     OW  566   0.859   0.956   0.861
  185SOL    HW1  567   0.913   0.887   0.909
  185SOL    HW2  568   0.827   1.025   0.927
  186SOL     OW  569   1.083   0.984   0.087
  186SOL    HW1  570   1.060   1.037   0.005
  186SOL    HW2  571   1.164   0.928   0.068
  187SOL     OW  572   1.861   1.569   0.851
  187SOL    HW1  573   1.790   1.557   0.781
  187SOL    HW2  574   1.862   1.490   0.911
  188SOL     OW  575   0.221   1.314   1.844
  188SOL    HW1  576   0.156   1.241   1.823
  188SOL    HW2  577   0.225   1.328   1.942
  189SOL     OW  578   0.079   1.240   0.653
  189SOL    HW1  579   0.078   1.193   0.741
  189SOL    HW2  580   0.161   1.212   0.602
  190SOL     OW  581   0.672   1.391   1.624
  190SOL    HW1  582   0.594   1.341   1.662
  190SOL    HW2  583   0.669   1.486   1.655
  191SOL     OW  584   1.824   0.192   1.227
  191SOL    HW1  585   1.820   0.102   1.271
  191SOL    HW2  586   1.827   0.181   1.128
  192SOL     OW  587   0.428   0.424   0.520
  192SOL    HW1  588   0.458   0.352   0.458
  192SOL    HW2  589   0.389   0.384   0.603
  193SOL     OW  590   1.705   1.487   1.104
  193SOL    HW1  591   1.612   1.462   1.077
  193SOL    HW2  592   1.731   1.437   1.186
  194SOL     OW  593   0.317   0.547   1.280
  194SOL    HW1  594   0.355   0.488   1.352
  194SOL    HW2  595   0.357   0.521   1.192
  195SOL     OW  596   0.812   1.586   0.687
  195SOL    HW1  597   0.844   1.596   0.593
  195SOL    HW2  598   0.733   1.524   0.689
  196SOL     OW  599   1.424   0.214   1.112
  196SOL    HW1  600   1.476   0.149   1.167
  196SOL    HW2  601   1.375   0.277   1.173
  197SOL     OW  602   1.001   0.034   1.154
  197SOL    HW1  603   0.938  -0.038   1.123
  197SOL    HW2  604   1.094  -0.002   1.154
  198SOL     OW  605   0.770   1.330   0.301
  198SOL    HW1  606   0.724   1.243   0.318
  198SOL    HW2  607   0.861   1.327   0.342
  199SOL     OW  608   0.618   1.567   1.284
  199SOL    HW1  609   0.613   1.649   1.341
  199SOL    HW2  610   0.707   1.564   1.239
  200SOL     OW  611   1.352   0.052   0.168
  200SOL    HW1  612   1.387   0.011   0.084
  200SOL    HW2  613   1.262   0.014   0.188
  201SOL     OW  614   1.300   0.453   0.691
  201SOL    HW1  615   1.241   0.533   0.695
  201SOL    HW2  616   1.315   0.418   0.784
  202SOL     OW  617   1.593   0.221   0.882
  202SOL    HW1  618   1.509   0.220   0.936
  202SOL    HW2  619   1.595   0.304   0.826
  203SOL     OW  620   0.039   1.077   0.300
  203SOL    HW1  621   0.138   1.066   0.291
  203SOL    HW2  622  -0.001   0.991   0.332
  204SOL     OW  623   0.875   1.646   0.337
  204SOL    HW1  624   0.798   1.611   0.283
  204SOL    HW2  625   0.843   1.717   0.399
  205SOL     OW  626   0.230   0.628   1.975
  205SOL    HW1  627   0.137   0.626   2.012
  205SOL    HW2  628   0.231   0.589   1.883
  206SOL     OW  629   0.225   0.275   2.858
  206SOL    HW1  630   0.260   0.258   2.950
  206SOL    HW2  631   0.137   0.230   2.846
  207SOL     OW  632   0.019   0.368   2.509
  207SOL    HW1  633  -0.063   0.411   2.548
  207SOL    HW2  634  -0.009   0.295   2.446
  208SOL     OW  635   1.755   0.607   2.093
  208SOL    HW1  636   1.743   0.594   1.994
  208SOL    HW2  637   1.725   0.526   2.142
  209SOL     OW  638   0.685   1.012   2.527
  209SOL    HW1  639   0.754   0.996   2.597
  209SOL    HW2  640   0.612   1.069   2.565
  210SOL     OW  641   1.603   0.447   2.599
  210SOL    HW1  642   1.529   0.493   2.549
  210SOL    HW2  643   1.654   0.515   2.652
  211SOL     OW  644   0.231   1.713   2.345
  211SOL    HW1  645   0.265   1.790   2.399
  211SOL    HW2  646   0.275   1.713   2.255
  212SOL     OW  647   0.230   1.434   2.400
  212SOL    HW1  648   0.204   1.530   2.400
  212SOL    HW2  649   0.159   1.380   2.445
  213SOL     OW  650   0.240   1.091   2.748
  213SOL    HW1  651   0.254   1.007   2.800
  213SOL    HW2  652   0.185   1.155   2.803
  214SOL     OW  653   0.606   0.964   1.985
  214SOL    HW1  654   0.613   1.048   1.931
  214SOL    HW2  655   0.652   0.977   2.073
  215SOL     OW  656   0.122   0.643   2.425
  215SOL    HW1  657   0.077   0.555   2.442
  215SOL    HW2  658   0.121   0.697   2.509
  216SOL     OW  659   1.842   1.767   2.221
  216SOL    HW1  660   1.896   1.738   2.301
  216SOL    HW2  661   1.872   1.857   2.192
  217SOL     OW  662   0.027   1.596   1.979
  217SOL    HW1  663   0.008   1.500   2.000
  217SOL    HW2  664  -0.006   1.654   2.054
  218SOL     OW  665   1.689   0.922   2.474
  218SOL    HW1  666   1.784   0.893   2.482
  218SOL    HW2  667   1.681   0.987   2.399
  219SOL     OW  668   1.641   1.108   2.294
  219SOL    HW1  669   1.727   1.110   2.242
  219SOL    HW2  670   1.655   1.155   2.382
  220SOL     OW  671   0.613   1.365   2.588
  220SOL    HW1  672   0.564   1.278   2.597
  220SOL    HW2  673   0.590   1.408   2.501
  221SOL     OW  674   0.809   0.004   2.364
  221SOL    HW1  675   0.849   0.095   2.355
  221SOL    HW2  676   0.709   0.012   2.370
  222SOL     OW  677   1.525   0.999   2.052
  222SOL    HW1  678   1.462   0.923   2.065
  222SOL    HW2  679   1.573   1.017   2.138
  223SOL     OW  680   1.667   1.714   2.434
  223SOL    HW1  681   1.626   1.691   2.346
  223SOL    HW2  682   1.649   1.640   2.499
  224SOL     OW  683   0.598   0.729   2.132
  224SOL    HW1  684   0.622   0.798   2.064
  224SOL    HW2  685   0.520   0.762   2.186
  225SOL     OW  686   1.281   0.345   2.806
  225SOL    HW1  687   1.195   0.295   2.793
  225SOL    HW2  688   1.343   0.291   2.862
  226SOL     OW  689   1.576   1.662   2.169
  226SOL    HW1  690   1.665   1.708   2.172
  226SOL    HW2  691   1.555   1.638   2.074
  227SOL     OW  692   1.041   0.701   2.291
  227SOL    HW1  693   1.067   0.697   2.387
  227SOL    HW2  694   0.956   0.650   2.277
  228SOL     OW  695   0.076   0.811   2.651
  228SOL    HW1  696   0.175   0.799   2.660
  228SOL    HW2  697   0.052   0.906   2.672
  229SOL     OW  698   0.865   0.348   2.057
  229SOL    HW1  699   0.924   0.411   2.008
  229SOL    HW2  700   0.884   0.254   2.028
  230SOL     OW  701   1.362   1.144   2.407
  230SOL    HW1  702   1.445   1.115   2.359
  230SOL    HW2  703   1.313   1.211   2.351
  231SOL     OW  704   1.008   1.456   2.339
  231SOL    HW1  705   0.962   1.528   2.287
  231SOL    HW2  706   1.004   1.476   2.437
  232SOL     OW  707   0.351   1.801   2.715
  232SOL    HW1  708   0.401   1.715   2.721
  232SOL    HW2  709   0.416   1.878   2.712
  233SOL     OW  710   1.795   1.066   2.735
  233SOL    HW1  711   1.733   1.051   2.659
  233SOL    HW2  712   1.743   1.077   2.820
  234SOL     OW  713   0.321   0.943   2.104
  234SOL    HW1  714   0.403   0.982   2.062
  234SOL    HW2  715   0.294   0.861   2.055
  235SOL     OW  716   1.458   0.735   2.590
  235SOL    HW1  717   1.453   0.670   2.665
  235SOL    HW2  718   1.538   0.794   2.603
  236SOL     OW  719   1.111   1.776   2.099
  236SOL    HW1  720   1.051   1.714   2.149
  236SOL    HW2  721   1.142   1.732   2.014
  237SOL     OW  722   1.632   1.377   1.943
  237SOL    HW1  723   1.600   1.471   1.933
  237SOL    HW2  724   1.556   1.314   1.931
  238SOL     OW  725   0.464   1.743   2.185
  238SOL    HW1  726   0.497   1.782   2.271
  238SOL    HW2  727   0.540   1.736   2.120
  239SOL     OW  728   1.400   0.107   2.288
  239SOL    HW1  729   1.376   0.070   2.198
  239SOL    HW2  730   1.499   0.123   2.292
  240SOL     OW  731   0.940   1.698   2.766
  240SOL    HW1  732   1.020   1.641   2.787
  240SOL    HW2  733   0.891   1.658   2.689
  241SOL     OW  734   0.382   0.700   2.342
  241SOL    HW1  735   0.427   0.610   2.339
  241SOL    HW2  736   0.288   0.689   2.375
  242SOL     OW  737   0.614   0.122   1.979
  242SOL    HW1  738   0.712   0.100   1.986
  242SOL    HW2  739   0.583   0.105   1.886
  243SOL     OW  740   0.539   0.064   2.374
  243SOL    HW1  741   0.458   0.065   2.432
  243SOL    HW2  742   0.542   0.147   2.319
  244SOL     OW  743   1.434   1.188   1.903
  244SOL    HW1  744   1.466   1.112   1.960
  244SOL    HW2  745   1.342   1.215   1.933
  245SOL     OW  746   0.297   0.035   2.033
  245SOL    HW1  747   0.346   0.119   2.012
  245SOL    HW2  748   0.359  -0.030   2.078
  246SOL     OW  749   0.935   0.236   2.342
  246SOL    HW1  750   0.887   0.277   2.264
  246SOL    HW2  751   1.034   0.234   2.323
  247SOL     OW  752   0.459   1.152   2.603
  247SOL    HW1  753   0.388   1.125   2.668
  247SOL    HW2  754   0.433   1.124   2.510
  248SOL     OW  755   1.271   1.797   2.453
  248SOL    HW1  756   1.315   1.861   2.389
  248SOL    HW2  757   1.221   1.849   2.523
  249SOL     OW  758   1.032   0.549   1.878
  249SOL    HW1  759   0.991   0.631   1.839
  249SOL    HW2  760   1.096   0.575   1.951
  250SOL     OW  761   0.866   0.454   2.504
  250SOL    HW1  762   0.834   0.526   2.442
  250SOL    HW2  763   0.890   0.373   2.451
  251SOL     OW  764   1.857   0.833   2.239
  251SOL    HW1  765   1.899   0.769   2.303
  251SOL    HW2  766   1.819   0.782   2.161
  252SOL     OW  767   0.488   1.385   2.036
  252SOL    HW1  768   0.401   1.370   2.083
  252SOL    HW2  769   0.471   1.411   1.941
  253SOL     OW  770   1.664   1.280   2.519
  253SOL    HW1  771   1.763   1.288   2.533
  253SOL    HW2  772   1.619   1.364   2.550
  254SOL     OW  773   1.390   0.575   1.940
  254SOL    HW1  774   1.336   0.554   2.021
  254SOL    HW2  775   1.481   0.534   1.949
  255SOL     OW  776   0.527   0.256   2.190
  255SOL    HW1  777   0.554   0.197   2.115
  255SOL    HW2  778   0.527   0.351   2.159
  256SOL     OW  779   0.705   1.050   2.230
  256SOL    HW1  780   0.691   1.057   2.329
  256SOL    HW2  781   0.789   0.999   2.212
  257SOL     OW  782   0.367   1.100   2.363
  257SOL    HW1  783   0.360   1.183   2.307
  257SOL    HW2  784   0.371   1.020   2.303
  258SOL     OW  785   1.252   1.348   2.250
  258SOL    HW1  786   1.302   1.425   2.290
  258SOL    HW2  787   1.157   1.350   2.282
  259SOL     OW  788   1.582   0.639   2.334
  259SOL    HW1  789   1.551   0.700   2.407
  259SOL    HW2  790   1.632   0.691   2.265
  260SOL     OW  791   1.209   0.525   2.137
  260SOL    HW1  792   1.222   0.441   2.191
  260SOL    HW2  793   1.180   0.599   2.197
  261SOL     OW  794   0.307   0.063   2.480
  261SOL    HW1  795   0.296   0.157   2.513
  261SOL    HW2  796   0.302   0.000   2.557
  262SOL     OW  797   1.622   0.367   2.236
  262SOL    HW1  798   1.624   0.291   2.300
  262SOL    HW2  799   1.574   0.444   2.276
  263SOL     OW  800   1.023   0.766   2.828
  263SOL    HW1  801   1.038   0.787   2.924
  263SOL    HW2  802   0.993   0.671   2.819
  264SOL     OW  803   1.540   0.274   1.987
  264SOL    HW1  804   1.479   0.199   2.010
  264SOL    HW2  805   1.562   0.326   2.070
  265SOL     OW  806   1.303   0.838   1.904
  265SOL    HW1  807   1.337   0.745   1.919
  265SOL    HW2  808   1.321   0.865   1.809
  266SOL     OW  809   0.008   1.326   2.062
  266SOL    HW1  810  -0.085   1.347   2.031
  266SOL    HW2  811   0.018   1.227   2.075
  267SOL     OW  812   0.040   0.544   2.976
  267SOL    HW1  813   0.125   0.511   2.935
  267SOL    HW2  814   0.053   0.559   3.074
  268SOL     OW  815   0.815   0.572   2.187
  268SOL    HW1  816   0.822   0.483   2.141
  268SOL    HW2  817   0.721   0.606   2.179
  269SOL     OW  818   0.473   0.500   2.053
  269SOL    HW1  819   0.534   0.580   2.057
  269SOL    HW2  820   0.378   0.531   2.060
  270SOL     OW  821   1.302   0.855   2.171
  270SOL    HW1  822   1.216   0.824   2.213
  270SOL    HW2  823   1.298   0.841   2.072
  271SOL     OW  824   1.726   0.135   2.385
  271SOL    HW1  825   1.799   0.118   2.318
  271SOL    HW2  826   1.695   0.048   2.423
  272SOL     OW  827   1.388   1.573   2.339
  272SOL    HW1  828   1.455   1.585   2.265
  272SOL    HW2  829   1.348   1.662   2.362
  273SOL     OW  830   0.672   1.616   2.016
  273SOL    HW1  831   0.681   1.626   1.917
  273SOL    HW2  832   0.632   1.527   2.037
  274SOL     OW  833   1.841   0.175   2.825
  274SOL    HW1  834   1.880   0.090   2.789
  274SOL    HW2  835   1.743   0.177   2.806
  275SOL     OW  836   0.263   0.326   2.582
  275SOL    HW1  837   0.184   0.377   2.548
  275SOL    HW2  838   0.254   0.311   2.680
  276SOL     OW  839   1.194   1.612   1.893
  276SOL    HW1  840   1.200   1.519   1.930
  276SOL    HW2  841   1.135   1.612   1.813
  277SOL     OW  842   0.916   0.910   2.153
  277SOL    HW1  843   0.979   0.948   2.085
  277SOL    HW2  844   0.956   0.827   2.192
  278SOL     OW  845   1.504   1.607   1.906
  278SOL    HW1  846   1.412   1.644   1.913
  278SOL    HW2  847   1.542   1.627   1.816
  279SOL     OW  848   0.590   1.487   2.353
  279SOL    HW1  849   0.632   1.429   2.283
  279SOL    HW2  850   0.546   1.566   2.309
  280SOL     OW  851   0.255   1.348   2.152
  280SOL    HW1  852   0.159   1.349   2.125
  280SOL    HW2  853   0.267   1.401   2.236
  281SOL     OW  854   0.075   0.345   1.895
  281SOL    HW1  855  -0.017   0.317   1.866
  281SOL    HW2  856   0.106   0.422   1.839
  282SOL     OW  857   0.072   0.166   2.180
  282SOL    HW1  858   0.055   0.249   2.126
  282SOL    HW2  859   0.162   0.129   2.158
  283SOL     OW  860   1.183   1.335   1.981
  283SOL    HW1  861   1.084   1.324   1.983
  283SOL    HW2  862   1.217   1.350   2.074
  284SOL     OW  863   1.225   0.325   2.311
  284SOL    HW1  864   1.290   0.251   2.300
  284SOL    HW2  865   1.245   0.375   2.395
  285SOL     OW  866   0.594   0.745   2.514
  285SOL    HW1  867   0.644   0.830   2.495
  285SOL    HW2  868   0.506   0.747   2.466
  286SOL     OW  869   0.859   1.374   1.878
  286SOL    HW1  870   0.813   1.389   1.966
  286SOL    HW2  871   0.903   1.459   1.848
  287SOL     OW  872   0.661   1.790   2.815
  287SOL    HW1  873   0.615   1.878   2.802
  287SOL    HW2  874   0.760   1.802   2.808
  288SOL     OW  875   0.859   0.956   2.723
  288SOL    HW1  876   0.913   0.887   2.771
  288SOL    HW2  877   0.827   1.025   2.789
  289SOL     OW  878   1.083   0.984   1.949
  289SOL    HW1  879   1.060   1.037   1.867
  289SOL    HW2  880   1.164   0.928   1.930
  290SOL     OW  881   0.079   1.240   2.515
  290SOL    HW1  882   0.078   1.193   2.603
  290SOL    HW2  883   0.161   1.212   2.464
  291SOL     OW  884   0.428   0.424   2.382
  291SOL    HW1  885   0.458   0.352   2.320
  291SOL    HW2  886   0.389   0.384   2.465
  292SOL     OW  887   1.705   1.487   2.966
  292SOL    HW1  888   1.612   1.462   2.939
  292SOL    HW2  889   1.731   1.437   3.048
  293SOL     OW  890   0.812   1.586   2.549
  293SOL    HW1  891   0.844   1.596   2.455
  293SOL    HW2  892   0.733   1.524   2.551
  294SOL     OW  893   0.770   1.330   2.163
  294SOL    HW1  894   0.724   1.243   2.180
  294SOL    HW2  895   0.861   1.327   2.204
  295SOL     OW  896   1.352   0.052   2.030
  295SOL    HW1  897   1.387   0.011   1.946
  295SOL    HW2  898   1.262   0.014   2.050
  296SOL     OW  899   1.300   0.453   2.553
  296SOL    HW1  900   1.241   0.533   2.557
  296SOL    HW2  901   1.315   0.418   2.646
  297SOL     OW  902   0.039   1.077   2.162
  297SOL    HW1  903   0.138   1.066   2.153
  297SOL    HW2  904  -0.001   0.991   2.194
  298SOL     OW  905   0.875   1.646   2.199
  298SOL    HW1  906   0.798   1.611   2.145
  298SOL    HW2  907   0.843   1.717   2.261
  299SOL     OW  908   0.230   2.490   0.113
  299SOL    HW1  909   0.137   2.488   0.150
  299SOL    HW2  910   0.231   2.451   0.021
  300SOL     OW  911   0.225   2.137   0.996
  300SOL    HW1  912   0.260   2.120   1.088
  300SOL    HW2  913   0.137   2.092   0.984
  301SOL     OW  914   0.019   2.230   0.647
  301SOL    HW1  915  -0.063   2.273   0.686
  301SOL    HW2  916  -0.009   2.157   0.584
  302SOL     OW  917   1.755   2.469   0.231
  302SOL    HW1  918   1.743   2.456   0.132
  302SOL    HW2  919   1.725   2.388   0.280
  303SOL     OW  920   0.850   2.660   1.823
  303SOL    HW1  921   0.846   2.736   1.888
  303SOL    HW2  922   0.872   2.696   1.732
  304SOL     OW  923   0.685   2.874   0.665
  304SOL    HW1  924   0.754   2.858   0.735
  304SOL    HW2  925   0.612   2.931   0.703
  305SOL     OW  926   0.438   2.254   1.499
  305SOL    HW1  927   0.520   2.198   1.508
  305SOL    HW2  928   0.357   2.196   1.503
  306SOL     OW  929   1.603   2.309   0.737
  306SOL    HW1  930   1.529   2.355   0.687
  306SOL    HW2  931   1.654   2.377   0.790
  307SOL     OW  932   1.594   1.976   1.480
  307SOL    HW1  933   1.576   2.043   1.408
  307SOL    HW2  934   1.591   2.022   1.569
  308SOL     OW  935   0.122   2.505   0.563
  308SOL    HW1  936   0.077   2.417   0.580
  308SOL    HW2  937   0.121   2.559   0.647
  309SOL     OW  938   0.113   2.599   1.597
  309SOL    HW1  939   0.201   2.586   1.642
  309SOL    HW2  940   0.100   2.696   1.575
  310SOL     OW  941   0.809   1.866   0.502
  310SOL    HW1  942   0.849   1.957   0.493
  310SOL    HW2  943   0.709   1.874   0.508
  311SOL     OW  944   0.317   2.113   1.801
  311SOL    HW1  945   0.388   2.184   1.807
  311SOL    HW2  946   0.229   2.152   1.829
  312SOL     OW  947   0.598   2.591   0.270
  312SOL    HW1  948   0.622   2.660   0.202
  312SOL    HW2  949   0.520   2.624   0.324
  313SOL     OW  950   1.281   2.207   0.944
  313SOL    HW1  951   1.195   2.157   0.931
  313SOL    HW2  952   1.343   2.153   1.000
  314SOL     OW  953   0.807   2.467   1.465
  314SOL    HW1  954   0.760   2.464   1.554
  314SOL    HW2  955   0.756   2.412   1.399
  315SOL     OW  956   1.394   2.331   1.674
  315SOL    HW1  957   1.374   2.374   1.762
  315SOL    HW2  958   1.472   2.269   1.683
  316SOL     OW  959   0.991   2.272   1.242
  316SOL    HW1  960   0.914   2.306   1.296
  316SOL    HW2  961   0.957   2.221   1.163
  317SOL     OW  962   1.041   2.563   0.429
  317SOL    HW1  963   1.067   2.559   0.525
  317SOL    HW2  964   0.956   2.512   0.415
  318SOL     OW  965   0.076   2.673   0.789
  318SOL    HW1  966   0.175   2.661   0.798
  318SOL    HW2  967   0.052   2.768   0.810
  319SOL     OW  968   0.865   2.210   0.195
  319SOL    HW1  969   0.924   2.273   0.146
  319SOL    HW2  970   0.884   2.116   0.166
  320SOL     OW  971   1.719   2.447   1.831
  320SOL    HW1  972   1.693   2.536   1.795
  320SOL    HW2  973   1.717   2.379   1.758
  321SOL     OW  974   0.550   2.058   0.885
  321SOL    HW1  975   0.545   2.053   0.985
  321SOL    HW2  976   0.552   2.154   0.856
  322SOL     OW  977   1.458   2.597   0.728
  322SOL    HW1  978   1.453   2.532   0.803
  322SOL    HW2  979   1.538   2.656   0.741
  323SOL     OW  980   0.202   2.147   1.498
  323SOL    HW1  981   0.122   2.207   1.485
  323SOL    HW2  982   0.192   2.098   1.584
  324SOL     OW  983   1.400   1.969   0.426
  324SOL    HW1  984   1.376   1.932   0.336
  324SOL    HW2  985   1.499   1.985   0.430
  325SOL     OW  986   0.382   2.562   0.480
  325SOL    HW1  987   0.427   2.472   0.477
  325SOL    HW2  988   0.288   2.551   0.513
  326SOL     OW  989   1.547   2.084   1.729
  326SOL    HW1  990   1.542   2.121   1.821
  326SOL    HW2  991   1.475   2.015   1.717
  327SOL     OW  992   0.781   2.126   1.749
  327SOL    HW1  993   0.848   2.065   1.792
  327SOL    HW2  994   0.708   2.145   1.814
  328SOL     OW  995   1.351   2.452   1.433
  328SOL    HW1  996   1.379   2.409   1.518
  328SOL    HW2  997   1.376   2.548   1.434
  329SOL     OW  998   0.922   2.365   0.899
  329SOL    HW1  999   0.897   2.356   0.803
  329SOL    HW2 1000   0.970   2.283   0.930
  330SOL     OW 1001   0.539   1.926   0.512
  330SOL    HW1 1002   0.458   1.927   0.570
  330SOL    HW2 1003   0.542   2.009   0.457
  331SOL     OW 1004   0.297   1.897   0.171
  331SOL    HW1 1005   0.346   1.981   0.150
  331SOL    HW2 1006   0.359   1.832   0.216
  332SOL     OW 1007   0.935   2.098   0.480
  332SOL    HW1 1008   0.887   2.139   0.402
  332SOL    HW2 1009   1.034   2.096   0.461
  333SOL     OW 1010   1.076   2.545   1.464
  333SOL    HW1 1011   0.996   2.484   1.467
  333SOL    HW2 1012   1.157   2.492   1.440
  334SOL     OW 1013   1.032   2.411   0.016
  334SOL    HW1 1014   0.991   2.493  -0.023
  334SOL    HW2 1015   1.096   2.437   0.089
  335SOL     OW 1016   0.078   2.418   1.386
  335SOL    HW1 1017   0.170   2.417   1.345
  335SOL    HW2 1018   0.072   2.492   1.453
  336SOL     OW 1019   0.561   2.084   1.147
  336SOL    HW1 1020   0.599   2.000   1.184
  336SOL    HW2 1021   0.473   2.103   1.191
  337SOL     OW 1022   0.866   2.316   0.642
  337SOL    HW1 1023   0.834   2.388   0.580
  337SOL    HW2 1024   0.890   2.235   0.589
  338SOL     OW 1025   1.017   1.901   0.753
  338SOL    HW1 1026   0.945   1.906   0.684
  338SOL    HW2 1027   0.993   1.832   0.822
  339SOL     OW 1028   1.466   2.452   0.992
  339SOL    HW1 1029   1.436   2.357   0.999
  339SOL    HW2 1030   1.539   2.468   1.058
  340SOL     OW 1031   1.857   2.695   0.377
  340SOL    HW1 1032   1.899   2.631   0.441
  340SOL    HW2 1033   1.819   2.644   0.299
  341SOL     OW 1034   1.390   2.437   0.078
  341SOL    HW1 1035   1.336   2.416   0.159
  341SOL    HW2 1036   1.481   2.396   0.087
  342SOL     OW 1037   0.527   2.118   0.328
  342SOL    HW1 1038   0.554   2.059   0.253
  342SOL    HW2 1039   0.527   2.213   0.297
  343SOL     OW 1040   0.915   1.951   1.402
  343SOL    HW1 1041   0.940   1.931   1.307
  343SOL    HW2 1042   0.987   2.007   1.444
  344SOL     OW 1043   0.705   2.912   0.368
  344SOL    HW1 1044   0.691   2.919   0.467
  344SOL    HW2 1045   0.789   2.861   0.350
  345SOL     OW 1046   0.410   2.675   1.251
  345SOL    HW1 1047   0.496   2.687   1.301
  345SOL    HW2 1048   0.368   2.588   1.278
  346SOL     OW 1049   1.274   2.248   1.262
  346SOL    HW1 1050   1.295   2.322   1.326
  346SOL    HW2 1051   1.185   2.265   1.219
  347SOL     OW 1052   0.566   2.399   0.865
  347SOL    HW1 1053   0.578   2.465   0.791
  347SOL    HW2 1054   0.612   2.433   0.948
  348SOL     OW 1055   1.582   2.501   0.472
  348SOL    HW1 1056   1.551   2.562   0.545
  348SOL    HW2 1057   1.632   2.553   0.403
  349SOL     OW 1058   1.587   2.641   1.670
  349SOL    HW1 1059   1.495   2.679   1.665
  349SOL    HW2 1060   1.647   2.688   1.605
  350SOL     OW 1061   1.013   1.967   1.770
  350SOL    HW1 1062   1.019   2.052   1.718
  350SOL    HW2 1063   1.045   1.891   1.713
  351SOL     OW 1064   0.504   1.912   1.740
  351SOL    HW1 1065   0.462   1.855   1.670
  351SOL    HW2 1066   0.438   1.981   1.772
  352SOL     OW 1067   1.360   2.724   1.045
  352SOL    HW1 1068   1.285   2.724   0.979
  352SOL    HW2 1069   1.397   2.632   1.054
  353SOL     OW 1070   1.209   2.387   0.275
  353SOL    HW1 1071   1.222   2.303   0.329
  353SOL    HW2 1072   1.180   2.461   0.335
  354SOL     OW 1073   0.307   2.075   1.231
  354SOL    HW1 1074   0.284   2.112   1.321
  354SOL    HW2 1075   0.277   1.980   1.225
  355SOL     OW 1076   0.732   2.496   1.064
  355SOL    HW1 1077   0.791   2.470   0.988
  355SOL    HW2 1078   0.704   2.592   1.053
  356SOL     OW 1079   1.728   2.797   1.854
  356SOL    HW1 1080   1.682   2.790   1.765
  356SOL    HW2 1081   1.666   2.841   1.920
  357SOL     OW 1082   0.307   1.925   0.618
  357SOL    HW1 1083   0.296   2.019   0.651
  357SOL    HW2 1084   0.302   1.862   0.695
  358SOL     OW 1085   1.622   2.229   0.374
  358SOL    HW1 1086   1.624   2.153   0.438
  358SOL    HW2 1087   1.574   2.306   0.414
  359SOL     OW 1088   1.540   2.136   0.125
  359SOL    HW1 1089   1.479   2.061   0.148
  359SOL    HW2 1090   1.562   2.188   0.208
  360SOL     OW 1091   0.319   2.672   0.949
  360SOL    HW1 1092   0.412   2.708   0.954
  360SOL    HW2 1093   0.313   2.587   1.001
  361SOL     OW 1094   0.339   2.371   1.006
  361SOL    HW1 1095   0.287   2.288   0.989
  361SOL    HW2 1096   0.416   2.376   0.942
  362SOL     OW 1097   1.138   2.242   1.678
  362SOL    HW1 1098   1.093   2.305   1.742
  362SOL    HW2 1099   1.231   2.273   1.661
  363SOL     OW 1100   1.160   2.069   1.477
  363SOL    HW1 1101   1.160   2.133   1.554
  363SOL    HW2 1102   1.188   2.117   1.394
  364SOL     OW 1103   0.040   2.406   1.114
  364SOL    HW1 1104   0.125   2.373   1.073
  364SOL    HW2 1105   0.053   2.421   1.212
  365SOL     OW 1106   0.189   2.382   1.722
  365SOL    HW1 1107   0.248   2.342   1.652
  365SOL    HW2 1108   0.131   2.453   1.681
  366SOL     OW 1109   0.815   2.434   0.325
  366SOL    HW1 1110   0.822   2.345   0.279
  366SOL    HW2 1111   0.721   2.468   0.317
  367SOL     OW 1112   1.657   2.466   1.206
  367SOL    HW1 1113   1.619   2.397   1.268
  367SOL    HW2 1114   1.739   2.430   1.162
  368SOL     OW 1115   0.671   2.326   1.269
  368SOL    HW1 1116   0.637   2.237   1.239
  368SOL    HW2 1117   0.697   2.380   1.189
  369SOL     OW 1118   0.473   2.362   0.191
  369SOL    HW1 1119   0.534   2.442   0.195
  369SOL    HW2 1120   0.378   2.393   0.198
  370SOL     OW 1121   0.903   1.948   0.133
  370SOL    HW1 1122   0.954   1.949   0.047
  370SOL    HW2 1123   0.959   1.906   0.204
  371SOL     OW 1124   1.726   1.997   0.523
  371SOL    HW1 1125   1.799   1.980   0.456
  371SOL    HW2 1126   1.695   1.910   0.561
  372SOL     OW 1127   1.280   2.789   0.672
  372SOL    HW1 1128   1.340   2.708   0.674
  372SOL    HW2 1129   1.320   2.858   0.612
  373SOL     OW 1130   1.841   2.037   0.963
  373SOL    HW1 1131   1.880   1.952   0.927
  373SOL    HW2 1132   1.743   2.039   0.944
  374SOL     OW 1133   0.263   2.188   0.720
  374SOL    HW1 1134   0.184   2.239   0.686
  374SOL    HW2 1135   0.254   2.173   0.818
  375SOL     OW 1136   1.014   2.098   0.971
  375SOL    HW1 1137   1.006   2.062   0.878
  375SOL    HW2 1138   1.012   2.022   1.036
  376SOL     OW 1139   1.709   2.247   1.381
  376SOL    HW1 1140   1.782   2.316   1.385
  376SOL    HW2 1141   1.737   2.172   1.322
  377SOL     OW 1142   0.105   2.875   1.726
  377SOL    HW1 1143   0.028   2.842   1.780
  377SOL    HW2 1144   0.190   2.845   1.768
  378SOL     OW 1145   0.672   2.065   1.489
  378SOL    HW1 1146   0.762   2.049   1.449
  378SOL    HW2 1147   0.680   2.070   1.588
  379SOL     OW 1148   0.075   2.207   0.033
  379SOL    HW1 1149  -0.017   2.179   0.004
  379SOL    HW2 1150   0.106   2.284  -0.023
  380SOL     OW 1151   0.072   2.028   0.318
  380SOL    HW1 1152   0.055   2.111   0.264
  380SOL    HW2 1153   0.162   1.991   0.296
  381SOL     OW 1154   0.716   2.427   1.708
  381SOL    HW1 1155   0.735   2.492   1.782
  381SOL    HW2 1156   0.776   2.347   1.717
  382SOL     OW 1157   1.674   2.745   1.254
  382SOL    HW1 1158   1.647   2.656   1.217
  382SOL    HW2 1159   1.675   2.813   1.181
  383SOL     OW 1160   1.225   2.187   0.449
  383SOL    HW1 1161   1.290   2.113   0.438
  383SOL    HW2 1162   1.245   2.237   0.533
  384SOL     OW 1163   0.594   2.607   0.652
  384SOL    HW1 1164   0.644   2.692   0.633
  384SOL    HW2 1165   0.506   2.609   0.604
  385SOL     OW 1166   1.777   2.204   1.642
  385SOL    HW1 1167   1.760   2.235   1.548
  385SOL    HW2 1168   1.693   2.167   1.680
  386SOL     OW 1169   0.859   2.818   0.861
  386SOL    HW1 1170   0.913   2.749   0.909
  386SOL    HW2 1171   0.827   2.887   0.927
  387SOL     OW 1172   1.824   2.054   1.227
  387SOL    HW1 1173   1.820   1.964   1.271
  387SOL    HW2 1174   1.827   2.043   1.128
  388SOL     OW 1175   0.428   2.286   0.520
  388SOL    HW1 1176   0.458   2.214   0.458
  388SOL    HW2 1177   0.389   2.246   0.603
  389SOL     OW 1178   0.317   2.409   1.280
  389SOL    HW1 1179   0.355   2.350   1.352
  389SOL    HW2 1180   0.357   2.383   1.192
  390SOL     OW 1181   1.424   2.076   1.112
  390SOL    HW1 1182   1.476   2.011   1.167
  390SOL    HW2 1183   1.375   2.139   1.173
  391SOL     OW 1184   1.001   1.896   1.154
  391SOL    HW1 1185   0.938   1.824   1.123
  391SOL    HW2 1186   1.094   1.860   1.154
  392SOL     OW 1187   1.352   1.914   0.168
  392SOL    HW1 1188   1.387   1.873   0.084
  392SOL    HW2 1189   1.262   1.876   0.188
  393SOL     OW 1190   1.300   2.315   0.691
  393SOL    HW1 1191   1.241   2.395   0.695
  393SOL    HW2 1192   1.315   2.280   0.784
  394SOL     OW 1193   1.593   2.083   0.882
  394SOL    HW1 1194   1.509   2.082   0.936
  394SOL    HW2 1195   1.595   2.166   0.826
  395SOL     OW 1196   0.230   2.490   1.975
  395SOL    HW1 1197   0.137   2.488   2.012
  395SOL    HW2 1198   0.231   2.451   1.883
  396SOL     OW 1199   0.225   2.137   2.858
  396SOL    HW1 1200   0.260   2.120   2.950
  396SOL    HW2 1201   0.137   2.092   2.846
  397SOL     OW 1202   0.019   2.230   2.509
  397SOL    HW1 1203  -0.063   2.273   2.548
  397SOL    HW2 1204  -0.009   2.157   2.446
  398SOL     OW 1205   1.755   2.469   2.093
  398SOL    HW1 1206   1.743   2.456   1.994
  398SOL    HW2 1207   1.725   2.388   2.142
  399SOL     OW 1208   0.685   2.874   2.527
  399SOL    HW1 1209   0.754   2.858   2.597
  399SOL    HW2 1210   0.612   2.931   2.565
  400SOL     OW 1211   1.603   2.309   2.599
  400SOL    HW1 1212   1.529   2.355   2.549
  400SOL    HW2 1213   1.654   2.377   2.652
  401SOL     OW 1214   0.122   2.505   2.425
  401SOL    HW1 1215   0.077   2.417   2.442
  401SOL    HW2 1216   0.121   2.559   2.509
  402SOL     OW 1217   0.809   1.866   2.364
  402SOL    HW1 1218   0.849   1.957   2.355
  402SOL    HW2 1219   0.709   1.874   2.370
  403SOL     OW 1220   0.598   2.591   2.132
  403SOL    HW1 1221   0.622   2.660   2.064
  403SOL    HW2 1222   0.520   2.624   2.186
  404SOL     OW 1223   1.281   2.207   2.806
  404SOL    HW1 1224   1.195   2.157   2.793
  404SOL    HW2 1225   1.343   2.153   2.862
  405SOL     OW 1226   1.041   2.563   2.291
  405SOL    HW1 1227   1.067   2.559   2.387
  405SOL    HW2 1228   0.956   2.512   2.277
  406SOL     OW 1229   0.076   2.673   2.651
  406SOL    HW1 1230   0.175   2.661   2.660
  406SOL    HW2 1231   0.052   2.768   2.672
  407SOL     OW 1232   0.865   2.210   2.057
  407SOL    HW1 1233   0.924   2.273   2.008
  407SOL    HW2 1234   0.884   2.116   2.028
  408SOL     OW 1235   1.458   2.597   2.590
  408SOL    HW1 1236   1.453   2.532   2.665
  408SOL    HW2 1237   1.538   2.656   2.603
  409SOL     OW 1238   1.400   1.969   2.288
  409SOL    HW1 1239   1.376   1.932   2.198
  409SOL    HW2 1240   1.499   1.985   2.292
  410SOL     OW 1241   0.382   2.562   2.342
  410SOL    HW1 1242   0.427   2.472   2.339
  410SOL    HW2 1243   0.288   2.551   2.375
  411SOL     OW 1244   0.614   1.984   1.979
  411SOL    HW1 1245   0.712   1.962   1.986
  411SOL    HW2 1246   0.583   1.967   1.886
  412SOL     OW 1247   0.539   1.926   2.374
  412SOL    HW1 1248   0.458   1.927   2.432
  412SOL    HW2 1249   0.542   2.009   2.319
  413SOL     OW 1250   0.297   1.897   2.033
  413SOL    HW1 1251   0.346   1.981   2.012
  413SOL    HW2 1252   0.359   1.832   2.078
  414SOL     OW 1253   0.935   2.098   2.342
  414SOL    HW1 1254   0.887   2.139   2.264
  414SOL    HW2 1255   1.034   2.096   2.323
  415SOL     OW 1256   1.032   2.411   1.878
  415SOL    HW1 1257   0.991   2.493   1.839
  415SOL    HW2 1258   1.096   2.437   1.951
  416SOL     OW 1259   0.866   2.316   2.504
  416SOL    HW1 1260   0.834   2.388   2.442
  416SOL    HW2 1261   0.890   2.235   2.451
  417SOL     OW 1262   1.857   2.695   2.239
  417SOL    HW1 1263   1.899   2.631   2.303
  417SOL    HW2 1264   1.819   2.644   2.161
  418SOL     OW 1265   1.390   2.437   1.940
  418SOL    HW1 1266   1.336   2.416   2.021
  418SOL    HW2 1267   1.481   2.396   1.949
  419SOL     OW 1268   0.527   2.118   2.190
  419SOL    HW1 1269   0.554   2.059   2.115
  419SOL    HW2 1270   0.527   2.213   2.159
  420SOL     OW 1271   0.705   2.912   2.230
  420SOL    HW1 1272   0.691   2.919   2.329
  420SOL    HW2 1273   0.789   2.861   2.212
  421SOL     OW 1274   1.582   2.501   2.334
  421SOL    HW1 1275   1.551   2.562   2.407
  421SOL    HW2 1276   1.632   2.553   2.265
  422SOL     OW 1277   1.209   2.387   2.137
  422SOL    HW1 1278   1.222   2.303   2.191
  422SOL    HW2 1279   1.180   2.461   2.197
  423SOL     OW 1280   0.307   1.925   2.480
  423SOL    HW1 1281   0.296   2.019   2.513
  423SOL    HW2 1282   0.302   1.862   2.557
  424SOL     OW 1283   1.622   2.229   2.236
  424SOL    HW1 1284   1.624   2.153   2.300
  424SOL    HW2 1285   1.574   2.306   2.276
  425SOL     OW 1286   1.540   2.136   1.987
  425SOL    HW1 1287   1.479   2.061   2.010
  425SOL    HW2 1288   1.562   2.188   2.070
  426SOL     OW 1289   0.040   2.406   2.976
  426SOL    HW1 1290   0.125   2.373   2.935
  426SOL    HW2 1291   0.053   2.421   3.074
  427SOL     OW 1292   0.815   2.434   2.187
  427SOL    HW1 1293   0.822   2.345   2.141
  427SOL    HW2 1294   0.721   2.468   2.179
  428SOL     OW 1295   0.473   2.362   2.053
  428SOL    HW1 1296   0.534   2.442   2.057
  428SOL    HW2 1297   0.378   2.393   2.060
  429SOL     OW 1298   1.726   1.997   2.385
  429SOL    HW1 1299   1.799   1.980   2.318
  429SOL    HW2 1300   1.695   1.910   2.423
  430SOL     OW 1301   1.280   2.789   2.534
  430SOL    HW1 1302   1.340   2.708   2.536
  430SOL    HW2 1303   1.320   2.858   2.474
  431SOL     OW 1304   1.841   2.037   2.825
  431SOL    HW1 1305   1.880   1.952   2.789
  431SOL    HW2 1306   1.743   2.039   2.806
  432SOL     OW 1307   0.263   2.188   2.582
  432SOL    HW1 1308   0.184   2.239   2.548
  432SOL    HW2 1309   0.254   2.173   2.680
  433SOL     OW 1310   0.916   2.772   2.153
  433SOL    HW1 1311   0.979   2.810   2.085
  433SOL    HW2 1312   0.956   2.689   2.192
  434SOL     OW 1313   1.039   2.960   2.558
  434SOL    HW1 1314   0.969   2.913   2.612
  434SOL    HW2 1315   1.098   2.892   2.515
  435SOL     OW 1316   0.075   2.207   1.895
  435SOL    HW1 1317  -0.017   2.179   1.866
  435SOL    HW2 1318   0.106   2.284   1.839
  436SOL     OW 1319   0.072   2.028   2.180
  436SOL    HW1 1320   0.055   2.111   2.126
  436SOL    HW2 1321   0.162   1.991   2.158
  437SOL     OW 1322   1.225   2.187   2.311
  437SOL    HW1 1323   1.290   2.113   2.300
  437SOL    HW2 1324   1.245   2.237   2.395
  438SOL     OW 1325   0.594   2.607   2.514
  438SOL    HW1 1326   0.644   2.692   2.495
  438SOL    HW2 1327   0.506   2.609   2.466
  439SOL     OW 1328   0.428   2.286   2.382
  439SOL    HW1 1329   0.458   2.214   2.320
  439SOL    HW2 1330   0.389   2.246   2.465
  440SOL     OW 1331   1.352   1.914   2.030
  440SOL    HW1 1332   1.387   1.873   1.946
  440SOL    HW2 1333   1.262   1.876   2.050
  441SOL     OW 1334   1.300   2.315   2.553
  441SOL    HW1 1335   1.241   2.395   2.557
  441SOL    HW2 1336   1.315   2.280   2.646
  442SOL     OW 1337   2.092   0.628   0.113
  442SOL    HW1 1338   1.999   0.626   0.150
  442SOL    HW2 1339   2.093   0.589   0.021
  443SOL     OW 1340   2.087   0.275   0.996
  443SOL    HW1 1341   2.122   0.258   1.088
  443SOL    HW2 1342   1.999   0.230   0.984
  444SOL     OW 1343   1.881   0.368   0.647
  444SOL    HW1 1344   1.799   0.411   0.686
  444SOL    HW2 1345   1.853   0.295   0.584
  445SOL     OW 1346   2.431   1.275   1.165
  445SOL    HW1 1347   2.338   1.268   1.128
  445SOL    HW2 1348   2.442   1.364   1.209
  446SOL     OW 1349   2.712   0.798   1.823
  446SOL    HW1 1350   2.708   0.874   1.888
  446SOL    HW2 1351   2.734   0.834   1.732
  447SOL     OW 1352   2.547   1.012   0.665
  447SOL    HW1 1353   2.616   0.996   0.735
  447SOL    HW2 1354   2.474   1.069   0.703
  448SOL     OW 1355   2.548   1.161   1.803
  448SOL    HW1 1356   2.608   1.240   1.817
  448SOL    HW2 1357   2.462   1.192   1.762
  449SOL     OW 1358   2.197   1.435   1.061
  449SOL    HW1 1359   2.119   1.404   1.008
  449SOL    HW2 1360   2.255   1.493   1.004
  450SOL     OW 1361   2.300   0.392   1.499
  450SOL    HW1 1362   2.382   0.336   1.508
  450SOL    HW2 1363   2.219   0.334   1.503
  451SOL     OW 1364   2.093   1.713   0.483
  451SOL    HW1 1365   2.127   1.790   0.537
  451SOL    HW2 1366   2.137   1.713   0.393
  452SOL     OW 1367   2.092   1.434   0.538
  452SOL    HW1 1368   2.066   1.530   0.538
  452SOL    HW2 1369   2.021   1.380   0.583
  453SOL     OW 1370   2.102   1.091   0.886
  453SOL    HW1 1371   2.116   1.007   0.938
  453SOL    HW2 1372   2.047   1.155   0.941
  454SOL     OW 1373   2.482   1.786   1.439
  454SOL    HW1 1374   2.390   1.769   1.474
  454SOL    HW2 1375   2.510   1.878   1.465
  455SOL     OW 1376   2.468   0.964   0.123
  455SOL    HW1 1377   2.475   1.048   0.069
  455SOL    HW2 1378   2.514   0.977   0.211
  456SOL     OW 1379   1.984   0.643   0.563
  456SOL    HW1 1380   1.939   0.555   0.580
  456SOL    HW2 1381   1.983   0.697   0.647
  457SOL     OW 1382   1.889   1.596   0.117
  457SOL    HW1 1383   1.870   1.500   0.138
  457SOL    HW2 1384   1.856   1.654   0.192
  458SOL     OW 1385   1.975   0.737   1.597
  458SOL    HW1 1386   2.063   0.724   1.642
  458SOL    HW2 1387   1.962   0.834   1.575
  459SOL     OW 1388   2.475   1.365   0.726
  459SOL    HW1 1389   2.426   1.278   0.735
  459SOL    HW2 1390   2.452   1.408   0.639
  460SOL     OW 1391   2.671   0.004   0.502
  460SOL    HW1 1392   2.711   0.095   0.493
  460SOL    HW2 1393   2.571   0.012   0.508
  461SOL     OW 1394   2.059   0.976   1.264
  461SOL    HW1 1395   2.148   0.931   1.250
  461SOL    HW2 1396   1.986   0.911   1.245
  462SOL     OW 1397   2.179   0.251   1.801
  462SOL    HW1 1398   2.250   0.322   1.807
  462SOL    HW2 1399   2.091   0.290   1.829
  463SOL     OW 1400   2.460   0.729   0.270
  463SOL    HW1 1401   2.484   0.798   0.202
  463SOL    HW2 1402   2.382   0.762   0.324
  464SOL     OW 1403   1.938   0.811   0.789
  464SOL    HW1 1404   2.037   0.799   0.798
  464SOL    HW2 1405   1.914   0.906   0.810
  465SOL     OW 1406   1.992   1.821   1.571
  465SOL    HW1 1407   1.982   1.806   1.670
  465SOL    HW2 1408   1.906   1.857   1.535
  466SOL     OW 1409   2.412   0.196   0.885
  466SOL    HW1 1410   2.407   0.191   0.985
  466SOL    HW2 1411   2.414   0.292   0.856
  467SOL     OW 1412   2.213   1.801   0.853
  467SOL    HW1 1413   2.263   1.715   0.859
  467SOL    HW2 1414   2.278   1.878   0.850
  468SOL     OW 1415   2.183   0.943   0.242
  468SOL    HW1 1416   2.265   0.982   0.200
  468SOL    HW2 1417   2.156   0.861   0.193
  469SOL     OW 1418   2.323   1.266   1.727
  469SOL    HW1 1419   2.273   1.267   1.641
  469SOL    HW2 1420   2.260   1.248   1.803
  470SOL     OW 1421   2.064   0.285   1.498
  470SOL    HW1 1422   1.984   0.345   1.485
  470SOL    HW2 1423   2.054   0.236   1.584
  471SOL     OW 1424   2.326   1.743   0.323
  471SOL    HW1 1425   2.359   1.782   0.409
  471SOL    HW2 1426   2.402   1.736   0.258
  472SOL     OW 1427   2.111   1.785   1.241
  472SOL    HW1 1428   2.168   1.720   1.291
  472SOL    HW2 1429   2.095   1.752   1.148
  473SOL     OW 1430   2.244   0.700   0.480
  473SOL    HW1 1431   2.289   0.610   0.477
  473SOL    HW2 1432   2.150   0.689   0.513
  474SOL     OW 1433   2.476   0.122   0.117
  474SOL    HW1 1434   2.574   0.100   0.124
  474SOL    HW2 1435   2.445   0.105   0.024
  475SOL     OW 1436   2.665   1.402   0.924
  475SOL    HW1 1437   2.755   1.416   0.882
  475SOL    HW2 1438   2.594   1.404   0.853
  476SOL     OW 1439   2.784   0.503   0.899
  476SOL    HW1 1440   2.759   0.494   0.803
  476SOL    HW2 1441   2.832   0.421   0.930
  477SOL     OW 1442   2.401   0.064   0.512
  477SOL    HW1 1443   2.320   0.065   0.570
  477SOL    HW2 1444   2.404   0.147   0.457
  478SOL     OW 1445   2.159   0.035   0.171
  478SOL    HW1 1446   2.208   0.119   0.150
  478SOL    HW2 1447   2.221  -0.030   0.216
  479SOL     OW 1448   2.321   1.152   0.741
  479SOL    HW1 1449   2.250   1.125   0.806
  479SOL    HW2 1450   2.295   1.124   0.648
  480SOL     OW 1451   1.940   0.556   1.386
  480SOL    HW1 1452   2.032   0.555   1.345
  480SOL    HW2 1453   1.934   0.630   1.453
  481SOL     OW 1454   2.423   0.222   1.147
  481SOL    HW1 1455   2.461   0.138   1.184
  481SOL    HW2 1456   2.335   0.241   1.191
  482SOL     OW 1457   2.350   1.385   0.174
  482SOL    HW1 1458   2.263   1.370   0.221
  482SOL    HW2 1459   2.333   1.411   0.079
  483SOL     OW 1460   2.389   0.256   0.328
  483SOL    HW1 1461   2.416   0.197   0.253
  483SOL    HW2 1462   2.389   0.351   0.297
  484SOL     OW 1463   2.777   0.089   1.402
  484SOL    HW1 1464   2.802   0.069   1.307
  484SOL    HW2 1465   2.849   0.145   1.444
  485SOL     OW 1466   2.272   0.813   1.251
  485SOL    HW1 1467   2.358   0.825   1.301
  485SOL    HW2 1468   2.230   0.726   1.278
  486SOL     OW 1469   1.926   1.564   1.331
  486SOL    HW1 1470   1.880   1.646   1.297
  486SOL    HW2 1471   2.024   1.583   1.340
  487SOL     OW 1472   2.229   1.100   0.501
  487SOL    HW1 1473   2.222   1.183   0.445
  487SOL    HW2 1474   2.233   1.020   0.441
  488SOL     OW 1475   2.428   0.537   0.865
  488SOL    HW1 1476   2.440   0.603   0.791
  488SOL    HW2 1477   2.474   0.571   0.948
  489SOL     OW 1478   2.216   1.510   1.329
  489SOL    HW1 1479   2.195   1.466   1.242
  489SOL    HW2 1480   2.313   1.536   1.332
  490SOL     OW 1481   2.264   0.751   1.598
  490SOL    HW1 1482   2.332   0.806   1.551
  490SOL    HW2 1483   2.304   0.663   1.625
  491SOL     OW 1484   2.366   0.050   1.740
  491SOL    HW1 1485   2.324  -0.007   1.670
  491SOL    HW2 1486   2.300   0.119   1.772
  492SOL     OW 1487   2.435   0.870   1.029
  492SOL    HW1 1488   2.479   0.959   1.020
  492SOL    HW2 1489   2.372   0.870   1.106
  493SOL     OW 1490   2.169   0.213   1.231
  493SOL    HW1 1491   2.146   0.250   1.321
  493SOL    HW2 1492   2.139   0.118   1.225
  494SOL     OW 1493   1.899   1.310   1.282
  494SOL    HW1 1494   1.952   1.261   1.350
  494SOL    HW2 1495   1.921   1.408   1.287
  495SOL     OW 1496   2.594   0.634   1.064
  495SOL    HW1 1497   2.653   0.608   0.988
  495SOL    HW2 1498   2.566   0.730   1.053
  496SOL     OW 1499   2.169   0.063   0.618
  496SOL    HW1 1500   2.158   0.157   0.651
  496SOL    HW2 1501   2.164   0.000   0.695
  497SOL     OW 1502   2.212   0.898   1.804
  497SOL    HW1 1503   2.288   0.942   1.852
  497SOL    HW2 1504   2.247   0.851   1.722
  498SOL     OW 1505   2.930   1.333   0.849
  498SOL    HW1 1506   2.937   1.249   0.794
  498SOL    HW2 1507   2.992   1.402   0.813
  499SOL     OW 1508   2.181   0.810   0.949
  499SOL    HW1 1509   2.274   0.846   0.954
  499SOL    HW2 1510   2.175   0.725   1.001
  500SOL     OW 1511   2.201   0.509   1.006
  500SOL    HW1 1512   2.149   0.426   0.989
  500SOL    HW2 1513   2.278   0.514   0.942
  501SOL     OW 1514   1.870   1.326   0.200
  501SOL    HW1 1515   1.777   1.347   0.169
  501SOL    HW2 1516   1.880   1.227   0.213
  502SOL     OW 1517   1.950   1.801   0.927
  502SOL    HW1 1518   1.908   1.715   0.900
  502SOL    HW2 1519   2.044   1.804   0.893
  503SOL     OW 1520   2.366   1.568   0.910
  503SOL    HW1 1521   2.432   1.642   0.919
  503SOL    HW2 1522   2.410   1.489   0.868
  504SOL     OW 1523   1.902   0.544   1.114
  504SOL    HW1 1524   1.987   0.511   1.073
  504SOL    HW2 1525   1.915   0.559   1.212
  505SOL     OW 1526   2.051   0.520   1.722
  505SOL    HW1 1527   2.110   0.480   1.652
  505SOL    HW2 1528   1.993   0.591   1.681
  506SOL     OW 1529   2.114   1.564   1.744
  506SOL    HW1 1530   2.084   1.621   1.820
  506SOL    HW2 1531   2.107   1.467   1.770
  507SOL     OW 1532   2.533   0.464   1.269
  507SOL    HW1 1533   2.499   0.375   1.239
  507SOL    HW2 1534   2.559   0.518   1.189
  508SOL     OW 1535   2.335   0.500   0.191
  508SOL    HW1 1536   2.396   0.580   0.195
  508SOL    HW2 1537   2.240   0.531   0.198
  509SOL     OW 1538   2.021   1.137   1.466
  509SOL    HW1 1539   2.043   1.076   1.542
  509SOL    HW2 1540   2.031   1.088   1.380
  510SOL     OW 1541   1.945   1.258   1.022
  510SOL    HW1 1542   1.940   1.257   1.122
  510SOL    HW2 1543   1.862   1.217   0.984
  511SOL     OW 1544   2.550   1.662   1.716
  511SOL    HW1 1545   2.494   1.743   1.725
  511SOL    HW2 1546   2.602   1.666   1.630
  512SOL     OW 1547   1.992   1.794   1.851
  512SOL    HW1 1548   1.951   1.720   1.904
  512SOL    HW2 1549   2.056   1.845   1.909
  513SOL     OW 1550   2.534   1.616   0.154
  513SOL    HW1 1551   2.543   1.626   0.055
  513SOL    HW2 1552   2.494   1.527   0.175
  514SOL     OW 1553   2.125   0.326   0.720
  514SOL    HW1 1554   2.046   0.377   0.686
  514SOL    HW2 1555   2.116   0.311   0.818
  515SOL     OW 1556   2.684   1.002   1.372
  515SOL    HW1 1557   2.724   1.001   1.280
  515SOL    HW2 1558   2.694   1.094   1.412
  516SOL     OW 1559   2.234   1.288   1.490
  516SOL    HW1 1560   2.221   1.381   1.456
  516SOL    HW2 1561   2.150   1.236   1.477
  517SOL     OW 1562   2.452   1.487   0.491
  517SOL    HW1 1563   2.494   1.429   0.421
  517SOL    HW2 1564   2.408   1.566   0.447
  518SOL     OW 1565   2.117   1.348   0.290
  518SOL    HW1 1566   2.021   1.349   0.263
  518SOL    HW2 1567   2.129   1.401   0.374
  519SOL     OW 1568   1.967   1.013   1.726
  519SOL    HW1 1569   1.890   0.980   1.780
  519SOL    HW2 1570   2.052   0.983   1.768
  520SOL     OW 1571   2.534   0.203   1.489
  520SOL    HW1 1572   2.624   0.187   1.449
  520SOL    HW2 1573   2.542   0.208   1.588
  521SOL     OW 1574   1.937   0.345   0.033
  521SOL    HW1 1575   1.845   0.317   0.004
  521SOL    HW2 1576   1.968   0.422  -0.023
  522SOL     OW 1577   1.934   0.166   0.318
  522SOL    HW1 1578   1.917   0.249   0.264
  522SOL    HW2 1579   2.024   0.129   0.296
  523SOL     OW 1580   2.475   0.842   1.431
  523SOL    HW1 1581   2.531   0.923   1.414
  523SOL    HW2 1582   2.534   0.762   1.434
  524SOL     OW 1583   2.578   0.565   1.708
  524SOL    HW1 1584   2.597   0.630   1.782
  524SOL    HW2 1585   2.638   0.485   1.717
  525SOL     OW 1586   2.252   1.741   1.560
  525SOL    HW1 1587   2.161   1.782   1.558
  525SOL    HW2 1588   2.245   1.647   1.592
  526SOL     OW 1589   2.456   0.745   0.652
  526SOL    HW1 1590   2.506   0.830   0.633
  526SOL    HW2 1591   2.368   0.747   0.604
  527SOL     OW 1592   2.523   1.790   0.953
  527SOL    HW1 1593   2.477   1.878   0.940
  527SOL    HW2 1594   2.622   1.802   0.946
  528SOL     OW 1595   2.083   1.314   1.844
  528SOL    HW1 1596   2.018   1.241   1.823
  528SOL    HW2 1597   2.087   1.328   1.942
  529SOL     OW 1598   1.941   1.240   0.653
  529SOL    HW1 1599   1.940   1.193   0.741
  529SOL    HW2 1600   2.023   1.212   0.602
  530SOL     OW 1601   2.534   1.391   1.624
  530SOL    HW1 1602   2.456   1.341   1.662
  530SOL    HW2 1603   2.531   1.486   1.655
  531SOL     OW 1604   2.290   0.424   0.520
  531SOL    HW1 1605   2.320   0.352   0.458
  531SOL    HW2 1606   2.251   0.384   0.603
  532SOL     OW 1607   2.179   0.547   1.280
  532SOL    HW1 1608   2.217   0.488   1.352
  532SOL    HW2 1609   2.219   0.521   1.192
  533SOL     OW 1610   2.674   1.586   0.687
  533SOL    HW1 1611   2.706   1.596   0.593
  533SOL    HW2 1612   2.595   1.524   0.689
  534SOL     OW 1613   2.863   0.034   1.154
  534SOL    HW1 1614   2.800  -0.038   1.123
  534SOL    HW2 1615   2.956  -0.002   1.154
  535SOL     OW 1616   2.480   1.567   1.284
  535SOL    HW1 1617   2.475   1.649   1.341
  535SOL    HW2 1618   2.569   1.564   1.239
  536SOL     OW 1619   1.901   1.077   0.300
  536SOL    HW1 1620   2.000   1.066   0.291
  536SOL    HW2 1621   1.861   0.991   0.332
  537SOL     OW 1622   2.092   0.628   1.975
  537SOL    HW1 1623   1.999   0.626   2.012
  537SOL    HW2 1624   2.093   0.589   1.883
  538SOL     OW 1625   2.087   0.275   2.858
  538SOL    HW1 1626   2.122   0.258   2.950
  538SOL    HW2 1627   1.999   0.230   2.846
  539SOL     OW 1628   1.881   0.368   2.509
  539SOL    HW1 1629   1.799   0.411   2.548
  539SOL    HW2 1630   1.853   0.295   2.446
  540SOL     OW 1631   2.547   1.012   2.527
  540SOL    HW1 1632   2.616   0.996   2.597
  540SOL    HW2 1633   2.474   1.069   2.565
  541SOL     OW 1634   2.093   1.713   2.345
  541SOL    HW1 1635   2.127   1.790   2.399
  541SOL    HW2 1636   2.137   1.713   2.255
  542SOL     OW 1637   2.092   1.434   2.400
  542SOL    HW1 1638   2.066   1.530   2.400
  542SOL    HW2 1639   2.021   1.380   2.445
  543SOL     OW 1640   2.102   1.091   2.748
  543SOL    HW1 1641   2.116   1.007   2.800
  543SOL    HW2 1642   2.047   1.155   2.803
  544SOL     OW 1643   2.468   0.964   1.985
  544SOL    HW1 1644   2.475   1.048   1.931
  544SOL    HW2 1645   2.514   0.977   2.073
  545SOL     OW 1646   1.984   0.643   2.425
  545SOL    HW1 1647   1.939   0.555   2.442
  545SOL    HW2 1648   1.983   0.697   2.509
  546SOL     OW 1649   1.889   1.596   1.979
  546SOL    HW1 1650   1.870   1.500   2.000
  546SOL    HW2 1651   1.856   1.654   2.054
  547SOL     OW 1652   2.475   1.365   2.588
  547SOL    HW1 1653   2.426   1.278   2.597
  547SOL    HW2 1654   2.452   1.408   2.501
  548SOL     OW 1655   2.671   0.004   2.364
  548SOL    HW1 1656   2.711   0.095   2.355
  548SOL    HW2 1657   2.571   0.012   2.370
  549SOL     OW 1658   2.460   0.729   2.132
  549SOL    HW1 1659   2.484   0.798   2.064
  549SOL    HW2 1660   2.382   0.762   2.186
  550SOL     OW 1661   1.938   0.811   2.651
  550SOL    HW1 1662   2.037   0.799   2.660
  550SOL    HW2 1663   1.914   0.906   2.672
  551SOL     OW 1664   2.213   1.801   2.715
  551SOL    HW1 1665   2.263   1.715   2.721
  551SOL    HW2 1666   2.278   1.878   2.712
  552SOL     OW 1667   2.183   0.943   2.104
  552SOL    HW1 1668   2.265   0.982   2.062
  552SOL    HW2 1669   2.156   0.861   2.055
  553SOL     OW 1670   2.326   1.743   2.185
  553SOL    HW1 1671   2.359   1.782   2.271
  553SOL    HW2 1672   2.402   1.736   2.120
  554SOL     OW 1673   2.244   0.700   2.342
  554SOL    HW1 1674   2.289   0.610   2.339
  554SOL    HW2 1675   2.150   0.689   2.375
  555SOL     OW 1676   2.476   0.122   1.979
  555SOL    HW1 1677   2.574   0.100   1.986
  555SOL    HW2 1678   2.445   0.105   1.886
  556SOL     OW 1679   2.401   0.064   2.374
  556SOL    HW1 1680   2.320   0.065   2.432
  556SOL    HW2 1681   2.404   0.147   2.319
  557SOL     OW 1682   2.159   0.035   2.033
  557SOL    HW1 1683   2.208   0.119   2.012
  557SOL    HW2 1684   2.221  -0.030   2.078
  558SOL     OW 1685   2.321   1.152   2.603
  558SOL    HW1 1686   2.250   1.125   2.668
  558SOL    HW2 1687   2.295   1.124   2.510
  559SOL     OW 1688   2.350   1.385   2.036
  559SOL    HW1 1689   2.263   1.370   2.083
  559SOL    HW2 1690   2.333   1.411   1.941
  560SOL     OW 1691   2.389   0.256   2.190
  560SOL    HW1 1692   2.416   0.197   2.115
  560SOL    HW2 1693   2.389   0.351   2.159
  561SOL     OW 1694   2.229   1.100   2.363
  561SOL    HW1 1695   2.222   1.183   2.307
  561SOL    HW2 1696   2.233   1.020   2.303
  562SOL     OW 1697   2.169   0.063   2.480
  562SOL    HW1 1698   2.158   0.157   2.513
  562SOL    HW2 1699   2.164   0.000   2.557
  563SOL     OW 1700   2.930   1.333   2.711
  563SOL    HW1 1701   2.937   1.249   2.656
  563SOL    HW2 1702   2.992   1.402   2.675
  564SOL     OW 1703   1.870   1.326   2.062
  564SOL    HW1 1704   1.777   1.347   2.031
  564SOL    HW2 1705   1.880   1.227   2.075
  565SOL     OW 1706   2.677   0.572   2.187
  565SOL    HW1 1707   2.684   0.483   2.141
  565SOL    HW2 1708   2.583   0.606   2.179
  566SOL     OW 1709   2.335   0.500   2.053
  566SOL    HW1 1710   2.396   0.580   2.057
  566SOL    HW2 1711   2.240   0.531   2.060
  567SOL     OW 1712   2.534   1.616   2.016
  567SOL    HW1 1713   2.543   1.626   1.917
  567SOL    HW2 1714   2.494   1.527   2.037
  568SOL     OW 1715   2.125   0.326   2.582
  568SOL    HW1 1716   2.046   0.377   2.548
  568SOL    HW2 1717   2.116   0.311   2.680
  569SOL     OW 1718   2.452   1.487   2.353
  569SOL    HW1 1719   2.494   1.429   2.283
  569SOL    HW2 1720   2.408   1.566   2.309
  570SOL     OW 1721   2.117   1.348   2.152
  570SOL    HW1 1722   2.021   1.349   2.125
  570SOL    HW2 1723   2.129   1.401   2.236
  571SOL     OW 1724   1.937   0.345   1.895
  571SOL    HW1 1725   1.845   0.317   1.866
  571SOL    HW2 1726   1.968   0.422   1.839
  572SOL     OW 1727   1.934   0.166   2.180
  572SOL    HW1 1728   1.917   0.249   2.126
  572SOL    HW2 1729   2.024   0.129   2.158
  573SOL     OW 1730   2.456   0.745   2.514
  573SOL    HW1 1731   2.506   0.830   2.495
  573SOL    HW2 1732   2.368   0.747   2.466
  574SOL     OW 1733   2.523   1.790   2.815
  574SOL    HW1 1734   2.477   1.878   2.802
  574SOL    HW2 1735   2.622   1.802   2.808
  575SOL     OW 1736   1.941   1.240   2.515
  575SOL    HW1 1737   1.940   1.193   2.603
  575SOL    HW2 1738   2.023   1.212   2.464
  576SOL     OW 1739   2.290   0.424   2.382
  576SOL    HW1 1740   2.320   0.352   2.320
  576SOL    HW2 1741   2.251   0.384   2.465
  577SOL     OW 1742   2.674   1.586   2.549
  577SOL    HW1 1743   2.706   1.596   2.455
  577SOL    HW2 1744   2.595   1.524   2.551
  578SOL     OW 1745   1.901   1.077   2.162
  578SOL    HW1 1746   2.000   1.066   2.153
  578SOL    HW2 1747   1.861   0.991   2.194
  579SOL     OW 1748   2.092   2.490   0.113
  579SOL    HW1 1749   1.999   2.488   0.150
  579SOL    HW2 1750   2.093   2.451   0.021
  580SOL     OW 1751   2.087   2.137   0.996
  580SOL    HW1 1752   2.122   2.120   1.088
  580SOL    HW2 1753   1.999   2.092   0.984
  581SOL     OW 1754   1.881   2.230   0.647
  581SOL    HW1 1755   1.799   2.273   0.686
  581SOL    HW2 1756   1.853   2.157   0.584
  582SOL     OW 1757   2.712   2.660   1.823
  582SOL    HW1 1758   2.708   2.736   1.888
  582SOL    HW2 1759   2.734   2.696   1.732
  583SOL     OW 1760   2.547   2.874   0.665
  583SOL    HW1 1761   2.616   2.858   0.735
  583SOL    HW2 1762   2.474   2.931   0.703
  584SOL     OW 1763   2.300   2.254   1.499
  584SOL    HW1 1764   2.382   2.198   1.508
  584SOL    HW2 1765   2.219   2.196   1.503
  585SOL     OW 1766   1.984   2.505   0.563
  585SOL    HW1 1767   1.939   2.417   0.580
  585SOL    HW2 1768   1.983   2.559   0.647
  586SOL     OW 1769   1.975   2.599   1.597
  586SOL    HW1 1770   2.063   2.586   1.642
  586SOL    HW2 1771   1.962   2.696   1.575
  587SOL     OW 1772   2.671   1.866   0.502
  587SOL    HW1 1773   2.711   1.957   0.493
  587SOL    HW2 1774   2.571   1.874   0.508
  588SOL     OW 1775   2.179   2.113   1.801
  588SOL    HW1 1776   2.250   2.184   1.807
  588SOL    HW2 1777   2.091   2.152   1.829
  589SOL     OW 1778   2.460   2.591   0.270
  589SOL    HW1 1779   2.484   2.660   0.202
  589SOL    HW2 1780   2.382   2.624   0.324
  590SOL     OW 1781   2.412   2.058   0.885
  590SOL    HW1 1782   2.407   2.053   0.985
  590SOL    HW2 1783   2.414   2.154   0.856
  591SOL     OW 1784   2.064   2.147   1.498
  591SOL    HW1 1785   1.984   2.207   1.485
  591SOL    HW2 1786   2.054   2.098   1.584
  592SOL     OW 1787   2.244   2.562   0.480
  592SOL    HW1 1788   2.289   2.472   0.477
  592SOL    HW2 1789   2.150   2.551   0.513
  593SOL     OW 1790   2.784   2.365   0.899
  593SOL    HW1 1791   2.759   2.356   0.803
  593SOL    HW2 1792   2.832   2.283   0.930
  594SOL     OW 1793   2.401   1.926   0.512
  594SOL    HW1 1794   2.320   1.927   0.570
  594SOL    HW2 1795   2.404   2.009   0.457
  595SOL     OW 1796   2.159   1.897   0.171
  595SOL    HW1 1797   2.208   1.981   0.150
  595SOL    HW2 1798   2.221   1.832   0.216
  596SOL     OW 1799   1.940   2.418   1.386
  596SOL    HW1 1800   2.032   2.417   1.345
  596SOL    HW2 1801   1.934   2.492   1.453
  597SOL     OW 1802   2.423   2.084   1.147
  597SOL    HW1 1803   2.461   2.000   1.184
  597SOL    HW2 1804   2.335   2.103   1.191
  598SOL     OW 1805   2.389   2.118   0.328
  598SOL    HW1 1806   2.416   2.059   0.253
  598SOL    HW2 1807   2.389   2.213   0.297
  599SOL     OW 1808   2.777   1.951   1.402
  599SOL    HW1 1809   2.802   1.931   1.307
  599SOL    HW2 1810   2.849   2.007   1.444
  600SOL     OW 1811   2.272   2.675   1.251
  600SOL    HW1 1812   2.358   2.687   1.301
  600SOL    HW2 1813   2.230   2.588   1.278
  601SOL     OW 1814   2.428   2.399   0.865
  601SOL    HW1 1815   2.440   2.465   0.791
  601SOL    HW2 1816   2.474   2.433   0.948
  602SOL     OW 1817   2.366   1.912   1.740
  602SOL    HW1 1818   2.324   1.855   1.670
  602SOL    HW2 1819   2.300   1.981   1.772
  603SOL     OW 1820   2.169   2.075   1.231
  603SOL    HW1 1821   2.146   2.112   1.321
  603SOL    HW2 1822   2.139   1.980   1.225
  604SOL     OW 1823   2.594   2.496   1.064
  604SOL    HW1 1824   2.653   2.470   0.988
  604SOL    HW2 1825   2.566   2.592   1.053
  605SOL     OW 1826   2.169   1.925   0.618
  605SOL    HW1 1827   2.158   2.019   0.651
  605SOL    HW2 1828   2.164   1.862   0.695
  606SOL     OW 1829   2.181   2.672   0.949
  606SOL    HW1 1830   2.274   2.708   0.954
  606SOL    HW2 1831   2.175   2.587   1.001
  607SOL     OW 1832   2.201   2.371   1.006
  607SOL    HW1 1833   2.149   2.288   0.989
  607SOL    HW2 1834   2.278   2.376   0.942
  608SOL     OW 1835   1.902   2.406   1.114
  608SOL    HW1 1836   1.987   2.373   1.073
  608SOL    HW2 1837   1.915   2.421   1.212
  609SOL     OW 1838   2.051   2.382   1.722
  609SOL    HW1 1839   2.110   2.342   1.652
  609SOL    HW2 1840   1.993   2.453   1.681
  610SOL     OW 1841   2.533   2.326   1.269
  610SOL    HW1 1842   2.499   2.237   1.239
  610SOL    HW2 1843   2.559   2.380   1.189
  611SOL     OW 1844   2.335   2.362   0.191
  611SOL    HW1 1845   2.396   2.442   0.195
  611SOL    HW2 1846   2.240   2.393   0.198
  612SOL     OW 1847   2.125   2.188   0.720
  612SOL    HW1 1848   2.046   2.239   0.686
  612SOL    HW2 1849   2.116   2.173   0.818
  613SOL     OW 1850   1.967   2.875   1.726
  613SOL    HW1 1851   1.890   2.842   1.780
  613SOL    HW2 1852   2.052   2.845   1.768
  614SOL     OW 1853   2.534   2.065   1.489
  614SOL    HW1 1854   2.624   2.049   1.449
  614SOL    HW2 1855   2.542   2.070   1.588
  615SOL     OW 1856   1.937   2.207   0.033
  615SOL    HW1 1857   1.845   2.179   0.004
  615SOL    HW2 1858   1.968   2.284  -0.023
  616SOL     OW 1859   1.934   2.028   0.318
  616SOL    HW1 1860   1.917   2.111   0.264
  616SOL    HW2 1861   2.024   1.991   0.296
  617SOL     OW 1862   2.578   2.427   1.708
  617SOL    HW1 1863   2.597   2.492   1.782
  617SOL    HW2 1864   2.638   2.347   1.717
  618SOL     OW 1865   2.456   2.607   0.652
  618SOL    HW1 1866   2.506   2.692   0.633
  618SOL    HW2 1867   2.368   2.609   0.604
  619SOL     OW 1868   2.290   2.286   0.520
  619SOL    HW1 1869   2.320   2.214   0.458
  619SOL    HW2 1870   2.251   2.246   0.603
  620SOL     OW 1871   2.179   2.409   1.280
  620SOL    HW1 1872   2.217   2.350   1.352
  620SOL    HW2 1873   2.219   2.383   1.192
  621SOL     OW 1874   2.092   2.490   1.975
  621SOL    HW1 1875   1.999   2.488   2.012
  621SOL    HW2 1876   2.093   2.451   1.883
  622SOL     OW 1877   2.087   2.137   2.858
  622SOL    HW1 1878   2.122   2.120   2.950
  622SOL    HW2 1879   1.999   2.092   2.846
  623SOL     OW 1880   1.881   2.230   2.509
  623SOL    HW1 1881   1.799   2.273   2.548
  623SOL    HW2 1882   1.853   2.157   2.446
  624SOL     OW 1883   2.547   2.874   2.527
  624SOL    HW1 1884   2.616   2.858   2.597
  624SOL    HW2 1885   2.474   2.931   2.565
  625SOL     OW 1886   1.984   2.505   2.425
  625SOL    HW1 1887   1.939   2.417   2.442
  625SOL    HW2 1888   1.983   2.559   2.509
  626SOL     OW 1889   2.671   1.866   2.364
  626SOL    HW1 1890   2.711   1.957   2.355
  626SOL    HW2 1891   2.571   1.874   2.370
  627SOL     OW 1892   2.460   2.591   2.132
  627SOL    HW1 1893   2.484   2.660   2.064
  627SOL    HW2 1894   2.382   2.624   2.186
  628SOL     OW 1895   2.244   2.562   2.342
  628SOL    HW1 1896   2.289   2.472   2.339
  628SOL    HW2 1897   2.150   2.551   2.375
  629SOL     OW 1898   2.476   1.984   1.979
  629SOL    HW1 1899   2.574   1.962   1.986
  629SOL    HW2 1900   2.445   1.967   1.886
  630SOL     OW 1901   2.401   1.926   2.374
  630SOL    HW1 1902   2.320   1.927   2.432
  630SOL    HW2 1903   2.404   2.009   2.319
  631SOL     OW 1904   2.159   1.897   2.033
  631SOL    HW1 1905   2.208   1.981   2.012
  631SOL    HW2 1906   2.221   1.832   2.078
  632SOL     OW 1907   2.389   2.118   2.190
  632SOL    HW1 1908   2.416   2.059   2.115
  632SOL    HW2 1909   2.389   2.213   2.159
  633SOL     OW 1910   2.169   1.925   2.480
  633SOL    HW1 1911   2.158   2.019   2.513
  633SOL    HW2 1912   2.164   1.862   2.557
  634SOL     OW 1913   2.677   2.434   2.187
  634SOL    HW1 1914   2.684   2.345   2.141
  634SOL    HW2 1915   2.583   2.468   2.179
  635SOL     OW 1916   2.335   2.362   2.053
  635SOL    HW1 1917   2.396   2.442   2.057
  635SOL    HW2 1918   2.240   2.393   2.060
  636SOL     OW 1919   2.125   2.188   2.582
  636SOL    HW1 1920   2.046   2.239   2.548
  636SOL    HW2 1921   2.116   2.173   2.680
  637SOL     OW 1922   1.937   2.207   1.895
  637SOL    HW1 1923   1.845   2.179   1.866
  637SOL    HW2 1924   1.968   2.284   1.839
  638SOL     OW 1925   1.934   2.028   2.180
  638SOL    HW1 1926   1.917   2.111   2.126
  638SOL    HW2 1927   2.024   1.991   2.158
  639SOL     OW 1928   2.456   2.607   2.514
  639SOL    HW1 1929   2.506   2.692   2.495
  639SOL    HW2 1930   2.368   2.609   2.466
  640SOL     OW 1931   2.290   2.286   2.382
  640SOL    HW1 1932   2.320   2.214   2.320
  640SOL    HW2 1933   2.251   2.246   2.465
   2.70010   2.70010   2.70010
