; mobley_9571888_GMX.itp created by acpype (v: 2023.10.27) on Thu May 14 13:46:31 2026

[ atomtypes ]
;name   bond_type     mass     charge   ptype   sigma         epsilon       Amb
 c2       c2          0.00000  0.00000   A     3.31521e-01   4.13379e-01 ; 1.86  0.0988
 c3       c3          0.00000  0.00000   A     3.39771e-01   4.51035e-01 ; 1.91  0.1078
 c5       c5          0.00000  0.00000   A     3.39771e-01   4.51035e-01 ; 1.91  0.1078
 o        o           0.00000  0.00000   A     3.04812e-01   6.12119e-01 ; 1.71  0.1463
 os       os          0.00000  0.00000   A     3.15610e-01   3.03758e-01 ; 1.77  0.0726
 s4       s4          0.00000  0.00000   A     3.53241e-01   1.18156e+00 ; 1.98  0.2824
 cl       cl          0.00000  0.00000   A     3.46595e-01   1.10374e+00 ; 1.95  0.2638
 h1       h1          0.00000  0.00000   A     2.42200e-01   8.70272e-02 ; 1.36  0.0208
 hc       hc          0.00000  0.00000   A     2.60018e-01   8.70272e-02 ; 1.46  0.0208

[ moleculetype ]
;name            nrexcl
 mobley_9571888   3

[ atoms ]
;   nr  type  resi  res  atom  cgnr     charge      mass       ; qtot   bond_type
     1   c2     1   MOL    C1    1    -0.041800     12.01000 ; qtot -0.042
     2   c2     1   MOL    C2    2    -0.041800     12.01000 ; qtot -0.084
     3   c3     1   MOL    C3    3     0.161400     12.01000 ; qtot 0.078
     4   c3     1   MOL    C4    4     0.161400     12.01000 ; qtot 0.239
     5   c5     1   MOL    C5    5    -0.097700     12.01000 ; qtot 0.142
     6   c5     1   MOL    C6    6    -0.097700     12.01000 ; qtot 0.044
     7   c5     1   MOL    C7    7     0.077600     12.01000 ; qtot 0.121
     8   c5     1   MOL    C8    8     0.077600     12.01000 ; qtot 0.199
     9   c5     1   MOL    C9    9     0.134800     12.01000 ; qtot 0.334
    10    o     1   MOL    O1   10    -0.438200     16.00000 ; qtot -0.104
    11   os     1   MOL    O2   11    -0.400600     16.00000 ; qtot -0.505
    12   os     1   MOL    O3   12    -0.400600     16.00000 ; qtot -0.906
    13   s4     1   MOL    S1   13     0.793800     32.06000 ; qtot -0.112
    14   cl     1   MOL   CL1   14    -0.007400     35.45000 ; qtot -0.119
    15   cl     1   MOL   CL2   15    -0.007400     35.45000 ; qtot -0.127
    16   cl     1   MOL   CL3   16    -0.070400     35.45000 ; qtot -0.197
    17   cl     1   MOL   CL4   17    -0.070400     35.45000 ; qtot -0.267
    18   cl     1   MOL   CL5   18    -0.085400     35.45000 ; qtot -0.353
    19   cl     1   MOL   CL6   19    -0.085400     35.45000 ; qtot -0.438
    20   h1     1   MOL    H1   20     0.053200      1.00800 ; qtot -0.385
    21   h1     1   MOL    H2   21     0.053200      1.00800 ; qtot -0.332
    22   h1     1   MOL    H3   22     0.053200      1.00800 ; qtot -0.279
    23   h1     1   MOL    H4   23     0.053200      1.00800 ; qtot -0.225
    24   hc     1   MOL    H5   24     0.112700      1.00800 ; qtot -0.113
    25   hc     1   MOL    H6   25     0.112700      1.00800 ; qtot 0.000

[ bonds ]
;   ai     aj funct   r             k
     1      2   1    1.3379e-01    3.6484e+05 ;     C1 - C2    
     1      7   1    1.5154e-01    2.0366e+05 ;     C1 - C7    
     1     14   1    1.7415e-01    1.6405e+05 ;     C1 - CL1   
     2      8   1    1.5154e-01    2.0366e+05 ;     C2 - C8    
     2     15   1    1.7415e-01    1.6405e+05 ;     C2 - CL2   
     3      5   1    1.5372e-01    1.9049e+05 ;     C3 - C5    
     3     11   1    1.4273e-01    2.3620e+05 ;     C3 - O2    
     3     20   1    1.0969e-01    2.8804e+05 ;     C3 - H1    
     3     21   1    1.0969e-01    2.8804e+05 ;     C3 - H2    
     4      6   1    1.5372e-01    1.9049e+05 ;     C4 - C6    
     4     12   1    1.4273e-01    2.3620e+05 ;     C4 - O3    
     4     22   1    1.0969e-01    2.8804e+05 ;     C4 - H3    
     4     23   1    1.0969e-01    2.8804e+05 ;     C4 - H4    
     5      6   1    1.5483e-01    1.8418e+05 ;     C5 - C6    
     5      7   1    1.5483e-01    1.8418e+05 ;     C5 - C7    
     5     24   1    1.0954e-01    2.8989e+05 ;     C5 - H5    
     6      8   1    1.5483e-01    1.8418e+05 ;     C6 - C8    
     6     25   1    1.0954e-01    2.8989e+05 ;     C6 - H6    
     7      9   1    1.5483e-01    1.8418e+05 ;     C7 - C9    
     7     16   1    1.8093e-01    1.3720e+05 ;     C7 - CL3   
     8      9   1    1.5483e-01    1.8418e+05 ;     C8 - C9    
     8     17   1    1.8093e-01    1.3720e+05 ;     C8 - CL4   
     9     18   1    1.8093e-01    1.3720e+05 ;     C9 - CL5   
     9     19   1    1.8093e-01    1.3720e+05 ;     C9 - CL6   
    10     13   1    1.5086e-01    4.4926e+05 ;     O1 - S1    
    11     13   1    1.6888e-01    2.6495e+05 ;     O2 - S1    
    12     13   1    1.6888e-01    2.6495e+05 ;     O3 - S1    

[ pairs ]
;   ai     aj    funct
     1      3      1 ;     C1 - C3    
     1      6      1 ;     C1 - C6    
     1     17      1 ;     C1 - CL4   
     1     18      1 ;     C1 - CL5   
     1     19      1 ;     C1 - CL6   
     1     24      1 ;     C1 - H5    
     2      4      1 ;     C2 - C4    
     2      5      1 ;     C2 - C5    
     2     16      1 ;     C2 - CL3   
     2     18      1 ;     C2 - CL5   
     2     19      1 ;     C2 - CL6   
     2     25      1 ;     C2 - H6    
     3      4      1 ;     C3 - C4    
     3      8      1 ;     C3 - C8    
     3      9      1 ;     C3 - C9    
     3     10      1 ;     C3 - O1    
     3     12      1 ;     C3 - O3    
     3     16      1 ;     C3 - CL3   
     3     25      1 ;     C3 - H6    
     4      7      1 ;     C4 - C7    
     4      9      1 ;     C4 - C9    
     4     10      1 ;     C4 - O1    
     4     11      1 ;     C4 - O2    
     4     17      1 ;     C4 - CL4   
     4     24      1 ;     C4 - H5    
     5     12      1 ;     C5 - O3    
     5     13      1 ;     C5 - S1    
     5     17      1 ;     C5 - CL4   
     5     18      1 ;     C5 - CL5   
     5     19      1 ;     C5 - CL6   
     5     22      1 ;     C5 - H3    
     5     23      1 ;     C5 - H4    
     6     11      1 ;     C6 - O2    
     6     13      1 ;     C6 - S1    
     6     15      1 ;     C6 - CL2   
     6     16      1 ;     C6 - CL3   
     6     18      1 ;     C6 - CL5   
     6     19      1 ;     C6 - CL6   
     6     20      1 ;     C6 - H1    
     6     21      1 ;     C6 - H2    
     7     11      1 ;     C7 - O2    
     7     15      1 ;     C7 - CL2   
     7     17      1 ;     C7 - CL4   
     7     20      1 ;     C7 - H1    
     7     21      1 ;     C7 - H2    
     7     25      1 ;     C7 - H6    
     8     12      1 ;     C8 - O3    
     8     16      1 ;     C8 - CL3   
     8     22      1 ;     C8 - H3    
     8     23      1 ;     C8 - H4    
     8     24      1 ;     C8 - H5    
     9     15      1 ;     C9 - CL2   
     9     24      1 ;     C9 - H5    
     9     25      1 ;     C9 - H6    
    11     24      1 ;     O2 - H5    
    12     25      1 ;     O3 - H6    
    13     20      1 ;     S1 - H1    
    13     21      1 ;     S1 - H2    
    13     22      1 ;     S1 - H3    
    13     23      1 ;     S1 - H4    
    14      5      1 ;    CL1 - C5    
    14      8      1 ;    CL1 - C8    
    14      9      1 ;    CL1 - C9    
    14     15      1 ;    CL1 - CL2   
    14     16      1 ;    CL1 - CL3   
    15     17      1 ;    CL2 - CL4   
    16     18      1 ;    CL3 - CL5   
    16     19      1 ;    CL3 - CL6   
    16     24      1 ;    CL3 - H5    
    17     18      1 ;    CL4 - CL5   
    17     19      1 ;    CL4 - CL6   
    17     25      1 ;    CL4 - H6    
    20     24      1 ;     H1 - H5    
    21     24      1 ;     H2 - H5    
    22     25      1 ;     H3 - H6    
    23     25      1 ;     H4 - H6    
    24     25      1 ;     H5 - H6    

[ angles ]
;   ai     aj     ak    funct   theta         cth
     1      2      8      1    1.1893e+02    5.2066e+02 ;     C1 - C2     - C8    
     1      2     15      1    1.2318e+02    5.3622e+02 ;     C1 - C2     - CL2   
     1      7      5      1    1.0794e+02    5.1287e+02 ;     C1 - C7     - C5    
     1      7      9      1    1.0794e+02    5.1287e+02 ;     C1 - C7     - C9    
     1      7     16      1    1.1366e+02    5.2677e+02 ;     C1 - C7     - CL3   
     2      1      7      1    1.1893e+02    5.2066e+02 ;     C2 - C1     - C7    
     2      1     14      1    1.2318e+02    5.3622e+02 ;     C2 - C1     - CL1   
     2      8      6      1    1.0794e+02    5.1287e+02 ;     C2 - C8     - C6    
     2      8      9      1    1.0794e+02    5.1287e+02 ;     C2 - C8     - C9    
     2      8     17      1    1.1366e+02    5.2677e+02 ;     C2 - C8     - CL4   
     3      5      6      1    1.1360e+02    4.9647e+02 ;     C3 - C5     - C6    
     3      5      7      1    1.1360e+02    4.9647e+02 ;     C3 - C5     - C7    
     3      5     24      1    1.0779e+02    3.6484e+02 ;     C3 - C5     - H5    
     3     11     13      1    1.1383e+02    7.7471e+02 ;     C3 - O2     - S1    
     4      6      5      1    1.1360e+02    4.9647e+02 ;     C4 - C6     - C5    
     4      6      8      1    1.1360e+02    4.9647e+02 ;     C4 - C6     - C8    
     4      6     25      1    1.0779e+02    3.6484e+02 ;     C4 - C6     - H6    
     4     12     13      1    1.1383e+02    7.7471e+02 ;     C4 - O3     - S1    
     5      3     11      1    1.0752e+02    6.4785e+02 ;     C5 - C3     - O2    
     5      3     20      1    1.0938e+02    3.6217e+02 ;     C5 - C3     - H1    
     5      3     21      1    1.0938e+02    3.6217e+02 ;     C5 - C3     - H2    
     5      6      8      1    1.0383e+02    5.1748e+02 ;     C5 - C6     - C8    
     5      6     25      1    1.1117e+02    3.5690e+02 ;     C5 - C6     - H6    
     5      7      9      1    1.0383e+02    5.1748e+02 ;     C5 - C7     - C9    
     5      7     16      1    1.1339e+02    5.2409e+02 ;     C5 - C7     - CL3   
     6      4     12      1    1.0752e+02    6.4785e+02 ;     C6 - C4     - O3    
     6      4     22      1    1.0938e+02    3.6217e+02 ;     C6 - C4     - H3    
     6      4     23      1    1.0938e+02    3.6217e+02 ;     C6 - C4     - H4    
     6      5      7      1    1.0383e+02    5.1748e+02 ;     C6 - C5     - C7    
     6      5     24      1    1.1117e+02    3.5690e+02 ;     C6 - C5     - H5    
     6      8      9      1    1.0383e+02    5.1748e+02 ;     C6 - C8     - C9    
     6      8     17      1    1.1339e+02    5.2409e+02 ;     C6 - C8     - CL4   
     7      1     14      1    1.2291e+02    5.2024e+02 ;     C7 - C1     - CL1   
     7      5     24      1    1.1117e+02    3.5690e+02 ;     C7 - C5     - H5    
     7      9      8      1    1.0383e+02    5.1748e+02 ;     C7 - C9     - C8    
     7      9     18      1    1.1339e+02    5.2409e+02 ;     C7 - C9     - CL5   
     7      9     19      1    1.1339e+02    5.2409e+02 ;     C7 - C9     - CL6   
     8      2     15      1    1.2291e+02    5.2024e+02 ;     C8 - C2     - CL2   
     8      6     25      1    1.1117e+02    3.5690e+02 ;     C8 - C6     - H6    
     8      9     18      1    1.1339e+02    5.2409e+02 ;     C8 - C9     - CL5   
     8      9     19      1    1.1339e+02    5.2409e+02 ;     C8 - C9     - CL6   
     9      7     16      1    1.1339e+02    5.2409e+02 ;     C9 - C7     - CL3   
     9      8     17      1    1.1339e+02    5.2409e+02 ;     C9 - C8     - CL4   
    10     13     11      1    1.0764e+02    1.2770e+03 ;     O1 - S1     - O2    
    10     13     12      1    1.0764e+02    1.2770e+03 ;     O1 - S1     - O3    
    11      3     20      1    1.1034e+02    4.7028e+02 ;     O2 - C3     - H1    
    11      3     21      1    1.1034e+02    4.7028e+02 ;     O2 - C3     - H2    
    11     13     12      1    9.4220e+01    1.3002e+03 ;     O2 - S1     - O3    
    12      4     22      1    1.1034e+02    4.7028e+02 ;     O3 - C4     - H3    
    12      4     23      1    1.1034e+02    4.7028e+02 ;     O3 - C4     - H4    
    18      9     19      1    1.0869e+02    5.8392e+02 ;    CL5 - C9     - CL6   
    20      3     21      1    1.0855e+02    2.9824e+02 ;     H1 - C3     - H2    
    22      4     23      1    1.0855e+02    2.9824e+02 ;     H3 - C4     - H4    

[ dihedrals ] ; propers
; for gromacs 4.5 or higher, using funct 9
;    i      j      k      l   func   phase     kd      pn
     1      2      8      6      9     0.00   0.00000   0 ;     C1-    C2-    C8-    C6
     1      2      8      9      9     0.00   0.00000   0 ;     C1-    C2-    C8-    C9
     1      2      8     17      9     0.00   0.00000   0 ;     C1-    C2-    C8-   CL4
     1      7      5      3      9     0.00   0.65084   3 ;     C1-    C7-    C5-    C3
     1      7      5      6      9     0.00   0.65084   3 ;     C1-    C7-    C5-    C6
     1      7      5     24      9     0.00   0.65084   3 ;     C1-    C7-    C5-    H5
     1      7      9      8      9     0.00   0.65084   3 ;     C1-    C7-    C9-    C8
     1      7      9     18      9     0.00   0.65084   3 ;     C1-    C7-    C9-   CL5
     1      7      9     19      9     0.00   0.65084   3 ;     C1-    C7-    C9-   CL6
     2      1      7      5      9     0.00   0.00000   0 ;     C2-    C1-    C7-    C5
     2      1      7      9      9     0.00   0.00000   0 ;     C2-    C1-    C7-    C9
     2      1      7     16      9     0.00   0.00000   0 ;     C2-    C1-    C7-   CL3
     2      8      6      4      9     0.00   0.65084   3 ;     C2-    C8-    C6-    C4
     2      8      6      5      9     0.00   0.65084   3 ;     C2-    C8-    C6-    C5
     2      8      6     25      9     0.00   0.65084   3 ;     C2-    C8-    C6-    H6
     2      8      9      7      9     0.00   0.65084   3 ;     C2-    C8-    C9-    C7
     2      8      9     18      9     0.00   0.65084   3 ;     C2-    C8-    C9-   CL5
     2      8      9     19      9     0.00   0.65084   3 ;     C2-    C8-    C9-   CL6
     3      5      6      4      9     0.00   2.17568   3 ;     C3-    C5-    C6-    C4
     3      5      6      8      9     0.00   2.17568   3 ;     C3-    C5-    C6-    C8
     3      5      6     25      9     0.00   0.54392   3 ;     C3-    C5-    C6-    H6
     3      5      7      9      9     0.00   2.17568   3 ;     C3-    C5-    C7-    C9
     3      5      7     16      9     0.00   0.65084   3 ;     C3-    C5-    C7-   CL3
     3     11     13     10      9     0.00   6.90360   3 ;     C3-    O2-    S1-    O1
     3     11     13     12      9     0.00   6.90360   3 ;     C3-    O2-    S1-    O3
     4      6      5      7      9     0.00   2.17568   3 ;     C4-    C6-    C5-    C7
     4      6      5     24      9     0.00   0.54392   3 ;     C4-    C6-    C5-    H5
     4      6      8      9      9     0.00   2.17568   3 ;     C4-    C6-    C8-    C9
     4      6      8     17      9     0.00   0.65084   3 ;     C4-    C6-    C8-   CL4
     4     12     13     10      9     0.00   6.90360   3 ;     C4-    O3-    S1-    O1
     4     12     13     11      9     0.00   6.90360   3 ;     C4-    O3-    S1-    O2
     5      3     11     13      9     0.00   1.60387   3 ;     C5-    C3-    O2-    S1
     5      6      4     12      9     0.00   0.65084   3 ;     C5-    C6-    C4-    O3
     5      6      4     22      9     0.00   0.65084   3 ;     C5-    C6-    C4-    H3
     5      6      4     23      9     0.00   0.65084   3 ;     C5-    C6-    C4-    H4
     5      6      8      9      9     0.00   2.17568   3 ;     C5-    C6-    C8-    C9
     5      6      8     17      9     0.00   0.65084   3 ;     C5-    C6-    C8-   CL4
     5      7      9      8      9     0.00   2.17568   3 ;     C5-    C7-    C9-    C8
     5      7      9     18      9     0.00   0.65084   3 ;     C5-    C7-    C9-   CL5
     5      7      9     19      9     0.00   0.65084   3 ;     C5-    C7-    C9-   CL6
     6      4     12     13      9     0.00   1.60387   3 ;     C6-    C4-    O3-    S1
     6      5      3     11      9     0.00   0.65084   3 ;     C6-    C5-    C3-    O2
     6      5      3     20      9     0.00   0.65084   3 ;     C6-    C5-    C3-    H1
     6      5      3     21      9     0.00   0.65084   3 ;     C6-    C5-    C3-    H2
     6      5      7      9      9     0.00   2.17568   3 ;     C6-    C5-    C7-    C9
     6      5      7     16      9     0.00   0.65084   3 ;     C6-    C5-    C7-   CL3
     6      8      2     15      9     0.00   0.00000   0 ;     C6-    C8-    C2-   CL2
     6      8      9      7      9     0.00   2.17568   3 ;     C6-    C8-    C9-    C7
     6      8      9     18      9     0.00   0.65084   3 ;     C6-    C8-    C9-   CL5
     6      8      9     19      9     0.00   0.65084   3 ;     C6-    C8-    C9-   CL6
     7      1      2      8      9     0.00   0.62760   1 ;     C7-    C1-    C2-    C8
     7      1      2      8      9   180.00   5.56472   3 ;     C7-    C1-    C2-    C8
     7      1      2      8      9   180.00  24.18352   2 ;     C7-    C1-    C2-    C8
     7      1      2     15      9   180.00  27.82360   2 ;     C7-    C1-    C2-   CL2
     7      5      3     11      9     0.00   0.65084   3 ;     C7-    C5-    C3-    O2
     7      5      3     20      9     0.00   0.65084   3 ;     C7-    C5-    C3-    H1
     7      5      3     21      9     0.00   0.65084   3 ;     C7-    C5-    C3-    H2
     7      5      6      8      9     0.00   2.17568   3 ;     C7-    C5-    C6-    C8
     7      5      6     25      9     0.00   0.54392   3 ;     C7-    C5-    C6-    H6
     7      9      8     17      9     0.00   0.65084   3 ;     C7-    C9-    C8-   CL4
     8      6      4     12      9     0.00   0.65084   3 ;     C8-    C6-    C4-    O3
     8      6      4     22      9     0.00   0.65084   3 ;     C8-    C6-    C4-    H3
     8      6      4     23      9     0.00   0.65084   3 ;     C8-    C6-    C4-    H4
     8      6      5     24      9     0.00   0.54392   3 ;     C8-    C6-    C5-    H5
     8      9      7     16      9     0.00   0.65084   3 ;     C8-    C9-    C7-   CL3
     9      7      5     24      9     0.00   0.54392   3 ;     C9-    C7-    C5-    H5
     9      8      2     15      9     0.00   0.00000   0 ;     C9-    C8-    C2-   CL2
     9      8      6     25      9     0.00   0.54392   3 ;     C9-    C8-    C6-    H6
    11      3      5     24      9     0.00   0.00000   0 ;     O2-    C3-    C5-    H5
    11      3      5     24      9     0.00   1.04600   1 ;     O2-    C3-    C5-    H5
    12      4      6     25      9     0.00   0.00000   0 ;     O3-    C4-    C6-    H6
    12      4      6     25      9     0.00   1.04600   1 ;     O3-    C4-    C6-    H6
    13     11      3     20      9     0.00   1.60387   3 ;     S1-    O2-    C3-    H1
    13     11      3     21      9     0.00   1.60387   3 ;     S1-    O2-    C3-    H2
    13     12      4     22      9     0.00   1.60387   3 ;     S1-    O3-    C4-    H3
    13     12      4     23      9     0.00   1.60387   3 ;     S1-    O3-    C4-    H4
    14      1      2      8      9   180.00  27.82360   2 ;    CL1-    C1-    C2-    C8
    14      1      2     15      9   180.00  27.82360   2 ;    CL1-    C1-    C2-   CL2
    14      1      7      5      9     0.00   0.00000   0 ;    CL1-    C1-    C7-    C5
    14      1      7      9      9     0.00   0.00000   0 ;    CL1-    C1-    C7-    C9
    14      1      7     16      9     0.00   0.00000   0 ;    CL1-    C1-    C7-   CL3
    15      2      8     17      9     0.00   0.00000   0 ;    CL2-    C2-    C8-   CL4
    16      7      5     24      9     0.00   0.75312   3 ;    CL3-    C7-    C5-    H5
    16      7      9     18      9     0.00   5.94128   3 ;    CL3-    C7-    C9-   CL5
    16      7      9     19      9     0.00   5.94128   3 ;    CL3-    C7-    C9-   CL6
    17      8      6     25      9     0.00   0.75312   3 ;    CL4-    C8-    C6-    H6
    17      8      9     18      9     0.00   5.94128   3 ;    CL4-    C8-    C9-   CL5
    17      8      9     19      9     0.00   5.94128   3 ;    CL4-    C8-    C9-   CL6
    20      3      5     24      9     0.00   0.65084   3 ;     H1-    C3-    C5-    H5
    21      3      5     24      9     0.00   0.65084   3 ;     H2-    C3-    C5-    H5
    22      4      6     25      9     0.00   0.65084   3 ;     H3-    C4-    C6-    H6
    23      4      6     25      9     0.00   0.65084   3 ;     H4-    C4-    C6-    H6
    24      5      6     25      9     0.00   0.50208   3 ;     H5-    C5-    C6-    H6

[ dihedrals ] ; impropers
; treated as propers in GROMACS to use correct AMBER analytical function
;    i      j      k      l   func   phase     kd      pn
     1      8      2     15      4   180.00   4.60240   2 ;     C1-    C8-    C2-   CL2
    14      1      7      2      4   180.00   4.60240   2 ;    CL1-    C1-    C7-    C2
