; mobley_5346580_GMX.itp created by acpype (v: 2023.10.27) on Thu May 14 13:50:20 2026

[ atomtypes ]
;name   bond_type     mass     charge   ptype   sigma         epsilon       Amb
 c        c           0.00000  0.00000   A     3.31521e-01   4.13379e-01 ; 1.86  0.0988
 c3       c3          0.00000  0.00000   A     3.39771e-01   4.51035e-01 ; 1.91  0.1078
 o        o           0.00000  0.00000   A     3.04812e-01   6.12119e-01 ; 1.71  0.1463
 hc       hc          0.00000  0.00000   A     2.60018e-01   8.70272e-02 ; 1.46  0.0208

[ moleculetype ]
;name            nrexcl
 mobley_5346580   3

[ atoms ]
;   nr  type  resi  res  atom  cgnr     charge      mass       ; qtot   bond_type
     1    c     1   MOL    C1    1     0.572100     12.01000 ; qtot 0.572
     2   c3     1   MOL    C2    2    -0.200100     12.01000 ; qtot 0.372
     3   c3     1   MOL    C3    3    -0.084433     12.01000 ; qtot 0.288
     4   c3     1   MOL    C4    4    -0.084433     12.01000 ; qtot 0.203
     5   c3     1   MOL    C5    5    -0.084433     12.01000 ; qtot 0.119
     6   c3     1   MOL    C6    6    -0.152000     12.01000 ; qtot -0.033
     7    o     1   MOL    O1    7    -0.531100     16.00000 ; qtot -0.564
     8   hc     1   MOL    H1    8     0.063033      1.00800 ; qtot -0.501
     9   hc     1   MOL    H2    9     0.063033      1.00800 ; qtot -0.438
    10   hc     1   MOL    H3   10     0.063033      1.00800 ; qtot -0.375
    11   hc     1   MOL    H4   11     0.041700      1.00800 ; qtot -0.334
    12   hc     1   MOL    H5   12     0.041700      1.00800 ; qtot -0.292
    13   hc     1   MOL    H6   13     0.041700      1.00800 ; qtot -0.250
    14   hc     1   MOL    H7   14     0.041700      1.00800 ; qtot -0.209
    15   hc     1   MOL    H8   15     0.041700      1.00800 ; qtot -0.167
    16   hc     1   MOL    H9   16     0.041700      1.00800 ; qtot -0.125
    17   hc     1   MOL   H10   17     0.041700      1.00800 ; qtot -0.083
    18   hc     1   MOL   H11   18     0.041700      1.00800 ; qtot -0.042
    19   hc     1   MOL   H12   19     0.041700      1.00800 ; qtot 0.000

[ bonds ]
;   ai     aj funct   r             k
     1      2   1    1.5270e-01    1.9652e+05 ;     C1 - C2    
     1      6   1    1.5270e-01    1.9652e+05 ;     C1 - C6    
     1      7   1    1.2190e-01    4.9421e+05 ;     C1 - O1    
     2      8   1    1.0962e-01    2.8891e+05 ;     C2 - H1    
     2      9   1    1.0962e-01    2.8891e+05 ;     C2 - H2    
     2     10   1    1.0962e-01    2.8891e+05 ;     C2 - H3    
     3      6   1    1.5354e-01    1.9154e+05 ;     C3 - C6    
     3     11   1    1.0962e-01    2.8891e+05 ;     C3 - H4    
     3     12   1    1.0962e-01    2.8891e+05 ;     C3 - H5    
     3     13   1    1.0962e-01    2.8891e+05 ;     C3 - H6    
     4      6   1    1.5354e-01    1.9154e+05 ;     C4 - C6    
     4     14   1    1.0962e-01    2.8891e+05 ;     C4 - H7    
     4     15   1    1.0962e-01    2.8891e+05 ;     C4 - H8    
     4     16   1    1.0962e-01    2.8891e+05 ;     C4 - H9    
     5      6   1    1.5354e-01    1.9154e+05 ;     C5 - C6    
     5     17   1    1.0962e-01    2.8891e+05 ;     C5 - H10   
     5     18   1    1.0962e-01    2.8891e+05 ;     C5 - H11   
     5     19   1    1.0962e-01    2.8891e+05 ;     C5 - H12   

[ pairs ]
;   ai     aj    funct
     1     11      1 ;     C1 - H4    
     1     12      1 ;     C1 - H5    
     1     13      1 ;     C1 - H6    
     1     14      1 ;     C1 - H7    
     1     15      1 ;     C1 - H8    
     1     16      1 ;     C1 - H9    
     1     17      1 ;     C1 - H10   
     1     18      1 ;     C1 - H11   
     1     19      1 ;     C1 - H12   
     2      3      1 ;     C2 - C3    
     2      4      1 ;     C2 - C4    
     2      5      1 ;     C2 - C5    
     3     14      1 ;     C3 - H7    
     3     15      1 ;     C3 - H8    
     3     16      1 ;     C3 - H9    
     3     17      1 ;     C3 - H10   
     3     18      1 ;     C3 - H11   
     3     19      1 ;     C3 - H12   
     4     11      1 ;     C4 - H4    
     4     12      1 ;     C4 - H5    
     4     13      1 ;     C4 - H6    
     4     17      1 ;     C4 - H10   
     4     18      1 ;     C4 - H11   
     4     19      1 ;     C4 - H12   
     5     11      1 ;     C5 - H4    
     5     12      1 ;     C5 - H5    
     5     13      1 ;     C5 - H6    
     5     14      1 ;     C5 - H7    
     5     15      1 ;     C5 - H8    
     5     16      1 ;     C5 - H9    
     6      8      1 ;     C6 - H1    
     6      9      1 ;     C6 - H2    
     6     10      1 ;     C6 - H3    
     7      3      1 ;     O1 - C3    
     7      4      1 ;     O1 - C4    
     7      5      1 ;     O1 - C5    
     7      8      1 ;     O1 - H1    
     7      9      1 ;     O1 - H2    
     7     10      1 ;     O1 - H3    

[ angles ]
;   ai     aj     ak    funct   theta         cth
     1      2      8      1    1.0895e+02    3.6510e+02 ;     C1 - C2     - H1    
     1      2      9      1    1.0895e+02    3.6510e+02 ;     C1 - C2     - H2    
     1      2     10      1    1.0895e+02    3.6510e+02 ;     C1 - C2     - H3    
     1      6      3      1    1.1143e+02    5.0509e+02 ;     C1 - C6     - C3    
     1      6      4      1    1.1143e+02    5.0509e+02 ;     C1 - C6     - C4    
     1      6      5      1    1.1143e+02    5.0509e+02 ;     C1 - C6     - C5    
     2      1      6      1    1.1668e+02    4.9497e+02 ;     C2 - C1     - C6    
     2      1      7      1    1.2290e+02    6.3973e+02 ;     C2 - C1     - O1    
     3      6      4      1    1.1263e+02    5.0099e+02 ;     C3 - C6     - C4    
     3      6      5      1    1.1263e+02    5.0099e+02 ;     C3 - C6     - C5    
     4      6      5      1    1.1263e+02    5.0099e+02 ;     C4 - C6     - C5    
     6      1      7      1    1.2290e+02    6.3973e+02 ;     C6 - C1     - O1    
     6      3     11      1    1.0968e+02    3.6208e+02 ;     C6 - C3     - H4    
     6      3     12      1    1.0968e+02    3.6208e+02 ;     C6 - C3     - H5    
     6      3     13      1    1.0968e+02    3.6208e+02 ;     C6 - C3     - H6    
     6      4     14      1    1.0968e+02    3.6208e+02 ;     C6 - C4     - H7    
     6      4     15      1    1.0968e+02    3.6208e+02 ;     C6 - C4     - H8    
     6      4     16      1    1.0968e+02    3.6208e+02 ;     C6 - C4     - H9    
     6      5     17      1    1.0968e+02    3.6208e+02 ;     C6 - C5     - H10   
     6      5     18      1    1.0968e+02    3.6208e+02 ;     C6 - C5     - H11   
     6      5     19      1    1.0968e+02    3.6208e+02 ;     C6 - C5     - H12   
     8      2      9      1    1.0773e+02    2.9957e+02 ;     H1 - C2     - H2    
     8      2     10      1    1.0773e+02    2.9957e+02 ;     H1 - C2     - H3    
     9      2     10      1    1.0773e+02    2.9957e+02 ;     H2 - C2     - H3    
    11      3     12      1    1.0773e+02    2.9957e+02 ;     H4 - C3     - H5    
    11      3     13      1    1.0773e+02    2.9957e+02 ;     H4 - C3     - H6    
    12      3     13      1    1.0773e+02    2.9957e+02 ;     H5 - C3     - H6    
    14      4     15      1    1.0773e+02    2.9957e+02 ;     H7 - C4     - H8    
    14      4     16      1    1.0773e+02    2.9957e+02 ;     H7 - C4     - H9    
    15      4     16      1    1.0773e+02    2.9957e+02 ;     H8 - C4     - H9    
    17      5     18      1    1.0773e+02    2.9957e+02 ;    H10 - C5     - H11   
    17      5     19      1    1.0773e+02    2.9957e+02 ;    H10 - C5     - H12   
    18      5     19      1    1.0773e+02    2.9957e+02 ;    H11 - C5     - H12   

[ dihedrals ] ; propers
; for gromacs 4.5 or higher, using funct 9
;    i      j      k      l   func   phase     kd      pn
     1      6      3     11      9     0.00   0.65084   3 ;     C1-    C6-    C3-    H4
     1      6      3     12      9     0.00   0.65084   3 ;     C1-    C6-    C3-    H5
     1      6      3     13      9     0.00   0.65084   3 ;     C1-    C6-    C3-    H6
     1      6      4     14      9     0.00   0.65084   3 ;     C1-    C6-    C4-    H7
     1      6      4     15      9     0.00   0.65084   3 ;     C1-    C6-    C4-    H8
     1      6      4     16      9     0.00   0.65084   3 ;     C1-    C6-    C4-    H9
     1      6      5     17      9     0.00   0.65084   3 ;     C1-    C6-    C5-   H10
     1      6      5     18      9     0.00   0.65084   3 ;     C1-    C6-    C5-   H11
     1      6      5     19      9     0.00   0.65084   3 ;     C1-    C6-    C5-   H12
     2      1      6      3      9   180.00   1.09621   2 ;     C2-    C1-    C6-    C3
     2      1      6      4      9   180.00   1.09621   2 ;     C2-    C1-    C6-    C4
     2      1      6      5      9   180.00   1.09621   2 ;     C2-    C1-    C6-    C5
     3      6      4     14      9     0.00   0.54392   3 ;     C3-    C6-    C4-    H7
     3      6      4     15      9     0.00   0.54392   3 ;     C3-    C6-    C4-    H8
     3      6      4     16      9     0.00   0.54392   3 ;     C3-    C6-    C4-    H9
     3      6      5     17      9     0.00   0.54392   3 ;     C3-    C6-    C5-   H10
     3      6      5     18      9     0.00   0.54392   3 ;     C3-    C6-    C5-   H11
     3      6      5     19      9     0.00   0.54392   3 ;     C3-    C6-    C5-   H12
     4      6      3     11      9     0.00   0.54392   3 ;     C4-    C6-    C3-    H4
     4      6      3     12      9     0.00   0.54392   3 ;     C4-    C6-    C3-    H5
     4      6      3     13      9     0.00   0.54392   3 ;     C4-    C6-    C3-    H6
     4      6      5     17      9     0.00   0.54392   3 ;     C4-    C6-    C5-   H10
     4      6      5     18      9     0.00   0.54392   3 ;     C4-    C6-    C5-   H11
     4      6      5     19      9     0.00   0.54392   3 ;     C4-    C6-    C5-   H12
     5      6      3     11      9     0.00   0.54392   3 ;     C5-    C6-    C3-    H4
     5      6      3     12      9     0.00   0.54392   3 ;     C5-    C6-    C3-    H5
     5      6      3     13      9     0.00   0.54392   3 ;     C5-    C6-    C3-    H6
     5      6      4     14      9     0.00   0.54392   3 ;     C5-    C6-    C4-    H7
     5      6      4     15      9     0.00   0.54392   3 ;     C5-    C6-    C4-    H8
     5      6      4     16      9     0.00   0.54392   3 ;     C5-    C6-    C4-    H9
     6      1      2      8      9   180.00   0.00000   3 ;     C6-    C1-    C2-    H1
     6      1      2      9      9   180.00   0.00000   3 ;     C6-    C1-    C2-    H2
     6      1      2     10      9   180.00   0.00000   3 ;     C6-    C1-    C2-    H3
     7      1      2      8      9     0.00  16.86152   1 ;     O1-    C1-    C2-    H1
     7      1      2      8      9   180.00  15.31344   2 ;     O1-    C1-    C2-    H1
     7      1      2      9      9     0.00  16.86152   1 ;     O1-    C1-    C2-    H2
     7      1      2      9      9   180.00  15.31344   2 ;     O1-    C1-    C2-    H2
     7      1      2     10      9     0.00  16.86152   1 ;     O1-    C1-    C2-    H3
     7      1      2     10      9   180.00  15.31344   2 ;     O1-    C1-    C2-    H3
     7      1      6      3      9     0.00   2.84512   1 ;     O1-    C1-    C6-    C3
     7      1      6      3      9   180.00   0.83680   2 ;     O1-    C1-    C6-    C3
     7      1      6      3      9   180.00   1.84096   3 ;     O1-    C1-    C6-    C3
     7      1      6      4      9     0.00   2.84512   1 ;     O1-    C1-    C6-    C4
     7      1      6      4      9   180.00   0.83680   2 ;     O1-    C1-    C6-    C4
     7      1      6      4      9   180.00   1.84096   3 ;     O1-    C1-    C6-    C4
     7      1      6      5      9     0.00   2.84512   1 ;     O1-    C1-    C6-    C5
     7      1      6      5      9   180.00   0.83680   2 ;     O1-    C1-    C6-    C5
     7      1      6      5      9   180.00   1.84096   3 ;     O1-    C1-    C6-    C5

[ dihedrals ] ; impropers
; treated as propers in GROMACS to use correct AMBER analytical function
;    i      j      k      l   func   phase     kd      pn
     7      1      6      2      4   180.00   4.60240   2 ;     O1-    C1-    C6-    C2
