; mobley_3083321_GMX.itp created by acpype (v: 2023.10.27) on Thu May 14 13:17:16 2026

[ atomtypes ]
;name   bond_type     mass     charge   ptype   sigma         epsilon       Amb
 c3       c3          0.00000  0.00000   A     3.39771e-01   4.51035e-01 ; 1.91  0.1078
 os       os          0.00000  0.00000   A     3.15610e-01   3.03758e-01 ; 1.77  0.0726
 h1       h1          0.00000  0.00000   A     2.42200e-01   8.70272e-02 ; 1.36  0.0208
 h2       h2          0.00000  0.00000   A     2.24382e-01   8.70272e-02 ; 1.26  0.0208

[ moleculetype ]
;name            nrexcl
 mobley_3083321   3

[ atoms ]
;   nr  type  resi  res  atom  cgnr     charge      mass       ; qtot   bond_type
     1   c3     1   MOL    C1    1     0.118700     12.01000 ; qtot 0.119
     2   c3     1   MOL    C2    2     0.118700     12.01000 ; qtot 0.237
     3   c3     1   MOL    C3    3     0.314200     12.01000 ; qtot 0.552
     4   os     1   MOL    O1    4    -0.450601     16.00000 ; qtot 0.101
     5   os     1   MOL    O2    5    -0.450601     16.00000 ; qtot -0.350
     6   h1     1   MOL    H1    6     0.037367      1.00800 ; qtot -0.312
     7   h1     1   MOL    H2    7     0.037367      1.00800 ; qtot -0.275
     8   h1     1   MOL    H3    8     0.037367      1.00800 ; qtot -0.238
     9   h1     1   MOL    H4    9     0.037367      1.00800 ; qtot -0.200
    10   h1     1   MOL    H5   10     0.037367      1.00800 ; qtot -0.163
    11   h1     1   MOL    H6   11     0.037367      1.00800 ; qtot -0.125
    12   h2     1   MOL    H7   12     0.062700      1.00800 ; qtot -0.063
    13   h2     1   MOL    H8   13     0.062700      1.00800 ; qtot -0.000

[ bonds ]
;   ai     aj funct   r             k
     1      4   1    1.4273e-01    2.3620e+05 ;     C1 - O1    
     1      6   1    1.0969e-01    2.8804e+05 ;     C1 - H1    
     1      7   1    1.0969e-01    2.8804e+05 ;     C1 - H2    
     1      8   1    1.0969e-01    2.8804e+05 ;     C1 - H3    
     2      5   1    1.4273e-01    2.3620e+05 ;     C2 - O2    
     2      9   1    1.0969e-01    2.8804e+05 ;     C2 - H4    
     2     10   1    1.0969e-01    2.8804e+05 ;     C2 - H5    
     2     11   1    1.0969e-01    2.8804e+05 ;     C2 - H6    
     3      4   1    1.4273e-01    2.3620e+05 ;     C3 - O1    
     3      5   1    1.4273e-01    2.3620e+05 ;     C3 - O2    
     3     12   1    1.0950e-01    2.9039e+05 ;     C3 - H7    
     3     13   1    1.0950e-01    2.9039e+05 ;     C3 - H8    

[ pairs ]
;   ai     aj    funct
     1      5      1 ;     C1 - O2    
     1     12      1 ;     C1 - H7    
     1     13      1 ;     C1 - H8    
     2      4      1 ;     C2 - O1    
     2     12      1 ;     C2 - H7    
     2     13      1 ;     C2 - H8    
     3      9      1 ;     C3 - H4    
     3     10      1 ;     C3 - H5    
     3     11      1 ;     C3 - H6    
     6      3      1 ;     H1 - C3    
     7      3      1 ;     H2 - C3    
     8      3      1 ;     H3 - C3    

[ angles ]
;   ai     aj     ak    funct   theta         cth
     1      4      3      1    1.1360e+02    7.3915e+02 ;     C1 - O1     - C3    
     2      5      3      1    1.1360e+02    7.3915e+02 ;     C2 - O2     - C3    
     4      1      6      1    1.1034e+02    4.7028e+02 ;     O1 - C1     - H1    
     4      1      7      1    1.1034e+02    4.7028e+02 ;     O1 - C1     - H2    
     4      1      8      1    1.1034e+02    4.7028e+02 ;     O1 - C1     - H3    
     4      3      5      1    1.0789e+02    8.2375e+02 ;     O1 - C3     - O2    
     4      3     12      1    1.1103e+02    4.6894e+02 ;     O1 - C3     - H7    
     4      3     13      1    1.1103e+02    4.6894e+02 ;     O1 - C3     - H8    
     5      2      9      1    1.1034e+02    4.7028e+02 ;     O2 - C2     - H4    
     5      2     10      1    1.1034e+02    4.7028e+02 ;     O2 - C2     - H5    
     5      2     11      1    1.1034e+02    4.7028e+02 ;     O2 - C2     - H6    
     5      3     12      1    1.1103e+02    4.6894e+02 ;     O2 - C3     - H7    
     5      3     13      1    1.1103e+02    4.6894e+02 ;     O2 - C3     - H8    
     6      1      7      1    1.0855e+02    2.9824e+02 ;     H1 - C1     - H2    
     6      1      8      1    1.0855e+02    2.9824e+02 ;     H1 - C1     - H3    
     7      1      8      1    1.0855e+02    2.9824e+02 ;     H2 - C1     - H3    
     9      2     10      1    1.0855e+02    2.9824e+02 ;     H4 - C2     - H5    
     9      2     11      1    1.0855e+02    2.9824e+02 ;     H4 - C2     - H6    
    10      2     11      1    1.0855e+02    2.9824e+02 ;     H5 - C2     - H6    
    12      3     13      1    1.0951e+02    2.9748e+02 ;     H7 - C3     - H8    

[ dihedrals ] ; propers
; for gromacs 4.5 or higher, using funct 9
;    i      j      k      l   func   phase     kd      pn
     1      4      3      5      9     0.00   3.55640   2 ;     C1-    O1-    C3-    O2
     1      4      3      5      9     0.00   3.55640   3 ;     C1-    O1-    C3-    O2
     1      4      3      5      9   180.00   1.92464   1 ;     C1-    O1-    C3-    O2
     1      4      3     12      9     0.00   1.60387   3 ;     C1-    O1-    C3-    H7
     1      4      3     13      9     0.00   1.60387   3 ;     C1-    O1-    C3-    H8
     2      5      3      4      9     0.00   3.55640   2 ;     C2-    O2-    C3-    O1
     2      5      3      4      9     0.00   3.55640   3 ;     C2-    O2-    C3-    O1
     2      5      3      4      9   180.00   1.92464   1 ;     C2-    O2-    C3-    O1
     2      5      3     12      9     0.00   1.60387   3 ;     C2-    O2-    C3-    H7
     2      5      3     13      9     0.00   1.60387   3 ;     C2-    O2-    C3-    H8
     3      5      2      9      9     0.00   1.41001   3 ;     C3-    O2-    C2-    H4
     3      5      2     10      9     0.00   1.41001   3 ;     C3-    O2-    C2-    H5
     3      5      2     11      9     0.00   1.41001   3 ;     C3-    O2-    C2-    H6
     6      1      4      3      9     0.00   1.41001   3 ;     H1-    C1-    O1-    C3
     7      1      4      3      9     0.00   1.41001   3 ;     H2-    C1-    O1-    C3
     8      1      4      3      9     0.00   1.41001   3 ;     H3-    C1-    O1-    C3
