mobley_2245668_GMX.gro created by acpype (v: 2023.10.27) on Thu May 14 13:25:29 2026
 1587
    1MOL     C1    1   1.200   1.125   1.302
    1MOL     C2    2   1.216   1.279   1.104
    1MOL     C3    3   1.300   1.356   1.328
    1MOL     C4    4   1.282   1.236   1.235
    1MOL     O1    5   1.369   1.316   1.445
    1MOL     H1    6   1.188   1.040   1.234
    1MOL     H2    7   1.100   1.161   1.329
    1MOL     H3    8   1.249   1.089   1.392
    1MOL     H4    9   1.205   1.194   1.036
    1MOL     H5   10   1.276   1.355   1.053
    1MOL     H6   11   1.116   1.321   1.122
    1MOL     H7   12   1.359   1.434   1.278
    1MOL     H8   13   1.203   1.398   1.357
    1MOL     H9   14   1.381   1.194   1.212
    1MOL    H10   15   1.441   1.380   1.458
    2SOL     OW   16   0.230   0.628   0.113
    2SOL    HW1   17   0.137   0.626   0.150
    2SOL    HW2   18   0.231   0.589   0.021
    3SOL     OW   19   0.225   0.275   0.996
    3SOL    HW1   20   0.260   0.258   1.088
    3SOL    HW2   21   0.137   0.230   0.984
    4SOL     OW   22   0.019   0.368   0.647
    4SOL    HW1   23  -0.063   0.411   0.686
    4SOL    HW2   24  -0.009   0.295   0.584
    5SOL     OW   25   0.569   1.275   1.165
    5SOL    HW1   26   0.476   1.268   1.128
    5SOL    HW2   27   0.580   1.364   1.209
    6SOL     OW   28   1.555   1.511   0.703
    6SOL    HW1   29   1.498   1.495   0.784
    6SOL    HW2   30   1.496   1.521   0.623
    7SOL     OW   31   1.135   0.703   0.717
    7SOL    HW1   32   1.192   0.781   0.692
    7SOL    HW2   33   1.075   0.729   0.793
    8SOL     OW   34   1.755   0.607   0.231
    8SOL    HW1   35   1.743   0.594   0.132
    8SOL    HW2   36   1.725   0.526   0.280
    9SOL     OW   37   0.768   1.144   1.023
    9SOL    HW1   38   0.690   1.161   1.083
    9SOL    HW2   39   0.802   1.231   0.987
   10SOL     OW   40   0.850   0.798   1.823
   10SOL    HW1   41   0.846   0.874   1.888
   10SOL    HW2   42   0.872   0.834   1.732
   11SOL     OW   43   0.685   1.012   0.665
   11SOL    HW1   44   0.754   0.996   0.735
   11SOL    HW2   45   0.612   1.069   0.703
   12SOL     OW   46   0.686   1.161   1.803
   12SOL    HW1   47   0.746   1.240   1.817
   12SOL    HW2   48   0.600   1.192   1.762
   13SOL     OW   49   0.335   1.435   1.061
   13SOL    HW1   50   0.257   1.404   1.008
   13SOL    HW2   51   0.393   1.493   1.004
   14SOL     OW   52   0.438   0.392   1.499
   14SOL    HW1   53   0.520   0.336   1.508
   14SOL    HW2   54   0.357   0.334   1.503
   15SOL     OW   55   1.603   0.447   0.737
   15SOL    HW1   56   1.529   0.493   0.687
   15SOL    HW2   57   1.654   0.515   0.790
   16SOL     OW   58   0.231   1.713   0.483
   16SOL    HW1   59   0.265   1.790   0.537
   16SOL    HW2   60   0.275   1.713   0.393
   17SOL     OW   61   1.127   1.341   1.690
   17SOL    HW1   62   1.174   1.341   1.778
   17SOL    HW2   63   1.079   1.254   1.679
   18SOL     OW   64   0.230   1.434   0.538
   18SOL    HW1   65   0.204   1.530   0.538
   18SOL    HW2   66   0.159   1.380   0.583
   19SOL     OW   67   0.240   1.091   0.886
   19SOL    HW1   68   0.254   1.007   0.938
   19SOL    HW2   69   0.185   1.155   0.941
   20SOL     OW   70   0.620   1.786   1.439
   20SOL    HW1   71   0.528   1.769   1.474
   20SOL    HW2   72   0.648   1.878   1.465
   21SOL     OW   73   0.606   0.964   0.123
   21SOL    HW1   74   0.613   1.048   0.069
   21SOL    HW2   75   0.652   0.977   0.211
   22SOL     OW   76   1.594   0.114   1.480
   22SOL    HW1   77   1.576   0.181   1.408
   22SOL    HW2   78   1.591   0.160   1.569
   23SOL     OW   79   0.122   0.643   0.563
   23SOL    HW1   80   0.077   0.555   0.580
   23SOL    HW2   81   0.121   0.697   0.647
   24SOL     OW   82   1.842   1.767   0.359
   24SOL    HW1   83   1.896   1.738   0.439
   24SOL    HW2   84   1.872   1.857   0.330
   25SOL     OW   85   0.027   1.596   0.117
   25SOL    HW1   86   0.008   1.500   0.138
   25SOL    HW2   87  -0.006   1.654   0.192
   26SOL     OW   88   1.689   0.922   0.612
   26SOL    HW1   89   1.784   0.893   0.620
   26SOL    HW2   90   1.681   0.987   0.537
   27SOL     OW   91   1.641   1.108   0.432
   27SOL    HW1   92   1.727   1.110   0.380
   27SOL    HW2   93   1.655   1.155   0.520
   28SOL     OW   94   0.113   0.737   1.597
   28SOL    HW1   95   0.201   0.724   1.642
   28SOL    HW2   96   0.100   0.834   1.575
   29SOL     OW   97   0.613   1.365   0.726
   29SOL    HW1   98   0.564   1.278   0.735
   29SOL    HW2   99   0.590   1.408   0.639
   30SOL     OW  100   0.809   0.004   0.502
   30SOL    HW1  101   0.849   0.095   0.493
   30SOL    HW2  102   0.709   0.012   0.508
   31SOL     OW  103   0.197   0.976   1.264
   31SOL    HW1  104   0.286   0.931   1.250
   31SOL    HW2  105   0.124   0.911   1.245
   32SOL     OW  106   1.525   0.999   0.190
   32SOL    HW1  107   1.462   0.923   0.203
   32SOL    HW2  108   1.573   1.017   0.276
   33SOL     OW  109   1.187   1.792   1.616
   33SOL    HW1  110   1.211   1.852   1.540
   33SOL    HW2  111   1.194   1.697   1.586
   34SOL     OW  112   0.317   0.251   1.801
   34SOL    HW1  113   0.388   0.322   1.807
   34SOL    HW2  114   0.229   0.290   1.829
   35SOL     OW  115   1.466   1.417   0.953
   35SOL    HW1  116   1.407   1.423   1.033
   35SOL    HW2  117   1.451   1.329   0.907
   36SOL     OW  118   1.667   1.714   0.572
   36SOL    HW1  119   1.626   1.691   0.484
   36SOL    HW2  120   1.649   1.640   0.637
   37SOL     OW  121   0.598   0.729   0.270
   37SOL    HW1  122   0.622   0.798   0.202
   37SOL    HW2  123   0.520   0.762   0.324
   38SOL     OW  124   1.281   0.345   0.944
   38SOL    HW1  125   1.195   0.295   0.931
   38SOL    HW2  126   1.343   0.291   1.000
   39SOL     OW  127   1.576   1.662   0.307
   39SOL    HW1  128   1.665   1.708   0.310
   39SOL    HW2  129   1.555   1.638   0.212
   40SOL     OW  130   0.807   0.605   1.465
   40SOL    HW1  131   0.760   0.602   1.554
   40SOL    HW2  132   0.756   0.550   1.399
   41SOL     OW  133   1.394   0.469   1.674
   41SOL    HW1  134   1.374   0.512   1.762
   41SOL    HW2  135   1.472   0.407   1.683
   42SOL     OW  136   0.973   0.890   1.572
   42SOL    HW1  137   1.019   0.806   1.543
   42SOL    HW2  138   0.917   0.924   1.497
   43SOL     OW  139   0.991   0.410   1.242
   43SOL    HW1  140   0.914   0.444   1.296
   43SOL    HW2  141   0.957   0.359   1.163
   44SOL     OW  142   1.041   0.701   0.429
   44SOL    HW1  143   1.067   0.697   0.525
   44SOL    HW2  144   0.956   0.650   0.415
   45SOL     OW  145   0.076   0.811   0.789
   45SOL    HW1  146   0.175   0.799   0.798
   45SOL    HW2  147   0.052   0.906   0.810
   46SOL     OW  148   0.130   1.821   1.571
   46SOL    HW1  149   0.120   1.806   1.670
   46SOL    HW2  150   0.044   1.857   1.535
   47SOL     OW  151   0.865   0.348   0.195
   47SOL    HW1  152   0.924   0.411   0.146
   47SOL    HW2  153   0.884   0.254   0.166
   48SOL     OW  154   1.719   0.585   1.831
   48SOL    HW1  155   1.693   0.674   1.795
   48SOL    HW2  156   1.717   0.517   1.758
   49SOL     OW  157   1.362   1.144   0.545
   49SOL    HW1  158   1.445   1.115   0.497
   49SOL    HW2  159   1.313   1.211   0.489
   50SOL     OW  160   0.550   0.196   0.885
   50SOL    HW1  161   0.545   0.191   0.985
   50SOL    HW2  162   0.552   0.292   0.856
   51SOL     OW  163   1.008   1.456   0.477
   51SOL    HW1  164   0.962   1.528   0.425
   51SOL    HW2  165   1.004   1.476   0.575
   52SOL     OW  166   0.351   1.801   0.853
   52SOL    HW1  167   0.401   1.715   0.859
   52SOL    HW2  168   0.416   1.878   0.850
   53SOL     OW  169   1.795   1.066   0.873
   53SOL    HW1  170   1.733   1.051   0.797
   53SOL    HW2  171   1.743   1.077   0.958
   54SOL     OW  172   1.227   1.550   1.506
   54SOL    HW1  173   1.233   1.473   1.570
   54SOL    HW2  174   1.175   1.524   1.426
   55SOL     OW  175   0.321   0.943   0.242
   55SOL    HW1  176   0.403   0.982   0.200
   55SOL    HW2  177   0.294   0.861   0.193
   56SOL     OW  178   1.458   0.735   0.728
   56SOL    HW1  179   1.453   0.670   0.803
   56SOL    HW2  180   1.538   0.794   0.741
   57SOL     OW  181   0.461   1.266   1.727
   57SOL    HW1  182   0.411   1.267   1.641
   57SOL    HW2  183   0.398   1.248   1.803
   58SOL     OW  184   1.111   1.776   0.237
   58SOL    HW1  185   1.051   1.714   0.287
   58SOL    HW2  186   1.142   1.732   0.152
   59SOL     OW  187   0.202   0.285   1.498
   59SOL    HW1  188   0.122   0.345   1.485
   59SOL    HW2  189   0.192   0.236   1.584
   60SOL     OW  190   1.632   1.377   0.081
   60SOL    HW1  191   1.600   1.471   0.071
   60SOL    HW2  192   1.556   1.314   0.069
   61SOL     OW  193   0.464   1.743   0.323
   61SOL    HW1  194   0.497   1.782   0.409
   61SOL    HW2  195   0.540   1.736   0.258
   62SOL     OW  196   1.400   0.107   0.426
   62SOL    HW1  197   1.376   0.070   0.336
   62SOL    HW2  198   1.499   0.123   0.430
   63SOL     OW  199   0.249   1.785   1.241
   63SOL    HW1  200   0.306   1.720   1.291
   63SOL    HW2  201   0.233   1.752   1.148
   64SOL     OW  202   0.940   1.698   0.904
   64SOL    HW1  203   1.020   1.641   0.925
   64SOL    HW2  204   0.891   1.658   0.827
   65SOL     OW  205   0.382   0.700   0.480
   65SOL    HW1  206   0.427   0.610   0.477
   65SOL    HW2  207   0.288   0.689   0.513
   66SOL     OW  208   1.547   0.222   1.729
   66SOL    HW1  209   1.542   0.259   1.821
   66SOL    HW2  210   1.475   0.153   1.717
   67SOL     OW  211   0.614   0.122   0.117
   67SOL    HW1  212   0.712   0.100   0.124
   67SOL    HW2  213   0.583   0.105   0.024
   68SOL     OW  214   0.781   0.264   1.749
   68SOL    HW1  215   0.848   0.203   1.792
   68SOL    HW2  216   0.708   0.283   1.814
   69SOL     OW  217   0.888   1.514   1.195
   69SOL    HW1  218   0.865   1.489   1.101
   69SOL    HW2  219   0.949   1.445   1.234
   70SOL     OW  220   1.351   0.590   1.433
   70SOL    HW1  221   1.379   0.547   1.518
   70SOL    HW2  222   1.376   0.686   1.434
   71SOL     OW  223   0.803   1.402   0.924
   71SOL    HW1  224   0.893   1.416   0.882
   71SOL    HW2  225   0.732   1.404   0.853
   72SOL     OW  226   0.922   0.503   0.899
   72SOL    HW1  227   0.897   0.494   0.803
   72SOL    HW2  228   0.970   0.421   0.930
   73SOL     OW  229   0.539   0.064   0.512
   73SOL    HW1  230   0.458   0.065   0.570
   73SOL    HW2  231   0.542   0.147   0.457
   74SOL     OW  232   1.434   1.188   0.041
   74SOL    HW1  233   1.466   1.112   0.098
   74SOL    HW2  234   1.342   1.215   0.071
   75SOL     OW  235   0.297   0.035   0.171
   75SOL    HW1  236   0.346   0.119   0.150
   75SOL    HW2  237   0.359  -0.030   0.216
   76SOL     OW  238   0.935   0.236   0.480
   76SOL    HW1  239   0.887   0.277   0.402
   76SOL    HW2  240   1.034   0.234   0.461
   77SOL     OW  241   1.076   0.683   1.464
   77SOL    HW1  242   0.996   0.622   1.467
   77SOL    HW2  243   1.157   0.630   1.440
   78SOL     OW  244   1.227   1.570   0.793
   78SOL    HW1  245   1.248   1.644   0.728
   78SOL    HW2  246   1.295   1.570   0.866
   79SOL     OW  247   0.459   1.152   0.741
   79SOL    HW1  248   0.388   1.125   0.806
   79SOL    HW2  249   0.433   1.124   0.648
   80SOL     OW  250   1.271   1.797   0.591
   80SOL    HW1  251   1.315   1.861   0.527
   80SOL    HW2  252   1.221   1.849   0.661
   81SOL     OW  253   1.032   0.549   0.016
   81SOL    HW1  254   0.991   0.631  -0.023
   81SOL    HW2  255   1.096   0.575   0.089
   82SOL     OW  256   0.078   0.556   1.386
   82SOL    HW1  257   0.170   0.555   1.345
   82SOL    HW2  258   0.072   0.630   1.453
   83SOL     OW  259   0.561   0.222   1.147
   83SOL    HW1  260   0.599   0.138   1.184
   83SOL    HW2  261   0.473   0.241   1.191
   84SOL     OW  262   0.866   0.454   0.642
   84SOL    HW1  263   0.834   0.526   0.580
   84SOL    HW2  264   0.890   0.373   0.589
   85SOL     OW  265   1.017   0.039   0.753
   85SOL    HW1  266   0.945   0.044   0.684
   85SOL    HW2  267   0.993  -0.030   0.822
   86SOL     OW  268   1.429   1.173   0.867
   86SOL    HW1  269   1.374   1.089   0.860
   86SOL    HW2  270   1.455   1.202   0.775
   87SOL     OW  271   1.466   0.590   0.992
   87SOL    HW1  272   1.436   0.495   0.999
   87SOL    HW2  273   1.539   0.606   1.058
   88SOL     OW  274   1.857   0.833   0.377
   88SOL    HW1  275   1.899   0.769   0.441
   88SOL    HW2  276   1.819   0.782   0.299
   89SOL     OW  277   0.488   1.385   0.174
   89SOL    HW1  278   0.401   1.370   0.221
   89SOL    HW2  279   0.471   1.411   0.079
   90SOL     OW  280   1.664   1.280   0.657
   90SOL    HW1  281   1.763   1.288   0.671
   90SOL    HW2  282   1.619   1.364   0.688
   91SOL     OW  283   1.390   0.575   0.078
   91SOL    HW1  284   1.336   0.554   0.159
   91SOL    HW2  285   1.481   0.534   0.087
   92SOL     OW  286   0.527   0.256   0.328
   92SOL    HW1  287   0.554   0.197   0.253
   92SOL    HW2  288   0.527   0.351   0.297
   93SOL     OW  289   1.754   1.223   1.588
   93SOL    HW1  290   1.845   1.184   1.575
   93SOL    HW2  291   1.762   1.319   1.612
   94SOL     OW  292   1.592   1.629   1.625
   94SOL    HW1  293   1.619   1.663   1.535
   94SOL    HW2  294   1.671   1.591   1.671
   95SOL     OW  295   1.638   1.099   1.079
   95SOL    HW1  296   1.643   1.180   1.138
   95SOL    HW2  297   1.552   1.101   1.028
   96SOL     OW  298   0.915   0.089   1.402
   96SOL    HW1  299   0.940   0.069   1.307
   96SOL    HW2  300   0.987   0.145   1.444
   97SOL     OW  301   0.980   1.116   1.719
   97SOL    HW1  302   0.881   1.122   1.729
   97SOL    HW2  303   1.003   1.036   1.663
   98SOL     OW  304   0.705   1.050   0.368
   98SOL    HW1  305   0.691   1.057   0.467
   98SOL    HW2  306   0.789   0.999   0.350
   99SOL     OW  307   0.410   0.813   1.251
   99SOL    HW1  308   0.496   0.825   1.301
   99SOL    HW2  309   0.368   0.726   1.278
  100SOL     OW  310   1.274   0.386   1.262
  100SOL    HW1  311   1.295   0.460   1.326
  100SOL    HW2  312   1.185   0.403   1.219
  101SOL     OW  313   0.064   1.564   1.331
  101SOL    HW1  314   0.018   1.646   1.297
  101SOL    HW2  315   0.162   1.583   1.340
  102SOL     OW  316   0.367   1.100   0.501
  102SOL    HW1  317   0.360   1.183   0.445
  102SOL    HW2  318   0.371   1.020   0.441
  103SOL     OW  319   0.566   0.537   0.865
  103SOL    HW1  320   0.578   0.603   0.791
  103SOL    HW2  321   0.612   0.571   0.948
  104SOL     OW  322   1.252   1.348   0.388
  104SOL    HW1  323   1.302   1.425   0.428
  104SOL    HW2  324   1.157   1.350   0.420
  105SOL     OW  325   1.582   0.639   0.472
  105SOL    HW1  326   1.551   0.700   0.545
  105SOL    HW2  327   1.632   0.691   0.403
  106SOL     OW  328   0.354   1.510   1.329
  106SOL    HW1  329   0.333   1.466   1.242
  106SOL    HW2  330   0.451   1.536   1.332
  107SOL     OW  331   0.402   0.751   1.598
  107SOL    HW1  332   0.470   0.806   1.551
  107SOL    HW2  333   0.442   0.663   1.625
  108SOL     OW  334   1.587   0.779   1.670
  108SOL    HW1  335   1.495   0.817   1.665
  108SOL    HW2  336   1.647   0.826   1.605
  109SOL     OW  337   1.013   0.105   1.770
  109SOL    HW1  338   1.019   0.190   1.718
  109SOL    HW2  339   1.045   0.029   1.713
  110SOL     OW  340   0.504   0.050   1.740
  110SOL    HW1  341   0.462  -0.007   1.670
  110SOL    HW2  342   0.438   0.119   1.772
  111SOL     OW  343   0.573   0.870   1.029
  111SOL    HW1  344   0.617   0.959   1.020
  111SOL    HW2  345   0.510   0.870   1.106
  112SOL     OW  346   1.360   0.862   1.045
  112SOL    HW1  347   1.285   0.862   0.979
  112SOL    HW2  348   1.397   0.770   1.054
  113SOL     OW  349   1.209   0.525   0.275
  113SOL    HW1  350   1.222   0.441   0.329
  113SOL    HW2  351   1.180   0.599   0.335
  114SOL     OW  352   0.307   0.213   1.231
  114SOL    HW1  353   0.284   0.250   1.321
  114SOL    HW2  354   0.277   0.118   1.225
  115SOL     OW  355   0.037   1.310   1.282
  115SOL    HW1  356   0.090   1.261   1.350
  115SOL    HW2  357   0.059   1.408   1.287
  116SOL     OW  358   0.732   0.634   1.064
  116SOL    HW1  359   0.791   0.608   0.988
  116SOL    HW2  360   0.704   0.730   1.053
  117SOL     OW  361   1.728   0.935   1.854
  117SOL    HW1  362   1.682   0.928   1.765
  117SOL    HW2  363   1.666   0.979   1.920
  118SOL     OW  364   0.307   0.063   0.618
  118SOL    HW1  365   0.296   0.157   0.651
  118SOL    HW2  366   0.302   0.000   0.695
  119SOL     OW  367   1.622   0.367   0.374
  119SOL    HW1  368   1.624   0.291   0.438
  119SOL    HW2  369   1.574   0.444   0.414
  120SOL     OW  370   1.023   0.766   0.966
  120SOL    HW1  371   1.038   0.787   1.062
  120SOL    HW2  372   0.993   0.671   0.957
  121SOL     OW  373   0.980   1.573   1.700
  121SOL    HW1  374   0.960   1.617   1.612
  121SOL    HW2  375   1.019   1.482   1.684
  122SOL     OW  376   1.859   1.518   1.605
  122SOL    HW1  377   1.873   1.545   1.510
  122SOL    HW2  378   1.942   1.540   1.658
  123SOL     OW  379   0.350   0.898   1.804
  123SOL    HW1  380   0.426   0.942   1.852
  123SOL    HW2  381   0.385   0.851   1.722
  124SOL     OW  382   1.540   0.274   0.125
  124SOL    HW1  383   1.479   0.199   0.148
  124SOL    HW2  384   1.562   0.326   0.208
  125SOL     OW  385   1.303   0.838   0.042
  125SOL    HW1  386   1.337   0.745   0.057
  125SOL    HW2  387   1.321   0.865  -0.053
  126SOL     OW  388   1.068   1.333   0.849
  126SOL    HW1  389   1.075   1.249   0.794
  126SOL    HW2  390   1.130   1.402   0.813
  127SOL     OW  391   0.319   0.810   0.949
  127SOL    HW1  392   0.412   0.846   0.954
  127SOL    HW2  393   0.313   0.725   1.001
  128SOL     OW  394   0.339   0.509   1.006
  128SOL    HW1  395   0.287   0.426   0.989
  128SOL    HW2  396   0.416   0.514   0.942
  129SOL     OW  397   1.138   0.380   1.678
  129SOL    HW1  398   1.093   0.443   1.742
  129SOL    HW2  399   1.231   0.411   1.661
  130SOL     OW  400   1.160   0.207   1.477
  130SOL    HW1  401   1.160   0.271   1.554
  130SOL    HW2  402   1.188   0.255   1.394
  131SOL     OW  403   0.008   1.326   0.200
  131SOL    HW1  404  -0.085   1.347   0.169
  131SOL    HW2  405   0.018   1.227   0.213
  132SOL     OW  406   0.088   1.801   0.927
  132SOL    HW1  407   0.046   1.715   0.900
  132SOL    HW2  408   0.182   1.804   0.893
  133SOL     OW  409   0.504   1.568   0.910
  133SOL    HW1  410   0.570   1.642   0.919
  133SOL    HW2  411   0.548   1.489   0.868
  134SOL     OW  412   1.002   0.796   1.238
  134SOL    HW1  413   1.043   0.764   1.324
  134SOL    HW2  414   0.906   0.769   1.235
  135SOL     OW  415   0.040   0.544   1.114
  135SOL    HW1  416   0.125   0.511   1.073
  135SOL    HW2  417   0.053   0.559   1.212
  136SOL     OW  418   0.189   0.520   1.722
  136SOL    HW1  419   0.248   0.480   1.652
  136SOL    HW2  420   0.131   0.591   1.681
  137SOL     OW  421   1.369   0.950   1.660
  137SOL    HW1  422   1.408   1.039   1.680
  137SOL    HW2  423   1.379   0.930   1.563
  138SOL     OW  424   0.815   0.572   0.325
  138SOL    HW1  425   0.822   0.483   0.279
  138SOL    HW2  426   0.721   0.606   0.317
  139SOL     OW  427   1.657   0.604   1.206
  139SOL    HW1  428   1.619   0.535   1.268
  139SOL    HW2  429   1.739   0.568   1.162
  140SOL     OW  430   0.252   1.564   1.744
  140SOL    HW1  431   0.222   1.621   1.820
  140SOL    HW2  432   0.245   1.467   1.770
  141SOL     OW  433   0.671   0.464   1.269
  141SOL    HW1  434   0.637   0.375   1.239
  141SOL    HW2  435   0.697   0.518   1.189
  142SOL     OW  436   0.930   1.678   1.465
  142SOL    HW1  437   0.906   1.660   1.370
  142SOL    HW2  438   0.960   1.772   1.475
  143SOL     OW  439   0.473   0.500   0.191
  143SOL    HW1  440   0.534   0.580   0.195
  143SOL    HW2  441   0.378   0.531   0.198
  144SOL     OW  442   0.159   1.137   1.466
  144SOL    HW1  443   0.181   1.076   1.542
  144SOL    HW2  444   0.169   1.088   1.380
  145SOL     OW  445   1.302   0.855   0.309
  145SOL    HW1  446   1.216   0.824   0.351
  145SOL    HW2  447   1.298   0.841   0.210
  146SOL     OW  448   1.759   1.747   1.154
  146SOL    HW1  449   1.820   1.777   1.081
  146SOL    HW2  450   1.721   1.658   1.132
  147SOL     OW  451   1.252   1.731   1.128
  147SOL    HW1  452   1.336   1.736   1.074
  147SOL    HW2  453   1.229   1.635   1.146
  148SOL     OW  454   0.083   1.258   1.022
  148SOL    HW1  455   0.078   1.257   1.122
  148SOL    HW2  456   0.000   1.217   0.984
  149SOL     OW  457   0.688   1.662   1.716
  149SOL    HW1  458   0.632   1.743   1.725
  149SOL    HW2  459   0.740   1.666   1.630
  150SOL     OW  460   0.903   0.086   0.133
  150SOL    HW1  461   0.954   0.087   0.047
  150SOL    HW2  462   0.959   0.044   0.204
  151SOL     OW  463   1.726   0.135   0.523
  151SOL    HW1  464   1.799   0.118   0.456
  151SOL    HW2  465   1.695   0.048   0.561
  152SOL     OW  466   1.388   1.573   0.477
  152SOL    HW1  467   1.455   1.585   0.403
  152SOL    HW2  468   1.348   1.662   0.500
  153SOL     OW  469   0.130   1.794   1.851
  153SOL    HW1  470   0.089   1.720   1.904
  153SOL    HW2  471   0.194   1.845   1.909
  154SOL     OW  472   1.280   0.927   0.672
  154SOL    HW1  473   1.340   0.846   0.674
  154SOL    HW2  474   1.320   0.996   0.612
  155SOL     OW  475   0.830   1.273   1.422
  155SOL    HW1  476   0.825   1.306   1.517
  155SOL    HW2  477   0.744   1.292   1.376
  156SOL     OW  478   0.672   1.616   0.154
  156SOL    HW1  479   0.681   1.626   0.055
  156SOL    HW2  480   0.632   1.527   0.175
  157SOL     OW  481   1.650   1.720   1.394
  157SOL    HW1  482   1.703   1.730   1.310
  157SOL    HW2  483   1.623   1.810   1.428
  158SOL     OW  484   1.841   0.175   0.963
  158SOL    HW1  485   1.880   0.090   0.927
  158SOL    HW2  486   1.743   0.177   0.944
  159SOL     OW  487   0.263   0.326   0.720
  159SOL    HW1  488   0.184   0.377   0.686
  159SOL    HW2  489   0.254   0.311   0.818
  160SOL     OW  490   1.194   1.612   0.031
  160SOL    HW1  491   1.200   1.519   0.068
  160SOL    HW2  492   1.135   1.612  -0.049
  161SOL     OW  493   0.822   1.002   1.372
  161SOL    HW1  494   0.862   1.001   1.280
  161SOL    HW2  495   0.832   1.094   1.412
  162SOL     OW  496   0.916   0.910   0.291
  162SOL    HW1  497   0.979   0.948   0.223
  162SOL    HW2  498   0.956   0.827   0.330
  163SOL     OW  499   1.504   1.607   0.044
  163SOL    HW1  500   1.412   1.644   0.051
  163SOL    HW2  501   1.542   1.627  -0.046
  164SOL     OW  502   0.372   1.288   1.490
  164SOL    HW1  503   0.359   1.381   1.456
  164SOL    HW2  504   0.288   1.236   1.477
  165SOL     OW  505   1.614   1.292   1.289
  165SOL    HW1  506   1.674   1.295   1.369
  165SOL    HW2  507   1.539   1.356   1.302
  166SOL     OW  508   1.039   1.098   0.696
  166SOL    HW1  509   0.969   1.051   0.750
  166SOL    HW2  510   1.098   1.030   0.653
  167SOL     OW  511   1.014   0.236   0.971
  167SOL    HW1  512   1.006   0.200   0.878
  167SOL    HW2  513   1.012   0.160   1.036
  168SOL     OW  514   0.590   1.487   0.491
  168SOL    HW1  515   0.632   1.429   0.421
  168SOL    HW2  516   0.546   1.566   0.447
  169SOL     OW  517   1.709   0.385   1.381
  169SOL    HW1  518   1.782   0.454   1.385
  169SOL    HW2  519   1.737   0.310   1.322
  170SOL     OW  520   0.255   1.348   0.290
  170SOL    HW1  521   0.159   1.349   0.263
  170SOL    HW2  522   0.267   1.401   0.374
  171SOL     OW  523   0.105   1.013   1.726
  171SOL    HW1  524   0.028   0.980   1.780
  171SOL    HW2  525   0.190   0.983   1.768
  172SOL     OW  526   0.672   0.203   1.489
  172SOL    HW1  527   0.762   0.187   1.449
  172SOL    HW2  528   0.680   0.208   1.588
  173SOL     OW  529   0.075   0.345   0.033
  173SOL    HW1  530  -0.017   0.317   0.004
  173SOL    HW2  531   0.106   0.422  -0.023
  174SOL     OW  532   1.440   0.856   1.398
  174SOL    HW1  533   1.383   0.908   1.335
  174SOL    HW2  534   1.536   0.868   1.374
  175SOL     OW  535   0.072   0.166   0.318
  175SOL    HW1  536   0.055   0.249   0.264
  175SOL    HW2  537   0.162   0.129   0.296
  176SOL     OW  538   1.183   1.335   0.119
  176SOL    HW1  539   1.084   1.324   0.121
  176SOL    HW2  540   1.217   1.350   0.212
  177SOL     OW  541   0.613   0.842   1.431
  177SOL    HW1  542   0.669   0.923   1.414
  177SOL    HW2  543   0.672   0.762   1.434
  178SOL     OW  544   1.493   1.767   0.959
  178SOL    HW1  545   1.526   1.831   0.890
  178SOL    HW2  546   1.559   1.761   1.034
  179SOL     OW  547   0.716   0.565   1.708
  179SOL    HW1  548   0.735   0.630   1.782
  179SOL    HW2  549   0.776   0.485   1.717
  180SOL     OW  550   1.450   1.220   1.633
  180SOL    HW1  551   1.441   1.210   1.732
  180SOL    HW2  552   1.546   1.213   1.607
  181SOL     OW  553   0.390   1.741   1.560
  181SOL    HW1  554   0.299   1.782   1.558
  181SOL    HW2  555   0.383   1.647   1.592
  182SOL     OW  556   1.674   0.883   1.254
  182SOL    HW1  557   1.647   0.794   1.217
  182SOL    HW2  558   1.675   0.951   1.181
  183SOL     OW  559   1.225   0.325   0.449
  183SOL    HW1  560   1.290   0.251   0.438
  183SOL    HW2  561   1.245   0.375   0.533
  184SOL     OW  562   0.594   0.745   0.652
  184SOL    HW1  563   0.644   0.830   0.633
  184SOL    HW2  564   0.506   0.747   0.604
  185SOL     OW  565   1.777   0.342   1.642
  185SOL    HW1  566   1.760   0.373   1.548
  185SOL    HW2  567   1.693   0.305   1.680
  186SOL     OW  568   1.730   0.934   1.517
  186SOL    HW1  569   1.768   1.025   1.532
  186SOL    HW2  570   1.722   0.917   1.418
  187SOL     OW  571   0.859   1.374   0.016
  187SOL    HW1  572   0.813   1.389   0.104
  187SOL    HW2  573   0.903   1.459  -0.014
  188SOL     OW  574   0.661   1.790   0.953
  188SOL    HW1  575   0.615   1.878   0.940
  188SOL    HW2  576   0.760   1.802   0.946
  189SOL     OW  577   0.859   0.956   0.861
  189SOL    HW1  578   0.913   0.887   0.909
  189SOL    HW2  579   0.827   1.025   0.927
  190SOL     OW  580   1.083   0.984   0.087
  190SOL    HW1  581   1.060   1.037   0.005
  190SOL    HW2  582   1.164   0.928   0.068
  191SOL     OW  583   1.861   1.569   0.851
  191SOL    HW1  584   1.790   1.557   0.781
  191SOL    HW2  585   1.862   1.490   0.911
  192SOL     OW  586   0.221   1.314   1.844
  192SOL    HW1  587   0.156   1.241   1.823
  192SOL    HW2  588   0.225   1.328   1.942
  193SOL     OW  589   0.079   1.240   0.653
  193SOL    HW1  590   0.078   1.193   0.741
  193SOL    HW2  591   0.161   1.212   0.602
  194SOL     OW  592   0.672   1.391   1.624
  194SOL    HW1  593   0.594   1.341   1.662
  194SOL    HW2  594   0.669   1.486   1.655
  195SOL     OW  595   1.824   0.192   1.227
  195SOL    HW1  596   1.820   0.102   1.271
  195SOL    HW2  597   1.827   0.181   1.128
  196SOL     OW  598   0.428   0.424   0.520
  196SOL    HW1  599   0.458   0.352   0.458
  196SOL    HW2  600   0.389   0.384   0.603
  197SOL     OW  601   1.705   1.487   1.104
  197SOL    HW1  602   1.612   1.462   1.077
  197SOL    HW2  603   1.731   1.437   1.186
  198SOL     OW  604   0.317   0.547   1.280
  198SOL    HW1  605   0.355   0.488   1.352
  198SOL    HW2  606   0.357   0.521   1.192
  199SOL     OW  607   0.812   1.586   0.687
  199SOL    HW1  608   0.844   1.596   0.593
  199SOL    HW2  609   0.733   1.524   0.689
  200SOL     OW  610   1.424   0.214   1.112
  200SOL    HW1  611   1.476   0.149   1.167
  200SOL    HW2  612   1.375   0.277   1.173
  201SOL     OW  613   1.001   0.034   1.154
  201SOL    HW1  614   0.938  -0.038   1.123
  201SOL    HW2  615   1.094  -0.002   1.154
  202SOL     OW  616   0.770   1.330   0.301
  202SOL    HW1  617   0.724   1.243   0.318
  202SOL    HW2  618   0.861   1.327   0.342
  203SOL     OW  619   0.618   1.567   1.284
  203SOL    HW1  620   0.613   1.649   1.341
  203SOL    HW2  621   0.707   1.564   1.239
  204SOL     OW  622   1.352   0.052   0.168
  204SOL    HW1  623   1.387   0.011   0.084
  204SOL    HW2  624   1.262   0.014   0.188
  205SOL     OW  625   1.300   0.453   0.691
  205SOL    HW1  626   1.241   0.533   0.695
  205SOL    HW2  627   1.315   0.418   0.784
  206SOL     OW  628   1.593   0.221   0.882
  206SOL    HW1  629   1.509   0.220   0.936
  206SOL    HW2  630   1.595   0.304   0.826
  207SOL     OW  631   0.039   1.077   0.300
  207SOL    HW1  632   0.138   1.066   0.291
  207SOL    HW2  633  -0.001   0.991   0.332
  208SOL     OW  634   0.875   1.646   0.337
  208SOL    HW1  635   0.798   1.611   0.283
  208SOL    HW2  636   0.843   1.717   0.399
  209SOL     OW  637   0.230   0.628   1.975
  209SOL    HW1  638   0.137   0.626   2.012
  209SOL    HW2  639   0.231   0.589   1.883
  210SOL     OW  640   1.755   0.607   2.093
  210SOL    HW1  641   1.743   0.594   1.994
  210SOL    HW2  642   1.725   0.526   2.142
  211SOL     OW  643   0.231   1.713   2.345
  211SOL    HW1  644   0.265   1.790   2.399
  211SOL    HW2  645   0.275   1.713   2.255
  212SOL     OW  646   0.230   1.434   2.400
  212SOL    HW1  647   0.204   1.530   2.400
  212SOL    HW2  648   0.159   1.380   2.445
  213SOL     OW  649   0.606   0.964   1.985
  213SOL    HW1  650   0.613   1.048   1.931
  213SOL    HW2  651   0.652   0.977   2.073
  214SOL     OW  652   0.122   0.643   2.425
  214SOL    HW1  653   0.077   0.555   2.442
  214SOL    HW2  654   0.121   0.697   2.509
  215SOL     OW  655   1.842   1.767   2.221
  215SOL    HW1  656   1.896   1.738   2.301
  215SOL    HW2  657   1.872   1.857   2.192
  216SOL     OW  658   0.027   1.596   1.979
  216SOL    HW1  659   0.008   1.500   2.000
  216SOL    HW2  660  -0.006   1.654   2.054
  217SOL     OW  661   1.689   0.922   2.474
  217SOL    HW1  662   1.784   0.893   2.482
  217SOL    HW2  663   1.681   0.987   2.399
  218SOL     OW  664   1.641   1.108   2.294
  218SOL    HW1  665   1.727   1.110   2.242
  218SOL    HW2  666   1.655   1.155   2.382
  219SOL     OW  667   0.809   0.004   2.364
  219SOL    HW1  668   0.849   0.095   2.355
  219SOL    HW2  669   0.709   0.012   2.370
  220SOL     OW  670   1.525   0.999   2.052
  220SOL    HW1  671   1.462   0.923   2.065
  220SOL    HW2  672   1.573   1.017   2.138
  221SOL     OW  673   0.598   0.729   2.132
  221SOL    HW1  674   0.622   0.798   2.064
  221SOL    HW2  675   0.520   0.762   2.186
  222SOL     OW  676   1.576   1.662   2.169
  222SOL    HW1  677   1.665   1.708   2.172
  222SOL    HW2  678   1.555   1.638   2.074
  223SOL     OW  679   1.041   0.701   2.291
  223SOL    HW1  680   1.067   0.697   2.387
  223SOL    HW2  681   0.956   0.650   2.277
  224SOL     OW  682   0.076   0.811   2.651
  224SOL    HW1  683   0.175   0.799   2.660
  224SOL    HW2  684   0.052   0.906   2.672
  225SOL     OW  685   0.865   0.348   2.057
  225SOL    HW1  686   0.924   0.411   2.008
  225SOL    HW2  687   0.884   0.254   2.028
  226SOL     OW  688   1.362   1.144   2.407
  226SOL    HW1  689   1.445   1.115   2.359
  226SOL    HW2  690   1.313   1.211   2.351
  227SOL     OW  691   0.321   0.943   2.104
  227SOL    HW1  692   0.403   0.982   2.062
  227SOL    HW2  693   0.294   0.861   2.055
  228SOL     OW  694   1.111   1.776   2.099
  228SOL    HW1  695   1.051   1.714   2.149
  228SOL    HW2  696   1.142   1.732   2.014
  229SOL     OW  697   1.632   1.377   1.943
  229SOL    HW1  698   1.600   1.471   1.933
  229SOL    HW2  699   1.556   1.314   1.931
  230SOL     OW  700   0.464   1.743   2.185
  230SOL    HW1  701   0.497   1.782   2.271
  230SOL    HW2  702   0.540   1.736   2.120
  231SOL     OW  703   1.400   0.107   2.288
  231SOL    HW1  704   1.376   0.070   2.198
  231SOL    HW2  705   1.499   0.123   2.292
  232SOL     OW  706   0.382   0.700   2.342
  232SOL    HW1  707   0.427   0.610   2.339
  232SOL    HW2  708   0.288   0.689   2.375
  233SOL     OW  709   0.614   0.122   1.979
  233SOL    HW1  710   0.712   0.100   1.986
  233SOL    HW2  711   0.583   0.105   1.886
  234SOL     OW  712   0.539   0.064   2.374
  234SOL    HW1  713   0.458   0.065   2.432
  234SOL    HW2  714   0.542   0.147   2.319
  235SOL     OW  715   1.434   1.188   1.903
  235SOL    HW1  716   1.466   1.112   1.960
  235SOL    HW2  717   1.342   1.215   1.933
  236SOL     OW  718   0.297   0.035   2.033
  236SOL    HW1  719   0.346   0.119   2.012
  236SOL    HW2  720   0.359  -0.030   2.078
  237SOL     OW  721   0.935   0.236   2.342
  237SOL    HW1  722   0.887   0.277   2.264
  237SOL    HW2  723   1.034   0.234   2.323
  238SOL     OW  724   0.459   1.152   2.603
  238SOL    HW1  725   0.388   1.125   2.668
  238SOL    HW2  726   0.433   1.124   2.510
  239SOL     OW  727   1.271   1.797   2.453
  239SOL    HW1  728   1.315   1.861   2.389
  239SOL    HW2  729   1.221   1.849   2.523
  240SOL     OW  730   1.032   0.549   1.878
  240SOL    HW1  731   0.991   0.631   1.839
  240SOL    HW2  732   1.096   0.575   1.951
  241SOL     OW  733   0.866   0.454   2.504
  241SOL    HW1  734   0.834   0.526   2.442
  241SOL    HW2  735   0.890   0.373   2.451
  242SOL     OW  736   1.857   0.833   2.239
  242SOL    HW1  737   1.899   0.769   2.303
  242SOL    HW2  738   1.819   0.782   2.161
  243SOL     OW  739   0.488   1.385   2.036
  243SOL    HW1  740   0.401   1.370   2.083
  243SOL    HW2  741   0.471   1.411   1.941
  244SOL     OW  742   1.390   0.575   1.940
  244SOL    HW1  743   1.336   0.554   2.021
  244SOL    HW2  744   1.481   0.534   1.949
  245SOL     OW  745   0.527   0.256   2.190
  245SOL    HW1  746   0.554   0.197   2.115
  245SOL    HW2  747   0.527   0.351   2.159
  246SOL     OW  748   0.705   1.050   2.230
  246SOL    HW1  749   0.691   1.057   2.329
  246SOL    HW2  750   0.789   0.999   2.212
  247SOL     OW  751   0.367   1.100   2.363
  247SOL    HW1  752   0.360   1.183   2.307
  247SOL    HW2  753   0.371   1.020   2.303
  248SOL     OW  754   1.252   1.348   2.250
  248SOL    HW1  755   1.302   1.425   2.290
  248SOL    HW2  756   1.157   1.350   2.282
  249SOL     OW  757   1.582   0.639   2.334
  249SOL    HW1  758   1.551   0.700   2.407
  249SOL    HW2  759   1.632   0.691   2.265
  250SOL     OW  760   1.209   0.525   2.137
  250SOL    HW1  761   1.222   0.441   2.191
  250SOL    HW2  762   1.180   0.599   2.197
  251SOL     OW  763   1.622   0.367   2.236
  251SOL    HW1  764   1.624   0.291   2.300
  251SOL    HW2  765   1.574   0.444   2.276
  252SOL     OW  766   1.540   0.274   1.987
  252SOL    HW1  767   1.479   0.199   2.010
  252SOL    HW2  768   1.562   0.326   2.070
  253SOL     OW  769   1.303   0.838   1.904
  253SOL    HW1  770   1.337   0.745   1.919
  253SOL    HW2  771   1.321   0.865   1.809
  254SOL     OW  772   0.008   1.326   2.062
  254SOL    HW1  773  -0.085   1.347   2.031
  254SOL    HW2  774   0.018   1.227   2.075
  255SOL     OW  775   0.815   0.572   2.187
  255SOL    HW1  776   0.822   0.483   2.141
  255SOL    HW2  777   0.721   0.606   2.179
  256SOL     OW  778   0.473   0.500   2.053
  256SOL    HW1  779   0.534   0.580   2.057
  256SOL    HW2  780   0.378   0.531   2.060
  257SOL     OW  781   1.302   0.855   2.171
  257SOL    HW1  782   1.216   0.824   2.213
  257SOL    HW2  783   1.298   0.841   2.072
  258SOL     OW  784   1.726   0.135   2.385
  258SOL    HW1  785   1.799   0.118   2.318
  258SOL    HW2  786   1.695   0.048   2.423
  259SOL     OW  787   1.388   1.573   2.339
  259SOL    HW1  788   1.455   1.585   2.265
  259SOL    HW2  789   1.348   1.662   2.362
  260SOL     OW  790   0.672   1.616   2.016
  260SOL    HW1  791   0.681   1.626   1.917
  260SOL    HW2  792   0.632   1.527   2.037
  261SOL     OW  793   1.194   1.612   1.893
  261SOL    HW1  794   1.200   1.519   1.930
  261SOL    HW2  795   1.135   1.612   1.813
  262SOL     OW  796   0.916   0.910   2.153
  262SOL    HW1  797   0.979   0.948   2.085
  262SOL    HW2  798   0.956   0.827   2.192
  263SOL     OW  799   1.504   1.607   1.906
  263SOL    HW1  800   1.412   1.644   1.913
  263SOL    HW2  801   1.542   1.627   1.816
  264SOL     OW  802   0.590   1.487   2.353
  264SOL    HW1  803   0.632   1.429   2.283
  264SOL    HW2  804   0.546   1.566   2.309
  265SOL     OW  805   0.255   1.348   2.152
  265SOL    HW1  806   0.159   1.349   2.125
  265SOL    HW2  807   0.267   1.401   2.236
  266SOL     OW  808   0.075   0.345   1.895
  266SOL    HW1  809  -0.017   0.317   1.866
  266SOL    HW2  810   0.106   0.422   1.839
  267SOL     OW  811   0.072   0.166   2.180
  267SOL    HW1  812   0.055   0.249   2.126
  267SOL    HW2  813   0.162   0.129   2.158
  268SOL     OW  814   1.183   1.335   1.981
  268SOL    HW1  815   1.084   1.324   1.983
  268SOL    HW2  816   1.217   1.350   2.074
  269SOL     OW  817   1.225   0.325   2.311
  269SOL    HW1  818   1.290   0.251   2.300
  269SOL    HW2  819   1.245   0.375   2.395
  270SOL     OW  820   0.594   0.745   2.514
  270SOL    HW1  821   0.644   0.830   2.495
  270SOL    HW2  822   0.506   0.747   2.466
  271SOL     OW  823   0.859   1.374   1.878
  271SOL    HW1  824   0.813   1.389   1.966
  271SOL    HW2  825   0.903   1.459   1.848
  272SOL     OW  826   1.083   0.984   1.949
  272SOL    HW1  827   1.060   1.037   1.867
  272SOL    HW2  828   1.164   0.928   1.930
  273SOL     OW  829   0.079   1.240   2.515
  273SOL    HW1  830   0.078   1.193   2.603
  273SOL    HW2  831   0.161   1.212   2.464
  274SOL     OW  832   0.428   0.424   2.382
  274SOL    HW1  833   0.458   0.352   2.320
  274SOL    HW2  834   0.389   0.384   2.465
  275SOL     OW  835   0.770   1.330   2.163
  275SOL    HW1  836   0.724   1.243   2.180
  275SOL    HW2  837   0.861   1.327   2.204
  276SOL     OW  838   1.352   0.052   2.030
  276SOL    HW1  839   1.387   0.011   1.946
  276SOL    HW2  840   1.262   0.014   2.050
  277SOL     OW  841   0.039   1.077   2.162
  277SOL    HW1  842   0.138   1.066   2.153
  277SOL    HW2  843  -0.001   0.991   2.194
  278SOL     OW  844   0.875   1.646   2.199
  278SOL    HW1  845   0.798   1.611   2.145
  278SOL    HW2  846   0.843   1.717   2.261
  279SOL     OW  847   0.225   2.137   0.996
  279SOL    HW1  848   0.260   2.120   1.088
  279SOL    HW2  849   0.137   2.092   0.984
  280SOL     OW  850   0.019   2.230   0.647
  280SOL    HW1  851  -0.063   2.273   0.686
  280SOL    HW2  852  -0.009   2.157   0.584
  281SOL     OW  853   1.755   2.469   0.231
  281SOL    HW1  854   1.743   2.456   0.132
  281SOL    HW2  855   1.725   2.388   0.280
  282SOL     OW  856   0.438   2.254   1.499
  282SOL    HW1  857   0.520   2.198   1.508
  282SOL    HW2  858   0.357   2.196   1.503
  283SOL     OW  859   1.603   2.309   0.737
  283SOL    HW1  860   1.529   2.355   0.687
  283SOL    HW2  861   1.654   2.377   0.790
  284SOL     OW  862   1.594   1.976   1.480
  284SOL    HW1  863   1.576   2.043   1.408
  284SOL    HW2  864   1.591   2.022   1.569
  285SOL     OW  865   0.122   2.505   0.563
  285SOL    HW1  866   0.077   2.417   0.580
  285SOL    HW2  867   0.121   2.559   0.647
  286SOL     OW  868   0.809   1.866   0.502
  286SOL    HW1  869   0.849   1.957   0.493
  286SOL    HW2  870   0.709   1.874   0.508
  287SOL     OW  871   0.317   2.113   1.801
  287SOL    HW1  872   0.388   2.184   1.807
  287SOL    HW2  873   0.229   2.152   1.829
  288SOL     OW  874   1.281   2.207   0.944
  288SOL    HW1  875   1.195   2.157   0.931
  288SOL    HW2  876   1.343   2.153   1.000
  289SOL     OW  877   0.807   2.467   1.465
  289SOL    HW1  878   0.760   2.464   1.554
  289SOL    HW2  879   0.756   2.412   1.399
  290SOL     OW  880   1.394   2.331   1.674
  290SOL    HW1  881   1.374   2.374   1.762
  290SOL    HW2  882   1.472   2.269   1.683
  291SOL     OW  883   0.991   2.272   1.242
  291SOL    HW1  884   0.914   2.306   1.296
  291SOL    HW2  885   0.957   2.221   1.163
  292SOL     OW  886   1.041   2.563   0.429
  292SOL    HW1  887   1.067   2.559   0.525
  292SOL    HW2  888   0.956   2.512   0.415
  293SOL     OW  889   0.076   2.673   0.789
  293SOL    HW1  890   0.175   2.661   0.798
  293SOL    HW2  891   0.052   2.768   0.810
  294SOL     OW  892   0.865   2.210   0.195
  294SOL    HW1  893   0.924   2.273   0.146
  294SOL    HW2  894   0.884   2.116   0.166
  295SOL     OW  895   1.719   2.447   1.831
  295SOL    HW1  896   1.693   2.536   1.795
  295SOL    HW2  897   1.717   2.379   1.758
  296SOL     OW  898   0.550   2.058   0.885
  296SOL    HW1  899   0.545   2.053   0.985
  296SOL    HW2  900   0.552   2.154   0.856
  297SOL     OW  901   1.458   2.597   0.728
  297SOL    HW1  902   1.453   2.532   0.803
  297SOL    HW2  903   1.538   2.656   0.741
  298SOL     OW  904   0.202   2.147   1.498
  298SOL    HW1  905   0.122   2.207   1.485
  298SOL    HW2  906   0.192   2.098   1.584
  299SOL     OW  907   1.400   1.969   0.426
  299SOL    HW1  908   1.376   1.932   0.336
  299SOL    HW2  909   1.499   1.985   0.430
  300SOL     OW  910   1.547   2.084   1.729
  300SOL    HW1  911   1.542   2.121   1.821
  300SOL    HW2  912   1.475   2.015   1.717
  301SOL     OW  913   0.614   1.984   0.117
  301SOL    HW1  914   0.712   1.962   0.124
  301SOL    HW2  915   0.583   1.967   0.024
  302SOL     OW  916   0.781   2.126   1.749
  302SOL    HW1  917   0.848   2.065   1.792
  302SOL    HW2  918   0.708   2.145   1.814
  303SOL     OW  919   1.351   2.452   1.433
  303SOL    HW1  920   1.379   2.409   1.518
  303SOL    HW2  921   1.376   2.548   1.434
  304SOL     OW  922   0.922   2.365   0.899
  304SOL    HW1  923   0.897   2.356   0.803
  304SOL    HW2  924   0.970   2.283   0.930
  305SOL     OW  925   0.539   1.926   0.512
  305SOL    HW1  926   0.458   1.927   0.570
  305SOL    HW2  927   0.542   2.009   0.457
  306SOL     OW  928   0.297   1.897   0.171
  306SOL    HW1  929   0.346   1.981   0.150
  306SOL    HW2  930   0.359   1.832   0.216
  307SOL     OW  931   0.935   2.098   0.480
  307SOL    HW1  932   0.887   2.139   0.402
  307SOL    HW2  933   1.034   2.096   0.461
  308SOL     OW  934   1.032   2.411   0.016
  308SOL    HW1  935   0.991   2.493  -0.023
  308SOL    HW2  936   1.096   2.437   0.089
  309SOL     OW  937   0.078   2.418   1.386
  309SOL    HW1  938   0.170   2.417   1.345
  309SOL    HW2  939   0.072   2.492   1.453
  310SOL     OW  940   0.561   2.084   1.147
  310SOL    HW1  941   0.599   2.000   1.184
  310SOL    HW2  942   0.473   2.103   1.191
  311SOL     OW  943   0.866   2.316   0.642
  311SOL    HW1  944   0.834   2.388   0.580
  311SOL    HW2  945   0.890   2.235   0.589
  312SOL     OW  946   1.017   1.901   0.753
  312SOL    HW1  947   0.945   1.906   0.684
  312SOL    HW2  948   0.993   1.832   0.822
  313SOL     OW  949   1.466   2.452   0.992
  313SOL    HW1  950   1.436   2.357   0.999
  313SOL    HW2  951   1.539   2.468   1.058
  314SOL     OW  952   0.527   2.118   0.328
  314SOL    HW1  953   0.554   2.059   0.253
  314SOL    HW2  954   0.527   2.213   0.297
  315SOL     OW  955   0.915   1.951   1.402
  315SOL    HW1  956   0.940   1.931   1.307
  315SOL    HW2  957   0.987   2.007   1.444
  316SOL     OW  958   1.274   2.248   1.262
  316SOL    HW1  959   1.295   2.322   1.326
  316SOL    HW2  960   1.185   2.265   1.219
  317SOL     OW  961   0.566   2.399   0.865
  317SOL    HW1  962   0.578   2.465   0.791
  317SOL    HW2  963   0.612   2.433   0.948
  318SOL     OW  964   1.582   2.501   0.472
  318SOL    HW1  965   1.551   2.562   0.545
  318SOL    HW2  966   1.632   2.553   0.403
  319SOL     OW  967   1.013   1.967   1.770
  319SOL    HW1  968   1.019   2.052   1.718
  319SOL    HW2  969   1.045   1.891   1.713
  320SOL     OW  970   0.504   1.912   1.740
  320SOL    HW1  971   0.462   1.855   1.670
  320SOL    HW2  972   0.438   1.981   1.772
  321SOL     OW  973   1.209   2.387   0.275
  321SOL    HW1  974   1.222   2.303   0.329
  321SOL    HW2  975   1.180   2.461   0.335
  322SOL     OW  976   0.307   2.075   1.231
  322SOL    HW1  977   0.284   2.112   1.321
  322SOL    HW2  978   0.277   1.980   1.225
  323SOL     OW  979   0.732   2.496   1.064
  323SOL    HW1  980   0.791   2.470   0.988
  323SOL    HW2  981   0.704   2.592   1.053
  324SOL     OW  982   0.307   1.925   0.618
  324SOL    HW1  983   0.296   2.019   0.651
  324SOL    HW2  984   0.302   1.862   0.695
  325SOL     OW  985   1.622   2.229   0.374
  325SOL    HW1  986   1.624   2.153   0.438
  325SOL    HW2  987   1.574   2.306   0.414
  326SOL     OW  988   1.540   2.136   0.125
  326SOL    HW1  989   1.479   2.061   0.148
  326SOL    HW2  990   1.562   2.188   0.208
  327SOL     OW  991   0.339   2.371   1.006
  327SOL    HW1  992   0.287   2.288   0.989
  327SOL    HW2  993   0.416   2.376   0.942
  328SOL     OW  994   1.138   2.242   1.678
  328SOL    HW1  995   1.093   2.305   1.742
  328SOL    HW2  996   1.231   2.273   1.661
  329SOL     OW  997   1.160   2.069   1.477
  329SOL    HW1  998   1.160   2.133   1.554
  329SOL    HW2  999   1.188   2.117   1.394
  330SOL     OW 1000   0.040   2.406   1.114
  330SOL    HW1 1001   0.125   2.373   1.073
  330SOL    HW2 1002   0.053   2.421   1.212
  331SOL     OW 1003   0.189   2.382   1.722
  331SOL    HW1 1004   0.248   2.342   1.652
  331SOL    HW2 1005   0.131   2.453   1.681
  332SOL     OW 1006   0.815   2.434   0.325
  332SOL    HW1 1007   0.822   2.345   0.279
  332SOL    HW2 1008   0.721   2.468   0.317
  333SOL     OW 1009   1.657   2.466   1.206
  333SOL    HW1 1010   1.619   2.397   1.268
  333SOL    HW2 1011   1.739   2.430   1.162
  334SOL     OW 1012   0.671   2.326   1.269
  334SOL    HW1 1013   0.637   2.237   1.239
  334SOL    HW2 1014   0.697   2.380   1.189
  335SOL     OW 1015   0.903   1.948   0.133
  335SOL    HW1 1016   0.954   1.949   0.047
  335SOL    HW2 1017   0.959   1.906   0.204
  336SOL     OW 1018   1.726   1.997   0.523
  336SOL    HW1 1019   1.799   1.980   0.456
  336SOL    HW2 1020   1.695   1.910   0.561
  337SOL     OW 1021   1.841   2.037   0.963
  337SOL    HW1 1022   1.880   1.952   0.927
  337SOL    HW2 1023   1.743   2.039   0.944
  338SOL     OW 1024   0.263   2.188   0.720
  338SOL    HW1 1025   0.184   2.239   0.686
  338SOL    HW2 1026   0.254   2.173   0.818
  339SOL     OW 1027   1.014   2.098   0.971
  339SOL    HW1 1028   1.006   2.062   0.878
  339SOL    HW2 1029   1.012   2.022   1.036
  340SOL     OW 1030   1.709   2.247   1.381
  340SOL    HW1 1031   1.782   2.316   1.385
  340SOL    HW2 1032   1.737   2.172   1.322
  341SOL     OW 1033   0.672   2.065   1.489
  341SOL    HW1 1034   0.762   2.049   1.449
  341SOL    HW2 1035   0.680   2.070   1.588
  342SOL     OW 1036   0.075   2.207   0.033
  342SOL    HW1 1037  -0.017   2.179   0.004
  342SOL    HW2 1038   0.106   2.284  -0.023
  343SOL     OW 1039   0.072   2.028   0.318
  343SOL    HW1 1040   0.055   2.111   0.264
  343SOL    HW2 1041   0.162   1.991   0.296
  344SOL     OW 1042   0.716   2.427   1.708
  344SOL    HW1 1043   0.735   2.492   1.782
  344SOL    HW2 1044   0.776   2.347   1.717
  345SOL     OW 1045   1.225   2.187   0.449
  345SOL    HW1 1046   1.290   2.113   0.438
  345SOL    HW2 1047   1.245   2.237   0.533
  346SOL     OW 1048   1.777   2.204   1.642
  346SOL    HW1 1049   1.760   2.235   1.548
  346SOL    HW2 1050   1.693   2.167   1.680
  347SOL     OW 1051   1.824   2.054   1.227
  347SOL    HW1 1052   1.820   1.964   1.271
  347SOL    HW2 1053   1.827   2.043   1.128
  348SOL     OW 1054   0.428   2.286   0.520
  348SOL    HW1 1055   0.458   2.214   0.458
  348SOL    HW2 1056   0.389   2.246   0.603
  349SOL     OW 1057   0.317   2.409   1.280
  349SOL    HW1 1058   0.355   2.350   1.352
  349SOL    HW2 1059   0.357   2.383   1.192
  350SOL     OW 1060   1.424   2.076   1.112
  350SOL    HW1 1061   1.476   2.011   1.167
  350SOL    HW2 1062   1.375   2.139   1.173
  351SOL     OW 1063   1.001   1.896   1.154
  351SOL    HW1 1064   0.938   1.824   1.123
  351SOL    HW2 1065   1.094   1.860   1.154
  352SOL     OW 1066   1.352   1.914   0.168
  352SOL    HW1 1067   1.387   1.873   0.084
  352SOL    HW2 1068   1.262   1.876   0.188
  353SOL     OW 1069   1.300   2.315   0.691
  353SOL    HW1 1070   1.241   2.395   0.695
  353SOL    HW2 1071   1.315   2.280   0.784
  354SOL     OW 1072   1.593   2.083   0.882
  354SOL    HW1 1073   1.509   2.082   0.936
  354SOL    HW2 1074   1.595   2.166   0.826
  355SOL     OW 1075   1.755   2.469   2.093
  355SOL    HW1 1076   1.743   2.456   1.994
  355SOL    HW2 1077   1.725   2.388   2.142
  356SOL     OW 1078   0.122   2.505   2.425
  356SOL    HW1 1079   0.077   2.417   2.442
  356SOL    HW2 1080   0.121   2.559   2.509
  357SOL     OW 1081   0.809   1.866   2.364
  357SOL    HW1 1082   0.849   1.957   2.355
  357SOL    HW2 1083   0.709   1.874   2.370
  358SOL     OW 1084   1.041   2.563   2.291
  358SOL    HW1 1085   1.067   2.559   2.387
  358SOL    HW2 1086   0.956   2.512   2.277
  359SOL     OW 1087   0.865   2.210   2.057
  359SOL    HW1 1088   0.924   2.273   2.008
  359SOL    HW2 1089   0.884   2.116   2.028
  360SOL     OW 1090   1.400   1.969   2.288
  360SOL    HW1 1091   1.376   1.932   2.198
  360SOL    HW2 1092   1.499   1.985   2.292
  361SOL     OW 1093   0.614   1.984   1.979
  361SOL    HW1 1094   0.712   1.962   1.986
  361SOL    HW2 1095   0.583   1.967   1.886
  362SOL     OW 1096   0.539   1.926   2.374
  362SOL    HW1 1097   0.458   1.927   2.432
  362SOL    HW2 1098   0.542   2.009   2.319
  363SOL     OW 1099   0.297   1.897   2.033
  363SOL    HW1 1100   0.346   1.981   2.012
  363SOL    HW2 1101   0.359   1.832   2.078
  364SOL     OW 1102   0.935   2.098   2.342
  364SOL    HW1 1103   0.887   2.139   2.264
  364SOL    HW2 1104   1.034   2.096   2.323
  365SOL     OW 1105   0.866   2.316   2.504
  365SOL    HW1 1106   0.834   2.388   2.442
  365SOL    HW2 1107   0.890   2.235   2.451
  366SOL     OW 1108   0.527   2.118   2.190
  366SOL    HW1 1109   0.554   2.059   2.115
  366SOL    HW2 1110   0.527   2.213   2.159
  367SOL     OW 1111   1.582   2.501   2.334
  367SOL    HW1 1112   1.551   2.562   2.407
  367SOL    HW2 1113   1.632   2.553   2.265
  368SOL     OW 1114   1.209   2.387   2.137
  368SOL    HW1 1115   1.222   2.303   2.191
  368SOL    HW2 1116   1.180   2.461   2.197
  369SOL     OW 1117   1.622   2.229   2.236
  369SOL    HW1 1118   1.624   2.153   2.300
  369SOL    HW2 1119   1.574   2.306   2.276
  370SOL     OW 1120   1.540   2.136   1.987
  370SOL    HW1 1121   1.479   2.061   2.010
  370SOL    HW2 1122   1.562   2.188   2.070
  371SOL     OW 1123   0.815   2.434   2.187
  371SOL    HW1 1124   0.822   2.345   2.141
  371SOL    HW2 1125   0.721   2.468   2.179
  372SOL     OW 1126   1.726   1.997   2.385
  372SOL    HW1 1127   1.799   1.980   2.318
  372SOL    HW2 1128   1.695   1.910   2.423
  373SOL     OW 1129   0.075   2.207   1.895
  373SOL    HW1 1130  -0.017   2.179   1.866
  373SOL    HW2 1131   0.106   2.284   1.839
  374SOL     OW 1132   0.072   2.028   2.180
  374SOL    HW1 1133   0.055   2.111   2.126
  374SOL    HW2 1134   0.162   1.991   2.158
  375SOL     OW 1135   1.225   2.187   2.311
  375SOL    HW1 1136   1.290   2.113   2.300
  375SOL    HW2 1137   1.245   2.237   2.395
  376SOL     OW 1138   0.428   2.286   2.382
  376SOL    HW1 1139   0.458   2.214   2.320
  376SOL    HW2 1140   0.389   2.246   2.465
  377SOL     OW 1141   1.352   1.914   2.030
  377SOL    HW1 1142   1.387   1.873   1.946
  377SOL    HW2 1143   1.262   1.876   2.050
  378SOL     OW 1144   1.300   2.315   2.553
  378SOL    HW1 1145   1.241   2.395   2.557
  378SOL    HW2 1146   1.315   2.280   2.646
  379SOL     OW 1147   2.092   0.628   0.113
  379SOL    HW1 1148   1.999   0.626   0.150
  379SOL    HW2 1149   2.093   0.589   0.021
  380SOL     OW 1150   2.087   0.275   0.996
  380SOL    HW1 1151   2.122   0.258   1.088
  380SOL    HW2 1152   1.999   0.230   0.984
  381SOL     OW 1153   1.881   0.368   0.647
  381SOL    HW1 1154   1.799   0.411   0.686
  381SOL    HW2 1155   1.853   0.295   0.584
  382SOL     OW 1156   2.712   0.798   1.823
  382SOL    HW1 1157   2.708   0.874   1.888
  382SOL    HW2 1158   2.734   0.834   1.732
  383SOL     OW 1159   2.197   1.435   1.061
  383SOL    HW1 1160   2.119   1.404   1.008
  383SOL    HW2 1161   2.255   1.493   1.004
  384SOL     OW 1162   2.300   0.392   1.499
  384SOL    HW1 1163   2.382   0.336   1.508
  384SOL    HW2 1164   2.219   0.334   1.503
  385SOL     OW 1165   2.093   1.713   0.483
  385SOL    HW1 1166   2.127   1.790   0.537
  385SOL    HW2 1167   2.137   1.713   0.393
  386SOL     OW 1168   2.092   1.434   0.538
  386SOL    HW1 1169   2.066   1.530   0.538
  386SOL    HW2 1170   2.021   1.380   0.583
  387SOL     OW 1171   2.102   1.091   0.886
  387SOL    HW1 1172   2.116   1.007   0.938
  387SOL    HW2 1173   2.047   1.155   0.941
  388SOL     OW 1174   1.984   0.643   0.563
  388SOL    HW1 1175   1.939   0.555   0.580
  388SOL    HW2 1176   1.983   0.697   0.647
  389SOL     OW 1177   1.889   1.596   0.117
  389SOL    HW1 1178   1.870   1.500   0.138
  389SOL    HW2 1179   1.856   1.654   0.192
  390SOL     OW 1180   1.975   0.737   1.597
  390SOL    HW1 1181   2.063   0.724   1.642
  390SOL    HW2 1182   1.962   0.834   1.575
  391SOL     OW 1183   2.475   1.365   0.726
  391SOL    HW1 1184   2.426   1.278   0.735
  391SOL    HW2 1185   2.452   1.408   0.639
  392SOL     OW 1186   2.059   0.976   1.264
  392SOL    HW1 1187   2.148   0.931   1.250
  392SOL    HW2 1188   1.986   0.911   1.245
  393SOL     OW 1189   2.179   0.251   1.801
  393SOL    HW1 1190   2.250   0.322   1.807
  393SOL    HW2 1191   2.091   0.290   1.829
  394SOL     OW 1192   1.938   0.811   0.789
  394SOL    HW1 1193   2.037   0.799   0.798
  394SOL    HW2 1194   1.914   0.906   0.810
  395SOL     OW 1195   1.992   1.821   1.571
  395SOL    HW1 1196   1.982   1.806   1.670
  395SOL    HW2 1197   1.906   1.857   1.535
  396SOL     OW 1198   2.727   0.348   0.195
  396SOL    HW1 1199   2.786   0.411   0.146
  396SOL    HW2 1200   2.746   0.254   0.166
  397SOL     OW 1201   2.412   0.196   0.885
  397SOL    HW1 1202   2.407   0.191   0.985
  397SOL    HW2 1203   2.414   0.292   0.856
  398SOL     OW 1204   2.213   1.801   0.853
  398SOL    HW1 1205   2.263   1.715   0.859
  398SOL    HW2 1206   2.278   1.878   0.850
  399SOL     OW 1207   2.183   0.943   0.242
  399SOL    HW1 1208   2.265   0.982   0.200
  399SOL    HW2 1209   2.156   0.861   0.193
  400SOL     OW 1210   2.323   1.266   1.727
  400SOL    HW1 1211   2.273   1.267   1.641
  400SOL    HW2 1212   2.260   1.248   1.803
  401SOL     OW 1213   2.064   0.285   1.498
  401SOL    HW1 1214   1.984   0.345   1.485
  401SOL    HW2 1215   2.054   0.236   1.584
  402SOL     OW 1216   2.326   1.743   0.323
  402SOL    HW1 1217   2.359   1.782   0.409
  402SOL    HW2 1218   2.402   1.736   0.258
  403SOL     OW 1219   2.111   1.785   1.241
  403SOL    HW1 1220   2.168   1.720   1.291
  403SOL    HW2 1221   2.095   1.752   1.148
  404SOL     OW 1222   2.244   0.700   0.480
  404SOL    HW1 1223   2.289   0.610   0.477
  404SOL    HW2 1224   2.150   0.689   0.513
  405SOL     OW 1225   2.476   0.122   0.117
  405SOL    HW1 1226   2.574   0.100   0.124
  405SOL    HW2 1227   2.445   0.105   0.024
  406SOL     OW 1228   2.401   0.064   0.512
  406SOL    HW1 1229   2.320   0.065   0.570
  406SOL    HW2 1230   2.404   0.147   0.457
  407SOL     OW 1231   2.159   0.035   0.171
  407SOL    HW1 1232   2.208   0.119   0.150
  407SOL    HW2 1233   2.221  -0.030   0.216
  408SOL     OW 1234   2.797   0.236   0.480
  408SOL    HW1 1235   2.749   0.277   0.402
  408SOL    HW2 1236   2.896   0.234   0.461
  409SOL     OW 1237   2.321   1.152   0.741
  409SOL    HW1 1238   2.250   1.125   0.806
  409SOL    HW2 1239   2.295   1.124   0.648
  410SOL     OW 1240   1.940   0.556   1.386
  410SOL    HW1 1241   2.032   0.555   1.345
  410SOL    HW2 1242   1.934   0.630   1.453
  411SOL     OW 1243   2.423   0.222   1.147
  411SOL    HW1 1244   2.461   0.138   1.184
  411SOL    HW2 1245   2.335   0.241   1.191
  412SOL     OW 1246   2.389   0.256   0.328
  412SOL    HW1 1247   2.416   0.197   0.253
  412SOL    HW2 1248   2.389   0.351   0.297
  413SOL     OW 1249   2.842   1.116   1.719
  413SOL    HW1 1250   2.743   1.122   1.729
  413SOL    HW2 1251   2.865   1.036   1.663
  414SOL     OW 1252   2.272   0.813   1.251
  414SOL    HW1 1253   2.358   0.825   1.301
  414SOL    HW2 1254   2.230   0.726   1.278
  415SOL     OW 1255   1.926   1.564   1.331
  415SOL    HW1 1256   1.880   1.646   1.297
  415SOL    HW2 1257   2.024   1.583   1.340
  416SOL     OW 1258   2.229   1.100   0.501
  416SOL    HW1 1259   2.222   1.183   0.445
  416SOL    HW2 1260   2.233   1.020   0.441
  417SOL     OW 1261   2.428   0.537   0.865
  417SOL    HW1 1262   2.440   0.603   0.791
  417SOL    HW2 1263   2.474   0.571   0.948
  418SOL     OW 1264   2.216   1.510   1.329
  418SOL    HW1 1265   2.195   1.466   1.242
  418SOL    HW2 1266   2.313   1.536   1.332
  419SOL     OW 1267   2.264   0.751   1.598
  419SOL    HW1 1268   2.332   0.806   1.551
  419SOL    HW2 1269   2.304   0.663   1.625
  420SOL     OW 1270   2.366   0.050   1.740
  420SOL    HW1 1271   2.324  -0.007   1.670
  420SOL    HW2 1272   2.300   0.119   1.772
  421SOL     OW 1273   2.435   0.870   1.029
  421SOL    HW1 1274   2.479   0.959   1.020
  421SOL    HW2 1275   2.372   0.870   1.106
  422SOL     OW 1276   2.169   0.213   1.231
  422SOL    HW1 1277   2.146   0.250   1.321
  422SOL    HW2 1278   2.139   0.118   1.225
  423SOL     OW 1279   1.899   1.310   1.282
  423SOL    HW1 1280   1.952   1.261   1.350
  423SOL    HW2 1281   1.921   1.408   1.287
  424SOL     OW 1282   2.169   0.063   0.618
  424SOL    HW1 1283   2.158   0.157   0.651
  424SOL    HW2 1284   2.164   0.000   0.695
  425SOL     OW 1285   2.212   0.898   1.804
  425SOL    HW1 1286   2.288   0.942   1.852
  425SOL    HW2 1287   2.247   0.851   1.722
  426SOL     OW 1288   2.181   0.810   0.949
  426SOL    HW1 1289   2.274   0.846   0.954
  426SOL    HW2 1290   2.175   0.725   1.001
  427SOL     OW 1291   2.201   0.509   1.006
  427SOL    HW1 1292   2.149   0.426   0.989
  427SOL    HW2 1293   2.278   0.514   0.942
  428SOL     OW 1294   1.870   1.326   0.200
  428SOL    HW1 1295   1.777   1.347   0.169
  428SOL    HW2 1296   1.880   1.227   0.213
  429SOL     OW 1297   1.950   1.801   0.927
  429SOL    HW1 1298   1.908   1.715   0.900
  429SOL    HW2 1299   2.044   1.804   0.893
  430SOL     OW 1300   2.366   1.568   0.910
  430SOL    HW1 1301   2.432   1.642   0.919
  430SOL    HW2 1302   2.410   1.489   0.868
  431SOL     OW 1303   1.902   0.544   1.114
  431SOL    HW1 1304   1.987   0.511   1.073
  431SOL    HW2 1305   1.915   0.559   1.212
  432SOL     OW 1306   2.051   0.520   1.722
  432SOL    HW1 1307   2.110   0.480   1.652
  432SOL    HW2 1308   1.993   0.591   1.681
  433SOL     OW 1309   2.677   0.572   0.325
  433SOL    HW1 1310   2.684   0.483   0.279
  433SOL    HW2 1311   2.583   0.606   0.317
  434SOL     OW 1312   2.114   1.564   1.744
  434SOL    HW1 1313   2.084   1.621   1.820
  434SOL    HW2 1314   2.107   1.467   1.770
  435SOL     OW 1315   2.335   0.500   0.191
  435SOL    HW1 1316   2.396   0.580   0.195
  435SOL    HW2 1317   2.240   0.531   0.198
  436SOL     OW 1318   2.021   1.137   1.466
  436SOL    HW1 1319   2.043   1.076   1.542
  436SOL    HW2 1320   2.031   1.088   1.380
  437SOL     OW 1321   1.945   1.258   1.022
  437SOL    HW1 1322   1.940   1.257   1.122
  437SOL    HW2 1323   1.862   1.217   0.984
  438SOL     OW 1324   2.550   1.662   1.716
  438SOL    HW1 1325   2.494   1.743   1.725
  438SOL    HW2 1326   2.602   1.666   1.630
  439SOL     OW 1327   1.992   1.794   1.851
  439SOL    HW1 1328   1.951   1.720   1.904
  439SOL    HW2 1329   2.056   1.845   1.909
  440SOL     OW 1330   2.125   0.326   0.720
  440SOL    HW1 1331   2.046   0.377   0.686
  440SOL    HW2 1332   2.116   0.311   0.818
  441SOL     OW 1333   2.234   1.288   1.490
  441SOL    HW1 1334   2.221   1.381   1.456
  441SOL    HW2 1335   2.150   1.236   1.477
  442SOL     OW 1336   2.452   1.487   0.491
  442SOL    HW1 1337   2.494   1.429   0.421
  442SOL    HW2 1338   2.408   1.566   0.447
  443SOL     OW 1339   2.117   1.348   0.290
  443SOL    HW1 1340   2.021   1.349   0.263
  443SOL    HW2 1341   2.129   1.401   0.374
  444SOL     OW 1342   1.967   1.013   1.726
  444SOL    HW1 1343   1.890   0.980   1.780
  444SOL    HW2 1344   2.052   0.983   1.768
  445SOL     OW 1345   1.937   0.345   0.033
  445SOL    HW1 1346   1.845   0.317   0.004
  445SOL    HW2 1347   1.968   0.422  -0.023
  446SOL     OW 1348   1.934   0.166   0.318
  446SOL    HW1 1349   1.917   0.249   0.264
  446SOL    HW2 1350   2.024   0.129   0.296
  447SOL     OW 1351   2.475   0.842   1.431
  447SOL    HW1 1352   2.531   0.923   1.414
  447SOL    HW2 1353   2.534   0.762   1.434
  448SOL     OW 1354   2.252   1.741   1.560
  448SOL    HW1 1355   2.161   1.782   1.558
  448SOL    HW2 1356   2.245   1.647   1.592
  449SOL     OW 1357   2.456   0.745   0.652
  449SOL    HW1 1358   2.506   0.830   0.633
  449SOL    HW2 1359   2.368   0.747   0.604
  450SOL     OW 1360   2.083   1.314   1.844
  450SOL    HW1 1361   2.018   1.241   1.823
  450SOL    HW2 1362   2.087   1.328   1.942
  451SOL     OW 1363   1.941   1.240   0.653
  451SOL    HW1 1364   1.940   1.193   0.741
  451SOL    HW2 1365   2.023   1.212   0.602
  452SOL     OW 1366   2.534   1.391   1.624
  452SOL    HW1 1367   2.456   1.341   1.662
  452SOL    HW2 1368   2.531   1.486   1.655
  453SOL     OW 1369   2.290   0.424   0.520
  453SOL    HW1 1370   2.320   0.352   0.458
  453SOL    HW2 1371   2.251   0.384   0.603
  454SOL     OW 1372   2.179   0.547   1.280
  454SOL    HW1 1373   2.217   0.488   1.352
  454SOL    HW2 1374   2.219   0.521   1.192
  455SOL     OW 1375   1.901   1.077   0.300
  455SOL    HW1 1376   2.000   1.066   0.291
  455SOL    HW2 1377   1.861   0.991   0.332
  456SOL     OW 1378   2.092   0.628   1.975
  456SOL    HW1 1379   1.999   0.626   2.012
  456SOL    HW2 1380   2.093   0.589   1.883
  457SOL     OW 1381   2.093   1.713   2.345
  457SOL    HW1 1382   2.127   1.790   2.399
  457SOL    HW2 1383   2.137   1.713   2.255
  458SOL     OW 1384   2.092   1.434   2.400
  458SOL    HW1 1385   2.066   1.530   2.400
  458SOL    HW2 1386   2.021   1.380   2.445
  459SOL     OW 1387   1.984   0.643   2.425
  459SOL    HW1 1388   1.939   0.555   2.442
  459SOL    HW2 1389   1.983   0.697   2.509
  460SOL     OW 1390   1.889   1.596   1.979
  460SOL    HW1 1391   1.870   1.500   2.000
  460SOL    HW2 1392   1.856   1.654   2.054
  461SOL     OW 1393   2.460   0.729   2.132
  461SOL    HW1 1394   2.484   0.798   2.064
  461SOL    HW2 1395   2.382   0.762   2.186
  462SOL     OW 1396   1.938   0.811   2.651
  462SOL    HW1 1397   2.037   0.799   2.660
  462SOL    HW2 1398   1.914   0.906   2.672
  463SOL     OW 1399   2.727   0.348   2.057
  463SOL    HW1 1400   2.786   0.411   2.008
  463SOL    HW2 1401   2.746   0.254   2.028
  464SOL     OW 1402   2.183   0.943   2.104
  464SOL    HW1 1403   2.265   0.982   2.062
  464SOL    HW2 1404   2.156   0.861   2.055
  465SOL     OW 1405   2.326   1.743   2.185
  465SOL    HW1 1406   2.359   1.782   2.271
  465SOL    HW2 1407   2.402   1.736   2.120
  466SOL     OW 1408   2.244   0.700   2.342
  466SOL    HW1 1409   2.289   0.610   2.339
  466SOL    HW2 1410   2.150   0.689   2.375
  467SOL     OW 1411   2.476   0.122   1.979
  467SOL    HW1 1412   2.574   0.100   1.986
  467SOL    HW2 1413   2.445   0.105   1.886
  468SOL     OW 1414   2.401   0.064   2.374
  468SOL    HW1 1415   2.320   0.065   2.432
  468SOL    HW2 1416   2.404   0.147   2.319
  469SOL     OW 1417   2.159   0.035   2.033
  469SOL    HW1 1418   2.208   0.119   2.012
  469SOL    HW2 1419   2.221  -0.030   2.078
  470SOL     OW 1420   2.797   0.236   2.342
  470SOL    HW1 1421   2.749   0.277   2.264
  470SOL    HW2 1422   2.896   0.234   2.323
  471SOL     OW 1423   2.321   1.152   2.603
  471SOL    HW1 1424   2.250   1.125   2.668
  471SOL    HW2 1425   2.295   1.124   2.510
  472SOL     OW 1426   2.389   0.256   2.190
  472SOL    HW1 1427   2.416   0.197   2.115
  472SOL    HW2 1428   2.389   0.351   2.159
  473SOL     OW 1429   2.229   1.100   2.363
  473SOL    HW1 1430   2.222   1.183   2.307
  473SOL    HW2 1431   2.233   1.020   2.303
  474SOL     OW 1432   1.870   1.326   2.062
  474SOL    HW1 1433   1.777   1.347   2.031
  474SOL    HW2 1434   1.880   1.227   2.075
  475SOL     OW 1435   2.677   0.572   2.187
  475SOL    HW1 1436   2.684   0.483   2.141
  475SOL    HW2 1437   2.583   0.606   2.179
  476SOL     OW 1438   2.335   0.500   2.053
  476SOL    HW1 1439   2.396   0.580   2.057
  476SOL    HW2 1440   2.240   0.531   2.060
  477SOL     OW 1441   2.452   1.487   2.353
  477SOL    HW1 1442   2.494   1.429   2.283
  477SOL    HW2 1443   2.408   1.566   2.309
  478SOL     OW 1444   2.117   1.348   2.152
  478SOL    HW1 1445   2.021   1.349   2.125
  478SOL    HW2 1446   2.129   1.401   2.236
  479SOL     OW 1447   1.937   0.345   1.895
  479SOL    HW1 1448   1.845   0.317   1.866
  479SOL    HW2 1449   1.968   0.422   1.839
  480SOL     OW 1450   1.934   0.166   2.180
  480SOL    HW1 1451   1.917   0.249   2.126
  480SOL    HW2 1452   2.024   0.129   2.158
  481SOL     OW 1453   2.456   0.745   2.514
  481SOL    HW1 1454   2.506   0.830   2.495
  481SOL    HW2 1455   2.368   0.747   2.466
  482SOL     OW 1456   1.941   1.240   2.515
  482SOL    HW1 1457   1.940   1.193   2.603
  482SOL    HW2 1458   2.023   1.212   2.464
  483SOL     OW 1459   2.290   0.424   2.382
  483SOL    HW1 1460   2.320   0.352   2.320
  483SOL    HW2 1461   2.251   0.384   2.465
  484SOL     OW 1462   1.901   1.077   2.162
  484SOL    HW1 1463   2.000   1.066   2.153
  484SOL    HW2 1464   1.861   0.991   2.194
  485SOL     OW 1465   2.087   2.137   0.996
  485SOL    HW1 1466   2.122   2.120   1.088
  485SOL    HW2 1467   1.999   2.092   0.984
  486SOL     OW 1468   1.881   2.230   0.647
  486SOL    HW1 1469   1.799   2.273   0.686
  486SOL    HW2 1470   1.853   2.157   0.584
  487SOL     OW 1471   2.300   2.254   1.499
  487SOL    HW1 1472   2.382   2.198   1.508
  487SOL    HW2 1473   2.219   2.196   1.503
  488SOL     OW 1474   1.984   2.505   0.563
  488SOL    HW1 1475   1.939   2.417   0.580
  488SOL    HW2 1476   1.983   2.559   0.647
  489SOL     OW 1477   2.179   2.113   1.801
  489SOL    HW1 1478   2.250   2.184   1.807
  489SOL    HW2 1479   2.091   2.152   1.829
  490SOL     OW 1480   1.938   2.673   0.789
  490SOL    HW1 1481   2.037   2.661   0.798
  490SOL    HW2 1482   1.914   2.768   0.810
  491SOL     OW 1483   2.727   2.210   0.195
  491SOL    HW1 1484   2.786   2.273   0.146
  491SOL    HW2 1485   2.746   2.116   0.166
  492SOL     OW 1486   2.412   2.058   0.885
  492SOL    HW1 1487   2.407   2.053   0.985
  492SOL    HW2 1488   2.414   2.154   0.856
  493SOL     OW 1489   2.064   2.147   1.498
  493SOL    HW1 1490   1.984   2.207   1.485
  493SOL    HW2 1491   2.054   2.098   1.584
  494SOL     OW 1492   2.476   1.984   0.117
  494SOL    HW1 1493   2.574   1.962   0.124
  494SOL    HW2 1494   2.445   1.967   0.024
  495SOL     OW 1495   2.401   1.926   0.512
  495SOL    HW1 1496   2.320   1.927   0.570
  495SOL    HW2 1497   2.404   2.009   0.457
  496SOL     OW 1498   2.159   1.897   0.171
  496SOL    HW1 1499   2.208   1.981   0.150
  496SOL    HW2 1500   2.221   1.832   0.216
  497SOL     OW 1501   2.797   2.098   0.480
  497SOL    HW1 1502   2.749   2.139   0.402
  497SOL    HW2 1503   2.896   2.096   0.461
  498SOL     OW 1504   1.940   2.418   1.386
  498SOL    HW1 1505   2.032   2.417   1.345
  498SOL    HW2 1506   1.934   2.492   1.453
  499SOL     OW 1507   2.423   2.084   1.147
  499SOL    HW1 1508   2.461   2.000   1.184
  499SOL    HW2 1509   2.335   2.103   1.191
  500SOL     OW 1510   2.389   2.118   0.328
  500SOL    HW1 1511   2.416   2.059   0.253
  500SOL    HW2 1512   2.389   2.213   0.297
  501SOL     OW 1513   2.428   2.399   0.865
  501SOL    HW1 1514   2.440   2.465   0.791
  501SOL    HW2 1515   2.474   2.433   0.948
  502SOL     OW 1516   2.366   1.912   1.740
  502SOL    HW1 1517   2.324   1.855   1.670
  502SOL    HW2 1518   2.300   1.981   1.772
  503SOL     OW 1519   2.169   2.075   1.231
  503SOL    HW1 1520   2.146   2.112   1.321
  503SOL    HW2 1521   2.139   1.980   1.225
  504SOL     OW 1522   2.169   1.925   0.618
  504SOL    HW1 1523   2.158   2.019   0.651
  504SOL    HW2 1524   2.164   1.862   0.695
  505SOL     OW 1525   2.201   2.371   1.006
  505SOL    HW1 1526   2.149   2.288   0.989
  505SOL    HW2 1527   2.278   2.376   0.942
  506SOL     OW 1528   1.902   2.406   1.114
  506SOL    HW1 1529   1.987   2.373   1.073
  506SOL    HW2 1530   1.915   2.421   1.212
  507SOL     OW 1531   2.051   2.382   1.722
  507SOL    HW1 1532   2.110   2.342   1.652
  507SOL    HW2 1533   1.993   2.453   1.681
  508SOL     OW 1534   2.677   2.434   0.325
  508SOL    HW1 1535   2.684   2.345   0.279
  508SOL    HW2 1536   2.583   2.468   0.317
  509SOL     OW 1537   2.125   2.188   0.720
  509SOL    HW1 1538   2.046   2.239   0.686
  509SOL    HW2 1539   2.116   2.173   0.818
  510SOL     OW 1540   1.937   2.207   0.033
  510SOL    HW1 1541   1.845   2.179   0.004
  510SOL    HW2 1542   1.968   2.284  -0.023
  511SOL     OW 1543   1.934   2.028   0.318
  511SOL    HW1 1544   1.917   2.111   0.264
  511SOL    HW2 1545   2.024   1.991   0.296
  512SOL     OW 1546   2.475   2.704   1.431
  512SOL    HW1 1547   2.531   2.785   1.414
  512SOL    HW2 1548   2.534   2.624   1.434
  513SOL     OW 1549   2.290   2.286   0.520
  513SOL    HW1 1550   2.320   2.214   0.458
  513SOL    HW2 1551   2.251   2.246   0.603
  514SOL     OW 1552   2.179   2.409   1.280
  514SOL    HW1 1553   2.217   2.350   1.352
  514SOL    HW2 1554   2.219   2.383   1.192
  515SOL     OW 1555   1.984   2.505   2.425
  515SOL    HW1 1556   1.939   2.417   2.442
  515SOL    HW2 1557   1.983   2.559   2.509
  516SOL     OW 1558   2.727   2.210   2.057
  516SOL    HW1 1559   2.786   2.273   2.008
  516SOL    HW2 1560   2.746   2.116   2.028
  517SOL     OW 1561   2.476   1.984   1.979
  517SOL    HW1 1562   2.574   1.962   1.986
  517SOL    HW2 1563   2.445   1.967   1.886
  518SOL     OW 1564   2.401   1.926   2.374
  518SOL    HW1 1565   2.320   1.927   2.432
  518SOL    HW2 1566   2.404   2.009   2.319
  519SOL     OW 1567   2.159   1.897   2.033
  519SOL    HW1 1568   2.208   1.981   2.012
  519SOL    HW2 1569   2.221   1.832   2.078
  520SOL     OW 1570   2.797   2.098   2.342
  520SOL    HW1 1571   2.749   2.139   2.264
  520SOL    HW2 1572   2.896   2.096   2.323
  521SOL     OW 1573   2.389   2.118   2.190
  521SOL    HW1 1574   2.416   2.059   2.115
  521SOL    HW2 1575   2.389   2.213   2.159
  522SOL     OW 1576   2.677   2.434   2.187
  522SOL    HW1 1577   2.684   2.345   2.141
  522SOL    HW2 1578   2.583   2.468   2.179
  523SOL     OW 1579   1.937   2.207   1.895
  523SOL    HW1 1580   1.845   2.179   1.866
  523SOL    HW2 1581   1.968   2.284   1.839
  524SOL     OW 1582   1.934   2.028   2.180
  524SOL    HW1 1583   1.917   2.111   2.126
  524SOL    HW2 1584   2.024   1.991   2.158
  525SOL     OW 1585   2.290   2.286   2.382
  525SOL    HW1 1586   2.320   2.214   2.320
  525SOL    HW2 1587   2.251   2.246   2.465
   2.51805   2.51805   2.51805
