mobley_7893124_GMX.gro created by acpype (v: 2023.10.27) on Thu May 14 13:18:01 2026
 1965
    1MOL     C1    1   1.357   1.130   1.580
    1MOL     C2    2   1.473   1.205   1.560
    1MOL     C3    3   1.243   1.156   1.504
    1MOL     C4    4   1.474   1.306   1.464
    1MOL     C5    5   1.244   1.257   1.408
    1MOL     C6    6   1.360   1.329   1.391
    1MOL     C7    7   1.470   1.410   1.180
    1MOL     C8    8   1.393   1.575   1.353
    1MOL     C9    9   1.228   1.457   1.210
    1MOL    C10   10   1.362   1.440   1.285
    1MOL     H1   11   1.356   1.051   1.655
    1MOL     H2   12   1.562   1.185   1.619
    1MOL     H3   13   1.153   1.097   1.520
    1MOL     H4   14   1.565   1.364   1.449
    1MOL     H5   15   1.155   1.276   1.350
    1MOL     H6   16   1.471   1.486   1.101
    1MOL     H7   17   1.571   1.407   1.223
    1MOL     H8   18   1.453   1.312   1.132
    1MOL     H9   19   1.492   1.576   1.399
    1MOL    H10   20   1.392   1.657   1.280
    1MOL    H11   21   1.320   1.599   1.430
    1MOL    H12   22   1.234   1.537   1.135
    1MOL    H13   23   1.201   1.365   1.156
    1MOL    H14   24   1.146   1.482   1.278
    2SOL     OW   25   0.230   0.628   0.113
    2SOL    HW1   26   0.137   0.626   0.150
    2SOL    HW2   27   0.231   0.589   0.021
    3SOL     OW   28   0.225   0.275   0.996
    3SOL    HW1   29   0.260   0.258   1.088
    3SOL    HW2   30   0.137   0.230   0.984
    4SOL     OW   31   0.019   0.368   0.647
    4SOL    HW1   32  -0.063   0.411   0.686
    4SOL    HW2   33  -0.009   0.295   0.584
    5SOL     OW   34   0.569   1.275   1.165
    5SOL    HW1   35   0.476   1.268   1.128
    5SOL    HW2   36   0.580   1.364   1.209
    6SOL     OW   37   1.555   1.511   0.703
    6SOL    HW1   38   1.498   1.495   0.784
    6SOL    HW2   39   1.496   1.521   0.623
    7SOL     OW   40   1.135   0.703   0.717
    7SOL    HW1   41   1.192   0.781   0.692
    7SOL    HW2   42   1.075   0.729   0.793
    8SOL     OW   43   1.755   0.607   0.231
    8SOL    HW1   44   1.743   0.594   0.132
    8SOL    HW2   45   1.725   0.526   0.280
    9SOL     OW   46   0.768   1.144   1.023
    9SOL    HW1   47   0.690   1.161   1.083
    9SOL    HW2   48   0.802   1.231   0.987
   10SOL     OW   49   0.850   0.798   1.823
   10SOL    HW1   50   0.846   0.874   1.888
   10SOL    HW2   51   0.872   0.834   1.732
   11SOL     OW   52   0.685   1.012   0.665
   11SOL    HW1   53   0.754   0.996   0.735
   11SOL    HW2   54   0.612   1.069   0.703
   12SOL     OW   55   0.686   1.161   1.803
   12SOL    HW1   56   0.746   1.240   1.817
   12SOL    HW2   57   0.600   1.192   1.762
   13SOL     OW   58   0.335   1.435   1.061
   13SOL    HW1   59   0.257   1.404   1.008
   13SOL    HW2   60   0.393   1.493   1.004
   14SOL     OW   61   0.438   0.392   1.499
   14SOL    HW1   62   0.520   0.336   1.508
   14SOL    HW2   63   0.357   0.334   1.503
   15SOL     OW   64   1.603   0.447   0.737
   15SOL    HW1   65   1.529   0.493   0.687
   15SOL    HW2   66   1.654   0.515   0.790
   16SOL     OW   67   0.231   1.713   0.483
   16SOL    HW1   68   0.265   1.790   0.537
   16SOL    HW2   69   0.275   1.713   0.393
   17SOL     OW   70   1.127   1.341   1.690
   17SOL    HW1   71   1.174   1.341   1.778
   17SOL    HW2   72   1.079   1.254   1.679
   18SOL     OW   73   0.230   1.434   0.538
   18SOL    HW1   74   0.204   1.530   0.538
   18SOL    HW2   75   0.159   1.380   0.583
   19SOL     OW   76   0.240   1.091   0.886
   19SOL    HW1   77   0.254   1.007   0.938
   19SOL    HW2   78   0.185   1.155   0.941
   20SOL     OW   79   0.620   1.786   1.439
   20SOL    HW1   80   0.528   1.769   1.474
   20SOL    HW2   81   0.648   1.878   1.465
   21SOL     OW   82   0.606   0.964   0.123
   21SOL    HW1   83   0.613   1.048   0.069
   21SOL    HW2   84   0.652   0.977   0.211
   22SOL     OW   85   1.594   0.114   1.480
   22SOL    HW1   86   1.576   0.181   1.408
   22SOL    HW2   87   1.591   0.160   1.569
   23SOL     OW   88   0.122   0.643   0.563
   23SOL    HW1   89   0.077   0.555   0.580
   23SOL    HW2   90   0.121   0.697   0.647
   24SOL     OW   91   1.842   1.767   0.359
   24SOL    HW1   92   1.896   1.738   0.439
   24SOL    HW2   93   1.872   1.857   0.330
   25SOL     OW   94   0.027   1.596   0.117
   25SOL    HW1   95   0.008   1.500   0.138
   25SOL    HW2   96  -0.006   1.654   0.192
   26SOL     OW   97   1.689   0.922   0.612
   26SOL    HW1   98   1.784   0.893   0.620
   26SOL    HW2   99   1.681   0.987   0.537
   27SOL     OW  100   1.641   1.108   0.432
   27SOL    HW1  101   1.727   1.110   0.380
   27SOL    HW2  102   1.655   1.155   0.520
   28SOL     OW  103   0.113   0.737   1.597
   28SOL    HW1  104   0.201   0.724   1.642
   28SOL    HW2  105   0.100   0.834   1.575
   29SOL     OW  106   0.613   1.365   0.726
   29SOL    HW1  107   0.564   1.278   0.735
   29SOL    HW2  108   0.590   1.408   0.639
   30SOL     OW  109   0.809   0.004   0.502
   30SOL    HW1  110   0.849   0.095   0.493
   30SOL    HW2  111   0.709   0.012   0.508
   31SOL     OW  112   0.197   0.976   1.264
   31SOL    HW1  113   0.286   0.931   1.250
   31SOL    HW2  114   0.124   0.911   1.245
   32SOL     OW  115   1.525   0.999   0.190
   32SOL    HW1  116   1.462   0.923   0.203
   32SOL    HW2  117   1.573   1.017   0.276
   33SOL     OW  118   1.187   1.792   1.616
   33SOL    HW1  119   1.211   1.852   1.540
   33SOL    HW2  120   1.194   1.697   1.586
   34SOL     OW  121   0.317   0.251   1.801
   34SOL    HW1  122   0.388   0.322   1.807
   34SOL    HW2  123   0.229   0.290   1.829
   35SOL     OW  124   1.667   1.714   0.572
   35SOL    HW1  125   1.626   1.691   0.484
   35SOL    HW2  126   1.649   1.640   0.637
   36SOL     OW  127   0.598   0.729   0.270
   36SOL    HW1  128   0.622   0.798   0.202
   36SOL    HW2  129   0.520   0.762   0.324
   37SOL     OW  130   1.281   0.345   0.944
   37SOL    HW1  131   1.195   0.295   0.931
   37SOL    HW2  132   1.343   0.291   1.000
   38SOL     OW  133   1.576   1.662   0.307
   38SOL    HW1  134   1.665   1.708   0.310
   38SOL    HW2  135   1.555   1.638   0.212
   39SOL     OW  136   0.807   0.605   1.465
   39SOL    HW1  137   0.760   0.602   1.554
   39SOL    HW2  138   0.756   0.550   1.399
   40SOL     OW  139   1.394   0.469   1.674
   40SOL    HW1  140   1.374   0.512   1.762
   40SOL    HW2  141   1.472   0.407   1.683
   41SOL     OW  142   0.973   0.890   1.572
   41SOL    HW1  143   1.019   0.806   1.543
   41SOL    HW2  144   0.917   0.924   1.497
   42SOL     OW  145   0.991   0.410   1.242
   42SOL    HW1  146   0.914   0.444   1.296
   42SOL    HW2  147   0.957   0.359   1.163
   43SOL     OW  148   1.041   0.701   0.429
   43SOL    HW1  149   1.067   0.697   0.525
   43SOL    HW2  150   0.956   0.650   0.415
   44SOL     OW  151   0.076   0.811   0.789
   44SOL    HW1  152   0.175   0.799   0.798
   44SOL    HW2  153   0.052   0.906   0.810
   45SOL     OW  154   0.130   1.821   1.571
   45SOL    HW1  155   0.120   1.806   1.670
   45SOL    HW2  156   0.044   1.857   1.535
   46SOL     OW  157   0.865   0.348   0.195
   46SOL    HW1  158   0.924   0.411   0.146
   46SOL    HW2  159   0.884   0.254   0.166
   47SOL     OW  160   1.719   0.585   1.831
   47SOL    HW1  161   1.693   0.674   1.795
   47SOL    HW2  162   1.717   0.517   1.758
   48SOL     OW  163   1.362   1.144   0.545
   48SOL    HW1  164   1.445   1.115   0.497
   48SOL    HW2  165   1.313   1.211   0.489
   49SOL     OW  166   0.550   0.196   0.885
   49SOL    HW1  167   0.545   0.191   0.985
   49SOL    HW2  168   0.552   0.292   0.856
   50SOL     OW  169   1.008   1.456   0.477
   50SOL    HW1  170   0.962   1.528   0.425
   50SOL    HW2  171   1.004   1.476   0.575
   51SOL     OW  172   0.351   1.801   0.853
   51SOL    HW1  173   0.401   1.715   0.859
   51SOL    HW2  174   0.416   1.878   0.850
   52SOL     OW  175   1.795   1.066   0.873
   52SOL    HW1  176   1.733   1.051   0.797
   52SOL    HW2  177   1.743   1.077   0.958
   53SOL     OW  178   0.321   0.943   0.242
   53SOL    HW1  179   0.403   0.982   0.200
   53SOL    HW2  180   0.294   0.861   0.193
   54SOL     OW  181   1.458   0.735   0.728
   54SOL    HW1  182   1.453   0.670   0.803
   54SOL    HW2  183   1.538   0.794   0.741
   55SOL     OW  184   0.461   1.266   1.727
   55SOL    HW1  185   0.411   1.267   1.641
   55SOL    HW2  186   0.398   1.248   1.803
   56SOL     OW  187   1.111   1.776   0.237
   56SOL    HW1  188   1.051   1.714   0.287
   56SOL    HW2  189   1.142   1.732   0.152
   57SOL     OW  190   0.202   0.285   1.498
   57SOL    HW1  191   0.122   0.345   1.485
   57SOL    HW2  192   0.192   0.236   1.584
   58SOL     OW  193   1.632   1.377   0.081
   58SOL    HW1  194   1.600   1.471   0.071
   58SOL    HW2  195   1.556   1.314   0.069
   59SOL     OW  196   0.464   1.743   0.323
   59SOL    HW1  197   0.497   1.782   0.409
   59SOL    HW2  198   0.540   1.736   0.258
   60SOL     OW  199   1.400   0.107   0.426
   60SOL    HW1  200   1.376   0.070   0.336
   60SOL    HW2  201   1.499   0.123   0.430
   61SOL     OW  202   0.249   1.785   1.241
   61SOL    HW1  203   0.306   1.720   1.291
   61SOL    HW2  204   0.233   1.752   1.148
   62SOL     OW  205   0.940   1.698   0.904
   62SOL    HW1  206   1.020   1.641   0.925
   62SOL    HW2  207   0.891   1.658   0.827
   63SOL     OW  208   0.382   0.700   0.480
   63SOL    HW1  209   0.427   0.610   0.477
   63SOL    HW2  210   0.288   0.689   0.513
   64SOL     OW  211   1.547   0.222   1.729
   64SOL    HW1  212   1.542   0.259   1.821
   64SOL    HW2  213   1.475   0.153   1.717
   65SOL     OW  214   0.614   0.122   0.117
   65SOL    HW1  215   0.712   0.100   0.124
   65SOL    HW2  216   0.583   0.105   0.024
   66SOL     OW  217   0.781   0.264   1.749
   66SOL    HW1  218   0.848   0.203   1.792
   66SOL    HW2  219   0.708   0.283   1.814
   67SOL     OW  220   0.888   1.514   1.195
   67SOL    HW1  221   0.865   1.489   1.101
   67SOL    HW2  222   0.949   1.445   1.234
   68SOL     OW  223   1.351   0.590   1.433
   68SOL    HW1  224   1.379   0.547   1.518
   68SOL    HW2  225   1.376   0.686   1.434
   69SOL     OW  226   0.803   1.402   0.924
   69SOL    HW1  227   0.893   1.416   0.882
   69SOL    HW2  228   0.732   1.404   0.853
   70SOL     OW  229   0.922   0.503   0.899
   70SOL    HW1  230   0.897   0.494   0.803
   70SOL    HW2  231   0.970   0.421   0.930
   71SOL     OW  232   0.539   0.064   0.512
   71SOL    HW1  233   0.458   0.065   0.570
   71SOL    HW2  234   0.542   0.147   0.457
   72SOL     OW  235   1.434   1.188   0.041
   72SOL    HW1  236   1.466   1.112   0.098
   72SOL    HW2  237   1.342   1.215   0.071
   73SOL     OW  238   0.297   0.035   0.171
   73SOL    HW1  239   0.346   0.119   0.150
   73SOL    HW2  240   0.359  -0.030   0.216
   74SOL     OW  241   0.935   0.236   0.480
   74SOL    HW1  242   0.887   0.277   0.402
   74SOL    HW2  243   1.034   0.234   0.461
   75SOL     OW  244   1.076   0.683   1.464
   75SOL    HW1  245   0.996   0.622   1.467
   75SOL    HW2  246   1.157   0.630   1.440
   76SOL     OW  247   1.227   1.570   0.793
   76SOL    HW1  248   1.248   1.644   0.728
   76SOL    HW2  249   1.295   1.570   0.866
   77SOL     OW  250   0.459   1.152   0.741
   77SOL    HW1  251   0.388   1.125   0.806
   77SOL    HW2  252   0.433   1.124   0.648
   78SOL     OW  253   1.271   1.797   0.591
   78SOL    HW1  254   1.315   1.861   0.527
   78SOL    HW2  255   1.221   1.849   0.661
   79SOL     OW  256   1.032   0.549   0.016
   79SOL    HW1  257   0.991   0.631  -0.023
   79SOL    HW2  258   1.096   0.575   0.089
   80SOL     OW  259   0.078   0.556   1.386
   80SOL    HW1  260   0.170   0.555   1.345
   80SOL    HW2  261   0.072   0.630   1.453
   81SOL     OW  262   0.561   0.222   1.147
   81SOL    HW1  263   0.599   0.138   1.184
   81SOL    HW2  264   0.473   0.241   1.191
   82SOL     OW  265   0.866   0.454   0.642
   82SOL    HW1  266   0.834   0.526   0.580
   82SOL    HW2  267   0.890   0.373   0.589
   83SOL     OW  268   1.017   0.039   0.753
   83SOL    HW1  269   0.945   0.044   0.684
   83SOL    HW2  270   0.993  -0.030   0.822
   84SOL     OW  271   1.429   1.173   0.867
   84SOL    HW1  272   1.374   1.089   0.860
   84SOL    HW2  273   1.455   1.202   0.775
   85SOL     OW  274   1.466   0.590   0.992
   85SOL    HW1  275   1.436   0.495   0.999
   85SOL    HW2  276   1.539   0.606   1.058
   86SOL     OW  277   1.857   0.833   0.377
   86SOL    HW1  278   1.899   0.769   0.441
   86SOL    HW2  279   1.819   0.782   0.299
   87SOL     OW  280   0.488   1.385   0.174
   87SOL    HW1  281   0.401   1.370   0.221
   87SOL    HW2  282   0.471   1.411   0.079
   88SOL     OW  283   1.664   1.280   0.657
   88SOL    HW1  284   1.763   1.288   0.671
   88SOL    HW2  285   1.619   1.364   0.688
   89SOL     OW  286   1.390   0.575   0.078
   89SOL    HW1  287   1.336   0.554   0.159
   89SOL    HW2  288   1.481   0.534   0.087
   90SOL     OW  289   0.527   0.256   0.328
   90SOL    HW1  290   0.554   0.197   0.253
   90SOL    HW2  291   0.527   0.351   0.297
   91SOL     OW  292   1.754   1.223   1.588
   91SOL    HW1  293   1.845   1.184   1.575
   91SOL    HW2  294   1.762   1.319   1.612
   92SOL     OW  295   1.592   1.629   1.625
   92SOL    HW1  296   1.619   1.663   1.535
   92SOL    HW2  297   1.671   1.591   1.671
   93SOL     OW  298   1.111   1.195   1.100
   93SOL    HW1  299   1.071   1.239   1.181
   93SOL    HW2  300   1.070   1.232   1.017
   94SOL     OW  301   1.638   1.099   1.079
   94SOL    HW1  302   1.643   1.180   1.138
   94SOL    HW2  303   1.552   1.101   1.028
   95SOL     OW  304   0.915   0.089   1.402
   95SOL    HW1  305   0.940   0.069   1.307
   95SOL    HW2  306   0.987   0.145   1.444
   96SOL     OW  307   0.980   1.116   1.719
   96SOL    HW1  308   0.881   1.122   1.729
   96SOL    HW2  309   1.003   1.036   1.663
   97SOL     OW  310   0.705   1.050   0.368
   97SOL    HW1  311   0.691   1.057   0.467
   97SOL    HW2  312   0.789   0.999   0.350
   98SOL     OW  313   0.410   0.813   1.251
   98SOL    HW1  314   0.496   0.825   1.301
   98SOL    HW2  315   0.368   0.726   1.278
   99SOL     OW  316   1.274   0.386   1.262
   99SOL    HW1  317   1.295   0.460   1.326
   99SOL    HW2  318   1.185   0.403   1.219
  100SOL     OW  319   0.064   1.564   1.331
  100SOL    HW1  320   0.018   1.646   1.297
  100SOL    HW2  321   0.162   1.583   1.340
  101SOL     OW  322   0.367   1.100   0.501
  101SOL    HW1  323   0.360   1.183   0.445
  101SOL    HW2  324   0.371   1.020   0.441
  102SOL     OW  325   0.566   0.537   0.865
  102SOL    HW1  326   0.578   0.603   0.791
  102SOL    HW2  327   0.612   0.571   0.948
  103SOL     OW  328   1.252   1.348   0.388
  103SOL    HW1  329   1.302   1.425   0.428
  103SOL    HW2  330   1.157   1.350   0.420
  104SOL     OW  331   1.582   0.639   0.472
  104SOL    HW1  332   1.551   0.700   0.545
  104SOL    HW2  333   1.632   0.691   0.403
  105SOL     OW  334   0.354   1.510   1.329
  105SOL    HW1  335   0.333   1.466   1.242
  105SOL    HW2  336   0.451   1.536   1.332
  106SOL     OW  337   0.402   0.751   1.598
  106SOL    HW1  338   0.470   0.806   1.551
  106SOL    HW2  339   0.442   0.663   1.625
  107SOL     OW  340   1.587   0.779   1.670
  107SOL    HW1  341   1.495   0.817   1.665
  107SOL    HW2  342   1.647   0.826   1.605
  108SOL     OW  343   1.013   0.105   1.770
  108SOL    HW1  344   1.019   0.190   1.718
  108SOL    HW2  345   1.045   0.029   1.713
  109SOL     OW  346   0.504   0.050   1.740
  109SOL    HW1  347   0.462  -0.007   1.670
  109SOL    HW2  348   0.438   0.119   1.772
  110SOL     OW  349   0.573   0.870   1.029
  110SOL    HW1  350   0.617   0.959   1.020
  110SOL    HW2  351   0.510   0.870   1.106
  111SOL     OW  352   1.360   0.862   1.045
  111SOL    HW1  353   1.285   0.862   0.979
  111SOL    HW2  354   1.397   0.770   1.054
  112SOL     OW  355   1.209   0.525   0.275
  112SOL    HW1  356   1.222   0.441   0.329
  112SOL    HW2  357   1.180   0.599   0.335
  113SOL     OW  358   0.307   0.213   1.231
  113SOL    HW1  359   0.284   0.250   1.321
  113SOL    HW2  360   0.277   0.118   1.225
  114SOL     OW  361   0.037   1.310   1.282
  114SOL    HW1  362   0.090   1.261   1.350
  114SOL    HW2  363   0.059   1.408   1.287
  115SOL     OW  364   0.732   0.634   1.064
  115SOL    HW1  365   0.791   0.608   0.988
  115SOL    HW2  366   0.704   0.730   1.053
  116SOL     OW  367   1.728   0.935   1.854
  116SOL    HW1  368   1.682   0.928   1.765
  116SOL    HW2  369   1.666   0.979   1.920
  117SOL     OW  370   0.307   0.063   0.618
  117SOL    HW1  371   0.296   0.157   0.651
  117SOL    HW2  372   0.302   0.000   0.695
  118SOL     OW  373   1.622   0.367   0.374
  118SOL    HW1  374   1.624   0.291   0.438
  118SOL    HW2  375   1.574   0.444   0.414
  119SOL     OW  376   1.023   0.766   0.966
  119SOL    HW1  377   1.038   0.787   1.062
  119SOL    HW2  378   0.993   0.671   0.957
  120SOL     OW  379   0.980   1.573   1.700
  120SOL    HW1  380   0.960   1.617   1.612
  120SOL    HW2  381   1.019   1.482   1.684
  121SOL     OW  382   1.859   1.518   1.605
  121SOL    HW1  383   1.873   1.545   1.510
  121SOL    HW2  384   1.942   1.540   1.658
  122SOL     OW  385   0.350   0.898   1.804
  122SOL    HW1  386   0.426   0.942   1.852
  122SOL    HW2  387   0.385   0.851   1.722
  123SOL     OW  388   1.540   0.274   0.125
  123SOL    HW1  389   1.479   0.199   0.148
  123SOL    HW2  390   1.562   0.326   0.208
  124SOL     OW  391   1.303   0.838   0.042
  124SOL    HW1  392   1.337   0.745   0.057
  124SOL    HW2  393   1.321   0.865  -0.053
  125SOL     OW  394   1.068   1.333   0.849
  125SOL    HW1  395   1.075   1.249   0.794
  125SOL    HW2  396   1.130   1.402   0.813
  126SOL     OW  397   0.319   0.810   0.949
  126SOL    HW1  398   0.412   0.846   0.954
  126SOL    HW2  399   0.313   0.725   1.001
  127SOL     OW  400   0.339   0.509   1.006
  127SOL    HW1  401   0.287   0.426   0.989
  127SOL    HW2  402   0.416   0.514   0.942
  128SOL     OW  403   1.138   0.380   1.678
  128SOL    HW1  404   1.093   0.443   1.742
  128SOL    HW2  405   1.231   0.411   1.661
  129SOL     OW  406   1.160   0.207   1.477
  129SOL    HW1  407   1.160   0.271   1.554
  129SOL    HW2  408   1.188   0.255   1.394
  130SOL     OW  409   0.008   1.326   0.200
  130SOL    HW1  410  -0.085   1.347   0.169
  130SOL    HW2  411   0.018   1.227   0.213
  131SOL     OW  412   0.088   1.801   0.927
  131SOL    HW1  413   0.046   1.715   0.900
  131SOL    HW2  414   0.182   1.804   0.893
  132SOL     OW  415   0.504   1.568   0.910
  132SOL    HW1  416   0.570   1.642   0.919
  132SOL    HW2  417   0.548   1.489   0.868
  133SOL     OW  418   1.002   0.796   1.238
  133SOL    HW1  419   1.043   0.764   1.324
  133SOL    HW2  420   0.906   0.769   1.235
  134SOL     OW  421   0.040   0.544   1.114
  134SOL    HW1  422   0.125   0.511   1.073
  134SOL    HW2  423   0.053   0.559   1.212
  135SOL     OW  424   0.189   0.520   1.722
  135SOL    HW1  425   0.248   0.480   1.652
  135SOL    HW2  426   0.131   0.591   1.681
  136SOL     OW  427   0.815   0.572   0.325
  136SOL    HW1  428   0.822   0.483   0.279
  136SOL    HW2  429   0.721   0.606   0.317
  137SOL     OW  430   1.657   0.604   1.206
  137SOL    HW1  431   1.619   0.535   1.268
  137SOL    HW2  432   1.739   0.568   1.162
  138SOL     OW  433   0.252   1.564   1.744
  138SOL    HW1  434   0.222   1.621   1.820
  138SOL    HW2  435   0.245   1.467   1.770
  139SOL     OW  436   0.671   0.464   1.269
  139SOL    HW1  437   0.637   0.375   1.239
  139SOL    HW2  438   0.697   0.518   1.189
  140SOL     OW  439   0.930   1.678   1.465
  140SOL    HW1  440   0.906   1.660   1.370
  140SOL    HW2  441   0.960   1.772   1.475
  141SOL     OW  442   0.473   0.500   0.191
  141SOL    HW1  443   0.534   0.580   0.195
  141SOL    HW2  444   0.378   0.531   0.198
  142SOL     OW  445   0.159   1.137   1.466
  142SOL    HW1  446   0.181   1.076   1.542
  142SOL    HW2  447   0.169   1.088   1.380
  143SOL     OW  448   1.347   1.059   1.234
  143SOL    HW1  449   1.371   0.996   1.160
  143SOL    HW2  450   1.257   1.099   1.216
  144SOL     OW  451   1.302   0.855   0.309
  144SOL    HW1  452   1.216   0.824   0.351
  144SOL    HW2  453   1.298   0.841   0.210
  145SOL     OW  454   1.759   1.747   1.154
  145SOL    HW1  455   1.820   1.777   1.081
  145SOL    HW2  456   1.721   1.658   1.132
  146SOL     OW  457   0.083   1.258   1.022
  146SOL    HW1  458   0.078   1.257   1.122
  146SOL    HW2  459   0.000   1.217   0.984
  147SOL     OW  460   0.688   1.662   1.716
  147SOL    HW1  461   0.632   1.743   1.725
  147SOL    HW2  462   0.740   1.666   1.630
  148SOL     OW  463   0.903   0.086   0.133
  148SOL    HW1  464   0.954   0.087   0.047
  148SOL    HW2  465   0.959   0.044   0.204
  149SOL     OW  466   1.726   0.135   0.523
  149SOL    HW1  467   1.799   0.118   0.456
  149SOL    HW2  468   1.695   0.048   0.561
  150SOL     OW  469   1.388   1.573   0.477
  150SOL    HW1  470   1.455   1.585   0.403
  150SOL    HW2  471   1.348   1.662   0.500
  151SOL     OW  472   0.130   1.794   1.851
  151SOL    HW1  473   0.089   1.720   1.904
  151SOL    HW2  474   0.194   1.845   1.909
  152SOL     OW  475   1.280   0.927   0.672
  152SOL    HW1  476   1.340   0.846   0.674
  152SOL    HW2  477   1.320   0.996   0.612
  153SOL     OW  478   0.830   1.273   1.422
  153SOL    HW1  479   0.825   1.306   1.517
  153SOL    HW2  480   0.744   1.292   1.376
  154SOL     OW  481   0.672   1.616   0.154
  154SOL    HW1  482   0.681   1.626   0.055
  154SOL    HW2  483   0.632   1.527   0.175
  155SOL     OW  484   1.650   1.720   1.394
  155SOL    HW1  485   1.703   1.730   1.310
  155SOL    HW2  486   1.623   1.810   1.428
  156SOL     OW  487   1.841   0.175   0.963
  156SOL    HW1  488   1.880   0.090   0.927
  156SOL    HW2  489   1.743   0.177   0.944
  157SOL     OW  490   0.263   0.326   0.720
  157SOL    HW1  491   0.184   0.377   0.686
  157SOL    HW2  492   0.254   0.311   0.818
  158SOL     OW  493   1.194   1.612   0.031
  158SOL    HW1  494   1.200   1.519   0.068
  158SOL    HW2  495   1.135   1.612  -0.049
  159SOL     OW  496   0.822   1.002   1.372
  159SOL    HW1  497   0.862   1.001   1.280
  159SOL    HW2  498   0.832   1.094   1.412
  160SOL     OW  499   0.916   0.910   0.291
  160SOL    HW1  500   0.979   0.948   0.223
  160SOL    HW2  501   0.956   0.827   0.330
  161SOL     OW  502   1.504   1.607   0.044
  161SOL    HW1  503   1.412   1.644   0.051
  161SOL    HW2  504   1.542   1.627  -0.046
  162SOL     OW  505   0.372   1.288   1.490
  162SOL    HW1  506   0.359   1.381   1.456
  162SOL    HW2  507   0.288   1.236   1.477
  163SOL     OW  508   1.039   1.098   0.696
  163SOL    HW1  509   0.969   1.051   0.750
  163SOL    HW2  510   1.098   1.030   0.653
  164SOL     OW  511   1.014   0.236   0.971
  164SOL    HW1  512   1.006   0.200   0.878
  164SOL    HW2  513   1.012   0.160   1.036
  165SOL     OW  514   0.590   1.487   0.491
  165SOL    HW1  515   0.632   1.429   0.421
  165SOL    HW2  516   0.546   1.566   0.447
  166SOL     OW  517   1.709   0.385   1.381
  166SOL    HW1  518   1.782   0.454   1.385
  166SOL    HW2  519   1.737   0.310   1.322
  167SOL     OW  520   0.255   1.348   0.290
  167SOL    HW1  521   0.159   1.349   0.263
  167SOL    HW2  522   0.267   1.401   0.374
  168SOL     OW  523   0.105   1.013   1.726
  168SOL    HW1  524   0.028   0.980   1.780
  168SOL    HW2  525   0.190   0.983   1.768
  169SOL     OW  526   0.672   0.203   1.489
  169SOL    HW1  527   0.762   0.187   1.449
  169SOL    HW2  528   0.680   0.208   1.588
  170SOL     OW  529   0.075   0.345   0.033
  170SOL    HW1  530  -0.017   0.317   0.004
  170SOL    HW2  531   0.106   0.422  -0.023
  171SOL     OW  532   1.440   0.856   1.398
  171SOL    HW1  533   1.383   0.908   1.335
  171SOL    HW2  534   1.536   0.868   1.374
  172SOL     OW  535   0.072   0.166   0.318
  172SOL    HW1  536   0.055   0.249   0.264
  172SOL    HW2  537   0.162   0.129   0.296
  173SOL     OW  538   1.183   1.335   0.119
  173SOL    HW1  539   1.084   1.324   0.121
  173SOL    HW2  540   1.217   1.350   0.212
  174SOL     OW  541   0.613   0.842   1.431
  174SOL    HW1  542   0.669   0.923   1.414
  174SOL    HW2  543   0.672   0.762   1.434
  175SOL     OW  544   1.493   1.767   0.959
  175SOL    HW1  545   1.526   1.831   0.890
  175SOL    HW2  546   1.559   1.761   1.034
  176SOL     OW  547   0.716   0.565   1.708
  176SOL    HW1  548   0.735   0.630   1.782
  176SOL    HW2  549   0.776   0.485   1.717
  177SOL     OW  550   0.390   1.741   1.560
  177SOL    HW1  551   0.299   1.782   1.558
  177SOL    HW2  552   0.383   1.647   1.592
  178SOL     OW  553   1.674   0.883   1.254
  178SOL    HW1  554   1.647   0.794   1.217
  178SOL    HW2  555   1.675   0.951   1.181
  179SOL     OW  556   1.225   0.325   0.449
  179SOL    HW1  557   1.290   0.251   0.438
  179SOL    HW2  558   1.245   0.375   0.533
  180SOL     OW  559   0.594   0.745   0.652
  180SOL    HW1  560   0.644   0.830   0.633
  180SOL    HW2  561   0.506   0.747   0.604
  181SOL     OW  562   1.777   0.342   1.642
  181SOL    HW1  563   1.760   0.373   1.548
  181SOL    HW2  564   1.693   0.305   1.680
  182SOL     OW  565   1.730   0.934   1.517
  182SOL    HW1  566   1.768   1.025   1.532
  182SOL    HW2  567   1.722   0.917   1.418
  183SOL     OW  568   0.859   1.374   0.016
  183SOL    HW1  569   0.813   1.389   0.104
  183SOL    HW2  570   0.903   1.459  -0.014
  184SOL     OW  571   0.661   1.790   0.953
  184SOL    HW1  572   0.615   1.878   0.940
  184SOL    HW2  573   0.760   1.802   0.946
  185SOL     OW  574   0.859   0.956   0.861
  185SOL    HW1  575   0.913   0.887   0.909
  185SOL    HW2  576   0.827   1.025   0.927
  186SOL     OW  577   1.083   0.984   0.087
  186SOL    HW1  578   1.060   1.037   0.005
  186SOL    HW2  579   1.164   0.928   0.068
  187SOL     OW  580   1.861   1.569   0.851
  187SOL    HW1  581   1.790   1.557   0.781
  187SOL    HW2  582   1.862   1.490   0.911
  188SOL     OW  583   0.221   1.314   1.844
  188SOL    HW1  584   0.156   1.241   1.823
  188SOL    HW2  585   0.225   1.328   1.942
  189SOL     OW  586   0.079   1.240   0.653
  189SOL    HW1  587   0.078   1.193   0.741
  189SOL    HW2  588   0.161   1.212   0.602
  190SOL     OW  589   0.672   1.391   1.624
  190SOL    HW1  590   0.594   1.341   1.662
  190SOL    HW2  591   0.669   1.486   1.655
  191SOL     OW  592   1.824   0.192   1.227
  191SOL    HW1  593   1.820   0.102   1.271
  191SOL    HW2  594   1.827   0.181   1.128
  192SOL     OW  595   0.428   0.424   0.520
  192SOL    HW1  596   0.458   0.352   0.458
  192SOL    HW2  597   0.389   0.384   0.603
  193SOL     OW  598   1.705   1.487   1.104
  193SOL    HW1  599   1.612   1.462   1.077
  193SOL    HW2  600   1.731   1.437   1.186
  194SOL     OW  601   0.317   0.547   1.280
  194SOL    HW1  602   0.355   0.488   1.352
  194SOL    HW2  603   0.357   0.521   1.192
  195SOL     OW  604   0.812   1.586   0.687
  195SOL    HW1  605   0.844   1.596   0.593
  195SOL    HW2  606   0.733   1.524   0.689
  196SOL     OW  607   1.424   0.214   1.112
  196SOL    HW1  608   1.476   0.149   1.167
  196SOL    HW2  609   1.375   0.277   1.173
  197SOL     OW  610   1.001   0.034   1.154
  197SOL    HW1  611   0.938  -0.038   1.123
  197SOL    HW2  612   1.094  -0.002   1.154
  198SOL     OW  613   0.770   1.330   0.301
  198SOL    HW1  614   0.724   1.243   0.318
  198SOL    HW2  615   0.861   1.327   0.342
  199SOL     OW  616   0.618   1.567   1.284
  199SOL    HW1  617   0.613   1.649   1.341
  199SOL    HW2  618   0.707   1.564   1.239
  200SOL     OW  619   1.352   0.052   0.168
  200SOL    HW1  620   1.387   0.011   0.084
  200SOL    HW2  621   1.262   0.014   0.188
  201SOL     OW  622   1.300   0.453   0.691
  201SOL    HW1  623   1.241   0.533   0.695
  201SOL    HW2  624   1.315   0.418   0.784
  202SOL     OW  625   1.593   0.221   0.882
  202SOL    HW1  626   1.509   0.220   0.936
  202SOL    HW2  627   1.595   0.304   0.826
  203SOL     OW  628   0.039   1.077   0.300
  203SOL    HW1  629   0.138   1.066   0.291
  203SOL    HW2  630  -0.001   0.991   0.332
  204SOL     OW  631   0.875   1.646   0.337
  204SOL    HW1  632   0.798   1.611   0.283
  204SOL    HW2  633   0.843   1.717   0.399
  205SOL     OW  634   0.230   0.628   1.975
  205SOL    HW1  635   0.137   0.626   2.012
  205SOL    HW2  636   0.231   0.589   1.883
  206SOL     OW  637   0.225   0.275   2.858
  206SOL    HW1  638   0.260   0.258   2.950
  206SOL    HW2  639   0.137   0.230   2.846
  207SOL     OW  640   0.019   0.368   2.509
  207SOL    HW1  641  -0.063   0.411   2.548
  207SOL    HW2  642  -0.009   0.295   2.446
  208SOL     OW  643   1.555   1.511   2.565
  208SOL    HW1  644   1.498   1.495   2.646
  208SOL    HW2  645   1.496   1.521   2.485
  209SOL     OW  646   1.755   0.607   2.093
  209SOL    HW1  647   1.743   0.594   1.994
  209SOL    HW2  648   1.725   0.526   2.142
  210SOL     OW  649   0.685   1.012   2.527
  210SOL    HW1  650   0.754   0.996   2.597
  210SOL    HW2  651   0.612   1.069   2.565
  211SOL     OW  652   1.603   0.447   2.599
  211SOL    HW1  653   1.529   0.493   2.549
  211SOL    HW2  654   1.654   0.515   2.652
  212SOL     OW  655   0.231   1.713   2.345
  212SOL    HW1  656   0.265   1.790   2.399
  212SOL    HW2  657   0.275   1.713   2.255
  213SOL     OW  658   0.230   1.434   2.400
  213SOL    HW1  659   0.204   1.530   2.400
  213SOL    HW2  660   0.159   1.380   2.445
  214SOL     OW  661   0.240   1.091   2.748
  214SOL    HW1  662   0.254   1.007   2.800
  214SOL    HW2  663   0.185   1.155   2.803
  215SOL     OW  664   0.606   0.964   1.985
  215SOL    HW1  665   0.613   1.048   1.931
  215SOL    HW2  666   0.652   0.977   2.073
  216SOL     OW  667   0.122   0.643   2.425
  216SOL    HW1  668   0.077   0.555   2.442
  216SOL    HW2  669   0.121   0.697   2.509
  217SOL     OW  670   1.842   1.767   2.221
  217SOL    HW1  671   1.896   1.738   2.301
  217SOL    HW2  672   1.872   1.857   2.192
  218SOL     OW  673   0.027   1.596   1.979
  218SOL    HW1  674   0.008   1.500   2.000
  218SOL    HW2  675  -0.006   1.654   2.054
  219SOL     OW  676   1.689   0.922   2.474
  219SOL    HW1  677   1.784   0.893   2.482
  219SOL    HW2  678   1.681   0.987   2.399
  220SOL     OW  679   1.641   1.108   2.294
  220SOL    HW1  680   1.727   1.110   2.242
  220SOL    HW2  681   1.655   1.155   2.382
  221SOL     OW  682   0.613   1.365   2.588
  221SOL    HW1  683   0.564   1.278   2.597
  221SOL    HW2  684   0.590   1.408   2.501
  222SOL     OW  685   0.809   0.004   2.364
  222SOL    HW1  686   0.849   0.095   2.355
  222SOL    HW2  687   0.709   0.012   2.370
  223SOL     OW  688   1.525   0.999   2.052
  223SOL    HW1  689   1.462   0.923   2.065
  223SOL    HW2  690   1.573   1.017   2.138
  224SOL     OW  691   1.667   1.714   2.434
  224SOL    HW1  692   1.626   1.691   2.346
  224SOL    HW2  693   1.649   1.640   2.499
  225SOL     OW  694   0.598   0.729   2.132
  225SOL    HW1  695   0.622   0.798   2.064
  225SOL    HW2  696   0.520   0.762   2.186
  226SOL     OW  697   1.281   0.345   2.806
  226SOL    HW1  698   1.195   0.295   2.793
  226SOL    HW2  699   1.343   0.291   2.862
  227SOL     OW  700   1.576   1.662   2.169
  227SOL    HW1  701   1.665   1.708   2.172
  227SOL    HW2  702   1.555   1.638   2.074
  228SOL     OW  703   1.041   0.701   2.291
  228SOL    HW1  704   1.067   0.697   2.387
  228SOL    HW2  705   0.956   0.650   2.277
  229SOL     OW  706   0.076   0.811   2.651
  229SOL    HW1  707   0.175   0.799   2.660
  229SOL    HW2  708   0.052   0.906   2.672
  230SOL     OW  709   0.865   0.348   2.057
  230SOL    HW1  710   0.924   0.411   2.008
  230SOL    HW2  711   0.884   0.254   2.028
  231SOL     OW  712   1.362   1.144   2.407
  231SOL    HW1  713   1.445   1.115   2.359
  231SOL    HW2  714   1.313   1.211   2.351
  232SOL     OW  715   1.008   1.456   2.339
  232SOL    HW1  716   0.962   1.528   2.287
  232SOL    HW2  717   1.004   1.476   2.437
  233SOL     OW  718   0.351   1.801   2.715
  233SOL    HW1  719   0.401   1.715   2.721
  233SOL    HW2  720   0.416   1.878   2.712
  234SOL     OW  721   1.795   1.066   2.735
  234SOL    HW1  722   1.733   1.051   2.659
  234SOL    HW2  723   1.743   1.077   2.820
  235SOL     OW  724   0.321   0.943   2.104
  235SOL    HW1  725   0.403   0.982   2.062
  235SOL    HW2  726   0.294   0.861   2.055
  236SOL     OW  727   1.458   0.735   2.590
  236SOL    HW1  728   1.453   0.670   2.665
  236SOL    HW2  729   1.538   0.794   2.603
  237SOL     OW  730   1.111   1.776   2.099
  237SOL    HW1  731   1.051   1.714   2.149
  237SOL    HW2  732   1.142   1.732   2.014
  238SOL     OW  733   1.632   1.377   1.943
  238SOL    HW1  734   1.600   1.471   1.933
  238SOL    HW2  735   1.556   1.314   1.931
  239SOL     OW  736   0.464   1.743   2.185
  239SOL    HW1  737   0.497   1.782   2.271
  239SOL    HW2  738   0.540   1.736   2.120
  240SOL     OW  739   1.400   0.107   2.288
  240SOL    HW1  740   1.376   0.070   2.198
  240SOL    HW2  741   1.499   0.123   2.292
  241SOL     OW  742   0.940   1.698   2.766
  241SOL    HW1  743   1.020   1.641   2.787
  241SOL    HW2  744   0.891   1.658   2.689
  242SOL     OW  745   0.382   0.700   2.342
  242SOL    HW1  746   0.427   0.610   2.339
  242SOL    HW2  747   0.288   0.689   2.375
  243SOL     OW  748   0.614   0.122   1.979
  243SOL    HW1  749   0.712   0.100   1.986
  243SOL    HW2  750   0.583   0.105   1.886
  244SOL     OW  751   0.539   0.064   2.374
  244SOL    HW1  752   0.458   0.065   2.432
  244SOL    HW2  753   0.542   0.147   2.319
  245SOL     OW  754   1.434   1.188   1.903
  245SOL    HW1  755   1.466   1.112   1.960
  245SOL    HW2  756   1.342   1.215   1.933
  246SOL     OW  757   0.297   0.035   2.033
  246SOL    HW1  758   0.346   0.119   2.012
  246SOL    HW2  759   0.359  -0.030   2.078
  247SOL     OW  760   0.935   0.236   2.342
  247SOL    HW1  761   0.887   0.277   2.264
  247SOL    HW2  762   1.034   0.234   2.323
  248SOL     OW  763   0.459   1.152   2.603
  248SOL    HW1  764   0.388   1.125   2.668
  248SOL    HW2  765   0.433   1.124   2.510
  249SOL     OW  766   1.271   1.797   2.453
  249SOL    HW1  767   1.315   1.861   2.389
  249SOL    HW2  768   1.221   1.849   2.523
  250SOL     OW  769   1.032   0.549   1.878
  250SOL    HW1  770   0.991   0.631   1.839
  250SOL    HW2  771   1.096   0.575   1.951
  251SOL     OW  772   0.866   0.454   2.504
  251SOL    HW1  773   0.834   0.526   2.442
  251SOL    HW2  774   0.890   0.373   2.451
  252SOL     OW  775   1.017   0.039   2.615
  252SOL    HW1  776   0.945   0.044   2.546
  252SOL    HW2  777   0.993  -0.030   2.684
  253SOL     OW  778   1.857   0.833   2.239
  253SOL    HW1  779   1.899   0.769   2.303
  253SOL    HW2  780   1.819   0.782   2.161
  254SOL     OW  781   0.488   1.385   2.036
  254SOL    HW1  782   0.401   1.370   2.083
  254SOL    HW2  783   0.471   1.411   1.941
  255SOL     OW  784   1.664   1.280   2.519
  255SOL    HW1  785   1.763   1.288   2.533
  255SOL    HW2  786   1.619   1.364   2.550
  256SOL     OW  787   1.390   0.575   1.940
  256SOL    HW1  788   1.336   0.554   2.021
  256SOL    HW2  789   1.481   0.534   1.949
  257SOL     OW  790   0.527   0.256   2.190
  257SOL    HW1  791   0.554   0.197   2.115
  257SOL    HW2  792   0.527   0.351   2.159
  258SOL     OW  793   0.705   1.050   2.230
  258SOL    HW1  794   0.691   1.057   2.329
  258SOL    HW2  795   0.789   0.999   2.212
  259SOL     OW  796   0.367   1.100   2.363
  259SOL    HW1  797   0.360   1.183   2.307
  259SOL    HW2  798   0.371   1.020   2.303
  260SOL     OW  799   1.252   1.348   2.250
  260SOL    HW1  800   1.302   1.425   2.290
  260SOL    HW2  801   1.157   1.350   2.282
  261SOL     OW  802   1.582   0.639   2.334
  261SOL    HW1  803   1.551   0.700   2.407
  261SOL    HW2  804   1.632   0.691   2.265
  262SOL     OW  805   1.209   0.525   2.137
  262SOL    HW1  806   1.222   0.441   2.191
  262SOL    HW2  807   1.180   0.599   2.197
  263SOL     OW  808   0.307   0.063   2.480
  263SOL    HW1  809   0.296   0.157   2.513
  263SOL    HW2  810   0.302   0.000   2.557
  264SOL     OW  811   1.622   0.367   2.236
  264SOL    HW1  812   1.624   0.291   2.300
  264SOL    HW2  813   1.574   0.444   2.276
  265SOL     OW  814   1.540   0.274   1.987
  265SOL    HW1  815   1.479   0.199   2.010
  265SOL    HW2  816   1.562   0.326   2.070
  266SOL     OW  817   1.303   0.838   1.904
  266SOL    HW1  818   1.337   0.745   1.919
  266SOL    HW2  819   1.321   0.865   1.809
  267SOL     OW  820   0.008   1.326   2.062
  267SOL    HW1  821  -0.085   1.347   2.031
  267SOL    HW2  822   0.018   1.227   2.075
  268SOL     OW  823   0.815   0.572   2.187
  268SOL    HW1  824   0.822   0.483   2.141
  268SOL    HW2  825   0.721   0.606   2.179
  269SOL     OW  826   0.473   0.500   2.053
  269SOL    HW1  827   0.534   0.580   2.057
  269SOL    HW2  828   0.378   0.531   2.060
  270SOL     OW  829   1.302   0.855   2.171
  270SOL    HW1  830   1.216   0.824   2.213
  270SOL    HW2  831   1.298   0.841   2.072
  271SOL     OW  832   1.726   0.135   2.385
  271SOL    HW1  833   1.799   0.118   2.318
  271SOL    HW2  834   1.695   0.048   2.423
  272SOL     OW  835   1.388   1.573   2.339
  272SOL    HW1  836   1.455   1.585   2.265
  272SOL    HW2  837   1.348   1.662   2.362
  273SOL     OW  838   0.672   1.616   2.016
  273SOL    HW1  839   0.681   1.626   1.917
  273SOL    HW2  840   0.632   1.527   2.037
  274SOL     OW  841   1.841   0.175   2.825
  274SOL    HW1  842   1.880   0.090   2.789
  274SOL    HW2  843   1.743   0.177   2.806
  275SOL     OW  844   0.263   0.326   2.582
  275SOL    HW1  845   0.184   0.377   2.548
  275SOL    HW2  846   0.254   0.311   2.680
  276SOL     OW  847   1.194   1.612   1.893
  276SOL    HW1  848   1.200   1.519   1.930
  276SOL    HW2  849   1.135   1.612   1.813
  277SOL     OW  850   0.916   0.910   2.153
  277SOL    HW1  851   0.979   0.948   2.085
  277SOL    HW2  852   0.956   0.827   2.192
  278SOL     OW  853   1.504   1.607   1.906
  278SOL    HW1  854   1.412   1.644   1.913
  278SOL    HW2  855   1.542   1.627   1.816
  279SOL     OW  856   1.039   1.098   2.558
  279SOL    HW1  857   0.969   1.051   2.612
  279SOL    HW2  858   1.098   1.030   2.515
  280SOL     OW  859   0.590   1.487   2.353
  280SOL    HW1  860   0.632   1.429   2.283
  280SOL    HW2  861   0.546   1.566   2.309
  281SOL     OW  862   0.255   1.348   2.152
  281SOL    HW1  863   0.159   1.349   2.125
  281SOL    HW2  864   0.267   1.401   2.236
  282SOL     OW  865   0.075   0.345   1.895
  282SOL    HW1  866  -0.017   0.317   1.866
  282SOL    HW2  867   0.106   0.422   1.839
  283SOL     OW  868   0.072   0.166   2.180
  283SOL    HW1  869   0.055   0.249   2.126
  283SOL    HW2  870   0.162   0.129   2.158
  284SOL     OW  871   1.183   1.335   1.981
  284SOL    HW1  872   1.084   1.324   1.983
  284SOL    HW2  873   1.217   1.350   2.074
  285SOL     OW  874   1.225   0.325   2.311
  285SOL    HW1  875   1.290   0.251   2.300
  285SOL    HW2  876   1.245   0.375   2.395
  286SOL     OW  877   0.594   0.745   2.514
  286SOL    HW1  878   0.644   0.830   2.495
  286SOL    HW2  879   0.506   0.747   2.466
  287SOL     OW  880   0.859   1.374   1.878
  287SOL    HW1  881   0.813   1.389   1.966
  287SOL    HW2  882   0.903   1.459   1.848
  288SOL     OW  883   0.661   1.790   2.815
  288SOL    HW1  884   0.615   1.878   2.802
  288SOL    HW2  885   0.760   1.802   2.808
  289SOL     OW  886   0.859   0.956   2.723
  289SOL    HW1  887   0.913   0.887   2.771
  289SOL    HW2  888   0.827   1.025   2.789
  290SOL     OW  889   1.083   0.984   1.949
  290SOL    HW1  890   1.060   1.037   1.867
  290SOL    HW2  891   1.164   0.928   1.930
  291SOL     OW  892   0.079   1.240   2.515
  291SOL    HW1  893   0.078   1.193   2.603
  291SOL    HW2  894   0.161   1.212   2.464
  292SOL     OW  895   0.428   0.424   2.382
  292SOL    HW1  896   0.458   0.352   2.320
  292SOL    HW2  897   0.389   0.384   2.465
  293SOL     OW  898   1.705   1.487   2.966
  293SOL    HW1  899   1.612   1.462   2.939
  293SOL    HW2  900   1.731   1.437   3.048
  294SOL     OW  901   0.812   1.586   2.549
  294SOL    HW1  902   0.844   1.596   2.455
  294SOL    HW2  903   0.733   1.524   2.551
  295SOL     OW  904   0.770   1.330   2.163
  295SOL    HW1  905   0.724   1.243   2.180
  295SOL    HW2  906   0.861   1.327   2.204
  296SOL     OW  907   1.352   0.052   2.030
  296SOL    HW1  908   1.387   0.011   1.946
  296SOL    HW2  909   1.262   0.014   2.050
  297SOL     OW  910   1.300   0.453   2.553
  297SOL    HW1  911   1.241   0.533   2.557
  297SOL    HW2  912   1.315   0.418   2.646
  298SOL     OW  913   0.039   1.077   2.162
  298SOL    HW1  914   0.138   1.066   2.153
  298SOL    HW2  915  -0.001   0.991   2.194
  299SOL     OW  916   0.875   1.646   2.199
  299SOL    HW1  917   0.798   1.611   2.145
  299SOL    HW2  918   0.843   1.717   2.261
  300SOL     OW  919   0.230   2.490   0.113
  300SOL    HW1  920   0.137   2.488   0.150
  300SOL    HW2  921   0.231   2.451   0.021
  301SOL     OW  922   0.225   2.137   0.996
  301SOL    HW1  923   0.260   2.120   1.088
  301SOL    HW2  924   0.137   2.092   0.984
  302SOL     OW  925   0.019   2.230   0.647
  302SOL    HW1  926  -0.063   2.273   0.686
  302SOL    HW2  927  -0.009   2.157   0.584
  303SOL     OW  928   1.755   2.469   0.231
  303SOL    HW1  929   1.743   2.456   0.132
  303SOL    HW2  930   1.725   2.388   0.280
  304SOL     OW  931   0.850   2.660   1.823
  304SOL    HW1  932   0.846   2.736   1.888
  304SOL    HW2  933   0.872   2.696   1.732
  305SOL     OW  934   0.685   2.874   0.665
  305SOL    HW1  935   0.754   2.858   0.735
  305SOL    HW2  936   0.612   2.931   0.703
  306SOL     OW  937   0.438   2.254   1.499
  306SOL    HW1  938   0.520   2.198   1.508
  306SOL    HW2  939   0.357   2.196   1.503
  307SOL     OW  940   1.603   2.309   0.737
  307SOL    HW1  941   1.529   2.355   0.687
  307SOL    HW2  942   1.654   2.377   0.790
  308SOL     OW  943   1.594   1.976   1.480
  308SOL    HW1  944   1.576   2.043   1.408
  308SOL    HW2  945   1.591   2.022   1.569
  309SOL     OW  946   0.122   2.505   0.563
  309SOL    HW1  947   0.077   2.417   0.580
  309SOL    HW2  948   0.121   2.559   0.647
  310SOL     OW  949   0.113   2.599   1.597
  310SOL    HW1  950   0.201   2.586   1.642
  310SOL    HW2  951   0.100   2.696   1.575
  311SOL     OW  952   0.809   1.866   0.502
  311SOL    HW1  953   0.849   1.957   0.493
  311SOL    HW2  954   0.709   1.874   0.508
  312SOL     OW  955   0.317   2.113   1.801
  312SOL    HW1  956   0.388   2.184   1.807
  312SOL    HW2  957   0.229   2.152   1.829
  313SOL     OW  958   0.598   2.591   0.270
  313SOL    HW1  959   0.622   2.660   0.202
  313SOL    HW2  960   0.520   2.624   0.324
  314SOL     OW  961   1.281   2.207   0.944
  314SOL    HW1  962   1.195   2.157   0.931
  314SOL    HW2  963   1.343   2.153   1.000
  315SOL     OW  964   0.807   2.467   1.465
  315SOL    HW1  965   0.760   2.464   1.554
  315SOL    HW2  966   0.756   2.412   1.399
  316SOL     OW  967   1.394   2.331   1.674
  316SOL    HW1  968   1.374   2.374   1.762
  316SOL    HW2  969   1.472   2.269   1.683
  317SOL     OW  970   0.991   2.272   1.242
  317SOL    HW1  971   0.914   2.306   1.296
  317SOL    HW2  972   0.957   2.221   1.163
  318SOL     OW  973   1.041   2.563   0.429
  318SOL    HW1  974   1.067   2.559   0.525
  318SOL    HW2  975   0.956   2.512   0.415
  319SOL     OW  976   0.076   2.673   0.789
  319SOL    HW1  977   0.175   2.661   0.798
  319SOL    HW2  978   0.052   2.768   0.810
  320SOL     OW  979   0.865   2.210   0.195
  320SOL    HW1  980   0.924   2.273   0.146
  320SOL    HW2  981   0.884   2.116   0.166
  321SOL     OW  982   1.719   2.447   1.831
  321SOL    HW1  983   1.693   2.536   1.795
  321SOL    HW2  984   1.717   2.379   1.758
  322SOL     OW  985   0.550   2.058   0.885
  322SOL    HW1  986   0.545   2.053   0.985
  322SOL    HW2  987   0.552   2.154   0.856
  323SOL     OW  988   1.458   2.597   0.728
  323SOL    HW1  989   1.453   2.532   0.803
  323SOL    HW2  990   1.538   2.656   0.741
  324SOL     OW  991   0.202   2.147   1.498
  324SOL    HW1  992   0.122   2.207   1.485
  324SOL    HW2  993   0.192   2.098   1.584
  325SOL     OW  994   1.400   1.969   0.426
  325SOL    HW1  995   1.376   1.932   0.336
  325SOL    HW2  996   1.499   1.985   0.430
  326SOL     OW  997   0.382   2.562   0.480
  326SOL    HW1  998   0.427   2.472   0.477
  326SOL    HW2  999   0.288   2.551   0.513
  327SOL     OW 1000   1.547   2.084   1.729
  327SOL    HW1 1001   1.542   2.121   1.821
  327SOL    HW2 1002   1.475   2.015   1.717
  328SOL     OW 1003   0.781   2.126   1.749
  328SOL    HW1 1004   0.848   2.065   1.792
  328SOL    HW2 1005   0.708   2.145   1.814
  329SOL     OW 1006   1.351   2.452   1.433
  329SOL    HW1 1007   1.379   2.409   1.518
  329SOL    HW2 1008   1.376   2.548   1.434
  330SOL     OW 1009   0.922   2.365   0.899
  330SOL    HW1 1010   0.897   2.356   0.803
  330SOL    HW2 1011   0.970   2.283   0.930
  331SOL     OW 1012   0.539   1.926   0.512
  331SOL    HW1 1013   0.458   1.927   0.570
  331SOL    HW2 1014   0.542   2.009   0.457
  332SOL     OW 1015   0.297   1.897   0.171
  332SOL    HW1 1016   0.346   1.981   0.150
  332SOL    HW2 1017   0.359   1.832   0.216
  333SOL     OW 1018   0.935   2.098   0.480
  333SOL    HW1 1019   0.887   2.139   0.402
  333SOL    HW2 1020   1.034   2.096   0.461
  334SOL     OW 1021   1.076   2.545   1.464
  334SOL    HW1 1022   0.996   2.484   1.467
  334SOL    HW2 1023   1.157   2.492   1.440
  335SOL     OW 1024   1.032   2.411   0.016
  335SOL    HW1 1025   0.991   2.493  -0.023
  335SOL    HW2 1026   1.096   2.437   0.089
  336SOL     OW 1027   0.078   2.418   1.386
  336SOL    HW1 1028   0.170   2.417   1.345
  336SOL    HW2 1029   0.072   2.492   1.453
  337SOL     OW 1030   0.561   2.084   1.147
  337SOL    HW1 1031   0.599   2.000   1.184
  337SOL    HW2 1032   0.473   2.103   1.191
  338SOL     OW 1033   0.866   2.316   0.642
  338SOL    HW1 1034   0.834   2.388   0.580
  338SOL    HW2 1035   0.890   2.235   0.589
  339SOL     OW 1036   1.017   1.901   0.753
  339SOL    HW1 1037   0.945   1.906   0.684
  339SOL    HW2 1038   0.993   1.832   0.822
  340SOL     OW 1039   1.466   2.452   0.992
  340SOL    HW1 1040   1.436   2.357   0.999
  340SOL    HW2 1041   1.539   2.468   1.058
  341SOL     OW 1042   1.857   2.695   0.377
  341SOL    HW1 1043   1.899   2.631   0.441
  341SOL    HW2 1044   1.819   2.644   0.299
  342SOL     OW 1045   1.390   2.437   0.078
  342SOL    HW1 1046   1.336   2.416   0.159
  342SOL    HW2 1047   1.481   2.396   0.087
  343SOL     OW 1048   0.527   2.118   0.328
  343SOL    HW1 1049   0.554   2.059   0.253
  343SOL    HW2 1050   0.527   2.213   0.297
  344SOL     OW 1051   0.915   1.951   1.402
  344SOL    HW1 1052   0.940   1.931   1.307
  344SOL    HW2 1053   0.987   2.007   1.444
  345SOL     OW 1054   0.705   2.912   0.368
  345SOL    HW1 1055   0.691   2.919   0.467
  345SOL    HW2 1056   0.789   2.861   0.350
  346SOL     OW 1057   0.410   2.675   1.251
  346SOL    HW1 1058   0.496   2.687   1.301
  346SOL    HW2 1059   0.368   2.588   1.278
  347SOL     OW 1060   1.274   2.248   1.262
  347SOL    HW1 1061   1.295   2.322   1.326
  347SOL    HW2 1062   1.185   2.265   1.219
  348SOL     OW 1063   0.566   2.399   0.865
  348SOL    HW1 1064   0.578   2.465   0.791
  348SOL    HW2 1065   0.612   2.433   0.948
  349SOL     OW 1066   1.582   2.501   0.472
  349SOL    HW1 1067   1.551   2.562   0.545
  349SOL    HW2 1068   1.632   2.553   0.403
  350SOL     OW 1069   1.587   2.641   1.670
  350SOL    HW1 1070   1.495   2.679   1.665
  350SOL    HW2 1071   1.647   2.688   1.605
  351SOL     OW 1072   1.013   1.967   1.770
  351SOL    HW1 1073   1.019   2.052   1.718
  351SOL    HW2 1074   1.045   1.891   1.713
  352SOL     OW 1075   0.504   1.912   1.740
  352SOL    HW1 1076   0.462   1.855   1.670
  352SOL    HW2 1077   0.438   1.981   1.772
  353SOL     OW 1078   1.360   2.724   1.045
  353SOL    HW1 1079   1.285   2.724   0.979
  353SOL    HW2 1080   1.397   2.632   1.054
  354SOL     OW 1081   1.209   2.387   0.275
  354SOL    HW1 1082   1.222   2.303   0.329
  354SOL    HW2 1083   1.180   2.461   0.335
  355SOL     OW 1084   0.307   2.075   1.231
  355SOL    HW1 1085   0.284   2.112   1.321
  355SOL    HW2 1086   0.277   1.980   1.225
  356SOL     OW 1087   0.732   2.496   1.064
  356SOL    HW1 1088   0.791   2.470   0.988
  356SOL    HW2 1089   0.704   2.592   1.053
  357SOL     OW 1090   1.728   2.797   1.854
  357SOL    HW1 1091   1.682   2.790   1.765
  357SOL    HW2 1092   1.666   2.841   1.920
  358SOL     OW 1093   0.307   1.925   0.618
  358SOL    HW1 1094   0.296   2.019   0.651
  358SOL    HW2 1095   0.302   1.862   0.695
  359SOL     OW 1096   1.622   2.229   0.374
  359SOL    HW1 1097   1.624   2.153   0.438
  359SOL    HW2 1098   1.574   2.306   0.414
  360SOL     OW 1099   1.540   2.136   0.125
  360SOL    HW1 1100   1.479   2.061   0.148
  360SOL    HW2 1101   1.562   2.188   0.208
  361SOL     OW 1102   0.319   2.672   0.949
  361SOL    HW1 1103   0.412   2.708   0.954
  361SOL    HW2 1104   0.313   2.587   1.001
  362SOL     OW 1105   0.339   2.371   1.006
  362SOL    HW1 1106   0.287   2.288   0.989
  362SOL    HW2 1107   0.416   2.376   0.942
  363SOL     OW 1108   1.138   2.242   1.678
  363SOL    HW1 1109   1.093   2.305   1.742
  363SOL    HW2 1110   1.231   2.273   1.661
  364SOL     OW 1111   1.160   2.069   1.477
  364SOL    HW1 1112   1.160   2.133   1.554
  364SOL    HW2 1113   1.188   2.117   1.394
  365SOL     OW 1114   0.040   2.406   1.114
  365SOL    HW1 1115   0.125   2.373   1.073
  365SOL    HW2 1116   0.053   2.421   1.212
  366SOL     OW 1117   0.189   2.382   1.722
  366SOL    HW1 1118   0.248   2.342   1.652
  366SOL    HW2 1119   0.131   2.453   1.681
  367SOL     OW 1120   0.815   2.434   0.325
  367SOL    HW1 1121   0.822   2.345   0.279
  367SOL    HW2 1122   0.721   2.468   0.317
  368SOL     OW 1123   1.657   2.466   1.206
  368SOL    HW1 1124   1.619   2.397   1.268
  368SOL    HW2 1125   1.739   2.430   1.162
  369SOL     OW 1126   0.671   2.326   1.269
  369SOL    HW1 1127   0.637   2.237   1.239
  369SOL    HW2 1128   0.697   2.380   1.189
  370SOL     OW 1129   0.473   2.362   0.191
  370SOL    HW1 1130   0.534   2.442   0.195
  370SOL    HW2 1131   0.378   2.393   0.198
  371SOL     OW 1132   0.903   1.948   0.133
  371SOL    HW1 1133   0.954   1.949   0.047
  371SOL    HW2 1134   0.959   1.906   0.204
  372SOL     OW 1135   1.726   1.997   0.523
  372SOL    HW1 1136   1.799   1.980   0.456
  372SOL    HW2 1137   1.695   1.910   0.561
  373SOL     OW 1138   1.280   2.789   0.672
  373SOL    HW1 1139   1.340   2.708   0.674
  373SOL    HW2 1140   1.320   2.858   0.612
  374SOL     OW 1141   1.841   2.037   0.963
  374SOL    HW1 1142   1.880   1.952   0.927
  374SOL    HW2 1143   1.743   2.039   0.944
  375SOL     OW 1144   0.263   2.188   0.720
  375SOL    HW1 1145   0.184   2.239   0.686
  375SOL    HW2 1146   0.254   2.173   0.818
  376SOL     OW 1147   1.014   2.098   0.971
  376SOL    HW1 1148   1.006   2.062   0.878
  376SOL    HW2 1149   1.012   2.022   1.036
  377SOL     OW 1150   1.709   2.247   1.381
  377SOL    HW1 1151   1.782   2.316   1.385
  377SOL    HW2 1152   1.737   2.172   1.322
  378SOL     OW 1153   0.105   2.875   1.726
  378SOL    HW1 1154   0.028   2.842   1.780
  378SOL    HW2 1155   0.190   2.845   1.768
  379SOL     OW 1156   0.672   2.065   1.489
  379SOL    HW1 1157   0.762   2.049   1.449
  379SOL    HW2 1158   0.680   2.070   1.588
  380SOL     OW 1159   0.075   2.207   0.033
  380SOL    HW1 1160  -0.017   2.179   0.004
  380SOL    HW2 1161   0.106   2.284  -0.023
  381SOL     OW 1162   1.440   2.718   1.398
  381SOL    HW1 1163   1.383   2.770   1.335
  381SOL    HW2 1164   1.536   2.730   1.374
  382SOL     OW 1165   0.072   2.028   0.318
  382SOL    HW1 1166   0.055   2.111   0.264
  382SOL    HW2 1167   0.162   1.991   0.296
  383SOL     OW 1168   0.613   2.704   1.431
  383SOL    HW1 1169   0.669   2.785   1.414
  383SOL    HW2 1170   0.672   2.624   1.434
  384SOL     OW 1171   0.716   2.427   1.708
  384SOL    HW1 1172   0.735   2.492   1.782
  384SOL    HW2 1173   0.776   2.347   1.717
  385SOL     OW 1174   1.674   2.745   1.254
  385SOL    HW1 1175   1.647   2.656   1.217
  385SOL    HW2 1176   1.675   2.813   1.181
  386SOL     OW 1177   1.225   2.187   0.449
  386SOL    HW1 1178   1.290   2.113   0.438
  386SOL    HW2 1179   1.245   2.237   0.533
  387SOL     OW 1180   0.594   2.607   0.652
  387SOL    HW1 1181   0.644   2.692   0.633
  387SOL    HW2 1182   0.506   2.609   0.604
  388SOL     OW 1183   1.777   2.204   1.642
  388SOL    HW1 1184   1.760   2.235   1.548
  388SOL    HW2 1185   1.693   2.167   1.680
  389SOL     OW 1186   1.824   2.054   1.227
  389SOL    HW1 1187   1.820   1.964   1.271
  389SOL    HW2 1188   1.827   2.043   1.128
  390SOL     OW 1189   0.428   2.286   0.520
  390SOL    HW1 1190   0.458   2.214   0.458
  390SOL    HW2 1191   0.389   2.246   0.603
  391SOL     OW 1192   0.317   2.409   1.280
  391SOL    HW1 1193   0.355   2.350   1.352
  391SOL    HW2 1194   0.357   2.383   1.192
  392SOL     OW 1195   1.424   2.076   1.112
  392SOL    HW1 1196   1.476   2.011   1.167
  392SOL    HW2 1197   1.375   2.139   1.173
  393SOL     OW 1198   1.001   1.896   1.154
  393SOL    HW1 1199   0.938   1.824   1.123
  393SOL    HW2 1200   1.094   1.860   1.154
  394SOL     OW 1201   1.352   1.914   0.168
  394SOL    HW1 1202   1.387   1.873   0.084
  394SOL    HW2 1203   1.262   1.876   0.188
  395SOL     OW 1204   1.300   2.315   0.691
  395SOL    HW1 1205   1.241   2.395   0.695
  395SOL    HW2 1206   1.315   2.280   0.784
  396SOL     OW 1207   1.593   2.083   0.882
  396SOL    HW1 1208   1.509   2.082   0.936
  396SOL    HW2 1209   1.595   2.166   0.826
  397SOL     OW 1210   0.230   2.490   1.975
  397SOL    HW1 1211   0.137   2.488   2.012
  397SOL    HW2 1212   0.231   2.451   1.883
  398SOL     OW 1213   0.225   2.137   2.858
  398SOL    HW1 1214   0.260   2.120   2.950
  398SOL    HW2 1215   0.137   2.092   2.846
  399SOL     OW 1216   0.019   2.230   2.509
  399SOL    HW1 1217  -0.063   2.273   2.548
  399SOL    HW2 1218  -0.009   2.157   2.446
  400SOL     OW 1219   1.755   2.469   2.093
  400SOL    HW1 1220   1.743   2.456   1.994
  400SOL    HW2 1221   1.725   2.388   2.142
  401SOL     OW 1222   0.685   2.874   2.527
  401SOL    HW1 1223   0.754   2.858   2.597
  401SOL    HW2 1224   0.612   2.931   2.565
  402SOL     OW 1225   1.603   2.309   2.599
  402SOL    HW1 1226   1.529   2.355   2.549
  402SOL    HW2 1227   1.654   2.377   2.652
  403SOL     OW 1228   0.122   2.505   2.425
  403SOL    HW1 1229   0.077   2.417   2.442
  403SOL    HW2 1230   0.121   2.559   2.509
  404SOL     OW 1231   0.809   1.866   2.364
  404SOL    HW1 1232   0.849   1.957   2.355
  404SOL    HW2 1233   0.709   1.874   2.370
  405SOL     OW 1234   0.598   2.591   2.132
  405SOL    HW1 1235   0.622   2.660   2.064
  405SOL    HW2 1236   0.520   2.624   2.186
  406SOL     OW 1237   1.281   2.207   2.806
  406SOL    HW1 1238   1.195   2.157   2.793
  406SOL    HW2 1239   1.343   2.153   2.862
  407SOL     OW 1240   1.041   2.563   2.291
  407SOL    HW1 1241   1.067   2.559   2.387
  407SOL    HW2 1242   0.956   2.512   2.277
  408SOL     OW 1243   0.076   2.673   2.651
  408SOL    HW1 1244   0.175   2.661   2.660
  408SOL    HW2 1245   0.052   2.768   2.672
  409SOL     OW 1246   0.865   2.210   2.057
  409SOL    HW1 1247   0.924   2.273   2.008
  409SOL    HW2 1248   0.884   2.116   2.028
  410SOL     OW 1249   1.458   2.597   2.590
  410SOL    HW1 1250   1.453   2.532   2.665
  410SOL    HW2 1251   1.538   2.656   2.603
  411SOL     OW 1252   1.400   1.969   2.288
  411SOL    HW1 1253   1.376   1.932   2.198
  411SOL    HW2 1254   1.499   1.985   2.292
  412SOL     OW 1255   0.382   2.562   2.342
  412SOL    HW1 1256   0.427   2.472   2.339
  412SOL    HW2 1257   0.288   2.551   2.375
  413SOL     OW 1258   0.614   1.984   1.979
  413SOL    HW1 1259   0.712   1.962   1.986
  413SOL    HW2 1260   0.583   1.967   1.886
  414SOL     OW 1261   0.539   1.926   2.374
  414SOL    HW1 1262   0.458   1.927   2.432
  414SOL    HW2 1263   0.542   2.009   2.319
  415SOL     OW 1264   0.297   1.897   2.033
  415SOL    HW1 1265   0.346   1.981   2.012
  415SOL    HW2 1266   0.359   1.832   2.078
  416SOL     OW 1267   0.935   2.098   2.342
  416SOL    HW1 1268   0.887   2.139   2.264
  416SOL    HW2 1269   1.034   2.096   2.323
  417SOL     OW 1270   1.032   2.411   1.878
  417SOL    HW1 1271   0.991   2.493   1.839
  417SOL    HW2 1272   1.096   2.437   1.951
  418SOL     OW 1273   0.866   2.316   2.504
  418SOL    HW1 1274   0.834   2.388   2.442
  418SOL    HW2 1275   0.890   2.235   2.451
  419SOL     OW 1276   1.017   1.901   2.615
  419SOL    HW1 1277   0.945   1.906   2.546
  419SOL    HW2 1278   0.993   1.832   2.684
  420SOL     OW 1279   1.857   2.695   2.239
  420SOL    HW1 1280   1.899   2.631   2.303
  420SOL    HW2 1281   1.819   2.644   2.161
  421SOL     OW 1282   1.390   2.437   1.940
  421SOL    HW1 1283   1.336   2.416   2.021
  421SOL    HW2 1284   1.481   2.396   1.949
  422SOL     OW 1285   0.527   2.118   2.190
  422SOL    HW1 1286   0.554   2.059   2.115
  422SOL    HW2 1287   0.527   2.213   2.159
  423SOL     OW 1288   0.705   2.912   2.230
  423SOL    HW1 1289   0.691   2.919   2.329
  423SOL    HW2 1290   0.789   2.861   2.212
  424SOL     OW 1291   1.582   2.501   2.334
  424SOL    HW1 1292   1.551   2.562   2.407
  424SOL    HW2 1293   1.632   2.553   2.265
  425SOL     OW 1294   1.209   2.387   2.137
  425SOL    HW1 1295   1.222   2.303   2.191
  425SOL    HW2 1296   1.180   2.461   2.197
  426SOL     OW 1297   0.307   1.925   2.480
  426SOL    HW1 1298   0.296   2.019   2.513
  426SOL    HW2 1299   0.302   1.862   2.557
  427SOL     OW 1300   1.622   2.229   2.236
  427SOL    HW1 1301   1.624   2.153   2.300
  427SOL    HW2 1302   1.574   2.306   2.276
  428SOL     OW 1303   1.540   2.136   1.987
  428SOL    HW1 1304   1.479   2.061   2.010
  428SOL    HW2 1305   1.562   2.188   2.070
  429SOL     OW 1306   0.815   2.434   2.187
  429SOL    HW1 1307   0.822   2.345   2.141
  429SOL    HW2 1308   0.721   2.468   2.179
  430SOL     OW 1309   0.473   2.362   2.053
  430SOL    HW1 1310   0.534   2.442   2.057
  430SOL    HW2 1311   0.378   2.393   2.060
  431SOL     OW 1312   1.726   1.997   2.385
  431SOL    HW1 1313   1.799   1.980   2.318
  431SOL    HW2 1314   1.695   1.910   2.423
  432SOL     OW 1315   1.280   2.789   2.534
  432SOL    HW1 1316   1.340   2.708   2.536
  432SOL    HW2 1317   1.320   2.858   2.474
  433SOL     OW 1318   1.841   2.037   2.825
  433SOL    HW1 1319   1.880   1.952   2.789
  433SOL    HW2 1320   1.743   2.039   2.806
  434SOL     OW 1321   0.263   2.188   2.582
  434SOL    HW1 1322   0.184   2.239   2.548
  434SOL    HW2 1323   0.254   2.173   2.680
  435SOL     OW 1324   0.916   2.772   2.153
  435SOL    HW1 1325   0.979   2.810   2.085
  435SOL    HW2 1326   0.956   2.689   2.192
  436SOL     OW 1327   1.039   2.960   2.558
  436SOL    HW1 1328   0.969   2.913   2.612
  436SOL    HW2 1329   1.098   2.892   2.515
  437SOL     OW 1330   0.075   2.207   1.895
  437SOL    HW1 1331  -0.017   2.179   1.866
  437SOL    HW2 1332   0.106   2.284   1.839
  438SOL     OW 1333   0.072   2.028   2.180
  438SOL    HW1 1334   0.055   2.111   2.126
  438SOL    HW2 1335   0.162   1.991   2.158
  439SOL     OW 1336   1.225   2.187   2.311
  439SOL    HW1 1337   1.290   2.113   2.300
  439SOL    HW2 1338   1.245   2.237   2.395
  440SOL     OW 1339   0.594   2.607   2.514
  440SOL    HW1 1340   0.644   2.692   2.495
  440SOL    HW2 1341   0.506   2.609   2.466
  441SOL     OW 1342   0.428   2.286   2.382
  441SOL    HW1 1343   0.458   2.214   2.320
  441SOL    HW2 1344   0.389   2.246   2.465
  442SOL     OW 1345   1.352   1.914   2.030
  442SOL    HW1 1346   1.387   1.873   1.946
  442SOL    HW2 1347   1.262   1.876   2.050
  443SOL     OW 1348   1.300   2.315   2.553
  443SOL    HW1 1349   1.241   2.395   2.557
  443SOL    HW2 1350   1.315   2.280   2.646
  444SOL     OW 1351   2.092   0.628   0.113
  444SOL    HW1 1352   1.999   0.626   0.150
  444SOL    HW2 1353   2.093   0.589   0.021
  445SOL     OW 1354   2.087   0.275   0.996
  445SOL    HW1 1355   2.122   0.258   1.088
  445SOL    HW2 1356   1.999   0.230   0.984
  446SOL     OW 1357   1.881   0.368   0.647
  446SOL    HW1 1358   1.799   0.411   0.686
  446SOL    HW2 1359   1.853   0.295   0.584
  447SOL     OW 1360   2.431   1.275   1.165
  447SOL    HW1 1361   2.338   1.268   1.128
  447SOL    HW2 1362   2.442   1.364   1.209
  448SOL     OW 1363   2.712   0.798   1.823
  448SOL    HW1 1364   2.708   0.874   1.888
  448SOL    HW2 1365   2.734   0.834   1.732
  449SOL     OW 1366   2.547   1.012   0.665
  449SOL    HW1 1367   2.616   0.996   0.735
  449SOL    HW2 1368   2.474   1.069   0.703
  450SOL     OW 1369   2.548   1.161   1.803
  450SOL    HW1 1370   2.608   1.240   1.817
  450SOL    HW2 1371   2.462   1.192   1.762
  451SOL     OW 1372   2.197   1.435   1.061
  451SOL    HW1 1373   2.119   1.404   1.008
  451SOL    HW2 1374   2.255   1.493   1.004
  452SOL     OW 1375   2.300   0.392   1.499
  452SOL    HW1 1376   2.382   0.336   1.508
  452SOL    HW2 1377   2.219   0.334   1.503
  453SOL     OW 1378   2.093   1.713   0.483
  453SOL    HW1 1379   2.127   1.790   0.537
  453SOL    HW2 1380   2.137   1.713   0.393
  454SOL     OW 1381   2.092   1.434   0.538
  454SOL    HW1 1382   2.066   1.530   0.538
  454SOL    HW2 1383   2.021   1.380   0.583
  455SOL     OW 1384   2.102   1.091   0.886
  455SOL    HW1 1385   2.116   1.007   0.938
  455SOL    HW2 1386   2.047   1.155   0.941
  456SOL     OW 1387   2.482   1.786   1.439
  456SOL    HW1 1388   2.390   1.769   1.474
  456SOL    HW2 1389   2.510   1.878   1.465
  457SOL     OW 1390   2.468   0.964   0.123
  457SOL    HW1 1391   2.475   1.048   0.069
  457SOL    HW2 1392   2.514   0.977   0.211
  458SOL     OW 1393   1.984   0.643   0.563
  458SOL    HW1 1394   1.939   0.555   0.580
  458SOL    HW2 1395   1.983   0.697   0.647
  459SOL     OW 1396   1.889   1.596   0.117
  459SOL    HW1 1397   1.870   1.500   0.138
  459SOL    HW2 1398   1.856   1.654   0.192
  460SOL     OW 1399   1.975   0.737   1.597
  460SOL    HW1 1400   2.063   0.724   1.642
  460SOL    HW2 1401   1.962   0.834   1.575
  461SOL     OW 1402   2.475   1.365   0.726
  461SOL    HW1 1403   2.426   1.278   0.735
  461SOL    HW2 1404   2.452   1.408   0.639
  462SOL     OW 1405   2.671   0.004   0.502
  462SOL    HW1 1406   2.711   0.095   0.493
  462SOL    HW2 1407   2.571   0.012   0.508
  463SOL     OW 1408   2.059   0.976   1.264
  463SOL    HW1 1409   2.148   0.931   1.250
  463SOL    HW2 1410   1.986   0.911   1.245
  464SOL     OW 1411   2.179   0.251   1.801
  464SOL    HW1 1412   2.250   0.322   1.807
  464SOL    HW2 1413   2.091   0.290   1.829
  465SOL     OW 1414   2.460   0.729   0.270
  465SOL    HW1 1415   2.484   0.798   0.202
  465SOL    HW2 1416   2.382   0.762   0.324
  466SOL     OW 1417   1.938   0.811   0.789
  466SOL    HW1 1418   2.037   0.799   0.798
  466SOL    HW2 1419   1.914   0.906   0.810
  467SOL     OW 1420   1.992   1.821   1.571
  467SOL    HW1 1421   1.982   1.806   1.670
  467SOL    HW2 1422   1.906   1.857   1.535
  468SOL     OW 1423   2.412   0.196   0.885
  468SOL    HW1 1424   2.407   0.191   0.985
  468SOL    HW2 1425   2.414   0.292   0.856
  469SOL     OW 1426   2.213   1.801   0.853
  469SOL    HW1 1427   2.263   1.715   0.859
  469SOL    HW2 1428   2.278   1.878   0.850
  470SOL     OW 1429   2.183   0.943   0.242
  470SOL    HW1 1430   2.265   0.982   0.200
  470SOL    HW2 1431   2.156   0.861   0.193
  471SOL     OW 1432   2.323   1.266   1.727
  471SOL    HW1 1433   2.273   1.267   1.641
  471SOL    HW2 1434   2.260   1.248   1.803
  472SOL     OW 1435   2.064   0.285   1.498
  472SOL    HW1 1436   1.984   0.345   1.485
  472SOL    HW2 1437   2.054   0.236   1.584
  473SOL     OW 1438   2.326   1.743   0.323
  473SOL    HW1 1439   2.359   1.782   0.409
  473SOL    HW2 1440   2.402   1.736   0.258
  474SOL     OW 1441   2.111   1.785   1.241
  474SOL    HW1 1442   2.168   1.720   1.291
  474SOL    HW2 1443   2.095   1.752   1.148
  475SOL     OW 1444   2.244   0.700   0.480
  475SOL    HW1 1445   2.289   0.610   0.477
  475SOL    HW2 1446   2.150   0.689   0.513
  476SOL     OW 1447   2.476   0.122   0.117
  476SOL    HW1 1448   2.574   0.100   0.124
  476SOL    HW2 1449   2.445   0.105   0.024
  477SOL     OW 1450   2.665   1.402   0.924
  477SOL    HW1 1451   2.755   1.416   0.882
  477SOL    HW2 1452   2.594   1.404   0.853
  478SOL     OW 1453   2.784   0.503   0.899
  478SOL    HW1 1454   2.759   0.494   0.803
  478SOL    HW2 1455   2.832   0.421   0.930
  479SOL     OW 1456   2.401   0.064   0.512
  479SOL    HW1 1457   2.320   0.065   0.570
  479SOL    HW2 1458   2.404   0.147   0.457
  480SOL     OW 1459   2.159   0.035   0.171
  480SOL    HW1 1460   2.208   0.119   0.150
  480SOL    HW2 1461   2.221  -0.030   0.216
  481SOL     OW 1462   2.321   1.152   0.741
  481SOL    HW1 1463   2.250   1.125   0.806
  481SOL    HW2 1464   2.295   1.124   0.648
  482SOL     OW 1465   1.940   0.556   1.386
  482SOL    HW1 1466   2.032   0.555   1.345
  482SOL    HW2 1467   1.934   0.630   1.453
  483SOL     OW 1468   2.423   0.222   1.147
  483SOL    HW1 1469   2.461   0.138   1.184
  483SOL    HW2 1470   2.335   0.241   1.191
  484SOL     OW 1471   2.350   1.385   0.174
  484SOL    HW1 1472   2.263   1.370   0.221
  484SOL    HW2 1473   2.333   1.411   0.079
  485SOL     OW 1474   2.389   0.256   0.328
  485SOL    HW1 1475   2.416   0.197   0.253
  485SOL    HW2 1476   2.389   0.351   0.297
  486SOL     OW 1477   2.777   0.089   1.402
  486SOL    HW1 1478   2.802   0.069   1.307
  486SOL    HW2 1479   2.849   0.145   1.444
  487SOL     OW 1480   2.272   0.813   1.251
  487SOL    HW1 1481   2.358   0.825   1.301
  487SOL    HW2 1482   2.230   0.726   1.278
  488SOL     OW 1483   1.926   1.564   1.331
  488SOL    HW1 1484   1.880   1.646   1.297
  488SOL    HW2 1485   2.024   1.583   1.340
  489SOL     OW 1486   2.229   1.100   0.501
  489SOL    HW1 1487   2.222   1.183   0.445
  489SOL    HW2 1488   2.233   1.020   0.441
  490SOL     OW 1489   2.428   0.537   0.865
  490SOL    HW1 1490   2.440   0.603   0.791
  490SOL    HW2 1491   2.474   0.571   0.948
  491SOL     OW 1492   2.216   1.510   1.329
  491SOL    HW1 1493   2.195   1.466   1.242
  491SOL    HW2 1494   2.313   1.536   1.332
  492SOL     OW 1495   2.264   0.751   1.598
  492SOL    HW1 1496   2.332   0.806   1.551
  492SOL    HW2 1497   2.304   0.663   1.625
  493SOL     OW 1498   2.366   0.050   1.740
  493SOL    HW1 1499   2.324  -0.007   1.670
  493SOL    HW2 1500   2.300   0.119   1.772
  494SOL     OW 1501   2.435   0.870   1.029
  494SOL    HW1 1502   2.479   0.959   1.020
  494SOL    HW2 1503   2.372   0.870   1.106
  495SOL     OW 1504   2.169   0.213   1.231
  495SOL    HW1 1505   2.146   0.250   1.321
  495SOL    HW2 1506   2.139   0.118   1.225
  496SOL     OW 1507   1.899   1.310   1.282
  496SOL    HW1 1508   1.952   1.261   1.350
  496SOL    HW2 1509   1.921   1.408   1.287
  497SOL     OW 1510   2.594   0.634   1.064
  497SOL    HW1 1511   2.653   0.608   0.988
  497SOL    HW2 1512   2.566   0.730   1.053
  498SOL     OW 1513   2.169   0.063   0.618
  498SOL    HW1 1514   2.158   0.157   0.651
  498SOL    HW2 1515   2.164   0.000   0.695
  499SOL     OW 1516   2.212   0.898   1.804
  499SOL    HW1 1517   2.288   0.942   1.852
  499SOL    HW2 1518   2.247   0.851   1.722
  500SOL     OW 1519   2.930   1.333   0.849
  500SOL    HW1 1520   2.937   1.249   0.794
  500SOL    HW2 1521   2.992   1.402   0.813
  501SOL     OW 1522   2.181   0.810   0.949
  501SOL    HW1 1523   2.274   0.846   0.954
  501SOL    HW2 1524   2.175   0.725   1.001
  502SOL     OW 1525   2.201   0.509   1.006
  502SOL    HW1 1526   2.149   0.426   0.989
  502SOL    HW2 1527   2.278   0.514   0.942
  503SOL     OW 1528   1.870   1.326   0.200
  503SOL    HW1 1529   1.777   1.347   0.169
  503SOL    HW2 1530   1.880   1.227   0.213
  504SOL     OW 1531   1.950   1.801   0.927
  504SOL    HW1 1532   1.908   1.715   0.900
  504SOL    HW2 1533   2.044   1.804   0.893
  505SOL     OW 1534   2.366   1.568   0.910
  505SOL    HW1 1535   2.432   1.642   0.919
  505SOL    HW2 1536   2.410   1.489   0.868
  506SOL     OW 1537   1.902   0.544   1.114
  506SOL    HW1 1538   1.987   0.511   1.073
  506SOL    HW2 1539   1.915   0.559   1.212
  507SOL     OW 1540   2.051   0.520   1.722
  507SOL    HW1 1541   2.110   0.480   1.652
  507SOL    HW2 1542   1.993   0.591   1.681
  508SOL     OW 1543   2.677   0.572   0.325
  508SOL    HW1 1544   2.684   0.483   0.279
  508SOL    HW2 1545   2.583   0.606   0.317
  509SOL     OW 1546   2.114   1.564   1.744
  509SOL    HW1 1547   2.084   1.621   1.820
  509SOL    HW2 1548   2.107   1.467   1.770
  510SOL     OW 1549   2.533   0.464   1.269
  510SOL    HW1 1550   2.499   0.375   1.239
  510SOL    HW2 1551   2.559   0.518   1.189
  511SOL     OW 1552   2.335   0.500   0.191
  511SOL    HW1 1553   2.396   0.580   0.195
  511SOL    HW2 1554   2.240   0.531   0.198
  512SOL     OW 1555   2.021   1.137   1.466
  512SOL    HW1 1556   2.043   1.076   1.542
  512SOL    HW2 1557   2.031   1.088   1.380
  513SOL     OW 1558   1.945   1.258   1.022
  513SOL    HW1 1559   1.940   1.257   1.122
  513SOL    HW2 1560   1.862   1.217   0.984
  514SOL     OW 1561   2.550   1.662   1.716
  514SOL    HW1 1562   2.494   1.743   1.725
  514SOL    HW2 1563   2.602   1.666   1.630
  515SOL     OW 1564   1.992   1.794   1.851
  515SOL    HW1 1565   1.951   1.720   1.904
  515SOL    HW2 1566   2.056   1.845   1.909
  516SOL     OW 1567   2.534   1.616   0.154
  516SOL    HW1 1568   2.543   1.626   0.055
  516SOL    HW2 1569   2.494   1.527   0.175
  517SOL     OW 1570   2.125   0.326   0.720
  517SOL    HW1 1571   2.046   0.377   0.686
  517SOL    HW2 1572   2.116   0.311   0.818
  518SOL     OW 1573   2.684   1.002   1.372
  518SOL    HW1 1574   2.724   1.001   1.280
  518SOL    HW2 1575   2.694   1.094   1.412
  519SOL     OW 1576   2.234   1.288   1.490
  519SOL    HW1 1577   2.221   1.381   1.456
  519SOL    HW2 1578   2.150   1.236   1.477
  520SOL     OW 1579   2.452   1.487   0.491
  520SOL    HW1 1580   2.494   1.429   0.421
  520SOL    HW2 1581   2.408   1.566   0.447
  521SOL     OW 1582   2.117   1.348   0.290
  521SOL    HW1 1583   2.021   1.349   0.263
  521SOL    HW2 1584   2.129   1.401   0.374
  522SOL     OW 1585   1.967   1.013   1.726
  522SOL    HW1 1586   1.890   0.980   1.780
  522SOL    HW2 1587   2.052   0.983   1.768
  523SOL     OW 1588   2.534   0.203   1.489
  523SOL    HW1 1589   2.624   0.187   1.449
  523SOL    HW2 1590   2.542   0.208   1.588
  524SOL     OW 1591   1.937   0.345   0.033
  524SOL    HW1 1592   1.845   0.317   0.004
  524SOL    HW2 1593   1.968   0.422  -0.023
  525SOL     OW 1594   1.934   0.166   0.318
  525SOL    HW1 1595   1.917   0.249   0.264
  525SOL    HW2 1596   2.024   0.129   0.296
  526SOL     OW 1597   2.475   0.842   1.431
  526SOL    HW1 1598   2.531   0.923   1.414
  526SOL    HW2 1599   2.534   0.762   1.434
  527SOL     OW 1600   2.578   0.565   1.708
  527SOL    HW1 1601   2.597   0.630   1.782
  527SOL    HW2 1602   2.638   0.485   1.717
  528SOL     OW 1603   2.252   1.741   1.560
  528SOL    HW1 1604   2.161   1.782   1.558
  528SOL    HW2 1605   2.245   1.647   1.592
  529SOL     OW 1606   2.456   0.745   0.652
  529SOL    HW1 1607   2.506   0.830   0.633
  529SOL    HW2 1608   2.368   0.747   0.604
  530SOL     OW 1609   2.523   1.790   0.953
  530SOL    HW1 1610   2.477   1.878   0.940
  530SOL    HW2 1611   2.622   1.802   0.946
  531SOL     OW 1612   2.083   1.314   1.844
  531SOL    HW1 1613   2.018   1.241   1.823
  531SOL    HW2 1614   2.087   1.328   1.942
  532SOL     OW 1615   1.941   1.240   0.653
  532SOL    HW1 1616   1.940   1.193   0.741
  532SOL    HW2 1617   2.023   1.212   0.602
  533SOL     OW 1618   2.534   1.391   1.624
  533SOL    HW1 1619   2.456   1.341   1.662
  533SOL    HW2 1620   2.531   1.486   1.655
  534SOL     OW 1621   2.290   0.424   0.520
  534SOL    HW1 1622   2.320   0.352   0.458
  534SOL    HW2 1623   2.251   0.384   0.603
  535SOL     OW 1624   2.179   0.547   1.280
  535SOL    HW1 1625   2.217   0.488   1.352
  535SOL    HW2 1626   2.219   0.521   1.192
  536SOL     OW 1627   2.674   1.586   0.687
  536SOL    HW1 1628   2.706   1.596   0.593
  536SOL    HW2 1629   2.595   1.524   0.689
  537SOL     OW 1630   2.863   0.034   1.154
  537SOL    HW1 1631   2.800  -0.038   1.123
  537SOL    HW2 1632   2.956  -0.002   1.154
  538SOL     OW 1633   2.480   1.567   1.284
  538SOL    HW1 1634   2.475   1.649   1.341
  538SOL    HW2 1635   2.569   1.564   1.239
  539SOL     OW 1636   1.901   1.077   0.300
  539SOL    HW1 1637   2.000   1.066   0.291
  539SOL    HW2 1638   1.861   0.991   0.332
  540SOL     OW 1639   2.092   0.628   1.975
  540SOL    HW1 1640   1.999   0.626   2.012
  540SOL    HW2 1641   2.093   0.589   1.883
  541SOL     OW 1642   2.087   0.275   2.858
  541SOL    HW1 1643   2.122   0.258   2.950
  541SOL    HW2 1644   1.999   0.230   2.846
  542SOL     OW 1645   1.881   0.368   2.509
  542SOL    HW1 1646   1.799   0.411   2.548
  542SOL    HW2 1647   1.853   0.295   2.446
  543SOL     OW 1648   2.547   1.012   2.527
  543SOL    HW1 1649   2.616   0.996   2.597
  543SOL    HW2 1650   2.474   1.069   2.565
  544SOL     OW 1651   2.093   1.713   2.345
  544SOL    HW1 1652   2.127   1.790   2.399
  544SOL    HW2 1653   2.137   1.713   2.255
  545SOL     OW 1654   2.092   1.434   2.400
  545SOL    HW1 1655   2.066   1.530   2.400
  545SOL    HW2 1656   2.021   1.380   2.445
  546SOL     OW 1657   2.102   1.091   2.748
  546SOL    HW1 1658   2.116   1.007   2.800
  546SOL    HW2 1659   2.047   1.155   2.803
  547SOL     OW 1660   2.468   0.964   1.985
  547SOL    HW1 1661   2.475   1.048   1.931
  547SOL    HW2 1662   2.514   0.977   2.073
  548SOL     OW 1663   1.984   0.643   2.425
  548SOL    HW1 1664   1.939   0.555   2.442
  548SOL    HW2 1665   1.983   0.697   2.509
  549SOL     OW 1666   1.889   1.596   1.979
  549SOL    HW1 1667   1.870   1.500   2.000
  549SOL    HW2 1668   1.856   1.654   2.054
  550SOL     OW 1669   2.475   1.365   2.588
  550SOL    HW1 1670   2.426   1.278   2.597
  550SOL    HW2 1671   2.452   1.408   2.501
  551SOL     OW 1672   2.671   0.004   2.364
  551SOL    HW1 1673   2.711   0.095   2.355
  551SOL    HW2 1674   2.571   0.012   2.370
  552SOL     OW 1675   2.460   0.729   2.132
  552SOL    HW1 1676   2.484   0.798   2.064
  552SOL    HW2 1677   2.382   0.762   2.186
  553SOL     OW 1678   1.938   0.811   2.651
  553SOL    HW1 1679   2.037   0.799   2.660
  553SOL    HW2 1680   1.914   0.906   2.672
  554SOL     OW 1681   2.213   1.801   2.715
  554SOL    HW1 1682   2.263   1.715   2.721
  554SOL    HW2 1683   2.278   1.878   2.712
  555SOL     OW 1684   2.183   0.943   2.104
  555SOL    HW1 1685   2.265   0.982   2.062
  555SOL    HW2 1686   2.156   0.861   2.055
  556SOL     OW 1687   2.326   1.743   2.185
  556SOL    HW1 1688   2.359   1.782   2.271
  556SOL    HW2 1689   2.402   1.736   2.120
  557SOL     OW 1690   2.244   0.700   2.342
  557SOL    HW1 1691   2.289   0.610   2.339
  557SOL    HW2 1692   2.150   0.689   2.375
  558SOL     OW 1693   2.476   0.122   1.979
  558SOL    HW1 1694   2.574   0.100   1.986
  558SOL    HW2 1695   2.445   0.105   1.886
  559SOL     OW 1696   2.401   0.064   2.374
  559SOL    HW1 1697   2.320   0.065   2.432
  559SOL    HW2 1698   2.404   0.147   2.319
  560SOL     OW 1699   2.159   0.035   2.033
  560SOL    HW1 1700   2.208   0.119   2.012
  560SOL    HW2 1701   2.221  -0.030   2.078
  561SOL     OW 1702   2.321   1.152   2.603
  561SOL    HW1 1703   2.250   1.125   2.668
  561SOL    HW2 1704   2.295   1.124   2.510
  562SOL     OW 1705   2.350   1.385   2.036
  562SOL    HW1 1706   2.263   1.370   2.083
  562SOL    HW2 1707   2.333   1.411   1.941
  563SOL     OW 1708   2.389   0.256   2.190
  563SOL    HW1 1709   2.416   0.197   2.115
  563SOL    HW2 1710   2.389   0.351   2.159
  564SOL     OW 1711   2.229   1.100   2.363
  564SOL    HW1 1712   2.222   1.183   2.307
  564SOL    HW2 1713   2.233   1.020   2.303
  565SOL     OW 1714   2.169   0.063   2.480
  565SOL    HW1 1715   2.158   0.157   2.513
  565SOL    HW2 1716   2.164   0.000   2.557
  566SOL     OW 1717   2.930   1.333   2.711
  566SOL    HW1 1718   2.937   1.249   2.656
  566SOL    HW2 1719   2.992   1.402   2.675
  567SOL     OW 1720   1.870   1.326   2.062
  567SOL    HW1 1721   1.777   1.347   2.031
  567SOL    HW2 1722   1.880   1.227   2.075
  568SOL     OW 1723   2.677   0.572   2.187
  568SOL    HW1 1724   2.684   0.483   2.141
  568SOL    HW2 1725   2.583   0.606   2.179
  569SOL     OW 1726   2.335   0.500   2.053
  569SOL    HW1 1727   2.396   0.580   2.057
  569SOL    HW2 1728   2.240   0.531   2.060
  570SOL     OW 1729   2.765   0.086   1.995
  570SOL    HW1 1730   2.816   0.087   1.909
  570SOL    HW2 1731   2.821   0.044   2.066
  571SOL     OW 1732   2.534   1.616   2.016
  571SOL    HW1 1733   2.543   1.626   1.917
  571SOL    HW2 1734   2.494   1.527   2.037
  572SOL     OW 1735   2.125   0.326   2.582
  572SOL    HW1 1736   2.046   0.377   2.548
  572SOL    HW2 1737   2.116   0.311   2.680
  573SOL     OW 1738   2.452   1.487   2.353
  573SOL    HW1 1739   2.494   1.429   2.283
  573SOL    HW2 1740   2.408   1.566   2.309
  574SOL     OW 1741   2.117   1.348   2.152
  574SOL    HW1 1742   2.021   1.349   2.125
  574SOL    HW2 1743   2.129   1.401   2.236
  575SOL     OW 1744   1.937   0.345   1.895
  575SOL    HW1 1745   1.845   0.317   1.866
  575SOL    HW2 1746   1.968   0.422   1.839
  576SOL     OW 1747   1.934   0.166   2.180
  576SOL    HW1 1748   1.917   0.249   2.126
  576SOL    HW2 1749   2.024   0.129   2.158
  577SOL     OW 1750   2.456   0.745   2.514
  577SOL    HW1 1751   2.506   0.830   2.495
  577SOL    HW2 1752   2.368   0.747   2.466
  578SOL     OW 1753   2.523   1.790   2.815
  578SOL    HW1 1754   2.477   1.878   2.802
  578SOL    HW2 1755   2.622   1.802   2.808
  579SOL     OW 1756   1.941   1.240   2.515
  579SOL    HW1 1757   1.940   1.193   2.603
  579SOL    HW2 1758   2.023   1.212   2.464
  580SOL     OW 1759   2.290   0.424   2.382
  580SOL    HW1 1760   2.320   0.352   2.320
  580SOL    HW2 1761   2.251   0.384   2.465
  581SOL     OW 1762   2.674   1.586   2.549
  581SOL    HW1 1763   2.706   1.596   2.455
  581SOL    HW2 1764   2.595   1.524   2.551
  582SOL     OW 1765   1.901   1.077   2.162
  582SOL    HW1 1766   2.000   1.066   2.153
  582SOL    HW2 1767   1.861   0.991   2.194
  583SOL     OW 1768   2.092   2.490   0.113
  583SOL    HW1 1769   1.999   2.488   0.150
  583SOL    HW2 1770   2.093   2.451   0.021
  584SOL     OW 1771   2.087   2.137   0.996
  584SOL    HW1 1772   2.122   2.120   1.088
  584SOL    HW2 1773   1.999   2.092   0.984
  585SOL     OW 1774   1.881   2.230   0.647
  585SOL    HW1 1775   1.799   2.273   0.686
  585SOL    HW2 1776   1.853   2.157   0.584
  586SOL     OW 1777   2.547   2.874   0.665
  586SOL    HW1 1778   2.616   2.858   0.735
  586SOL    HW2 1779   2.474   2.931   0.703
  587SOL     OW 1780   2.300   2.254   1.499
  587SOL    HW1 1781   2.382   2.198   1.508
  587SOL    HW2 1782   2.219   2.196   1.503
  588SOL     OW 1783   1.984   2.505   0.563
  588SOL    HW1 1784   1.939   2.417   0.580
  588SOL    HW2 1785   1.983   2.559   0.647
  589SOL     OW 1786   1.975   2.599   1.597
  589SOL    HW1 1787   2.063   2.586   1.642
  589SOL    HW2 1788   1.962   2.696   1.575
  590SOL     OW 1789   2.671   1.866   0.502
  590SOL    HW1 1790   2.711   1.957   0.493
  590SOL    HW2 1791   2.571   1.874   0.508
  591SOL     OW 1792   2.179   2.113   1.801
  591SOL    HW1 1793   2.250   2.184   1.807
  591SOL    HW2 1794   2.091   2.152   1.829
  592SOL     OW 1795   2.460   2.591   0.270
  592SOL    HW1 1796   2.484   2.660   0.202
  592SOL    HW2 1797   2.382   2.624   0.324
  593SOL     OW 1798   2.412   2.058   0.885
  593SOL    HW1 1799   2.407   2.053   0.985
  593SOL    HW2 1800   2.414   2.154   0.856
  594SOL     OW 1801   2.064   2.147   1.498
  594SOL    HW1 1802   1.984   2.207   1.485
  594SOL    HW2 1803   2.054   2.098   1.584
  595SOL     OW 1804   2.244   2.562   0.480
  595SOL    HW1 1805   2.289   2.472   0.477
  595SOL    HW2 1806   2.150   2.551   0.513
  596SOL     OW 1807   2.784   2.365   0.899
  596SOL    HW1 1808   2.759   2.356   0.803
  596SOL    HW2 1809   2.832   2.283   0.930
  597SOL     OW 1810   2.401   1.926   0.512
  597SOL    HW1 1811   2.320   1.927   0.570
  597SOL    HW2 1812   2.404   2.009   0.457
  598SOL     OW 1813   2.159   1.897   0.171
  598SOL    HW1 1814   2.208   1.981   0.150
  598SOL    HW2 1815   2.221   1.832   0.216
  599SOL     OW 1816   1.940   2.418   1.386
  599SOL    HW1 1817   2.032   2.417   1.345
  599SOL    HW2 1818   1.934   2.492   1.453
  600SOL     OW 1819   2.423   2.084   1.147
  600SOL    HW1 1820   2.461   2.000   1.184
  600SOL    HW2 1821   2.335   2.103   1.191
  601SOL     OW 1822   2.389   2.118   0.328
  601SOL    HW1 1823   2.416   2.059   0.253
  601SOL    HW2 1824   2.389   2.213   0.297
  602SOL     OW 1825   2.777   1.951   1.402
  602SOL    HW1 1826   2.802   1.931   1.307
  602SOL    HW2 1827   2.849   2.007   1.444
  603SOL     OW 1828   2.272   2.675   1.251
  603SOL    HW1 1829   2.358   2.687   1.301
  603SOL    HW2 1830   2.230   2.588   1.278
  604SOL     OW 1831   2.428   2.399   0.865
  604SOL    HW1 1832   2.440   2.465   0.791
  604SOL    HW2 1833   2.474   2.433   0.948
  605SOL     OW 1834   2.366   1.912   1.740
  605SOL    HW1 1835   2.324   1.855   1.670
  605SOL    HW2 1836   2.300   1.981   1.772
  606SOL     OW 1837   2.169   2.075   1.231
  606SOL    HW1 1838   2.146   2.112   1.321
  606SOL    HW2 1839   2.139   1.980   1.225
  607SOL     OW 1840   2.594   2.496   1.064
  607SOL    HW1 1841   2.653   2.470   0.988
  607SOL    HW2 1842   2.566   2.592   1.053
  608SOL     OW 1843   2.169   1.925   0.618
  608SOL    HW1 1844   2.158   2.019   0.651
  608SOL    HW2 1845   2.164   1.862   0.695
  609SOL     OW 1846   2.181   2.672   0.949
  609SOL    HW1 1847   2.274   2.708   0.954
  609SOL    HW2 1848   2.175   2.587   1.001
  610SOL     OW 1849   2.201   2.371   1.006
  610SOL    HW1 1850   2.149   2.288   0.989
  610SOL    HW2 1851   2.278   2.376   0.942
  611SOL     OW 1852   1.902   2.406   1.114
  611SOL    HW1 1853   1.987   2.373   1.073
  611SOL    HW2 1854   1.915   2.421   1.212
  612SOL     OW 1855   2.051   2.382   1.722
  612SOL    HW1 1856   2.110   2.342   1.652
  612SOL    HW2 1857   1.993   2.453   1.681
  613SOL     OW 1858   2.677   2.434   0.325
  613SOL    HW1 1859   2.684   2.345   0.279
  613SOL    HW2 1860   2.583   2.468   0.317
  614SOL     OW 1861   2.533   2.326   1.269
  614SOL    HW1 1862   2.499   2.237   1.239
  614SOL    HW2 1863   2.559   2.380   1.189
  615SOL     OW 1864   2.335   2.362   0.191
  615SOL    HW1 1865   2.396   2.442   0.195
  615SOL    HW2 1866   2.240   2.393   0.198
  616SOL     OW 1867   2.765   1.948   0.133
  616SOL    HW1 1868   2.816   1.949   0.047
  616SOL    HW2 1869   2.821   1.906   0.204
  617SOL     OW 1870   2.125   2.188   0.720
  617SOL    HW1 1871   2.046   2.239   0.686
  617SOL    HW2 1872   2.116   2.173   0.818
  618SOL     OW 1873   1.967   2.875   1.726
  618SOL    HW1 1874   1.890   2.842   1.780
  618SOL    HW2 1875   2.052   2.845   1.768
  619SOL     OW 1876   2.534   2.065   1.489
  619SOL    HW1 1877   2.624   2.049   1.449
  619SOL    HW2 1878   2.542   2.070   1.588
  620SOL     OW 1879   1.937   2.207   0.033
  620SOL    HW1 1880   1.845   2.179   0.004
  620SOL    HW2 1881   1.968   2.284  -0.023
  621SOL     OW 1882   1.934   2.028   0.318
  621SOL    HW1 1883   1.917   2.111   0.264
  621SOL    HW2 1884   2.024   1.991   0.296
  622SOL     OW 1885   2.475   2.704   1.431
  622SOL    HW1 1886   2.531   2.785   1.414
  622SOL    HW2 1887   2.534   2.624   1.434
  623SOL     OW 1888   2.578   2.427   1.708
  623SOL    HW1 1889   2.597   2.492   1.782
  623SOL    HW2 1890   2.638   2.347   1.717
  624SOL     OW 1891   2.456   2.607   0.652
  624SOL    HW1 1892   2.506   2.692   0.633
  624SOL    HW2 1893   2.368   2.609   0.604
  625SOL     OW 1894   2.290   2.286   0.520
  625SOL    HW1 1895   2.320   2.214   0.458
  625SOL    HW2 1896   2.251   2.246   0.603
  626SOL     OW 1897   2.179   2.409   1.280
  626SOL    HW1 1898   2.217   2.350   1.352
  626SOL    HW2 1899   2.219   2.383   1.192
  627SOL     OW 1900   2.092   2.490   1.975
  627SOL    HW1 1901   1.999   2.488   2.012
  627SOL    HW2 1902   2.093   2.451   1.883
  628SOL     OW 1903   2.087   2.137   2.858
  628SOL    HW1 1904   2.122   2.120   2.950
  628SOL    HW2 1905   1.999   2.092   2.846
  629SOL     OW 1906   1.881   2.230   2.509
  629SOL    HW1 1907   1.799   2.273   2.548
  629SOL    HW2 1908   1.853   2.157   2.446
  630SOL     OW 1909   2.547   2.874   2.527
  630SOL    HW1 1910   2.616   2.858   2.597
  630SOL    HW2 1911   2.474   2.931   2.565
  631SOL     OW 1912   1.984   2.505   2.425
  631SOL    HW1 1913   1.939   2.417   2.442
  631SOL    HW2 1914   1.983   2.559   2.509
  632SOL     OW 1915   2.671   1.866   2.364
  632SOL    HW1 1916   2.711   1.957   2.355
  632SOL    HW2 1917   2.571   1.874   2.370
  633SOL     OW 1918   2.460   2.591   2.132
  633SOL    HW1 1919   2.484   2.660   2.064
  633SOL    HW2 1920   2.382   2.624   2.186
  634SOL     OW 1921   2.244   2.562   2.342
  634SOL    HW1 1922   2.289   2.472   2.339
  634SOL    HW2 1923   2.150   2.551   2.375
  635SOL     OW 1924   2.476   1.984   1.979
  635SOL    HW1 1925   2.574   1.962   1.986
  635SOL    HW2 1926   2.445   1.967   1.886
  636SOL     OW 1927   2.401   1.926   2.374
  636SOL    HW1 1928   2.320   1.927   2.432
  636SOL    HW2 1929   2.404   2.009   2.319
  637SOL     OW 1930   2.159   1.897   2.033
  637SOL    HW1 1931   2.208   1.981   2.012
  637SOL    HW2 1932   2.221   1.832   2.078
  638SOL     OW 1933   2.879   1.901   2.615
  638SOL    HW1 1934   2.807   1.906   2.546
  638SOL    HW2 1935   2.855   1.832   2.684
  639SOL     OW 1936   2.389   2.118   2.190
  639SOL    HW1 1937   2.416   2.059   2.115
  639SOL    HW2 1938   2.389   2.213   2.159
  640SOL     OW 1939   2.169   1.925   2.480
  640SOL    HW1 1940   2.158   2.019   2.513
  640SOL    HW2 1941   2.164   1.862   2.557
  641SOL     OW 1942   2.677   2.434   2.187
  641SOL    HW1 1943   2.684   2.345   2.141
  641SOL    HW2 1944   2.583   2.468   2.179
  642SOL     OW 1945   2.335   2.362   2.053
  642SOL    HW1 1946   2.396   2.442   2.057
  642SOL    HW2 1947   2.240   2.393   2.060
  643SOL     OW 1948   2.765   1.948   1.995
  643SOL    HW1 1949   2.816   1.949   1.909
  643SOL    HW2 1950   2.821   1.906   2.066
  644SOL     OW 1951   2.125   2.188   2.582
  644SOL    HW1 1952   2.046   2.239   2.548
  644SOL    HW2 1953   2.116   2.173   2.680
  645SOL     OW 1954   1.937   2.207   1.895
  645SOL    HW1 1955   1.845   2.179   1.866
  645SOL    HW2 1956   1.968   2.284   1.839
  646SOL     OW 1957   1.934   2.028   2.180
  646SOL    HW1 1958   1.917   2.111   2.126
  646SOL    HW2 1959   2.024   1.991   2.158
  647SOL     OW 1960   2.456   2.607   2.514
  647SOL    HW1 1961   2.506   2.692   2.495
  647SOL    HW2 1962   2.368   2.609   2.466
  648SOL     OW 1963   2.290   2.286   2.382
  648SOL    HW1 1964   2.320   2.214   2.320
  648SOL    HW2 1965   2.251   2.246   2.465
   2.72214   2.72214   2.72214
