; mobley_8426916_GMX.itp created by acpype (v: 2023.10.27) on Thu May 14 13:25:10 2026

[ atomtypes ]
;name   bond_type     mass     charge   ptype   sigma         epsilon       Amb
 c3       c3          0.00000  0.00000   A     3.39771e-01   4.51035e-01 ; 1.91  0.1078
 n7       n7          0.00000  0.00000   A     3.50765e-01   2.18405e-01 ; 1.97  0.0522
 hc       hc          0.00000  0.00000   A     2.60018e-01   8.70272e-02 ; 1.46  0.0208
 h1       h1          0.00000  0.00000   A     2.42200e-01   8.70272e-02 ; 1.36  0.0208
 hn       hn          0.00000  0.00000   A     1.10650e-01   4.18400e-02 ; 0.62  0.0100

[ moleculetype ]
;name            nrexcl
 mobley_8426916   3

[ atoms ]
;   nr  type  resi  res  atom  cgnr     charge      mass       ; qtot   bond_type
     1   c3     1   MOL    C1    1    -0.098100     12.01000 ; qtot -0.098
     2   c3     1   MOL    C2    2    -0.098100     12.01000 ; qtot -0.196
     3   c3     1   MOL    C3    3     0.163800     12.01000 ; qtot -0.032
     4   c3     1   MOL    C4    4     0.163800     12.01000 ; qtot 0.131
     5   n7     1   MOL    N1    5    -0.823200     14.01000 ; qtot -0.692
     6   hc     1   MOL    H1    6     0.038700      1.00800 ; qtot -0.653
     7   hc     1   MOL    H2    7     0.038700      1.00800 ; qtot -0.614
     8   hc     1   MOL    H3    8     0.038700      1.00800 ; qtot -0.576
     9   hc     1   MOL    H4    9     0.038700      1.00800 ; qtot -0.537
    10   hc     1   MOL    H5   10     0.038700      1.00800 ; qtot -0.498
    11   hc     1   MOL    H6   11     0.038700      1.00800 ; qtot -0.460
    12   h1     1   MOL    H7   12     0.026200      1.00800 ; qtot -0.433
    13   h1     1   MOL    H8   13     0.026200      1.00800 ; qtot -0.407
    14   h1     1   MOL    H9   14     0.026200      1.00800 ; qtot -0.381
    15   h1     1   MOL   H10   15     0.026200      1.00800 ; qtot -0.355
    16   hn     1   MOL   H11   16     0.354800      1.00800 ; qtot -0.000

[ bonds ]
;   ai     aj funct   r             k
     1      3   1    1.5354e-01    1.9154e+05 ;     C1 - C3    
     1      6   1    1.0962e-01    2.8891e+05 ;     C1 - H1    
     1      7   1    1.0962e-01    2.8891e+05 ;     C1 - H2    
     1      8   1    1.0962e-01    2.8891e+05 ;     C1 - H3    
     2      4   1    1.5354e-01    1.9154e+05 ;     C2 - C4    
     2      9   1    1.0962e-01    2.8891e+05 ;     C2 - H4    
     2     10   1    1.0962e-01    2.8891e+05 ;     C2 - H5    
     2     11   1    1.0962e-01    2.8891e+05 ;     C2 - H6    
     3      5   1    1.4630e-01    2.1382e+05 ;     C3 - N1    
     3     12   1    1.0969e-01    2.8804e+05 ;     C3 - H7    
     3     13   1    1.0969e-01    2.8804e+05 ;     C3 - H8    
     4      5   1    1.4630e-01    2.1382e+05 ;     C4 - N1    
     4     14   1    1.0969e-01    2.8804e+05 ;     C4 - H9    
     4     15   1    1.0969e-01    2.8804e+05 ;     C4 - H10   
     5     16   1    1.0195e-01    3.8497e+05 ;     N1 - H11   

[ pairs ]
;   ai     aj    funct
     1      4      1 ;     C1 - C4    
     1     16      1 ;     C1 - H11   
     2      3      1 ;     C2 - C3    
     2     16      1 ;     C2 - H11   
     3     14      1 ;     C3 - H9    
     3     15      1 ;     C3 - H10   
     4     12      1 ;     C4 - H7    
     4     13      1 ;     C4 - H8    
     5      9      1 ;     N1 - H4    
     5     10      1 ;     N1 - H5    
     5     11      1 ;     N1 - H6    
     6      5      1 ;     H1 - N1    
     6     12      1 ;     H1 - H7    
     6     13      1 ;     H1 - H8    
     7      5      1 ;     H2 - N1    
     7     12      1 ;     H2 - H7    
     7     13      1 ;     H2 - H8    
     8      5      1 ;     H3 - N1    
     8     12      1 ;     H3 - H7    
     8     13      1 ;     H3 - H8    
     9     14      1 ;     H4 - H9    
     9     15      1 ;     H4 - H10   
    10     14      1 ;     H5 - H9    
    10     15      1 ;     H5 - H10   
    11     14      1 ;     H6 - H9    
    11     15      1 ;     H6 - H10   
    12     16      1 ;     H7 - H11   
    13     16      1 ;     H8 - H11   
    14     16      1 ;     H9 - H11   
    15     16      1 ;    H10 - H11   

[ angles ]
;   ai     aj     ak    funct   theta         cth
     1      3      5      1    1.1022e+02    5.4994e+02 ;     C1 - C3     - N1    
     1      3     12      1    1.0959e+02    3.6217e+02 ;     C1 - C3     - H7    
     1      3     13      1    1.0959e+02    3.6217e+02 ;     C1 - C3     - H8    
     2      4      5      1    1.1022e+02    5.4994e+02 ;     C2 - C4     - N1    
     2      4     14      1    1.0959e+02    3.6217e+02 ;     C2 - C4     - H9    
     2      4     15      1    1.0959e+02    3.6217e+02 ;     C2 - C4     - H10   
     3      1      6      1    1.0968e+02    3.6208e+02 ;     C3 - C1     - H1    
     3      1      7      1    1.0968e+02    3.6208e+02 ;     C3 - C1     - H2    
     3      1      8      1    1.0968e+02    3.6208e+02 ;     C3 - C1     - H3    
     3      5      4      1    1.1458e+02    6.4425e+02 ;     C3 - N1     - C4    
     3      5     16      1    1.0886e+02    4.7229e+02 ;     C3 - N1     - H11   
     4      2      9      1    1.0968e+02    3.6208e+02 ;     C4 - C2     - H4    
     4      2     10      1    1.0968e+02    3.6208e+02 ;     C4 - C2     - H5    
     4      2     11      1    1.0968e+02    3.6208e+02 ;     C4 - C2     - H6    
     4      5     16      1    1.0886e+02    4.7229e+02 ;     C4 - N1     - H11   
     5      3     12      1    1.1029e+02    3.9991e+02 ;     N1 - C3     - H7    
     5      3     13      1    1.1029e+02    3.9991e+02 ;     N1 - C3     - H8    
     5      4     14      1    1.1029e+02    3.9991e+02 ;     N1 - C4     - H9    
     5      4     15      1    1.1029e+02    3.9991e+02 ;     N1 - C4     - H10   
     6      1      7      1    1.0773e+02    2.9957e+02 ;     H1 - C1     - H2    
     6      1      8      1    1.0773e+02    2.9957e+02 ;     H1 - C1     - H3    
     7      1      8      1    1.0773e+02    2.9957e+02 ;     H2 - C1     - H3    
     9      2     10      1    1.0773e+02    2.9957e+02 ;     H4 - C2     - H5    
     9      2     11      1    1.0773e+02    2.9957e+02 ;     H4 - C2     - H6    
    10      2     11      1    1.0773e+02    2.9957e+02 ;     H5 - C2     - H6    
    12      3     13      1    1.0855e+02    2.9824e+02 ;     H7 - C3     - H8    
    14      4     15      1    1.0855e+02    2.9824e+02 ;     H9 - C4     - H10   

[ dihedrals ] ; propers
; for gromacs 4.5 or higher, using funct 9
;    i      j      k      l   func   phase     kd      pn
     1      3      5      4      9     0.00   0.58576   3 ;     C1-    C3-    N1-    C4
     1      3      5     16      9     0.00   0.90793   3 ;     C1-    C3-    N1-   H11
     2      4      5      3      9     0.00   0.58576   3 ;     C2-    C4-    N1-    C3
     2      4      5     16      9     0.00   0.90793   3 ;     C2-    C4-    N1-   H11
     3      5      4     14      9     0.00   0.89956   3 ;     C3-    N1-    C4-    H9
     3      5      4     15      9     0.00   0.89956   3 ;     C3-    N1-    C4-   H10
     4      5      3     12      9     0.00   0.89956   3 ;     C4-    N1-    C3-    H7
     4      5      3     13      9     0.00   0.89956   3 ;     C4-    N1-    C3-    H8
     5      4      2      9      9     0.00   0.41840   3 ;     N1-    C4-    C2-    H4
     5      4      2     10      9     0.00   0.41840   3 ;     N1-    C4-    C2-    H5
     5      4      2     11      9     0.00   0.41840   3 ;     N1-    C4-    C2-    H6
     6      1      3      5      9     0.00   0.41840   3 ;     H1-    C1-    C3-    N1
     6      1      3     12      9     0.00   0.65084   3 ;     H1-    C1-    C3-    H7
     6      1      3     13      9     0.00   0.65084   3 ;     H1-    C1-    C3-    H8
     7      1      3      5      9     0.00   0.41840   3 ;     H2-    C1-    C3-    N1
     7      1      3     12      9     0.00   0.65084   3 ;     H2-    C1-    C3-    H7
     7      1      3     13      9     0.00   0.65084   3 ;     H2-    C1-    C3-    H8
     8      1      3      5      9     0.00   0.41840   3 ;     H3-    C1-    C3-    N1
     8      1      3     12      9     0.00   0.65084   3 ;     H3-    C1-    C3-    H7
     8      1      3     13      9     0.00   0.65084   3 ;     H3-    C1-    C3-    H8
     9      2      4     14      9     0.00   0.65084   3 ;     H4-    C2-    C4-    H9
     9      2      4     15      9     0.00   0.65084   3 ;     H4-    C2-    C4-   H10
    10      2      4     14      9     0.00   0.65084   3 ;     H5-    C2-    C4-    H9
    10      2      4     15      9     0.00   0.65084   3 ;     H5-    C2-    C4-   H10
    11      2      4     14      9     0.00   0.65084   3 ;     H6-    C2-    C4-    H9
    11      2      4     15      9     0.00   0.65084   3 ;     H6-    C2-    C4-   H10
    12      3      5     16      9     0.00   1.25520   3 ;     H7-    C3-    N1-   H11
    13      3      5     16      9     0.00   1.25520   3 ;     H8-    C3-    N1-   H11
    14      4      5     16      9     0.00   1.25520   3 ;     H9-    C4-    N1-   H11
    15      4      5     16      9     0.00   1.25520   3 ;    H10-    C4-    N1-   H11
