mobley_7754849_GMX.gro created by acpype (v: 2023.10.27) on Thu May 14 13:20:17 2026
 3731
    1MOL     C1    1   1.833   1.913   2.229
    1MOL     C2    2   2.249   1.620   1.754
    1MOL     C3    3   1.597   1.618   1.167
    1MOL     C4    4   1.106   1.796   1.482
    1MOL     C5    5   1.805   1.791   2.144
    1MOL     C6    6   2.114   1.570   1.801
    1MOL     C7    7   1.583   1.574   1.311
    1MOL     C8    8   1.210   1.686   1.492
    1MOL     C9    9   1.702   1.701   1.722
    1MOL     O1   10   1.923   1.756   2.074
    1MOL     O2   11   2.071   1.651   1.909
    1MOL     O3   12   1.475   1.645   1.370
    1MOL     O4   13   1.328   1.741   1.547
    1MOL     P1   14   1.912   1.667   1.938
    1MOL     P2   15   1.468   1.659   1.532
    1MOL     S1   16   1.824   1.495   1.968
    1MOL     S2   17   1.457   1.488   1.623
    1MOL     S3   18   1.840   1.796   1.789
    1MOL     S4   19   1.620   1.793   1.590
    1MOL     H1   20   1.915   1.893   2.299
    1MOL     H2   21   1.864   1.997   2.167
    1MOL     H3   22   1.744   1.942   2.286
    1MOL     H4   23   2.243   1.724   1.721
    1MOL     H5   24   2.322   1.617   1.836
    1MOL     H6   25   2.287   1.559   1.672
    1MOL     H7   26   1.505   1.600   1.112
    1MOL     H8   27   1.617   1.726   1.162
    1MOL     H9   28   1.679   1.564   1.118
    1MOL    H10   29   1.086   1.839   1.581
    1MOL    H11   30   1.142   1.878   1.419
    1MOL    H12   31   1.012   1.758   1.441
    1MOL    H13   32   1.723   1.812   2.074
    1MOL    H14   33   1.775   1.707   2.208
    1MOL    H15   34   2.123   1.467   1.836
    1MOL    H16   35   2.043   1.574   1.719
    1MOL    H17   36   1.676   1.593   1.366
    1MOL    H18   37   1.561   1.466   1.316
    1MOL    H19   38   1.229   1.644   1.393
    1MOL    H20   39   1.173   1.606   1.558
    1MOL    H21   40   1.630   1.680   1.801
    1MOL    H22   41   1.739   1.606   1.682
    2SOL     OW   42   0.230   0.628   0.113
    2SOL    HW1   43   0.137   0.626   0.150
    2SOL    HW2   44   0.231   0.589   0.021
    3SOL     OW   45   0.225   0.275   0.996
    3SOL    HW1   46   0.260   0.258   1.088
    3SOL    HW2   47   0.137   0.230   0.984
    4SOL     OW   48   0.019   0.368   0.647
    4SOL    HW1   49  -0.063   0.411   0.686
    4SOL    HW2   50  -0.009   0.295   0.584
    5SOL     OW   51   0.569   1.275   1.165
    5SOL    HW1   52   0.476   1.268   1.128
    5SOL    HW2   53   0.580   1.364   1.209
    6SOL     OW   54   1.555   1.511   0.703
    6SOL    HW1   55   1.498   1.495   0.784
    6SOL    HW2   56   1.496   1.521   0.623
    7SOL     OW   57   1.135   0.703   0.717
    7SOL    HW1   58   1.192   0.781   0.692
    7SOL    HW2   59   1.075   0.729   0.793
    8SOL     OW   60   1.755   0.607   0.231
    8SOL    HW1   61   1.743   0.594   0.132
    8SOL    HW2   62   1.725   0.526   0.280
    9SOL     OW   63   0.768   1.144   1.023
    9SOL    HW1   64   0.690   1.161   1.083
    9SOL    HW2   65   0.802   1.231   0.987
   10SOL     OW   66   0.850   0.798   1.823
   10SOL    HW1   67   0.846   0.874   1.888
   10SOL    HW2   68   0.872   0.834   1.732
   11SOL     OW   69   0.685   1.012   0.665
   11SOL    HW1   70   0.754   0.996   0.735
   11SOL    HW2   71   0.612   1.069   0.703
   12SOL     OW   72   0.686   1.161   1.803
   12SOL    HW1   73   0.746   1.240   1.817
   12SOL    HW2   74   0.600   1.192   1.762
   13SOL     OW   75   0.335   1.435   1.061
   13SOL    HW1   76   0.257   1.404   1.008
   13SOL    HW2   77   0.393   1.493   1.004
   14SOL     OW   78   0.438   0.392   1.499
   14SOL    HW1   79   0.520   0.336   1.508
   14SOL    HW2   80   0.357   0.334   1.503
   15SOL     OW   81   1.603   0.447   0.737
   15SOL    HW1   82   1.529   0.493   0.687
   15SOL    HW2   83   1.654   0.515   0.790
   16SOL     OW   84   0.231   1.713   0.483
   16SOL    HW1   85   0.265   1.790   0.537
   16SOL    HW2   86   0.275   1.713   0.393
   17SOL     OW   87   1.127   1.341   1.690
   17SOL    HW1   88   1.174   1.341   1.778
   17SOL    HW2   89   1.079   1.254   1.679
   18SOL     OW   90   0.230   1.434   0.538
   18SOL    HW1   91   0.204   1.530   0.538
   18SOL    HW2   92   0.159   1.380   0.583
   19SOL     OW   93   0.240   1.091   0.886
   19SOL    HW1   94   0.254   1.007   0.938
   19SOL    HW2   95   0.185   1.155   0.941
   20SOL     OW   96   0.620   1.786   1.439
   20SOL    HW1   97   0.528   1.769   1.474
   20SOL    HW2   98   0.648   1.878   1.465
   21SOL     OW   99   0.606   0.964   0.123
   21SOL    HW1  100   0.613   1.048   0.069
   21SOL    HW2  101   0.652   0.977   0.211
   22SOL     OW  102   1.594   0.114   1.480
   22SOL    HW1  103   1.576   0.181   1.408
   22SOL    HW2  104   1.591   0.160   1.569
   23SOL     OW  105   0.122   0.643   0.563
   23SOL    HW1  106   0.077   0.555   0.580
   23SOL    HW2  107   0.121   0.697   0.647
   24SOL     OW  108   1.842   1.767   0.359
   24SOL    HW1  109   1.896   1.738   0.439
   24SOL    HW2  110   1.872   1.857   0.330
   25SOL     OW  111   0.027   1.596   0.117
   25SOL    HW1  112   0.008   1.500   0.138
   25SOL    HW2  113  -0.006   1.654   0.192
   26SOL     OW  114   1.689   0.922   0.612
   26SOL    HW1  115   1.784   0.893   0.620
   26SOL    HW2  116   1.681   0.987   0.537
   27SOL     OW  117   1.641   1.108   0.432
   27SOL    HW1  118   1.727   1.110   0.380
   27SOL    HW2  119   1.655   1.155   0.520
   28SOL     OW  120   0.113   0.737   1.597
   28SOL    HW1  121   0.201   0.724   1.642
   28SOL    HW2  122   0.100   0.834   1.575
   29SOL     OW  123   0.613   1.365   0.726
   29SOL    HW1  124   0.564   1.278   0.735
   29SOL    HW2  125   0.590   1.408   0.639
   30SOL     OW  126   1.293   1.228   1.423
   30SOL    HW1  127   1.330   1.155   1.365
   30SOL    HW2  128   1.345   1.233   1.508
   31SOL     OW  129   0.809   0.004   0.502
   31SOL    HW1  130   0.849   0.095   0.493
   31SOL    HW2  131   0.709   0.012   0.508
   32SOL     OW  132   0.197   0.976   1.264
   32SOL    HW1  133   0.286   0.931   1.250
   32SOL    HW2  134   0.124   0.911   1.245
   33SOL     OW  135   1.525   0.999   0.190
   33SOL    HW1  136   1.462   0.923   0.203
   33SOL    HW2  137   1.573   1.017   0.276
   34SOL     OW  138   0.317   0.251   1.801
   34SOL    HW1  139   0.388   0.322   1.807
   34SOL    HW2  140   0.229   0.290   1.829
   35SOL     OW  141   1.466   1.417   0.953
   35SOL    HW1  142   1.407   1.423   1.033
   35SOL    HW2  143   1.451   1.329   0.907
   36SOL     OW  144   1.667   1.714   0.572
   36SOL    HW1  145   1.626   1.691   0.484
   36SOL    HW2  146   1.649   1.640   0.637
   37SOL     OW  147   0.598   0.729   0.270
   37SOL    HW1  148   0.622   0.798   0.202
   37SOL    HW2  149   0.520   0.762   0.324
   38SOL     OW  150   1.281   0.345   0.944
   38SOL    HW1  151   1.195   0.295   0.931
   38SOL    HW2  152   1.343   0.291   1.000
   39SOL     OW  153   1.576   1.662   0.307
   39SOL    HW1  154   1.665   1.708   0.310
   39SOL    HW2  155   1.555   1.638   0.212
   40SOL     OW  156   0.807   0.605   1.465
   40SOL    HW1  157   0.760   0.602   1.554
   40SOL    HW2  158   0.756   0.550   1.399
   41SOL     OW  159   1.394   0.469   1.674
   41SOL    HW1  160   1.374   0.512   1.762
   41SOL    HW2  161   1.472   0.407   1.683
   42SOL     OW  162   0.973   0.890   1.572
   42SOL    HW1  163   1.019   0.806   1.543
   42SOL    HW2  164   0.917   0.924   1.497
   43SOL     OW  165   0.991   0.410   1.242
   43SOL    HW1  166   0.914   0.444   1.296
   43SOL    HW2  167   0.957   0.359   1.163
   44SOL     OW  168   1.041   0.701   0.429
   44SOL    HW1  169   1.067   0.697   0.525
   44SOL    HW2  170   0.956   0.650   0.415
   45SOL     OW  171   0.076   0.811   0.789
   45SOL    HW1  172   0.175   0.799   0.798
   45SOL    HW2  173   0.052   0.906   0.810
   46SOL     OW  174   0.130   1.821   1.571
   46SOL    HW1  175   0.120   1.806   1.670
   46SOL    HW2  176   0.044   1.857   1.535
   47SOL     OW  177   0.865   0.348   0.195
   47SOL    HW1  178   0.924   0.411   0.146
   47SOL    HW2  179   0.884   0.254   0.166
   48SOL     OW  180   1.719   0.585   1.831
   48SOL    HW1  181   1.693   0.674   1.795
   48SOL    HW2  182   1.717   0.517   1.758
   49SOL     OW  183   1.362   1.144   0.545
   49SOL    HW1  184   1.445   1.115   0.497
   49SOL    HW2  185   1.313   1.211   0.489
   50SOL     OW  186   0.550   0.196   0.885
   50SOL    HW1  187   0.545   0.191   0.985
   50SOL    HW2  188   0.552   0.292   0.856
   51SOL     OW  189   1.008   1.456   0.477
   51SOL    HW1  190   0.962   1.528   0.425
   51SOL    HW2  191   1.004   1.476   0.575
   52SOL     OW  192   0.351   1.801   0.853
   52SOL    HW1  193   0.401   1.715   0.859
   52SOL    HW2  194   0.416   1.878   0.850
   53SOL     OW  195   1.795   1.066   0.873
   53SOL    HW1  196   1.733   1.051   0.797
   53SOL    HW2  197   1.743   1.077   0.958
   54SOL     OW  198   0.321   0.943   0.242
   54SOL    HW1  199   0.403   0.982   0.200
   54SOL    HW2  200   0.294   0.861   0.193
   55SOL     OW  201   1.458   0.735   0.728
   55SOL    HW1  202   1.453   0.670   0.803
   55SOL    HW2  203   1.538   0.794   0.741
   56SOL     OW  204   0.461   1.266   1.727
   56SOL    HW1  205   0.411   1.267   1.641
   56SOL    HW2  206   0.398   1.248   1.803
   57SOL     OW  207   1.111   1.776   0.237
   57SOL    HW1  208   1.051   1.714   0.287
   57SOL    HW2  209   1.142   1.732   0.152
   58SOL     OW  210   0.202   0.285   1.498
   58SOL    HW1  211   0.122   0.345   1.485
   58SOL    HW2  212   0.192   0.236   1.584
   59SOL     OW  213   1.632   1.377   0.081
   59SOL    HW1  214   1.600   1.471   0.071
   59SOL    HW2  215   1.556   1.314   0.069
   60SOL     OW  216   0.464   1.743   0.323
   60SOL    HW1  217   0.497   1.782   0.409
   60SOL    HW2  218   0.540   1.736   0.258
   61SOL     OW  219   1.400   0.107   0.426
   61SOL    HW1  220   1.376   0.070   0.336
   61SOL    HW2  221   1.499   0.123   0.430
   62SOL     OW  222   0.249   1.785   1.241
   62SOL    HW1  223   0.306   1.720   1.291
   62SOL    HW2  224   0.233   1.752   1.148
   63SOL     OW  225   0.940   1.698   0.904
   63SOL    HW1  226   1.020   1.641   0.925
   63SOL    HW2  227   0.891   1.658   0.827
   64SOL     OW  228   0.382   0.700   0.480
   64SOL    HW1  229   0.427   0.610   0.477
   64SOL    HW2  230   0.288   0.689   0.513
   65SOL     OW  231   1.547   0.222   1.729
   65SOL    HW1  232   1.542   0.259   1.821
   65SOL    HW2  233   1.475   0.153   1.717
   66SOL     OW  234   0.614   0.122   0.117
   66SOL    HW1  235   0.712   0.100   0.124
   66SOL    HW2  236   0.583   0.105   0.024
   67SOL     OW  237   0.781   0.264   1.749
   67SOL    HW1  238   0.848   0.203   1.792
   67SOL    HW2  239   0.708   0.283   1.814
   68SOL     OW  240   0.888   1.514   1.195
   68SOL    HW1  241   0.865   1.489   1.101
   68SOL    HW2  242   0.949   1.445   1.234
   69SOL     OW  243   1.351   0.590   1.433
   69SOL    HW1  244   1.379   0.547   1.518
   69SOL    HW2  245   1.376   0.686   1.434
   70SOL     OW  246   0.803   1.402   0.924
   70SOL    HW1  247   0.893   1.416   0.882
   70SOL    HW2  248   0.732   1.404   0.853
   71SOL     OW  249   0.922   0.503   0.899
   71SOL    HW1  250   0.897   0.494   0.803
   71SOL    HW2  251   0.970   0.421   0.930
   72SOL     OW  252   0.539   0.064   0.512
   72SOL    HW1  253   0.458   0.065   0.570
   72SOL    HW2  254   0.542   0.147   0.457
   73SOL     OW  255   1.434   1.188   0.041
   73SOL    HW1  256   1.466   1.112   0.098
   73SOL    HW2  257   1.342   1.215   0.071
   74SOL     OW  258   0.297   0.035   0.171
   74SOL    HW1  259   0.346   0.119   0.150
   74SOL    HW2  260   0.359  -0.030   0.216
   75SOL     OW  261   0.935   0.236   0.480
   75SOL    HW1  262   0.887   0.277   0.402
   75SOL    HW2  263   1.034   0.234   0.461
   76SOL     OW  264   1.076   0.683   1.464
   76SOL    HW1  265   0.996   0.622   1.467
   76SOL    HW2  266   1.157   0.630   1.440
   77SOL     OW  267   1.227   1.570   0.793
   77SOL    HW1  268   1.248   1.644   0.728
   77SOL    HW2  269   1.295   1.570   0.866
   78SOL     OW  270   0.459   1.152   0.741
   78SOL    HW1  271   0.388   1.125   0.806
   78SOL    HW2  272   0.433   1.124   0.648
   79SOL     OW  273   1.271   1.797   0.591
   79SOL    HW1  274   1.315   1.861   0.527
   79SOL    HW2  275   1.221   1.849   0.661
   80SOL     OW  276   1.032   0.549   0.016
   80SOL    HW1  277   0.991   0.631  -0.023
   80SOL    HW2  278   1.096   0.575   0.089
   81SOL     OW  279   0.078   0.556   1.386
   81SOL    HW1  280   0.170   0.555   1.345
   81SOL    HW2  281   0.072   0.630   1.453
   82SOL     OW  282   0.561   0.222   1.147
   82SOL    HW1  283   0.599   0.138   1.184
   82SOL    HW2  284   0.473   0.241   1.191
   83SOL     OW  285   0.866   0.454   0.642
   83SOL    HW1  286   0.834   0.526   0.580
   83SOL    HW2  287   0.890   0.373   0.589
   84SOL     OW  288   1.017   0.039   0.753
   84SOL    HW1  289   0.945   0.044   0.684
   84SOL    HW2  290   0.993  -0.030   0.822
   85SOL     OW  291   1.429   1.173   0.867
   85SOL    HW1  292   1.374   1.089   0.860
   85SOL    HW2  293   1.455   1.202   0.775
   86SOL     OW  294   1.466   0.590   0.992
   86SOL    HW1  295   1.436   0.495   0.999
   86SOL    HW2  296   1.539   0.606   1.058
   87SOL     OW  297   1.857   0.833   0.377
   87SOL    HW1  298   1.899   0.769   0.441
   87SOL    HW2  299   1.819   0.782   0.299
   88SOL     OW  300   0.488   1.385   0.174
   88SOL    HW1  301   0.401   1.370   0.221
   88SOL    HW2  302   0.471   1.411   0.079
   89SOL     OW  303   1.664   1.280   0.657
   89SOL    HW1  304   1.763   1.288   0.671
   89SOL    HW2  305   1.619   1.364   0.688
   90SOL     OW  306   1.390   0.575   0.078
   90SOL    HW1  307   1.336   0.554   0.159
   90SOL    HW2  308   1.481   0.534   0.087
   91SOL     OW  309   0.527   0.256   0.328
   91SOL    HW1  310   0.554   0.197   0.253
   91SOL    HW2  311   0.527   0.351   0.297
   92SOL     OW  312   1.754   1.223   1.588
   92SOL    HW1  313   1.845   1.184   1.575
   92SOL    HW2  314   1.762   1.319   1.612
   93SOL     OW  315   1.064   1.347   1.340
   93SOL    HW1  316   0.984   1.324   1.395
   93SOL    HW2  317   1.147   1.321   1.389
   94SOL     OW  318   1.111   1.195   1.100
   94SOL    HW1  319   1.071   1.239   1.181
   94SOL    HW2  320   1.070   1.232   1.017
   95SOL     OW  321   1.638   1.099   1.079
   95SOL    HW1  322   1.643   1.180   1.138
   95SOL    HW2  323   1.552   1.101   1.028
   96SOL     OW  324   0.915   0.089   1.402
   96SOL    HW1  325   0.940   0.069   1.307
   96SOL    HW2  326   0.987   0.145   1.444
   97SOL     OW  327   0.980   1.116   1.719
   97SOL    HW1  328   0.881   1.122   1.729
   97SOL    HW2  329   1.003   1.036   1.663
   98SOL     OW  330   0.705   1.050   0.368
   98SOL    HW1  331   0.691   1.057   0.467
   98SOL    HW2  332   0.789   0.999   0.350
   99SOL     OW  333   0.410   0.813   1.251
   99SOL    HW1  334   0.496   0.825   1.301
   99SOL    HW2  335   0.368   0.726   1.278
  100SOL     OW  336   1.274   0.386   1.262
  100SOL    HW1  337   1.295   0.460   1.326
  100SOL    HW2  338   1.185   0.403   1.219
  101SOL     OW  339   0.064   1.564   1.331
  101SOL    HW1  340   0.018   1.646   1.297
  101SOL    HW2  341   0.162   1.583   1.340
  102SOL     OW  342   0.367   1.100   0.501
  102SOL    HW1  343   0.360   1.183   0.445
  102SOL    HW2  344   0.371   1.020   0.441
  103SOL     OW  345   0.566   0.537   0.865
  103SOL    HW1  346   0.578   0.603   0.791
  103SOL    HW2  347   0.612   0.571   0.948
  104SOL     OW  348   1.252   1.348   0.388
  104SOL    HW1  349   1.302   1.425   0.428
  104SOL    HW2  350   1.157   1.350   0.420
  105SOL     OW  351   1.272   1.445   1.142
  105SOL    HW1  352   1.319   1.458   1.229
  105SOL    HW2  353   1.206   1.371   1.151
  106SOL     OW  354   1.582   0.639   0.472
  106SOL    HW1  355   1.551   0.700   0.545
  106SOL    HW2  356   1.632   0.691   0.403
  107SOL     OW  357   0.354   1.510   1.329
  107SOL    HW1  358   0.333   1.466   1.242
  107SOL    HW2  359   0.451   1.536   1.332
  108SOL     OW  360   0.402   0.751   1.598
  108SOL    HW1  361   0.470   0.806   1.551
  108SOL    HW2  362   0.442   0.663   1.625
  109SOL     OW  363   1.587   0.779   1.670
  109SOL    HW1  364   1.495   0.817   1.665
  109SOL    HW2  365   1.647   0.826   1.605
  110SOL     OW  366   1.013   0.105   1.770
  110SOL    HW1  367   1.019   0.190   1.718
  110SOL    HW2  368   1.045   0.029   1.713
  111SOL     OW  369   0.504   0.050   1.740
  111SOL    HW1  370   0.462  -0.007   1.670
  111SOL    HW2  371   0.438   0.119   1.772
  112SOL     OW  372   0.573   0.870   1.029
  112SOL    HW1  373   0.617   0.959   1.020
  112SOL    HW2  374   0.510   0.870   1.106
  113SOL     OW  375   1.360   0.862   1.045
  113SOL    HW1  376   1.285   0.862   0.979
  113SOL    HW2  377   1.397   0.770   1.054
  114SOL     OW  378   1.209   0.525   0.275
  114SOL    HW1  379   1.222   0.441   0.329
  114SOL    HW2  380   1.180   0.599   0.335
  115SOL     OW  381   0.307   0.213   1.231
  115SOL    HW1  382   0.284   0.250   1.321
  115SOL    HW2  383   0.277   0.118   1.225
  116SOL     OW  384   0.037   1.310   1.282
  116SOL    HW1  385   0.090   1.261   1.350
  116SOL    HW2  386   0.059   1.408   1.287
  117SOL     OW  387   0.732   0.634   1.064
  117SOL    HW1  388   0.791   0.608   0.988
  117SOL    HW2  389   0.704   0.730   1.053
  118SOL     OW  390   1.728   0.935   1.854
  118SOL    HW1  391   1.682   0.928   1.765
  118SOL    HW2  392   1.666   0.979   1.920
  119SOL     OW  393   0.307   0.063   0.618
  119SOL    HW1  394   0.296   0.157   0.651
  119SOL    HW2  395   0.302   0.000   0.695
  120SOL     OW  396   1.622   0.367   0.374
  120SOL    HW1  397   1.624   0.291   0.438
  120SOL    HW2  398   1.574   0.444   0.414
  121SOL     OW  399   1.023   0.766   0.966
  121SOL    HW1  400   1.038   0.787   1.062
  121SOL    HW2  401   0.993   0.671   0.957
  122SOL     OW  402   0.980   1.573   1.700
  122SOL    HW1  403   0.960   1.617   1.612
  122SOL    HW2  404   1.019   1.482   1.684
  123SOL     OW  405   0.350   0.898   1.804
  123SOL    HW1  406   0.426   0.942   1.852
  123SOL    HW2  407   0.385   0.851   1.722
  124SOL     OW  408   1.540   0.274   0.125
  124SOL    HW1  409   1.479   0.199   0.148
  124SOL    HW2  410   1.562   0.326   0.208
  125SOL     OW  411   1.303   0.838   0.042
  125SOL    HW1  412   1.337   0.745   0.057
  125SOL    HW2  413   1.321   0.865  -0.053
  126SOL     OW  414   1.068   1.333   0.849
  126SOL    HW1  415   1.075   1.249   0.794
  126SOL    HW2  416   1.130   1.402   0.813
  127SOL     OW  417   0.319   0.810   0.949
  127SOL    HW1  418   0.412   0.846   0.954
  127SOL    HW2  419   0.313   0.725   1.001
  128SOL     OW  420   0.339   0.509   1.006
  128SOL    HW1  421   0.287   0.426   0.989
  128SOL    HW2  422   0.416   0.514   0.942
  129SOL     OW  423   1.138   0.380   1.678
  129SOL    HW1  424   1.093   0.443   1.742
  129SOL    HW2  425   1.231   0.411   1.661
  130SOL     OW  426   1.160   0.207   1.477
  130SOL    HW1  427   1.160   0.271   1.554
  130SOL    HW2  428   1.188   0.255   1.394
  131SOL     OW  429   0.008   1.326   0.200
  131SOL    HW1  430  -0.085   1.347   0.169
  131SOL    HW2  431   0.018   1.227   0.213
  132SOL     OW  432   0.088   1.801   0.927
  132SOL    HW1  433   0.046   1.715   0.900
  132SOL    HW2  434   0.182   1.804   0.893
  133SOL     OW  435   0.504   1.568   0.910
  133SOL    HW1  436   0.570   1.642   0.919
  133SOL    HW2  437   0.548   1.489   0.868
  134SOL     OW  438   1.002   0.796   1.238
  134SOL    HW1  439   1.043   0.764   1.324
  134SOL    HW2  440   0.906   0.769   1.235
  135SOL     OW  441   0.040   0.544   1.114
  135SOL    HW1  442   0.125   0.511   1.073
  135SOL    HW2  443   0.053   0.559   1.212
  136SOL     OW  444   0.189   0.520   1.722
  136SOL    HW1  445   0.248   0.480   1.652
  136SOL    HW2  446   0.131   0.591   1.681
  137SOL     OW  447   1.369   0.950   1.660
  137SOL    HW1  448   1.408   1.039   1.680
  137SOL    HW2  449   1.379   0.930   1.563
  138SOL     OW  450   0.815   0.572   0.325
  138SOL    HW1  451   0.822   0.483   0.279
  138SOL    HW2  452   0.721   0.606   0.317
  139SOL     OW  453   1.657   0.604   1.206
  139SOL    HW1  454   1.619   0.535   1.268
  139SOL    HW2  455   1.739   0.568   1.162
  140SOL     OW  456   0.252   1.564   1.744
  140SOL    HW1  457   0.222   1.621   1.820
  140SOL    HW2  458   0.245   1.467   1.770
  141SOL     OW  459   0.671   0.464   1.269
  141SOL    HW1  460   0.637   0.375   1.239
  141SOL    HW2  461   0.697   0.518   1.189
  142SOL     OW  462   0.473   0.500   0.191
  142SOL    HW1  463   0.534   0.580   0.195
  142SOL    HW2  464   0.378   0.531   0.198
  143SOL     OW  465   0.159   1.137   1.466
  143SOL    HW1  466   0.181   1.076   1.542
  143SOL    HW2  467   0.169   1.088   1.380
  144SOL     OW  468   1.347   1.059   1.234
  144SOL    HW1  469   1.371   0.996   1.160
  144SOL    HW2  470   1.257   1.099   1.216
  145SOL     OW  471   1.302   0.855   0.309
  145SOL    HW1  472   1.216   0.824   0.351
  145SOL    HW2  473   1.298   0.841   0.210
  146SOL     OW  474   1.252   1.731   1.128
  146SOL    HW1  475   1.336   1.736   1.074
  146SOL    HW2  476   1.229   1.635   1.146
  147SOL     OW  477   0.083   1.258   1.022
  147SOL    HW1  478   0.078   1.257   1.122
  147SOL    HW2  479   0.000   1.217   0.984
  148SOL     OW  480   0.688   1.662   1.716
  148SOL    HW1  481   0.632   1.743   1.725
  148SOL    HW2  482   0.740   1.666   1.630
  149SOL     OW  483   0.903   0.086   0.133
  149SOL    HW1  484   0.954   0.087   0.047
  149SOL    HW2  485   0.959   0.044   0.204
  150SOL     OW  486   1.726   0.135   0.523
  150SOL    HW1  487   1.799   0.118   0.456
  150SOL    HW2  488   1.695   0.048   0.561
  151SOL     OW  489   1.388   1.573   0.477
  151SOL    HW1  490   1.455   1.585   0.403
  151SOL    HW2  491   1.348   1.662   0.500
  152SOL     OW  492   0.130   1.794   1.851
  152SOL    HW1  493   0.089   1.720   1.904
  152SOL    HW2  494   0.194   1.845   1.909
  153SOL     OW  495   1.280   0.927   0.672
  153SOL    HW1  496   1.340   0.846   0.674
  153SOL    HW2  497   1.320   0.996   0.612
  154SOL     OW  498   0.830   1.273   1.422
  154SOL    HW1  499   0.825   1.306   1.517
  154SOL    HW2  500   0.744   1.292   1.376
  155SOL     OW  501   0.672   1.616   0.154
  155SOL    HW1  502   0.681   1.626   0.055
  155SOL    HW2  503   0.632   1.527   0.175
  156SOL     OW  504   1.841   0.175   0.963
  156SOL    HW1  505   1.880   0.090   0.927
  156SOL    HW2  506   1.743   0.177   0.944
  157SOL     OW  507   0.263   0.326   0.720
  157SOL    HW1  508   0.184   0.377   0.686
  157SOL    HW2  509   0.254   0.311   0.818
  158SOL     OW  510   1.194   1.612   0.031
  158SOL    HW1  511   1.200   1.519   0.068
  158SOL    HW2  512   1.135   1.612  -0.049
  159SOL     OW  513   0.822   1.002   1.372
  159SOL    HW1  514   0.862   1.001   1.280
  159SOL    HW2  515   0.832   1.094   1.412
  160SOL     OW  516   0.916   0.910   0.291
  160SOL    HW1  517   0.979   0.948   0.223
  160SOL    HW2  518   0.956   0.827   0.330
  161SOL     OW  519   1.504   1.607   0.044
  161SOL    HW1  520   1.412   1.644   0.051
  161SOL    HW2  521   1.542   1.627  -0.046
  162SOL     OW  522   0.372   1.288   1.490
  162SOL    HW1  523   0.359   1.381   1.456
  162SOL    HW2  524   0.288   1.236   1.477
  163SOL     OW  525   1.039   1.098   0.696
  163SOL    HW1  526   0.969   1.051   0.750
  163SOL    HW2  527   1.098   1.030   0.653
  164SOL     OW  528   1.014   0.236   0.971
  164SOL    HW1  529   1.006   0.200   0.878
  164SOL    HW2  530   1.012   0.160   1.036
  165SOL     OW  531   0.590   1.487   0.491
  165SOL    HW1  532   0.632   1.429   0.421
  165SOL    HW2  533   0.546   1.566   0.447
  166SOL     OW  534   1.709   0.385   1.381
  166SOL    HW1  535   1.782   0.454   1.385
  166SOL    HW2  536   1.737   0.310   1.322
  167SOL     OW  537   0.255   1.348   0.290
  167SOL    HW1  538   0.159   1.349   0.263
  167SOL    HW2  539   0.267   1.401   0.374
  168SOL     OW  540   0.105   1.013   1.726
  168SOL    HW1  541   0.028   0.980   1.780
  168SOL    HW2  542   0.190   0.983   1.768
  169SOL     OW  543   0.672   0.203   1.489
  169SOL    HW1  544   0.762   0.187   1.449
  169SOL    HW2  545   0.680   0.208   1.588
  170SOL     OW  546   0.075   0.345   0.033
  170SOL    HW1  547  -0.017   0.317   0.004
  170SOL    HW2  548   0.106   0.422  -0.023
  171SOL     OW  549   1.440   0.856   1.398
  171SOL    HW1  550   1.383   0.908   1.335
  171SOL    HW2  551   1.536   0.868   1.374
  172SOL     OW  552   0.072   0.166   0.318
  172SOL    HW1  553   0.055   0.249   0.264
  172SOL    HW2  554   0.162   0.129   0.296
  173SOL     OW  555   1.183   1.335   0.119
  173SOL    HW1  556   1.084   1.324   0.121
  173SOL    HW2  557   1.217   1.350   0.212
  174SOL     OW  558   0.613   0.842   1.431
  174SOL    HW1  559   0.669   0.923   1.414
  174SOL    HW2  560   0.672   0.762   1.434
  175SOL     OW  561   1.493   1.767   0.959
  175SOL    HW1  562   1.526   1.831   0.890
  175SOL    HW2  563   1.559   1.761   1.034
  176SOL     OW  564   0.716   0.565   1.708
  176SOL    HW1  565   0.735   0.630   1.782
  176SOL    HW2  566   0.776   0.485   1.717
  177SOL     OW  567   1.450   1.220   1.633
  177SOL    HW1  568   1.441   1.210   1.732
  177SOL    HW2  569   1.546   1.213   1.607
  178SOL     OW  570   0.390   1.741   1.560
  178SOL    HW1  571   0.299   1.782   1.558
  178SOL    HW2  572   0.383   1.647   1.592
  179SOL     OW  573   1.674   0.883   1.254
  179SOL    HW1  574   1.647   0.794   1.217
  179SOL    HW2  575   1.675   0.951   1.181
  180SOL     OW  576   1.225   0.325   0.449
  180SOL    HW1  577   1.290   0.251   0.438
  180SOL    HW2  578   1.245   0.375   0.533
  181SOL     OW  579   0.594   0.745   0.652
  181SOL    HW1  580   0.644   0.830   0.633
  181SOL    HW2  581   0.506   0.747   0.604
  182SOL     OW  582   1.777   0.342   1.642
  182SOL    HW1  583   1.760   0.373   1.548
  182SOL    HW2  584   1.693   0.305   1.680
  183SOL     OW  585   1.730   0.934   1.517
  183SOL    HW1  586   1.768   1.025   1.532
  183SOL    HW2  587   1.722   0.917   1.418
  184SOL     OW  588   0.859   1.374   0.016
  184SOL    HW1  589   0.813   1.389   0.104
  184SOL    HW2  590   0.903   1.459  -0.014
  185SOL     OW  591   0.661   1.790   0.953
  185SOL    HW1  592   0.615   1.878   0.940
  185SOL    HW2  593   0.760   1.802   0.946
  186SOL     OW  594   0.859   0.956   0.861
  186SOL    HW1  595   0.913   0.887   0.909
  186SOL    HW2  596   0.827   1.025   0.927
  187SOL     OW  597   1.083   0.984   0.087
  187SOL    HW1  598   1.060   1.037   0.005
  187SOL    HW2  599   1.164   0.928   0.068
  188SOL     OW  600   1.861   1.569   0.851
  188SOL    HW1  601   1.790   1.557   0.781
  188SOL    HW2  602   1.862   1.490   0.911
  189SOL     OW  603   0.221   1.314   1.844
  189SOL    HW1  604   0.156   1.241   1.823
  189SOL    HW2  605   0.225   1.328   1.942
  190SOL     OW  606   0.079   1.240   0.653
  190SOL    HW1  607   0.078   1.193   0.741
  190SOL    HW2  608   0.161   1.212   0.602
  191SOL     OW  609   0.672   1.391   1.624
  191SOL    HW1  610   0.594   1.341   1.662
  191SOL    HW2  611   0.669   1.486   1.655
  192SOL     OW  612   1.824   0.192   1.227
  192SOL    HW1  613   1.820   0.102   1.271
  192SOL    HW2  614   1.827   0.181   1.128
  193SOL     OW  615   0.428   0.424   0.520
  193SOL    HW1  616   0.458   0.352   0.458
  193SOL    HW2  617   0.389   0.384   0.603
  194SOL     OW  618   0.317   0.547   1.280
  194SOL    HW1  619   0.355   0.488   1.352
  194SOL    HW2  620   0.357   0.521   1.192
  195SOL     OW  621   0.812   1.586   0.687
  195SOL    HW1  622   0.844   1.596   0.593
  195SOL    HW2  623   0.733   1.524   0.689
  196SOL     OW  624   1.424   0.214   1.112
  196SOL    HW1  625   1.476   0.149   1.167
  196SOL    HW2  626   1.375   0.277   1.173
  197SOL     OW  627   1.001   0.034   1.154
  197SOL    HW1  628   0.938  -0.038   1.123
  197SOL    HW2  629   1.094  -0.002   1.154
  198SOL     OW  630   0.770   1.330   0.301
  198SOL    HW1  631   0.724   1.243   0.318
  198SOL    HW2  632   0.861   1.327   0.342
  199SOL     OW  633   0.618   1.567   1.284
  199SOL    HW1  634   0.613   1.649   1.341
  199SOL    HW2  635   0.707   1.564   1.239
  200SOL     OW  636   1.352   0.052   0.168
  200SOL    HW1  637   1.387   0.011   0.084
  200SOL    HW2  638   1.262   0.014   0.188
  201SOL     OW  639   1.300   0.453   0.691
  201SOL    HW1  640   1.241   0.533   0.695
  201SOL    HW2  641   1.315   0.418   0.784
  202SOL     OW  642   1.593   0.221   0.882
  202SOL    HW1  643   1.509   0.220   0.936
  202SOL    HW2  644   1.595   0.304   0.826
  203SOL     OW  645   0.039   1.077   0.300
  203SOL    HW1  646   0.138   1.066   0.291
  203SOL    HW2  647  -0.001   0.991   0.332
  204SOL     OW  648   0.875   1.646   0.337
  204SOL    HW1  649   0.798   1.611   0.283
  204SOL    HW2  650   0.843   1.717   0.399
  205SOL     OW  651   0.230   0.628   1.975
  205SOL    HW1  652   0.137   0.626   2.012
  205SOL    HW2  653   0.231   0.589   1.883
  206SOL     OW  654   0.225   0.275   2.858
  206SOL    HW1  655   0.260   0.258   2.950
  206SOL    HW2  656   0.137   0.230   2.846
  207SOL     OW  657   0.019   0.368   2.509
  207SOL    HW1  658  -0.063   0.411   2.548
  207SOL    HW2  659  -0.009   0.295   2.446
  208SOL     OW  660   0.569   1.275   3.027
  208SOL    HW1  661   0.476   1.268   2.990
  208SOL    HW2  662   0.580   1.364   3.071
  209SOL     OW  663   1.555   1.511   2.565
  209SOL    HW1  664   1.498   1.495   2.646
  209SOL    HW2  665   1.496   1.521   2.485
  210SOL     OW  666   1.135   0.703   2.579
  210SOL    HW1  667   1.192   0.781   2.554
  210SOL    HW2  668   1.075   0.729   2.655
  211SOL     OW  669   1.755   0.607   2.093
  211SOL    HW1  670   1.743   0.594   1.994
  211SOL    HW2  671   1.725   0.526   2.142
  212SOL     OW  672   0.768   1.144   2.885
  212SOL    HW1  673   0.690   1.161   2.945
  212SOL    HW2  674   0.802   1.231   2.849
  213SOL     OW  675   0.685   1.012   2.527
  213SOL    HW1  676   0.754   0.996   2.597
  213SOL    HW2  677   0.612   1.069   2.565
  214SOL     OW  678   0.335   1.435   2.923
  214SOL    HW1  679   0.257   1.404   2.870
  214SOL    HW2  680   0.393   1.493   2.866
  215SOL     OW  681   0.438   0.392   3.361
  215SOL    HW1  682   0.520   0.336   3.370
  215SOL    HW2  683   0.357   0.334   3.365
  216SOL     OW  684   1.603   0.447   2.599
  216SOL    HW1  685   1.529   0.493   2.549
  216SOL    HW2  686   1.654   0.515   2.652
  217SOL     OW  687   0.231   1.713   2.345
  217SOL    HW1  688   0.265   1.790   2.399
  217SOL    HW2  689   0.275   1.713   2.255
  218SOL     OW  690   0.230   1.434   2.400
  218SOL    HW1  691   0.204   1.530   2.400
  218SOL    HW2  692   0.159   1.380   2.445
  219SOL     OW  693   0.240   1.091   2.748
  219SOL    HW1  694   0.254   1.007   2.800
  219SOL    HW2  695   0.185   1.155   2.803
  220SOL     OW  696   0.620   1.786   3.301
  220SOL    HW1  697   0.528   1.769   3.336
  220SOL    HW2  698   0.648   1.878   3.327
  221SOL     OW  699   0.606   0.964   1.985
  221SOL    HW1  700   0.613   1.048   1.931
  221SOL    HW2  701   0.652   0.977   2.073
  222SOL     OW  702   0.122   0.643   2.425
  222SOL    HW1  703   0.077   0.555   2.442
  222SOL    HW2  704   0.121   0.697   2.509
  223SOL     OW  705   0.027   1.596   1.979
  223SOL    HW1  706   0.008   1.500   2.000
  223SOL    HW2  707  -0.006   1.654   2.054
  224SOL     OW  708   1.689   0.922   2.474
  224SOL    HW1  709   1.784   0.893   2.482
  224SOL    HW2  710   1.681   0.987   2.399
  225SOL     OW  711   1.641   1.108   2.294
  225SOL    HW1  712   1.727   1.110   2.242
  225SOL    HW2  713   1.655   1.155   2.382
  226SOL     OW  714   0.613   1.365   2.588
  226SOL    HW1  715   0.564   1.278   2.597
  226SOL    HW2  716   0.590   1.408   2.501
  227SOL     OW  717   0.809   0.004   2.364
  227SOL    HW1  718   0.849   0.095   2.355
  227SOL    HW2  719   0.709   0.012   2.370
  228SOL     OW  720   0.197   0.976   3.126
  228SOL    HW1  721   0.286   0.931   3.112
  228SOL    HW2  722   0.124   0.911   3.107
  229SOL     OW  723   1.525   0.999   2.052
  229SOL    HW1  724   1.462   0.923   2.065
  229SOL    HW2  725   1.573   1.017   2.138
  230SOL     OW  726   1.466   1.417   2.815
  230SOL    HW1  727   1.407   1.423   2.895
  230SOL    HW2  728   1.451   1.329   2.769
  231SOL     OW  729   1.667   1.714   2.434
  231SOL    HW1  730   1.626   1.691   2.346
  231SOL    HW2  731   1.649   1.640   2.499
  232SOL     OW  732   0.598   0.729   2.132
  232SOL    HW1  733   0.622   0.798   2.064
  232SOL    HW2  734   0.520   0.762   2.186
  233SOL     OW  735   1.281   0.345   2.806
  233SOL    HW1  736   1.195   0.295   2.793
  233SOL    HW2  737   1.343   0.291   2.862
  234SOL     OW  738   0.807   0.605   3.327
  234SOL    HW1  739   0.760   0.602   3.416
  234SOL    HW2  740   0.756   0.550   3.261
  235SOL     OW  741   0.991   0.410   3.104
  235SOL    HW1  742   0.914   0.444   3.158
  235SOL    HW2  743   0.957   0.359   3.025
  236SOL     OW  744   1.041   0.701   2.291
  236SOL    HW1  745   1.067   0.697   2.387
  236SOL    HW2  746   0.956   0.650   2.277
  237SOL     OW  747   0.076   0.811   2.651
  237SOL    HW1  748   0.175   0.799   2.660
  237SOL    HW2  749   0.052   0.906   2.672
  238SOL     OW  750   0.130   1.821   3.433
  238SOL    HW1  751   0.120   1.806   3.532
  238SOL    HW2  752   0.044   1.857   3.397
  239SOL     OW  753   0.865   0.348   2.057
  239SOL    HW1  754   0.924   0.411   2.008
  239SOL    HW2  755   0.884   0.254   2.028
  240SOL     OW  756   1.362   1.144   2.407
  240SOL    HW1  757   1.445   1.115   2.359
  240SOL    HW2  758   1.313   1.211   2.351
  241SOL     OW  759   0.550   0.196   2.747
  241SOL    HW1  760   0.545   0.191   2.847
  241SOL    HW2  761   0.552   0.292   2.718
  242SOL     OW  762   1.008   1.456   2.339
  242SOL    HW1  763   0.962   1.528   2.287
  242SOL    HW2  764   1.004   1.476   2.437
  243SOL     OW  765   0.351   1.801   2.715
  243SOL    HW1  766   0.401   1.715   2.721
  243SOL    HW2  767   0.416   1.878   2.712
  244SOL     OW  768   1.795   1.066   2.735
  244SOL    HW1  769   1.733   1.051   2.659
  244SOL    HW2  770   1.743   1.077   2.820
  245SOL     OW  771   0.321   0.943   2.104
  245SOL    HW1  772   0.403   0.982   2.062
  245SOL    HW2  773   0.294   0.861   2.055
  246SOL     OW  774   1.458   0.735   2.590
  246SOL    HW1  775   1.453   0.670   2.665
  246SOL    HW2  776   1.538   0.794   2.603
  247SOL     OW  777   1.111   1.776   2.099
  247SOL    HW1  778   1.051   1.714   2.149
  247SOL    HW2  779   1.142   1.732   2.014
  248SOL     OW  780   1.632   1.377   1.943
  248SOL    HW1  781   1.600   1.471   1.933
  248SOL    HW2  782   1.556   1.314   1.931
  249SOL     OW  783   0.464   1.743   2.185
  249SOL    HW1  784   0.497   1.782   2.271
  249SOL    HW2  785   0.540   1.736   2.120
  250SOL     OW  786   1.400   0.107   2.288
  250SOL    HW1  787   1.376   0.070   2.198
  250SOL    HW2  788   1.499   0.123   2.292
  251SOL     OW  789   0.249   1.785   3.103
  251SOL    HW1  790   0.306   1.720   3.153
  251SOL    HW2  791   0.233   1.752   3.010
  252SOL     OW  792   0.940   1.698   2.766
  252SOL    HW1  793   1.020   1.641   2.787
  252SOL    HW2  794   0.891   1.658   2.689
  253SOL     OW  795   0.382   0.700   2.342
  253SOL    HW1  796   0.427   0.610   2.339
  253SOL    HW2  797   0.288   0.689   2.375
  254SOL     OW  798   0.614   0.122   1.979
  254SOL    HW1  799   0.712   0.100   1.986
  254SOL    HW2  800   0.583   0.105   1.886
  255SOL     OW  801   0.888   1.514   3.057
  255SOL    HW1  802   0.865   1.489   2.963
  255SOL    HW2  803   0.949   1.445   3.096
  256SOL     OW  804   0.803   1.402   2.786
  256SOL    HW1  805   0.893   1.416   2.744
  256SOL    HW2  806   0.732   1.404   2.715
  257SOL     OW  807   0.922   0.503   2.761
  257SOL    HW1  808   0.897   0.494   2.665
  257SOL    HW2  809   0.970   0.421   2.792
  258SOL     OW  810   0.539   0.064   2.374
  258SOL    HW1  811   0.458   0.065   2.432
  258SOL    HW2  812   0.542   0.147   2.319
  259SOL     OW  813   1.434   1.188   1.903
  259SOL    HW1  814   1.466   1.112   1.960
  259SOL    HW2  815   1.342   1.215   1.933
  260SOL     OW  816   0.297   0.035   2.033
  260SOL    HW1  817   0.346   0.119   2.012
  260SOL    HW2  818   0.359  -0.030   2.078
  261SOL     OW  819   0.935   0.236   2.342
  261SOL    HW1  820   0.887   0.277   2.264
  261SOL    HW2  821   1.034   0.234   2.323
  262SOL     OW  822   1.227   1.570   2.655
  262SOL    HW1  823   1.248   1.644   2.590
  262SOL    HW2  824   1.295   1.570   2.728
  263SOL     OW  825   0.459   1.152   2.603
  263SOL    HW1  826   0.388   1.125   2.668
  263SOL    HW2  827   0.433   1.124   2.510
  264SOL     OW  828   1.271   1.797   2.453
  264SOL    HW1  829   1.315   1.861   2.389
  264SOL    HW2  830   1.221   1.849   2.523
  265SOL     OW  831   1.032   0.549   1.878
  265SOL    HW1  832   0.991   0.631   1.839
  265SOL    HW2  833   1.096   0.575   1.951
  266SOL     OW  834   0.078   0.556   3.248
  266SOL    HW1  835   0.170   0.555   3.207
  266SOL    HW2  836   0.072   0.630   3.315
  267SOL     OW  837   0.561   0.222   3.009
  267SOL    HW1  838   0.599   0.138   3.046
  267SOL    HW2  839   0.473   0.241   3.053
  268SOL     OW  840   0.866   0.454   2.504
  268SOL    HW1  841   0.834   0.526   2.442
  268SOL    HW2  842   0.890   0.373   2.451
  269SOL     OW  843   1.017   0.039   2.615
  269SOL    HW1  844   0.945   0.044   2.546
  269SOL    HW2  845   0.993  -0.030   2.684
  270SOL     OW  846   1.429   1.173   2.729
  270SOL    HW1  847   1.374   1.089   2.722
  270SOL    HW2  848   1.455   1.202   2.637
  271SOL     OW  849   1.466   0.590   2.854
  271SOL    HW1  850   1.436   0.495   2.861
  271SOL    HW2  851   1.539   0.606   2.920
  272SOL     OW  852   1.857   0.833   2.239
  272SOL    HW1  853   1.899   0.769   2.303
  272SOL    HW2  854   1.819   0.782   2.161
  273SOL     OW  855   0.488   1.385   2.036
  273SOL    HW1  856   0.401   1.370   2.083
  273SOL    HW2  857   0.471   1.411   1.941
  274SOL     OW  858   1.664   1.280   2.519
  274SOL    HW1  859   1.763   1.288   2.533
  274SOL    HW2  860   1.619   1.364   2.550
  275SOL     OW  861   1.390   0.575   1.940
  275SOL    HW1  862   1.336   0.554   2.021
  275SOL    HW2  863   1.481   0.534   1.949
  276SOL     OW  864   0.527   0.256   2.190
  276SOL    HW1  865   0.554   0.197   2.115
  276SOL    HW2  866   0.527   0.351   2.159
  277SOL     OW  867   1.064   1.347   3.202
  277SOL    HW1  868   0.984   1.324   3.257
  277SOL    HW2  869   1.147   1.321   3.251
  278SOL     OW  870   1.111   1.195   2.962
  278SOL    HW1  871   1.071   1.239   3.043
  278SOL    HW2  872   1.070   1.232   2.879
  279SOL     OW  873   1.638   1.099   2.941
  279SOL    HW1  874   1.643   1.180   3.000
  279SOL    HW2  875   1.552   1.101   2.890
  280SOL     OW  876   0.705   1.050   2.230
  280SOL    HW1  877   0.691   1.057   2.329
  280SOL    HW2  878   0.789   0.999   2.212
  281SOL     OW  879   0.410   0.813   3.113
  281SOL    HW1  880   0.496   0.825   3.163
  281SOL    HW2  881   0.368   0.726   3.140
  282SOL     OW  882   1.274   0.386   3.124
  282SOL    HW1  883   1.295   0.460   3.188
  282SOL    HW2  884   1.185   0.403   3.081
  283SOL     OW  885   0.064   1.564   3.193
  283SOL    HW1  886   0.018   1.646   3.159
  283SOL    HW2  887   0.162   1.583   3.202
  284SOL     OW  888   0.367   1.100   2.363
  284SOL    HW1  889   0.360   1.183   2.307
  284SOL    HW2  890   0.371   1.020   2.303
  285SOL     OW  891   0.566   0.537   2.727
  285SOL    HW1  892   0.578   0.603   2.653
  285SOL    HW2  893   0.612   0.571   2.810
  286SOL     OW  894   1.252   1.348   2.250
  286SOL    HW1  895   1.302   1.425   2.290
  286SOL    HW2  896   1.157   1.350   2.282
  287SOL     OW  897   1.272   1.445   3.004
  287SOL    HW1  898   1.319   1.458   3.091
  287SOL    HW2  899   1.206   1.371   3.013
  288SOL     OW  900   1.582   0.639   2.334
  288SOL    HW1  901   1.551   0.700   2.407
  288SOL    HW2  902   1.632   0.691   2.265
  289SOL     OW  903   0.354   1.510   3.191
  289SOL    HW1  904   0.333   1.466   3.104
  289SOL    HW2  905   0.451   1.536   3.194
  290SOL     OW  906   0.402   0.751   3.460
  290SOL    HW1  907   0.470   0.806   3.413
  290SOL    HW2  908   0.442   0.663   3.487
  291SOL     OW  909   0.573   0.870   2.891
  291SOL    HW1  910   0.617   0.959   2.882
  291SOL    HW2  911   0.510   0.870   2.968
  292SOL     OW  912   1.360   0.862   2.907
  292SOL    HW1  913   1.285   0.862   2.841
  292SOL    HW2  914   1.397   0.770   2.916
  293SOL     OW  915   1.209   0.525   2.137
  293SOL    HW1  916   1.222   0.441   2.191
  293SOL    HW2  917   1.180   0.599   2.197
  294SOL     OW  918   0.307   0.213   3.093
  294SOL    HW1  919   0.284   0.250   3.183
  294SOL    HW2  920   0.277   0.118   3.087
  295SOL     OW  921   0.037   1.310   3.144
  295SOL    HW1  922   0.090   1.261   3.212
  295SOL    HW2  923   0.059   1.408   3.149
  296SOL     OW  924   0.732   0.634   2.926
  296SOL    HW1  925   0.791   0.608   2.850
  296SOL    HW2  926   0.704   0.730   2.915
  297SOL     OW  927   0.307   0.063   2.480
  297SOL    HW1  928   0.296   0.157   2.513
  297SOL    HW2  929   0.302   0.000   2.557
  298SOL     OW  930   1.622   0.367   2.236
  298SOL    HW1  931   1.624   0.291   2.300
  298SOL    HW2  932   1.574   0.444   2.276
  299SOL     OW  933   1.023   0.766   2.828
  299SOL    HW1  934   1.038   0.787   2.924
  299SOL    HW2  935   0.993   0.671   2.819
  300SOL     OW  936   0.980   1.573   3.562
  300SOL    HW1  937   0.960   1.617   3.474
  300SOL    HW2  938   1.019   1.482   3.546
  301SOL     OW  939   1.540   0.274   1.987
  301SOL    HW1  940   1.479   0.199   2.010
  301SOL    HW2  941   1.562   0.326   2.070
  302SOL     OW  942   1.303   0.838   1.904
  302SOL    HW1  943   1.337   0.745   1.919
  302SOL    HW2  944   1.321   0.865   1.809
  303SOL     OW  945   1.068   1.333   2.711
  303SOL    HW1  946   1.075   1.249   2.656
  303SOL    HW2  947   1.130   1.402   2.675
  304SOL     OW  948   0.319   0.810   2.811
  304SOL    HW1  949   0.412   0.846   2.816
  304SOL    HW2  950   0.313   0.725   2.863
  305SOL     OW  951   0.339   0.509   2.868
  305SOL    HW1  952   0.287   0.426   2.851
  305SOL    HW2  953   0.416   0.514   2.804
  306SOL     OW  954   1.160   0.207   3.339
  306SOL    HW1  955   1.160   0.271   3.416
  306SOL    HW2  956   1.188   0.255   3.256
  307SOL     OW  957   0.008   1.326   2.062
  307SOL    HW1  958  -0.085   1.347   2.031
  307SOL    HW2  959   0.018   1.227   2.075
  308SOL     OW  960   0.088   1.801   2.789
  308SOL    HW1  961   0.046   1.715   2.762
  308SOL    HW2  962   0.182   1.804   2.755
  309SOL     OW  963   0.504   1.568   2.772
  309SOL    HW1  964   0.570   1.642   2.781
  309SOL    HW2  965   0.548   1.489   2.730
  310SOL     OW  966   1.002   0.796   3.100
  310SOL    HW1  967   1.043   0.764   3.186
  310SOL    HW2  968   0.906   0.769   3.097
  311SOL     OW  969   0.040   0.544   2.976
  311SOL    HW1  970   0.125   0.511   2.935
  311SOL    HW2  971   0.053   0.559   3.074
  312SOL     OW  972   0.815   0.572   2.187
  312SOL    HW1  973   0.822   0.483   2.141
  312SOL    HW2  974   0.721   0.606   2.179
  313SOL     OW  975   1.657   0.604   3.068
  313SOL    HW1  976   1.619   0.535   3.130
  313SOL    HW2  977   1.739   0.568   3.024
  314SOL     OW  978   0.671   0.464   3.131
  314SOL    HW1  979   0.637   0.375   3.101
  314SOL    HW2  980   0.697   0.518   3.051
  315SOL     OW  981   0.930   1.678   3.327
  315SOL    HW1  982   0.906   1.660   3.232
  315SOL    HW2  983   0.960   1.772   3.337
  316SOL     OW  984   0.473   0.500   2.053
  316SOL    HW1  985   0.534   0.580   2.057
  316SOL    HW2  986   0.378   0.531   2.060
  317SOL     OW  987   0.159   1.137   3.328
  317SOL    HW1  988   0.181   1.076   3.404
  317SOL    HW2  989   0.169   1.088   3.242
  318SOL     OW  990   1.347   1.059   3.096
  318SOL    HW1  991   1.371   0.996   3.022
  318SOL    HW2  992   1.257   1.099   3.078
  319SOL     OW  993   1.302   0.855   2.171
  319SOL    HW1  994   1.216   0.824   2.213
  319SOL    HW2  995   1.298   0.841   2.072
  320SOL     OW  996   1.759   1.747   3.016
  320SOL    HW1  997   1.820   1.777   2.943
  320SOL    HW2  998   1.721   1.658   2.994
  321SOL     OW  999   1.252   1.731   2.990
  321SOL    HW1 1000   1.336   1.736   2.936
  321SOL    HW2 1001   1.229   1.635   3.008
  322SOL     OW 1002   0.083   1.258   2.884
  322SOL    HW1 1003   0.078   1.257   2.984
  322SOL    HW2 1004   0.000   1.217   2.846
  323SOL     OW 1005   1.726   0.135   2.385
  323SOL    HW1 1006   1.799   0.118   2.318
  323SOL    HW2 1007   1.695   0.048   2.423
  324SOL     OW 1008   1.388   1.573   2.339
  324SOL    HW1 1009   1.455   1.585   2.265
  324SOL    HW2 1010   1.348   1.662   2.362
  325SOL     OW 1011   1.280   0.927   2.534
  325SOL    HW1 1012   1.340   0.846   2.536
  325SOL    HW2 1013   1.320   0.996   2.474
  326SOL     OW 1014   0.672   1.616   2.016
  326SOL    HW1 1015   0.681   1.626   1.917
  326SOL    HW2 1016   0.632   1.527   2.037
  327SOL     OW 1017   1.650   1.720   3.256
  327SOL    HW1 1018   1.703   1.730   3.172
  327SOL    HW2 1019   1.623   1.810   3.290
  328SOL     OW 1020   1.841   0.175   2.825
  328SOL    HW1 1021   1.880   0.090   2.789
  328SOL    HW2 1022   1.743   0.177   2.806
  329SOL     OW 1023   0.263   0.326   2.582
  329SOL    HW1 1024   0.184   0.377   2.548
  329SOL    HW2 1025   0.254   0.311   2.680
  330SOL     OW 1026   1.194   1.612   1.893
  330SOL    HW1 1027   1.200   1.519   1.930
  330SOL    HW2 1028   1.135   1.612   1.813
  331SOL     OW 1029   0.822   1.002   3.234
  331SOL    HW1 1030   0.862   1.001   3.142
  331SOL    HW2 1031   0.832   1.094   3.274
  332SOL     OW 1032   0.916   0.910   2.153
  332SOL    HW1 1033   0.979   0.948   2.085
  332SOL    HW2 1034   0.956   0.827   2.192
  333SOL     OW 1035   0.372   1.288   3.352
  333SOL    HW1 1036   0.359   1.381   3.318
  333SOL    HW2 1037   0.288   1.236   3.339
  334SOL     OW 1038   1.614   1.292   3.151
  334SOL    HW1 1039   1.674   1.295   3.231
  334SOL    HW2 1040   1.539   1.356   3.164
  335SOL     OW 1041   1.039   1.098   2.558
  335SOL    HW1 1042   0.969   1.051   2.612
  335SOL    HW2 1043   1.098   1.030   2.515
  336SOL     OW 1044   1.014   0.236   2.833
  336SOL    HW1 1045   1.006   0.200   2.740
  336SOL    HW2 1046   1.012   0.160   2.898
  337SOL     OW 1047   0.590   1.487   2.353
  337SOL    HW1 1048   0.632   1.429   2.283
  337SOL    HW2 1049   0.546   1.566   2.309
  338SOL     OW 1050   1.709   0.385   3.243
  338SOL    HW1 1051   1.782   0.454   3.247
  338SOL    HW2 1052   1.737   0.310   3.184
  339SOL     OW 1053   0.255   1.348   2.152
  339SOL    HW1 1054   0.159   1.349   2.125
  339SOL    HW2 1055   0.267   1.401   2.236
  340SOL     OW 1056   0.075   0.345   1.895
  340SOL    HW1 1057  -0.017   0.317   1.866
  340SOL    HW2 1058   0.106   0.422   1.839
  341SOL     OW 1059   0.072   0.166   2.180
  341SOL    HW1 1060   0.055   0.249   2.126
  341SOL    HW2 1061   0.162   0.129   2.158
  342SOL     OW 1062   1.183   1.335   1.981
  342SOL    HW1 1063   1.084   1.324   1.983
  342SOL    HW2 1064   1.217   1.350   2.074
  343SOL     OW 1065   0.613   0.842   3.293
  343SOL    HW1 1066   0.669   0.923   3.276
  343SOL    HW2 1067   0.672   0.762   3.296
  344SOL     OW 1068   1.493   1.767   2.821
  344SOL    HW1 1069   1.526   1.831   2.752
  344SOL    HW2 1070   1.559   1.761   2.896
  345SOL     OW 1071   0.390   1.741   3.422
  345SOL    HW1 1072   0.299   1.782   3.420
  345SOL    HW2 1073   0.383   1.647   3.454
  346SOL     OW 1074   1.674   0.883   3.116
  346SOL    HW1 1075   1.647   0.794   3.079
  346SOL    HW2 1076   1.675   0.951   3.043
  347SOL     OW 1077   1.225   0.325   2.311
  347SOL    HW1 1078   1.290   0.251   2.300
  347SOL    HW2 1079   1.245   0.375   2.395
  348SOL     OW 1080   0.594   0.745   2.514
  348SOL    HW1 1081   0.644   0.830   2.495
  348SOL    HW2 1082   0.506   0.747   2.466
  349SOL     OW 1083   1.730   0.934   3.379
  349SOL    HW1 1084   1.768   1.025   3.394
  349SOL    HW2 1085   1.722   0.917   3.280
  350SOL     OW 1086   0.859   1.374   1.878
  350SOL    HW1 1087   0.813   1.389   1.966
  350SOL    HW2 1088   0.903   1.459   1.848
  351SOL     OW 1089   0.661   1.790   2.815
  351SOL    HW1 1090   0.615   1.878   2.802
  351SOL    HW2 1091   0.760   1.802   2.808
  352SOL     OW 1092   0.859   0.956   2.723
  352SOL    HW1 1093   0.913   0.887   2.771
  352SOL    HW2 1094   0.827   1.025   2.789
  353SOL     OW 1095   1.083   0.984   1.949
  353SOL    HW1 1096   1.060   1.037   1.867
  353SOL    HW2 1097   1.164   0.928   1.930
  354SOL     OW 1098   1.861   1.569   2.713
  354SOL    HW1 1099   1.790   1.557   2.643
  354SOL    HW2 1100   1.862   1.490   2.773
  355SOL     OW 1101   0.079   1.240   2.515
  355SOL    HW1 1102   0.078   1.193   2.603
  355SOL    HW2 1103   0.161   1.212   2.464
  356SOL     OW 1104   1.824   0.192   3.089
  356SOL    HW1 1105   1.820   0.102   3.133
  356SOL    HW2 1106   1.827   0.181   2.990
  357SOL     OW 1107   0.428   0.424   2.382
  357SOL    HW1 1108   0.458   0.352   2.320
  357SOL    HW2 1109   0.389   0.384   2.465
  358SOL     OW 1110   1.705   1.487   2.966
  358SOL    HW1 1111   1.612   1.462   2.939
  358SOL    HW2 1112   1.731   1.437   3.048
  359SOL     OW 1113   0.317   0.547   3.142
  359SOL    HW1 1114   0.355   0.488   3.214
  359SOL    HW2 1115   0.357   0.521   3.054
  360SOL     OW 1116   0.812   1.586   2.549
  360SOL    HW1 1117   0.844   1.596   2.455
  360SOL    HW2 1118   0.733   1.524   2.551
  361SOL     OW 1119   1.424   0.214   2.974
  361SOL    HW1 1120   1.476   0.149   3.029
  361SOL    HW2 1121   1.375   0.277   3.035
  362SOL     OW 1122   1.001   0.034   3.016
  362SOL    HW1 1123   0.938  -0.038   2.985
  362SOL    HW2 1124   1.094  -0.002   3.016
  363SOL     OW 1125   0.770   1.330   2.163
  363SOL    HW1 1126   0.724   1.243   2.180
  363SOL    HW2 1127   0.861   1.327   2.204
  364SOL     OW 1128   0.618   1.567   3.146
  364SOL    HW1 1129   0.613   1.649   3.203
  364SOL    HW2 1130   0.707   1.564   3.101
  365SOL     OW 1131   1.352   0.052   2.030
  365SOL    HW1 1132   1.387   0.011   1.946
  365SOL    HW2 1133   1.262   0.014   2.050
  366SOL     OW 1134   1.300   0.453   2.553
  366SOL    HW1 1135   1.241   0.533   2.557
  366SOL    HW2 1136   1.315   0.418   2.646
  367SOL     OW 1137   1.593   0.221   2.744
  367SOL    HW1 1138   1.509   0.220   2.798
  367SOL    HW2 1139   1.595   0.304   2.688
  368SOL     OW 1140   0.039   1.077   2.162
  368SOL    HW1 1141   0.138   1.066   2.153
  368SOL    HW2 1142  -0.001   0.991   2.194
  369SOL     OW 1143   0.875   1.646   2.199
  369SOL    HW1 1144   0.798   1.611   2.145
  369SOL    HW2 1145   0.843   1.717   2.261
  370SOL     OW 1146   0.230   2.490   0.113
  370SOL    HW1 1147   0.137   2.488   0.150
  370SOL    HW2 1148   0.231   2.451   0.021
  371SOL     OW 1149   0.225   2.137   0.996
  371SOL    HW1 1150   0.260   2.120   1.088
  371SOL    HW2 1151   0.137   2.092   0.984
  372SOL     OW 1152   0.019   2.230   0.647
  372SOL    HW1 1153  -0.063   2.273   0.686
  372SOL    HW2 1154  -0.009   2.157   0.584
  373SOL     OW 1155   0.569   3.137   1.165
  373SOL    HW1 1156   0.476   3.130   1.128
  373SOL    HW2 1157   0.580   3.226   1.209
  374SOL     OW 1158   1.555   3.373   0.703
  374SOL    HW1 1159   1.498   3.357   0.784
  374SOL    HW2 1160   1.496   3.383   0.623
  375SOL     OW 1161   1.135   2.565   0.717
  375SOL    HW1 1162   1.192   2.643   0.692
  375SOL    HW2 1163   1.075   2.591   0.793
  376SOL     OW 1164   1.755   2.469   0.231
  376SOL    HW1 1165   1.743   2.456   0.132
  376SOL    HW2 1166   1.725   2.388   0.280
  377SOL     OW 1167   0.768   3.006   1.023
  377SOL    HW1 1168   0.690   3.023   1.083
  377SOL    HW2 1169   0.802   3.093   0.987
  378SOL     OW 1170   0.850   2.660   1.823
  378SOL    HW1 1171   0.846   2.736   1.888
  378SOL    HW2 1172   0.872   2.696   1.732
  379SOL     OW 1173   0.685   2.874   0.665
  379SOL    HW1 1174   0.754   2.858   0.735
  379SOL    HW2 1175   0.612   2.931   0.703
  380SOL     OW 1176   0.686   3.023   1.803
  380SOL    HW1 1177   0.746   3.102   1.817
  380SOL    HW2 1178   0.600   3.054   1.762
  381SOL     OW 1179   0.335   3.297   1.061
  381SOL    HW1 1180   0.257   3.266   1.008
  381SOL    HW2 1181   0.393   3.355   1.004
  382SOL     OW 1182   1.460   3.367   1.339
  382SOL    HW1 1183   1.484   3.461   1.365
  382SOL    HW2 1184   1.444   3.313   1.421
  383SOL     OW 1185   0.438   2.254   1.499
  383SOL    HW1 1186   0.520   2.198   1.508
  383SOL    HW2 1187   0.357   2.196   1.503
  384SOL     OW 1188   1.603   2.309   0.737
  384SOL    HW1 1189   1.529   2.355   0.687
  384SOL    HW2 1190   1.654   2.377   0.790
  385SOL     OW 1191   0.231   3.575   0.483
  385SOL    HW1 1192   0.265   3.652   0.537
  385SOL    HW2 1193   0.275   3.575   0.393
  386SOL     OW 1194   1.127   3.203   1.690
  386SOL    HW1 1195   1.174   3.203   1.778
  386SOL    HW2 1196   1.079   3.116   1.679
  387SOL     OW 1197   0.240   2.953   0.886
  387SOL    HW1 1198   0.254   2.869   0.938
  387SOL    HW2 1199   0.185   3.017   0.941
  388SOL     OW 1200   0.606   2.826   0.123
  388SOL    HW1 1201   0.613   2.910   0.069
  388SOL    HW2 1202   0.652   2.839   0.211
  389SOL     OW 1203   1.594   1.976   1.480
  389SOL    HW1 1204   1.576   2.043   1.408
  389SOL    HW2 1205   1.591   2.022   1.569
  390SOL     OW 1206   0.122   2.505   0.563
  390SOL    HW1 1207   0.077   2.417   0.580
  390SOL    HW2 1208   0.121   2.559   0.647
  391SOL     OW 1209   1.689   2.784   0.612
  391SOL    HW1 1210   1.784   2.755   0.620
  391SOL    HW2 1211   1.681   2.849   0.537
  392SOL     OW 1212   1.641   2.970   0.432
  392SOL    HW1 1213   1.727   2.972   0.380
  392SOL    HW2 1214   1.655   3.017   0.520
  393SOL     OW 1215   0.113   2.599   1.597
  393SOL    HW1 1216   0.201   2.586   1.642
  393SOL    HW2 1217   0.100   2.696   1.575
  394SOL     OW 1218   0.613   3.227   0.726
  394SOL    HW1 1219   0.564   3.140   0.735
  394SOL    HW2 1220   0.590   3.270   0.639
  395SOL     OW 1221   1.293   3.090   1.423
  395SOL    HW1 1222   1.330   3.017   1.365
  395SOL    HW2 1223   1.345   3.095   1.508
  396SOL     OW 1224   0.809   1.866   0.502
  396SOL    HW1 1225   0.849   1.957   0.493
  396SOL    HW2 1226   0.709   1.874   0.508
  397SOL     OW 1227   0.197   2.838   1.264
  397SOL    HW1 1228   0.286   2.793   1.250
  397SOL    HW2 1229   0.124   2.773   1.245
  398SOL     OW 1230   1.525   2.861   0.190
  398SOL    HW1 1231   1.462   2.785   0.203
  398SOL    HW2 1232   1.573   2.879   0.276
  399SOL     OW 1233   0.317   2.113   1.801
  399SOL    HW1 1234   0.388   2.184   1.807
  399SOL    HW2 1235   0.229   2.152   1.829
  400SOL     OW 1236   1.466   3.279   0.953
  400SOL    HW1 1237   1.407   3.285   1.033
  400SOL    HW2 1238   1.451   3.191   0.907
  401SOL     OW 1239   0.598   2.591   0.270
  401SOL    HW1 1240   0.622   2.660   0.202
  401SOL    HW2 1241   0.520   2.624   0.324
  402SOL     OW 1242   1.281   2.207   0.944
  402SOL    HW1 1243   1.195   2.157   0.931
  402SOL    HW2 1244   1.343   2.153   1.000
  403SOL     OW 1245   0.807   2.467   1.465
  403SOL    HW1 1246   0.760   2.464   1.554
  403SOL    HW2 1247   0.756   2.412   1.399
  404SOL     OW 1248   1.394   2.331   1.674
  404SOL    HW1 1249   1.374   2.374   1.762
  404SOL    HW2 1250   1.472   2.269   1.683
  405SOL     OW 1251   0.973   2.752   1.572
  405SOL    HW1 1252   1.019   2.668   1.543
  405SOL    HW2 1253   0.917   2.786   1.497
  406SOL     OW 1254   0.991   2.272   1.242
  406SOL    HW1 1255   0.914   2.306   1.296
  406SOL    HW2 1256   0.957   2.221   1.163
  407SOL     OW 1257   1.041   2.563   0.429
  407SOL    HW1 1258   1.067   2.559   0.525
  407SOL    HW2 1259   0.956   2.512   0.415
  408SOL     OW 1260   0.076   2.673   0.789
  408SOL    HW1 1261   0.175   2.661   0.798
  408SOL    HW2 1262   0.052   2.768   0.810
  409SOL     OW 1263   0.865   2.210   0.195
  409SOL    HW1 1264   0.924   2.273   0.146
  409SOL    HW2 1265   0.884   2.116   0.166
  410SOL     OW 1266   1.719   2.447   1.831
  410SOL    HW1 1267   1.693   2.536   1.795
  410SOL    HW2 1268   1.717   2.379   1.758
  411SOL     OW 1269   1.362   3.006   0.545
  411SOL    HW1 1270   1.445   2.977   0.497
  411SOL    HW2 1271   1.313   3.073   0.489
  412SOL     OW 1272   0.550   2.058   0.885
  412SOL    HW1 1273   0.545   2.053   0.985
  412SOL    HW2 1274   0.552   2.154   0.856
  413SOL     OW 1275   1.008   3.318   0.477
  413SOL    HW1 1276   0.962   3.390   0.425
  413SOL    HW2 1277   1.004   3.338   0.575
  414SOL     OW 1278   1.795   2.928   0.873
  414SOL    HW1 1279   1.733   2.913   0.797
  414SOL    HW2 1280   1.743   2.939   0.958
  415SOL     OW 1281   1.227   3.412   1.506
  415SOL    HW1 1282   1.233   3.335   1.570
  415SOL    HW2 1283   1.175   3.386   1.426
  416SOL     OW 1284   0.321   2.805   0.242
  416SOL    HW1 1285   0.403   2.844   0.200
  416SOL    HW2 1286   0.294   2.723   0.193
  417SOL     OW 1287   1.458   2.597   0.728
  417SOL    HW1 1288   1.453   2.532   0.803
  417SOL    HW2 1289   1.538   2.656   0.741
  418SOL     OW 1290   0.461   3.128   1.727
  418SOL    HW1 1291   0.411   3.129   1.641
  418SOL    HW2 1292   0.398   3.110   1.803
  419SOL     OW 1293   0.202   2.147   1.498
  419SOL    HW1 1294   0.122   2.207   1.485
  419SOL    HW2 1295   0.192   2.098   1.584
  420SOL     OW 1296   1.632   3.239   0.081
  420SOL    HW1 1297   1.600   3.333   0.071
  420SOL    HW2 1298   1.556   3.176   0.069
  421SOL     OW 1299   1.400   1.969   0.426
  421SOL    HW1 1300   1.376   1.932   0.336
  421SOL    HW2 1301   1.499   1.985   0.430
  422SOL     OW 1302   0.382   2.562   0.480
  422SOL    HW1 1303   0.427   2.472   0.477
  422SOL    HW2 1304   0.288   2.551   0.513
  423SOL     OW 1305   1.547   2.084   1.729
  423SOL    HW1 1306   1.542   2.121   1.821
  423SOL    HW2 1307   1.475   2.015   1.717
  424SOL     OW 1308   0.781   2.126   1.749
  424SOL    HW1 1309   0.848   2.065   1.792
  424SOL    HW2 1310   0.708   2.145   1.814
  425SOL     OW 1311   1.351   2.452   1.433
  425SOL    HW1 1312   1.379   2.409   1.518
  425SOL    HW2 1313   1.376   2.548   1.434
  426SOL     OW 1314   0.922   2.365   0.899
  426SOL    HW1 1315   0.897   2.356   0.803
  426SOL    HW2 1316   0.970   2.283   0.930
  427SOL     OW 1317   0.539   1.926   0.512
  427SOL    HW1 1318   0.458   1.927   0.570
  427SOL    HW2 1319   0.542   2.009   0.457
  428SOL     OW 1320   1.434   3.050   0.041
  428SOL    HW1 1321   1.466   2.974   0.098
  428SOL    HW2 1322   1.342   3.077   0.071
  429SOL     OW 1323   0.297   1.897   0.171
  429SOL    HW1 1324   0.346   1.981   0.150
  429SOL    HW2 1325   0.359   1.832   0.216
  430SOL     OW 1326   0.935   2.098   0.480
  430SOL    HW1 1327   0.887   2.139   0.402
  430SOL    HW2 1328   1.034   2.096   0.461
  431SOL     OW 1329   1.076   2.545   1.464
  431SOL    HW1 1330   0.996   2.484   1.467
  431SOL    HW2 1331   1.157   2.492   1.440
  432SOL     OW 1332   1.227   3.432   0.793
  432SOL    HW1 1333   1.248   3.506   0.728
  432SOL    HW2 1334   1.295   3.432   0.866
  433SOL     OW 1335   0.459   3.014   0.741
  433SOL    HW1 1336   0.388   2.987   0.806
  433SOL    HW2 1337   0.433   2.986   0.648
  434SOL     OW 1338   1.032   2.411   0.016
  434SOL    HW1 1339   0.991   2.493  -0.023
  434SOL    HW2 1340   1.096   2.437   0.089
  435SOL     OW 1341   0.078   2.418   1.386
  435SOL    HW1 1342   0.170   2.417   1.345
  435SOL    HW2 1343   0.072   2.492   1.453
  436SOL     OW 1344   0.561   2.084   1.147
  436SOL    HW1 1345   0.599   2.000   1.184
  436SOL    HW2 1346   0.473   2.103   1.191
  437SOL     OW 1347   0.866   2.316   0.642
  437SOL    HW1 1348   0.834   2.388   0.580
  437SOL    HW2 1349   0.890   2.235   0.589
  438SOL     OW 1350   1.017   1.901   0.753
  438SOL    HW1 1351   0.945   1.906   0.684
  438SOL    HW2 1352   0.993   1.832   0.822
  439SOL     OW 1353   1.429   3.035   0.867
  439SOL    HW1 1354   1.374   2.951   0.860
  439SOL    HW2 1355   1.455   3.064   0.775
  440SOL     OW 1356   1.466   2.452   0.992
  440SOL    HW1 1357   1.436   2.357   0.999
  440SOL    HW2 1358   1.539   2.468   1.058
  441SOL     OW 1359   1.857   2.695   0.377
  441SOL    HW1 1360   1.899   2.631   0.441
  441SOL    HW2 1361   1.819   2.644   0.299
  442SOL     OW 1362   1.664   3.142   0.657
  442SOL    HW1 1363   1.763   3.150   0.671
  442SOL    HW2 1364   1.619   3.226   0.688
  443SOL     OW 1365   1.390   2.437   0.078
  443SOL    HW1 1366   1.336   2.416   0.159
  443SOL    HW2 1367   1.481   2.396   0.087
  444SOL     OW 1368   0.527   2.118   0.328
  444SOL    HW1 1369   0.554   2.059   0.253
  444SOL    HW2 1370   0.527   2.213   0.297
  445SOL     OW 1371   1.754   3.085   1.588
  445SOL    HW1 1372   1.845   3.046   1.575
  445SOL    HW2 1373   1.762   3.181   1.612
  446SOL     OW 1374   1.064   3.209   1.340
  446SOL    HW1 1375   0.984   3.186   1.395
  446SOL    HW2 1376   1.147   3.183   1.389
  447SOL     OW 1377   1.111   3.057   1.100
  447SOL    HW1 1378   1.071   3.101   1.181
  447SOL    HW2 1379   1.070   3.094   1.017
  448SOL     OW 1380   1.638   2.961   1.079
  448SOL    HW1 1381   1.643   3.042   1.138
  448SOL    HW2 1382   1.552   2.963   1.028
  449SOL     OW 1383   0.915   1.951   1.402
  449SOL    HW1 1384   0.940   1.931   1.307
  449SOL    HW2 1385   0.987   2.007   1.444
  450SOL     OW 1386   0.980   2.978   1.719
  450SOL    HW1 1387   0.881   2.984   1.729
  450SOL    HW2 1388   1.003   2.898   1.663
  451SOL     OW 1389   0.705   2.912   0.368
  451SOL    HW1 1390   0.691   2.919   0.467
  451SOL    HW2 1391   0.789   2.861   0.350
  452SOL     OW 1392   0.410   2.675   1.251
  452SOL    HW1 1393   0.496   2.687   1.301
  452SOL    HW2 1394   0.368   2.588   1.278
  453SOL     OW 1395   1.274   2.248   1.262
  453SOL    HW1 1396   1.295   2.322   1.326
  453SOL    HW2 1397   1.185   2.265   1.219
  454SOL     OW 1398   0.064   3.426   1.331
  454SOL    HW1 1399   0.018   3.508   1.297
  454SOL    HW2 1400   0.162   3.445   1.340
  455SOL     OW 1401   0.367   2.962   0.501
  455SOL    HW1 1402   0.360   3.045   0.445
  455SOL    HW2 1403   0.371   2.882   0.441
  456SOL     OW 1404   0.566   2.399   0.865
  456SOL    HW1 1405   0.578   2.465   0.791
  456SOL    HW2 1406   0.612   2.433   0.948
  457SOL     OW 1407   1.252   3.210   0.388
  457SOL    HW1 1408   1.302   3.287   0.428
  457SOL    HW2 1409   1.157   3.212   0.420
  458SOL     OW 1410   1.272   3.307   1.142
  458SOL    HW1 1411   1.319   3.320   1.229
  458SOL    HW2 1412   1.206   3.233   1.151
  459SOL     OW 1413   1.582   2.501   0.472
  459SOL    HW1 1414   1.551   2.562   0.545
  459SOL    HW2 1415   1.632   2.553   0.403
  460SOL     OW 1416   0.354   3.372   1.329
  460SOL    HW1 1417   0.333   3.328   1.242
  460SOL    HW2 1418   0.451   3.398   1.332
  461SOL     OW 1419   0.402   2.613   1.598
  461SOL    HW1 1420   0.470   2.668   1.551
  461SOL    HW2 1421   0.442   2.525   1.625
  462SOL     OW 1422   1.587   2.641   1.670
  462SOL    HW1 1423   1.495   2.679   1.665
  462SOL    HW2 1424   1.647   2.688   1.605
  463SOL     OW 1425   1.013   1.967   1.770
  463SOL    HW1 1426   1.019   2.052   1.718
  463SOL    HW2 1427   1.045   1.891   1.713
  464SOL     OW 1428   0.504   1.912   1.740
  464SOL    HW1 1429   0.462   1.855   1.670
  464SOL    HW2 1430   0.438   1.981   1.772
  465SOL     OW 1431   0.573   2.732   1.029
  465SOL    HW1 1432   0.617   2.821   1.020
  465SOL    HW2 1433   0.510   2.732   1.106
  466SOL     OW 1434   1.360   2.724   1.045
  466SOL    HW1 1435   1.285   2.724   0.979
  466SOL    HW2 1436   1.397   2.632   1.054
  467SOL     OW 1437   1.209   2.387   0.275
  467SOL    HW1 1438   1.222   2.303   0.329
  467SOL    HW2 1439   1.180   2.461   0.335
  468SOL     OW 1440   0.307   2.075   1.231
  468SOL    HW1 1441   0.284   2.112   1.321
  468SOL    HW2 1442   0.277   1.980   1.225
  469SOL     OW 1443   0.037   3.172   1.282
  469SOL    HW1 1444   0.090   3.123   1.350
  469SOL    HW2 1445   0.059   3.270   1.287
  470SOL     OW 1446   0.732   2.496   1.064
  470SOL    HW1 1447   0.791   2.470   0.988
  470SOL    HW2 1448   0.704   2.592   1.053
  471SOL     OW 1449   1.728   2.797   1.854
  471SOL    HW1 1450   1.682   2.790   1.765
  471SOL    HW2 1451   1.666   2.841   1.920
  472SOL     OW 1452   0.307   1.925   0.618
  472SOL    HW1 1453   0.296   2.019   0.651
  472SOL    HW2 1454   0.302   1.862   0.695
  473SOL     OW 1455   1.622   2.229   0.374
  473SOL    HW1 1456   1.624   2.153   0.438
  473SOL    HW2 1457   1.574   2.306   0.414
  474SOL     OW 1458   1.023   2.628   0.966
  474SOL    HW1 1459   1.038   2.649   1.062
  474SOL    HW2 1460   0.993   2.533   0.957
  475SOL     OW 1461   1.859   3.380   1.605
  475SOL    HW1 1462   1.873   3.407   1.510
  475SOL    HW2 1463   1.942   3.402   1.658
  476SOL     OW 1464   0.350   2.760   1.804
  476SOL    HW1 1465   0.426   2.804   1.852
  476SOL    HW2 1466   0.385   2.713   1.722
  477SOL     OW 1467   1.540   2.136   0.125
  477SOL    HW1 1468   1.479   2.061   0.148
  477SOL    HW2 1469   1.562   2.188   0.208
  478SOL     OW 1470   1.303   2.700   0.042
  478SOL    HW1 1471   1.337   2.607   0.057
  478SOL    HW2 1472   1.321   2.727  -0.053
  479SOL     OW 1473   1.068   3.195   0.849
  479SOL    HW1 1474   1.075   3.111   0.794
  479SOL    HW2 1475   1.130   3.264   0.813
  480SOL     OW 1476   0.319   2.672   0.949
  480SOL    HW1 1477   0.412   2.708   0.954
  480SOL    HW2 1478   0.313   2.587   1.001
  481SOL     OW 1479   0.339   2.371   1.006
  481SOL    HW1 1480   0.287   2.288   0.989
  481SOL    HW2 1481   0.416   2.376   0.942
  482SOL     OW 1482   1.138   2.242   1.678
  482SOL    HW1 1483   1.093   2.305   1.742
  482SOL    HW2 1484   1.231   2.273   1.661
  483SOL     OW 1485   1.160   2.069   1.477
  483SOL    HW1 1486   1.160   2.133   1.554
  483SOL    HW2 1487   1.188   2.117   1.394
  484SOL     OW 1488   0.008   3.188   0.200
  484SOL    HW1 1489  -0.085   3.209   0.169
  484SOL    HW2 1490   0.018   3.089   0.213
  485SOL     OW 1491   1.002   2.658   1.238
  485SOL    HW1 1492   1.043   2.626   1.324
  485SOL    HW2 1493   0.906   2.631   1.235
  486SOL     OW 1494   0.040   2.406   1.114
  486SOL    HW1 1495   0.125   2.373   1.073
  486SOL    HW2 1496   0.053   2.421   1.212
  487SOL     OW 1497   0.189   2.382   1.722
  487SOL    HW1 1498   0.248   2.342   1.652
  487SOL    HW2 1499   0.131   2.453   1.681
  488SOL     OW 1500   1.369   2.812   1.660
  488SOL    HW1 1501   1.408   2.901   1.680
  488SOL    HW2 1502   1.379   2.792   1.563
  489SOL     OW 1503   0.815   2.434   0.325
  489SOL    HW1 1504   0.822   2.345   0.279
  489SOL    HW2 1505   0.721   2.468   0.317
  490SOL     OW 1506   1.657   2.466   1.206
  490SOL    HW1 1507   1.619   2.397   1.268
  490SOL    HW2 1508   1.739   2.430   1.162
  491SOL     OW 1509   0.252   3.426   1.744
  491SOL    HW1 1510   0.222   3.483   1.820
  491SOL    HW2 1511   0.245   3.329   1.770
  492SOL     OW 1512   0.671   2.326   1.269
  492SOL    HW1 1513   0.637   2.237   1.239
  492SOL    HW2 1514   0.697   2.380   1.189
  493SOL     OW 1515   0.473   2.362   0.191
  493SOL    HW1 1516   0.534   2.442   0.195
  493SOL    HW2 1517   0.378   2.393   0.198
  494SOL     OW 1518   0.159   2.999   1.466
  494SOL    HW1 1519   0.181   2.938   1.542
  494SOL    HW2 1520   0.169   2.950   1.380
  495SOL     OW 1521   1.347   2.921   1.234
  495SOL    HW1 1522   1.371   2.858   1.160
  495SOL    HW2 1523   1.257   2.961   1.216
  496SOL     OW 1524   1.302   2.717   0.309
  496SOL    HW1 1525   1.216   2.686   0.351
  496SOL    HW2 1526   1.298   2.703   0.210
  497SOL     OW 1527   0.083   3.120   1.022
  497SOL    HW1 1528   0.078   3.119   1.122
  497SOL    HW2 1529   0.000   3.079   0.984
  498SOL     OW 1530   0.903   1.948   0.133
  498SOL    HW1 1531   0.954   1.949   0.047
  498SOL    HW2 1532   0.959   1.906   0.204
  499SOL     OW 1533   1.726   1.997   0.523
  499SOL    HW1 1534   1.799   1.980   0.456
  499SOL    HW2 1535   1.695   1.910   0.561
  500SOL     OW 1536   1.280   2.789   0.672
  500SOL    HW1 1537   1.340   2.708   0.674
  500SOL    HW2 1538   1.320   2.858   0.612
  501SOL     OW 1539   0.830   3.135   1.422
  501SOL    HW1 1540   0.825   3.168   1.517
  501SOL    HW2 1541   0.744   3.154   1.376
  502SOL     OW 1542   1.841   2.037   0.963
  502SOL    HW1 1543   1.880   1.952   0.927
  502SOL    HW2 1544   1.743   2.039   0.944
  503SOL     OW 1545   0.263   2.188   0.720
  503SOL    HW1 1546   0.184   2.239   0.686
  503SOL    HW2 1547   0.254   2.173   0.818
  504SOL     OW 1548   0.822   2.864   1.372
  504SOL    HW1 1549   0.862   2.863   1.280
  504SOL    HW2 1550   0.832   2.956   1.412
  505SOL     OW 1551   0.916   2.772   0.291
  505SOL    HW1 1552   0.979   2.810   0.223
  505SOL    HW2 1553   0.956   2.689   0.330
  506SOL     OW 1554   0.372   3.150   1.490
  506SOL    HW1 1555   0.359   3.243   1.456
  506SOL    HW2 1556   0.288   3.098   1.477
  507SOL     OW 1557   1.614   3.154   1.289
  507SOL    HW1 1558   1.674   3.157   1.369
  507SOL    HW2 1559   1.539   3.218   1.302
  508SOL     OW 1560   1.039   2.960   0.696
  508SOL    HW1 1561   0.969   2.913   0.750
  508SOL    HW2 1562   1.098   2.892   0.653
  509SOL     OW 1563   1.014   2.098   0.971
  509SOL    HW1 1564   1.006   2.062   0.878
  509SOL    HW2 1565   1.012   2.022   1.036
  510SOL     OW 1566   1.709   2.247   1.381
  510SOL    HW1 1567   1.782   2.316   1.385
  510SOL    HW2 1568   1.737   2.172   1.322
  511SOL     OW 1569   0.255   3.210   0.290
  511SOL    HW1 1570   0.159   3.211   0.263
  511SOL    HW2 1571   0.267   3.263   0.374
  512SOL     OW 1572   0.105   2.875   1.726
  512SOL    HW1 1573   0.028   2.842   1.780
  512SOL    HW2 1574   0.190   2.845   1.768
  513SOL     OW 1575   0.672   2.065   1.489
  513SOL    HW1 1576   0.762   2.049   1.449
  513SOL    HW2 1577   0.680   2.070   1.588
  514SOL     OW 1578   0.075   2.207   0.033
  514SOL    HW1 1579  -0.017   2.179   0.004
  514SOL    HW2 1580   0.106   2.284  -0.023
  515SOL     OW 1581   1.440   2.718   1.398
  515SOL    HW1 1582   1.383   2.770   1.335
  515SOL    HW2 1583   1.536   2.730   1.374
  516SOL     OW 1584   0.072   2.028   0.318
  516SOL    HW1 1585   0.055   2.111   0.264
  516SOL    HW2 1586   0.162   1.991   0.296
  517SOL     OW 1587   1.183   3.197   0.119
  517SOL    HW1 1588   1.084   3.186   0.121
  517SOL    HW2 1589   1.217   3.212   0.212
  518SOL     OW 1590   0.613   2.704   1.431
  518SOL    HW1 1591   0.669   2.785   1.414
  518SOL    HW2 1592   0.672   2.624   1.434
  519SOL     OW 1593   0.716   2.427   1.708
  519SOL    HW1 1594   0.735   2.492   1.782
  519SOL    HW2 1595   0.776   2.347   1.717
  520SOL     OW 1596   1.450   3.082   1.633
  520SOL    HW1 1597   1.441   3.072   1.732
  520SOL    HW2 1598   1.546   3.075   1.607
  521SOL     OW 1599   1.674   2.745   1.254
  521SOL    HW1 1600   1.647   2.656   1.217
  521SOL    HW2 1601   1.675   2.813   1.181
  522SOL     OW 1602   1.225   2.187   0.449
  522SOL    HW1 1603   1.290   2.113   0.438
  522SOL    HW2 1604   1.245   2.237   0.533
  523SOL     OW 1605   0.594   2.607   0.652
  523SOL    HW1 1606   0.644   2.692   0.633
  523SOL    HW2 1607   0.506   2.609   0.604
  524SOL     OW 1608   1.777   2.204   1.642
  524SOL    HW1 1609   1.760   2.235   1.548
  524SOL    HW2 1610   1.693   2.167   1.680
  525SOL     OW 1611   1.730   2.796   1.517
  525SOL    HW1 1612   1.768   2.887   1.532
  525SOL    HW2 1613   1.722   2.779   1.418
  526SOL     OW 1614   0.859   3.236   0.016
  526SOL    HW1 1615   0.813   3.251   0.104
  526SOL    HW2 1616   0.903   3.321  -0.014
  527SOL     OW 1617   0.859   2.818   0.861
  527SOL    HW1 1618   0.913   2.749   0.909
  527SOL    HW2 1619   0.827   2.887   0.927
  528SOL     OW 1620   1.083   2.846   0.087
  528SOL    HW1 1621   1.060   2.899   0.005
  528SOL    HW2 1622   1.164   2.790   0.068
  529SOL     OW 1623   0.221   3.176   1.844
  529SOL    HW1 1624   0.156   3.103   1.823
  529SOL    HW2 1625   0.225   3.190   1.942
  530SOL     OW 1626   0.079   3.102   0.653
  530SOL    HW1 1627   0.078   3.055   0.741
  530SOL    HW2 1628   0.161   3.074   0.602
  531SOL     OW 1629   0.672   3.253   1.624
  531SOL    HW1 1630   0.594   3.203   1.662
  531SOL    HW2 1631   0.669   3.348   1.655
  532SOL     OW 1632   1.824   2.054   1.227
  532SOL    HW1 1633   1.820   1.964   1.271
  532SOL    HW2 1634   1.827   2.043   1.128
  533SOL     OW 1635   0.428   2.286   0.520
  533SOL    HW1 1636   0.458   2.214   0.458
  533SOL    HW2 1637   0.389   2.246   0.603
  534SOL     OW 1638   1.705   3.349   1.104
  534SOL    HW1 1639   1.612   3.324   1.077
  534SOL    HW2 1640   1.731   3.299   1.186
  535SOL     OW 1641   0.317   2.409   1.280
  535SOL    HW1 1642   0.355   2.350   1.352
  535SOL    HW2 1643   0.357   2.383   1.192
  536SOL     OW 1644   1.424   2.076   1.112
  536SOL    HW1 1645   1.476   2.011   1.167
  536SOL    HW2 1646   1.375   2.139   1.173
  537SOL     OW 1647   1.001   1.896   1.154
  537SOL    HW1 1648   0.938   1.824   1.123
  537SOL    HW2 1649   1.094   1.860   1.154
  538SOL     OW 1650   0.770   3.192   0.301
  538SOL    HW1 1651   0.724   3.105   0.318
  538SOL    HW2 1652   0.861   3.189   0.342
  539SOL     OW 1653   1.352   1.914   0.168
  539SOL    HW1 1654   1.387   1.873   0.084
  539SOL    HW2 1655   1.262   1.876   0.188
  540SOL     OW 1656   1.300   2.315   0.691
  540SOL    HW1 1657   1.241   2.395   0.695
  540SOL    HW2 1658   1.315   2.280   0.784
  541SOL     OW 1659   1.593   2.083   0.882
  541SOL    HW1 1660   1.509   2.082   0.936
  541SOL    HW2 1661   1.595   2.166   0.826
  542SOL     OW 1662   0.039   2.939   0.300
  542SOL    HW1 1663   0.138   2.928   0.291
  542SOL    HW2 1664  -0.001   2.853   0.332
  543SOL     OW 1665   0.230   2.490   1.975
  543SOL    HW1 1666   0.137   2.488   2.012
  543SOL    HW2 1667   0.231   2.451   1.883
  544SOL     OW 1668   0.225   2.137   2.858
  544SOL    HW1 1669   0.260   2.120   2.950
  544SOL    HW2 1670   0.137   2.092   2.846
  545SOL     OW 1671   0.019   2.230   2.509
  545SOL    HW1 1672  -0.063   2.273   2.548
  545SOL    HW2 1673  -0.009   2.157   2.446
  546SOL     OW 1674   0.569   3.137   3.027
  546SOL    HW1 1675   0.476   3.130   2.990
  546SOL    HW2 1676   0.580   3.226   3.071
  547SOL     OW 1677   1.555   3.373   2.565
  547SOL    HW1 1678   1.498   3.357   2.646
  547SOL    HW2 1679   1.496   3.383   2.485
  548SOL     OW 1680   1.135   2.565   2.579
  548SOL    HW1 1681   1.192   2.643   2.554
  548SOL    HW2 1682   1.075   2.591   2.655
  549SOL     OW 1683   1.755   2.469   2.093
  549SOL    HW1 1684   1.743   2.456   1.994
  549SOL    HW2 1685   1.725   2.388   2.142
  550SOL     OW 1686   0.768   3.006   2.885
  550SOL    HW1 1687   0.690   3.023   2.945
  550SOL    HW2 1688   0.802   3.093   2.849
  551SOL     OW 1689   0.685   2.874   2.527
  551SOL    HW1 1690   0.754   2.858   2.597
  551SOL    HW2 1691   0.612   2.931   2.565
  552SOL     OW 1692   0.335   3.297   2.923
  552SOL    HW1 1693   0.257   3.266   2.870
  552SOL    HW2 1694   0.393   3.355   2.866
  553SOL     OW 1695   1.460   3.367   3.201
  553SOL    HW1 1696   1.484   3.461   3.227
  553SOL    HW2 1697   1.444   3.313   3.283
  554SOL     OW 1698   0.438   2.254   3.361
  554SOL    HW1 1699   0.520   2.198   3.370
  554SOL    HW2 1700   0.357   2.196   3.365
  555SOL     OW 1701   1.603   2.309   2.599
  555SOL    HW1 1702   1.529   2.355   2.549
  555SOL    HW2 1703   1.654   2.377   2.652
  556SOL     OW 1704   0.231   3.575   2.345
  556SOL    HW1 1705   0.265   3.652   2.399
  556SOL    HW2 1706   0.275   3.575   2.255
  557SOL     OW 1707   0.240   2.953   2.748
  557SOL    HW1 1708   0.254   2.869   2.800
  557SOL    HW2 1709   0.185   3.017   2.803
  558SOL     OW 1710   0.606   2.826   1.985
  558SOL    HW1 1711   0.613   2.910   1.931
  558SOL    HW2 1712   0.652   2.839   2.073
  559SOL     OW 1713   0.122   2.505   2.425
  559SOL    HW1 1714   0.077   2.417   2.442
  559SOL    HW2 1715   0.121   2.559   2.509
  560SOL     OW 1716   1.689   2.784   2.474
  560SOL    HW1 1717   1.784   2.755   2.482
  560SOL    HW2 1718   1.681   2.849   2.399
  561SOL     OW 1719   1.641   2.970   2.294
  561SOL    HW1 1720   1.727   2.972   2.242
  561SOL    HW2 1721   1.655   3.017   2.382
  562SOL     OW 1722   0.613   3.227   2.588
  562SOL    HW1 1723   0.564   3.140   2.597
  562SOL    HW2 1724   0.590   3.270   2.501
  563SOL     OW 1725   0.809   1.866   2.364
  563SOL    HW1 1726   0.849   1.957   2.355
  563SOL    HW2 1727   0.709   1.874   2.370
  564SOL     OW 1728   0.197   2.838   3.126
  564SOL    HW1 1729   0.286   2.793   3.112
  564SOL    HW2 1730   0.124   2.773   3.107
  565SOL     OW 1731   1.525   2.861   2.052
  565SOL    HW1 1732   1.462   2.785   2.065
  565SOL    HW2 1733   1.573   2.879   2.138
  566SOL     OW 1734   1.466   3.279   2.815
  566SOL    HW1 1735   1.407   3.285   2.895
  566SOL    HW2 1736   1.451   3.191   2.769
  567SOL     OW 1737   0.598   2.591   2.132
  567SOL    HW1 1738   0.622   2.660   2.064
  567SOL    HW2 1739   0.520   2.624   2.186
  568SOL     OW 1740   1.281   2.207   2.806
  568SOL    HW1 1741   1.195   2.157   2.793
  568SOL    HW2 1742   1.343   2.153   2.862
  569SOL     OW 1743   0.807   2.467   3.327
  569SOL    HW1 1744   0.760   2.464   3.416
  569SOL    HW2 1745   0.756   2.412   3.261
  570SOL     OW 1746   0.991   2.272   3.104
  570SOL    HW1 1747   0.914   2.306   3.158
  570SOL    HW2 1748   0.957   2.221   3.025
  571SOL     OW 1749   1.041   2.563   2.291
  571SOL    HW1 1750   1.067   2.559   2.387
  571SOL    HW2 1751   0.956   2.512   2.277
  572SOL     OW 1752   0.076   2.673   2.651
  572SOL    HW1 1753   0.175   2.661   2.660
  572SOL    HW2 1754   0.052   2.768   2.672
  573SOL     OW 1755   0.865   2.210   2.057
  573SOL    HW1 1756   0.924   2.273   2.008
  573SOL    HW2 1757   0.884   2.116   2.028
  574SOL     OW 1758   1.362   3.006   2.407
  574SOL    HW1 1759   1.445   2.977   2.359
  574SOL    HW2 1760   1.313   3.073   2.351
  575SOL     OW 1761   0.550   2.058   2.747
  575SOL    HW1 1762   0.545   2.053   2.847
  575SOL    HW2 1763   0.552   2.154   2.718
  576SOL     OW 1764   1.008   3.318   2.339
  576SOL    HW1 1765   0.962   3.390   2.287
  576SOL    HW2 1766   1.004   3.338   2.437
  577SOL     OW 1767   1.795   2.928   2.735
  577SOL    HW1 1768   1.733   2.913   2.659
  577SOL    HW2 1769   1.743   2.939   2.820
  578SOL     OW 1770   1.227   3.412   3.368
  578SOL    HW1 1771   1.233   3.335   3.432
  578SOL    HW2 1772   1.175   3.386   3.288
  579SOL     OW 1773   0.321   2.805   2.104
  579SOL    HW1 1774   0.403   2.844   2.062
  579SOL    HW2 1775   0.294   2.723   2.055
  580SOL     OW 1776   1.458   2.597   2.590
  580SOL    HW1 1777   1.453   2.532   2.665
  580SOL    HW2 1778   1.538   2.656   2.603
  581SOL     OW 1779   0.461   3.128   3.589
  581SOL    HW1 1780   0.411   3.129   3.503
  581SOL    HW2 1781   0.398   3.110   3.665
  582SOL     OW 1782   1.111   3.638   2.099
  582SOL    HW1 1783   1.051   3.576   2.149
  582SOL    HW2 1784   1.142   3.594   2.014
  583SOL     OW 1785   1.632   3.239   1.943
  583SOL    HW1 1786   1.600   3.333   1.933
  583SOL    HW2 1787   1.556   3.176   1.931
  584SOL     OW 1788   1.400   1.969   2.288
  584SOL    HW1 1789   1.376   1.932   2.198
  584SOL    HW2 1790   1.499   1.985   2.292
  585SOL     OW 1791   0.382   2.562   2.342
  585SOL    HW1 1792   0.427   2.472   2.339
  585SOL    HW2 1793   0.288   2.551   2.375
  586SOL     OW 1794   0.614   1.984   1.979
  586SOL    HW1 1795   0.712   1.962   1.986
  586SOL    HW2 1796   0.583   1.967   1.886
  587SOL     OW 1797   0.922   2.365   2.761
  587SOL    HW1 1798   0.897   2.356   2.665
  587SOL    HW2 1799   0.970   2.283   2.792
  588SOL     OW 1800   0.539   1.926   2.374
  588SOL    HW1 1801   0.458   1.927   2.432
  588SOL    HW2 1802   0.542   2.009   2.319
  589SOL     OW 1803   1.434   3.050   1.903
  589SOL    HW1 1804   1.466   2.974   1.960
  589SOL    HW2 1805   1.342   3.077   1.933
  590SOL     OW 1806   0.297   1.897   2.033
  590SOL    HW1 1807   0.346   1.981   2.012
  590SOL    HW2 1808   0.359   1.832   2.078
  591SOL     OW 1809   0.935   2.098   2.342
  591SOL    HW1 1810   0.887   2.139   2.264
  591SOL    HW2 1811   1.034   2.096   2.323
  592SOL     OW 1812   1.227   3.432   2.655
  592SOL    HW1 1813   1.248   3.506   2.590
  592SOL    HW2 1814   1.295   3.432   2.728
  593SOL     OW 1815   0.459   3.014   2.603
  593SOL    HW1 1816   0.388   2.987   2.668
  593SOL    HW2 1817   0.433   2.986   2.510
  594SOL     OW 1818   1.032   2.411   1.878
  594SOL    HW1 1819   0.991   2.493   1.839
  594SOL    HW2 1820   1.096   2.437   1.951
  595SOL     OW 1821   0.078   2.418   3.248
  595SOL    HW1 1822   0.170   2.417   3.207
  595SOL    HW2 1823   0.072   2.492   3.315
  596SOL     OW 1824   0.561   2.084   3.009
  596SOL    HW1 1825   0.599   2.000   3.046
  596SOL    HW2 1826   0.473   2.103   3.053
  597SOL     OW 1827   0.866   2.316   2.504
  597SOL    HW1 1828   0.834   2.388   2.442
  597SOL    HW2 1829   0.890   2.235   2.451
  598SOL     OW 1830   1.017   1.901   2.615
  598SOL    HW1 1831   0.945   1.906   2.546
  598SOL    HW2 1832   0.993   1.832   2.684
  599SOL     OW 1833   1.429   3.035   2.729
  599SOL    HW1 1834   1.374   2.951   2.722
  599SOL    HW2 1835   1.455   3.064   2.637
  600SOL     OW 1836   1.466   2.452   2.854
  600SOL    HW1 1837   1.436   2.357   2.861
  600SOL    HW2 1838   1.539   2.468   2.920
  601SOL     OW 1839   1.857   2.695   2.239
  601SOL    HW1 1840   1.899   2.631   2.303
  601SOL    HW2 1841   1.819   2.644   2.161
  602SOL     OW 1842   1.664   3.142   2.519
  602SOL    HW1 1843   1.763   3.150   2.533
  602SOL    HW2 1844   1.619   3.226   2.550
  603SOL     OW 1845   1.390   2.437   1.940
  603SOL    HW1 1846   1.336   2.416   2.021
  603SOL    HW2 1847   1.481   2.396   1.949
  604SOL     OW 1848   0.527   2.118   2.190
  604SOL    HW1 1849   0.554   2.059   2.115
  604SOL    HW2 1850   0.527   2.213   2.159
  605SOL     OW 1851   1.064   3.209   3.202
  605SOL    HW1 1852   0.984   3.186   3.257
  605SOL    HW2 1853   1.147   3.183   3.251
  606SOL     OW 1854   1.111   3.057   2.962
  606SOL    HW1 1855   1.071   3.101   3.043
  606SOL    HW2 1856   1.070   3.094   2.879
  607SOL     OW 1857   1.638   2.961   2.941
  607SOL    HW1 1858   1.643   3.042   3.000
  607SOL    HW2 1859   1.552   2.963   2.890
  608SOL     OW 1860   0.705   2.912   2.230
  608SOL    HW1 1861   0.691   2.919   2.329
  608SOL    HW2 1862   0.789   2.861   2.212
  609SOL     OW 1863   0.410   2.675   3.113
  609SOL    HW1 1864   0.496   2.687   3.163
  609SOL    HW2 1865   0.368   2.588   3.140
  610SOL     OW 1866   1.274   2.248   3.124
  610SOL    HW1 1867   1.295   2.322   3.188
  610SOL    HW2 1868   1.185   2.265   3.081
  611SOL     OW 1869   0.064   3.426   3.193
  611SOL    HW1 1870   0.018   3.508   3.159
  611SOL    HW2 1871   0.162   3.445   3.202
  612SOL     OW 1872   0.367   2.962   2.363
  612SOL    HW1 1873   0.360   3.045   2.307
  612SOL    HW2 1874   0.371   2.882   2.303
  613SOL     OW 1875   0.566   2.399   2.727
  613SOL    HW1 1876   0.578   2.465   2.653
  613SOL    HW2 1877   0.612   2.433   2.810
  614SOL     OW 1878   1.252   3.210   2.250
  614SOL    HW1 1879   1.302   3.287   2.290
  614SOL    HW2 1880   1.157   3.212   2.282
  615SOL     OW 1881   1.272   3.307   3.004
  615SOL    HW1 1882   1.319   3.320   3.091
  615SOL    HW2 1883   1.206   3.233   3.013
  616SOL     OW 1884   1.582   2.501   2.334
  616SOL    HW1 1885   1.551   2.562   2.407
  616SOL    HW2 1886   1.632   2.553   2.265
  617SOL     OW 1887   0.354   3.372   3.191
  617SOL    HW1 1888   0.333   3.328   3.104
  617SOL    HW2 1889   0.451   3.398   3.194
  618SOL     OW 1890   0.402   2.613   3.460
  618SOL    HW1 1891   0.470   2.668   3.413
  618SOL    HW2 1892   0.442   2.525   3.487
  619SOL     OW 1893   0.573   2.732   2.891
  619SOL    HW1 1894   0.617   2.821   2.882
  619SOL    HW2 1895   0.510   2.732   2.968
  620SOL     OW 1896   1.360   2.724   2.907
  620SOL    HW1 1897   1.285   2.724   2.841
  620SOL    HW2 1898   1.397   2.632   2.916
  621SOL     OW 1899   1.209   2.387   2.137
  621SOL    HW1 1900   1.222   2.303   2.191
  621SOL    HW2 1901   1.180   2.461   2.197
  622SOL     OW 1902   0.307   2.075   3.093
  622SOL    HW1 1903   0.284   2.112   3.183
  622SOL    HW2 1904   0.277   1.980   3.087
  623SOL     OW 1905   0.037   3.172   3.144
  623SOL    HW1 1906   0.090   3.123   3.212
  623SOL    HW2 1907   0.059   3.270   3.149
  624SOL     OW 1908   0.732   2.496   2.926
  624SOL    HW1 1909   0.791   2.470   2.850
  624SOL    HW2 1910   0.704   2.592   2.915
  625SOL     OW 1911   0.307   1.925   2.480
  625SOL    HW1 1912   0.296   2.019   2.513
  625SOL    HW2 1913   0.302   1.862   2.557
  626SOL     OW 1914   1.622   2.229   2.236
  626SOL    HW1 1915   1.624   2.153   2.300
  626SOL    HW2 1916   1.574   2.306   2.276
  627SOL     OW 1917   1.023   2.628   2.828
  627SOL    HW1 1918   1.038   2.649   2.924
  627SOL    HW2 1919   0.993   2.533   2.819
  628SOL     OW 1920   1.540   2.136   1.987
  628SOL    HW1 1921   1.479   2.061   2.010
  628SOL    HW2 1922   1.562   2.188   2.070
  629SOL     OW 1923   1.303   2.700   1.904
  629SOL    HW1 1924   1.337   2.607   1.919
  629SOL    HW2 1925   1.321   2.727   1.809
  630SOL     OW 1926   1.068   3.195   2.711
  630SOL    HW1 1927   1.075   3.111   2.656
  630SOL    HW2 1928   1.130   3.264   2.675
  631SOL     OW 1929   0.319   2.672   2.811
  631SOL    HW1 1930   0.412   2.708   2.816
  631SOL    HW2 1931   0.313   2.587   2.863
  632SOL     OW 1932   0.339   2.371   2.868
  632SOL    HW1 1933   0.287   2.288   2.851
  632SOL    HW2 1934   0.416   2.376   2.804
  633SOL     OW 1935   1.160   2.069   3.339
  633SOL    HW1 1936   1.160   2.133   3.416
  633SOL    HW2 1937   1.188   2.117   3.256
  634SOL     OW 1938   0.008   3.188   2.062
  634SOL    HW1 1939  -0.085   3.209   2.031
  634SOL    HW2 1940   0.018   3.089   2.075
  635SOL     OW 1941   1.002   2.658   3.100
  635SOL    HW1 1942   1.043   2.626   3.186
  635SOL    HW2 1943   0.906   2.631   3.097
  636SOL     OW 1944   0.040   2.406   2.976
  636SOL    HW1 1945   0.125   2.373   2.935
  636SOL    HW2 1946   0.053   2.421   3.074
  637SOL     OW 1947   0.815   2.434   2.187
  637SOL    HW1 1948   0.822   2.345   2.141
  637SOL    HW2 1949   0.721   2.468   2.179
  638SOL     OW 1950   1.657   2.466   3.068
  638SOL    HW1 1951   1.619   2.397   3.130
  638SOL    HW2 1952   1.739   2.430   3.024
  639SOL     OW 1953   0.671   2.326   3.131
  639SOL    HW1 1954   0.637   2.237   3.101
  639SOL    HW2 1955   0.697   2.380   3.051
  640SOL     OW 1956   0.473   2.362   2.053
  640SOL    HW1 1957   0.534   2.442   2.057
  640SOL    HW2 1958   0.378   2.393   2.060
  641SOL     OW 1959   0.159   2.999   3.328
  641SOL    HW1 1960   0.181   2.938   3.404
  641SOL    HW2 1961   0.169   2.950   3.242
  642SOL     OW 1962   1.347   2.921   3.096
  642SOL    HW1 1963   1.371   2.858   3.022
  642SOL    HW2 1964   1.257   2.961   3.078
  643SOL     OW 1965   1.302   2.717   2.171
  643SOL    HW1 1966   1.216   2.686   2.213
  643SOL    HW2 1967   1.298   2.703   2.072
  644SOL     OW 1968   0.083   3.120   2.884
  644SOL    HW1 1969   0.078   3.119   2.984
  644SOL    HW2 1970   0.000   3.079   2.846
  645SOL     OW 1971   1.280   2.789   2.534
  645SOL    HW1 1972   1.340   2.708   2.536
  645SOL    HW2 1973   1.320   2.858   2.474
  646SOL     OW 1974   1.841   2.037   2.825
  646SOL    HW1 1975   1.880   1.952   2.789
  646SOL    HW2 1976   1.743   2.039   2.806
  647SOL     OW 1977   0.263   2.188   2.582
  647SOL    HW1 1978   0.184   2.239   2.548
  647SOL    HW2 1979   0.254   2.173   2.680
  648SOL     OW 1980   0.822   2.864   3.234
  648SOL    HW1 1981   0.862   2.863   3.142
  648SOL    HW2 1982   0.832   2.956   3.274
  649SOL     OW 1983   0.916   2.772   2.153
  649SOL    HW1 1984   0.979   2.810   2.085
  649SOL    HW2 1985   0.956   2.689   2.192
  650SOL     OW 1986   0.372   3.150   3.352
  650SOL    HW1 1987   0.359   3.243   3.318
  650SOL    HW2 1988   0.288   3.098   3.339
  651SOL     OW 1989   1.614   3.154   3.151
  651SOL    HW1 1990   1.674   3.157   3.231
  651SOL    HW2 1991   1.539   3.218   3.164
  652SOL     OW 1992   1.039   2.960   2.558
  652SOL    HW1 1993   0.969   2.913   2.612
  652SOL    HW2 1994   1.098   2.892   2.515
  653SOL     OW 1995   1.014   2.098   2.833
  653SOL    HW1 1996   1.006   2.062   2.740
  653SOL    HW2 1997   1.012   2.022   2.898
  654SOL     OW 1998   1.709   2.247   3.243
  654SOL    HW1 1999   1.782   2.316   3.247
  654SOL    HW2 2000   1.737   2.172   3.184
  655SOL     OW 2001   0.255   3.210   2.152
  655SOL    HW1 2002   0.159   3.211   2.125
  655SOL    HW2 2003   0.267   3.263   2.236
  656SOL     OW 2004   0.672   2.065   3.351
  656SOL    HW1 2005   0.762   2.049   3.311
  656SOL    HW2 2006   0.680   2.070   3.450
  657SOL     OW 2007   0.075   2.207   1.895
  657SOL    HW1 2008  -0.017   2.179   1.866
  657SOL    HW2 2009   0.106   2.284   1.839
  658SOL     OW 2010   0.072   2.028   2.180
  658SOL    HW1 2011   0.055   2.111   2.126
  658SOL    HW2 2012   0.162   1.991   2.158
  659SOL     OW 2013   1.183   3.197   1.981
  659SOL    HW1 2014   1.084   3.186   1.983
  659SOL    HW2 2015   1.217   3.212   2.074
  660SOL     OW 2016   0.613   2.704   3.293
  660SOL    HW1 2017   0.669   2.785   3.276
  660SOL    HW2 2018   0.672   2.624   3.296
  661SOL     OW 2019   1.674   2.745   3.116
  661SOL    HW1 2020   1.647   2.656   3.079
  661SOL    HW2 2021   1.675   2.813   3.043
  662SOL     OW 2022   1.225   2.187   2.311
  662SOL    HW1 2023   1.290   2.113   2.300
  662SOL    HW2 2024   1.245   2.237   2.395
  663SOL     OW 2025   0.594   2.607   2.514
  663SOL    HW1 2026   0.644   2.692   2.495
  663SOL    HW2 2027   0.506   2.609   2.466
  664SOL     OW 2028   1.730   2.796   3.379
  664SOL    HW1 2029   1.768   2.887   3.394
  664SOL    HW2 2030   1.722   2.779   3.280
  665SOL     OW 2031   0.859   3.236   1.878
  665SOL    HW1 2032   0.813   3.251   1.966
  665SOL    HW2 2033   0.903   3.321   1.848
  666SOL     OW 2034   0.859   2.818   2.723
  666SOL    HW1 2035   0.913   2.749   2.771
  666SOL    HW2 2036   0.827   2.887   2.789
  667SOL     OW 2037   1.083   2.846   1.949
  667SOL    HW1 2038   1.060   2.899   1.867
  667SOL    HW2 2039   1.164   2.790   1.930
  668SOL     OW 2040   0.079   3.102   2.515
  668SOL    HW1 2041   0.078   3.055   2.603
  668SOL    HW2 2042   0.161   3.074   2.464
  669SOL     OW 2043   1.824   2.054   3.089
  669SOL    HW1 2044   1.820   1.964   3.133
  669SOL    HW2 2045   1.827   2.043   2.990
  670SOL     OW 2046   0.428   2.286   2.382
  670SOL    HW1 2047   0.458   2.214   2.320
  670SOL    HW2 2048   0.389   2.246   2.465
  671SOL     OW 2049   1.705   3.349   2.966
  671SOL    HW1 2050   1.612   3.324   2.939
  671SOL    HW2 2051   1.731   3.299   3.048
  672SOL     OW 2052   0.317   2.409   3.142
  672SOL    HW1 2053   0.355   2.350   3.214
  672SOL    HW2 2054   0.357   2.383   3.054
  673SOL     OW 2055   1.424   2.076   2.974
  673SOL    HW1 2056   1.476   2.011   3.029
  673SOL    HW2 2057   1.375   2.139   3.035
  674SOL     OW 2058   1.001   1.896   3.016
  674SOL    HW1 2059   0.938   1.824   2.985
  674SOL    HW2 2060   1.094   1.860   3.016
  675SOL     OW 2061   0.770   3.192   2.163
  675SOL    HW1 2062   0.724   3.105   2.180
  675SOL    HW2 2063   0.861   3.189   2.204
  676SOL     OW 2064   1.352   1.914   2.030
  676SOL    HW1 2065   1.387   1.873   1.946
  676SOL    HW2 2066   1.262   1.876   2.050
  677SOL     OW 2067   1.300   2.315   2.553
  677SOL    HW1 2068   1.241   2.395   2.557
  677SOL    HW2 2069   1.315   2.280   2.646
  678SOL     OW 2070   1.593   2.083   2.744
  678SOL    HW1 2071   1.509   2.082   2.798
  678SOL    HW2 2072   1.595   2.166   2.688
  679SOL     OW 2073   0.039   2.939   2.162
  679SOL    HW1 2074   0.138   2.928   2.153
  679SOL    HW2 2075  -0.001   2.853   2.194
  680SOL     OW 2076   2.092   0.628   0.113
  680SOL    HW1 2077   1.999   0.626   0.150
  680SOL    HW2 2078   2.093   0.589   0.021
  681SOL     OW 2079   2.087   0.275   0.996
  681SOL    HW1 2080   2.122   0.258   1.088
  681SOL    HW2 2081   1.999   0.230   0.984
  682SOL     OW 2082   1.881   0.368   0.647
  682SOL    HW1 2083   1.799   0.411   0.686
  682SOL    HW2 2084   1.853   0.295   0.584
  683SOL     OW 2085   2.431   1.275   1.165
  683SOL    HW1 2086   2.338   1.268   1.128
  683SOL    HW2 2087   2.442   1.364   1.209
  684SOL     OW 2088   3.417   1.511   0.703
  684SOL    HW1 2089   3.360   1.495   0.784
  684SOL    HW2 2090   3.358   1.521   0.623
  685SOL     OW 2091   2.997   0.703   0.717
  685SOL    HW1 2092   3.054   0.781   0.692
  685SOL    HW2 2093   2.937   0.729   0.793
  686SOL     OW 2094   2.630   1.144   1.023
  686SOL    HW1 2095   2.552   1.161   1.083
  686SOL    HW2 2096   2.664   1.231   0.987
  687SOL     OW 2097   2.712   0.798   1.823
  687SOL    HW1 2098   2.708   0.874   1.888
  687SOL    HW2 2099   2.734   0.834   1.732
  688SOL     OW 2100   2.547   1.012   0.665
  688SOL    HW1 2101   2.616   0.996   0.735
  688SOL    HW2 2102   2.474   1.069   0.703
  689SOL     OW 2103   2.548   1.161   1.803
  689SOL    HW1 2104   2.608   1.240   1.817
  689SOL    HW2 2105   2.462   1.192   1.762
  690SOL     OW 2106   2.197   1.435   1.061
  690SOL    HW1 2107   2.119   1.404   1.008
  690SOL    HW2 2108   2.255   1.493   1.004
  691SOL     OW 2109   2.300   0.392   1.499
  691SOL    HW1 2110   2.382   0.336   1.508
  691SOL    HW2 2111   2.219   0.334   1.503
  692SOL     OW 2112   2.093   1.713   0.483
  692SOL    HW1 2113   2.127   1.790   0.537
  692SOL    HW2 2114   2.137   1.713   0.393
  693SOL     OW 2115   2.989   1.341   1.690
  693SOL    HW1 2116   3.036   1.341   1.778
  693SOL    HW2 2117   2.941   1.254   1.679
  694SOL     OW 2118   2.092   1.434   0.538
  694SOL    HW1 2119   2.066   1.530   0.538
  694SOL    HW2 2120   2.021   1.380   0.583
  695SOL     OW 2121   2.102   1.091   0.886
  695SOL    HW1 2122   2.116   1.007   0.938
  695SOL    HW2 2123   2.047   1.155   0.941
  696SOL     OW 2124   2.482   1.786   1.439
  696SOL    HW1 2125   2.390   1.769   1.474
  696SOL    HW2 2126   2.510   1.878   1.465
  697SOL     OW 2127   2.468   0.964   0.123
  697SOL    HW1 2128   2.475   1.048   0.069
  697SOL    HW2 2129   2.514   0.977   0.211
  698SOL     OW 2130   1.984   0.643   0.563
  698SOL    HW1 2131   1.939   0.555   0.580
  698SOL    HW2 2132   1.983   0.697   0.647
  699SOL     OW 2133   1.889   1.596   0.117
  699SOL    HW1 2134   1.870   1.500   0.138
  699SOL    HW2 2135   1.856   1.654   0.192
  700SOL     OW 2136   3.551   0.922   0.612
  700SOL    HW1 2137   3.646   0.893   0.620
  700SOL    HW2 2138   3.543   0.987   0.537
  701SOL     OW 2139   1.975   0.737   1.597
  701SOL    HW1 2140   2.063   0.724   1.642
  701SOL    HW2 2141   1.962   0.834   1.575
  702SOL     OW 2142   2.475   1.365   0.726
  702SOL    HW1 2143   2.426   1.278   0.735
  702SOL    HW2 2144   2.452   1.408   0.639
  703SOL     OW 2145   3.155   1.228   1.423
  703SOL    HW1 2146   3.192   1.155   1.365
  703SOL    HW2 2147   3.207   1.233   1.508
  704SOL     OW 2148   2.671   0.004   0.502
  704SOL    HW1 2149   2.711   0.095   0.493
  704SOL    HW2 2150   2.571   0.012   0.508
  705SOL     OW 2151   2.059   0.976   1.264
  705SOL    HW1 2152   2.148   0.931   1.250
  705SOL    HW2 2153   1.986   0.911   1.245
  706SOL     OW 2154   3.049   1.792   1.616
  706SOL    HW1 2155   3.073   1.852   1.540
  706SOL    HW2 2156   3.056   1.697   1.586
  707SOL     OW 2157   2.179   0.251   1.801
  707SOL    HW1 2158   2.250   0.322   1.807
  707SOL    HW2 2159   2.091   0.290   1.829
  708SOL     OW 2160   3.328   1.417   0.953
  708SOL    HW1 2161   3.269   1.423   1.033
  708SOL    HW2 2162   3.313   1.329   0.907
  709SOL     OW 2163   2.460   0.729   0.270
  709SOL    HW1 2164   2.484   0.798   0.202
  709SOL    HW2 2165   2.382   0.762   0.324
  710SOL     OW 2166   3.143   0.345   0.944
  710SOL    HW1 2167   3.057   0.295   0.931
  710SOL    HW2 2168   3.205   0.291   1.000
  711SOL     OW 2169   2.669   0.605   1.465
  711SOL    HW1 2170   2.622   0.602   1.554
  711SOL    HW2 2171   2.618   0.550   1.399
  712SOL     OW 2172   3.256   0.469   1.674
  712SOL    HW1 2173   3.236   0.512   1.762
  712SOL    HW2 2174   3.334   0.407   1.683
  713SOL     OW 2175   2.835   0.890   1.572
  713SOL    HW1 2176   2.881   0.806   1.543
  713SOL    HW2 2177   2.779   0.924   1.497
  714SOL     OW 2178   2.853   0.410   1.242
  714SOL    HW1 2179   2.776   0.444   1.296
  714SOL    HW2 2180   2.819   0.359   1.163
  715SOL     OW 2181   2.903   0.701   0.429
  715SOL    HW1 2182   2.929   0.697   0.525
  715SOL    HW2 2183   2.818   0.650   0.415
  716SOL     OW 2184   1.938   0.811   0.789
  716SOL    HW1 2185   2.037   0.799   0.798
  716SOL    HW2 2186   1.914   0.906   0.810
  717SOL     OW 2187   1.992   1.821   1.571
  717SOL    HW1 2188   1.982   1.806   1.670
  717SOL    HW2 2189   1.906   1.857   1.535
  718SOL     OW 2190   2.727   0.348   0.195
  718SOL    HW1 2191   2.786   0.411   0.146
  718SOL    HW2 2192   2.746   0.254   0.166
  719SOL     OW 2193   3.224   1.144   0.545
  719SOL    HW1 2194   3.307   1.115   0.497
  719SOL    HW2 2195   3.175   1.211   0.489
  720SOL     OW 2196   2.412   0.196   0.885
  720SOL    HW1 2197   2.407   0.191   0.985
  720SOL    HW2 2198   2.414   0.292   0.856
  721SOL     OW 2199   2.870   1.456   0.477
  721SOL    HW1 2200   2.824   1.528   0.425
  721SOL    HW2 2201   2.866   1.476   0.575
  722SOL     OW 2202   2.213   1.801   0.853
  722SOL    HW1 2203   2.263   1.715   0.859
  722SOL    HW2 2204   2.278   1.878   0.850
  723SOL     OW 2205   3.089   1.550   1.506
  723SOL    HW1 2206   3.095   1.473   1.570
  723SOL    HW2 2207   3.037   1.524   1.426
  724SOL     OW 2208   2.183   0.943   0.242
  724SOL    HW1 2209   2.265   0.982   0.200
  724SOL    HW2 2210   2.156   0.861   0.193
  725SOL     OW 2211   2.323   1.266   1.727
  725SOL    HW1 2212   2.273   1.267   1.641
  725SOL    HW2 2213   2.260   1.248   1.803
  726SOL     OW 2214   2.973   1.776   0.237
  726SOL    HW1 2215   2.913   1.714   0.287
  726SOL    HW2 2216   3.004   1.732   0.152
  727SOL     OW 2217   2.064   0.285   1.498
  727SOL    HW1 2218   1.984   0.345   1.485
  727SOL    HW2 2219   2.054   0.236   1.584
  728SOL     OW 2220   2.326   1.743   0.323
  728SOL    HW1 2221   2.359   1.782   0.409
  728SOL    HW2 2222   2.402   1.736   0.258
  729SOL     OW 2223   2.111   1.785   1.241
  729SOL    HW1 2224   2.168   1.720   1.291
  729SOL    HW2 2225   2.095   1.752   1.148
  730SOL     OW 2226   2.802   1.698   0.904
  730SOL    HW1 2227   2.882   1.641   0.925
  730SOL    HW2 2228   2.753   1.658   0.827
  731SOL     OW 2229   2.244   0.700   0.480
  731SOL    HW1 2230   2.289   0.610   0.477
  731SOL    HW2 2231   2.150   0.689   0.513
  732SOL     OW 2232   2.476   0.122   0.117
  732SOL    HW1 2233   2.574   0.100   0.124
  732SOL    HW2 2234   2.445   0.105   0.024
  733SOL     OW 2235   2.643   0.264   1.749
  733SOL    HW1 2236   2.710   0.203   1.792
  733SOL    HW2 2237   2.570   0.283   1.814
  734SOL     OW 2238   2.750   1.514   1.195
  734SOL    HW1 2239   2.727   1.489   1.101
  734SOL    HW2 2240   2.811   1.445   1.234
  735SOL     OW 2241   3.213   0.590   1.433
  735SOL    HW1 2242   3.241   0.547   1.518
  735SOL    HW2 2243   3.238   0.686   1.434
  736SOL     OW 2244   2.665   1.402   0.924
  736SOL    HW1 2245   2.755   1.416   0.882
  736SOL    HW2 2246   2.594   1.404   0.853
  737SOL     OW 2247   2.784   0.503   0.899
  737SOL    HW1 2248   2.759   0.494   0.803
  737SOL    HW2 2249   2.832   0.421   0.930
  738SOL     OW 2250   2.401   0.064   0.512
  738SOL    HW1 2251   2.320   0.065   0.570
  738SOL    HW2 2252   2.404   0.147   0.457
  739SOL     OW 2253   3.296   1.188   0.041
  739SOL    HW1 2254   3.328   1.112   0.098
  739SOL    HW2 2255   3.204   1.215   0.071
  740SOL     OW 2256   2.159   0.035   0.171
  740SOL    HW1 2257   2.208   0.119   0.150
  740SOL    HW2 2258   2.221  -0.030   0.216
  741SOL     OW 2259   2.797   0.236   0.480
  741SOL    HW1 2260   2.749   0.277   0.402
  741SOL    HW2 2261   2.896   0.234   0.461
  742SOL     OW 2262   2.938   0.683   1.464
  742SOL    HW1 2263   2.858   0.622   1.467
  742SOL    HW2 2264   3.019   0.630   1.440
  743SOL     OW 2265   3.089   1.570   0.793
  743SOL    HW1 2266   3.110   1.644   0.728
  743SOL    HW2 2267   3.157   1.570   0.866
  744SOL     OW 2268   2.321   1.152   0.741
  744SOL    HW1 2269   2.250   1.125   0.806
  744SOL    HW2 2270   2.295   1.124   0.648
  745SOL     OW 2271   3.133   1.797   0.591
  745SOL    HW1 2272   3.177   1.861   0.527
  745SOL    HW2 2273   3.083   1.849   0.661
  746SOL     OW 2274   2.894   0.549   0.016
  746SOL    HW1 2275   2.853   0.631  -0.023
  746SOL    HW2 2276   2.958   0.575   0.089
  747SOL     OW 2277   1.940   0.556   1.386
  747SOL    HW1 2278   2.032   0.555   1.345
  747SOL    HW2 2279   1.934   0.630   1.453
  748SOL     OW 2280   2.423   0.222   1.147
  748SOL    HW1 2281   2.461   0.138   1.184
  748SOL    HW2 2282   2.335   0.241   1.191
  749SOL     OW 2283   2.728   0.454   0.642
  749SOL    HW1 2284   2.696   0.526   0.580
  749SOL    HW2 2285   2.752   0.373   0.589
  750SOL     OW 2286   2.879   0.039   0.753
  750SOL    HW1 2287   2.807   0.044   0.684
  750SOL    HW2 2288   2.855  -0.030   0.822
  751SOL     OW 2289   2.350   1.385   0.174
  751SOL    HW1 2290   2.263   1.370   0.221
  751SOL    HW2 2291   2.333   1.411   0.079
  752SOL     OW 2292   3.252   0.575   0.078
  752SOL    HW1 2293   3.198   0.554   0.159
  752SOL    HW2 2294   3.343   0.534   0.087
  753SOL     OW 2295   2.389   0.256   0.328
  753SOL    HW1 2296   2.416   0.197   0.253
  753SOL    HW2 2297   2.389   0.351   0.297
  754SOL     OW 2298   2.926   1.347   1.340
  754SOL    HW1 2299   2.846   1.324   1.395
  754SOL    HW2 2300   3.009   1.321   1.389
  755SOL     OW 2301   2.973   1.195   1.100
  755SOL    HW1 2302   2.933   1.239   1.181
  755SOL    HW2 2303   2.932   1.232   1.017
  756SOL     OW 2304   2.777   0.089   1.402
  756SOL    HW1 2305   2.802   0.069   1.307
  756SOL    HW2 2306   2.849   0.145   1.444
  757SOL     OW 2307   2.842   1.116   1.719
  757SOL    HW1 2308   2.743   1.122   1.729
  757SOL    HW2 2309   2.865   1.036   1.663
  758SOL     OW 2310   2.567   1.050   0.368
  758SOL    HW1 2311   2.553   1.057   0.467
  758SOL    HW2 2312   2.651   0.999   0.350
  759SOL     OW 2313   2.272   0.813   1.251
  759SOL    HW1 2314   2.358   0.825   1.301
  759SOL    HW2 2315   2.230   0.726   1.278
  760SOL     OW 2316   3.136   0.386   1.262
  760SOL    HW1 2317   3.157   0.460   1.326
  760SOL    HW2 2318   3.047   0.403   1.219
  761SOL     OW 2319   1.926   1.564   1.331
  761SOL    HW1 2320   1.880   1.646   1.297
  761SOL    HW2 2321   2.024   1.583   1.340
  762SOL     OW 2322   2.229   1.100   0.501
  762SOL    HW1 2323   2.222   1.183   0.445
  762SOL    HW2 2324   2.233   1.020   0.441
  763SOL     OW 2325   2.428   0.537   0.865
  763SOL    HW1 2326   2.440   0.603   0.791
  763SOL    HW2 2327   2.474   0.571   0.948
  764SOL     OW 2328   3.114   1.348   0.388
  764SOL    HW1 2329   3.164   1.425   0.428
  764SOL    HW2 2330   3.019   1.350   0.420
  765SOL     OW 2331   3.134   1.445   1.142
  765SOL    HW1 2332   3.181   1.458   1.229
  765SOL    HW2 2333   3.068   1.371   1.151
  766SOL     OW 2334   2.216   1.510   1.329
  766SOL    HW1 2335   2.195   1.466   1.242
  766SOL    HW2 2336   2.313   1.536   1.332
  767SOL     OW 2337   2.264   0.751   1.598
  767SOL    HW1 2338   2.332   0.806   1.551
  767SOL    HW2 2339   2.304   0.663   1.625
  768SOL     OW 2340   2.875   0.105   1.770
  768SOL    HW1 2341   2.881   0.190   1.718
  768SOL    HW2 2342   2.907   0.029   1.713
  769SOL     OW 2343   2.366   0.050   1.740
  769SOL    HW1 2344   2.324  -0.007   1.670
  769SOL    HW2 2345   2.300   0.119   1.772
  770SOL     OW 2346   2.435   0.870   1.029
  770SOL    HW1 2347   2.479   0.959   1.020
  770SOL    HW2 2348   2.372   0.870   1.106
  771SOL     OW 2349   3.222   0.862   1.045
  771SOL    HW1 2350   3.147   0.862   0.979
  771SOL    HW2 2351   3.259   0.770   1.054
  772SOL     OW 2352   3.071   0.525   0.275
  772SOL    HW1 2353   3.084   0.441   0.329
  772SOL    HW2 2354   3.042   0.599   0.335
  773SOL     OW 2355   2.169   0.213   1.231
  773SOL    HW1 2356   2.146   0.250   1.321
  773SOL    HW2 2357   2.139   0.118   1.225
  774SOL     OW 2358   1.899   1.310   1.282
  774SOL    HW1 2359   1.952   1.261   1.350
  774SOL    HW2 2360   1.921   1.408   1.287
  775SOL     OW 2361   2.594   0.634   1.064
  775SOL    HW1 2362   2.653   0.608   0.988
  775SOL    HW2 2363   2.566   0.730   1.053
  776SOL     OW 2364   2.169   0.063   0.618
  776SOL    HW1 2365   2.158   0.157   0.651
  776SOL    HW2 2366   2.164   0.000   0.695
  777SOL     OW 2367   3.484   0.367   0.374
  777SOL    HW1 2368   3.486   0.291   0.438
  777SOL    HW2 2369   3.436   0.444   0.414
  778SOL     OW 2370   2.885   0.766   0.966
  778SOL    HW1 2371   2.900   0.787   1.062
  778SOL    HW2 2372   2.855   0.671   0.957
  779SOL     OW 2373   2.842   1.573   1.700
  779SOL    HW1 2374   2.822   1.617   1.612
  779SOL    HW2 2375   2.881   1.482   1.684
  780SOL     OW 2376   2.212   0.898   1.804
  780SOL    HW1 2377   2.288   0.942   1.852
  780SOL    HW2 2378   2.247   0.851   1.722
  781SOL     OW 2379   3.165   0.838   0.042
  781SOL    HW1 2380   3.199   0.745   0.057
  781SOL    HW2 2381   3.183   0.865  -0.053
  782SOL     OW 2382   2.930   1.333   0.849
  782SOL    HW1 2383   2.937   1.249   0.794
  782SOL    HW2 2384   2.992   1.402   0.813
  783SOL     OW 2385   2.181   0.810   0.949
  783SOL    HW1 2386   2.274   0.846   0.954
  783SOL    HW2 2387   2.175   0.725   1.001
  784SOL     OW 2388   2.201   0.509   1.006
  784SOL    HW1 2389   2.149   0.426   0.989
  784SOL    HW2 2390   2.278   0.514   0.942
  785SOL     OW 2391   3.000   0.380   1.678
  785SOL    HW1 2392   2.955   0.443   1.742
  785SOL    HW2 2393   3.093   0.411   1.661
  786SOL     OW 2394   3.022   0.207   1.477
  786SOL    HW1 2395   3.022   0.271   1.554
  786SOL    HW2 2396   3.050   0.255   1.394
  787SOL     OW 2397   1.870   1.326   0.200
  787SOL    HW1 2398   1.777   1.347   0.169
  787SOL    HW2 2399   1.880   1.227   0.213
  788SOL     OW 2400   1.950   1.801   0.927
  788SOL    HW1 2401   1.908   1.715   0.900
  788SOL    HW2 2402   2.044   1.804   0.893
  789SOL     OW 2403   2.366   1.568   0.910
  789SOL    HW1 2404   2.432   1.642   0.919
  789SOL    HW2 2405   2.410   1.489   0.868
  790SOL     OW 2406   2.864   0.796   1.238
  790SOL    HW1 2407   2.905   0.764   1.324
  790SOL    HW2 2408   2.768   0.769   1.235
  791SOL     OW 2409   1.902   0.544   1.114
  791SOL    HW1 2410   1.987   0.511   1.073
  791SOL    HW2 2411   1.915   0.559   1.212
  792SOL     OW 2412   2.051   0.520   1.722
  792SOL    HW1 2413   2.110   0.480   1.652
  792SOL    HW2 2414   1.993   0.591   1.681
  793SOL     OW 2415   3.231   0.950   1.660
  793SOL    HW1 2416   3.270   1.039   1.680
  793SOL    HW2 2417   3.241   0.930   1.563
  794SOL     OW 2418   2.677   0.572   0.325
  794SOL    HW1 2419   2.684   0.483   0.279
  794SOL    HW2 2420   2.583   0.606   0.317
  795SOL     OW 2421   2.533   0.464   1.269
  795SOL    HW1 2422   2.499   0.375   1.239
  795SOL    HW2 2423   2.559   0.518   1.189
  796SOL     OW 2424   2.792   1.678   1.465
  796SOL    HW1 2425   2.768   1.660   1.370
  796SOL    HW2 2426   2.822   1.772   1.475
  797SOL     OW 2427   2.335   0.500   0.191
  797SOL    HW1 2428   2.396   0.580   0.195
  797SOL    HW2 2429   2.240   0.531   0.198
  798SOL     OW 2430   2.021   1.137   1.466
  798SOL    HW1 2431   2.043   1.076   1.542
  798SOL    HW2 2432   2.031   1.088   1.380
  799SOL     OW 2433   3.209   1.059   1.234
  799SOL    HW1 2434   3.233   0.996   1.160
  799SOL    HW2 2435   3.119   1.099   1.216
  800SOL     OW 2436   3.164   0.855   0.309
  800SOL    HW1 2437   3.078   0.824   0.351
  800SOL    HW2 2438   3.160   0.841   0.210
  801SOL     OW 2439   3.114   1.731   1.128
  801SOL    HW1 2440   3.198   1.736   1.074
  801SOL    HW2 2441   3.091   1.635   1.146
  802SOL     OW 2442   1.945   1.258   1.022
  802SOL    HW1 2443   1.940   1.257   1.122
  802SOL    HW2 2444   1.862   1.217   0.984
  803SOL     OW 2445   2.550   1.662   1.716
  803SOL    HW1 2446   2.494   1.743   1.725
  803SOL    HW2 2447   2.602   1.666   1.630
  804SOL     OW 2448   2.765   0.086   0.133
  804SOL    HW1 2449   2.816   0.087   0.047
  804SOL    HW2 2450   2.821   0.044   0.204
  805SOL     OW 2451   3.250   1.573   0.477
  805SOL    HW1 2452   3.317   1.585   0.403
  805SOL    HW2 2453   3.210   1.662   0.500
  806SOL     OW 2454   3.142   0.927   0.672
  806SOL    HW1 2455   3.202   0.846   0.674
  806SOL    HW2 2456   3.182   0.996   0.612
  807SOL     OW 2457   2.692   1.273   1.422
  807SOL    HW1 2458   2.687   1.306   1.517
  807SOL    HW2 2459   2.606   1.292   1.376
  808SOL     OW 2460   2.534   1.616   0.154
  808SOL    HW1 2461   2.543   1.626   0.055
  808SOL    HW2 2462   2.494   1.527   0.175
  809SOL     OW 2463   2.125   0.326   0.720
  809SOL    HW1 2464   2.046   0.377   0.686
  809SOL    HW2 2465   2.116   0.311   0.818
  810SOL     OW 2466   3.056   1.612   0.031
  810SOL    HW1 2467   3.062   1.519   0.068
  810SOL    HW2 2468   2.997   1.612  -0.049
  811SOL     OW 2469   2.684   1.002   1.372
  811SOL    HW1 2470   2.724   1.001   1.280
  811SOL    HW2 2471   2.694   1.094   1.412
  812SOL     OW 2472   2.778   0.910   0.291
  812SOL    HW1 2473   2.841   0.948   0.223
  812SOL    HW2 2474   2.818   0.827   0.330
  813SOL     OW 2475   2.234   1.288   1.490
  813SOL    HW1 2476   2.221   1.381   1.456
  813SOL    HW2 2477   2.150   1.236   1.477
  814SOL     OW 2478   2.901   1.098   0.696
  814SOL    HW1 2479   2.831   1.051   0.750
  814SOL    HW2 2480   2.960   1.030   0.653
  815SOL     OW 2481   2.876   0.236   0.971
  815SOL    HW1 2482   2.868   0.200   0.878
  815SOL    HW2 2483   2.874   0.160   1.036
  816SOL     OW 2484   2.452   1.487   0.491
  816SOL    HW1 2485   2.494   1.429   0.421
  816SOL    HW2 2486   2.408   1.566   0.447
  817SOL     OW 2487   2.117   1.348   0.290
  817SOL    HW1 2488   2.021   1.349   0.263
  817SOL    HW2 2489   2.129   1.401   0.374
  818SOL     OW 2490   1.967   1.013   1.726
  818SOL    HW1 2491   1.890   0.980   1.780
  818SOL    HW2 2492   2.052   0.983   1.768
  819SOL     OW 2493   2.534   0.203   1.489
  819SOL    HW1 2494   2.624   0.187   1.449
  819SOL    HW2 2495   2.542   0.208   1.588
  820SOL     OW 2496   1.937   0.345   0.033
  820SOL    HW1 2497   1.845   0.317   0.004
  820SOL    HW2 2498   1.968   0.422  -0.023
  821SOL     OW 2499   3.302   0.856   1.398
  821SOL    HW1 2500   3.245   0.908   1.335
  821SOL    HW2 2501   3.398   0.868   1.374
  822SOL     OW 2502   1.934   0.166   0.318
  822SOL    HW1 2503   1.917   0.249   0.264
  822SOL    HW2 2504   2.024   0.129   0.296
  823SOL     OW 2505   3.045   1.335   0.119
  823SOL    HW1 2506   2.946   1.324   0.121
  823SOL    HW2 2507   3.079   1.350   0.212
  824SOL     OW 2508   2.475   0.842   1.431
  824SOL    HW1 2509   2.531   0.923   1.414
  824SOL    HW2 2510   2.534   0.762   1.434
  825SOL     OW 2511   2.578   0.565   1.708
  825SOL    HW1 2512   2.597   0.630   1.782
  825SOL    HW2 2513   2.638   0.485   1.717
  826SOL     OW 2514   3.312   1.220   1.633
  826SOL    HW1 2515   3.303   1.210   1.732
  826SOL    HW2 2516   3.408   1.213   1.607
  827SOL     OW 2517   3.087   0.325   0.449
  827SOL    HW1 2518   3.152   0.251   0.438
  827SOL    HW2 2519   3.107   0.375   0.533
  828SOL     OW 2520   2.456   0.745   0.652
  828SOL    HW1 2521   2.506   0.830   0.633
  828SOL    HW2 2522   2.368   0.747   0.604
  829SOL     OW 2523   2.721   1.374   0.016
  829SOL    HW1 2524   2.675   1.389   0.104
  829SOL    HW2 2525   2.765   1.459  -0.014
  830SOL     OW 2526   2.523   1.790   0.953
  830SOL    HW1 2527   2.477   1.878   0.940
  830SOL    HW2 2528   2.622   1.802   0.946
  831SOL     OW 2529   2.721   0.956   0.861
  831SOL    HW1 2530   2.775   0.887   0.909
  831SOL    HW2 2531   2.689   1.025   0.927
  832SOL     OW 2532   2.945   0.984   0.087
  832SOL    HW1 2533   2.922   1.037   0.005
  832SOL    HW2 2534   3.026   0.928   0.068
  833SOL     OW 2535   2.083   1.314   1.844
  833SOL    HW1 2536   2.018   1.241   1.823
  833SOL    HW2 2537   2.087   1.328   1.942
  834SOL     OW 2538   1.941   1.240   0.653
  834SOL    HW1 2539   1.940   1.193   0.741
  834SOL    HW2 2540   2.023   1.212   0.602
  835SOL     OW 2541   2.534   1.391   1.624
  835SOL    HW1 2542   2.456   1.341   1.662
  835SOL    HW2 2543   2.531   1.486   1.655
  836SOL     OW 2544   2.290   0.424   0.520
  836SOL    HW1 2545   2.320   0.352   0.458
  836SOL    HW2 2546   2.251   0.384   0.603
  837SOL     OW 2547   2.179   0.547   1.280
  837SOL    HW1 2548   2.217   0.488   1.352
  837SOL    HW2 2549   2.219   0.521   1.192
  838SOL     OW 2550   2.674   1.586   0.687
  838SOL    HW1 2551   2.706   1.596   0.593
  838SOL    HW2 2552   2.595   1.524   0.689
  839SOL     OW 2553   3.286   0.214   1.112
  839SOL    HW1 2554   3.338   0.149   1.167
  839SOL    HW2 2555   3.237   0.277   1.173
  840SOL     OW 2556   2.863   0.034   1.154
  840SOL    HW1 2557   2.800  -0.038   1.123
  840SOL    HW2 2558   2.956  -0.002   1.154
  841SOL     OW 2559   2.632   1.330   0.301
  841SOL    HW1 2560   2.586   1.243   0.318
  841SOL    HW2 2561   2.723   1.327   0.342
  842SOL     OW 2562   2.480   1.567   1.284
  842SOL    HW1 2563   2.475   1.649   1.341
  842SOL    HW2 2564   2.569   1.564   1.239
  843SOL     OW 2565   3.214   0.052   0.168
  843SOL    HW1 2566   3.249   0.011   0.084
  843SOL    HW2 2567   3.124   0.014   0.188
  844SOL     OW 2568   3.162   0.453   0.691
  844SOL    HW1 2569   3.103   0.533   0.695
  844SOL    HW2 2570   3.177   0.418   0.784
  845SOL     OW 2571   1.901   1.077   0.300
  845SOL    HW1 2572   2.000   1.066   0.291
  845SOL    HW2 2573   1.861   0.991   0.332
  846SOL     OW 2574   2.737   1.646   0.337
  846SOL    HW1 2575   2.660   1.611   0.283
  846SOL    HW2 2576   2.705   1.717   0.399
  847SOL     OW 2577   2.092   0.628   1.975
  847SOL    HW1 2578   1.999   0.626   2.012
  847SOL    HW2 2579   2.093   0.589   1.883
  848SOL     OW 2580   2.087   0.275   2.858
  848SOL    HW1 2581   2.122   0.258   2.950
  848SOL    HW2 2582   1.999   0.230   2.846
  849SOL     OW 2583   1.881   0.368   2.509
  849SOL    HW1 2584   1.799   0.411   2.548
  849SOL    HW2 2585   1.853   0.295   2.446
  850SOL     OW 2586   2.431   1.275   3.027
  850SOL    HW1 2587   2.338   1.268   2.990
  850SOL    HW2 2588   2.442   1.364   3.071
  851SOL     OW 2589   3.417   1.511   2.565
  851SOL    HW1 2590   3.360   1.495   2.646
  851SOL    HW2 2591   3.358   1.521   2.485
  852SOL     OW 2592   2.997   0.703   2.579
  852SOL    HW1 2593   3.054   0.781   2.554
  852SOL    HW2 2594   2.937   0.729   2.655
  853SOL     OW 2595   2.630   1.144   2.885
  853SOL    HW1 2596   2.552   1.161   2.945
  853SOL    HW2 2597   2.664   1.231   2.849
  854SOL     OW 2598   2.547   1.012   2.527
  854SOL    HW1 2599   2.616   0.996   2.597
  854SOL    HW2 2600   2.474   1.069   2.565
  855SOL     OW 2601   2.197   1.435   2.923
  855SOL    HW1 2602   2.119   1.404   2.870
  855SOL    HW2 2603   2.255   1.493   2.866
  856SOL     OW 2604   2.300   0.392   3.361
  856SOL    HW1 2605   2.382   0.336   3.370
  856SOL    HW2 2606   2.219   0.334   3.365
  857SOL     OW 2607   2.093   1.713   2.345
  857SOL    HW1 2608   2.127   1.790   2.399
  857SOL    HW2 2609   2.137   1.713   2.255
  858SOL     OW 2610   2.092   1.434   2.400
  858SOL    HW1 2611   2.066   1.530   2.400
  858SOL    HW2 2612   2.021   1.380   2.445
  859SOL     OW 2613   2.102   1.091   2.748
  859SOL    HW1 2614   2.116   1.007   2.800
  859SOL    HW2 2615   2.047   1.155   2.803
  860SOL     OW 2616   2.482   1.786   3.301
  860SOL    HW1 2617   2.390   1.769   3.336
  860SOL    HW2 2618   2.510   1.878   3.327
  861SOL     OW 2619   2.468   0.964   1.985
  861SOL    HW1 2620   2.475   1.048   1.931
  861SOL    HW2 2621   2.514   0.977   2.073
  862SOL     OW 2622   1.984   0.643   2.425
  862SOL    HW1 2623   1.939   0.555   2.442
  862SOL    HW2 2624   1.983   0.697   2.509
  863SOL     OW 2625   3.551   0.922   2.474
  863SOL    HW1 2626   3.646   0.893   2.482
  863SOL    HW2 2627   3.543   0.987   2.399
  864SOL     OW 2628   2.475   1.365   2.588
  864SOL    HW1 2629   2.426   1.278   2.597
  864SOL    HW2 2630   2.452   1.408   2.501
  865SOL     OW 2631   2.671   0.004   2.364
  865SOL    HW1 2632   2.711   0.095   2.355
  865SOL    HW2 2633   2.571   0.012   2.370
  866SOL     OW 2634   2.059   0.976   3.126
  866SOL    HW1 2635   2.148   0.931   3.112
  866SOL    HW2 2636   1.986   0.911   3.107
  867SOL     OW 2637   3.328   1.417   2.815
  867SOL    HW1 2638   3.269   1.423   2.895
  867SOL    HW2 2639   3.313   1.329   2.769
  868SOL     OW 2640   2.460   0.729   2.132
  868SOL    HW1 2641   2.484   0.798   2.064
  868SOL    HW2 2642   2.382   0.762   2.186
  869SOL     OW 2643   3.143   0.345   2.806
  869SOL    HW1 2644   3.057   0.295   2.793
  869SOL    HW2 2645   3.205   0.291   2.862
  870SOL     OW 2646   2.669   0.605   3.327
  870SOL    HW1 2647   2.622   0.602   3.416
  870SOL    HW2 2648   2.618   0.550   3.261
  871SOL     OW 2649   2.853   0.410   3.104
  871SOL    HW1 2650   2.776   0.444   3.158
  871SOL    HW2 2651   2.819   0.359   3.025
  872SOL     OW 2652   2.903   0.701   2.291
  872SOL    HW1 2653   2.929   0.697   2.387
  872SOL    HW2 2654   2.818   0.650   2.277
  873SOL     OW 2655   1.938   0.811   2.651
  873SOL    HW1 2656   2.037   0.799   2.660
  873SOL    HW2 2657   1.914   0.906   2.672
  874SOL     OW 2658   1.992   1.821   3.433
  874SOL    HW1 2659   1.982   1.806   3.532
  874SOL    HW2 2660   1.906   1.857   3.397
  875SOL     OW 2661   2.727   0.348   2.057
  875SOL    HW1 2662   2.786   0.411   2.008
  875SOL    HW2 2663   2.746   0.254   2.028
  876SOL     OW 2664   3.581   0.585   3.693
  876SOL    HW1 2665   3.555   0.674   3.657
  876SOL    HW2 2666   3.579   0.517   3.620
  877SOL     OW 2667   3.224   1.144   2.407
  877SOL    HW1 2668   3.307   1.115   2.359
  877SOL    HW2 2669   3.175   1.211   2.351
  878SOL     OW 2670   2.412   0.196   2.747
  878SOL    HW1 2671   2.407   0.191   2.847
  878SOL    HW2 2672   2.414   0.292   2.718
  879SOL     OW 2673   2.870   1.456   2.339
  879SOL    HW1 2674   2.824   1.528   2.287
  879SOL    HW2 2675   2.866   1.476   2.437
  880SOL     OW 2676   2.213   1.801   2.715
  880SOL    HW1 2677   2.263   1.715   2.721
  880SOL    HW2 2678   2.278   1.878   2.712
  881SOL     OW 2679   2.183   0.943   2.104
  881SOL    HW1 2680   2.265   0.982   2.062
  881SOL    HW2 2681   2.156   0.861   2.055
  882SOL     OW 2682   2.973   1.776   2.099
  882SOL    HW1 2683   2.913   1.714   2.149
  882SOL    HW2 2684   3.004   1.732   2.014
  883SOL     OW 2685   2.326   1.743   2.185
  883SOL    HW1 2686   2.359   1.782   2.271
  883SOL    HW2 2687   2.402   1.736   2.120
  884SOL     OW 2688   2.111   1.785   3.103
  884SOL    HW1 2689   2.168   1.720   3.153
  884SOL    HW2 2690   2.095   1.752   3.010
  885SOL     OW 2691   2.802   1.698   2.766
  885SOL    HW1 2692   2.882   1.641   2.787
  885SOL    HW2 2693   2.753   1.658   2.689
  886SOL     OW 2694   2.244   0.700   2.342
  886SOL    HW1 2695   2.289   0.610   2.339
  886SOL    HW2 2696   2.150   0.689   2.375
  887SOL     OW 2697   2.476   0.122   1.979
  887SOL    HW1 2698   2.574   0.100   1.986
  887SOL    HW2 2699   2.445   0.105   1.886
  888SOL     OW 2700   2.750   1.514   3.057
  888SOL    HW1 2701   2.727   1.489   2.963
  888SOL    HW2 2702   2.811   1.445   3.096
  889SOL     OW 2703   2.665   1.402   2.786
  889SOL    HW1 2704   2.755   1.416   2.744
  889SOL    HW2 2705   2.594   1.404   2.715
  890SOL     OW 2706   2.784   0.503   2.761
  890SOL    HW1 2707   2.759   0.494   2.665
  890SOL    HW2 2708   2.832   0.421   2.792
  891SOL     OW 2709   2.401   0.064   2.374
  891SOL    HW1 2710   2.320   0.065   2.432
  891SOL    HW2 2711   2.404   0.147   2.319
  892SOL     OW 2712   3.296   1.188   1.903
  892SOL    HW1 2713   3.328   1.112   1.960
  892SOL    HW2 2714   3.204   1.215   1.933
  893SOL     OW 2715   2.159   0.035   2.033
  893SOL    HW1 2716   2.208   0.119   2.012
  893SOL    HW2 2717   2.221  -0.030   2.078
  894SOL     OW 2718   2.797   0.236   2.342
  894SOL    HW1 2719   2.749   0.277   2.264
  894SOL    HW2 2720   2.896   0.234   2.323
  895SOL     OW 2721   3.089   1.570   2.655
  895SOL    HW1 2722   3.110   1.644   2.590
  895SOL    HW2 2723   3.157   1.570   2.728
  896SOL     OW 2724   2.321   1.152   2.603
  896SOL    HW1 2725   2.250   1.125   2.668
  896SOL    HW2 2726   2.295   1.124   2.510
  897SOL     OW 2727   3.133   1.797   2.453
  897SOL    HW1 2728   3.177   1.861   2.389
  897SOL    HW2 2729   3.083   1.849   2.523
  898SOL     OW 2730   2.894   0.549   1.878
  898SOL    HW1 2731   2.853   0.631   1.839
  898SOL    HW2 2732   2.958   0.575   1.951
  899SOL     OW 2733   1.940   0.556   3.248
  899SOL    HW1 2734   2.032   0.555   3.207
  899SOL    HW2 2735   1.934   0.630   3.315
  900SOL     OW 2736   2.423   0.222   3.009
  900SOL    HW1 2737   2.461   0.138   3.046
  900SOL    HW2 2738   2.335   0.241   3.053
  901SOL     OW 2739   2.728   0.454   2.504
  901SOL    HW1 2740   2.696   0.526   2.442
  901SOL    HW2 2741   2.752   0.373   2.451
  902SOL     OW 2742   2.879   0.039   2.615
  902SOL    HW1 2743   2.807   0.044   2.546
  902SOL    HW2 2744   2.855  -0.030   2.684
  903SOL     OW 2745   2.350   1.385   2.036
  903SOL    HW1 2746   2.263   1.370   2.083
  903SOL    HW2 2747   2.333   1.411   1.941
  904SOL     OW 2748   3.252   0.575   1.940
  904SOL    HW1 2749   3.198   0.554   2.021
  904SOL    HW2 2750   3.343   0.534   1.949
  905SOL     OW 2751   2.389   0.256   2.190
  905SOL    HW1 2752   2.416   0.197   2.115
  905SOL    HW2 2753   2.389   0.351   2.159
  906SOL     OW 2754   2.926   1.347   3.202
  906SOL    HW1 2755   2.846   1.324   3.257
  906SOL    HW2 2756   3.009   1.321   3.251
  907SOL     OW 2757   2.973   1.195   2.962
  907SOL    HW1 2758   2.933   1.239   3.043
  907SOL    HW2 2759   2.932   1.232   2.879
  908SOL     OW 2760   2.567   1.050   2.230
  908SOL    HW1 2761   2.553   1.057   2.329
  908SOL    HW2 2762   2.651   0.999   2.212
  909SOL     OW 2763   2.272   0.813   3.113
  909SOL    HW1 2764   2.358   0.825   3.163
  909SOL    HW2 2765   2.230   0.726   3.140
  910SOL     OW 2766   3.136   0.386   3.124
  910SOL    HW1 2767   3.157   0.460   3.188
  910SOL    HW2 2768   3.047   0.403   3.081
  911SOL     OW 2769   1.926   1.564   3.193
  911SOL    HW1 2770   1.880   1.646   3.159
  911SOL    HW2 2771   2.024   1.583   3.202
  912SOL     OW 2772   2.229   1.100   2.363
  912SOL    HW1 2773   2.222   1.183   2.307
  912SOL    HW2 2774   2.233   1.020   2.303
  913SOL     OW 2775   2.428   0.537   2.727
  913SOL    HW1 2776   2.440   0.603   2.653
  913SOL    HW2 2777   2.474   0.571   2.810
  914SOL     OW 2778   3.114   1.348   2.250
  914SOL    HW1 2779   3.164   1.425   2.290
  914SOL    HW2 2780   3.019   1.350   2.282
  915SOL     OW 2781   3.134   1.445   3.004
  915SOL    HW1 2782   3.181   1.458   3.091
  915SOL    HW2 2783   3.068   1.371   3.013
  916SOL     OW 2784   2.216   1.510   3.191
  916SOL    HW1 2785   2.195   1.466   3.104
  916SOL    HW2 2786   2.313   1.536   3.194
  917SOL     OW 2787   2.264   0.751   3.460
  917SOL    HW1 2788   2.332   0.806   3.413
  917SOL    HW2 2789   2.304   0.663   3.487
  918SOL     OW 2790   3.449   0.779   3.532
  918SOL    HW1 2791   3.357   0.817   3.527
  918SOL    HW2 2792   3.509   0.826   3.467
  919SOL     OW 2793   2.435   0.870   2.891
  919SOL    HW1 2794   2.479   0.959   2.882
  919SOL    HW2 2795   2.372   0.870   2.968
  920SOL     OW 2796   3.222   0.862   2.907
  920SOL    HW1 2797   3.147   0.862   2.841
  920SOL    HW2 2798   3.259   0.770   2.916
  921SOL     OW 2799   3.071   0.525   2.137
  921SOL    HW1 2800   3.084   0.441   2.191
  921SOL    HW2 2801   3.042   0.599   2.197
  922SOL     OW 2802   2.169   0.213   3.093
  922SOL    HW1 2803   2.146   0.250   3.183
  922SOL    HW2 2804   2.139   0.118   3.087
  923SOL     OW 2805   1.899   1.310   3.144
  923SOL    HW1 2806   1.952   1.261   3.212
  923SOL    HW2 2807   1.921   1.408   3.149
  924SOL     OW 2808   2.594   0.634   2.926
  924SOL    HW1 2809   2.653   0.608   2.850
  924SOL    HW2 2810   2.566   0.730   2.915
  925SOL     OW 2811   2.169   0.063   2.480
  925SOL    HW1 2812   2.158   0.157   2.513
  925SOL    HW2 2813   2.164   0.000   2.557
  926SOL     OW 2814   3.484   0.367   2.236
  926SOL    HW1 2815   3.486   0.291   2.300
  926SOL    HW2 2816   3.436   0.444   2.276
  927SOL     OW 2817   2.885   0.766   2.828
  927SOL    HW1 2818   2.900   0.787   2.924
  927SOL    HW2 2819   2.855   0.671   2.819
  928SOL     OW 2820   2.842   1.573   3.562
  928SOL    HW1 2821   2.822   1.617   3.474
  928SOL    HW2 2822   2.881   1.482   3.546
  929SOL     OW 2823   3.165   0.838   1.904
  929SOL    HW1 2824   3.199   0.745   1.919
  929SOL    HW2 2825   3.183   0.865   1.809
  930SOL     OW 2826   2.930   1.333   2.711
  930SOL    HW1 2827   2.937   1.249   2.656
  930SOL    HW2 2828   2.992   1.402   2.675
  931SOL     OW 2829   2.181   0.810   2.811
  931SOL    HW1 2830   2.274   0.846   2.816
  931SOL    HW2 2831   2.175   0.725   2.863
  932SOL     OW 2832   2.201   0.509   2.868
  932SOL    HW1 2833   2.149   0.426   2.851
  932SOL    HW2 2834   2.278   0.514   2.804
  933SOL     OW 2835   3.022   0.207   3.339
  933SOL    HW1 2836   3.022   0.271   3.416
  933SOL    HW2 2837   3.050   0.255   3.256
  934SOL     OW 2838   1.950   1.801   2.789
  934SOL    HW1 2839   1.908   1.715   2.762
  934SOL    HW2 2840   2.044   1.804   2.755
  935SOL     OW 2841   2.366   1.568   2.772
  935SOL    HW1 2842   2.432   1.642   2.781
  935SOL    HW2 2843   2.410   1.489   2.730
  936SOL     OW 2844   2.864   0.796   3.100
  936SOL    HW1 2845   2.905   0.764   3.186
  936SOL    HW2 2846   2.768   0.769   3.097
  937SOL     OW 2847   1.902   0.544   2.976
  937SOL    HW1 2848   1.987   0.511   2.935
  937SOL    HW2 2849   1.915   0.559   3.074
  938SOL     OW 2850   2.677   0.572   2.187
  938SOL    HW1 2851   2.684   0.483   2.141
  938SOL    HW2 2852   2.583   0.606   2.179
  939SOL     OW 2853   2.533   0.464   3.131
  939SOL    HW1 2854   2.499   0.375   3.101
  939SOL    HW2 2855   2.559   0.518   3.051
  940SOL     OW 2856   2.792   1.678   3.327
  940SOL    HW1 2857   2.768   1.660   3.232
  940SOL    HW2 2858   2.822   1.772   3.337
  941SOL     OW 2859   2.335   0.500   2.053
  941SOL    HW1 2860   2.396   0.580   2.057
  941SOL    HW2 2861   2.240   0.531   2.060
  942SOL     OW 2862   2.021   1.137   3.328
  942SOL    HW1 2863   2.043   1.076   3.404
  942SOL    HW2 2864   2.031   1.088   3.242
  943SOL     OW 2865   3.209   1.059   3.096
  943SOL    HW1 2866   3.233   0.996   3.022
  943SOL    HW2 2867   3.119   1.099   3.078
  944SOL     OW 2868   3.164   0.855   2.171
  944SOL    HW1 2869   3.078   0.824   2.213
  944SOL    HW2 2870   3.160   0.841   2.072
  945SOL     OW 2871   3.114   1.731   2.990
  945SOL    HW1 2872   3.198   1.736   2.936
  945SOL    HW2 2873   3.091   1.635   3.008
  946SOL     OW 2874   1.945   1.258   2.884
  946SOL    HW1 2875   1.940   1.257   2.984
  946SOL    HW2 2876   1.862   1.217   2.846
  947SOL     OW 2877   3.250   1.573   2.339
  947SOL    HW1 2878   3.317   1.585   2.265
  947SOL    HW2 2879   3.210   1.662   2.362
  948SOL     OW 2880   3.142   0.927   2.534
  948SOL    HW1 2881   3.202   0.846   2.536
  948SOL    HW2 2882   3.182   0.996   2.474
  949SOL     OW 2883   2.534   1.616   2.016
  949SOL    HW1 2884   2.543   1.626   1.917
  949SOL    HW2 2885   2.494   1.527   2.037
  950SOL     OW 2886   2.125   0.326   2.582
  950SOL    HW1 2887   2.046   0.377   2.548
  950SOL    HW2 2888   2.116   0.311   2.680
  951SOL     OW 2889   3.056   1.612   1.893
  951SOL    HW1 2890   3.062   1.519   1.930
  951SOL    HW2 2891   2.997   1.612   1.813
  952SOL     OW 2892   2.684   1.002   3.234
  952SOL    HW1 2893   2.724   1.001   3.142
  952SOL    HW2 2894   2.694   1.094   3.274
  953SOL     OW 2895   2.778   0.910   2.153
  953SOL    HW1 2896   2.841   0.948   2.085
  953SOL    HW2 2897   2.818   0.827   2.192
  954SOL     OW 2898   2.234   1.288   3.352
  954SOL    HW1 2899   2.221   1.381   3.318
  954SOL    HW2 2900   2.150   1.236   3.339
  955SOL     OW 2901   2.901   1.098   2.558
  955SOL    HW1 2902   2.831   1.051   2.612
  955SOL    HW2 2903   2.960   1.030   2.515
  956SOL     OW 2904   2.876   0.236   2.833
  956SOL    HW1 2905   2.868   0.200   2.740
  956SOL    HW2 2906   2.874   0.160   2.898
  957SOL     OW 2907   2.452   1.487   2.353
  957SOL    HW1 2908   2.494   1.429   2.283
  957SOL    HW2 2909   2.408   1.566   2.309
  958SOL     OW 2910   2.117   1.348   2.152
  958SOL    HW1 2911   2.021   1.349   2.125
  958SOL    HW2 2912   2.129   1.401   2.236
  959SOL     OW 2913   1.937   0.345   1.895
  959SOL    HW1 2914   1.845   0.317   1.866
  959SOL    HW2 2915   1.968   0.422   1.839
  960SOL     OW 2916   1.934   0.166   2.180
  960SOL    HW1 2917   1.917   0.249   2.126
  960SOL    HW2 2918   2.024   0.129   2.158
  961SOL     OW 2919   3.045   1.335   1.981
  961SOL    HW1 2920   2.946   1.324   1.983
  961SOL    HW2 2921   3.079   1.350   2.074
  962SOL     OW 2922   2.475   0.842   3.293
  962SOL    HW1 2923   2.531   0.923   3.276
  962SOL    HW2 2924   2.534   0.762   3.296
  963SOL     OW 2925   2.252   1.741   3.422
  963SOL    HW1 2926   2.161   1.782   3.420
  963SOL    HW2 2927   2.245   1.647   3.454
  964SOL     OW 2928   3.087   0.325   2.311
  964SOL    HW1 2929   3.152   0.251   2.300
  964SOL    HW2 2930   3.107   0.375   2.395
  965SOL     OW 2931   2.456   0.745   2.514
  965SOL    HW1 2932   2.506   0.830   2.495
  965SOL    HW2 2933   2.368   0.747   2.466
  966SOL     OW 2934   2.721   1.374   1.878
  966SOL    HW1 2935   2.675   1.389   1.966
  966SOL    HW2 2936   2.765   1.459   1.848
  967SOL     OW 2937   2.523   1.790   2.815
  967SOL    HW1 2938   2.477   1.878   2.802
  967SOL    HW2 2939   2.622   1.802   2.808
  968SOL     OW 2940   2.721   0.956   2.723
  968SOL    HW1 2941   2.775   0.887   2.771
  968SOL    HW2 2942   2.689   1.025   2.789
  969SOL     OW 2943   2.945   0.984   1.949
  969SOL    HW1 2944   2.922   1.037   1.867
  969SOL    HW2 2945   3.026   0.928   1.930
  970SOL     OW 2946   1.941   1.240   2.515
  970SOL    HW1 2947   1.940   1.193   2.603
  970SOL    HW2 2948   2.023   1.212   2.464
  971SOL     OW 2949   2.290   0.424   2.382
  971SOL    HW1 2950   2.320   0.352   2.320
  971SOL    HW2 2951   2.251   0.384   2.465
  972SOL     OW 2952   2.179   0.547   3.142
  972SOL    HW1 2953   2.217   0.488   3.214
  972SOL    HW2 2954   2.219   0.521   3.054
  973SOL     OW 2955   2.674   1.586   2.549
  973SOL    HW1 2956   2.706   1.596   2.455
  973SOL    HW2 2957   2.595   1.524   2.551
  974SOL     OW 2958   3.286   0.214   2.974
  974SOL    HW1 2959   3.338   0.149   3.029
  974SOL    HW2 2960   3.237   0.277   3.035
  975SOL     OW 2961   2.863   0.034   3.016
  975SOL    HW1 2962   2.800  -0.038   2.985
  975SOL    HW2 2963   2.956  -0.002   3.016
  976SOL     OW 2964   2.632   1.330   2.163
  976SOL    HW1 2965   2.586   1.243   2.180
  976SOL    HW2 2966   2.723   1.327   2.204
  977SOL     OW 2967   2.480   1.567   3.146
  977SOL    HW1 2968   2.475   1.649   3.203
  977SOL    HW2 2969   2.569   1.564   3.101
  978SOL     OW 2970   3.214   0.052   2.030
  978SOL    HW1 2971   3.249   0.011   1.946
  978SOL    HW2 2972   3.124   0.014   2.050
  979SOL     OW 2973   3.162   0.453   2.553
  979SOL    HW1 2974   3.103   0.533   2.557
  979SOL    HW2 2975   3.177   0.418   2.646
  980SOL     OW 2976   1.901   1.077   2.162
  980SOL    HW1 2977   2.000   1.066   2.153
  980SOL    HW2 2978   1.861   0.991   2.194
  981SOL     OW 2979   2.737   1.646   2.199
  981SOL    HW1 2980   2.660   1.611   2.145
  981SOL    HW2 2981   2.705   1.717   2.261
  982SOL     OW 2982   2.092   2.490   0.113
  982SOL    HW1 2983   1.999   2.488   0.150
  982SOL    HW2 2984   2.093   2.451   0.021
  983SOL     OW 2985   2.087   2.137   0.996
  983SOL    HW1 2986   2.122   2.120   1.088
  983SOL    HW2 2987   1.999   2.092   0.984
  984SOL     OW 2988   1.881   2.230   0.647
  984SOL    HW1 2989   1.799   2.273   0.686
  984SOL    HW2 2990   1.853   2.157   0.584
  985SOL     OW 2991   2.431   3.137   1.165
  985SOL    HW1 2992   2.338   3.130   1.128
  985SOL    HW2 2993   2.442   3.226   1.209
  986SOL     OW 2994   3.417   3.373   0.703
  986SOL    HW1 2995   3.360   3.357   0.784
  986SOL    HW2 2996   3.358   3.383   0.623
  987SOL     OW 2997   2.997   2.565   0.717
  987SOL    HW1 2998   3.054   2.643   0.692
  987SOL    HW2 2999   2.937   2.591   0.793
  988SOL     OW 3000   2.630   3.006   1.023
  988SOL    HW1 3001   2.552   3.023   1.083
  988SOL    HW2 3002   2.664   3.093   0.987
  989SOL     OW 3003   2.712   2.660   1.823
  989SOL    HW1 3004   2.708   2.736   1.888
  989SOL    HW2 3005   2.734   2.696   1.732
  990SOL     OW 3006   2.547   2.874   0.665
  990SOL    HW1 3007   2.616   2.858   0.735
  990SOL    HW2 3008   2.474   2.931   0.703
  991SOL     OW 3009   2.548   3.023   1.803
  991SOL    HW1 3010   2.608   3.102   1.817
  991SOL    HW2 3011   2.462   3.054   1.762
  992SOL     OW 3012   2.197   3.297   1.061
  992SOL    HW1 3013   2.119   3.266   1.008
  992SOL    HW2 3014   2.255   3.355   1.004
  993SOL     OW 3015   2.300   2.254   1.499
  993SOL    HW1 3016   2.382   2.198   1.508
  993SOL    HW2 3017   2.219   2.196   1.503
  994SOL     OW 3018   2.093   3.575   0.483
  994SOL    HW1 3019   2.127   3.652   0.537
  994SOL    HW2 3020   2.137   3.575   0.393
  995SOL     OW 3021   2.989   3.203   1.690
  995SOL    HW1 3022   3.036   3.203   1.778
  995SOL    HW2 3023   2.941   3.116   1.679
  996SOL     OW 3024   2.102   2.953   0.886
  996SOL    HW1 3025   2.116   2.869   0.938
  996SOL    HW2 3026   2.047   3.017   0.941
  997SOL     OW 3027   2.468   2.826   0.123
  997SOL    HW1 3028   2.475   2.910   0.069
  997SOL    HW2 3029   2.514   2.839   0.211
  998SOL     OW 3030   1.984   2.505   0.563
  998SOL    HW1 3031   1.939   2.417   0.580
  998SOL    HW2 3032   1.983   2.559   0.647
  999SOL     OW 3033   3.551   2.784   0.612
  999SOL    HW1 3034   3.646   2.755   0.620
  999SOL    HW2 3035   3.543   2.849   0.537
 1000SOL     OW 3036   1.975   2.599   1.597
 1000SOL    HW1 3037   2.063   2.586   1.642
 1000SOL    HW2 3038   1.962   2.696   1.575
 1001SOL     OW 3039   2.475   3.227   0.726
 1001SOL    HW1 3040   2.426   3.140   0.735
 1001SOL    HW2 3041   2.452   3.270   0.639
 1002SOL     OW 3042   3.155   3.090   1.423
 1002SOL    HW1 3043   3.192   3.017   1.365
 1002SOL    HW2 3044   3.207   3.095   1.508
 1003SOL     OW 3045   2.671   1.866   0.502
 1003SOL    HW1 3046   2.711   1.957   0.493
 1003SOL    HW2 3047   2.571   1.874   0.508
 1004SOL     OW 3048   2.059   2.838   1.264
 1004SOL    HW1 3049   2.148   2.793   1.250
 1004SOL    HW2 3050   1.986   2.773   1.245
 1005SOL     OW 3051   2.179   2.113   1.801
 1005SOL    HW1 3052   2.250   2.184   1.807
 1005SOL    HW2 3053   2.091   2.152   1.829
 1006SOL     OW 3054   3.328   3.279   0.953
 1006SOL    HW1 3055   3.269   3.285   1.033
 1006SOL    HW2 3056   3.313   3.191   0.907
 1007SOL     OW 3057   2.460   2.591   0.270
 1007SOL    HW1 3058   2.484   2.660   0.202
 1007SOL    HW2 3059   2.382   2.624   0.324
 1008SOL     OW 3060   3.143   2.207   0.944
 1008SOL    HW1 3061   3.057   2.157   0.931
 1008SOL    HW2 3062   3.205   2.153   1.000
 1009SOL     OW 3063   2.669   2.467   1.465
 1009SOL    HW1 3064   2.622   2.464   1.554
 1009SOL    HW2 3065   2.618   2.412   1.399
 1010SOL     OW 3066   3.256   2.331   1.674
 1010SOL    HW1 3067   3.236   2.374   1.762
 1010SOL    HW2 3068   3.334   2.269   1.683
 1011SOL     OW 3069   2.835   2.752   1.572
 1011SOL    HW1 3070   2.881   2.668   1.543
 1011SOL    HW2 3071   2.779   2.786   1.497
 1012SOL     OW 3072   2.853   2.272   1.242
 1012SOL    HW1 3073   2.776   2.306   1.296
 1012SOL    HW2 3074   2.819   2.221   1.163
 1013SOL     OW 3075   2.903   2.563   0.429
 1013SOL    HW1 3076   2.929   2.559   0.525
 1013SOL    HW2 3077   2.818   2.512   0.415
 1014SOL     OW 3078   1.938   2.673   0.789
 1014SOL    HW1 3079   2.037   2.661   0.798
 1014SOL    HW2 3080   1.914   2.768   0.810
 1015SOL     OW 3081   2.727   2.210   0.195
 1015SOL    HW1 3082   2.786   2.273   0.146
 1015SOL    HW2 3083   2.746   2.116   0.166
 1016SOL     OW 3084   3.224   3.006   0.545
 1016SOL    HW1 3085   3.307   2.977   0.497
 1016SOL    HW2 3086   3.175   3.073   0.489
 1017SOL     OW 3087   2.412   2.058   0.885
 1017SOL    HW1 3088   2.407   2.053   0.985
 1017SOL    HW2 3089   2.414   2.154   0.856
 1018SOL     OW 3090   2.870   3.318   0.477
 1018SOL    HW1 3091   2.824   3.390   0.425
 1018SOL    HW2 3092   2.866   3.338   0.575
 1019SOL     OW 3093   3.089   3.412   1.506
 1019SOL    HW1 3094   3.095   3.335   1.570
 1019SOL    HW2 3095   3.037   3.386   1.426
 1020SOL     OW 3096   2.183   2.805   0.242
 1020SOL    HW1 3097   2.265   2.844   0.200
 1020SOL    HW2 3098   2.156   2.723   0.193
 1021SOL     OW 3099   2.323   3.128   1.727
 1021SOL    HW1 3100   2.273   3.129   1.641
 1021SOL    HW2 3101   2.260   3.110   1.803
 1022SOL     OW 3102   2.064   2.147   1.498
 1022SOL    HW1 3103   1.984   2.207   1.485
 1022SOL    HW2 3104   2.054   2.098   1.584
 1023SOL     OW 3105   2.244   2.562   0.480
 1023SOL    HW1 3106   2.289   2.472   0.477
 1023SOL    HW2 3107   2.150   2.551   0.513
 1024SOL     OW 3108   2.643   2.126   1.749
 1024SOL    HW1 3109   2.710   2.065   1.792
 1024SOL    HW2 3110   2.570   2.145   1.814
 1025SOL     OW 3111   3.213   2.452   1.433
 1025SOL    HW1 3112   3.241   2.409   1.518
 1025SOL    HW2 3113   3.238   2.548   1.434
 1026SOL     OW 3114   2.784   2.365   0.899
 1026SOL    HW1 3115   2.759   2.356   0.803
 1026SOL    HW2 3116   2.832   2.283   0.930
 1027SOL     OW 3117   2.401   1.926   0.512
 1027SOL    HW1 3118   2.320   1.927   0.570
 1027SOL    HW2 3119   2.404   2.009   0.457
 1028SOL     OW 3120   3.296   3.050   0.041
 1028SOL    HW1 3121   3.328   2.974   0.098
 1028SOL    HW2 3122   3.204   3.077   0.071
 1029SOL     OW 3123   2.159   1.897   0.171
 1029SOL    HW1 3124   2.208   1.981   0.150
 1029SOL    HW2 3125   2.221   1.832   0.216
 1030SOL     OW 3126   2.797   2.098   0.480
 1030SOL    HW1 3127   2.749   2.139   0.402
 1030SOL    HW2 3128   2.896   2.096   0.461
 1031SOL     OW 3129   2.938   2.545   1.464
 1031SOL    HW1 3130   2.858   2.484   1.467
 1031SOL    HW2 3131   3.019   2.492   1.440
 1032SOL     OW 3132   3.089   3.432   0.793
 1032SOL    HW1 3133   3.110   3.506   0.728
 1032SOL    HW2 3134   3.157   3.432   0.866
 1033SOL     OW 3135   2.321   3.014   0.741
 1033SOL    HW1 3136   2.250   2.987   0.806
 1033SOL    HW2 3137   2.295   2.986   0.648
 1034SOL     OW 3138   2.894   2.411   0.016
 1034SOL    HW1 3139   2.853   2.493  -0.023
 1034SOL    HW2 3140   2.958   2.437   0.089
 1035SOL     OW 3141   1.940   2.418   1.386
 1035SOL    HW1 3142   2.032   2.417   1.345
 1035SOL    HW2 3143   1.934   2.492   1.453
 1036SOL     OW 3144   2.423   2.084   1.147
 1036SOL    HW1 3145   2.461   2.000   1.184
 1036SOL    HW2 3146   2.335   2.103   1.191
 1037SOL     OW 3147   2.728   2.316   0.642
 1037SOL    HW1 3148   2.696   2.388   0.580
 1037SOL    HW2 3149   2.752   2.235   0.589
 1038SOL     OW 3150   2.879   1.901   0.753
 1038SOL    HW1 3151   2.807   1.906   0.684
 1038SOL    HW2 3152   2.855   1.832   0.822
 1039SOL     OW 3153   3.252   2.437   0.078
 1039SOL    HW1 3154   3.198   2.416   0.159
 1039SOL    HW2 3155   3.343   2.396   0.087
 1040SOL     OW 3156   2.389   2.118   0.328
 1040SOL    HW1 3157   2.416   2.059   0.253
 1040SOL    HW2 3158   2.389   2.213   0.297
 1041SOL     OW 3159   2.926   3.209   1.340
 1041SOL    HW1 3160   2.846   3.186   1.395
 1041SOL    HW2 3161   3.009   3.183   1.389
 1042SOL     OW 3162   2.973   3.057   1.100
 1042SOL    HW1 3163   2.933   3.101   1.181
 1042SOL    HW2 3164   2.932   3.094   1.017
 1043SOL     OW 3165   2.777   1.951   1.402
 1043SOL    HW1 3166   2.802   1.931   1.307
 1043SOL    HW2 3167   2.849   2.007   1.444
 1044SOL     OW 3168   2.842   2.978   1.719
 1044SOL    HW1 3169   2.743   2.984   1.729
 1044SOL    HW2 3170   2.865   2.898   1.663
 1045SOL     OW 3171   2.567   2.912   0.368
 1045SOL    HW1 3172   2.553   2.919   0.467
 1045SOL    HW2 3173   2.651   2.861   0.350
 1046SOL     OW 3174   2.272   2.675   1.251
 1046SOL    HW1 3175   2.358   2.687   1.301
 1046SOL    HW2 3176   2.230   2.588   1.278
 1047SOL     OW 3177   3.136   2.248   1.262
 1047SOL    HW1 3178   3.157   2.322   1.326
 1047SOL    HW2 3179   3.047   2.265   1.219
 1048SOL     OW 3180   2.229   2.962   0.501
 1048SOL    HW1 3181   2.222   3.045   0.445
 1048SOL    HW2 3182   2.233   2.882   0.441
 1049SOL     OW 3183   2.428   2.399   0.865
 1049SOL    HW1 3184   2.440   2.465   0.791
 1049SOL    HW2 3185   2.474   2.433   0.948
 1050SOL     OW 3186   3.114   3.210   0.388
 1050SOL    HW1 3187   3.164   3.287   0.428
 1050SOL    HW2 3188   3.019   3.212   0.420
 1051SOL     OW 3189   3.134   3.307   1.142
 1051SOL    HW1 3190   3.181   3.320   1.229
 1051SOL    HW2 3191   3.068   3.233   1.151
 1052SOL     OW 3192   2.216   3.372   1.329
 1052SOL    HW1 3193   2.195   3.328   1.242
 1052SOL    HW2 3194   2.313   3.398   1.332
 1053SOL     OW 3195   2.264   2.613   1.598
 1053SOL    HW1 3196   2.332   2.668   1.551
 1053SOL    HW2 3197   2.304   2.525   1.625
 1054SOL     OW 3198   2.875   1.967   1.770
 1054SOL    HW1 3199   2.881   2.052   1.718
 1054SOL    HW2 3200   2.907   1.891   1.713
 1055SOL     OW 3201   2.366   1.912   1.740
 1055SOL    HW1 3202   2.324   1.855   1.670
 1055SOL    HW2 3203   2.300   1.981   1.772
 1056SOL     OW 3204   2.435   2.732   1.029
 1056SOL    HW1 3205   2.479   2.821   1.020
 1056SOL    HW2 3206   2.372   2.732   1.106
 1057SOL     OW 3207   3.222   2.724   1.045
 1057SOL    HW1 3208   3.147   2.724   0.979
 1057SOL    HW2 3209   3.259   2.632   1.054
 1058SOL     OW 3210   3.071   2.387   0.275
 1058SOL    HW1 3211   3.084   2.303   0.329
 1058SOL    HW2 3212   3.042   2.461   0.335
 1059SOL     OW 3213   2.169   2.075   1.231
 1059SOL    HW1 3214   2.146   2.112   1.321
 1059SOL    HW2 3215   2.139   1.980   1.225
 1060SOL     OW 3216   1.899   3.172   1.282
 1060SOL    HW1 3217   1.952   3.123   1.350
 1060SOL    HW2 3218   1.921   3.270   1.287
 1061SOL     OW 3219   2.594   2.496   1.064
 1061SOL    HW1 3220   2.653   2.470   0.988
 1061SOL    HW2 3221   2.566   2.592   1.053
 1062SOL     OW 3222   2.169   1.925   0.618
 1062SOL    HW1 3223   2.158   2.019   0.651
 1062SOL    HW2 3224   2.164   1.862   0.695
 1063SOL     OW 3225   3.484   2.229   0.374
 1063SOL    HW1 3226   3.486   2.153   0.438
 1063SOL    HW2 3227   3.436   2.306   0.414
 1064SOL     OW 3228   2.885   2.628   0.966
 1064SOL    HW1 3229   2.900   2.649   1.062
 1064SOL    HW2 3230   2.855   2.533   0.957
 1065SOL     OW 3231   2.212   2.760   1.804
 1065SOL    HW1 3232   2.288   2.804   1.852
 1065SOL    HW2 3233   2.247   2.713   1.722
 1066SOL     OW 3234   3.165   2.700   0.042
 1066SOL    HW1 3235   3.199   2.607   0.057
 1066SOL    HW2 3236   3.183   2.727  -0.053
 1067SOL     OW 3237   2.930   3.195   0.849
 1067SOL    HW1 3238   2.937   3.111   0.794
 1067SOL    HW2 3239   2.992   3.264   0.813
 1068SOL     OW 3240   2.181   2.672   0.949
 1068SOL    HW1 3241   2.274   2.708   0.954
 1068SOL    HW2 3242   2.175   2.587   1.001
 1069SOL     OW 3243   2.201   2.371   1.006
 1069SOL    HW1 3244   2.149   2.288   0.989
 1069SOL    HW2 3245   2.278   2.376   0.942
 1070SOL     OW 3246   3.000   2.242   1.678
 1070SOL    HW1 3247   2.955   2.305   1.742
 1070SOL    HW2 3248   3.093   2.273   1.661
 1071SOL     OW 3249   3.022   2.069   1.477
 1071SOL    HW1 3250   3.022   2.133   1.554
 1071SOL    HW2 3251   3.050   2.117   1.394
 1072SOL     OW 3252   1.870   3.188   0.200
 1072SOL    HW1 3253   1.777   3.209   0.169
 1072SOL    HW2 3254   1.880   3.089   0.213
 1073SOL     OW 3255   2.864   2.658   1.238
 1073SOL    HW1 3256   2.905   2.626   1.324
 1073SOL    HW2 3257   2.768   2.631   1.235
 1074SOL     OW 3258   1.902   2.406   1.114
 1074SOL    HW1 3259   1.987   2.373   1.073
 1074SOL    HW2 3260   1.915   2.421   1.212
 1075SOL     OW 3261   2.051   2.382   1.722
 1075SOL    HW1 3262   2.110   2.342   1.652
 1075SOL    HW2 3263   1.993   2.453   1.681
 1076SOL     OW 3264   3.231   2.812   1.660
 1076SOL    HW1 3265   3.270   2.901   1.680
 1076SOL    HW2 3266   3.241   2.792   1.563
 1077SOL     OW 3267   2.677   2.434   0.325
 1077SOL    HW1 3268   2.684   2.345   0.279
 1077SOL    HW2 3269   2.583   2.468   0.317
 1078SOL     OW 3270   2.114   3.426   1.744
 1078SOL    HW1 3271   2.084   3.483   1.820
 1078SOL    HW2 3272   2.107   3.329   1.770
 1079SOL     OW 3273   2.533   2.326   1.269
 1079SOL    HW1 3274   2.499   2.237   1.239
 1079SOL    HW2 3275   2.559   2.380   1.189
 1080SOL     OW 3276   2.335   2.362   0.191
 1080SOL    HW1 3277   2.396   2.442   0.195
 1080SOL    HW2 3278   2.240   2.393   0.198
 1081SOL     OW 3279   2.021   2.999   1.466
 1081SOL    HW1 3280   2.043   2.938   1.542
 1081SOL    HW2 3281   2.031   2.950   1.380
 1082SOL     OW 3282   3.209   2.921   1.234
 1082SOL    HW1 3283   3.233   2.858   1.160
 1082SOL    HW2 3284   3.119   2.961   1.216
 1083SOL     OW 3285   3.164   2.717   0.309
 1083SOL    HW1 3286   3.078   2.686   0.351
 1083SOL    HW2 3287   3.160   2.703   0.210
 1084SOL     OW 3288   1.945   3.120   1.022
 1084SOL    HW1 3289   1.940   3.119   1.122
 1084SOL    HW2 3290   1.862   3.079   0.984
 1085SOL     OW 3291   2.765   1.948   0.133
 1085SOL    HW1 3292   2.816   1.949   0.047
 1085SOL    HW2 3293   2.821   1.906   0.204
 1086SOL     OW 3294   3.142   2.789   0.672
 1086SOL    HW1 3295   3.202   2.708   0.674
 1086SOL    HW2 3296   3.182   2.858   0.612
 1087SOL     OW 3297   2.692   3.135   1.422
 1087SOL    HW1 3298   2.687   3.168   1.517
 1087SOL    HW2 3299   2.606   3.154   1.376
 1088SOL     OW 3300   2.125   2.188   0.720
 1088SOL    HW1 3301   2.046   2.239   0.686
 1088SOL    HW2 3302   2.116   2.173   0.818
 1089SOL     OW 3303   2.684   2.864   1.372
 1089SOL    HW1 3304   2.724   2.863   1.280
 1089SOL    HW2 3305   2.694   2.956   1.412
 1090SOL     OW 3306   2.778   2.772   0.291
 1090SOL    HW1 3307   2.841   2.810   0.223
 1090SOL    HW2 3308   2.818   2.689   0.330
 1091SOL     OW 3309   2.234   3.150   1.490
 1091SOL    HW1 3310   2.221   3.243   1.456
 1091SOL    HW2 3311   2.150   3.098   1.477
 1092SOL     OW 3312   2.901   2.960   0.696
 1092SOL    HW1 3313   2.831   2.913   0.750
 1092SOL    HW2 3314   2.960   2.892   0.653
 1093SOL     OW 3315   2.876   2.098   0.971
 1093SOL    HW1 3316   2.868   2.062   0.878
 1093SOL    HW2 3317   2.874   2.022   1.036
 1094SOL     OW 3318   2.117   3.210   0.290
 1094SOL    HW1 3319   2.021   3.211   0.263
 1094SOL    HW2 3320   2.129   3.263   0.374
 1095SOL     OW 3321   1.967   2.875   1.726
 1095SOL    HW1 3322   1.890   2.842   1.780
 1095SOL    HW2 3323   2.052   2.845   1.768
 1096SOL     OW 3324   2.534   2.065   1.489
 1096SOL    HW1 3325   2.624   2.049   1.449
 1096SOL    HW2 3326   2.542   2.070   1.588
 1097SOL     OW 3327   1.937   2.207   0.033
 1097SOL    HW1 3328   1.845   2.179   0.004
 1097SOL    HW2 3329   1.968   2.284  -0.023
 1098SOL     OW 3330   3.302   2.718   1.398
 1098SOL    HW1 3331   3.245   2.770   1.335
 1098SOL    HW2 3332   3.398   2.730   1.374
 1099SOL     OW 3333   1.934   2.028   0.318
 1099SOL    HW1 3334   1.917   2.111   0.264
 1099SOL    HW2 3335   2.024   1.991   0.296
 1100SOL     OW 3336   3.045   3.197   0.119
 1100SOL    HW1 3337   2.946   3.186   0.121
 1100SOL    HW2 3338   3.079   3.212   0.212
 1101SOL     OW 3339   2.475   2.704   1.431
 1101SOL    HW1 3340   2.531   2.785   1.414
 1101SOL    HW2 3341   2.534   2.624   1.434
 1102SOL     OW 3342   2.578   2.427   1.708
 1102SOL    HW1 3343   2.597   2.492   1.782
 1102SOL    HW2 3344   2.638   2.347   1.717
 1103SOL     OW 3345   3.312   3.082   1.633
 1103SOL    HW1 3346   3.303   3.072   1.732
 1103SOL    HW2 3347   3.408   3.075   1.607
 1104SOL     OW 3348   3.087   2.187   0.449
 1104SOL    HW1 3349   3.152   2.113   0.438
 1104SOL    HW2 3350   3.107   2.237   0.533
 1105SOL     OW 3351   2.456   2.607   0.652
 1105SOL    HW1 3352   2.506   2.692   0.633
 1105SOL    HW2 3353   2.368   2.609   0.604
 1106SOL     OW 3354   2.721   3.236   0.016
 1106SOL    HW1 3355   2.675   3.251   0.104
 1106SOL    HW2 3356   2.765   3.321  -0.014
 1107SOL     OW 3357   2.721   2.818   0.861
 1107SOL    HW1 3358   2.775   2.749   0.909
 1107SOL    HW2 3359   2.689   2.887   0.927
 1108SOL     OW 3360   2.945   2.846   0.087
 1108SOL    HW1 3361   2.922   2.899   0.005
 1108SOL    HW2 3362   3.026   2.790   0.068
 1109SOL     OW 3363   2.083   3.176   1.844
 1109SOL    HW1 3364   2.018   3.103   1.823
 1109SOL    HW2 3365   2.087   3.190   1.942
 1110SOL     OW 3366   1.941   3.102   0.653
 1110SOL    HW1 3367   1.940   3.055   0.741
 1110SOL    HW2 3368   2.023   3.074   0.602
 1111SOL     OW 3369   2.534   3.253   1.624
 1111SOL    HW1 3370   2.456   3.203   1.662
 1111SOL    HW2 3371   2.531   3.348   1.655
 1112SOL     OW 3372   2.290   2.286   0.520
 1112SOL    HW1 3373   2.320   2.214   0.458
 1112SOL    HW2 3374   2.251   2.246   0.603
 1113SOL     OW 3375   2.179   2.409   1.280
 1113SOL    HW1 3376   2.217   2.350   1.352
 1113SOL    HW2 3377   2.219   2.383   1.192
 1114SOL     OW 3378   3.286   2.076   1.112
 1114SOL    HW1 3379   3.338   2.011   1.167
 1114SOL    HW2 3380   3.237   2.139   1.173
 1115SOL     OW 3381   2.863   1.896   1.154
 1115SOL    HW1 3382   2.800   1.824   1.123
 1115SOL    HW2 3383   2.956   1.860   1.154
 1116SOL     OW 3384   2.632   3.192   0.301
 1116SOL    HW1 3385   2.586   3.105   0.318
 1116SOL    HW2 3386   2.723   3.189   0.342
 1117SOL     OW 3387   3.214   1.914   0.168
 1117SOL    HW1 3388   3.249   1.873   0.084
 1117SOL    HW2 3389   3.124   1.876   0.188
 1118SOL     OW 3390   3.162   2.315   0.691
 1118SOL    HW1 3391   3.103   2.395   0.695
 1118SOL    HW2 3392   3.177   2.280   0.784
 1119SOL     OW 3393   1.901   2.939   0.300
 1119SOL    HW1 3394   2.000   2.928   0.291
 1119SOL    HW2 3395   1.861   2.853   0.332
 1120SOL     OW 3396   2.092   2.490   1.975
 1120SOL    HW1 3397   1.999   2.488   2.012
 1120SOL    HW2 3398   2.093   2.451   1.883
 1121SOL     OW 3399   2.087   2.137   2.858
 1121SOL    HW1 3400   2.122   2.120   2.950
 1121SOL    HW2 3401   1.999   2.092   2.846
 1122SOL     OW 3402   1.881   2.230   2.509
 1122SOL    HW1 3403   1.799   2.273   2.548
 1122SOL    HW2 3404   1.853   2.157   2.446
 1123SOL     OW 3405   2.431   3.137   3.027
 1123SOL    HW1 3406   2.338   3.130   2.990
 1123SOL    HW2 3407   2.442   3.226   3.071
 1124SOL     OW 3408   3.417   3.373   2.565
 1124SOL    HW1 3409   3.360   3.357   2.646
 1124SOL    HW2 3410   3.358   3.383   2.485
 1125SOL     OW 3411   2.997   2.565   2.579
 1125SOL    HW1 3412   3.054   2.643   2.554
 1125SOL    HW2 3413   2.937   2.591   2.655
 1126SOL     OW 3414   2.630   3.006   2.885
 1126SOL    HW1 3415   2.552   3.023   2.945
 1126SOL    HW2 3416   2.664   3.093   2.849
 1127SOL     OW 3417   2.547   2.874   2.527
 1127SOL    HW1 3418   2.616   2.858   2.597
 1127SOL    HW2 3419   2.474   2.931   2.565
 1128SOL     OW 3420   2.197   3.297   2.923
 1128SOL    HW1 3421   2.119   3.266   2.870
 1128SOL    HW2 3422   2.255   3.355   2.866
 1129SOL     OW 3423   2.300   2.254   3.361
 1129SOL    HW1 3424   2.382   2.198   3.370
 1129SOL    HW2 3425   2.219   2.196   3.365
 1130SOL     OW 3426   2.093   3.575   2.345
 1130SOL    HW1 3427   2.127   3.652   2.399
 1130SOL    HW2 3428   2.137   3.575   2.255
 1131SOL     OW 3429   2.102   2.953   2.748
 1131SOL    HW1 3430   2.116   2.869   2.800
 1131SOL    HW2 3431   2.047   3.017   2.803
 1132SOL     OW 3432   2.468   2.826   1.985
 1132SOL    HW1 3433   2.475   2.910   1.931
 1132SOL    HW2 3434   2.514   2.839   2.073
 1133SOL     OW 3435   1.984   2.505   2.425
 1133SOL    HW1 3436   1.939   2.417   2.442
 1133SOL    HW2 3437   1.983   2.559   2.509
 1134SOL     OW 3438   3.551   2.784   2.474
 1134SOL    HW1 3439   3.646   2.755   2.482
 1134SOL    HW2 3440   3.543   2.849   2.399
 1135SOL     OW 3441   2.475   3.227   2.588
 1135SOL    HW1 3442   2.426   3.140   2.597
 1135SOL    HW2 3443   2.452   3.270   2.501
 1136SOL     OW 3444   2.671   1.866   2.364
 1136SOL    HW1 3445   2.711   1.957   2.355
 1136SOL    HW2 3446   2.571   1.874   2.370
 1137SOL     OW 3447   2.059   2.838   3.126
 1137SOL    HW1 3448   2.148   2.793   3.112
 1137SOL    HW2 3449   1.986   2.773   3.107
 1138SOL     OW 3450   3.328   3.279   2.815
 1138SOL    HW1 3451   3.269   3.285   2.895
 1138SOL    HW2 3452   3.313   3.191   2.769
 1139SOL     OW 3453   2.460   2.591   2.132
 1139SOL    HW1 3454   2.484   2.660   2.064
 1139SOL    HW2 3455   2.382   2.624   2.186
 1140SOL     OW 3456   3.143   2.207   2.806
 1140SOL    HW1 3457   3.057   2.157   2.793
 1140SOL    HW2 3458   3.205   2.153   2.862
 1141SOL     OW 3459   2.669   2.467   3.327
 1141SOL    HW1 3460   2.622   2.464   3.416
 1141SOL    HW2 3461   2.618   2.412   3.261
 1142SOL     OW 3462   2.853   2.272   3.104
 1142SOL    HW1 3463   2.776   2.306   3.158
 1142SOL    HW2 3464   2.819   2.221   3.025
 1143SOL     OW 3465   2.903   2.563   2.291
 1143SOL    HW1 3466   2.929   2.559   2.387
 1143SOL    HW2 3467   2.818   2.512   2.277
 1144SOL     OW 3468   1.938   2.673   2.651
 1144SOL    HW1 3469   2.037   2.661   2.660
 1144SOL    HW2 3470   1.914   2.768   2.672
 1145SOL     OW 3471   2.727   2.210   2.057
 1145SOL    HW1 3472   2.786   2.273   2.008
 1145SOL    HW2 3473   2.746   2.116   2.028
 1146SOL     OW 3474   3.581   2.447   3.693
 1146SOL    HW1 3475   3.555   2.536   3.657
 1146SOL    HW2 3476   3.579   2.379   3.620
 1147SOL     OW 3477   3.224   3.006   2.407
 1147SOL    HW1 3478   3.307   2.977   2.359
 1147SOL    HW2 3479   3.175   3.073   2.351
 1148SOL     OW 3480   2.412   2.058   2.747
 1148SOL    HW1 3481   2.407   2.053   2.847
 1148SOL    HW2 3482   2.414   2.154   2.718
 1149SOL     OW 3483   2.870   3.318   2.339
 1149SOL    HW1 3484   2.824   3.390   2.287
 1149SOL    HW2 3485   2.866   3.338   2.437
 1150SOL     OW 3486   3.089   3.412   3.368
 1150SOL    HW1 3487   3.095   3.335   3.432
 1150SOL    HW2 3488   3.037   3.386   3.288
 1151SOL     OW 3489   2.183   2.805   2.104
 1151SOL    HW1 3490   2.265   2.844   2.062
 1151SOL    HW2 3491   2.156   2.723   2.055
 1152SOL     OW 3492   2.323   3.128   3.589
 1152SOL    HW1 3493   2.273   3.129   3.503
 1152SOL    HW2 3494   2.260   3.110   3.665
 1153SOL     OW 3495   2.973   3.638   2.099
 1153SOL    HW1 3496   2.913   3.576   2.149
 1153SOL    HW2 3497   3.004   3.594   2.014
 1154SOL     OW 3498   2.244   2.562   2.342
 1154SOL    HW1 3499   2.289   2.472   2.339
 1154SOL    HW2 3500   2.150   2.551   2.375
 1155SOL     OW 3501   2.476   1.984   1.979
 1155SOL    HW1 3502   2.574   1.962   1.986
 1155SOL    HW2 3503   2.445   1.967   1.886
 1156SOL     OW 3504   2.784   2.365   2.761
 1156SOL    HW1 3505   2.759   2.356   2.665
 1156SOL    HW2 3506   2.832   2.283   2.792
 1157SOL     OW 3507   2.401   1.926   2.374
 1157SOL    HW1 3508   2.320   1.927   2.432
 1157SOL    HW2 3509   2.404   2.009   2.319
 1158SOL     OW 3510   3.296   3.050   1.903
 1158SOL    HW1 3511   3.328   2.974   1.960
 1158SOL    HW2 3512   3.204   3.077   1.933
 1159SOL     OW 3513   2.159   1.897   2.033
 1159SOL    HW1 3514   2.208   1.981   2.012
 1159SOL    HW2 3515   2.221   1.832   2.078
 1160SOL     OW 3516   2.797   2.098   2.342
 1160SOL    HW1 3517   2.749   2.139   2.264
 1160SOL    HW2 3518   2.896   2.096   2.323
 1161SOL     OW 3519   3.089   3.432   2.655
 1161SOL    HW1 3520   3.110   3.506   2.590
 1161SOL    HW2 3521   3.157   3.432   2.728
 1162SOL     OW 3522   2.321   3.014   2.603
 1162SOL    HW1 3523   2.250   2.987   2.668
 1162SOL    HW2 3524   2.295   2.986   2.510
 1163SOL     OW 3525   2.894   2.411   1.878
 1163SOL    HW1 3526   2.853   2.493   1.839
 1163SOL    HW2 3527   2.958   2.437   1.951
 1164SOL     OW 3528   1.940   2.418   3.248
 1164SOL    HW1 3529   2.032   2.417   3.207
 1164SOL    HW2 3530   1.934   2.492   3.315
 1165SOL     OW 3531   2.423   2.084   3.009
 1165SOL    HW1 3532   2.461   2.000   3.046
 1165SOL    HW2 3533   2.335   2.103   3.053
 1166SOL     OW 3534   2.728   2.316   2.504
 1166SOL    HW1 3535   2.696   2.388   2.442
 1166SOL    HW2 3536   2.752   2.235   2.451
 1167SOL     OW 3537   2.879   1.901   2.615
 1167SOL    HW1 3538   2.807   1.906   2.546
 1167SOL    HW2 3539   2.855   1.832   2.684
 1168SOL     OW 3540   3.252   2.437   1.940
 1168SOL    HW1 3541   3.198   2.416   2.021
 1168SOL    HW2 3542   3.343   2.396   1.949
 1169SOL     OW 3543   2.389   2.118   2.190
 1169SOL    HW1 3544   2.416   2.059   2.115
 1169SOL    HW2 3545   2.389   2.213   2.159
 1170SOL     OW 3546   2.926   3.209   3.202
 1170SOL    HW1 3547   2.846   3.186   3.257
 1170SOL    HW2 3548   3.009   3.183   3.251
 1171SOL     OW 3549   2.973   3.057   2.962
 1171SOL    HW1 3550   2.933   3.101   3.043
 1171SOL    HW2 3551   2.932   3.094   2.879
 1172SOL     OW 3552   2.567   2.912   2.230
 1172SOL    HW1 3553   2.553   2.919   2.329
 1172SOL    HW2 3554   2.651   2.861   2.212
 1173SOL     OW 3555   2.272   2.675   3.113
 1173SOL    HW1 3556   2.358   2.687   3.163
 1173SOL    HW2 3557   2.230   2.588   3.140
 1174SOL     OW 3558   3.136   2.248   3.124
 1174SOL    HW1 3559   3.157   2.322   3.188
 1174SOL    HW2 3560   3.047   2.265   3.081
 1175SOL     OW 3561   2.229   2.962   2.363
 1175SOL    HW1 3562   2.222   3.045   2.307
 1175SOL    HW2 3563   2.233   2.882   2.303
 1176SOL     OW 3564   2.428   2.399   2.727
 1176SOL    HW1 3565   2.440   2.465   2.653
 1176SOL    HW2 3566   2.474   2.433   2.810
 1177SOL     OW 3567   3.114   3.210   2.250
 1177SOL    HW1 3568   3.164   3.287   2.290
 1177SOL    HW2 3569   3.019   3.212   2.282
 1178SOL     OW 3570   3.134   3.307   3.004
 1178SOL    HW1 3571   3.181   3.320   3.091
 1178SOL    HW2 3572   3.068   3.233   3.013
 1179SOL     OW 3573   2.216   3.372   3.191
 1179SOL    HW1 3574   2.195   3.328   3.104
 1179SOL    HW2 3575   2.313   3.398   3.194
 1180SOL     OW 3576   2.264   2.613   3.460
 1180SOL    HW1 3577   2.332   2.668   3.413
 1180SOL    HW2 3578   2.304   2.525   3.487
 1181SOL     OW 3579   3.449   2.641   3.532
 1181SOL    HW1 3580   3.357   2.679   3.527
 1181SOL    HW2 3581   3.509   2.688   3.467
 1182SOL     OW 3582   2.435   2.732   2.891
 1182SOL    HW1 3583   2.479   2.821   2.882
 1182SOL    HW2 3584   2.372   2.732   2.968
 1183SOL     OW 3585   3.222   2.724   2.907
 1183SOL    HW1 3586   3.147   2.724   2.841
 1183SOL    HW2 3587   3.259   2.632   2.916
 1184SOL     OW 3588   3.071   2.387   2.137
 1184SOL    HW1 3589   3.084   2.303   2.191
 1184SOL    HW2 3590   3.042   2.461   2.197
 1185SOL     OW 3591   2.169   2.075   3.093
 1185SOL    HW1 3592   2.146   2.112   3.183
 1185SOL    HW2 3593   2.139   1.980   3.087
 1186SOL     OW 3594   1.899   3.172   3.144
 1186SOL    HW1 3595   1.952   3.123   3.212
 1186SOL    HW2 3596   1.921   3.270   3.149
 1187SOL     OW 3597   2.594   2.496   2.926
 1187SOL    HW1 3598   2.653   2.470   2.850
 1187SOL    HW2 3599   2.566   2.592   2.915
 1188SOL     OW 3600   2.169   1.925   2.480
 1188SOL    HW1 3601   2.158   2.019   2.513
 1188SOL    HW2 3602   2.164   1.862   2.557
 1189SOL     OW 3603   3.484   2.229   2.236
 1189SOL    HW1 3604   3.486   2.153   2.300
 1189SOL    HW2 3605   3.436   2.306   2.276
 1190SOL     OW 3606   2.885   2.628   2.828
 1190SOL    HW1 3607   2.900   2.649   2.924
 1190SOL    HW2 3608   2.855   2.533   2.819
 1191SOL     OW 3609   3.165   2.700   1.904
 1191SOL    HW1 3610   3.199   2.607   1.919
 1191SOL    HW2 3611   3.183   2.727   1.809
 1192SOL     OW 3612   2.930   3.195   2.711
 1192SOL    HW1 3613   2.937   3.111   2.656
 1192SOL    HW2 3614   2.992   3.264   2.675
 1193SOL     OW 3615   2.181   2.672   2.811
 1193SOL    HW1 3616   2.274   2.708   2.816
 1193SOL    HW2 3617   2.175   2.587   2.863
 1194SOL     OW 3618   2.201   2.371   2.868
 1194SOL    HW1 3619   2.149   2.288   2.851
 1194SOL    HW2 3620   2.278   2.376   2.804
 1195SOL     OW 3621   3.022   2.069   3.339
 1195SOL    HW1 3622   3.022   2.133   3.416
 1195SOL    HW2 3623   3.050   2.117   3.256
 1196SOL     OW 3624   1.870   3.188   2.062
 1196SOL    HW1 3625   1.777   3.209   2.031
 1196SOL    HW2 3626   1.880   3.089   2.075
 1197SOL     OW 3627   2.864   2.658   3.100
 1197SOL    HW1 3628   2.905   2.626   3.186
 1197SOL    HW2 3629   2.768   2.631   3.097
 1198SOL     OW 3630   1.902   2.406   2.976
 1198SOL    HW1 3631   1.987   2.373   2.935
 1198SOL    HW2 3632   1.915   2.421   3.074
 1199SOL     OW 3633   2.677   2.434   2.187
 1199SOL    HW1 3634   2.684   2.345   2.141
 1199SOL    HW2 3635   2.583   2.468   2.179
 1200SOL     OW 3636   2.533   2.326   3.131
 1200SOL    HW1 3637   2.499   2.237   3.101
 1200SOL    HW2 3638   2.559   2.380   3.051
 1201SOL     OW 3639   2.335   2.362   2.053
 1201SOL    HW1 3640   2.396   2.442   2.057
 1201SOL    HW2 3641   2.240   2.393   2.060
 1202SOL     OW 3642   2.021   2.999   3.328
 1202SOL    HW1 3643   2.043   2.938   3.404
 1202SOL    HW2 3644   2.031   2.950   3.242
 1203SOL     OW 3645   3.209   2.921   3.096
 1203SOL    HW1 3646   3.233   2.858   3.022
 1203SOL    HW2 3647   3.119   2.961   3.078
 1204SOL     OW 3648   3.164   2.717   2.171
 1204SOL    HW1 3649   3.078   2.686   2.213
 1204SOL    HW2 3650   3.160   2.703   2.072
 1205SOL     OW 3651   1.945   3.120   2.884
 1205SOL    HW1 3652   1.940   3.119   2.984
 1205SOL    HW2 3653   1.862   3.079   2.846
 1206SOL     OW 3654   3.142   2.789   2.534
 1206SOL    HW1 3655   3.202   2.708   2.536
 1206SOL    HW2 3656   3.182   2.858   2.474
 1207SOL     OW 3657   2.125   2.188   2.582
 1207SOL    HW1 3658   2.046   2.239   2.548
 1207SOL    HW2 3659   2.116   2.173   2.680
 1208SOL     OW 3660   2.684   2.864   3.234
 1208SOL    HW1 3661   2.724   2.863   3.142
 1208SOL    HW2 3662   2.694   2.956   3.274
 1209SOL     OW 3663   2.778   2.772   2.153
 1209SOL    HW1 3664   2.841   2.810   2.085
 1209SOL    HW2 3665   2.818   2.689   2.192
 1210SOL     OW 3666   2.234   3.150   3.352
 1210SOL    HW1 3667   2.221   3.243   3.318
 1210SOL    HW2 3668   2.150   3.098   3.339
 1211SOL     OW 3669   2.901   2.960   2.558
 1211SOL    HW1 3670   2.831   2.913   2.612
 1211SOL    HW2 3671   2.960   2.892   2.515
 1212SOL     OW 3672   2.876   2.098   2.833
 1212SOL    HW1 3673   2.868   2.062   2.740
 1212SOL    HW2 3674   2.874   2.022   2.898
 1213SOL     OW 3675   2.117   3.210   2.152
 1213SOL    HW1 3676   2.021   3.211   2.125
 1213SOL    HW2 3677   2.129   3.263   2.236
 1214SOL     OW 3678   2.534   2.065   3.351
 1214SOL    HW1 3679   2.624   2.049   3.311
 1214SOL    HW2 3680   2.542   2.070   3.450
 1215SOL     OW 3681   1.937   2.207   1.895
 1215SOL    HW1 3682   1.845   2.179   1.866
 1215SOL    HW2 3683   1.968   2.284   1.839
 1216SOL     OW 3684   3.045   3.197   1.981
 1216SOL    HW1 3685   2.946   3.186   1.983
 1216SOL    HW2 3686   3.079   3.212   2.074
 1217SOL     OW 3687   2.475   2.704   3.293
 1217SOL    HW1 3688   2.531   2.785   3.276
 1217SOL    HW2 3689   2.534   2.624   3.296
 1218SOL     OW 3690   3.087   2.187   2.311
 1218SOL    HW1 3691   3.152   2.113   2.300
 1218SOL    HW2 3692   3.107   2.237   2.395
 1219SOL     OW 3693   2.456   2.607   2.514
 1219SOL    HW1 3694   2.506   2.692   2.495
 1219SOL    HW2 3695   2.368   2.609   2.466
 1220SOL     OW 3696   2.721   3.236   1.878
 1220SOL    HW1 3697   2.675   3.251   1.966
 1220SOL    HW2 3698   2.765   3.321   1.848
 1221SOL     OW 3699   2.721   2.818   2.723
 1221SOL    HW1 3700   2.775   2.749   2.771
 1221SOL    HW2 3701   2.689   2.887   2.789
 1222SOL     OW 3702   2.945   2.846   1.949
 1222SOL    HW1 3703   2.922   2.899   1.867
 1222SOL    HW2 3704   3.026   2.790   1.930
 1223SOL     OW 3705   1.941   3.102   2.515
 1223SOL    HW1 3706   1.940   3.055   2.603
 1223SOL    HW2 3707   2.023   3.074   2.464
 1224SOL     OW 3708   2.290   2.286   2.382
 1224SOL    HW1 3709   2.320   2.214   2.320
 1224SOL    HW2 3710   2.251   2.246   2.465
 1225SOL     OW 3711   2.179   2.409   3.142
 1225SOL    HW1 3712   2.217   2.350   3.214
 1225SOL    HW2 3713   2.219   2.383   3.054
 1226SOL     OW 3714   3.286   2.076   2.974
 1226SOL    HW1 3715   3.338   2.011   3.029
 1226SOL    HW2 3716   3.237   2.139   3.035
 1227SOL     OW 3717   2.863   1.896   3.016
 1227SOL    HW1 3718   2.800   1.824   2.985
 1227SOL    HW2 3719   2.956   1.860   3.016
 1228SOL     OW 3720   2.632   3.192   2.163
 1228SOL    HW1 3721   2.586   3.105   2.180
 1228SOL    HW2 3722   2.723   3.189   2.204
 1229SOL     OW 3723   3.214   1.914   2.030
 1229SOL    HW1 3724   3.249   1.873   1.946
 1229SOL    HW2 3725   3.124   1.876   2.050
 1230SOL     OW 3726   3.162   2.315   2.553
 1230SOL    HW1 3727   3.103   2.395   2.557
 1230SOL    HW2 3728   3.177   2.280   2.646
 1231SOL     OW 3729   1.901   2.939   2.162
 1231SOL    HW1 3730   2.000   2.928   2.153
 1231SOL    HW2 3731   1.861   2.853   2.194
   3.37550   3.37550   3.37550
