; mobley_3234716_GMX.itp created by acpype (v: 2023.10.27) on Thu May 14 13:18:04 2026

[ atomtypes ]
;name   bond_type     mass     charge   ptype   sigma         epsilon       Amb
 ca       ca          0.00000  0.00000   A     3.31521e-01   4.13379e-01 ; 1.86  0.0988
 c3       c3          0.00000  0.00000   A     3.39771e-01   4.51035e-01 ; 1.91  0.1078
 ha       ha          0.00000  0.00000   A     2.62548e-01   6.73624e-02 ; 1.47  0.0161
 hc       hc          0.00000  0.00000   A     2.60018e-01   8.70272e-02 ; 1.46  0.0208

[ moleculetype ]
;name            nrexcl
 mobley_3234716   3

[ atoms ]
;   nr  type  resi  res  atom  cgnr     charge      mass       ; qtot   bond_type
     1   ca     1   MOL    C1    1    -0.127000     12.01000 ; qtot -0.127
     2   ca     1   MOL    C2    2    -0.127000     12.01000 ; qtot -0.254
     3   ca     1   MOL    C3    3    -0.127000     12.01000 ; qtot -0.381
     4   ca     1   MOL    C4    4    -0.127000     12.01000 ; qtot -0.508
     5   ca     1   MOL    C5    5    -0.082300     12.01000 ; qtot -0.590
     6   ca     1   MOL    C6    6    -0.082300     12.01000 ; qtot -0.673
     7   c3     1   MOL    C7    7    -0.052800     12.01000 ; qtot -0.725
     8   c3     1   MOL    C8    8    -0.052800     12.01000 ; qtot -0.778
     9   ha     1   MOL    H1    9     0.130000      1.00800 ; qtot -0.648
    10   ha     1   MOL    H2   10     0.130000      1.00800 ; qtot -0.518
    11   ha     1   MOL    H3   11     0.130000      1.00800 ; qtot -0.388
    12   ha     1   MOL    H4   12     0.130000      1.00800 ; qtot -0.258
    13   hc     1   MOL    H5   13     0.043033      1.00800 ; qtot -0.215
    14   hc     1   MOL    H6   14     0.043033      1.00800 ; qtot -0.172
    15   hc     1   MOL    H7   15     0.043033      1.00800 ; qtot -0.129
    16   hc     1   MOL    H8   16     0.043033      1.00800 ; qtot -0.086
    17   hc     1   MOL    H9   17     0.043033      1.00800 ; qtot -0.043
    18   hc     1   MOL   H10   18     0.043033      1.00800 ; qtot -0.000

[ bonds ]
;   ai     aj funct   r             k
     1      2   1    1.3986e-01    2.9644e+05 ;     C1 - C2    
     1      5   1    1.3986e-01    2.9644e+05 ;     C1 - C5    
     1      9   1    1.0860e-01    3.0183e+05 ;     C1 - H1    
     2      6   1    1.3986e-01    2.9644e+05 ;     C2 - C6    
     2     10   1    1.0860e-01    3.0183e+05 ;     C2 - H2    
     3      4   1    1.3986e-01    2.9644e+05 ;     C3 - C4    
     3      5   1    1.3986e-01    2.9644e+05 ;     C3 - C5    
     3     11   1    1.0860e-01    3.0183e+05 ;     C3 - H3    
     4      6   1    1.3986e-01    2.9644e+05 ;     C4 - C6    
     4     12   1    1.0860e-01    3.0183e+05 ;     C4 - H4    
     5      7   1    1.5147e-01    2.0410e+05 ;     C5 - C7    
     6      8   1    1.5147e-01    2.0410e+05 ;     C6 - C8    
     7     13   1    1.0962e-01    2.8891e+05 ;     C7 - H5    
     7     14   1    1.0962e-01    2.8891e+05 ;     C7 - H6    
     7     15   1    1.0962e-01    2.8891e+05 ;     C7 - H7    
     8     16   1    1.0962e-01    2.8891e+05 ;     C8 - H8    
     8     17   1    1.0962e-01    2.8891e+05 ;     C8 - H9    
     8     18   1    1.0962e-01    2.8891e+05 ;     C8 - H10   

[ pairs ]
;   ai     aj    funct
     1      4      1 ;     C1 - C4    
     1      8      1 ;     C1 - C8    
     1     11      1 ;     C1 - H3    
     1     13      1 ;     C1 - H5    
     1     14      1 ;     C1 - H6    
     1     15      1 ;     C1 - H7    
     2      3      1 ;     C2 - C3    
     2      7      1 ;     C2 - C7    
     2     12      1 ;     C2 - H4    
     2     16      1 ;     C2 - H8    
     2     17      1 ;     C2 - H9    
     2     18      1 ;     C2 - H10   
     3      8      1 ;     C3 - C8    
     3     13      1 ;     C3 - H5    
     3     14      1 ;     C3 - H6    
     3     15      1 ;     C3 - H7    
     4      7      1 ;     C4 - C7    
     4     10      1 ;     C4 - H2    
     4     16      1 ;     C4 - H8    
     4     17      1 ;     C4 - H9    
     4     18      1 ;     C4 - H10   
     5      6      1 ;     C5 - C6    
     5     10      1 ;     C5 - H2    
     5     12      1 ;     C5 - H4    
     6     11      1 ;     C6 - H3    
     7     11      1 ;     C7 - H3    
     8     10      1 ;     C8 - H2    
     8     12      1 ;     C8 - H4    
     9      3      1 ;     H1 - C3    
     9      6      1 ;     H1 - C6    
     9      7      1 ;     H1 - C7    
     9     10      1 ;     H1 - H2    
    11     12      1 ;     H3 - H4    

[ angles ]
;   ai     aj     ak    funct   theta         cth
     1      2      6      1    1.2002e+02    5.3279e+02 ;     C1 - C2     - C6    
     1      2     10      1    1.1988e+02    3.7572e+02 ;     C1 - C2     - H2    
     1      5      3      1    1.2002e+02    5.3279e+02 ;     C1 - C5     - C3    
     1      5      7      1    1.2083e+02    5.0827e+02 ;     C1 - C5     - C7    
     2      1      5      1    1.2002e+02    5.3279e+02 ;     C2 - C1     - C5    
     2      1      9      1    1.1988e+02    3.7572e+02 ;     C2 - C1     - H1    
     2      6      4      1    1.2002e+02    5.3279e+02 ;     C2 - C6     - C4    
     2      6      8      1    1.2083e+02    5.0827e+02 ;     C2 - C6     - C8    
     3      4      6      1    1.2002e+02    5.3279e+02 ;     C3 - C4     - C6    
     3      4     12      1    1.1988e+02    3.7572e+02 ;     C3 - C4     - H4    
     3      5      7      1    1.2083e+02    5.0827e+02 ;     C3 - C5     - C7    
     4      3      5      1    1.2002e+02    5.3279e+02 ;     C4 - C3     - C5    
     4      3     11      1    1.1988e+02    3.7572e+02 ;     C4 - C3     - H3    
     4      6      8      1    1.2083e+02    5.0827e+02 ;     C4 - C6     - C8    
     5      1      9      1    1.1988e+02    3.7572e+02 ;     C5 - C1     - H1    
     5      3     11      1    1.1988e+02    3.7572e+02 ;     C5 - C3     - H3    
     5      7     13      1    1.1063e+02    3.6493e+02 ;     C5 - C7     - H5    
     5      7     14      1    1.1063e+02    3.6493e+02 ;     C5 - C7     - H6    
     5      7     15      1    1.1063e+02    3.6493e+02 ;     C5 - C7     - H7    
     6      2     10      1    1.1988e+02    3.7572e+02 ;     C6 - C2     - H2    
     6      4     12      1    1.1988e+02    3.7572e+02 ;     C6 - C4     - H4    
     6      8     16      1    1.1063e+02    3.6493e+02 ;     C6 - C8     - H8    
     6      8     17      1    1.1063e+02    3.6493e+02 ;     C6 - C8     - H9    
     6      8     18      1    1.1063e+02    3.6493e+02 ;     C6 - C8     - H10   
    13      7     14      1    1.0773e+02    2.9957e+02 ;     H5 - C7     - H6    
    13      7     15      1    1.0773e+02    2.9957e+02 ;     H5 - C7     - H7    
    14      7     15      1    1.0773e+02    2.9957e+02 ;     H6 - C7     - H7    
    16      8     17      1    1.0773e+02    2.9957e+02 ;     H8 - C8     - H9    
    16      8     18      1    1.0773e+02    2.9957e+02 ;     H8 - C8     - H10   
    17      8     18      1    1.0773e+02    2.9957e+02 ;     H9 - C8     - H10   

[ dihedrals ] ; propers
; for gromacs 4.5 or higher, using funct 9
;    i      j      k      l   func   phase     kd      pn
     1      2      6      4      9   180.00  15.16700   2 ;     C1-    C2-    C6-    C4
     1      2      6      8      9   180.00  15.16700   2 ;     C1-    C2-    C6-    C8
     1      5      3      4      9   180.00  15.16700   2 ;     C1-    C5-    C3-    C4
     1      5      3     11      9   180.00  15.16700   2 ;     C1-    C5-    C3-    H3
     1      5      7     13      9     0.00   0.00000   0 ;     C1-    C5-    C7-    H5
     1      5      7     14      9     0.00   0.00000   0 ;     C1-    C5-    C7-    H6
     1      5      7     15      9     0.00   0.00000   0 ;     C1-    C5-    C7-    H7
     2      1      5      3      9   180.00  15.16700   2 ;     C2-    C1-    C5-    C3
     2      1      5      7      9   180.00  15.16700   2 ;     C2-    C1-    C5-    C7
     2      6      4      3      9   180.00  15.16700   2 ;     C2-    C6-    C4-    C3
     2      6      4     12      9   180.00  15.16700   2 ;     C2-    C6-    C4-    H4
     2      6      8     16      9     0.00   0.00000   0 ;     C2-    C6-    C8-    H8
     2      6      8     17      9     0.00   0.00000   0 ;     C2-    C6-    C8-    H9
     2      6      8     18      9     0.00   0.00000   0 ;     C2-    C6-    C8-   H10
     3      4      6      8      9   180.00  15.16700   2 ;     C3-    C4-    C6-    C8
     3      5      7     13      9     0.00   0.00000   0 ;     C3-    C5-    C7-    H5
     3      5      7     14      9     0.00   0.00000   0 ;     C3-    C5-    C7-    H6
     3      5      7     15      9     0.00   0.00000   0 ;     C3-    C5-    C7-    H7
     4      3      5      7      9   180.00  15.16700   2 ;     C4-    C3-    C5-    C7
     4      6      2     10      9   180.00  15.16700   2 ;     C4-    C6-    C2-    H2
     4      6      8     16      9     0.00   0.00000   0 ;     C4-    C6-    C8-    H8
     4      6      8     17      9     0.00   0.00000   0 ;     C4-    C6-    C8-    H9
     4      6      8     18      9     0.00   0.00000   0 ;     C4-    C6-    C8-   H10
     5      1      2      6      9   180.00  15.16700   2 ;     C5-    C1-    C2-    C6
     5      1      2     10      9   180.00  15.16700   2 ;     C5-    C1-    C2-    H2
     5      3      4      6      9   180.00  15.16700   2 ;     C5-    C3-    C4-    C6
     5      3      4     12      9   180.00  15.16700   2 ;     C5-    C3-    C4-    H4
     6      4      3     11      9   180.00  15.16700   2 ;     C6-    C4-    C3-    H3
     7      5      3     11      9   180.00  15.16700   2 ;     C7-    C5-    C3-    H3
     8      6      2     10      9   180.00  15.16700   2 ;     C8-    C6-    C2-    H2
     8      6      4     12      9   180.00  15.16700   2 ;     C8-    C6-    C4-    H4
     9      1      2      6      9   180.00  15.16700   2 ;     H1-    C1-    C2-    C6
     9      1      2     10      9   180.00  15.16700   2 ;     H1-    C1-    C2-    H2
     9      1      5      3      9   180.00  15.16700   2 ;     H1-    C1-    C5-    C3
     9      1      5      7      9   180.00  15.16700   2 ;     H1-    C1-    C5-    C7
    11      3      4     12      9   180.00  15.16700   2 ;     H3-    C3-    C4-    H4

[ dihedrals ] ; impropers
; treated as propers in GROMACS to use correct AMBER analytical function
;    i      j      k      l   func   phase     kd      pn
     1      3      5      7      4   180.00   4.60240   2 ;     C1-    C3-    C5-    C7
     1      6      2     10      4   180.00   4.60240   2 ;     C1-    C6-    C2-    H2
     3      6      4     12      4   180.00   4.60240   2 ;     C3-    C6-    C4-    H4
     4      5      3     11      4   180.00   4.60240   2 ;     C4-    C5-    C3-    H3
     8      2      6      4      4   180.00   4.60240   2 ;     C8-    C2-    C6-    C4
     9      1      5      2      4   180.00   4.60240   2 ;     H1-    C1-    C5-    C2
