; mobley_8522124_GMX.itp created by acpype (v: 2023.10.27) on Thu May 14 13:50:09 2026

[ atomtypes ]
;name   bond_type     mass     charge   ptype   sigma         epsilon       Amb
 c1       c1          0.00000  0.00000   A     3.47896e-01   6.67766e-01 ; 1.95  0.1596
 c3       c3          0.00000  0.00000   A     3.39771e-01   4.51035e-01 ; 1.91  0.1078
 ha       ha          0.00000  0.00000   A     2.62548e-01   6.73624e-02 ; 1.47  0.0161
 hc       hc          0.00000  0.00000   A     2.60018e-01   8.70272e-02 ; 1.46  0.0208

[ moleculetype ]
;name            nrexcl
 mobley_8522124   3

[ atoms ]
;   nr  type  resi  res  atom  cgnr     charge      mass       ; qtot   bond_type
     1   c1     1   MOL    C1    1    -0.162500     12.01000 ; qtot -0.163
     2   c1     1   MOL    C2    2    -0.138100     12.01000 ; qtot -0.301
     3   c3     1   MOL    C3    3    -0.093100     12.01000 ; qtot -0.394
     4   c3     1   MOL    C4    4    -0.004300     12.01000 ; qtot -0.398
     5   c3     1   MOL    C5    5    -0.080400     12.01000 ; qtot -0.478
     6   c3     1   MOL    C6    6    -0.075400     12.01000 ; qtot -0.554
     7   c3     1   MOL    C7    7    -0.079400     12.01000 ; qtot -0.633
     8   c3     1   MOL    C8    8    -0.080400     12.01000 ; qtot -0.714
     9   ha     1   MOL    H1    9     0.164500      1.00800 ; qtot -0.549
    10   hc     1   MOL    H2   10     0.032700      1.00800 ; qtot -0.516
    11   hc     1   MOL    H3   11     0.032700      1.00800 ; qtot -0.484
    12   hc     1   MOL    H4   12     0.032700      1.00800 ; qtot -0.451
    13   hc     1   MOL    H5   13     0.058700      1.00800 ; qtot -0.392
    14   hc     1   MOL    H6   14     0.058700      1.00800 ; qtot -0.334
    15   hc     1   MOL    H7   15     0.038700      1.00800 ; qtot -0.295
    16   hc     1   MOL    H8   16     0.038700      1.00800 ; qtot -0.256
    17   hc     1   MOL    H9   17     0.047700      1.00800 ; qtot -0.209
    18   hc     1   MOL   H10   18     0.047700      1.00800 ; qtot -0.161
    19   hc     1   MOL   H11   19     0.040700      1.00800 ; qtot -0.120
    20   hc     1   MOL   H12   20     0.040700      1.00800 ; qtot -0.079
    21   hc     1   MOL   H13   21     0.039700      1.00800 ; qtot -0.040
    22   hc     1   MOL   H14   22     0.039700      1.00800 ; qtot -0.000

[ bonds ]
;   ai     aj funct   r             k
     1      2   1    1.2095e-01    5.8503e+05 ;     C1 - C2    
     1      9   1    1.0666e-01    3.2839e+05 ;     C1 - H1    
     2      4   1    1.4656e-01    2.3814e+05 ;     C2 - C4    
     3      5   1    1.5354e-01    1.9154e+05 ;     C3 - C5    
     3     10   1    1.0962e-01    2.8891e+05 ;     C3 - H2    
     3     11   1    1.0962e-01    2.8891e+05 ;     C3 - H3    
     3     12   1    1.0962e-01    2.8891e+05 ;     C3 - H4    
     4      6   1    1.5354e-01    1.9154e+05 ;     C4 - C6    
     4     13   1    1.0962e-01    2.8891e+05 ;     C4 - H5    
     4     14   1    1.0962e-01    2.8891e+05 ;     C4 - H6    
     5      7   1    1.5354e-01    1.9154e+05 ;     C5 - C7    
     5     15   1    1.0962e-01    2.8891e+05 ;     C5 - H7    
     5     16   1    1.0962e-01    2.8891e+05 ;     C5 - H8    
     6      8   1    1.5354e-01    1.9154e+05 ;     C6 - C8    
     6     17   1    1.0962e-01    2.8891e+05 ;     C6 - H9    
     6     18   1    1.0962e-01    2.8891e+05 ;     C6 - H10   
     7      8   1    1.5354e-01    1.9154e+05 ;     C7 - C8    
     7     19   1    1.0962e-01    2.8891e+05 ;     C7 - H11   
     7     20   1    1.0962e-01    2.8891e+05 ;     C7 - H12   
     8     21   1    1.0962e-01    2.8891e+05 ;     C8 - H13   
     8     22   1    1.0962e-01    2.8891e+05 ;     C8 - H14   

[ pairs ]
;   ai     aj    funct
     1      6      1 ;     C1 - C6    
     1     13      1 ;     C1 - H5    
     1     14      1 ;     C1 - H6    
     2      8      1 ;     C2 - C8    
     2     17      1 ;     C2 - H9    
     2     18      1 ;     C2 - H10   
     3      8      1 ;     C3 - C8    
     3     19      1 ;     C3 - H11   
     3     20      1 ;     C3 - H12   
     4      7      1 ;     C4 - C7    
     4     21      1 ;     C4 - H13   
     4     22      1 ;     C4 - H14   
     5      6      1 ;     C5 - C6    
     5     21      1 ;     C5 - H13   
     5     22      1 ;     C5 - H14   
     6     19      1 ;     C6 - H11   
     6     20      1 ;     C6 - H12   
     7     10      1 ;     C7 - H2    
     7     11      1 ;     C7 - H3    
     7     12      1 ;     C7 - H4    
     7     17      1 ;     C7 - H9    
     7     18      1 ;     C7 - H10   
     8     13      1 ;     C8 - H5    
     8     14      1 ;     C8 - H6    
     8     15      1 ;     C8 - H7    
     8     16      1 ;     C8 - H8    
     9      4      1 ;     H1 - C4    
    10     15      1 ;     H2 - H7    
    10     16      1 ;     H2 - H8    
    11     15      1 ;     H3 - H7    
    11     16      1 ;     H3 - H8    
    12     15      1 ;     H4 - H7    
    12     16      1 ;     H4 - H8    
    13     17      1 ;     H5 - H9    
    13     18      1 ;     H5 - H10   
    14     17      1 ;     H6 - H9    
    14     18      1 ;     H6 - H10   
    15     19      1 ;     H7 - H11   
    15     20      1 ;     H7 - H12   
    16     19      1 ;     H8 - H11   
    16     20      1 ;     H8 - H12   
    17     21      1 ;     H9 - H13   
    17     22      1 ;     H9 - H14   
    18     21      1 ;    H10 - H13   
    18     22      1 ;    H10 - H14   
    19     21      1 ;    H11 - H13   
    19     22      1 ;    H11 - H14   
    20     21      1 ;    H12 - H13   
    20     22      1 ;    H12 - H14   

[ angles ]
;   ai     aj     ak    funct   theta         cth
     1      2      4      1    1.7867e+02    4.4836e+02 ;     C1 - C2     - C4    
     2      1      9      1    1.7928e+02    3.4351e+02 ;     C2 - C1     - H1    
     2      4      6      1    1.1202e+02    5.1354e+02 ;     C2 - C4     - C6    
     2      4     13      1    1.0945e+02    3.7765e+02 ;     C2 - C4     - H5    
     2      4     14      1    1.0945e+02    3.7765e+02 ;     C2 - C4     - H6    
     3      5      7      1    1.1263e+02    5.0099e+02 ;     C3 - C5     - C7    
     3      5     15      1    1.0968e+02    3.6208e+02 ;     C3 - C5     - H7    
     3      5     16      1    1.0968e+02    3.6208e+02 ;     C3 - C5     - H8    
     4      6      8      1    1.1263e+02    5.0099e+02 ;     C4 - C6     - C8    
     4      6     17      1    1.0968e+02    3.6208e+02 ;     C4 - C6     - H9    
     4      6     18      1    1.0968e+02    3.6208e+02 ;     C4 - C6     - H10   
     5      3     10      1    1.0968e+02    3.6208e+02 ;     C5 - C3     - H2    
     5      3     11      1    1.0968e+02    3.6208e+02 ;     C5 - C3     - H3    
     5      3     12      1    1.0968e+02    3.6208e+02 ;     C5 - C3     - H4    
     5      7      8      1    1.1263e+02    5.0099e+02 ;     C5 - C7     - C8    
     5      7     19      1    1.0968e+02    3.6208e+02 ;     C5 - C7     - H11   
     5      7     20      1    1.0968e+02    3.6208e+02 ;     C5 - C7     - H12   
     6      4     13      1    1.0968e+02    3.6208e+02 ;     C6 - C4     - H5    
     6      4     14      1    1.0968e+02    3.6208e+02 ;     C6 - C4     - H6    
     6      8      7      1    1.1263e+02    5.0099e+02 ;     C6 - C8     - C7    
     6      8     21      1    1.0968e+02    3.6208e+02 ;     C6 - C8     - H13   
     6      8     22      1    1.0968e+02    3.6208e+02 ;     C6 - C8     - H14   
     7      5     15      1    1.0968e+02    3.6208e+02 ;     C7 - C5     - H7    
     7      5     16      1    1.0968e+02    3.6208e+02 ;     C7 - C5     - H8    
     7      8     21      1    1.0968e+02    3.6208e+02 ;     C7 - C8     - H13   
     7      8     22      1    1.0968e+02    3.6208e+02 ;     C7 - C8     - H14   
     8      6     17      1    1.0968e+02    3.6208e+02 ;     C8 - C6     - H9    
     8      6     18      1    1.0968e+02    3.6208e+02 ;     C8 - C6     - H10   
     8      7     19      1    1.0968e+02    3.6208e+02 ;     C8 - C7     - H11   
     8      7     20      1    1.0968e+02    3.6208e+02 ;     C8 - C7     - H12   
    10      3     11      1    1.0773e+02    2.9957e+02 ;     H2 - C3     - H3    
    10      3     12      1    1.0773e+02    2.9957e+02 ;     H2 - C3     - H4    
    11      3     12      1    1.0773e+02    2.9957e+02 ;     H3 - C3     - H4    
    13      4     14      1    1.0773e+02    2.9957e+02 ;     H5 - C4     - H6    
    15      5     16      1    1.0773e+02    2.9957e+02 ;     H7 - C5     - H8    
    17      6     18      1    1.0773e+02    2.9957e+02 ;     H9 - C6     - H10   
    19      7     20      1    1.0773e+02    2.9957e+02 ;    H11 - C7     - H12   
    21      8     22      1    1.0773e+02    2.9957e+02 ;    H13 - C8     - H14   

[ dihedrals ] ; propers
; for gromacs 4.5 or higher, using funct 9
;    i      j      k      l   func   phase     kd      pn
     1      2      4      6      9   180.00   0.00000   2 ;     C1-    C2-    C4-    C6
     1      2      4     13      9   180.00   0.00000   2 ;     C1-    C2-    C4-    H5
     1      2      4     14      9   180.00   0.00000   2 ;     C1-    C2-    C4-    H6
     2      4      6      8      9     0.00   0.65084   3 ;     C2-    C4-    C6-    C8
     2      4      6     17      9     0.00   0.65084   3 ;     C2-    C4-    C6-    H9
     2      4      6     18      9     0.00   0.65084   3 ;     C2-    C4-    C6-   H10
     3      5      7      8      9     0.00   2.17568   3 ;     C3-    C5-    C7-    C8
     3      5      7     19      9     0.00   0.54392   3 ;     C3-    C5-    C7-   H11
     3      5      7     20      9     0.00   0.54392   3 ;     C3-    C5-    C7-   H12
     4      6      8      7      9     0.00   2.17568   3 ;     C4-    C6-    C8-    C7
     4      6      8     21      9     0.00   0.54392   3 ;     C4-    C6-    C8-   H13
     4      6      8     22      9     0.00   0.54392   3 ;     C4-    C6-    C8-   H14
     5      7      8      6      9     0.00   2.17568   3 ;     C5-    C7-    C8-    C6
     5      7      8     21      9     0.00   0.54392   3 ;     C5-    C7-    C8-   H13
     5      7      8     22      9     0.00   0.54392   3 ;     C5-    C7-    C8-   H14
     6      8      7     19      9     0.00   0.54392   3 ;     C6-    C8-    C7-   H11
     6      8      7     20      9     0.00   0.54392   3 ;     C6-    C8-    C7-   H12
     7      5      3     10      9     0.00   0.54392   3 ;     C7-    C5-    C3-    H2
     7      5      3     11      9     0.00   0.54392   3 ;     C7-    C5-    C3-    H3
     7      5      3     12      9     0.00   0.54392   3 ;     C7-    C5-    C3-    H4
     7      8      6     17      9     0.00   0.54392   3 ;     C7-    C8-    C6-    H9
     7      8      6     18      9     0.00   0.54392   3 ;     C7-    C8-    C6-   H10
     8      6      4     13      9     0.00   0.54392   3 ;     C8-    C6-    C4-    H5
     8      6      4     14      9     0.00   0.54392   3 ;     C8-    C6-    C4-    H6
     8      7      5     15      9     0.00   0.54392   3 ;     C8-    C7-    C5-    H7
     8      7      5     16      9     0.00   0.54392   3 ;     C8-    C7-    C5-    H8
     9      1      2      4      9   180.00   0.00000   2 ;     H1-    C1-    C2-    C4
    10      3      5     15      9     0.00   0.50208   3 ;     H2-    C3-    C5-    H7
    10      3      5     16      9     0.00   0.50208   3 ;     H2-    C3-    C5-    H8
    11      3      5     15      9     0.00   0.50208   3 ;     H3-    C3-    C5-    H7
    11      3      5     16      9     0.00   0.50208   3 ;     H3-    C3-    C5-    H8
    12      3      5     15      9     0.00   0.50208   3 ;     H4-    C3-    C5-    H7
    12      3      5     16      9     0.00   0.50208   3 ;     H4-    C3-    C5-    H8
    13      4      6     17      9     0.00   0.50208   3 ;     H5-    C4-    C6-    H9
    13      4      6     18      9     0.00   0.50208   3 ;     H5-    C4-    C6-   H10
    14      4      6     17      9     0.00   0.50208   3 ;     H6-    C4-    C6-    H9
    14      4      6     18      9     0.00   0.50208   3 ;     H6-    C4-    C6-   H10
    15      5      7     19      9     0.00   0.50208   3 ;     H7-    C5-    C7-   H11
    15      5      7     20      9     0.00   0.50208   3 ;     H7-    C5-    C7-   H12
    16      5      7     19      9     0.00   0.50208   3 ;     H8-    C5-    C7-   H11
    16      5      7     20      9     0.00   0.50208   3 ;     H8-    C5-    C7-   H12
    17      6      8     21      9     0.00   0.50208   3 ;     H9-    C6-    C8-   H13
    17      6      8     22      9     0.00   0.50208   3 ;     H9-    C6-    C8-   H14
    18      6      8     21      9     0.00   0.50208   3 ;    H10-    C6-    C8-   H13
    18      6      8     22      9     0.00   0.50208   3 ;    H10-    C6-    C8-   H14
    19      7      8     21      9     0.00   0.50208   3 ;    H11-    C7-    C8-   H13
    19      7      8     22      9     0.00   0.50208   3 ;    H11-    C7-    C8-   H14
    20      7      8     21      9     0.00   0.50208   3 ;    H12-    C7-    C8-   H13
    20      7      8     22      9     0.00   0.50208   3 ;    H12-    C7-    C8-   H14
