; mobley_778352_GMX.top created by acpype (v: 2023.10.27) on Thu May 14 13:47:33 2026

[ defaults ]
; nbfunc        comb-rule       gen-pairs       fudgeLJ fudgeQQ
1               2               yes             0.5     0.8333333333

; Include mobley_778352_GMX.itp topology
#include "mobley_778352_GMX.itp"

; Ligand position restraints
#ifdef POSRES_LIG
#include "posre_mobley_778352.itp"
#endif

#include "../common/SOL.TIP3P.itp"

[ system ]
mobley_778352 in water

[ molecules ]
; Compound        nmols
 mobley_778352    1     
SOL               529
