mobley_4694328_GMX.gro created by acpype (v: 2023.10.27) on Thu May 14 13:40:36 2026
 2875
    1MOL     C1    1   1.458   1.961   1.700
    1MOL     C2    2   1.608   1.142   1.386
    1MOL     C3    3   1.549   1.842   1.675
    1MOL     C4    4   1.516   1.260   1.409
    1MOL     C5    5   1.479   1.731   1.596
    1MOL     C6    6   1.587   1.373   1.484
    1MOL     C7    7   1.566   1.607   1.576
    1MOL     C8    8   1.494   1.493   1.504
    1MOL     O1    9   1.341   1.968   1.664
    1MOL     H1   10   1.506   2.045   1.753
    1MOL     H2   11   1.696   1.171   1.327
    1MOL     H3   12   1.556   1.062   1.333
    1MOL     H4   13   1.644   1.101   1.481
    1MOL     H5   14   1.581   1.805   1.772
    1MOL     H6   15   1.636   1.880   1.621
    1MOL     H7   16   1.428   1.227   1.466
    1MOL     H8   17   1.480   1.297   1.312
    1MOL     H9   18   1.447   1.770   1.499
    1MOL    H10   19   1.388   1.701   1.649
    1MOL    H11   20   1.621   1.336   1.582
    1MOL    H12   21   1.676   1.404   1.428
    1MOL    H13   22   1.657   1.634   1.521
    1MOL    H14   23   1.599   1.572   1.675
    1MOL    H15   24   1.406   1.462   1.562
    1MOL    H16   25   1.458   1.527   1.406
    2SOL     OW   26   0.230   0.628   0.113
    2SOL    HW1   27   0.137   0.626   0.150
    2SOL    HW2   28   0.231   0.589   0.021
    3SOL     OW   29   0.225   0.275   0.996
    3SOL    HW1   30   0.260   0.258   1.088
    3SOL    HW2   31   0.137   0.230   0.984
    4SOL     OW   32   0.019   0.368   0.647
    4SOL    HW1   33  -0.063   0.411   0.686
    4SOL    HW2   34  -0.009   0.295   0.584
    5SOL     OW   35   0.569   1.275   1.165
    5SOL    HW1   36   0.476   1.268   1.128
    5SOL    HW2   37   0.580   1.364   1.209
    6SOL     OW   38   1.555   1.511   0.703
    6SOL    HW1   39   1.498   1.495   0.784
    6SOL    HW2   40   1.496   1.521   0.623
    7SOL     OW   41   1.135   0.703   0.717
    7SOL    HW1   42   1.192   0.781   0.692
    7SOL    HW2   43   1.075   0.729   0.793
    8SOL     OW   44   1.755   0.607   0.231
    8SOL    HW1   45   1.743   0.594   0.132
    8SOL    HW2   46   1.725   0.526   0.280
    9SOL     OW   47   0.768   1.144   1.023
    9SOL    HW1   48   0.690   1.161   1.083
    9SOL    HW2   49   0.802   1.231   0.987
   10SOL     OW   50   0.850   0.798   1.823
   10SOL    HW1   51   0.846   0.874   1.888
   10SOL    HW2   52   0.872   0.834   1.732
   11SOL     OW   53   0.685   1.012   0.665
   11SOL    HW1   54   0.754   0.996   0.735
   11SOL    HW2   55   0.612   1.069   0.703
   12SOL     OW   56   0.686   1.161   1.803
   12SOL    HW1   57   0.746   1.240   1.817
   12SOL    HW2   58   0.600   1.192   1.762
   13SOL     OW   59   0.335   1.435   1.061
   13SOL    HW1   60   0.257   1.404   1.008
   13SOL    HW2   61   0.393   1.493   1.004
   14SOL     OW   62   0.438   0.392   1.499
   14SOL    HW1   63   0.520   0.336   1.508
   14SOL    HW2   64   0.357   0.334   1.503
   15SOL     OW   65   1.603   0.447   0.737
   15SOL    HW1   66   1.529   0.493   0.687
   15SOL    HW2   67   1.654   0.515   0.790
   16SOL     OW   68   0.231   1.713   0.483
   16SOL    HW1   69   0.265   1.790   0.537
   16SOL    HW2   70   0.275   1.713   0.393
   17SOL     OW   71   1.127   1.341   1.690
   17SOL    HW1   72   1.174   1.341   1.778
   17SOL    HW2   73   1.079   1.254   1.679
   18SOL     OW   74   0.230   1.434   0.538
   18SOL    HW1   75   0.204   1.530   0.538
   18SOL    HW2   76   0.159   1.380   0.583
   19SOL     OW   77   0.240   1.091   0.886
   19SOL    HW1   78   0.254   1.007   0.938
   19SOL    HW2   79   0.185   1.155   0.941
   20SOL     OW   80   0.620   1.786   1.439
   20SOL    HW1   81   0.528   1.769   1.474
   20SOL    HW2   82   0.648   1.878   1.465
   21SOL     OW   83   0.606   0.964   0.123
   21SOL    HW1   84   0.613   1.048   0.069
   21SOL    HW2   85   0.652   0.977   0.211
   22SOL     OW   86   1.594   0.114   1.480
   22SOL    HW1   87   1.576   0.181   1.408
   22SOL    HW2   88   1.591   0.160   1.569
   23SOL     OW   89   0.122   0.643   0.563
   23SOL    HW1   90   0.077   0.555   0.580
   23SOL    HW2   91   0.121   0.697   0.647
   24SOL     OW   92   1.842   1.767   0.359
   24SOL    HW1   93   1.896   1.738   0.439
   24SOL    HW2   94   1.872   1.857   0.330
   25SOL     OW   95   0.027   1.596   0.117
   25SOL    HW1   96   0.008   1.500   0.138
   25SOL    HW2   97  -0.006   1.654   0.192
   26SOL     OW   98   1.689   0.922   0.612
   26SOL    HW1   99   1.784   0.893   0.620
   26SOL    HW2  100   1.681   0.987   0.537
   27SOL     OW  101   1.641   1.108   0.432
   27SOL    HW1  102   1.727   1.110   0.380
   27SOL    HW2  103   1.655   1.155   0.520
   28SOL     OW  104   0.113   0.737   1.597
   28SOL    HW1  105   0.201   0.724   1.642
   28SOL    HW2  106   0.100   0.834   1.575
   29SOL     OW  107   0.613   1.365   0.726
   29SOL    HW1  108   0.564   1.278   0.735
   29SOL    HW2  109   0.590   1.408   0.639
   30SOL     OW  110   0.809   0.004   0.502
   30SOL    HW1  111   0.849   0.095   0.493
   30SOL    HW2  112   0.709   0.012   0.508
   31SOL     OW  113   0.197   0.976   1.264
   31SOL    HW1  114   0.286   0.931   1.250
   31SOL    HW2  115   0.124   0.911   1.245
   32SOL     OW  116   1.525   0.999   0.190
   32SOL    HW1  117   1.462   0.923   0.203
   32SOL    HW2  118   1.573   1.017   0.276
   33SOL     OW  119   1.187   1.792   1.616
   33SOL    HW1  120   1.211   1.852   1.540
   33SOL    HW2  121   1.194   1.697   1.586
   34SOL     OW  122   0.317   0.251   1.801
   34SOL    HW1  123   0.388   0.322   1.807
   34SOL    HW2  124   0.229   0.290   1.829
   35SOL     OW  125   1.466   1.417   0.953
   35SOL    HW1  126   1.407   1.423   1.033
   35SOL    HW2  127   1.451   1.329   0.907
   36SOL     OW  128   1.667   1.714   0.572
   36SOL    HW1  129   1.626   1.691   0.484
   36SOL    HW2  130   1.649   1.640   0.637
   37SOL     OW  131   0.598   0.729   0.270
   37SOL    HW1  132   0.622   0.798   0.202
   37SOL    HW2  133   0.520   0.762   0.324
   38SOL     OW  134   1.281   0.345   0.944
   38SOL    HW1  135   1.195   0.295   0.931
   38SOL    HW2  136   1.343   0.291   1.000
   39SOL     OW  137   1.576   1.662   0.307
   39SOL    HW1  138   1.665   1.708   0.310
   39SOL    HW2  139   1.555   1.638   0.212
   40SOL     OW  140   0.807   0.605   1.465
   40SOL    HW1  141   0.760   0.602   1.554
   40SOL    HW2  142   0.756   0.550   1.399
   41SOL     OW  143   1.394   0.469   1.674
   41SOL    HW1  144   1.374   0.512   1.762
   41SOL    HW2  145   1.472   0.407   1.683
   42SOL     OW  146   0.973   0.890   1.572
   42SOL    HW1  147   1.019   0.806   1.543
   42SOL    HW2  148   0.917   0.924   1.497
   43SOL     OW  149   0.991   0.410   1.242
   43SOL    HW1  150   0.914   0.444   1.296
   43SOL    HW2  151   0.957   0.359   1.163
   44SOL     OW  152   1.041   0.701   0.429
   44SOL    HW1  153   1.067   0.697   0.525
   44SOL    HW2  154   0.956   0.650   0.415
   45SOL     OW  155   0.076   0.811   0.789
   45SOL    HW1  156   0.175   0.799   0.798
   45SOL    HW2  157   0.052   0.906   0.810
   46SOL     OW  158   0.130   1.821   1.571
   46SOL    HW1  159   0.120   1.806   1.670
   46SOL    HW2  160   0.044   1.857   1.535
   47SOL     OW  161   0.865   0.348   0.195
   47SOL    HW1  162   0.924   0.411   0.146
   47SOL    HW2  163   0.884   0.254   0.166
   48SOL     OW  164   1.719   0.585   1.831
   48SOL    HW1  165   1.693   0.674   1.795
   48SOL    HW2  166   1.717   0.517   1.758
   49SOL     OW  167   1.362   1.144   0.545
   49SOL    HW1  168   1.445   1.115   0.497
   49SOL    HW2  169   1.313   1.211   0.489
   50SOL     OW  170   0.550   0.196   0.885
   50SOL    HW1  171   0.545   0.191   0.985
   50SOL    HW2  172   0.552   0.292   0.856
   51SOL     OW  173   1.008   1.456   0.477
   51SOL    HW1  174   0.962   1.528   0.425
   51SOL    HW2  175   1.004   1.476   0.575
   52SOL     OW  176   0.351   1.801   0.853
   52SOL    HW1  177   0.401   1.715   0.859
   52SOL    HW2  178   0.416   1.878   0.850
   53SOL     OW  179   1.795   1.066   0.873
   53SOL    HW1  180   1.733   1.051   0.797
   53SOL    HW2  181   1.743   1.077   0.958
   54SOL     OW  182   1.227   1.550   1.506
   54SOL    HW1  183   1.233   1.473   1.570
   54SOL    HW2  184   1.175   1.524   1.426
   55SOL     OW  185   0.321   0.943   0.242
   55SOL    HW1  186   0.403   0.982   0.200
   55SOL    HW2  187   0.294   0.861   0.193
   56SOL     OW  188   1.458   0.735   0.728
   56SOL    HW1  189   1.453   0.670   0.803
   56SOL    HW2  190   1.538   0.794   0.741
   57SOL     OW  191   0.461   1.266   1.727
   57SOL    HW1  192   0.411   1.267   1.641
   57SOL    HW2  193   0.398   1.248   1.803
   58SOL     OW  194   1.111   1.776   0.237
   58SOL    HW1  195   1.051   1.714   0.287
   58SOL    HW2  196   1.142   1.732   0.152
   59SOL     OW  197   0.202   0.285   1.498
   59SOL    HW1  198   0.122   0.345   1.485
   59SOL    HW2  199   0.192   0.236   1.584
   60SOL     OW  200   1.632   1.377   0.081
   60SOL    HW1  201   1.600   1.471   0.071
   60SOL    HW2  202   1.556   1.314   0.069
   61SOL     OW  203   0.464   1.743   0.323
   61SOL    HW1  204   0.497   1.782   0.409
   61SOL    HW2  205   0.540   1.736   0.258
   62SOL     OW  206   1.400   0.107   0.426
   62SOL    HW1  207   1.376   0.070   0.336
   62SOL    HW2  208   1.499   0.123   0.430
   63SOL     OW  209   0.249   1.785   1.241
   63SOL    HW1  210   0.306   1.720   1.291
   63SOL    HW2  211   0.233   1.752   1.148
   64SOL     OW  212   0.940   1.698   0.904
   64SOL    HW1  213   1.020   1.641   0.925
   64SOL    HW2  214   0.891   1.658   0.827
   65SOL     OW  215   0.382   0.700   0.480
   65SOL    HW1  216   0.427   0.610   0.477
   65SOL    HW2  217   0.288   0.689   0.513
   66SOL     OW  218   1.547   0.222   1.729
   66SOL    HW1  219   1.542   0.259   1.821
   66SOL    HW2  220   1.475   0.153   1.717
   67SOL     OW  221   0.614   0.122   0.117
   67SOL    HW1  222   0.712   0.100   0.124
   67SOL    HW2  223   0.583   0.105   0.024
   68SOL     OW  224   0.781   0.264   1.749
   68SOL    HW1  225   0.848   0.203   1.792
   68SOL    HW2  226   0.708   0.283   1.814
   69SOL     OW  227   0.888   1.514   1.195
   69SOL    HW1  228   0.865   1.489   1.101
   69SOL    HW2  229   0.949   1.445   1.234
   70SOL     OW  230   1.351   0.590   1.433
   70SOL    HW1  231   1.379   0.547   1.518
   70SOL    HW2  232   1.376   0.686   1.434
   71SOL     OW  233   0.803   1.402   0.924
   71SOL    HW1  234   0.893   1.416   0.882
   71SOL    HW2  235   0.732   1.404   0.853
   72SOL     OW  236   0.922   0.503   0.899
   72SOL    HW1  237   0.897   0.494   0.803
   72SOL    HW2  238   0.970   0.421   0.930
   73SOL     OW  239   0.539   0.064   0.512
   73SOL    HW1  240   0.458   0.065   0.570
   73SOL    HW2  241   0.542   0.147   0.457
   74SOL     OW  242   1.434   1.188   0.041
   74SOL    HW1  243   1.466   1.112   0.098
   74SOL    HW2  244   1.342   1.215   0.071
   75SOL     OW  245   0.297   0.035   0.171
   75SOL    HW1  246   0.346   0.119   0.150
   75SOL    HW2  247   0.359  -0.030   0.216
   76SOL     OW  248   0.935   0.236   0.480
   76SOL    HW1  249   0.887   0.277   0.402
   76SOL    HW2  250   1.034   0.234   0.461
   77SOL     OW  251   1.076   0.683   1.464
   77SOL    HW1  252   0.996   0.622   1.467
   77SOL    HW2  253   1.157   0.630   1.440
   78SOL     OW  254   1.227   1.570   0.793
   78SOL    HW1  255   1.248   1.644   0.728
   78SOL    HW2  256   1.295   1.570   0.866
   79SOL     OW  257   0.459   1.152   0.741
   79SOL    HW1  258   0.388   1.125   0.806
   79SOL    HW2  259   0.433   1.124   0.648
   80SOL     OW  260   1.271   1.797   0.591
   80SOL    HW1  261   1.315   1.861   0.527
   80SOL    HW2  262   1.221   1.849   0.661
   81SOL     OW  263   1.032   0.549   0.016
   81SOL    HW1  264   0.991   0.631  -0.023
   81SOL    HW2  265   1.096   0.575   0.089
   82SOL     OW  266   0.078   0.556   1.386
   82SOL    HW1  267   0.170   0.555   1.345
   82SOL    HW2  268   0.072   0.630   1.453
   83SOL     OW  269   0.561   0.222   1.147
   83SOL    HW1  270   0.599   0.138   1.184
   83SOL    HW2  271   0.473   0.241   1.191
   84SOL     OW  272   0.866   0.454   0.642
   84SOL    HW1  273   0.834   0.526   0.580
   84SOL    HW2  274   0.890   0.373   0.589
   85SOL     OW  275   1.017   0.039   0.753
   85SOL    HW1  276   0.945   0.044   0.684
   85SOL    HW2  277   0.993  -0.030   0.822
   86SOL     OW  278   1.429   1.173   0.867
   86SOL    HW1  279   1.374   1.089   0.860
   86SOL    HW2  280   1.455   1.202   0.775
   87SOL     OW  281   1.466   0.590   0.992
   87SOL    HW1  282   1.436   0.495   0.999
   87SOL    HW2  283   1.539   0.606   1.058
   88SOL     OW  284   1.857   0.833   0.377
   88SOL    HW1  285   1.899   0.769   0.441
   88SOL    HW2  286   1.819   0.782   0.299
   89SOL     OW  287   0.488   1.385   0.174
   89SOL    HW1  288   0.401   1.370   0.221
   89SOL    HW2  289   0.471   1.411   0.079
   90SOL     OW  290   1.664   1.280   0.657
   90SOL    HW1  291   1.763   1.288   0.671
   90SOL    HW2  292   1.619   1.364   0.688
   91SOL     OW  293   1.390   0.575   0.078
   91SOL    HW1  294   1.336   0.554   0.159
   91SOL    HW2  295   1.481   0.534   0.087
   92SOL     OW  296   0.527   0.256   0.328
   92SOL    HW1  297   0.554   0.197   0.253
   92SOL    HW2  298   0.527   0.351   0.297
   93SOL     OW  299   1.754   1.223   1.588
   93SOL    HW1  300   1.845   1.184   1.575
   93SOL    HW2  301   1.762   1.319   1.612
   94SOL     OW  302   1.064   1.347   1.340
   94SOL    HW1  303   0.984   1.324   1.395
   94SOL    HW2  304   1.147   1.321   1.389
   95SOL     OW  305   1.111   1.195   1.100
   95SOL    HW1  306   1.071   1.239   1.181
   95SOL    HW2  307   1.070   1.232   1.017
   96SOL     OW  308   1.638   1.099   1.079
   96SOL    HW1  309   1.643   1.180   1.138
   96SOL    HW2  310   1.552   1.101   1.028
   97SOL     OW  311   0.915   0.089   1.402
   97SOL    HW1  312   0.940   0.069   1.307
   97SOL    HW2  313   0.987   0.145   1.444
   98SOL     OW  314   0.980   1.116   1.719
   98SOL    HW1  315   0.881   1.122   1.729
   98SOL    HW2  316   1.003   1.036   1.663
   99SOL     OW  317   0.705   1.050   0.368
   99SOL    HW1  318   0.691   1.057   0.467
   99SOL    HW2  319   0.789   0.999   0.350
  100SOL     OW  320   0.410   0.813   1.251
  100SOL    HW1  321   0.496   0.825   1.301
  100SOL    HW2  322   0.368   0.726   1.278
  101SOL     OW  323   1.274   0.386   1.262
  101SOL    HW1  324   1.295   0.460   1.326
  101SOL    HW2  325   1.185   0.403   1.219
  102SOL     OW  326   0.064   1.564   1.331
  102SOL    HW1  327   0.018   1.646   1.297
  102SOL    HW2  328   0.162   1.583   1.340
  103SOL     OW  329   0.367   1.100   0.501
  103SOL    HW1  330   0.360   1.183   0.445
  103SOL    HW2  331   0.371   1.020   0.441
  104SOL     OW  332   0.566   0.537   0.865
  104SOL    HW1  333   0.578   0.603   0.791
  104SOL    HW2  334   0.612   0.571   0.948
  105SOL     OW  335   1.252   1.348   0.388
  105SOL    HW1  336   1.302   1.425   0.428
  105SOL    HW2  337   1.157   1.350   0.420
  106SOL     OW  338   1.272   1.445   1.142
  106SOL    HW1  339   1.319   1.458   1.229
  106SOL    HW2  340   1.206   1.371   1.151
  107SOL     OW  341   1.582   0.639   0.472
  107SOL    HW1  342   1.551   0.700   0.545
  107SOL    HW2  343   1.632   0.691   0.403
  108SOL     OW  344   0.354   1.510   1.329
  108SOL    HW1  345   0.333   1.466   1.242
  108SOL    HW2  346   0.451   1.536   1.332
  109SOL     OW  347   0.402   0.751   1.598
  109SOL    HW1  348   0.470   0.806   1.551
  109SOL    HW2  349   0.442   0.663   1.625
  110SOL     OW  350   1.587   0.779   1.670
  110SOL    HW1  351   1.495   0.817   1.665
  110SOL    HW2  352   1.647   0.826   1.605
  111SOL     OW  353   1.013   0.105   1.770
  111SOL    HW1  354   1.019   0.190   1.718
  111SOL    HW2  355   1.045   0.029   1.713
  112SOL     OW  356   0.504   0.050   1.740
  112SOL    HW1  357   0.462  -0.007   1.670
  112SOL    HW2  358   0.438   0.119   1.772
  113SOL     OW  359   0.573   0.870   1.029
  113SOL    HW1  360   0.617   0.959   1.020
  113SOL    HW2  361   0.510   0.870   1.106
  114SOL     OW  362   1.360   0.862   1.045
  114SOL    HW1  363   1.285   0.862   0.979
  114SOL    HW2  364   1.397   0.770   1.054
  115SOL     OW  365   1.209   0.525   0.275
  115SOL    HW1  366   1.222   0.441   0.329
  115SOL    HW2  367   1.180   0.599   0.335
  116SOL     OW  368   0.307   0.213   1.231
  116SOL    HW1  369   0.284   0.250   1.321
  116SOL    HW2  370   0.277   0.118   1.225
  117SOL     OW  371   0.037   1.310   1.282
  117SOL    HW1  372   0.090   1.261   1.350
  117SOL    HW2  373   0.059   1.408   1.287
  118SOL     OW  374   0.732   0.634   1.064
  118SOL    HW1  375   0.791   0.608   0.988
  118SOL    HW2  376   0.704   0.730   1.053
  119SOL     OW  377   1.728   0.935   1.854
  119SOL    HW1  378   1.682   0.928   1.765
  119SOL    HW2  379   1.666   0.979   1.920
  120SOL     OW  380   0.307   0.063   0.618
  120SOL    HW1  381   0.296   0.157   0.651
  120SOL    HW2  382   0.302   0.000   0.695
  121SOL     OW  383   1.622   0.367   0.374
  121SOL    HW1  384   1.624   0.291   0.438
  121SOL    HW2  385   1.574   0.444   0.414
  122SOL     OW  386   1.023   0.766   0.966
  122SOL    HW1  387   1.038   0.787   1.062
  122SOL    HW2  388   0.993   0.671   0.957
  123SOL     OW  389   0.980   1.573   1.700
  123SOL    HW1  390   0.960   1.617   1.612
  123SOL    HW2  391   1.019   1.482   1.684
  124SOL     OW  392   1.859   1.518   1.605
  124SOL    HW1  393   1.873   1.545   1.510
  124SOL    HW2  394   1.942   1.540   1.658
  125SOL     OW  395   0.350   0.898   1.804
  125SOL    HW1  396   0.426   0.942   1.852
  125SOL    HW2  397   0.385   0.851   1.722
  126SOL     OW  398   1.540   0.274   0.125
  126SOL    HW1  399   1.479   0.199   0.148
  126SOL    HW2  400   1.562   0.326   0.208
  127SOL     OW  401   1.303   0.838   0.042
  127SOL    HW1  402   1.337   0.745   0.057
  127SOL    HW2  403   1.321   0.865  -0.053
  128SOL     OW  404   1.068   1.333   0.849
  128SOL    HW1  405   1.075   1.249   0.794
  128SOL    HW2  406   1.130   1.402   0.813
  129SOL     OW  407   0.319   0.810   0.949
  129SOL    HW1  408   0.412   0.846   0.954
  129SOL    HW2  409   0.313   0.725   1.001
  130SOL     OW  410   0.339   0.509   1.006
  130SOL    HW1  411   0.287   0.426   0.989
  130SOL    HW2  412   0.416   0.514   0.942
  131SOL     OW  413   1.138   0.380   1.678
  131SOL    HW1  414   1.093   0.443   1.742
  131SOL    HW2  415   1.231   0.411   1.661
  132SOL     OW  416   1.160   0.207   1.477
  132SOL    HW1  417   1.160   0.271   1.554
  132SOL    HW2  418   1.188   0.255   1.394
  133SOL     OW  419   0.008   1.326   0.200
  133SOL    HW1  420  -0.085   1.347   0.169
  133SOL    HW2  421   0.018   1.227   0.213
  134SOL     OW  422   0.088   1.801   0.927
  134SOL    HW1  423   0.046   1.715   0.900
  134SOL    HW2  424   0.182   1.804   0.893
  135SOL     OW  425   0.504   1.568   0.910
  135SOL    HW1  426   0.570   1.642   0.919
  135SOL    HW2  427   0.548   1.489   0.868
  136SOL     OW  428   1.002   0.796   1.238
  136SOL    HW1  429   1.043   0.764   1.324
  136SOL    HW2  430   0.906   0.769   1.235
  137SOL     OW  431   0.040   0.544   1.114
  137SOL    HW1  432   0.125   0.511   1.073
  137SOL    HW2  433   0.053   0.559   1.212
  138SOL     OW  434   0.189   0.520   1.722
  138SOL    HW1  435   0.248   0.480   1.652
  138SOL    HW2  436   0.131   0.591   1.681
  139SOL     OW  437   1.369   0.950   1.660
  139SOL    HW1  438   1.408   1.039   1.680
  139SOL    HW2  439   1.379   0.930   1.563
  140SOL     OW  440   0.815   0.572   0.325
  140SOL    HW1  441   0.822   0.483   0.279
  140SOL    HW2  442   0.721   0.606   0.317
  141SOL     OW  443   1.657   0.604   1.206
  141SOL    HW1  444   1.619   0.535   1.268
  141SOL    HW2  445   1.739   0.568   1.162
  142SOL     OW  446   0.252   1.564   1.744
  142SOL    HW1  447   0.222   1.621   1.820
  142SOL    HW2  448   0.245   1.467   1.770
  143SOL     OW  449   0.671   0.464   1.269
  143SOL    HW1  450   0.637   0.375   1.239
  143SOL    HW2  451   0.697   0.518   1.189
  144SOL     OW  452   0.930   1.678   1.465
  144SOL    HW1  453   0.906   1.660   1.370
  144SOL    HW2  454   0.960   1.772   1.475
  145SOL     OW  455   0.473   0.500   0.191
  145SOL    HW1  456   0.534   0.580   0.195
  145SOL    HW2  457   0.378   0.531   0.198
  146SOL     OW  458   0.159   1.137   1.466
  146SOL    HW1  459   0.181   1.076   1.542
  146SOL    HW2  460   0.169   1.088   1.380
  147SOL     OW  461   1.347   1.059   1.234
  147SOL    HW1  462   1.371   0.996   1.160
  147SOL    HW2  463   1.257   1.099   1.216
  148SOL     OW  464   1.302   0.855   0.309
  148SOL    HW1  465   1.216   0.824   0.351
  148SOL    HW2  466   1.298   0.841   0.210
  149SOL     OW  467   1.759   1.747   1.154
  149SOL    HW1  468   1.820   1.777   1.081
  149SOL    HW2  469   1.721   1.658   1.132
  150SOL     OW  470   1.252   1.731   1.128
  150SOL    HW1  471   1.336   1.736   1.074
  150SOL    HW2  472   1.229   1.635   1.146
  151SOL     OW  473   0.083   1.258   1.022
  151SOL    HW1  474   0.078   1.257   1.122
  151SOL    HW2  475   0.000   1.217   0.984
  152SOL     OW  476   0.688   1.662   1.716
  152SOL    HW1  477   0.632   1.743   1.725
  152SOL    HW2  478   0.740   1.666   1.630
  153SOL     OW  479   0.903   0.086   0.133
  153SOL    HW1  480   0.954   0.087   0.047
  153SOL    HW2  481   0.959   0.044   0.204
  154SOL     OW  482   1.726   0.135   0.523
  154SOL    HW1  483   1.799   0.118   0.456
  154SOL    HW2  484   1.695   0.048   0.561
  155SOL     OW  485   1.388   1.573   0.477
  155SOL    HW1  486   1.455   1.585   0.403
  155SOL    HW2  487   1.348   1.662   0.500
  156SOL     OW  488   0.130   1.794   1.851
  156SOL    HW1  489   0.089   1.720   1.904
  156SOL    HW2  490   0.194   1.845   1.909
  157SOL     OW  491   1.280   0.927   0.672
  157SOL    HW1  492   1.340   0.846   0.674
  157SOL    HW2  493   1.320   0.996   0.612
  158SOL     OW  494   0.830   1.273   1.422
  158SOL    HW1  495   0.825   1.306   1.517
  158SOL    HW2  496   0.744   1.292   1.376
  159SOL     OW  497   0.672   1.616   0.154
  159SOL    HW1  498   0.681   1.626   0.055
  159SOL    HW2  499   0.632   1.527   0.175
  160SOL     OW  500   1.841   0.175   0.963
  160SOL    HW1  501   1.880   0.090   0.927
  160SOL    HW2  502   1.743   0.177   0.944
  161SOL     OW  503   0.263   0.326   0.720
  161SOL    HW1  504   0.184   0.377   0.686
  161SOL    HW2  505   0.254   0.311   0.818
  162SOL     OW  506   1.194   1.612   0.031
  162SOL    HW1  507   1.200   1.519   0.068
  162SOL    HW2  508   1.135   1.612  -0.049
  163SOL     OW  509   0.822   1.002   1.372
  163SOL    HW1  510   0.862   1.001   1.280
  163SOL    HW2  511   0.832   1.094   1.412
  164SOL     OW  512   0.916   0.910   0.291
  164SOL    HW1  513   0.979   0.948   0.223
  164SOL    HW2  514   0.956   0.827   0.330
  165SOL     OW  515   1.504   1.607   0.044
  165SOL    HW1  516   1.412   1.644   0.051
  165SOL    HW2  517   1.542   1.627  -0.046
  166SOL     OW  518   0.372   1.288   1.490
  166SOL    HW1  519   0.359   1.381   1.456
  166SOL    HW2  520   0.288   1.236   1.477
  167SOL     OW  521   1.039   1.098   0.696
  167SOL    HW1  522   0.969   1.051   0.750
  167SOL    HW2  523   1.098   1.030   0.653
  168SOL     OW  524   1.014   0.236   0.971
  168SOL    HW1  525   1.006   0.200   0.878
  168SOL    HW2  526   1.012   0.160   1.036
  169SOL     OW  527   0.590   1.487   0.491
  169SOL    HW1  528   0.632   1.429   0.421
  169SOL    HW2  529   0.546   1.566   0.447
  170SOL     OW  530   1.709   0.385   1.381
  170SOL    HW1  531   1.782   0.454   1.385
  170SOL    HW2  532   1.737   0.310   1.322
  171SOL     OW  533   0.255   1.348   0.290
  171SOL    HW1  534   0.159   1.349   0.263
  171SOL    HW2  535   0.267   1.401   0.374
  172SOL     OW  536   0.105   1.013   1.726
  172SOL    HW1  537   0.028   0.980   1.780
  172SOL    HW2  538   0.190   0.983   1.768
  173SOL     OW  539   0.672   0.203   1.489
  173SOL    HW1  540   0.762   0.187   1.449
  173SOL    HW2  541   0.680   0.208   1.588
  174SOL     OW  542   0.075   0.345   0.033
  174SOL    HW1  543  -0.017   0.317   0.004
  174SOL    HW2  544   0.106   0.422  -0.023
  175SOL     OW  545   1.440   0.856   1.398
  175SOL    HW1  546   1.383   0.908   1.335
  175SOL    HW2  547   1.536   0.868   1.374
  176SOL     OW  548   0.072   0.166   0.318
  176SOL    HW1  549   0.055   0.249   0.264
  176SOL    HW2  550   0.162   0.129   0.296
  177SOL     OW  551   1.183   1.335   0.119
  177SOL    HW1  552   1.084   1.324   0.121
  177SOL    HW2  553   1.217   1.350   0.212
  178SOL     OW  554   0.613   0.842   1.431
  178SOL    HW1  555   0.669   0.923   1.414
  178SOL    HW2  556   0.672   0.762   1.434
  179SOL     OW  557   1.493   1.767   0.959
  179SOL    HW1  558   1.526   1.831   0.890
  179SOL    HW2  559   1.559   1.761   1.034
  180SOL     OW  560   0.716   0.565   1.708
  180SOL    HW1  561   0.735   0.630   1.782
  180SOL    HW2  562   0.776   0.485   1.717
  181SOL     OW  563   1.450   1.220   1.633
  181SOL    HW1  564   1.441   1.210   1.732
  181SOL    HW2  565   1.546   1.213   1.607
  182SOL     OW  566   0.390   1.741   1.560
  182SOL    HW1  567   0.299   1.782   1.558
  182SOL    HW2  568   0.383   1.647   1.592
  183SOL     OW  569   1.674   0.883   1.254
  183SOL    HW1  570   1.647   0.794   1.217
  183SOL    HW2  571   1.675   0.951   1.181
  184SOL     OW  572   1.225   0.325   0.449
  184SOL    HW1  573   1.290   0.251   0.438
  184SOL    HW2  574   1.245   0.375   0.533
  185SOL     OW  575   0.594   0.745   0.652
  185SOL    HW1  576   0.644   0.830   0.633
  185SOL    HW2  577   0.506   0.747   0.604
  186SOL     OW  578   1.777   0.342   1.642
  186SOL    HW1  579   1.760   0.373   1.548
  186SOL    HW2  580   1.693   0.305   1.680
  187SOL     OW  581   1.730   0.934   1.517
  187SOL    HW1  582   1.768   1.025   1.532
  187SOL    HW2  583   1.722   0.917   1.418
  188SOL     OW  584   0.859   1.374   0.016
  188SOL    HW1  585   0.813   1.389   0.104
  188SOL    HW2  586   0.903   1.459  -0.014
  189SOL     OW  587   0.661   1.790   0.953
  189SOL    HW1  588   0.615   1.878   0.940
  189SOL    HW2  589   0.760   1.802   0.946
  190SOL     OW  590   0.859   0.956   0.861
  190SOL    HW1  591   0.913   0.887   0.909
  190SOL    HW2  592   0.827   1.025   0.927
  191SOL     OW  593   1.083   0.984   0.087
  191SOL    HW1  594   1.060   1.037   0.005
  191SOL    HW2  595   1.164   0.928   0.068
  192SOL     OW  596   1.861   1.569   0.851
  192SOL    HW1  597   1.790   1.557   0.781
  192SOL    HW2  598   1.862   1.490   0.911
  193SOL     OW  599   0.221   1.314   1.844
  193SOL    HW1  600   0.156   1.241   1.823
  193SOL    HW2  601   0.225   1.328   1.942
  194SOL     OW  602   0.079   1.240   0.653
  194SOL    HW1  603   0.078   1.193   0.741
  194SOL    HW2  604   0.161   1.212   0.602
  195SOL     OW  605   0.672   1.391   1.624
  195SOL    HW1  606   0.594   1.341   1.662
  195SOL    HW2  607   0.669   1.486   1.655
  196SOL     OW  608   1.824   0.192   1.227
  196SOL    HW1  609   1.820   0.102   1.271
  196SOL    HW2  610   1.827   0.181   1.128
  197SOL     OW  611   0.428   0.424   0.520
  197SOL    HW1  612   0.458   0.352   0.458
  197SOL    HW2  613   0.389   0.384   0.603
  198SOL     OW  614   1.705   1.487   1.104
  198SOL    HW1  615   1.612   1.462   1.077
  198SOL    HW2  616   1.731   1.437   1.186
  199SOL     OW  617   0.317   0.547   1.280
  199SOL    HW1  618   0.355   0.488   1.352
  199SOL    HW2  619   0.357   0.521   1.192
  200SOL     OW  620   0.812   1.586   0.687
  200SOL    HW1  621   0.844   1.596   0.593
  200SOL    HW2  622   0.733   1.524   0.689
  201SOL     OW  623   1.424   0.214   1.112
  201SOL    HW1  624   1.476   0.149   1.167
  201SOL    HW2  625   1.375   0.277   1.173
  202SOL     OW  626   1.001   0.034   1.154
  202SOL    HW1  627   0.938  -0.038   1.123
  202SOL    HW2  628   1.094  -0.002   1.154
  203SOL     OW  629   0.770   1.330   0.301
  203SOL    HW1  630   0.724   1.243   0.318
  203SOL    HW2  631   0.861   1.327   0.342
  204SOL     OW  632   0.618   1.567   1.284
  204SOL    HW1  633   0.613   1.649   1.341
  204SOL    HW2  634   0.707   1.564   1.239
  205SOL     OW  635   1.352   0.052   0.168
  205SOL    HW1  636   1.387   0.011   0.084
  205SOL    HW2  637   1.262   0.014   0.188
  206SOL     OW  638   1.300   0.453   0.691
  206SOL    HW1  639   1.241   0.533   0.695
  206SOL    HW2  640   1.315   0.418   0.784
  207SOL     OW  641   1.593   0.221   0.882
  207SOL    HW1  642   1.509   0.220   0.936
  207SOL    HW2  643   1.595   0.304   0.826
  208SOL     OW  644   0.039   1.077   0.300
  208SOL    HW1  645   0.138   1.066   0.291
  208SOL    HW2  646  -0.001   0.991   0.332
  209SOL     OW  647   0.875   1.646   0.337
  209SOL    HW1  648   0.798   1.611   0.283
  209SOL    HW2  649   0.843   1.717   0.399
  210SOL     OW  650   0.230   0.628   1.975
  210SOL    HW1  651   0.137   0.626   2.012
  210SOL    HW2  652   0.231   0.589   1.883
  211SOL     OW  653   0.225   0.275   2.858
  211SOL    HW1  654   0.260   0.258   2.950
  211SOL    HW2  655   0.137   0.230   2.846
  212SOL     OW  656   0.019   0.368   2.509
  212SOL    HW1  657  -0.063   0.411   2.548
  212SOL    HW2  658  -0.009   0.295   2.446
  213SOL     OW  659   0.569   1.275   3.027
  213SOL    HW1  660   0.476   1.268   2.990
  213SOL    HW2  661   0.580   1.364   3.071
  214SOL     OW  662   1.555   1.511   2.565
  214SOL    HW1  663   1.498   1.495   2.646
  214SOL    HW2  664   1.496   1.521   2.485
  215SOL     OW  665   1.135   0.703   2.579
  215SOL    HW1  666   1.192   0.781   2.554
  215SOL    HW2  667   1.075   0.729   2.655
  216SOL     OW  668   1.755   0.607   2.093
  216SOL    HW1  669   1.743   0.594   1.994
  216SOL    HW2  670   1.725   0.526   2.142
  217SOL     OW  671   0.768   1.144   2.885
  217SOL    HW1  672   0.690   1.161   2.945
  217SOL    HW2  673   0.802   1.231   2.849
  218SOL     OW  674   0.685   1.012   2.527
  218SOL    HW1  675   0.754   0.996   2.597
  218SOL    HW2  676   0.612   1.069   2.565
  219SOL     OW  677   0.335   1.435   2.923
  219SOL    HW1  678   0.257   1.404   2.870
  219SOL    HW2  679   0.393   1.493   2.866
  220SOL     OW  680   1.603   0.447   2.599
  220SOL    HW1  681   1.529   0.493   2.549
  220SOL    HW2  682   1.654   0.515   2.652
  221SOL     OW  683   0.231   1.713   2.345
  221SOL    HW1  684   0.265   1.790   2.399
  221SOL    HW2  685   0.275   1.713   2.255
  222SOL     OW  686   0.230   1.434   2.400
  222SOL    HW1  687   0.204   1.530   2.400
  222SOL    HW2  688   0.159   1.380   2.445
  223SOL     OW  689   0.240   1.091   2.748
  223SOL    HW1  690   0.254   1.007   2.800
  223SOL    HW2  691   0.185   1.155   2.803
  224SOL     OW  692   0.606   0.964   1.985
  224SOL    HW1  693   0.613   1.048   1.931
  224SOL    HW2  694   0.652   0.977   2.073
  225SOL     OW  695   0.122   0.643   2.425
  225SOL    HW1  696   0.077   0.555   2.442
  225SOL    HW2  697   0.121   0.697   2.509
  226SOL     OW  698   1.842   1.767   2.221
  226SOL    HW1  699   1.896   1.738   2.301
  226SOL    HW2  700   1.872   1.857   2.192
  227SOL     OW  701   0.027   1.596   1.979
  227SOL    HW1  702   0.008   1.500   2.000
  227SOL    HW2  703  -0.006   1.654   2.054
  228SOL     OW  704   1.689   0.922   2.474
  228SOL    HW1  705   1.784   0.893   2.482
  228SOL    HW2  706   1.681   0.987   2.399
  229SOL     OW  707   1.641   1.108   2.294
  229SOL    HW1  708   1.727   1.110   2.242
  229SOL    HW2  709   1.655   1.155   2.382
  230SOL     OW  710   0.613   1.365   2.588
  230SOL    HW1  711   0.564   1.278   2.597
  230SOL    HW2  712   0.590   1.408   2.501
  231SOL     OW  713   0.809   0.004   2.364
  231SOL    HW1  714   0.849   0.095   2.355
  231SOL    HW2  715   0.709   0.012   2.370
  232SOL     OW  716   0.197   0.976   3.126
  232SOL    HW1  717   0.286   0.931   3.112
  232SOL    HW2  718   0.124   0.911   3.107
  233SOL     OW  719   1.525   0.999   2.052
  233SOL    HW1  720   1.462   0.923   2.065
  233SOL    HW2  721   1.573   1.017   2.138
  234SOL     OW  722   1.466   1.417   2.815
  234SOL    HW1  723   1.407   1.423   2.895
  234SOL    HW2  724   1.451   1.329   2.769
  235SOL     OW  725   1.667   1.714   2.434
  235SOL    HW1  726   1.626   1.691   2.346
  235SOL    HW2  727   1.649   1.640   2.499
  236SOL     OW  728   0.598   0.729   2.132
  236SOL    HW1  729   0.622   0.798   2.064
  236SOL    HW2  730   0.520   0.762   2.186
  237SOL     OW  731   1.281   0.345   2.806
  237SOL    HW1  732   1.195   0.295   2.793
  237SOL    HW2  733   1.343   0.291   2.862
  238SOL     OW  734   1.576   1.662   2.169
  238SOL    HW1  735   1.665   1.708   2.172
  238SOL    HW2  736   1.555   1.638   2.074
  239SOL     OW  737   1.041   0.701   2.291
  239SOL    HW1  738   1.067   0.697   2.387
  239SOL    HW2  739   0.956   0.650   2.277
  240SOL     OW  740   0.076   0.811   2.651
  240SOL    HW1  741   0.175   0.799   2.660
  240SOL    HW2  742   0.052   0.906   2.672
  241SOL     OW  743   0.865   0.348   2.057
  241SOL    HW1  744   0.924   0.411   2.008
  241SOL    HW2  745   0.884   0.254   2.028
  242SOL     OW  746   1.362   1.144   2.407
  242SOL    HW1  747   1.445   1.115   2.359
  242SOL    HW2  748   1.313   1.211   2.351
  243SOL     OW  749   0.550   0.196   2.747
  243SOL    HW1  750   0.545   0.191   2.847
  243SOL    HW2  751   0.552   0.292   2.718
  244SOL     OW  752   1.008   1.456   2.339
  244SOL    HW1  753   0.962   1.528   2.287
  244SOL    HW2  754   1.004   1.476   2.437
  245SOL     OW  755   0.351   1.801   2.715
  245SOL    HW1  756   0.401   1.715   2.721
  245SOL    HW2  757   0.416   1.878   2.712
  246SOL     OW  758   1.795   1.066   2.735
  246SOL    HW1  759   1.733   1.051   2.659
  246SOL    HW2  760   1.743   1.077   2.820
  247SOL     OW  761   0.321   0.943   2.104
  247SOL    HW1  762   0.403   0.982   2.062
  247SOL    HW2  763   0.294   0.861   2.055
  248SOL     OW  764   1.458   0.735   2.590
  248SOL    HW1  765   1.453   0.670   2.665
  248SOL    HW2  766   1.538   0.794   2.603
  249SOL     OW  767   1.111   1.776   2.099
  249SOL    HW1  768   1.051   1.714   2.149
  249SOL    HW2  769   1.142   1.732   2.014
  250SOL     OW  770   1.632   1.377   1.943
  250SOL    HW1  771   1.600   1.471   1.933
  250SOL    HW2  772   1.556   1.314   1.931
  251SOL     OW  773   0.464   1.743   2.185
  251SOL    HW1  774   0.497   1.782   2.271
  251SOL    HW2  775   0.540   1.736   2.120
  252SOL     OW  776   1.400   0.107   2.288
  252SOL    HW1  777   1.376   0.070   2.198
  252SOL    HW2  778   1.499   0.123   2.292
  253SOL     OW  779   0.249   1.785   3.103
  253SOL    HW1  780   0.306   1.720   3.153
  253SOL    HW2  781   0.233   1.752   3.010
  254SOL     OW  782   0.940   1.698   2.766
  254SOL    HW1  783   1.020   1.641   2.787
  254SOL    HW2  784   0.891   1.658   2.689
  255SOL     OW  785   0.382   0.700   2.342
  255SOL    HW1  786   0.427   0.610   2.339
  255SOL    HW2  787   0.288   0.689   2.375
  256SOL     OW  788   0.614   0.122   1.979
  256SOL    HW1  789   0.712   0.100   1.986
  256SOL    HW2  790   0.583   0.105   1.886
  257SOL     OW  791   0.803   1.402   2.786
  257SOL    HW1  792   0.893   1.416   2.744
  257SOL    HW2  793   0.732   1.404   2.715
  258SOL     OW  794   0.922   0.503   2.761
  258SOL    HW1  795   0.897   0.494   2.665
  258SOL    HW2  796   0.970   0.421   2.792
  259SOL     OW  797   0.539   0.064   2.374
  259SOL    HW1  798   0.458   0.065   2.432
  259SOL    HW2  799   0.542   0.147   2.319
  260SOL     OW  800   1.434   1.188   1.903
  260SOL    HW1  801   1.466   1.112   1.960
  260SOL    HW2  802   1.342   1.215   1.933
  261SOL     OW  803   0.297   0.035   2.033
  261SOL    HW1  804   0.346   0.119   2.012
  261SOL    HW2  805   0.359  -0.030   2.078
  262SOL     OW  806   0.935   0.236   2.342
  262SOL    HW1  807   0.887   0.277   2.264
  262SOL    HW2  808   1.034   0.234   2.323
  263SOL     OW  809   1.227   1.570   2.655
  263SOL    HW1  810   1.248   1.644   2.590
  263SOL    HW2  811   1.295   1.570   2.728
  264SOL     OW  812   0.459   1.152   2.603
  264SOL    HW1  813   0.388   1.125   2.668
  264SOL    HW2  814   0.433   1.124   2.510
  265SOL     OW  815   1.271   1.797   2.453
  265SOL    HW1  816   1.315   1.861   2.389
  265SOL    HW2  817   1.221   1.849   2.523
  266SOL     OW  818   1.032   0.549   1.878
  266SOL    HW1  819   0.991   0.631   1.839
  266SOL    HW2  820   1.096   0.575   1.951
  267SOL     OW  821   0.866   0.454   2.504
  267SOL    HW1  822   0.834   0.526   2.442
  267SOL    HW2  823   0.890   0.373   2.451
  268SOL     OW  824   1.017   0.039   2.615
  268SOL    HW1  825   0.945   0.044   2.546
  268SOL    HW2  826   0.993  -0.030   2.684
  269SOL     OW  827   1.429   1.173   2.729
  269SOL    HW1  828   1.374   1.089   2.722
  269SOL    HW2  829   1.455   1.202   2.637
  270SOL     OW  830   1.466   0.590   2.854
  270SOL    HW1  831   1.436   0.495   2.861
  270SOL    HW2  832   1.539   0.606   2.920
  271SOL     OW  833   1.857   0.833   2.239
  271SOL    HW1  834   1.899   0.769   2.303
  271SOL    HW2  835   1.819   0.782   2.161
  272SOL     OW  836   0.488   1.385   2.036
  272SOL    HW1  837   0.401   1.370   2.083
  272SOL    HW2  838   0.471   1.411   1.941
  273SOL     OW  839   1.664   1.280   2.519
  273SOL    HW1  840   1.763   1.288   2.533
  273SOL    HW2  841   1.619   1.364   2.550
  274SOL     OW  842   1.390   0.575   1.940
  274SOL    HW1  843   1.336   0.554   2.021
  274SOL    HW2  844   1.481   0.534   1.949
  275SOL     OW  845   0.527   0.256   2.190
  275SOL    HW1  846   0.554   0.197   2.115
  275SOL    HW2  847   0.527   0.351   2.159
  276SOL     OW  848   1.111   1.195   2.962
  276SOL    HW1  849   1.071   1.239   3.043
  276SOL    HW2  850   1.070   1.232   2.879
  277SOL     OW  851   1.638   1.099   2.941
  277SOL    HW1  852   1.643   1.180   3.000
  277SOL    HW2  853   1.552   1.101   2.890
  278SOL     OW  854   0.705   1.050   2.230
  278SOL    HW1  855   0.691   1.057   2.329
  278SOL    HW2  856   0.789   0.999   2.212
  279SOL     OW  857   0.410   0.813   3.113
  279SOL    HW1  858   0.496   0.825   3.163
  279SOL    HW2  859   0.368   0.726   3.140
  280SOL     OW  860   0.367   1.100   2.363
  280SOL    HW1  861   0.360   1.183   2.307
  280SOL    HW2  862   0.371   1.020   2.303
  281SOL     OW  863   0.566   0.537   2.727
  281SOL    HW1  864   0.578   0.603   2.653
  281SOL    HW2  865   0.612   0.571   2.810
  282SOL     OW  866   1.252   1.348   2.250
  282SOL    HW1  867   1.302   1.425   2.290
  282SOL    HW2  868   1.157   1.350   2.282
  283SOL     OW  869   1.272   1.445   3.004
  283SOL    HW1  870   1.319   1.458   3.091
  283SOL    HW2  871   1.206   1.371   3.013
  284SOL     OW  872   1.582   0.639   2.334
  284SOL    HW1  873   1.551   0.700   2.407
  284SOL    HW2  874   1.632   0.691   2.265
  285SOL     OW  875   0.573   0.870   2.891
  285SOL    HW1  876   0.617   0.959   2.882
  285SOL    HW2  877   0.510   0.870   2.968
  286SOL     OW  878   1.209   0.525   2.137
  286SOL    HW1  879   1.222   0.441   2.191
  286SOL    HW2  880   1.180   0.599   2.197
  287SOL     OW  881   0.307   0.213   3.093
  287SOL    HW1  882   0.284   0.250   3.183
  287SOL    HW2  883   0.277   0.118   3.087
  288SOL     OW  884   0.732   0.634   2.926
  288SOL    HW1  885   0.791   0.608   2.850
  288SOL    HW2  886   0.704   0.730   2.915
  289SOL     OW  887   0.307   0.063   2.480
  289SOL    HW1  888   0.296   0.157   2.513
  289SOL    HW2  889   0.302   0.000   2.557
  290SOL     OW  890   1.622   0.367   2.236
  290SOL    HW1  891   1.624   0.291   2.300
  290SOL    HW2  892   1.574   0.444   2.276
  291SOL     OW  893   1.023   0.766   2.828
  291SOL    HW1  894   1.038   0.787   2.924
  291SOL    HW2  895   0.993   0.671   2.819
  292SOL     OW  896   1.540   0.274   1.987
  292SOL    HW1  897   1.479   0.199   2.010
  292SOL    HW2  898   1.562   0.326   2.070
  293SOL     OW  899   1.303   0.838   1.904
  293SOL    HW1  900   1.337   0.745   1.919
  293SOL    HW2  901   1.321   0.865   1.809
  294SOL     OW  902   1.068   1.333   2.711
  294SOL    HW1  903   1.075   1.249   2.656
  294SOL    HW2  904   1.130   1.402   2.675
  295SOL     OW  905   0.319   0.810   2.811
  295SOL    HW1  906   0.412   0.846   2.816
  295SOL    HW2  907   0.313   0.725   2.863
  296SOL     OW  908   0.339   0.509   2.868
  296SOL    HW1  909   0.287   0.426   2.851
  296SOL    HW2  910   0.416   0.514   2.804
  297SOL     OW  911   0.008   1.326   2.062
  297SOL    HW1  912  -0.085   1.347   2.031
  297SOL    HW2  913   0.018   1.227   2.075
  298SOL     OW  914   0.088   1.801   2.789
  298SOL    HW1  915   0.046   1.715   2.762
  298SOL    HW2  916   0.182   1.804   2.755
  299SOL     OW  917   0.504   1.568   2.772
  299SOL    HW1  918   0.570   1.642   2.781
  299SOL    HW2  919   0.548   1.489   2.730
  300SOL     OW  920   1.002   0.796   3.100
  300SOL    HW1  921   1.043   0.764   3.186
  300SOL    HW2  922   0.906   0.769   3.097
  301SOL     OW  923   0.040   0.544   2.976
  301SOL    HW1  924   0.125   0.511   2.935
  301SOL    HW2  925   0.053   0.559   3.074
  302SOL     OW  926   0.815   0.572   2.187
  302SOL    HW1  927   0.822   0.483   2.141
  302SOL    HW2  928   0.721   0.606   2.179
  303SOL     OW  929   1.657   0.604   3.068
  303SOL    HW1  930   1.619   0.535   3.130
  303SOL    HW2  931   1.739   0.568   3.024
  304SOL     OW  932   0.671   0.464   3.131
  304SOL    HW1  933   0.637   0.375   3.101
  304SOL    HW2  934   0.697   0.518   3.051
  305SOL     OW  935   0.473   0.500   2.053
  305SOL    HW1  936   0.534   0.580   2.057
  305SOL    HW2  937   0.378   0.531   2.060
  306SOL     OW  938   1.302   0.855   2.171
  306SOL    HW1  939   1.216   0.824   2.213
  306SOL    HW2  940   1.298   0.841   2.072
  307SOL     OW  941   1.759   1.747   3.016
  307SOL    HW1  942   1.820   1.777   2.943
  307SOL    HW2  943   1.721   1.658   2.994
  308SOL     OW  944   0.083   1.258   2.884
  308SOL    HW1  945   0.078   1.257   2.984
  308SOL    HW2  946   0.000   1.217   2.846
  309SOL     OW  947   1.726   0.135   2.385
  309SOL    HW1  948   1.799   0.118   2.318
  309SOL    HW2  949   1.695   0.048   2.423
  310SOL     OW  950   1.388   1.573   2.339
  310SOL    HW1  951   1.455   1.585   2.265
  310SOL    HW2  952   1.348   1.662   2.362
  311SOL     OW  953   1.280   0.927   2.534
  311SOL    HW1  954   1.340   0.846   2.536
  311SOL    HW2  955   1.320   0.996   2.474
  312SOL     OW  956   0.672   1.616   2.016
  312SOL    HW1  957   0.681   1.626   1.917
  312SOL    HW2  958   0.632   1.527   2.037
  313SOL     OW  959   1.841   0.175   2.825
  313SOL    HW1  960   1.880   0.090   2.789
  313SOL    HW2  961   1.743   0.177   2.806
  314SOL     OW  962   0.263   0.326   2.582
  314SOL    HW1  963   0.184   0.377   2.548
  314SOL    HW2  964   0.254   0.311   2.680
  315SOL     OW  965   1.194   1.612   1.893
  315SOL    HW1  966   1.200   1.519   1.930
  315SOL    HW2  967   1.135   1.612   1.813
  316SOL     OW  968   0.822   1.002   3.234
  316SOL    HW1  969   0.862   1.001   3.142
  316SOL    HW2  970   0.832   1.094   3.274
  317SOL     OW  971   0.916   0.910   2.153
  317SOL    HW1  972   0.979   0.948   2.085
  317SOL    HW2  973   0.956   0.827   2.192
  318SOL     OW  974   1.504   1.607   1.906
  318SOL    HW1  975   1.412   1.644   1.913
  318SOL    HW2  976   1.542   1.627   1.816
  319SOL     OW  977   1.039   1.098   2.558
  319SOL    HW1  978   0.969   1.051   2.612
  319SOL    HW2  979   1.098   1.030   2.515
  320SOL     OW  980   1.014   0.236   2.833
  320SOL    HW1  981   1.006   0.200   2.740
  320SOL    HW2  982   1.012   0.160   2.898
  321SOL     OW  983   0.590   1.487   2.353
  321SOL    HW1  984   0.632   1.429   2.283
  321SOL    HW2  985   0.546   1.566   2.309
  322SOL     OW  986   1.709   0.385   3.243
  322SOL    HW1  987   1.782   0.454   3.247
  322SOL    HW2  988   1.737   0.310   3.184
  323SOL     OW  989   0.255   1.348   2.152
  323SOL    HW1  990   0.159   1.349   2.125
  323SOL    HW2  991   0.267   1.401   2.236
  324SOL     OW  992   0.075   0.345   1.895
  324SOL    HW1  993  -0.017   0.317   1.866
  324SOL    HW2  994   0.106   0.422   1.839
  325SOL     OW  995   0.072   0.166   2.180
  325SOL    HW1  996   0.055   0.249   2.126
  325SOL    HW2  997   0.162   0.129   2.158
  326SOL     OW  998   1.183   1.335   1.981
  326SOL    HW1  999   1.084   1.324   1.983
  326SOL    HW2 1000   1.217   1.350   2.074
  327SOL     OW 1001   1.493   1.767   2.821
  327SOL    HW1 1002   1.526   1.831   2.752
  327SOL    HW2 1003   1.559   1.761   2.896
  328SOL     OW 1004   1.674   0.883   3.116
  328SOL    HW1 1005   1.647   0.794   3.079
  328SOL    HW2 1006   1.675   0.951   3.043
  329SOL     OW 1007   1.225   0.325   2.311
  329SOL    HW1 1008   1.290   0.251   2.300
  329SOL    HW2 1009   1.245   0.375   2.395
  330SOL     OW 1010   0.594   0.745   2.514
  330SOL    HW1 1011   0.644   0.830   2.495
  330SOL    HW2 1012   0.506   0.747   2.466
  331SOL     OW 1013   0.859   1.374   1.878
  331SOL    HW1 1014   0.813   1.389   1.966
  331SOL    HW2 1015   0.903   1.459   1.848
  332SOL     OW 1016   0.661   1.790   2.815
  332SOL    HW1 1017   0.615   1.878   2.802
  332SOL    HW2 1018   0.760   1.802   2.808
  333SOL     OW 1019   0.859   0.956   2.723
  333SOL    HW1 1020   0.913   0.887   2.771
  333SOL    HW2 1021   0.827   1.025   2.789
  334SOL     OW 1022   1.083   0.984   1.949
  334SOL    HW1 1023   1.060   1.037   1.867
  334SOL    HW2 1024   1.164   0.928   1.930
  335SOL     OW 1025   1.861   1.569   2.713
  335SOL    HW1 1026   1.790   1.557   2.643
  335SOL    HW2 1027   1.862   1.490   2.773
  336SOL     OW 1028   0.079   1.240   2.515
  336SOL    HW1 1029   0.078   1.193   2.603
  336SOL    HW2 1030   0.161   1.212   2.464
  337SOL     OW 1031   1.824   0.192   3.089
  337SOL    HW1 1032   1.820   0.102   3.133
  337SOL    HW2 1033   1.827   0.181   2.990
  338SOL     OW 1034   0.428   0.424   2.382
  338SOL    HW1 1035   0.458   0.352   2.320
  338SOL    HW2 1036   0.389   0.384   2.465
  339SOL     OW 1037   0.812   1.586   2.549
  339SOL    HW1 1038   0.844   1.596   2.455
  339SOL    HW2 1039   0.733   1.524   2.551
  340SOL     OW 1040   1.424   0.214   2.974
  340SOL    HW1 1041   1.476   0.149   3.029
  340SOL    HW2 1042   1.375   0.277   3.035
  341SOL     OW 1043   0.770   1.330   2.163
  341SOL    HW1 1044   0.724   1.243   2.180
  341SOL    HW2 1045   0.861   1.327   2.204
  342SOL     OW 1046   1.352   0.052   2.030
  342SOL    HW1 1047   1.387   0.011   1.946
  342SOL    HW2 1048   1.262   0.014   2.050
  343SOL     OW 1049   1.300   0.453   2.553
  343SOL    HW1 1050   1.241   0.533   2.557
  343SOL    HW2 1051   1.315   0.418   2.646
  344SOL     OW 1052   1.593   0.221   2.744
  344SOL    HW1 1053   1.509   0.220   2.798
  344SOL    HW2 1054   1.595   0.304   2.688
  345SOL     OW 1055   0.039   1.077   2.162
  345SOL    HW1 1056   0.138   1.066   2.153
  345SOL    HW2 1057  -0.001   0.991   2.194
  346SOL     OW 1058   0.875   1.646   2.199
  346SOL    HW1 1059   0.798   1.611   2.145
  346SOL    HW2 1060   0.843   1.717   2.261
  347SOL     OW 1061   0.230   2.490   0.113
  347SOL    HW1 1062   0.137   2.488   0.150
  347SOL    HW2 1063   0.231   2.451   0.021
  348SOL     OW 1064   0.225   2.137   0.996
  348SOL    HW1 1065   0.260   2.120   1.088
  348SOL    HW2 1066   0.137   2.092   0.984
  349SOL     OW 1067   0.019   2.230   0.647
  349SOL    HW1 1068  -0.063   2.273   0.686
  349SOL    HW2 1069  -0.009   2.157   0.584
  350SOL     OW 1070   1.135   2.565   0.717
  350SOL    HW1 1071   1.192   2.643   0.692
  350SOL    HW2 1072   1.075   2.591   0.793
  351SOL     OW 1073   1.755   2.469   0.231
  351SOL    HW1 1074   1.743   2.456   0.132
  351SOL    HW2 1075   1.725   2.388   0.280
  352SOL     OW 1076   0.768   3.006   1.023
  352SOL    HW1 1077   0.690   3.023   1.083
  352SOL    HW2 1078   0.802   3.093   0.987
  353SOL     OW 1079   0.850   2.660   1.823
  353SOL    HW1 1080   0.846   2.736   1.888
  353SOL    HW2 1081   0.872   2.696   1.732
  354SOL     OW 1082   0.685   2.874   0.665
  354SOL    HW1 1083   0.754   2.858   0.735
  354SOL    HW2 1084   0.612   2.931   0.703
  355SOL     OW 1085   1.460   3.367   1.339
  355SOL    HW1 1086   1.484   3.461   1.365
  355SOL    HW2 1087   1.444   3.313   1.421
  356SOL     OW 1088   0.438   2.254   1.499
  356SOL    HW1 1089   0.520   2.198   1.508
  356SOL    HW2 1090   0.357   2.196   1.503
  357SOL     OW 1091   1.603   2.309   0.737
  357SOL    HW1 1092   1.529   2.355   0.687
  357SOL    HW2 1093   1.654   2.377   0.790
  358SOL     OW 1094   0.240   2.953   0.886
  358SOL    HW1 1095   0.254   2.869   0.938
  358SOL    HW2 1096   0.185   3.017   0.941
  359SOL     OW 1097   0.606   2.826   0.123
  359SOL    HW1 1098   0.613   2.910   0.069
  359SOL    HW2 1099   0.652   2.839   0.211
  360SOL     OW 1100   1.594   1.976   1.480
  360SOL    HW1 1101   1.576   2.043   1.408
  360SOL    HW2 1102   1.591   2.022   1.569
  361SOL     OW 1103   0.122   2.505   0.563
  361SOL    HW1 1104   0.077   2.417   0.580
  361SOL    HW2 1105   0.121   2.559   0.647
  362SOL     OW 1106   1.689   2.784   0.612
  362SOL    HW1 1107   1.784   2.755   0.620
  362SOL    HW2 1108   1.681   2.849   0.537
  363SOL     OW 1109   0.113   2.599   1.597
  363SOL    HW1 1110   0.201   2.586   1.642
  363SOL    HW2 1111   0.100   2.696   1.575
  364SOL     OW 1112   0.613   3.227   0.726
  364SOL    HW1 1113   0.564   3.140   0.735
  364SOL    HW2 1114   0.590   3.270   0.639
  365SOL     OW 1115   1.293   3.090   1.423
  365SOL    HW1 1116   1.330   3.017   1.365
  365SOL    HW2 1117   1.345   3.095   1.508
  366SOL     OW 1118   0.809   1.866   0.502
  366SOL    HW1 1119   0.849   1.957   0.493
  366SOL    HW2 1120   0.709   1.874   0.508
  367SOL     OW 1121   0.197   2.838   1.264
  367SOL    HW1 1122   0.286   2.793   1.250
  367SOL    HW2 1123   0.124   2.773   1.245
  368SOL     OW 1124   1.525   2.861   0.190
  368SOL    HW1 1125   1.462   2.785   0.203
  368SOL    HW2 1126   1.573   2.879   0.276
  369SOL     OW 1127   0.317   2.113   1.801
  369SOL    HW1 1128   0.388   2.184   1.807
  369SOL    HW2 1129   0.229   2.152   1.829
  370SOL     OW 1130   0.598   2.591   0.270
  370SOL    HW1 1131   0.622   2.660   0.202
  370SOL    HW2 1132   0.520   2.624   0.324
  371SOL     OW 1133   1.281   2.207   0.944
  371SOL    HW1 1134   1.195   2.157   0.931
  371SOL    HW2 1135   1.343   2.153   1.000
  372SOL     OW 1136   0.807   2.467   1.465
  372SOL    HW1 1137   0.760   2.464   1.554
  372SOL    HW2 1138   0.756   2.412   1.399
  373SOL     OW 1139   1.394   2.331   1.674
  373SOL    HW1 1140   1.374   2.374   1.762
  373SOL    HW2 1141   1.472   2.269   1.683
  374SOL     OW 1142   0.973   2.752   1.572
  374SOL    HW1 1143   1.019   2.668   1.543
  374SOL    HW2 1144   0.917   2.786   1.497
  375SOL     OW 1145   0.991   2.272   1.242
  375SOL    HW1 1146   0.914   2.306   1.296
  375SOL    HW2 1147   0.957   2.221   1.163
  376SOL     OW 1148   1.041   2.563   0.429
  376SOL    HW1 1149   1.067   2.559   0.525
  376SOL    HW2 1150   0.956   2.512   0.415
  377SOL     OW 1151   0.076   2.673   0.789
  377SOL    HW1 1152   0.175   2.661   0.798
  377SOL    HW2 1153   0.052   2.768   0.810
  378SOL     OW 1154   0.865   2.210   0.195
  378SOL    HW1 1155   0.924   2.273   0.146
  378SOL    HW2 1156   0.884   2.116   0.166
  379SOL     OW 1157   1.719   2.447   1.831
  379SOL    HW1 1158   1.693   2.536   1.795
  379SOL    HW2 1159   1.717   2.379   1.758
  380SOL     OW 1160   0.550   2.058   0.885
  380SOL    HW1 1161   0.545   2.053   0.985
  380SOL    HW2 1162   0.552   2.154   0.856
  381SOL     OW 1163   1.795   2.928   0.873
  381SOL    HW1 1164   1.733   2.913   0.797
  381SOL    HW2 1165   1.743   2.939   0.958
  382SOL     OW 1166   0.321   2.805   0.242
  382SOL    HW1 1167   0.403   2.844   0.200
  382SOL    HW2 1168   0.294   2.723   0.193
  383SOL     OW 1169   1.458   2.597   0.728
  383SOL    HW1 1170   1.453   2.532   0.803
  383SOL    HW2 1171   1.538   2.656   0.741
  384SOL     OW 1172   0.202   2.147   1.498
  384SOL    HW1 1173   0.122   2.207   1.485
  384SOL    HW2 1174   0.192   2.098   1.584
  385SOL     OW 1175   1.400   1.969   0.426
  385SOL    HW1 1176   1.376   1.932   0.336
  385SOL    HW2 1177   1.499   1.985   0.430
  386SOL     OW 1178   0.382   2.562   0.480
  386SOL    HW1 1179   0.427   2.472   0.477
  386SOL    HW2 1180   0.288   2.551   0.513
  387SOL     OW 1181   0.614   1.984   0.117
  387SOL    HW1 1182   0.712   1.962   0.124
  387SOL    HW2 1183   0.583   1.967   0.024
  388SOL     OW 1184   0.781   2.126   1.749
  388SOL    HW1 1185   0.848   2.065   1.792
  388SOL    HW2 1186   0.708   2.145   1.814
  389SOL     OW 1187   1.351   2.452   1.433
  389SOL    HW1 1188   1.379   2.409   1.518
  389SOL    HW2 1189   1.376   2.548   1.434
  390SOL     OW 1190   0.922   2.365   0.899
  390SOL    HW1 1191   0.897   2.356   0.803
  390SOL    HW2 1192   0.970   2.283   0.930
  391SOL     OW 1193   0.539   1.926   0.512
  391SOL    HW1 1194   0.458   1.927   0.570
  391SOL    HW2 1195   0.542   2.009   0.457
  392SOL     OW 1196   0.297   1.897   0.171
  392SOL    HW1 1197   0.346   1.981   0.150
  392SOL    HW2 1198   0.359   1.832   0.216
  393SOL     OW 1199   0.935   2.098   0.480
  393SOL    HW1 1200   0.887   2.139   0.402
  393SOL    HW2 1201   1.034   2.096   0.461
  394SOL     OW 1202   1.076   2.545   1.464
  394SOL    HW1 1203   0.996   2.484   1.467
  394SOL    HW2 1204   1.157   2.492   1.440
  395SOL     OW 1205   0.459   3.014   0.741
  395SOL    HW1 1206   0.388   2.987   0.806
  395SOL    HW2 1207   0.433   2.986   0.648
  396SOL     OW 1208   1.032   2.411   0.016
  396SOL    HW1 1209   0.991   2.493  -0.023
  396SOL    HW2 1210   1.096   2.437   0.089
  397SOL     OW 1211   0.078   2.418   1.386
  397SOL    HW1 1212   0.170   2.417   1.345
  397SOL    HW2 1213   0.072   2.492   1.453
  398SOL     OW 1214   0.561   2.084   1.147
  398SOL    HW1 1215   0.599   2.000   1.184
  398SOL    HW2 1216   0.473   2.103   1.191
  399SOL     OW 1217   0.866   2.316   0.642
  399SOL    HW1 1218   0.834   2.388   0.580
  399SOL    HW2 1219   0.890   2.235   0.589
  400SOL     OW 1220   1.017   1.901   0.753
  400SOL    HW1 1221   0.945   1.906   0.684
  400SOL    HW2 1222   0.993   1.832   0.822
  401SOL     OW 1223   1.429   3.035   0.867
  401SOL    HW1 1224   1.374   2.951   0.860
  401SOL    HW2 1225   1.455   3.064   0.775
  402SOL     OW 1226   1.466   2.452   0.992
  402SOL    HW1 1227   1.436   2.357   0.999
  402SOL    HW2 1228   1.539   2.468   1.058
  403SOL     OW 1229   1.857   2.695   0.377
  403SOL    HW1 1230   1.899   2.631   0.441
  403SOL    HW2 1231   1.819   2.644   0.299
  404SOL     OW 1232   1.390   2.437   0.078
  404SOL    HW1 1233   1.336   2.416   0.159
  404SOL    HW2 1234   1.481   2.396   0.087
  405SOL     OW 1235   0.527   2.118   0.328
  405SOL    HW1 1236   0.554   2.059   0.253
  405SOL    HW2 1237   0.527   2.213   0.297
  406SOL     OW 1238   1.754   3.085   1.588
  406SOL    HW1 1239   1.845   3.046   1.575
  406SOL    HW2 1240   1.762   3.181   1.612
  407SOL     OW 1241   1.638   2.961   1.079
  407SOL    HW1 1242   1.643   3.042   1.138
  407SOL    HW2 1243   1.552   2.963   1.028
  408SOL     OW 1244   0.915   1.951   1.402
  408SOL    HW1 1245   0.940   1.931   1.307
  408SOL    HW2 1246   0.987   2.007   1.444
  409SOL     OW 1247   0.705   2.912   0.368
  409SOL    HW1 1248   0.691   2.919   0.467
  409SOL    HW2 1249   0.789   2.861   0.350
  410SOL     OW 1250   0.410   2.675   1.251
  410SOL    HW1 1251   0.496   2.687   1.301
  410SOL    HW2 1252   0.368   2.588   1.278
  411SOL     OW 1253   1.274   2.248   1.262
  411SOL    HW1 1254   1.295   2.322   1.326
  411SOL    HW2 1255   1.185   2.265   1.219
  412SOL     OW 1256   0.367   2.962   0.501
  412SOL    HW1 1257   0.360   3.045   0.445
  412SOL    HW2 1258   0.371   2.882   0.441
  413SOL     OW 1259   0.566   2.399   0.865
  413SOL    HW1 1260   0.578   2.465   0.791
  413SOL    HW2 1261   0.612   2.433   0.948
  414SOL     OW 1262   1.582   2.501   0.472
  414SOL    HW1 1263   1.551   2.562   0.545
  414SOL    HW2 1264   1.632   2.553   0.403
  415SOL     OW 1265   0.402   2.613   1.598
  415SOL    HW1 1266   0.470   2.668   1.551
  415SOL    HW2 1267   0.442   2.525   1.625
  416SOL     OW 1268   1.587   2.641   1.670
  416SOL    HW1 1269   1.495   2.679   1.665
  416SOL    HW2 1270   1.647   2.688   1.605
  417SOL     OW 1271   1.013   1.967   1.770
  417SOL    HW1 1272   1.019   2.052   1.718
  417SOL    HW2 1273   1.045   1.891   1.713
  418SOL     OW 1274   0.504   1.912   1.740
  418SOL    HW1 1275   0.462   1.855   1.670
  418SOL    HW2 1276   0.438   1.981   1.772
  419SOL     OW 1277   0.573   2.732   1.029
  419SOL    HW1 1278   0.617   2.821   1.020
  419SOL    HW2 1279   0.510   2.732   1.106
  420SOL     OW 1280   1.360   2.724   1.045
  420SOL    HW1 1281   1.285   2.724   0.979
  420SOL    HW2 1282   1.397   2.632   1.054
  421SOL     OW 1283   1.209   2.387   0.275
  421SOL    HW1 1284   1.222   2.303   0.329
  421SOL    HW2 1285   1.180   2.461   0.335
  422SOL     OW 1286   0.307   2.075   1.231
  422SOL    HW1 1287   0.284   2.112   1.321
  422SOL    HW2 1288   0.277   1.980   1.225
  423SOL     OW 1289   0.037   3.172   1.282
  423SOL    HW1 1290   0.090   3.123   1.350
  423SOL    HW2 1291   0.059   3.270   1.287
  424SOL     OW 1292   0.732   2.496   1.064
  424SOL    HW1 1293   0.791   2.470   0.988
  424SOL    HW2 1294   0.704   2.592   1.053
  425SOL     OW 1295   1.728   2.797   1.854
  425SOL    HW1 1296   1.682   2.790   1.765
  425SOL    HW2 1297   1.666   2.841   1.920
  426SOL     OW 1298   0.307   1.925   0.618
  426SOL    HW1 1299   0.296   2.019   0.651
  426SOL    HW2 1300   0.302   1.862   0.695
  427SOL     OW 1301   1.622   2.229   0.374
  427SOL    HW1 1302   1.624   2.153   0.438
  427SOL    HW2 1303   1.574   2.306   0.414
  428SOL     OW 1304   1.023   2.628   0.966
  428SOL    HW1 1305   1.038   2.649   1.062
  428SOL    HW2 1306   0.993   2.533   0.957
  429SOL     OW 1307   0.350   2.760   1.804
  429SOL    HW1 1308   0.426   2.804   1.852
  429SOL    HW2 1309   0.385   2.713   1.722
  430SOL     OW 1310   1.540   2.136   0.125
  430SOL    HW1 1311   1.479   2.061   0.148
  430SOL    HW2 1312   1.562   2.188   0.208
  431SOL     OW 1313   1.303   2.700   0.042
  431SOL    HW1 1314   1.337   2.607   0.057
  431SOL    HW2 1315   1.321   2.727  -0.053
  432SOL     OW 1316   0.319   2.672   0.949
  432SOL    HW1 1317   0.412   2.708   0.954
  432SOL    HW2 1318   0.313   2.587   1.001
  433SOL     OW 1319   0.339   2.371   1.006
  433SOL    HW1 1320   0.287   2.288   0.989
  433SOL    HW2 1321   0.416   2.376   0.942
  434SOL     OW 1322   1.138   2.242   1.678
  434SOL    HW1 1323   1.093   2.305   1.742
  434SOL    HW2 1324   1.231   2.273   1.661
  435SOL     OW 1325   1.160   2.069   1.477
  435SOL    HW1 1326   1.160   2.133   1.554
  435SOL    HW2 1327   1.188   2.117   1.394
  436SOL     OW 1328   1.002   2.658   1.238
  436SOL    HW1 1329   1.043   2.626   1.324
  436SOL    HW2 1330   0.906   2.631   1.235
  437SOL     OW 1331   0.040   2.406   1.114
  437SOL    HW1 1332   0.125   2.373   1.073
  437SOL    HW2 1333   0.053   2.421   1.212
  438SOL     OW 1334   0.189   2.382   1.722
  438SOL    HW1 1335   0.248   2.342   1.652
  438SOL    HW2 1336   0.131   2.453   1.681
  439SOL     OW 1337   1.369   2.812   1.660
  439SOL    HW1 1338   1.408   2.901   1.680
  439SOL    HW2 1339   1.379   2.792   1.563
  440SOL     OW 1340   0.815   2.434   0.325
  440SOL    HW1 1341   0.822   2.345   0.279
  440SOL    HW2 1342   0.721   2.468   0.317
  441SOL     OW 1343   1.657   2.466   1.206
  441SOL    HW1 1344   1.619   2.397   1.268
  441SOL    HW2 1345   1.739   2.430   1.162
  442SOL     OW 1346   0.671   2.326   1.269
  442SOL    HW1 1347   0.637   2.237   1.239
  442SOL    HW2 1348   0.697   2.380   1.189
  443SOL     OW 1349   0.473   2.362   0.191
  443SOL    HW1 1350   0.534   2.442   0.195
  443SOL    HW2 1351   0.378   2.393   0.198
  444SOL     OW 1352   0.159   2.999   1.466
  444SOL    HW1 1353   0.181   2.938   1.542
  444SOL    HW2 1354   0.169   2.950   1.380
  445SOL     OW 1355   1.347   2.921   1.234
  445SOL    HW1 1356   1.371   2.858   1.160
  445SOL    HW2 1357   1.257   2.961   1.216
  446SOL     OW 1358   1.302   2.717   0.309
  446SOL    HW1 1359   1.216   2.686   0.351
  446SOL    HW2 1360   1.298   2.703   0.210
  447SOL     OW 1361   0.083   3.120   1.022
  447SOL    HW1 1362   0.078   3.119   1.122
  447SOL    HW2 1363   0.000   3.079   0.984
  448SOL     OW 1364   0.903   1.948   0.133
  448SOL    HW1 1365   0.954   1.949   0.047
  448SOL    HW2 1366   0.959   1.906   0.204
  449SOL     OW 1367   1.726   1.997   0.523
  449SOL    HW1 1368   1.799   1.980   0.456
  449SOL    HW2 1369   1.695   1.910   0.561
  450SOL     OW 1370   1.280   2.789   0.672
  450SOL    HW1 1371   1.340   2.708   0.674
  450SOL    HW2 1372   1.320   2.858   0.612
  451SOL     OW 1373   1.841   2.037   0.963
  451SOL    HW1 1374   1.880   1.952   0.927
  451SOL    HW2 1375   1.743   2.039   0.944
  452SOL     OW 1376   0.263   2.188   0.720
  452SOL    HW1 1377   0.184   2.239   0.686
  452SOL    HW2 1378   0.254   2.173   0.818
  453SOL     OW 1379   0.822   2.864   1.372
  453SOL    HW1 1380   0.862   2.863   1.280
  453SOL    HW2 1381   0.832   2.956   1.412
  454SOL     OW 1382   0.916   2.772   0.291
  454SOL    HW1 1383   0.979   2.810   0.223
  454SOL    HW2 1384   0.956   2.689   0.330
  455SOL     OW 1385   0.372   3.150   1.490
  455SOL    HW1 1386   0.359   3.243   1.456
  455SOL    HW2 1387   0.288   3.098   1.477
  456SOL     OW 1388   1.014   2.098   0.971
  456SOL    HW1 1389   1.006   2.062   0.878
  456SOL    HW2 1390   1.012   2.022   1.036
  457SOL     OW 1391   1.709   2.247   1.381
  457SOL    HW1 1392   1.782   2.316   1.385
  457SOL    HW2 1393   1.737   2.172   1.322
  458SOL     OW 1394   0.105   2.875   1.726
  458SOL    HW1 1395   0.028   2.842   1.780
  458SOL    HW2 1396   0.190   2.845   1.768
  459SOL     OW 1397   0.672   2.065   1.489
  459SOL    HW1 1398   0.762   2.049   1.449
  459SOL    HW2 1399   0.680   2.070   1.588
  460SOL     OW 1400   0.075   2.207   0.033
  460SOL    HW1 1401  -0.017   2.179   0.004
  460SOL    HW2 1402   0.106   2.284  -0.023
  461SOL     OW 1403   1.440   2.718   1.398
  461SOL    HW1 1404   1.383   2.770   1.335
  461SOL    HW2 1405   1.536   2.730   1.374
  462SOL     OW 1406   0.072   2.028   0.318
  462SOL    HW1 1407   0.055   2.111   0.264
  462SOL    HW2 1408   0.162   1.991   0.296
  463SOL     OW 1409   0.613   2.704   1.431
  463SOL    HW1 1410   0.669   2.785   1.414
  463SOL    HW2 1411   0.672   2.624   1.434
  464SOL     OW 1412   0.716   2.427   1.708
  464SOL    HW1 1413   0.735   2.492   1.782
  464SOL    HW2 1414   0.776   2.347   1.717
  465SOL     OW 1415   1.450   3.082   1.633
  465SOL    HW1 1416   1.441   3.072   1.732
  465SOL    HW2 1417   1.546   3.075   1.607
  466SOL     OW 1418   1.674   2.745   1.254
  466SOL    HW1 1419   1.647   2.656   1.217
  466SOL    HW2 1420   1.675   2.813   1.181
  467SOL     OW 1421   1.225   2.187   0.449
  467SOL    HW1 1422   1.290   2.113   0.438
  467SOL    HW2 1423   1.245   2.237   0.533
  468SOL     OW 1424   0.594   2.607   0.652
  468SOL    HW1 1425   0.644   2.692   0.633
  468SOL    HW2 1426   0.506   2.609   0.604
  469SOL     OW 1427   1.777   2.204   1.642
  469SOL    HW1 1428   1.760   2.235   1.548
  469SOL    HW2 1429   1.693   2.167   1.680
  470SOL     OW 1430   1.730   2.796   1.517
  470SOL    HW1 1431   1.768   2.887   1.532
  470SOL    HW2 1432   1.722   2.779   1.418
  471SOL     OW 1433   0.859   2.818   0.861
  471SOL    HW1 1434   0.913   2.749   0.909
  471SOL    HW2 1435   0.827   2.887   0.927
  472SOL     OW 1436   1.083   2.846   0.087
  472SOL    HW1 1437   1.060   2.899   0.005
  472SOL    HW2 1438   1.164   2.790   0.068
  473SOL     OW 1439   0.079   3.102   0.653
  473SOL    HW1 1440   0.078   3.055   0.741
  473SOL    HW2 1441   0.161   3.074   0.602
  474SOL     OW 1442   1.824   2.054   1.227
  474SOL    HW1 1443   1.820   1.964   1.271
  474SOL    HW2 1444   1.827   2.043   1.128
  475SOL     OW 1445   0.428   2.286   0.520
  475SOL    HW1 1446   0.458   2.214   0.458
  475SOL    HW2 1447   0.389   2.246   0.603
  476SOL     OW 1448   0.317   2.409   1.280
  476SOL    HW1 1449   0.355   2.350   1.352
  476SOL    HW2 1450   0.357   2.383   1.192
  477SOL     OW 1451   1.424   2.076   1.112
  477SOL    HW1 1452   1.476   2.011   1.167
  477SOL    HW2 1453   1.375   2.139   1.173
  478SOL     OW 1454   1.001   1.896   1.154
  478SOL    HW1 1455   0.938   1.824   1.123
  478SOL    HW2 1456   1.094   1.860   1.154
  479SOL     OW 1457   0.770   3.192   0.301
  479SOL    HW1 1458   0.724   3.105   0.318
  479SOL    HW2 1459   0.861   3.189   0.342
  480SOL     OW 1460   1.352   1.914   0.168
  480SOL    HW1 1461   1.387   1.873   0.084
  480SOL    HW2 1462   1.262   1.876   0.188
  481SOL     OW 1463   1.300   2.315   0.691
  481SOL    HW1 1464   1.241   2.395   0.695
  481SOL    HW2 1465   1.315   2.280   0.784
  482SOL     OW 1466   1.593   2.083   0.882
  482SOL    HW1 1467   1.509   2.082   0.936
  482SOL    HW2 1468   1.595   2.166   0.826
  483SOL     OW 1469   0.039   2.939   0.300
  483SOL    HW1 1470   0.138   2.928   0.291
  483SOL    HW2 1471  -0.001   2.853   0.332
  484SOL     OW 1472   0.230   2.490   1.975
  484SOL    HW1 1473   0.137   2.488   2.012
  484SOL    HW2 1474   0.231   2.451   1.883
  485SOL     OW 1475   0.225   2.137   2.858
  485SOL    HW1 1476   0.260   2.120   2.950
  485SOL    HW2 1477   0.137   2.092   2.846
  486SOL     OW 1478   0.019   2.230   2.509
  486SOL    HW1 1479  -0.063   2.273   2.548
  486SOL    HW2 1480  -0.009   2.157   2.446
  487SOL     OW 1481   1.135   2.565   2.579
  487SOL    HW1 1482   1.192   2.643   2.554
  487SOL    HW2 1483   1.075   2.591   2.655
  488SOL     OW 1484   1.755   2.469   2.093
  488SOL    HW1 1485   1.743   2.456   1.994
  488SOL    HW2 1486   1.725   2.388   2.142
  489SOL     OW 1487   0.768   3.006   2.885
  489SOL    HW1 1488   0.690   3.023   2.945
  489SOL    HW2 1489   0.802   3.093   2.849
  490SOL     OW 1490   0.685   2.874   2.527
  490SOL    HW1 1491   0.754   2.858   2.597
  490SOL    HW2 1492   0.612   2.931   2.565
  491SOL     OW 1493   1.603   2.309   2.599
  491SOL    HW1 1494   1.529   2.355   2.549
  491SOL    HW2 1495   1.654   2.377   2.652
  492SOL     OW 1496   0.240   2.953   2.748
  492SOL    HW1 1497   0.254   2.869   2.800
  492SOL    HW2 1498   0.185   3.017   2.803
  493SOL     OW 1499   0.606   2.826   1.985
  493SOL    HW1 1500   0.613   2.910   1.931
  493SOL    HW2 1501   0.652   2.839   2.073
  494SOL     OW 1502   0.122   2.505   2.425
  494SOL    HW1 1503   0.077   2.417   2.442
  494SOL    HW2 1504   0.121   2.559   2.509
  495SOL     OW 1505   1.689   2.784   2.474
  495SOL    HW1 1506   1.784   2.755   2.482
  495SOL    HW2 1507   1.681   2.849   2.399
  496SOL     OW 1508   0.613   3.227   2.588
  496SOL    HW1 1509   0.564   3.140   2.597
  496SOL    HW2 1510   0.590   3.270   2.501
  497SOL     OW 1511   0.809   1.866   2.364
  497SOL    HW1 1512   0.849   1.957   2.355
  497SOL    HW2 1513   0.709   1.874   2.370
  498SOL     OW 1514   0.197   2.838   3.126
  498SOL    HW1 1515   0.286   2.793   3.112
  498SOL    HW2 1516   0.124   2.773   3.107
  499SOL     OW 1517   1.525   2.861   2.052
  499SOL    HW1 1518   1.462   2.785   2.065
  499SOL    HW2 1519   1.573   2.879   2.138
  500SOL     OW 1520   0.598   2.591   2.132
  500SOL    HW1 1521   0.622   2.660   2.064
  500SOL    HW2 1522   0.520   2.624   2.186
  501SOL     OW 1523   1.281   2.207   2.806
  501SOL    HW1 1524   1.195   2.157   2.793
  501SOL    HW2 1525   1.343   2.153   2.862
  502SOL     OW 1526   1.041   2.563   2.291
  502SOL    HW1 1527   1.067   2.559   2.387
  502SOL    HW2 1528   0.956   2.512   2.277
  503SOL     OW 1529   0.076   2.673   2.651
  503SOL    HW1 1530   0.175   2.661   2.660
  503SOL    HW2 1531   0.052   2.768   2.672
  504SOL     OW 1532   0.865   2.210   2.057
  504SOL    HW1 1533   0.924   2.273   2.008
  504SOL    HW2 1534   0.884   2.116   2.028
  505SOL     OW 1535   0.550   2.058   2.747
  505SOL    HW1 1536   0.545   2.053   2.847
  505SOL    HW2 1537   0.552   2.154   2.718
  506SOL     OW 1538   1.795   2.928   2.735
  506SOL    HW1 1539   1.733   2.913   2.659
  506SOL    HW2 1540   1.743   2.939   2.820
  507SOL     OW 1541   0.321   2.805   2.104
  507SOL    HW1 1542   0.403   2.844   2.062
  507SOL    HW2 1543   0.294   2.723   2.055
  508SOL     OW 1544   1.458   2.597   2.590
  508SOL    HW1 1545   1.453   2.532   2.665
  508SOL    HW2 1546   1.538   2.656   2.603
  509SOL     OW 1547   1.400   1.969   2.288
  509SOL    HW1 1548   1.376   1.932   2.198
  509SOL    HW2 1549   1.499   1.985   2.292
  510SOL     OW 1550   0.382   2.562   2.342
  510SOL    HW1 1551   0.427   2.472   2.339
  510SOL    HW2 1552   0.288   2.551   2.375
  511SOL     OW 1553   0.614   1.984   1.979
  511SOL    HW1 1554   0.712   1.962   1.986
  511SOL    HW2 1555   0.583   1.967   1.886
  512SOL     OW 1556   0.888   3.376   3.057
  512SOL    HW1 1557   0.865   3.351   2.963
  512SOL    HW2 1558   0.949   3.307   3.096
  513SOL     OW 1559   0.922   2.365   2.761
  513SOL    HW1 1560   0.897   2.356   2.665
  513SOL    HW2 1561   0.970   2.283   2.792
  514SOL     OW 1562   0.539   1.926   2.374
  514SOL    HW1 1563   0.458   1.927   2.432
  514SOL    HW2 1564   0.542   2.009   2.319
  515SOL     OW 1565   0.297   1.897   2.033
  515SOL    HW1 1566   0.346   1.981   2.012
  515SOL    HW2 1567   0.359   1.832   2.078
  516SOL     OW 1568   0.935   2.098   2.342
  516SOL    HW1 1569   0.887   2.139   2.264
  516SOL    HW2 1570   1.034   2.096   2.323
  517SOL     OW 1571   0.459   3.014   2.603
  517SOL    HW1 1572   0.388   2.987   2.668
  517SOL    HW2 1573   0.433   2.986   2.510
  518SOL     OW 1574   1.032   2.411   1.878
  518SOL    HW1 1575   0.991   2.493   1.839
  518SOL    HW2 1576   1.096   2.437   1.951
  519SOL     OW 1577   0.866   2.316   2.504
  519SOL    HW1 1578   0.834   2.388   2.442
  519SOL    HW2 1579   0.890   2.235   2.451
  520SOL     OW 1580   1.017   1.901   2.615
  520SOL    HW1 1581   0.945   1.906   2.546
  520SOL    HW2 1582   0.993   1.832   2.684
  521SOL     OW 1583   1.429   3.035   2.729
  521SOL    HW1 1584   1.374   2.951   2.722
  521SOL    HW2 1585   1.455   3.064   2.637
  522SOL     OW 1586   1.466   2.452   2.854
  522SOL    HW1 1587   1.436   2.357   2.861
  522SOL    HW2 1588   1.539   2.468   2.920
  523SOL     OW 1589   1.857   2.695   2.239
  523SOL    HW1 1590   1.899   2.631   2.303
  523SOL    HW2 1591   1.819   2.644   2.161
  524SOL     OW 1592   1.390   2.437   1.940
  524SOL    HW1 1593   1.336   2.416   2.021
  524SOL    HW2 1594   1.481   2.396   1.949
  525SOL     OW 1595   0.527   2.118   2.190
  525SOL    HW1 1596   0.554   2.059   2.115
  525SOL    HW2 1597   0.527   2.213   2.159
  526SOL     OW 1598   1.111   3.057   2.962
  526SOL    HW1 1599   1.071   3.101   3.043
  526SOL    HW2 1600   1.070   3.094   2.879
  527SOL     OW 1601   1.638   2.961   2.941
  527SOL    HW1 1602   1.643   3.042   3.000
  527SOL    HW2 1603   1.552   2.963   2.890
  528SOL     OW 1604   0.705   2.912   2.230
  528SOL    HW1 1605   0.691   2.919   2.329
  528SOL    HW2 1606   0.789   2.861   2.212
  529SOL     OW 1607   0.410   2.675   3.113
  529SOL    HW1 1608   0.496   2.687   3.163
  529SOL    HW2 1609   0.368   2.588   3.140
  530SOL     OW 1610   0.367   2.962   2.363
  530SOL    HW1 1611   0.360   3.045   2.307
  530SOL    HW2 1612   0.371   2.882   2.303
  531SOL     OW 1613   0.566   2.399   2.727
  531SOL    HW1 1614   0.578   2.465   2.653
  531SOL    HW2 1615   0.612   2.433   2.810
  532SOL     OW 1616   1.582   2.501   2.334
  532SOL    HW1 1617   1.551   2.562   2.407
  532SOL    HW2 1618   1.632   2.553   2.265
  533SOL     OW 1619   0.573   2.732   2.891
  533SOL    HW1 1620   0.617   2.821   2.882
  533SOL    HW2 1621   0.510   2.732   2.968
  534SOL     OW 1622   1.209   2.387   2.137
  534SOL    HW1 1623   1.222   2.303   2.191
  534SOL    HW2 1624   1.180   2.461   2.197
  535SOL     OW 1625   0.307   2.075   3.093
  535SOL    HW1 1626   0.284   2.112   3.183
  535SOL    HW2 1627   0.277   1.980   3.087
  536SOL     OW 1628   0.732   2.496   2.926
  536SOL    HW1 1629   0.791   2.470   2.850
  536SOL    HW2 1630   0.704   2.592   2.915
  537SOL     OW 1631   0.307   1.925   2.480
  537SOL    HW1 1632   0.296   2.019   2.513
  537SOL    HW2 1633   0.302   1.862   2.557
  538SOL     OW 1634   1.622   2.229   2.236
  538SOL    HW1 1635   1.624   2.153   2.300
  538SOL    HW2 1636   1.574   2.306   2.276
  539SOL     OW 1637   1.023   2.628   2.828
  539SOL    HW1 1638   1.038   2.649   2.924
  539SOL    HW2 1639   0.993   2.533   2.819
  540SOL     OW 1640   1.540   2.136   1.987
  540SOL    HW1 1641   1.479   2.061   2.010
  540SOL    HW2 1642   1.562   2.188   2.070
  541SOL     OW 1643   1.303   2.700   1.904
  541SOL    HW1 1644   1.337   2.607   1.919
  541SOL    HW2 1645   1.321   2.727   1.809
  542SOL     OW 1646   0.319   2.672   2.811
  542SOL    HW1 1647   0.412   2.708   2.816
  542SOL    HW2 1648   0.313   2.587   2.863
  543SOL     OW 1649   0.339   2.371   2.868
  543SOL    HW1 1650   0.287   2.288   2.851
  543SOL    HW2 1651   0.416   2.376   2.804
  544SOL     OW 1652   1.002   2.658   3.100
  544SOL    HW1 1653   1.043   2.626   3.186
  544SOL    HW2 1654   0.906   2.631   3.097
  545SOL     OW 1655   0.040   2.406   2.976
  545SOL    HW1 1656   0.125   2.373   2.935
  545SOL    HW2 1657   0.053   2.421   3.074
  546SOL     OW 1658   0.815   2.434   2.187
  546SOL    HW1 1659   0.822   2.345   2.141
  546SOL    HW2 1660   0.721   2.468   2.179
  547SOL     OW 1661   1.657   2.466   3.068
  547SOL    HW1 1662   1.619   2.397   3.130
  547SOL    HW2 1663   1.739   2.430   3.024
  548SOL     OW 1664   0.671   2.326   3.131
  548SOL    HW1 1665   0.637   2.237   3.101
  548SOL    HW2 1666   0.697   2.380   3.051
  549SOL     OW 1667   0.473   2.362   2.053
  549SOL    HW1 1668   0.534   2.442   2.057
  549SOL    HW2 1669   0.378   2.393   2.060
  550SOL     OW 1670   1.347   2.921   3.096
  550SOL    HW1 1671   1.371   2.858   3.022
  550SOL    HW2 1672   1.257   2.961   3.078
  551SOL     OW 1673   1.302   2.717   2.171
  551SOL    HW1 1674   1.216   2.686   2.213
  551SOL    HW2 1675   1.298   2.703   2.072
  552SOL     OW 1676   0.083   3.120   2.884
  552SOL    HW1 1677   0.078   3.119   2.984
  552SOL    HW2 1678   0.000   3.079   2.846
  553SOL     OW 1679   1.726   1.997   2.385
  553SOL    HW1 1680   1.799   1.980   2.318
  553SOL    HW2 1681   1.695   1.910   2.423
  554SOL     OW 1682   1.280   2.789   2.534
  554SOL    HW1 1683   1.340   2.708   2.536
  554SOL    HW2 1684   1.320   2.858   2.474
  555SOL     OW 1685   1.841   2.037   2.825
  555SOL    HW1 1686   1.880   1.952   2.789
  555SOL    HW2 1687   1.743   2.039   2.806
  556SOL     OW 1688   0.263   2.188   2.582
  556SOL    HW1 1689   0.184   2.239   2.548
  556SOL    HW2 1690   0.254   2.173   2.680
  557SOL     OW 1691   0.822   2.864   3.234
  557SOL    HW1 1692   0.862   2.863   3.142
  557SOL    HW2 1693   0.832   2.956   3.274
  558SOL     OW 1694   0.916   2.772   2.153
  558SOL    HW1 1695   0.979   2.810   2.085
  558SOL    HW2 1696   0.956   2.689   2.192
  559SOL     OW 1697   1.014   2.098   2.833
  559SOL    HW1 1698   1.006   2.062   2.740
  559SOL    HW2 1699   1.012   2.022   2.898
  560SOL     OW 1700   1.709   2.247   3.243
  560SOL    HW1 1701   1.782   2.316   3.247
  560SOL    HW2 1702   1.737   2.172   3.184
  561SOL     OW 1703   0.075   2.207   1.895
  561SOL    HW1 1704  -0.017   2.179   1.866
  561SOL    HW2 1705   0.106   2.284   1.839
  562SOL     OW 1706   0.072   2.028   2.180
  562SOL    HW1 1707   0.055   2.111   2.126
  562SOL    HW2 1708   0.162   1.991   2.158
  563SOL     OW 1709   1.674   2.745   3.116
  563SOL    HW1 1710   1.647   2.656   3.079
  563SOL    HW2 1711   1.675   2.813   3.043
  564SOL     OW 1712   1.225   2.187   2.311
  564SOL    HW1 1713   1.290   2.113   2.300
  564SOL    HW2 1714   1.245   2.237   2.395
  565SOL     OW 1715   0.594   2.607   2.514
  565SOL    HW1 1716   0.644   2.692   2.495
  565SOL    HW2 1717   0.506   2.609   2.466
  566SOL     OW 1718   1.730   2.796   3.379
  566SOL    HW1 1719   1.768   2.887   3.394
  566SOL    HW2 1720   1.722   2.779   3.280
  567SOL     OW 1721   0.859   2.818   2.723
  567SOL    HW1 1722   0.913   2.749   2.771
  567SOL    HW2 1723   0.827   2.887   2.789
  568SOL     OW 1724   1.083   2.846   1.949
  568SOL    HW1 1725   1.060   2.899   1.867
  568SOL    HW2 1726   1.164   2.790   1.930
  569SOL     OW 1727   0.079   3.102   2.515
  569SOL    HW1 1728   0.078   3.055   2.603
  569SOL    HW2 1729   0.161   3.074   2.464
  570SOL     OW 1730   1.824   2.054   3.089
  570SOL    HW1 1731   1.820   1.964   3.133
  570SOL    HW2 1732   1.827   2.043   2.990
  571SOL     OW 1733   0.428   2.286   2.382
  571SOL    HW1 1734   0.458   2.214   2.320
  571SOL    HW2 1735   0.389   2.246   2.465
  572SOL     OW 1736   1.424   2.076   2.974
  572SOL    HW1 1737   1.476   2.011   3.029
  572SOL    HW2 1738   1.375   2.139   3.035
  573SOL     OW 1739   0.770   3.192   2.163
  573SOL    HW1 1740   0.724   3.105   2.180
  573SOL    HW2 1741   0.861   3.189   2.204
  574SOL     OW 1742   1.352   1.914   2.030
  574SOL    HW1 1743   1.387   1.873   1.946
  574SOL    HW2 1744   1.262   1.876   2.050
  575SOL     OW 1745   1.300   2.315   2.553
  575SOL    HW1 1746   1.241   2.395   2.557
  575SOL    HW2 1747   1.315   2.280   2.646
  576SOL     OW 1748   1.593   2.083   2.744
  576SOL    HW1 1749   1.509   2.082   2.798
  576SOL    HW2 1750   1.595   2.166   2.688
  577SOL     OW 1751   0.039   2.939   2.162
  577SOL    HW1 1752   0.138   2.928   2.153
  577SOL    HW2 1753  -0.001   2.853   2.194
  578SOL     OW 1754   2.092   0.628   0.113
  578SOL    HW1 1755   1.999   0.626   0.150
  578SOL    HW2 1756   2.093   0.589   0.021
  579SOL     OW 1757   2.087   0.275   0.996
  579SOL    HW1 1758   2.122   0.258   1.088
  579SOL    HW2 1759   1.999   0.230   0.984
  580SOL     OW 1760   1.881   0.368   0.647
  580SOL    HW1 1761   1.799   0.411   0.686
  580SOL    HW2 1762   1.853   0.295   0.584
  581SOL     OW 1763   2.431   1.275   1.165
  581SOL    HW1 1764   2.338   1.268   1.128
  581SOL    HW2 1765   2.442   1.364   1.209
  582SOL     OW 1766   2.630   1.144   1.023
  582SOL    HW1 1767   2.552   1.161   1.083
  582SOL    HW2 1768   2.664   1.231   0.987
  583SOL     OW 1769   2.712   0.798   1.823
  583SOL    HW1 1770   2.708   0.874   1.888
  583SOL    HW2 1771   2.734   0.834   1.732
  584SOL     OW 1772   2.547   1.012   0.665
  584SOL    HW1 1773   2.616   0.996   0.735
  584SOL    HW2 1774   2.474   1.069   0.703
  585SOL     OW 1775   2.548   1.161   1.803
  585SOL    HW1 1776   2.608   1.240   1.817
  585SOL    HW2 1777   2.462   1.192   1.762
  586SOL     OW 1778   2.197   1.435   1.061
  586SOL    HW1 1779   2.119   1.404   1.008
  586SOL    HW2 1780   2.255   1.493   1.004
  587SOL     OW 1781   2.300   0.392   1.499
  587SOL    HW1 1782   2.382   0.336   1.508
  587SOL    HW2 1783   2.219   0.334   1.503
  588SOL     OW 1784   2.093   1.713   0.483
  588SOL    HW1 1785   2.127   1.790   0.537
  588SOL    HW2 1786   2.137   1.713   0.393
  589SOL     OW 1787   2.989   1.341   1.690
  589SOL    HW1 1788   3.036   1.341   1.778
  589SOL    HW2 1789   2.941   1.254   1.679
  590SOL     OW 1790   2.092   1.434   0.538
  590SOL    HW1 1791   2.066   1.530   0.538
  590SOL    HW2 1792   2.021   1.380   0.583
  591SOL     OW 1793   2.102   1.091   0.886
  591SOL    HW1 1794   2.116   1.007   0.938
  591SOL    HW2 1795   2.047   1.155   0.941
  592SOL     OW 1796   2.482   1.786   1.439
  592SOL    HW1 1797   2.390   1.769   1.474
  592SOL    HW2 1798   2.510   1.878   1.465
  593SOL     OW 1799   2.468   0.964   0.123
  593SOL    HW1 1800   2.475   1.048   0.069
  593SOL    HW2 1801   2.514   0.977   0.211
  594SOL     OW 1802   1.984   0.643   0.563
  594SOL    HW1 1803   1.939   0.555   0.580
  594SOL    HW2 1804   1.983   0.697   0.647
  595SOL     OW 1805   1.889   1.596   0.117
  595SOL    HW1 1806   1.870   1.500   0.138
  595SOL    HW2 1807   1.856   1.654   0.192
  596SOL     OW 1808   1.975   0.737   1.597
  596SOL    HW1 1809   2.063   0.724   1.642
  596SOL    HW2 1810   1.962   0.834   1.575
  597SOL     OW 1811   2.475   1.365   0.726
  597SOL    HW1 1812   2.426   1.278   0.735
  597SOL    HW2 1813   2.452   1.408   0.639
  598SOL     OW 1814   2.671   0.004   0.502
  598SOL    HW1 1815   2.711   0.095   0.493
  598SOL    HW2 1816   2.571   0.012   0.508
  599SOL     OW 1817   2.059   0.976   1.264
  599SOL    HW1 1818   2.148   0.931   1.250
  599SOL    HW2 1819   1.986   0.911   1.245
  600SOL     OW 1820   2.179   0.251   1.801
  600SOL    HW1 1821   2.250   0.322   1.807
  600SOL    HW2 1822   2.091   0.290   1.829
  601SOL     OW 1823   2.460   0.729   0.270
  601SOL    HW1 1824   2.484   0.798   0.202
  601SOL    HW2 1825   2.382   0.762   0.324
  602SOL     OW 1826   2.669   0.605   1.465
  602SOL    HW1 1827   2.622   0.602   1.554
  602SOL    HW2 1828   2.618   0.550   1.399
  603SOL     OW 1829   2.835   0.890   1.572
  603SOL    HW1 1830   2.881   0.806   1.543
  603SOL    HW2 1831   2.779   0.924   1.497
  604SOL     OW 1832   2.853   0.410   1.242
  604SOL    HW1 1833   2.776   0.444   1.296
  604SOL    HW2 1834   2.819   0.359   1.163
  605SOL     OW 1835   2.903   0.701   0.429
  605SOL    HW1 1836   2.929   0.697   0.525
  605SOL    HW2 1837   2.818   0.650   0.415
  606SOL     OW 1838   1.938   0.811   0.789
  606SOL    HW1 1839   2.037   0.799   0.798
  606SOL    HW2 1840   1.914   0.906   0.810
  607SOL     OW 1841   1.992   1.821   1.571
  607SOL    HW1 1842   1.982   1.806   1.670
  607SOL    HW2 1843   1.906   1.857   1.535
  608SOL     OW 1844   2.727   0.348   0.195
  608SOL    HW1 1845   2.786   0.411   0.146
  608SOL    HW2 1846   2.746   0.254   0.166
  609SOL     OW 1847   2.412   0.196   0.885
  609SOL    HW1 1848   2.407   0.191   0.985
  609SOL    HW2 1849   2.414   0.292   0.856
  610SOL     OW 1850   2.870   1.456   0.477
  610SOL    HW1 1851   2.824   1.528   0.425
  610SOL    HW2 1852   2.866   1.476   0.575
  611SOL     OW 1853   2.213   1.801   0.853
  611SOL    HW1 1854   2.263   1.715   0.859
  611SOL    HW2 1855   2.278   1.878   0.850
  612SOL     OW 1856   2.183   0.943   0.242
  612SOL    HW1 1857   2.265   0.982   0.200
  612SOL    HW2 1858   2.156   0.861   0.193
  613SOL     OW 1859   2.323   1.266   1.727
  613SOL    HW1 1860   2.273   1.267   1.641
  613SOL    HW2 1861   2.260   1.248   1.803
  614SOL     OW 1862   2.064   0.285   1.498
  614SOL    HW1 1863   1.984   0.345   1.485
  614SOL    HW2 1864   2.054   0.236   1.584
  615SOL     OW 1865   2.326   1.743   0.323
  615SOL    HW1 1866   2.359   1.782   0.409
  615SOL    HW2 1867   2.402   1.736   0.258
  616SOL     OW 1868   2.111   1.785   1.241
  616SOL    HW1 1869   2.168   1.720   1.291
  616SOL    HW2 1870   2.095   1.752   1.148
  617SOL     OW 1871   2.802   1.698   0.904
  617SOL    HW1 1872   2.882   1.641   0.925
  617SOL    HW2 1873   2.753   1.658   0.827
  618SOL     OW 1874   2.244   0.700   0.480
  618SOL    HW1 1875   2.289   0.610   0.477
  618SOL    HW2 1876   2.150   0.689   0.513
  619SOL     OW 1877   2.476   0.122   0.117
  619SOL    HW1 1878   2.574   0.100   0.124
  619SOL    HW2 1879   2.445   0.105   0.024
  620SOL     OW 1880   2.643   0.264   1.749
  620SOL    HW1 1881   2.710   0.203   1.792
  620SOL    HW2 1882   2.570   0.283   1.814
  621SOL     OW 1883   2.750   1.514   1.195
  621SOL    HW1 1884   2.727   1.489   1.101
  621SOL    HW2 1885   2.811   1.445   1.234
  622SOL     OW 1886   2.665   1.402   0.924
  622SOL    HW1 1887   2.755   1.416   0.882
  622SOL    HW2 1888   2.594   1.404   0.853
  623SOL     OW 1889   2.784   0.503   0.899
  623SOL    HW1 1890   2.759   0.494   0.803
  623SOL    HW2 1891   2.832   0.421   0.930
  624SOL     OW 1892   2.401   0.064   0.512
  624SOL    HW1 1893   2.320   0.065   0.570
  624SOL    HW2 1894   2.404   0.147   0.457
  625SOL     OW 1895   2.159   0.035   0.171
  625SOL    HW1 1896   2.208   0.119   0.150
  625SOL    HW2 1897   2.221  -0.030   0.216
  626SOL     OW 1898   2.797   0.236   0.480
  626SOL    HW1 1899   2.749   0.277   0.402
  626SOL    HW2 1900   2.896   0.234   0.461
  627SOL     OW 1901   3.089   1.570   0.793
  627SOL    HW1 1902   3.110   1.644   0.728
  627SOL    HW2 1903   3.157   1.570   0.866
  628SOL     OW 1904   2.321   1.152   0.741
  628SOL    HW1 1905   2.250   1.125   0.806
  628SOL    HW2 1906   2.295   1.124   0.648
  629SOL     OW 1907   3.133   1.797   0.591
  629SOL    HW1 1908   3.177   1.861   0.527
  629SOL    HW2 1909   3.083   1.849   0.661
  630SOL     OW 1910   2.894   0.549   0.016
  630SOL    HW1 1911   2.853   0.631  -0.023
  630SOL    HW2 1912   2.958   0.575   0.089
  631SOL     OW 1913   1.940   0.556   1.386
  631SOL    HW1 1914   2.032   0.555   1.345
  631SOL    HW2 1915   1.934   0.630   1.453
  632SOL     OW 1916   2.423   0.222   1.147
  632SOL    HW1 1917   2.461   0.138   1.184
  632SOL    HW2 1918   2.335   0.241   1.191
  633SOL     OW 1919   2.728   0.454   0.642
  633SOL    HW1 1920   2.696   0.526   0.580
  633SOL    HW2 1921   2.752   0.373   0.589
  634SOL     OW 1922   2.879   0.039   0.753
  634SOL    HW1 1923   2.807   0.044   0.684
  634SOL    HW2 1924   2.855  -0.030   0.822
  635SOL     OW 1925   2.350   1.385   0.174
  635SOL    HW1 1926   2.263   1.370   0.221
  635SOL    HW2 1927   2.333   1.411   0.079
  636SOL     OW 1928   2.389   0.256   0.328
  636SOL    HW1 1929   2.416   0.197   0.253
  636SOL    HW2 1930   2.389   0.351   0.297
  637SOL     OW 1931   2.777   0.089   1.402
  637SOL    HW1 1932   2.802   0.069   1.307
  637SOL    HW2 1933   2.849   0.145   1.444
  638SOL     OW 1934   2.842   1.116   1.719
  638SOL    HW1 1935   2.743   1.122   1.729
  638SOL    HW2 1936   2.865   1.036   1.663
  639SOL     OW 1937   2.567   1.050   0.368
  639SOL    HW1 1938   2.553   1.057   0.467
  639SOL    HW2 1939   2.651   0.999   0.350
  640SOL     OW 1940   2.272   0.813   1.251
  640SOL    HW1 1941   2.358   0.825   1.301
  640SOL    HW2 1942   2.230   0.726   1.278
  641SOL     OW 1943   1.926   1.564   1.331
  641SOL    HW1 1944   1.880   1.646   1.297
  641SOL    HW2 1945   2.024   1.583   1.340
  642SOL     OW 1946   2.229   1.100   0.501
  642SOL    HW1 1947   2.222   1.183   0.445
  642SOL    HW2 1948   2.233   1.020   0.441
  643SOL     OW 1949   2.428   0.537   0.865
  643SOL    HW1 1950   2.440   0.603   0.791
  643SOL    HW2 1951   2.474   0.571   0.948
  644SOL     OW 1952   3.114   1.348   0.388
  644SOL    HW1 1953   3.164   1.425   0.428
  644SOL    HW2 1954   3.019   1.350   0.420
  645SOL     OW 1955   2.216   1.510   1.329
  645SOL    HW1 1956   2.195   1.466   1.242
  645SOL    HW2 1957   2.313   1.536   1.332
  646SOL     OW 1958   2.264   0.751   1.598
  646SOL    HW1 1959   2.332   0.806   1.551
  646SOL    HW2 1960   2.304   0.663   1.625
  647SOL     OW 1961   2.875   0.105   1.770
  647SOL    HW1 1962   2.881   0.190   1.718
  647SOL    HW2 1963   2.907   0.029   1.713
  648SOL     OW 1964   2.366   0.050   1.740
  648SOL    HW1 1965   2.324  -0.007   1.670
  648SOL    HW2 1966   2.300   0.119   1.772
  649SOL     OW 1967   2.435   0.870   1.029
  649SOL    HW1 1968   2.479   0.959   1.020
  649SOL    HW2 1969   2.372   0.870   1.106
  650SOL     OW 1970   3.222   0.862   1.045
  650SOL    HW1 1971   3.147   0.862   0.979
  650SOL    HW2 1972   3.259   0.770   1.054
  651SOL     OW 1973   3.071   0.525   0.275
  651SOL    HW1 1974   3.084   0.441   0.329
  651SOL    HW2 1975   3.042   0.599   0.335
  652SOL     OW 1976   2.169   0.213   1.231
  652SOL    HW1 1977   2.146   0.250   1.321
  652SOL    HW2 1978   2.139   0.118   1.225
  653SOL     OW 1979   1.899   1.310   1.282
  653SOL    HW1 1980   1.952   1.261   1.350
  653SOL    HW2 1981   1.921   1.408   1.287
  654SOL     OW 1982   2.594   0.634   1.064
  654SOL    HW1 1983   2.653   0.608   0.988
  654SOL    HW2 1984   2.566   0.730   1.053
  655SOL     OW 1985   2.169   0.063   0.618
  655SOL    HW1 1986   2.158   0.157   0.651
  655SOL    HW2 1987   2.164   0.000   0.695
  656SOL     OW 1988   2.885   0.766   0.966
  656SOL    HW1 1989   2.900   0.787   1.062
  656SOL    HW2 1990   2.855   0.671   0.957
  657SOL     OW 1991   2.842   1.573   1.700
  657SOL    HW1 1992   2.822   1.617   1.612
  657SOL    HW2 1993   2.881   1.482   1.684
  658SOL     OW 1994   2.212   0.898   1.804
  658SOL    HW1 1995   2.288   0.942   1.852
  658SOL    HW2 1996   2.247   0.851   1.722
  659SOL     OW 1997   2.930   1.333   0.849
  659SOL    HW1 1998   2.937   1.249   0.794
  659SOL    HW2 1999   2.992   1.402   0.813
  660SOL     OW 2000   2.181   0.810   0.949
  660SOL    HW1 2001   2.274   0.846   0.954
  660SOL    HW2 2002   2.175   0.725   1.001
  661SOL     OW 2003   2.201   0.509   1.006
  661SOL    HW1 2004   2.149   0.426   0.989
  661SOL    HW2 2005   2.278   0.514   0.942
  662SOL     OW 2006   3.000   0.380   1.678
  662SOL    HW1 2007   2.955   0.443   1.742
  662SOL    HW2 2008   3.093   0.411   1.661
  663SOL     OW 2009   3.022   0.207   1.477
  663SOL    HW1 2010   3.022   0.271   1.554
  663SOL    HW2 2011   3.050   0.255   1.394
  664SOL     OW 2012   1.870   1.326   0.200
  664SOL    HW1 2013   1.777   1.347   0.169
  664SOL    HW2 2014   1.880   1.227   0.213
  665SOL     OW 2015   1.950   1.801   0.927
  665SOL    HW1 2016   1.908   1.715   0.900
  665SOL    HW2 2017   2.044   1.804   0.893
  666SOL     OW 2018   2.366   1.568   0.910
  666SOL    HW1 2019   2.432   1.642   0.919
  666SOL    HW2 2020   2.410   1.489   0.868
  667SOL     OW 2021   2.864   0.796   1.238
  667SOL    HW1 2022   2.905   0.764   1.324
  667SOL    HW2 2023   2.768   0.769   1.235
  668SOL     OW 2024   1.902   0.544   1.114
  668SOL    HW1 2025   1.987   0.511   1.073
  668SOL    HW2 2026   1.915   0.559   1.212
  669SOL     OW 2027   2.051   0.520   1.722
  669SOL    HW1 2028   2.110   0.480   1.652
  669SOL    HW2 2029   1.993   0.591   1.681
  670SOL     OW 2030   2.677   0.572   0.325
  670SOL    HW1 2031   2.684   0.483   0.279
  670SOL    HW2 2032   2.583   0.606   0.317
  671SOL     OW 2033   2.114   1.564   1.744
  671SOL    HW1 2034   2.084   1.621   1.820
  671SOL    HW2 2035   2.107   1.467   1.770
  672SOL     OW 2036   2.533   0.464   1.269
  672SOL    HW1 2037   2.499   0.375   1.239
  672SOL    HW2 2038   2.559   0.518   1.189
  673SOL     OW 2039   2.792   1.678   1.465
  673SOL    HW1 2040   2.768   1.660   1.370
  673SOL    HW2 2041   2.822   1.772   1.475
  674SOL     OW 2042   2.335   0.500   0.191
  674SOL    HW1 2043   2.396   0.580   0.195
  674SOL    HW2 2044   2.240   0.531   0.198
  675SOL     OW 2045   2.021   1.137   1.466
  675SOL    HW1 2046   2.043   1.076   1.542
  675SOL    HW2 2047   2.031   1.088   1.380
  676SOL     OW 2048   3.164   0.855   0.309
  676SOL    HW1 2049   3.078   0.824   0.351
  676SOL    HW2 2050   3.160   0.841   0.210
  677SOL     OW 2051   1.945   1.258   1.022
  677SOL    HW1 2052   1.940   1.257   1.122
  677SOL    HW2 2053   1.862   1.217   0.984
  678SOL     OW 2054   2.550   1.662   1.716
  678SOL    HW1 2055   2.494   1.743   1.725
  678SOL    HW2 2056   2.602   1.666   1.630
  679SOL     OW 2057   2.765   0.086   0.133
  679SOL    HW1 2058   2.816   0.087   0.047
  679SOL    HW2 2059   2.821   0.044   0.204
  680SOL     OW 2060   1.992   1.794   1.851
  680SOL    HW1 2061   1.951   1.720   1.904
  680SOL    HW2 2062   2.056   1.845   1.909
  681SOL     OW 2063   2.692   1.273   1.422
  681SOL    HW1 2064   2.687   1.306   1.517
  681SOL    HW2 2065   2.606   1.292   1.376
  682SOL     OW 2066   2.534   1.616   0.154
  682SOL    HW1 2067   2.543   1.626   0.055
  682SOL    HW2 2068   2.494   1.527   0.175
  683SOL     OW 2069   2.125   0.326   0.720
  683SOL    HW1 2070   2.046   0.377   0.686
  683SOL    HW2 2071   2.116   0.311   0.818
  684SOL     OW 2072   2.684   1.002   1.372
  684SOL    HW1 2073   2.724   1.001   1.280
  684SOL    HW2 2074   2.694   1.094   1.412
  685SOL     OW 2075   2.778   0.910   0.291
  685SOL    HW1 2076   2.841   0.948   0.223
  685SOL    HW2 2077   2.818   0.827   0.330
  686SOL     OW 2078   2.234   1.288   1.490
  686SOL    HW1 2079   2.221   1.381   1.456
  686SOL    HW2 2080   2.150   1.236   1.477
  687SOL     OW 2081   2.901   1.098   0.696
  687SOL    HW1 2082   2.831   1.051   0.750
  687SOL    HW2 2083   2.960   1.030   0.653
  688SOL     OW 2084   2.876   0.236   0.971
  688SOL    HW1 2085   2.868   0.200   0.878
  688SOL    HW2 2086   2.874   0.160   1.036
  689SOL     OW 2087   2.452   1.487   0.491
  689SOL    HW1 2088   2.494   1.429   0.421
  689SOL    HW2 2089   2.408   1.566   0.447
  690SOL     OW 2090   2.117   1.348   0.290
  690SOL    HW1 2091   2.021   1.349   0.263
  690SOL    HW2 2092   2.129   1.401   0.374
  691SOL     OW 2093   1.967   1.013   1.726
  691SOL    HW1 2094   1.890   0.980   1.780
  691SOL    HW2 2095   2.052   0.983   1.768
  692SOL     OW 2096   2.534   0.203   1.489
  692SOL    HW1 2097   2.624   0.187   1.449
  692SOL    HW2 2098   2.542   0.208   1.588
  693SOL     OW 2099   1.934   0.166   0.318
  693SOL    HW1 2100   1.917   0.249   0.264
  693SOL    HW2 2101   2.024   0.129   0.296
  694SOL     OW 2102   2.475   0.842   1.431
  694SOL    HW1 2103   2.531   0.923   1.414
  694SOL    HW2 2104   2.534   0.762   1.434
  695SOL     OW 2105   2.578   0.565   1.708
  695SOL    HW1 2106   2.597   0.630   1.782
  695SOL    HW2 2107   2.638   0.485   1.717
  696SOL     OW 2108   2.252   1.741   1.560
  696SOL    HW1 2109   2.161   1.782   1.558
  696SOL    HW2 2110   2.245   1.647   1.592
  697SOL     OW 2111   2.456   0.745   0.652
  697SOL    HW1 2112   2.506   0.830   0.633
  697SOL    HW2 2113   2.368   0.747   0.604
  698SOL     OW 2114   2.721   1.374   0.016
  698SOL    HW1 2115   2.675   1.389   0.104
  698SOL    HW2 2116   2.765   1.459  -0.014
  699SOL     OW 2117   2.523   1.790   0.953
  699SOL    HW1 2118   2.477   1.878   0.940
  699SOL    HW2 2119   2.622   1.802   0.946
  700SOL     OW 2120   2.721   0.956   0.861
  700SOL    HW1 2121   2.775   0.887   0.909
  700SOL    HW2 2122   2.689   1.025   0.927
  701SOL     OW 2123   2.945   0.984   0.087
  701SOL    HW1 2124   2.922   1.037   0.005
  701SOL    HW2 2125   3.026   0.928   0.068
  702SOL     OW 2126   2.083   1.314   1.844
  702SOL    HW1 2127   2.018   1.241   1.823
  702SOL    HW2 2128   2.087   1.328   1.942
  703SOL     OW 2129   1.941   1.240   0.653
  703SOL    HW1 2130   1.940   1.193   0.741
  703SOL    HW2 2131   2.023   1.212   0.602
  704SOL     OW 2132   2.534   1.391   1.624
  704SOL    HW1 2133   2.456   1.341   1.662
  704SOL    HW2 2134   2.531   1.486   1.655
  705SOL     OW 2135   2.290   0.424   0.520
  705SOL    HW1 2136   2.320   0.352   0.458
  705SOL    HW2 2137   2.251   0.384   0.603
  706SOL     OW 2138   2.179   0.547   1.280
  706SOL    HW1 2139   2.217   0.488   1.352
  706SOL    HW2 2140   2.219   0.521   1.192
  707SOL     OW 2141   2.674   1.586   0.687
  707SOL    HW1 2142   2.706   1.596   0.593
  707SOL    HW2 2143   2.595   1.524   0.689
  708SOL     OW 2144   2.863   0.034   1.154
  708SOL    HW1 2145   2.800  -0.038   1.123
  708SOL    HW2 2146   2.956  -0.002   1.154
  709SOL     OW 2147   2.632   1.330   0.301
  709SOL    HW1 2148   2.586   1.243   0.318
  709SOL    HW2 2149   2.723   1.327   0.342
  710SOL     OW 2150   2.480   1.567   1.284
  710SOL    HW1 2151   2.475   1.649   1.341
  710SOL    HW2 2152   2.569   1.564   1.239
  711SOL     OW 2153   1.901   1.077   0.300
  711SOL    HW1 2154   2.000   1.066   0.291
  711SOL    HW2 2155   1.861   0.991   0.332
  712SOL     OW 2156   2.737   1.646   0.337
  712SOL    HW1 2157   2.660   1.611   0.283
  712SOL    HW2 2158   2.705   1.717   0.399
  713SOL     OW 2159   2.092   0.628   1.975
  713SOL    HW1 2160   1.999   0.626   2.012
  713SOL    HW2 2161   2.093   0.589   1.883
  714SOL     OW 2162   2.087   0.275   2.858
  714SOL    HW1 2163   2.122   0.258   2.950
  714SOL    HW2 2164   1.999   0.230   2.846
  715SOL     OW 2165   1.881   0.368   2.509
  715SOL    HW1 2166   1.799   0.411   2.548
  715SOL    HW2 2167   1.853   0.295   2.446
  716SOL     OW 2168   2.431   1.275   3.027
  716SOL    HW1 2169   2.338   1.268   2.990
  716SOL    HW2 2170   2.442   1.364   3.071
  717SOL     OW 2171   2.630   1.144   2.885
  717SOL    HW1 2172   2.552   1.161   2.945
  717SOL    HW2 2173   2.664   1.231   2.849
  718SOL     OW 2174   2.547   1.012   2.527
  718SOL    HW1 2175   2.616   0.996   2.597
  718SOL    HW2 2176   2.474   1.069   2.565
  719SOL     OW 2177   2.197   1.435   2.923
  719SOL    HW1 2178   2.119   1.404   2.870
  719SOL    HW2 2179   2.255   1.493   2.866
  720SOL     OW 2180   2.093   1.713   2.345
  720SOL    HW1 2181   2.127   1.790   2.399
  720SOL    HW2 2182   2.137   1.713   2.255
  721SOL     OW 2183   2.092   1.434   2.400
  721SOL    HW1 2184   2.066   1.530   2.400
  721SOL    HW2 2185   2.021   1.380   2.445
  722SOL     OW 2186   2.102   1.091   2.748
  722SOL    HW1 2187   2.116   1.007   2.800
  722SOL    HW2 2188   2.047   1.155   2.803
  723SOL     OW 2189   2.468   0.964   1.985
  723SOL    HW1 2190   2.475   1.048   1.931
  723SOL    HW2 2191   2.514   0.977   2.073
  724SOL     OW 2192   1.984   0.643   2.425
  724SOL    HW1 2193   1.939   0.555   2.442
  724SOL    HW2 2194   1.983   0.697   2.509
  725SOL     OW 2195   1.889   1.596   1.979
  725SOL    HW1 2196   1.870   1.500   2.000
  725SOL    HW2 2197   1.856   1.654   2.054
  726SOL     OW 2198   2.475   1.365   2.588
  726SOL    HW1 2199   2.426   1.278   2.597
  726SOL    HW2 2200   2.452   1.408   2.501
  727SOL     OW 2201   2.671   0.004   2.364
  727SOL    HW1 2202   2.711   0.095   2.355
  727SOL    HW2 2203   2.571   0.012   2.370
  728SOL     OW 2204   2.059   0.976   3.126
  728SOL    HW1 2205   2.148   0.931   3.112
  728SOL    HW2 2206   1.986   0.911   3.107
  729SOL     OW 2207   2.460   0.729   2.132
  729SOL    HW1 2208   2.484   0.798   2.064
  729SOL    HW2 2209   2.382   0.762   2.186
  730SOL     OW 2210   2.903   0.701   2.291
  730SOL    HW1 2211   2.929   0.697   2.387
  730SOL    HW2 2212   2.818   0.650   2.277
  731SOL     OW 2213   1.938   0.811   2.651
  731SOL    HW1 2214   2.037   0.799   2.660
  731SOL    HW2 2215   1.914   0.906   2.672
  732SOL     OW 2216   2.727   0.348   2.057
  732SOL    HW1 2217   2.786   0.411   2.008
  732SOL    HW2 2218   2.746   0.254   2.028
  733SOL     OW 2219   2.412   0.196   2.747
  733SOL    HW1 2220   2.407   0.191   2.847
  733SOL    HW2 2221   2.414   0.292   2.718
  734SOL     OW 2222   2.870   1.456   2.339
  734SOL    HW1 2223   2.824   1.528   2.287
  734SOL    HW2 2224   2.866   1.476   2.437
  735SOL     OW 2225   2.213   1.801   2.715
  735SOL    HW1 2226   2.263   1.715   2.721
  735SOL    HW2 2227   2.278   1.878   2.712
  736SOL     OW 2228   2.183   0.943   2.104
  736SOL    HW1 2229   2.265   0.982   2.062
  736SOL    HW2 2230   2.156   0.861   2.055
  737SOL     OW 2231   2.326   1.743   2.185
  737SOL    HW1 2232   2.359   1.782   2.271
  737SOL    HW2 2233   2.402   1.736   2.120
  738SOL     OW 2234   2.111   1.785   3.103
  738SOL    HW1 2235   2.168   1.720   3.153
  738SOL    HW2 2236   2.095   1.752   3.010
  739SOL     OW 2237   2.802   1.698   2.766
  739SOL    HW1 2238   2.882   1.641   2.787
  739SOL    HW2 2239   2.753   1.658   2.689
  740SOL     OW 2240   2.244   0.700   2.342
  740SOL    HW1 2241   2.289   0.610   2.339
  740SOL    HW2 2242   2.150   0.689   2.375
  741SOL     OW 2243   2.476   0.122   1.979
  741SOL    HW1 2244   2.574   0.100   1.986
  741SOL    HW2 2245   2.445   0.105   1.886
  742SOL     OW 2246   2.665   1.402   2.786
  742SOL    HW1 2247   2.755   1.416   2.744
  742SOL    HW2 2248   2.594   1.404   2.715
  743SOL     OW 2249   2.784   0.503   2.761
  743SOL    HW1 2250   2.759   0.494   2.665
  743SOL    HW2 2251   2.832   0.421   2.792
  744SOL     OW 2252   2.401   0.064   2.374
  744SOL    HW1 2253   2.320   0.065   2.432
  744SOL    HW2 2254   2.404   0.147   2.319
  745SOL     OW 2255   2.159   0.035   2.033
  745SOL    HW1 2256   2.208   0.119   2.012
  745SOL    HW2 2257   2.221  -0.030   2.078
  746SOL     OW 2258   2.797   0.236   2.342
  746SOL    HW1 2259   2.749   0.277   2.264
  746SOL    HW2 2260   2.896   0.234   2.323
  747SOL     OW 2261   3.089   1.570   2.655
  747SOL    HW1 2262   3.110   1.644   2.590
  747SOL    HW2 2263   3.157   1.570   2.728
  748SOL     OW 2264   2.321   1.152   2.603
  748SOL    HW1 2265   2.250   1.125   2.668
  748SOL    HW2 2266   2.295   1.124   2.510
  749SOL     OW 2267   3.133   1.797   2.453
  749SOL    HW1 2268   3.177   1.861   2.389
  749SOL    HW2 2269   3.083   1.849   2.523
  750SOL     OW 2270   2.894   0.549   1.878
  750SOL    HW1 2271   2.853   0.631   1.839
  750SOL    HW2 2272   2.958   0.575   1.951
  751SOL     OW 2273   2.728   0.454   2.504
  751SOL    HW1 2274   2.696   0.526   2.442
  751SOL    HW2 2275   2.752   0.373   2.451
  752SOL     OW 2276   2.879   0.039   2.615
  752SOL    HW1 2277   2.807   0.044   2.546
  752SOL    HW2 2278   2.855  -0.030   2.684
  753SOL     OW 2279   2.350   1.385   2.036
  753SOL    HW1 2280   2.263   1.370   2.083
  753SOL    HW2 2281   2.333   1.411   1.941
  754SOL     OW 2282   2.389   0.256   2.190
  754SOL    HW1 2283   2.416   0.197   2.115
  754SOL    HW2 2284   2.389   0.351   2.159
  755SOL     OW 2285   2.567   1.050   2.230
  755SOL    HW1 2286   2.553   1.057   2.329
  755SOL    HW2 2287   2.651   0.999   2.212
  756SOL     OW 2288   2.272   0.813   3.113
  756SOL    HW1 2289   2.358   0.825   3.163
  756SOL    HW2 2290   2.230   0.726   3.140
  757SOL     OW 2291   2.229   1.100   2.363
  757SOL    HW1 2292   2.222   1.183   2.307
  757SOL    HW2 2293   2.233   1.020   2.303
  758SOL     OW 2294   2.428   0.537   2.727
  758SOL    HW1 2295   2.440   0.603   2.653
  758SOL    HW2 2296   2.474   0.571   2.810
  759SOL     OW 2297   3.114   1.348   2.250
  759SOL    HW1 2298   3.164   1.425   2.290
  759SOL    HW2 2299   3.019   1.350   2.282
  760SOL     OW 2300   3.134   1.445   3.004
  760SOL    HW1 2301   3.181   1.458   3.091
  760SOL    HW2 2302   3.068   1.371   3.013
  761SOL     OW 2303   2.435   0.870   2.891
  761SOL    HW1 2304   2.479   0.959   2.882
  761SOL    HW2 2305   2.372   0.870   2.968
  762SOL     OW 2306   3.222   0.862   2.907
  762SOL    HW1 2307   3.147   0.862   2.841
  762SOL    HW2 2308   3.259   0.770   2.916
  763SOL     OW 2309   3.071   0.525   2.137
  763SOL    HW1 2310   3.084   0.441   2.191
  763SOL    HW2 2311   3.042   0.599   2.197
  764SOL     OW 2312   2.169   0.213   3.093
  764SOL    HW1 2313   2.146   0.250   3.183
  764SOL    HW2 2314   2.139   0.118   3.087
  765SOL     OW 2315   2.594   0.634   2.926
  765SOL    HW1 2316   2.653   0.608   2.850
  765SOL    HW2 2317   2.566   0.730   2.915
  766SOL     OW 2318   2.169   0.063   2.480
  766SOL    HW1 2319   2.158   0.157   2.513
  766SOL    HW2 2320   2.164   0.000   2.557
  767SOL     OW 2321   2.885   0.766   2.828
  767SOL    HW1 2322   2.900   0.787   2.924
  767SOL    HW2 2323   2.855   0.671   2.819
  768SOL     OW 2324   3.165   0.838   1.904
  768SOL    HW1 2325   3.199   0.745   1.919
  768SOL    HW2 2326   3.183   0.865   1.809
  769SOL     OW 2327   2.930   1.333   2.711
  769SOL    HW1 2328   2.937   1.249   2.656
  769SOL    HW2 2329   2.992   1.402   2.675
  770SOL     OW 2330   2.181   0.810   2.811
  770SOL    HW1 2331   2.274   0.846   2.816
  770SOL    HW2 2332   2.175   0.725   2.863
  771SOL     OW 2333   2.201   0.509   2.868
  771SOL    HW1 2334   2.149   0.426   2.851
  771SOL    HW2 2335   2.278   0.514   2.804
  772SOL     OW 2336   1.870   1.326   2.062
  772SOL    HW1 2337   1.777   1.347   2.031
  772SOL    HW2 2338   1.880   1.227   2.075
  773SOL     OW 2339   1.950   1.801   2.789
  773SOL    HW1 2340   1.908   1.715   2.762
  773SOL    HW2 2341   2.044   1.804   2.755
  774SOL     OW 2342   2.366   1.568   2.772
  774SOL    HW1 2343   2.432   1.642   2.781
  774SOL    HW2 2344   2.410   1.489   2.730
  775SOL     OW 2345   2.864   0.796   3.100
  775SOL    HW1 2346   2.905   0.764   3.186
  775SOL    HW2 2347   2.768   0.769   3.097
  776SOL     OW 2348   1.902   0.544   2.976
  776SOL    HW1 2349   1.987   0.511   2.935
  776SOL    HW2 2350   1.915   0.559   3.074
  777SOL     OW 2351   2.677   0.572   2.187
  777SOL    HW1 2352   2.684   0.483   2.141
  777SOL    HW2 2353   2.583   0.606   2.179
  778SOL     OW 2354   2.533   0.464   3.131
  778SOL    HW1 2355   2.499   0.375   3.101
  778SOL    HW2 2356   2.559   0.518   3.051
  779SOL     OW 2357   2.335   0.500   2.053
  779SOL    HW1 2358   2.396   0.580   2.057
  779SOL    HW2 2359   2.240   0.531   2.060
  780SOL     OW 2360   3.164   0.855   2.171
  780SOL    HW1 2361   3.078   0.824   2.213
  780SOL    HW2 2362   3.160   0.841   2.072
  781SOL     OW 2363   1.945   1.258   2.884
  781SOL    HW1 2364   1.940   1.257   2.984
  781SOL    HW2 2365   1.862   1.217   2.846
  782SOL     OW 2366   2.534   1.616   2.016
  782SOL    HW1 2367   2.543   1.626   1.917
  782SOL    HW2 2368   2.494   1.527   2.037
  783SOL     OW 2369   2.125   0.326   2.582
  783SOL    HW1 2370   2.046   0.377   2.548
  783SOL    HW2 2371   2.116   0.311   2.680
  784SOL     OW 2372   2.684   1.002   3.234
  784SOL    HW1 2373   2.724   1.001   3.142
  784SOL    HW2 2374   2.694   1.094   3.274
  785SOL     OW 2375   2.778   0.910   2.153
  785SOL    HW1 2376   2.841   0.948   2.085
  785SOL    HW2 2377   2.818   0.827   2.192
  786SOL     OW 2378   2.901   1.098   2.558
  786SOL    HW1 2379   2.831   1.051   2.612
  786SOL    HW2 2380   2.960   1.030   2.515
  787SOL     OW 2381   2.876   0.236   2.833
  787SOL    HW1 2382   2.868   0.200   2.740
  787SOL    HW2 2383   2.874   0.160   2.898
  788SOL     OW 2384   2.452   1.487   2.353
  788SOL    HW1 2385   2.494   1.429   2.283
  788SOL    HW2 2386   2.408   1.566   2.309
  789SOL     OW 2387   2.117   1.348   2.152
  789SOL    HW1 2388   2.021   1.349   2.125
  789SOL    HW2 2389   2.129   1.401   2.236
  790SOL     OW 2390   1.937   0.345   1.895
  790SOL    HW1 2391   1.845   0.317   1.866
  790SOL    HW2 2392   1.968   0.422   1.839
  791SOL     OW 2393   1.934   0.166   2.180
  791SOL    HW1 2394   1.917   0.249   2.126
  791SOL    HW2 2395   2.024   0.129   2.158
  792SOL     OW 2396   2.456   0.745   2.514
  792SOL    HW1 2397   2.506   0.830   2.495
  792SOL    HW2 2398   2.368   0.747   2.466
  793SOL     OW 2399   2.721   1.374   1.878
  793SOL    HW1 2400   2.675   1.389   1.966
  793SOL    HW2 2401   2.765   1.459   1.848
  794SOL     OW 2402   2.523   1.790   2.815
  794SOL    HW1 2403   2.477   1.878   2.802
  794SOL    HW2 2404   2.622   1.802   2.808
  795SOL     OW 2405   2.721   0.956   2.723
  795SOL    HW1 2406   2.775   0.887   2.771
  795SOL    HW2 2407   2.689   1.025   2.789
  796SOL     OW 2408   2.945   0.984   1.949
  796SOL    HW1 2409   2.922   1.037   1.867
  796SOL    HW2 2410   3.026   0.928   1.930
  797SOL     OW 2411   1.941   1.240   2.515
  797SOL    HW1 2412   1.940   1.193   2.603
  797SOL    HW2 2413   2.023   1.212   2.464
  798SOL     OW 2414   2.290   0.424   2.382
  798SOL    HW1 2415   2.320   0.352   2.320
  798SOL    HW2 2416   2.251   0.384   2.465
  799SOL     OW 2417   2.674   1.586   2.549
  799SOL    HW1 2418   2.706   1.596   2.455
  799SOL    HW2 2419   2.595   1.524   2.551
  800SOL     OW 2420   2.632   1.330   2.163
  800SOL    HW1 2421   2.586   1.243   2.180
  800SOL    HW2 2422   2.723   1.327   2.204
  801SOL     OW 2423   1.901   1.077   2.162
  801SOL    HW1 2424   2.000   1.066   2.153
  801SOL    HW2 2425   1.861   0.991   2.194
  802SOL     OW 2426   2.737   1.646   2.199
  802SOL    HW1 2427   2.660   1.611   2.145
  802SOL    HW2 2428   2.705   1.717   2.261
  803SOL     OW 2429   2.092   2.490   0.113
  803SOL    HW1 2430   1.999   2.488   0.150
  803SOL    HW2 2431   2.093   2.451   0.021
  804SOL     OW 2432   2.087   2.137   0.996
  804SOL    HW1 2433   2.122   2.120   1.088
  804SOL    HW2 2434   1.999   2.092   0.984
  805SOL     OW 2435   1.881   2.230   0.647
  805SOL    HW1 2436   1.799   2.273   0.686
  805SOL    HW2 2437   1.853   2.157   0.584
  806SOL     OW 2438   2.630   3.006   1.023
  806SOL    HW1 2439   2.552   3.023   1.083
  806SOL    HW2 2440   2.664   3.093   0.987
  807SOL     OW 2441   2.712   2.660   1.823
  807SOL    HW1 2442   2.708   2.736   1.888
  807SOL    HW2 2443   2.734   2.696   1.732
  808SOL     OW 2444   2.547   2.874   0.665
  808SOL    HW1 2445   2.616   2.858   0.735
  808SOL    HW2 2446   2.474   2.931   0.703
  809SOL     OW 2447   2.300   2.254   1.499
  809SOL    HW1 2448   2.382   2.198   1.508
  809SOL    HW2 2449   2.219   2.196   1.503
  810SOL     OW 2450   2.102   2.953   0.886
  810SOL    HW1 2451   2.116   2.869   0.938
  810SOL    HW2 2452   2.047   3.017   0.941
  811SOL     OW 2453   2.468   2.826   0.123
  811SOL    HW1 2454   2.475   2.910   0.069
  811SOL    HW2 2455   2.514   2.839   0.211
  812SOL     OW 2456   1.984   2.505   0.563
  812SOL    HW1 2457   1.939   2.417   0.580
  812SOL    HW2 2458   1.983   2.559   0.647
  813SOL     OW 2459   1.975   2.599   1.597
  813SOL    HW1 2460   2.063   2.586   1.642
  813SOL    HW2 2461   1.962   2.696   1.575
  814SOL     OW 2462   2.475   3.227   0.726
  814SOL    HW1 2463   2.426   3.140   0.735
  814SOL    HW2 2464   2.452   3.270   0.639
  815SOL     OW 2465   2.671   1.866   0.502
  815SOL    HW1 2466   2.711   1.957   0.493
  815SOL    HW2 2467   2.571   1.874   0.508
  816SOL     OW 2468   2.059   2.838   1.264
  816SOL    HW1 2469   2.148   2.793   1.250
  816SOL    HW2 2470   1.986   2.773   1.245
  817SOL     OW 2471   2.179   2.113   1.801
  817SOL    HW1 2472   2.250   2.184   1.807
  817SOL    HW2 2473   2.091   2.152   1.829
  818SOL     OW 2474   2.460   2.591   0.270
  818SOL    HW1 2475   2.484   2.660   0.202
  818SOL    HW2 2476   2.382   2.624   0.324
  819SOL     OW 2477   2.669   2.467   1.465
  819SOL    HW1 2478   2.622   2.464   1.554
  819SOL    HW2 2479   2.618   2.412   1.399
  820SOL     OW 2480   2.835   2.752   1.572
  820SOL    HW1 2481   2.881   2.668   1.543
  820SOL    HW2 2482   2.779   2.786   1.497
  821SOL     OW 2483   2.853   2.272   1.242
  821SOL    HW1 2484   2.776   2.306   1.296
  821SOL    HW2 2485   2.819   2.221   1.163
  822SOL     OW 2486   2.903   2.563   0.429
  822SOL    HW1 2487   2.929   2.559   0.525
  822SOL    HW2 2488   2.818   2.512   0.415
  823SOL     OW 2489   1.938   2.673   0.789
  823SOL    HW1 2490   2.037   2.661   0.798
  823SOL    HW2 2491   1.914   2.768   0.810
  824SOL     OW 2492   2.727   2.210   0.195
  824SOL    HW1 2493   2.786   2.273   0.146
  824SOL    HW2 2494   2.746   2.116   0.166
  825SOL     OW 2495   2.412   2.058   0.885
  825SOL    HW1 2496   2.407   2.053   0.985
  825SOL    HW2 2497   2.414   2.154   0.856
  826SOL     OW 2498   2.183   2.805   0.242
  826SOL    HW1 2499   2.265   2.844   0.200
  826SOL    HW2 2500   2.156   2.723   0.193
  827SOL     OW 2501   2.064   2.147   1.498
  827SOL    HW1 2502   1.984   2.207   1.485
  827SOL    HW2 2503   2.054   2.098   1.584
  828SOL     OW 2504   2.244   2.562   0.480
  828SOL    HW1 2505   2.289   2.472   0.477
  828SOL    HW2 2506   2.150   2.551   0.513
  829SOL     OW 2507   2.476   1.984   0.117
  829SOL    HW1 2508   2.574   1.962   0.124
  829SOL    HW2 2509   2.445   1.967   0.024
  830SOL     OW 2510   2.643   2.126   1.749
  830SOL    HW1 2511   2.710   2.065   1.792
  830SOL    HW2 2512   2.570   2.145   1.814
  831SOL     OW 2513   2.784   2.365   0.899
  831SOL    HW1 2514   2.759   2.356   0.803
  831SOL    HW2 2515   2.832   2.283   0.930
  832SOL     OW 2516   2.401   1.926   0.512
  832SOL    HW1 2517   2.320   1.927   0.570
  832SOL    HW2 2518   2.404   2.009   0.457
  833SOL     OW 2519   2.159   1.897   0.171
  833SOL    HW1 2520   2.208   1.981   0.150
  833SOL    HW2 2521   2.221   1.832   0.216
  834SOL     OW 2522   2.797   2.098   0.480
  834SOL    HW1 2523   2.749   2.139   0.402
  834SOL    HW2 2524   2.896   2.096   0.461
  835SOL     OW 2525   2.321   3.014   0.741
  835SOL    HW1 2526   2.250   2.987   0.806
  835SOL    HW2 2527   2.295   2.986   0.648
  836SOL     OW 2528   2.894   2.411   0.016
  836SOL    HW1 2529   2.853   2.493  -0.023
  836SOL    HW2 2530   2.958   2.437   0.089
  837SOL     OW 2531   1.940   2.418   1.386
  837SOL    HW1 2532   2.032   2.417   1.345
  837SOL    HW2 2533   1.934   2.492   1.453
  838SOL     OW 2534   2.423   2.084   1.147
  838SOL    HW1 2535   2.461   2.000   1.184
  838SOL    HW2 2536   2.335   2.103   1.191
  839SOL     OW 2537   2.728   2.316   0.642
  839SOL    HW1 2538   2.696   2.388   0.580
  839SOL    HW2 2539   2.752   2.235   0.589
  840SOL     OW 2540   2.879   1.901   0.753
  840SOL    HW1 2541   2.807   1.906   0.684
  840SOL    HW2 2542   2.855   1.832   0.822
  841SOL     OW 2543   2.389   2.118   0.328
  841SOL    HW1 2544   2.416   2.059   0.253
  841SOL    HW2 2545   2.389   2.213   0.297
  842SOL     OW 2546   2.777   1.951   1.402
  842SOL    HW1 2547   2.802   1.931   1.307
  842SOL    HW2 2548   2.849   2.007   1.444
  843SOL     OW 2549   2.567   2.912   0.368
  843SOL    HW1 2550   2.553   2.919   0.467
  843SOL    HW2 2551   2.651   2.861   0.350
  844SOL     OW 2552   2.272   2.675   1.251
  844SOL    HW1 2553   2.358   2.687   1.301
  844SOL    HW2 2554   2.230   2.588   1.278
  845SOL     OW 2555   2.229   2.962   0.501
  845SOL    HW1 2556   2.222   3.045   0.445
  845SOL    HW2 2557   2.233   2.882   0.441
  846SOL     OW 2558   2.428   2.399   0.865
  846SOL    HW1 2559   2.440   2.465   0.791
  846SOL    HW2 2560   2.474   2.433   0.948
  847SOL     OW 2561   2.264   2.613   1.598
  847SOL    HW1 2562   2.332   2.668   1.551
  847SOL    HW2 2563   2.304   2.525   1.625
  848SOL     OW 2564   2.875   1.967   1.770
  848SOL    HW1 2565   2.881   2.052   1.718
  848SOL    HW2 2566   2.907   1.891   1.713
  849SOL     OW 2567   2.366   1.912   1.740
  849SOL    HW1 2568   2.324   1.855   1.670
  849SOL    HW2 2569   2.300   1.981   1.772
  850SOL     OW 2570   2.435   2.732   1.029
  850SOL    HW1 2571   2.479   2.821   1.020
  850SOL    HW2 2572   2.372   2.732   1.106
  851SOL     OW 2573   3.222   2.724   1.045
  851SOL    HW1 2574   3.147   2.724   0.979
  851SOL    HW2 2575   3.259   2.632   1.054
  852SOL     OW 2576   3.071   2.387   0.275
  852SOL    HW1 2577   3.084   2.303   0.329
  852SOL    HW2 2578   3.042   2.461   0.335
  853SOL     OW 2579   2.169   2.075   1.231
  853SOL    HW1 2580   2.146   2.112   1.321
  853SOL    HW2 2581   2.139   1.980   1.225
  854SOL     OW 2582   2.594   2.496   1.064
  854SOL    HW1 2583   2.653   2.470   0.988
  854SOL    HW2 2584   2.566   2.592   1.053
  855SOL     OW 2585   2.169   1.925   0.618
  855SOL    HW1 2586   2.158   2.019   0.651
  855SOL    HW2 2587   2.164   1.862   0.695
  856SOL     OW 2588   2.885   2.628   0.966
  856SOL    HW1 2589   2.900   2.649   1.062
  856SOL    HW2 2590   2.855   2.533   0.957
  857SOL     OW 2591   2.212   2.760   1.804
  857SOL    HW1 2592   2.288   2.804   1.852
  857SOL    HW2 2593   2.247   2.713   1.722
  858SOL     OW 2594   2.181   2.672   0.949
  858SOL    HW1 2595   2.274   2.708   0.954
  858SOL    HW2 2596   2.175   2.587   1.001
  859SOL     OW 2597   2.201   2.371   1.006
  859SOL    HW1 2598   2.149   2.288   0.989
  859SOL    HW2 2599   2.278   2.376   0.942
  860SOL     OW 2600   3.000   2.242   1.678
  860SOL    HW1 2601   2.955   2.305   1.742
  860SOL    HW2 2602   3.093   2.273   1.661
  861SOL     OW 2603   3.022   2.069   1.477
  861SOL    HW1 2604   3.022   2.133   1.554
  861SOL    HW2 2605   3.050   2.117   1.394
  862SOL     OW 2606   2.864   2.658   1.238
  862SOL    HW1 2607   2.905   2.626   1.324
  862SOL    HW2 2608   2.768   2.631   1.235
  863SOL     OW 2609   1.902   2.406   1.114
  863SOL    HW1 2610   1.987   2.373   1.073
  863SOL    HW2 2611   1.915   2.421   1.212
  864SOL     OW 2612   2.051   2.382   1.722
  864SOL    HW1 2613   2.110   2.342   1.652
  864SOL    HW2 2614   1.993   2.453   1.681
  865SOL     OW 2615   2.677   2.434   0.325
  865SOL    HW1 2616   2.684   2.345   0.279
  865SOL    HW2 2617   2.583   2.468   0.317
  866SOL     OW 2618   2.533   2.326   1.269
  866SOL    HW1 2619   2.499   2.237   1.239
  866SOL    HW2 2620   2.559   2.380   1.189
  867SOL     OW 2621   2.335   2.362   0.191
  867SOL    HW1 2622   2.396   2.442   0.195
  867SOL    HW2 2623   2.240   2.393   0.198
  868SOL     OW 2624   2.021   2.999   1.466
  868SOL    HW1 2625   2.043   2.938   1.542
  868SOL    HW2 2626   2.031   2.950   1.380
  869SOL     OW 2627   3.164   2.717   0.309
  869SOL    HW1 2628   3.078   2.686   0.351
  869SOL    HW2 2629   3.160   2.703   0.210
  870SOL     OW 2630   2.765   1.948   0.133
  870SOL    HW1 2631   2.816   1.949   0.047
  870SOL    HW2 2632   2.821   1.906   0.204
  871SOL     OW 2633   2.125   2.188   0.720
  871SOL    HW1 2634   2.046   2.239   0.686
  871SOL    HW2 2635   2.116   2.173   0.818
  872SOL     OW 2636   2.684   2.864   1.372
  872SOL    HW1 2637   2.724   2.863   1.280
  872SOL    HW2 2638   2.694   2.956   1.412
  873SOL     OW 2639   2.778   2.772   0.291
  873SOL    HW1 2640   2.841   2.810   0.223
  873SOL    HW2 2641   2.818   2.689   0.330
  874SOL     OW 2642   2.234   3.150   1.490
  874SOL    HW1 2643   2.221   3.243   1.456
  874SOL    HW2 2644   2.150   3.098   1.477
  875SOL     OW 2645   2.876   2.098   0.971
  875SOL    HW1 2646   2.868   2.062   0.878
  875SOL    HW2 2647   2.874   2.022   1.036
  876SOL     OW 2648   1.967   2.875   1.726
  876SOL    HW1 2649   1.890   2.842   1.780
  876SOL    HW2 2650   2.052   2.845   1.768
  877SOL     OW 2651   2.534   2.065   1.489
  877SOL    HW1 2652   2.624   2.049   1.449
  877SOL    HW2 2653   2.542   2.070   1.588
  878SOL     OW 2654   1.934   2.028   0.318
  878SOL    HW1 2655   1.917   2.111   0.264
  878SOL    HW2 2656   2.024   1.991   0.296
  879SOL     OW 2657   2.475   2.704   1.431
  879SOL    HW1 2658   2.531   2.785   1.414
  879SOL    HW2 2659   2.534   2.624   1.434
  880SOL     OW 2660   2.578   2.427   1.708
  880SOL    HW1 2661   2.597   2.492   1.782
  880SOL    HW2 2662   2.638   2.347   1.717
  881SOL     OW 2663   2.456   2.607   0.652
  881SOL    HW1 2664   2.506   2.692   0.633
  881SOL    HW2 2665   2.368   2.609   0.604
  882SOL     OW 2666   2.721   2.818   0.861
  882SOL    HW1 2667   2.775   2.749   0.909
  882SOL    HW2 2668   2.689   2.887   0.927
  883SOL     OW 2669   2.945   2.846   0.087
  883SOL    HW1 2670   2.922   2.899   0.005
  883SOL    HW2 2671   3.026   2.790   0.068
  884SOL     OW 2672   1.941   3.102   0.653
  884SOL    HW1 2673   1.940   3.055   0.741
  884SOL    HW2 2674   2.023   3.074   0.602
  885SOL     OW 2675   2.290   2.286   0.520
  885SOL    HW1 2676   2.320   2.214   0.458
  885SOL    HW2 2677   2.251   2.246   0.603
  886SOL     OW 2678   2.179   2.409   1.280
  886SOL    HW1 2679   2.217   2.350   1.352
  886SOL    HW2 2680   2.219   2.383   1.192
  887SOL     OW 2681   2.863   1.896   1.154
  887SOL    HW1 2682   2.800   1.824   1.123
  887SOL    HW2 2683   2.956   1.860   1.154
  888SOL     OW 2684   2.632   3.192   0.301
  888SOL    HW1 2685   2.586   3.105   0.318
  888SOL    HW2 2686   2.723   3.189   0.342
  889SOL     OW 2687   2.092   2.490   1.975
  889SOL    HW1 2688   1.999   2.488   2.012
  889SOL    HW2 2689   2.093   2.451   1.883
  890SOL     OW 2690   2.087   2.137   2.858
  890SOL    HW1 2691   2.122   2.120   2.950
  890SOL    HW2 2692   1.999   2.092   2.846
  891SOL     OW 2693   1.881   2.230   2.509
  891SOL    HW1 2694   1.799   2.273   2.548
  891SOL    HW2 2695   1.853   2.157   2.446
  892SOL     OW 2696   2.630   3.006   2.885
  892SOL    HW1 2697   2.552   3.023   2.945
  892SOL    HW2 2698   2.664   3.093   2.849
  893SOL     OW 2699   2.547   2.874   2.527
  893SOL    HW1 2700   2.616   2.858   2.597
  893SOL    HW2 2701   2.474   2.931   2.565
  894SOL     OW 2702   2.102   2.953   2.748
  894SOL    HW1 2703   2.116   2.869   2.800
  894SOL    HW2 2704   2.047   3.017   2.803
  895SOL     OW 2705   2.468   2.826   1.985
  895SOL    HW1 2706   2.475   2.910   1.931
  895SOL    HW2 2707   2.514   2.839   2.073
  896SOL     OW 2708   1.984   2.505   2.425
  896SOL    HW1 2709   1.939   2.417   2.442
  896SOL    HW2 2710   1.983   2.559   2.509
  897SOL     OW 2711   2.475   3.227   2.588
  897SOL    HW1 2712   2.426   3.140   2.597
  897SOL    HW2 2713   2.452   3.270   2.501
  898SOL     OW 2714   2.671   1.866   2.364
  898SOL    HW1 2715   2.711   1.957   2.355
  898SOL    HW2 2716   2.571   1.874   2.370
  899SOL     OW 2717   2.059   2.838   3.126
  899SOL    HW1 2718   2.148   2.793   3.112
  899SOL    HW2 2719   1.986   2.773   3.107
  900SOL     OW 2720   2.460   2.591   2.132
  900SOL    HW1 2721   2.484   2.660   2.064
  900SOL    HW2 2722   2.382   2.624   2.186
  901SOL     OW 2723   2.903   2.563   2.291
  901SOL    HW1 2724   2.929   2.559   2.387
  901SOL    HW2 2725   2.818   2.512   2.277
  902SOL     OW 2726   1.938   2.673   2.651
  902SOL    HW1 2727   2.037   2.661   2.660
  902SOL    HW2 2728   1.914   2.768   2.672
  903SOL     OW 2729   2.727   2.210   2.057
  903SOL    HW1 2730   2.786   2.273   2.008
  903SOL    HW2 2731   2.746   2.116   2.028
  904SOL     OW 2732   2.412   2.058   2.747
  904SOL    HW1 2733   2.407   2.053   2.847
  904SOL    HW2 2734   2.414   2.154   2.718
  905SOL     OW 2735   2.183   2.805   2.104
  905SOL    HW1 2736   2.265   2.844   2.062
  905SOL    HW2 2737   2.156   2.723   2.055
  906SOL     OW 2738   2.244   2.562   2.342
  906SOL    HW1 2739   2.289   2.472   2.339
  906SOL    HW2 2740   2.150   2.551   2.375
  907SOL     OW 2741   2.476   1.984   1.979
  907SOL    HW1 2742   2.574   1.962   1.986
  907SOL    HW2 2743   2.445   1.967   1.886
  908SOL     OW 2744   2.750   3.376   3.057
  908SOL    HW1 2745   2.727   3.351   2.963
  908SOL    HW2 2746   2.811   3.307   3.096
  909SOL     OW 2747   2.784   2.365   2.761
  909SOL    HW1 2748   2.759   2.356   2.665
  909SOL    HW2 2749   2.832   2.283   2.792
  910SOL     OW 2750   2.401   1.926   2.374
  910SOL    HW1 2751   2.320   1.927   2.432
  910SOL    HW2 2752   2.404   2.009   2.319
  911SOL     OW 2753   2.159   1.897   2.033
  911SOL    HW1 2754   2.208   1.981   2.012
  911SOL    HW2 2755   2.221   1.832   2.078
  912SOL     OW 2756   2.797   2.098   2.342
  912SOL    HW1 2757   2.749   2.139   2.264
  912SOL    HW2 2758   2.896   2.096   2.323
  913SOL     OW 2759   2.321   3.014   2.603
  913SOL    HW1 2760   2.250   2.987   2.668
  913SOL    HW2 2761   2.295   2.986   2.510
  914SOL     OW 2762   2.894   2.411   1.878
  914SOL    HW1 2763   2.853   2.493   1.839
  914SOL    HW2 2764   2.958   2.437   1.951
  915SOL     OW 2765   2.728   2.316   2.504
  915SOL    HW1 2766   2.696   2.388   2.442
  915SOL    HW2 2767   2.752   2.235   2.451
  916SOL     OW 2768   2.879   1.901   2.615
  916SOL    HW1 2769   2.807   1.906   2.546
  916SOL    HW2 2770   2.855   1.832   2.684
  917SOL     OW 2771   2.389   2.118   2.190
  917SOL    HW1 2772   2.416   2.059   2.115
  917SOL    HW2 2773   2.389   2.213   2.159
  918SOL     OW 2774   2.567   2.912   2.230
  918SOL    HW1 2775   2.553   2.919   2.329
  918SOL    HW2 2776   2.651   2.861   2.212
  919SOL     OW 2777   2.272   2.675   3.113
  919SOL    HW1 2778   2.358   2.687   3.163
  919SOL    HW2 2779   2.230   2.588   3.140
  920SOL     OW 2780   2.229   2.962   2.363
  920SOL    HW1 2781   2.222   3.045   2.307
  920SOL    HW2 2782   2.233   2.882   2.303
  921SOL     OW 2783   2.428   2.399   2.727
  921SOL    HW1 2784   2.440   2.465   2.653
  921SOL    HW2 2785   2.474   2.433   2.810
  922SOL     OW 2786   2.435   2.732   2.891
  922SOL    HW1 2787   2.479   2.821   2.882
  922SOL    HW2 2788   2.372   2.732   2.968
  923SOL     OW 2789   3.222   2.724   2.907
  923SOL    HW1 2790   3.147   2.724   2.841
  923SOL    HW2 2791   3.259   2.632   2.916
  924SOL     OW 2792   3.071   2.387   2.137
  924SOL    HW1 2793   3.084   2.303   2.191
  924SOL    HW2 2794   3.042   2.461   2.197
  925SOL     OW 2795   2.169   2.075   3.093
  925SOL    HW1 2796   2.146   2.112   3.183
  925SOL    HW2 2797   2.139   1.980   3.087
  926SOL     OW 2798   2.594   2.496   2.926
  926SOL    HW1 2799   2.653   2.470   2.850
  926SOL    HW2 2800   2.566   2.592   2.915
  927SOL     OW 2801   2.169   1.925   2.480
  927SOL    HW1 2802   2.158   2.019   2.513
  927SOL    HW2 2803   2.164   1.862   2.557
  928SOL     OW 2804   2.885   2.628   2.828
  928SOL    HW1 2805   2.900   2.649   2.924
  928SOL    HW2 2806   2.855   2.533   2.819
  929SOL     OW 2807   3.165   2.700   1.904
  929SOL    HW1 2808   3.199   2.607   1.919
  929SOL    HW2 2809   3.183   2.727   1.809
  930SOL     OW 2810   2.181   2.672   2.811
  930SOL    HW1 2811   2.274   2.708   2.816
  930SOL    HW2 2812   2.175   2.587   2.863
  931SOL     OW 2813   2.201   2.371   2.868
  931SOL    HW1 2814   2.149   2.288   2.851
  931SOL    HW2 2815   2.278   2.376   2.804
  932SOL     OW 2816   2.864   2.658   3.100
  932SOL    HW1 2817   2.905   2.626   3.186
  932SOL    HW2 2818   2.768   2.631   3.097
  933SOL     OW 2819   1.902   2.406   2.976
  933SOL    HW1 2820   1.987   2.373   2.935
  933SOL    HW2 2821   1.915   2.421   3.074
  934SOL     OW 2822   2.677   2.434   2.187
  934SOL    HW1 2823   2.684   2.345   2.141
  934SOL    HW2 2824   2.583   2.468   2.179
  935SOL     OW 2825   2.533   2.326   3.131
  935SOL    HW1 2826   2.499   2.237   3.101
  935SOL    HW2 2827   2.559   2.380   3.051
  936SOL     OW 2828   2.335   2.362   2.053
  936SOL    HW1 2829   2.396   2.442   2.057
  936SOL    HW2 2830   2.240   2.393   2.060
  937SOL     OW 2831   2.021   2.999   3.328
  937SOL    HW1 2832   2.043   2.938   3.404
  937SOL    HW2 2833   2.031   2.950   3.242
  938SOL     OW 2834   3.164   2.717   2.171
  938SOL    HW1 2835   3.078   2.686   2.213
  938SOL    HW2 2836   3.160   2.703   2.072
  939SOL     OW 2837   2.125   2.188   2.582
  939SOL    HW1 2838   2.046   2.239   2.548
  939SOL    HW2 2839   2.116   2.173   2.680
  940SOL     OW 2840   2.684   2.864   3.234
  940SOL    HW1 2841   2.724   2.863   3.142
  940SOL    HW2 2842   2.694   2.956   3.274
  941SOL     OW 2843   2.778   2.772   2.153
  941SOL    HW1 2844   2.841   2.810   2.085
  941SOL    HW2 2845   2.818   2.689   2.192
  942SOL     OW 2846   2.876   2.098   2.833
  942SOL    HW1 2847   2.868   2.062   2.740
  942SOL    HW2 2848   2.874   2.022   2.898
  943SOL     OW 2849   1.937   2.207   1.895
  943SOL    HW1 2850   1.845   2.179   1.866
  943SOL    HW2 2851   1.968   2.284   1.839
  944SOL     OW 2852   1.934   2.028   2.180
  944SOL    HW1 2853   1.917   2.111   2.126
  944SOL    HW2 2854   2.024   1.991   2.158
  945SOL     OW 2855   2.456   2.607   2.514
  945SOL    HW1 2856   2.506   2.692   2.495
  945SOL    HW2 2857   2.368   2.609   2.466
  946SOL     OW 2858   2.721   2.818   2.723
  946SOL    HW1 2859   2.775   2.749   2.771
  946SOL    HW2 2860   2.689   2.887   2.789
  947SOL     OW 2861   2.945   2.846   1.949
  947SOL    HW1 2862   2.922   2.899   1.867
  947SOL    HW2 2863   3.026   2.790   1.930
  948SOL     OW 2864   1.941   3.102   2.515
  948SOL    HW1 2865   1.940   3.055   2.603
  948SOL    HW2 2866   2.023   3.074   2.464
  949SOL     OW 2867   2.290   2.286   2.382
  949SOL    HW1 2868   2.320   2.214   2.320
  949SOL    HW2 2869   2.251   2.246   2.465
  950SOL     OW 2870   2.632   3.192   2.163
  950SOL    HW1 2871   2.586   3.105   2.180
  950SOL    HW2 2872   2.723   3.189   2.204
  951SOL     OW 2873   1.901   2.939   2.162
  951SOL    HW1 2874   2.000   2.928   2.153
  951SOL    HW2 2875   1.861   2.853   2.194
   3.07014   3.07014   3.07014
