; mobley_5123639_GMX.itp created by acpype (v: 2023.10.27) on Thu May 14 13:34:46 2026

[ atomtypes ]
;name   bond_type     mass     charge   ptype   sigma         epsilon       Amb
 c3       c3          0.00000  0.00000   A     3.39771e-01   4.51035e-01 ; 1.91  0.1078
 oh       oh          0.00000  0.00000   A     3.24287e-01   3.89112e-01 ; 1.82  0.0930
 hc       hc          0.00000  0.00000   A     2.60018e-01   8.70272e-02 ; 1.46  0.0208
 h1       h1          0.00000  0.00000   A     2.42200e-01   8.70272e-02 ; 1.36  0.0208
 ho       ho          0.00000  0.00000   A     5.37925e-02   1.96648e-02 ; 0.30  0.0047

[ moleculetype ]
;name            nrexcl
 mobley_5123639   3

[ atoms ]
;   nr  type  resi  res  atom  cgnr     charge      mass       ; qtot   bond_type
     1   c3     1   MOL    C1    1    -0.092600     12.01000 ; qtot -0.093
     2   c3     1   MOL    C2    2    -0.092600     12.01000 ; qtot -0.185
     3   c3     1   MOL    C3    3    -0.129100     12.01000 ; qtot -0.314
     4   c3     1   MOL    C4    4    -0.104400     12.01000 ; qtot -0.419
     5   c3     1   MOL    C5    5    -0.061700     12.01000 ; qtot -0.480
     6   c3     1   MOL    C6    6     0.136100     12.01000 ; qtot -0.344
     7   oh     1   MOL    O1    7    -0.596802     16.00000 ; qtot -0.941
     8   hc     1   MOL    H1    8     0.036367      1.00800 ; qtot -0.905
     9   hc     1   MOL    H2    9     0.036367      1.00800 ; qtot -0.868
    10   hc     1   MOL    H3   10     0.036367      1.00800 ; qtot -0.832
    11   hc     1   MOL    H4   11     0.036367      1.00800 ; qtot -0.796
    12   hc     1   MOL    H5   12     0.036367      1.00800 ; qtot -0.759
    13   hc     1   MOL    H6   13     0.036367      1.00800 ; qtot -0.723
    14   hc     1   MOL    H7   14     0.041700      1.00800 ; qtot -0.681
    15   hc     1   MOL    H8   15     0.041700      1.00800 ; qtot -0.640
    16   hc     1   MOL    H9   16     0.041700      1.00800 ; qtot -0.598
    17   hc     1   MOL   H10   17     0.042200      1.00800 ; qtot -0.556
    18   hc     1   MOL   H11   18     0.042200      1.00800 ; qtot -0.513
    19   hc     1   MOL   H12   19     0.040700      1.00800 ; qtot -0.473
    20   h1     1   MOL   H13   20     0.077700      1.00800 ; qtot -0.395
    21   ho     1   MOL   H14   21     0.395000      1.00800 ; qtot -0.000

[ bonds ]
;   ai     aj funct   r             k
     1      5   1    1.5354e-01    1.9154e+05 ;     C1 - C5    
     1      8   1    1.0962e-01    2.8891e+05 ;     C1 - H1    
     1      9   1    1.0962e-01    2.8891e+05 ;     C1 - H2    
     1     10   1    1.0962e-01    2.8891e+05 ;     C1 - H3    
     2      5   1    1.5354e-01    1.9154e+05 ;     C2 - C5    
     2     11   1    1.0962e-01    2.8891e+05 ;     C2 - H4    
     2     12   1    1.0962e-01    2.8891e+05 ;     C2 - H5    
     2     13   1    1.0962e-01    2.8891e+05 ;     C2 - H6    
     3      6   1    1.5354e-01    1.9154e+05 ;     C3 - C6    
     3     14   1    1.0962e-01    2.8891e+05 ;     C3 - H7    
     3     15   1    1.0962e-01    2.8891e+05 ;     C3 - H8    
     3     16   1    1.0962e-01    2.8891e+05 ;     C3 - H9    
     4      5   1    1.5354e-01    1.9154e+05 ;     C4 - C5    
     4      6   1    1.5354e-01    1.9154e+05 ;     C4 - C6    
     4     17   1    1.0962e-01    2.8891e+05 ;     C4 - H10   
     4     18   1    1.0962e-01    2.8891e+05 ;     C4 - H11   
     5     19   1    1.0962e-01    2.8891e+05 ;     C5 - H12   
     6      7   1    1.4242e-01    2.3861e+05 ;     C6 - O1    
     6     20   1    1.0969e-01    2.8804e+05 ;     C6 - H13   
     7     21   1    9.7250e-02    4.4811e+05 ;     O1 - H14   

[ pairs ]
;   ai     aj    funct
     1      6      1 ;     C1 - C6    
     1     11      1 ;     C1 - H4    
     1     12      1 ;     C1 - H5    
     1     13      1 ;     C1 - H6    
     1     17      1 ;     C1 - H10   
     1     18      1 ;     C1 - H11   
     2      6      1 ;     C2 - C6    
     2     17      1 ;     C2 - H10   
     2     18      1 ;     C2 - H11   
     3      5      1 ;     C3 - C5    
     3     17      1 ;     C3 - H10   
     3     18      1 ;     C3 - H11   
     3     21      1 ;     C3 - H14   
     4     11      1 ;     C4 - H4    
     4     12      1 ;     C4 - H5    
     4     13      1 ;     C4 - H6    
     4     14      1 ;     C4 - H7    
     4     15      1 ;     C4 - H8    
     4     16      1 ;     C4 - H9    
     4     21      1 ;     C4 - H14   
     5      7      1 ;     C5 - O1    
     5     20      1 ;     C5 - H13   
     6     19      1 ;     C6 - H12   
     7     14      1 ;     O1 - H7    
     7     15      1 ;     O1 - H8    
     7     16      1 ;     O1 - H9    
     7     17      1 ;     O1 - H10   
     7     18      1 ;     O1 - H11   
     8      2      1 ;     H1 - C2    
     8      4      1 ;     H1 - C4    
     8     19      1 ;     H1 - H12   
     9      2      1 ;     H2 - C2    
     9      4      1 ;     H2 - C4    
     9     19      1 ;     H2 - H12   
    10      2      1 ;     H3 - C2    
    10      4      1 ;     H3 - C4    
    10     19      1 ;     H3 - H12   
    11     19      1 ;     H4 - H12   
    12     19      1 ;     H5 - H12   
    13     19      1 ;     H6 - H12   
    14     20      1 ;     H7 - H13   
    15     20      1 ;     H8 - H13   
    16     20      1 ;     H9 - H13   
    17     19      1 ;    H10 - H12   
    17     20      1 ;    H10 - H13   
    18     19      1 ;    H11 - H12   
    18     20      1 ;    H11 - H13   
    20     21      1 ;    H13 - H14   

[ angles ]
;   ai     aj     ak    funct   theta         cth
     1      5      2      1    1.1263e+02    5.0099e+02 ;     C1 - C5     - C2    
     1      5      4      1    1.1263e+02    5.0099e+02 ;     C1 - C5     - C4    
     1      5     19      1    1.0968e+02    3.6208e+02 ;     C1 - C5     - H12   
     2      5      4      1    1.1263e+02    5.0099e+02 ;     C2 - C5     - C4    
     2      5     19      1    1.0968e+02    3.6208e+02 ;     C2 - C5     - H12   
     3      6      4      1    1.1263e+02    5.0099e+02 ;     C3 - C6     - C4    
     3      6      7      1    1.0966e+02    6.4258e+02 ;     C3 - C6     - O1    
     3      6     20      1    1.0959e+02    3.6217e+02 ;     C3 - C6     - H13   
     4      5     19      1    1.0968e+02    3.6208e+02 ;     C4 - C5     - H12   
     4      6      7      1    1.0966e+02    6.4258e+02 ;     C4 - C6     - O1    
     4      6     20      1    1.0959e+02    3.6217e+02 ;     C4 - C6     - H13   
     5      1      8      1    1.0968e+02    3.6208e+02 ;     C5 - C1     - H1    
     5      1      9      1    1.0968e+02    3.6208e+02 ;     C5 - C1     - H2    
     5      1     10      1    1.0968e+02    3.6208e+02 ;     C5 - C1     - H3    
     5      2     11      1    1.0968e+02    3.6208e+02 ;     C5 - C2     - H4    
     5      2     12      1    1.0968e+02    3.6208e+02 ;     C5 - C2     - H5    
     5      2     13      1    1.0968e+02    3.6208e+02 ;     C5 - C2     - H6    
     5      4      6      1    1.1263e+02    5.0099e+02 ;     C5 - C4     - C6    
     5      4     17      1    1.0968e+02    3.6208e+02 ;     C5 - C4     - H10   
     5      4     18      1    1.0968e+02    3.6208e+02 ;     C5 - C4     - H11   
     6      3     14      1    1.0968e+02    3.6208e+02 ;     C6 - C3     - H7    
     6      3     15      1    1.0968e+02    3.6208e+02 ;     C6 - C3     - H8    
     6      3     16      1    1.0968e+02    3.6208e+02 ;     C6 - C3     - H9    
     6      4     17      1    1.0968e+02    3.6208e+02 ;     C6 - C4     - H10   
     6      4     18      1    1.0968e+02    3.6208e+02 ;     C6 - C4     - H11   
     6      7     21      1    1.0739e+02    5.4501e+02 ;     C6 - O1     - H14   
     7      6     20      1    1.1038e+02    4.7103e+02 ;     O1 - C6     - H13   
     8      1      9      1    1.0773e+02    2.9957e+02 ;     H1 - C1     - H2    
     8      1     10      1    1.0773e+02    2.9957e+02 ;     H1 - C1     - H3    
     9      1     10      1    1.0773e+02    2.9957e+02 ;     H2 - C1     - H3    
    11      2     12      1    1.0773e+02    2.9957e+02 ;     H4 - C2     - H5    
    11      2     13      1    1.0773e+02    2.9957e+02 ;     H4 - C2     - H6    
    12      2     13      1    1.0773e+02    2.9957e+02 ;     H5 - C2     - H6    
    14      3     15      1    1.0773e+02    2.9957e+02 ;     H7 - C3     - H8    
    14      3     16      1    1.0773e+02    2.9957e+02 ;     H7 - C3     - H9    
    15      3     16      1    1.0773e+02    2.9957e+02 ;     H8 - C3     - H9    
    17      4     18      1    1.0773e+02    2.9957e+02 ;    H10 - C4     - H11   

[ dihedrals ] ; propers
; for gromacs 4.5 or higher, using funct 9
;    i      j      k      l   func   phase     kd      pn
     1      5      2     11      9     0.00   0.54392   3 ;     C1-    C5-    C2-    H4
     1      5      2     12      9     0.00   0.54392   3 ;     C1-    C5-    C2-    H5
     1      5      2     13      9     0.00   0.54392   3 ;     C1-    C5-    C2-    H6
     1      5      4      6      9     0.00   2.17568   3 ;     C1-    C5-    C4-    C6
     1      5      4     17      9     0.00   0.54392   3 ;     C1-    C5-    C4-   H10
     1      5      4     18      9     0.00   0.54392   3 ;     C1-    C5-    C4-   H11
     2      5      4      6      9     0.00   2.17568   3 ;     C2-    C5-    C4-    C6
     2      5      4     17      9     0.00   0.54392   3 ;     C2-    C5-    C4-   H10
     2      5      4     18      9     0.00   0.54392   3 ;     C2-    C5-    C4-   H11
     3      6      4      5      9     0.00   2.17568   3 ;     C3-    C6-    C4-    C5
     3      6      4     17      9     0.00   0.54392   3 ;     C3-    C6-    C4-   H10
     3      6      4     18      9     0.00   0.54392   3 ;     C3-    C6-    C4-   H11
     3      6      7     21      9     0.00   0.25104   3 ;     C3-    C6-    O1-   H14
     4      5      2     11      9     0.00   0.54392   3 ;     C4-    C5-    C2-    H4
     4      5      2     12      9     0.00   0.54392   3 ;     C4-    C5-    C2-    H5
     4      5      2     13      9     0.00   0.54392   3 ;     C4-    C5-    C2-    H6
     4      6      3     14      9     0.00   0.54392   3 ;     C4-    C6-    C3-    H7
     4      6      3     15      9     0.00   0.54392   3 ;     C4-    C6-    C3-    H8
     4      6      3     16      9     0.00   0.54392   3 ;     C4-    C6-    C3-    H9
     4      6      7     21      9     0.00   0.25104   3 ;     C4-    C6-    O1-   H14
     5      4      6      7      9     0.00   0.75312   3 ;     C5-    C4-    C6-    O1
     5      4      6     20      9     0.00   0.65084   3 ;     C5-    C4-    C6-   H13
     6      4      5     19      9     0.00   0.54392   3 ;     C6-    C4-    C5-   H12
     7      6      3     14      9     0.00   0.37656   3 ;     O1-    C6-    C3-    H7
     7      6      3     15      9     0.00   0.37656   3 ;     O1-    C6-    C3-    H8
     7      6      3     16      9     0.00   0.37656   3 ;     O1-    C6-    C3-    H9
     7      6      4     17      9     0.00   0.37656   3 ;     O1-    C6-    C4-   H10
     7      6      4     18      9     0.00   0.37656   3 ;     O1-    C6-    C4-   H11
     8      1      5      2      9     0.00   0.54392   3 ;     H1-    C1-    C5-    C2
     8      1      5      4      9     0.00   0.54392   3 ;     H1-    C1-    C5-    C4
     8      1      5     19      9     0.00   0.50208   3 ;     H1-    C1-    C5-   H12
     9      1      5      2      9     0.00   0.54392   3 ;     H2-    C1-    C5-    C2
     9      1      5      4      9     0.00   0.54392   3 ;     H2-    C1-    C5-    C4
     9      1      5     19      9     0.00   0.50208   3 ;     H2-    C1-    C5-   H12
    10      1      5      2      9     0.00   0.54392   3 ;     H3-    C1-    C5-    C2
    10      1      5      4      9     0.00   0.54392   3 ;     H3-    C1-    C5-    C4
    10      1      5     19      9     0.00   0.50208   3 ;     H3-    C1-    C5-   H12
    11      2      5     19      9     0.00   0.50208   3 ;     H4-    C2-    C5-   H12
    12      2      5     19      9     0.00   0.50208   3 ;     H5-    C2-    C5-   H12
    13      2      5     19      9     0.00   0.50208   3 ;     H6-    C2-    C5-   H12
    14      3      6     20      9     0.00   0.65084   3 ;     H7-    C3-    C6-   H13
    15      3      6     20      9     0.00   0.65084   3 ;     H8-    C3-    C6-   H13
    16      3      6     20      9     0.00   0.65084   3 ;     H9-    C3-    C6-   H13
    17      4      5     19      9     0.00   0.50208   3 ;    H10-    C4-    C5-   H12
    17      4      6     20      9     0.00   0.65084   3 ;    H10-    C4-    C6-   H13
    18      4      5     19      9     0.00   0.50208   3 ;    H11-    C4-    C5-   H12
    18      4      6     20      9     0.00   0.65084   3 ;    H11-    C4-    C6-   H13
    20      6      7     21      9     0.00   0.51463   3 ;    H13-    C6-    O1-   H14
