; mobley_1323538_GMX.itp created by acpype (v: 2023.10.27) on Thu May 14 13:48:30 2026

[ atomtypes ]
;name   bond_type     mass     charge   ptype   sigma         epsilon       Amb
 o        o           0.00000  0.00000   A     3.04812e-01   6.12119e-01 ; 1.71  0.1463
 p5       p5          0.00000  0.00000   A     3.69402e-01   9.60228e-01 ; 2.07  0.2295
 os       os          0.00000  0.00000   A     3.15610e-01   3.03758e-01 ; 1.77  0.0726
 c3       c3          0.00000  0.00000   A     3.39771e-01   4.51035e-01 ; 1.91  0.1078
 h1       h1          0.00000  0.00000   A     2.42200e-01   8.70272e-02 ; 1.36  0.0208
 hc       hc          0.00000  0.00000   A     2.60018e-01   8.70272e-02 ; 1.46  0.0208

[ moleculetype ]
;name            nrexcl
 mobley_1323538   3

[ atoms ]
;   nr  type  resi  res  atom  cgnr     charge      mass       ; qtot   bond_type
     1    o     1   MOL    O4    1    -0.803300     16.00000 ; qtot -0.803
     2   p5     1   MOL    P1    2     1.593497     30.97000 ; qtot 0.790
     3   os     1   MOL    O1    3    -0.567867     16.00000 ; qtot 0.222
     4   c3     1   MOL    C1    4     0.167400     12.01000 ; qtot 0.390
     5   h1     1   MOL   H11    5     0.044700      1.00800 ; qtot 0.434
     6   h1     1   MOL   H12    6     0.044700      1.00800 ; qtot 0.479
     7   c3     1   MOL    C4    7    -0.097100     12.01000 ; qtot 0.382
     8   hc     1   MOL   H41    8     0.048256      1.00800 ; qtot 0.430
     9   hc     1   MOL   H42    9     0.048256      1.00800 ; qtot 0.479
    10   hc     1   MOL   H43   10     0.048256      1.00800 ; qtot 0.527
    11   os     1   MOL    O2   11    -0.567867     16.00000 ; qtot -0.041
    12   c3     1   MOL    C2   12     0.167400     12.01000 ; qtot 0.126
    13   h1     1   MOL   H21   13     0.044700      1.00800 ; qtot 0.171
    14   h1     1   MOL   H22   14     0.044700      1.00800 ; qtot 0.216
    15   c3     1   MOL    C5   15    -0.097100     12.01000 ; qtot 0.119
    16   hc     1   MOL   H51   16     0.048256      1.00800 ; qtot 0.167
    17   hc     1   MOL   H52   17     0.048256      1.00800 ; qtot 0.215
    18   hc     1   MOL   H53   18     0.048256      1.00800 ; qtot 0.263
    19   os     1   MOL    O3   19    -0.567867     16.00000 ; qtot -0.304
    20   c3     1   MOL    C3   20     0.167400     12.01000 ; qtot -0.137
    21   h1     1   MOL   H31   21     0.044700      1.00800 ; qtot -0.092
    22   h1     1   MOL   H32   22     0.044700      1.00800 ; qtot -0.048
    23   c3     1   MOL    C6   23    -0.097100     12.01000 ; qtot -0.145
    24   hc     1   MOL   H61   24     0.048256      1.00800 ; qtot -0.097
    25   hc     1   MOL   H62   25     0.048256      1.00800 ; qtot -0.048
    26   hc     1   MOL   H63   26     0.048256      1.00800 ; qtot 0.000

[ bonds ]
;   ai     aj funct   r             k
     1      2   1    1.4885e-01    4.7951e+05 ;     O4 - P1    
     2      3   1    1.6182e-01    3.2434e+05 ;     P1 - O1    
     2     11   1    1.6182e-01    3.2434e+05 ;     P1 - O2    
     2     19   1    1.6182e-01    3.2434e+05 ;     P1 - O3    
     3      4   1    1.4273e-01    2.3620e+05 ;     O1 - C1    
     4      5   1    1.0969e-01    2.8804e+05 ;     C1 - H11   
     4      6   1    1.0969e-01    2.8804e+05 ;     C1 - H12   
     4      7   1    1.5354e-01    1.9154e+05 ;     C1 - C4    
     7      8   1    1.0962e-01    2.8891e+05 ;     C4 - H41   
     7      9   1    1.0962e-01    2.8891e+05 ;     C4 - H42   
     7     10   1    1.0962e-01    2.8891e+05 ;     C4 - H43   
    11     12   1    1.4273e-01    2.3620e+05 ;     O2 - C2    
    12     13   1    1.0969e-01    2.8804e+05 ;     C2 - H21   
    12     14   1    1.0969e-01    2.8804e+05 ;     C2 - H22   
    12     15   1    1.5354e-01    1.9154e+05 ;     C2 - C5    
    15     16   1    1.0962e-01    2.8891e+05 ;     C5 - H51   
    15     17   1    1.0962e-01    2.8891e+05 ;     C5 - H52   
    15     18   1    1.0962e-01    2.8891e+05 ;     C5 - H53   
    19     20   1    1.4273e-01    2.3620e+05 ;     O3 - C3    
    20     21   1    1.0969e-01    2.8804e+05 ;     C3 - H31   
    20     22   1    1.0969e-01    2.8804e+05 ;     C3 - H32   
    20     23   1    1.5354e-01    1.9154e+05 ;     C3 - C6    
    23     24   1    1.0962e-01    2.8891e+05 ;     C6 - H61   
    23     25   1    1.0962e-01    2.8891e+05 ;     C6 - H62   
    23     26   1    1.0962e-01    2.8891e+05 ;     C6 - H63   

[ pairs ]
;   ai     aj    funct
     1      4      1 ;     O4 - C1    
     1     12      1 ;     O4 - C2    
     1     20      1 ;     O4 - C3    
     2      5      1 ;     P1 - H11   
     2      6      1 ;     P1 - H12   
     2      7      1 ;     P1 - C4    
     2     13      1 ;     P1 - H21   
     2     14      1 ;     P1 - H22   
     2     15      1 ;     P1 - C5    
     2     21      1 ;     P1 - H31   
     2     22      1 ;     P1 - H32   
     2     23      1 ;     P1 - C6    
     3      8      1 ;     O1 - H41   
     3      9      1 ;     O1 - H42   
     3     10      1 ;     O1 - H43   
     3     12      1 ;     O1 - C2    
     3     20      1 ;     O1 - C3    
     4     11      1 ;     C1 - O2    
     4     19      1 ;     C1 - O3    
     5      8      1 ;    H11 - H41   
     5      9      1 ;    H11 - H42   
     5     10      1 ;    H11 - H43   
     6      8      1 ;    H12 - H41   
     6      9      1 ;    H12 - H42   
     6     10      1 ;    H12 - H43   
    11     16      1 ;     O2 - H51   
    11     17      1 ;     O2 - H52   
    11     18      1 ;     O2 - H53   
    11     20      1 ;     O2 - C3    
    12     19      1 ;     C2 - O3    
    13     16      1 ;    H21 - H51   
    13     17      1 ;    H21 - H52   
    13     18      1 ;    H21 - H53   
    14     16      1 ;    H22 - H51   
    14     17      1 ;    H22 - H52   
    14     18      1 ;    H22 - H53   
    19     24      1 ;     O3 - H61   
    19     25      1 ;     O3 - H62   
    19     26      1 ;     O3 - H63   
    21     24      1 ;    H31 - H61   
    21     25      1 ;    H31 - H62   
    21     26      1 ;    H31 - H63   
    22     24      1 ;    H32 - H61   
    22     25      1 ;    H32 - H62   
    22     26      1 ;    H32 - H63   

[ angles ]
;   ai     aj     ak    funct   theta         cth
     1      2      3      1    1.1544e+02    8.3931e+02 ;     O4 - P1     - O1    
     1      2     11      1    1.1544e+02    8.3931e+02 ;     O4 - P1     - O2    
     1      2     19      1    1.1544e+02    8.3931e+02 ;     O4 - P1     - O3    
     2      3      4      1    1.1970e+02    4.7396e+02 ;     P1 - O1     - C1    
     2     11     12      1    1.1970e+02    4.7396e+02 ;     P1 - O2     - C2    
     2     19     20      1    1.1970e+02    4.7396e+02 ;     P1 - O3     - C3    
     3      2     11      1    1.0172e+02    8.6123e+02 ;     O1 - P1     - O2    
     3      2     19      1    1.0172e+02    8.6123e+02 ;     O1 - P1     - O3    
     3      4      5      1    1.1034e+02    4.7028e+02 ;     O1 - C1     - H11   
     3      4      6      1    1.1034e+02    4.7028e+02 ;     O1 - C1     - H12   
     3      4      7      1    1.0762e+02    6.4802e+02 ;     O1 - C1     - C4    
     4      7      8      1    1.0968e+02    3.6208e+02 ;     C1 - C4     - H41   
     4      7      9      1    1.0968e+02    3.6208e+02 ;     C1 - C4     - H42   
     4      7     10      1    1.0968e+02    3.6208e+02 ;     C1 - C4     - H43   
     5      4      6      1    1.0855e+02    2.9824e+02 ;    H11 - C1     - H12   
     5      4      7      1    1.0959e+02    3.6217e+02 ;    H11 - C1     - C4    
     6      4      7      1    1.0959e+02    3.6217e+02 ;    H12 - C1     - C4    
     8      7      9      1    1.0773e+02    2.9957e+02 ;    H41 - C4     - H42   
     8      7     10      1    1.0773e+02    2.9957e+02 ;    H41 - C4     - H43   
     9      7     10      1    1.0773e+02    2.9957e+02 ;    H42 - C4     - H43   
    11      2     19      1    1.0172e+02    8.6123e+02 ;     O2 - P1     - O3    
    11     12     13      1    1.1034e+02    4.7028e+02 ;     O2 - C2     - H21   
    11     12     14      1    1.1034e+02    4.7028e+02 ;     O2 - C2     - H22   
    11     12     15      1    1.0762e+02    6.4802e+02 ;     O2 - C2     - C5    
    12     15     16      1    1.0968e+02    3.6208e+02 ;     C2 - C5     - H51   
    12     15     17      1    1.0968e+02    3.6208e+02 ;     C2 - C5     - H52   
    12     15     18      1    1.0968e+02    3.6208e+02 ;     C2 - C5     - H53   
    13     12     14      1    1.0855e+02    2.9824e+02 ;    H21 - C2     - H22   
    13     12     15      1    1.0959e+02    3.6217e+02 ;    H21 - C2     - C5    
    14     12     15      1    1.0959e+02    3.6217e+02 ;    H22 - C2     - C5    
    16     15     17      1    1.0773e+02    2.9957e+02 ;    H51 - C5     - H52   
    16     15     18      1    1.0773e+02    2.9957e+02 ;    H51 - C5     - H53   
    17     15     18      1    1.0773e+02    2.9957e+02 ;    H52 - C5     - H53   
    19     20     21      1    1.1034e+02    4.7028e+02 ;     O3 - C3     - H31   
    19     20     22      1    1.1034e+02    4.7028e+02 ;     O3 - C3     - H32   
    19     20     23      1    1.0762e+02    6.4802e+02 ;     O3 - C3     - C6    
    20     23     24      1    1.0968e+02    3.6208e+02 ;     C3 - C6     - H61   
    20     23     25      1    1.0968e+02    3.6208e+02 ;     C3 - C6     - H62   
    20     23     26      1    1.0968e+02    3.6208e+02 ;     C3 - C6     - H63   
    21     20     22      1    1.0855e+02    2.9824e+02 ;    H31 - C3     - H32   
    21     20     23      1    1.0959e+02    3.6217e+02 ;    H31 - C3     - C6    
    22     20     23      1    1.0959e+02    3.6217e+02 ;    H32 - C3     - C6    
    24     23     25      1    1.0773e+02    2.9957e+02 ;    H61 - C6     - H62   
    24     23     26      1    1.0773e+02    2.9957e+02 ;    H61 - C6     - H63   
    25     23     26      1    1.0773e+02    2.9957e+02 ;    H62 - C6     - H63   

[ dihedrals ] ; propers
; for gromacs 4.5 or higher, using funct 9
;    i      j      k      l   func   phase     kd      pn
     1      2      3      4      9     0.00   2.30120   3 ;     O4-    P1-    O1-    C1
     1      2      3      4      9     0.00   3.34720   2 ;     O4-    P1-    O1-    C1
     1      2     11     12      9     0.00   2.30120   3 ;     O4-    P1-    O2-    C2
     1      2     11     12      9     0.00   3.34720   2 ;     O4-    P1-    O2-    C2
     1      2     19     20      9     0.00   2.30120   3 ;     O4-    P1-    O3-    C3
     1      2     19     20      9     0.00   3.34720   2 ;     O4-    P1-    O3-    C3
     2      3      4      5      9     0.00   0.00000   0 ;     P1-    O1-    C1-   H11
     2      3      4      6      9     0.00   0.00000   0 ;     P1-    O1-    C1-   H12
     2      3      4      7      9     0.00   1.60247   3 ;     P1-    O1-    C1-    C4
     2      3      4      7      9   180.00  16.52680   1 ;     P1-    O1-    C1-    C4
     2     11     12     13      9     0.00   0.00000   0 ;     P1-    O2-    C2-   H21
     2     11     12     14      9     0.00   0.00000   0 ;     P1-    O2-    C2-   H22
     2     11     12     15      9     0.00   1.60247   3 ;     P1-    O2-    C2-    C5
     2     11     12     15      9   180.00  16.52680   1 ;     P1-    O2-    C2-    C5
     2     19     20     21      9     0.00   0.00000   0 ;     P1-    O3-    C3-   H31
     2     19     20     22      9     0.00   0.00000   0 ;     P1-    O3-    C3-   H32
     2     19     20     23      9     0.00   1.60247   3 ;     P1-    O3-    C3-    C6
     2     19     20     23      9   180.00  16.52680   1 ;     P1-    O3-    C3-    C6
     3      2     11     12      9     0.00  14.72768   2 ;     O1-    P1-    O2-    C2
     3      2     19     20      9     0.00  14.72768   2 ;     O1-    P1-    O3-    C3
     3      4      7      8      9     0.00   0.00000   0 ;     O1-    C1-    C4-   H41
     3      4      7      8      9     0.00   1.04600   1 ;     O1-    C1-    C4-   H41
     3      4      7      9      9     0.00   0.00000   0 ;     O1-    C1-    C4-   H42
     3      4      7      9      9     0.00   1.04600   1 ;     O1-    C1-    C4-   H42
     3      4      7     10      9     0.00   0.00000   0 ;     O1-    C1-    C4-   H43
     3      4      7     10      9     0.00   1.04600   1 ;     O1-    C1-    C4-   H43
     4      3      2     11      9     0.00  14.72768   2 ;     C1-    O1-    P1-    O2
     4      3      2     19      9     0.00  14.72768   2 ;     C1-    O1-    P1-    O3
     5      4      7      8      9     0.00   0.65084   3 ;    H11-    C1-    C4-   H41
     5      4      7      9      9     0.00   0.65084   3 ;    H11-    C1-    C4-   H42
     5      4      7     10      9     0.00   0.65084   3 ;    H11-    C1-    C4-   H43
     6      4      7      8      9     0.00   0.65084   3 ;    H12-    C1-    C4-   H41
     6      4      7      9      9     0.00   0.65084   3 ;    H12-    C1-    C4-   H42
     6      4      7     10      9     0.00   0.65084   3 ;    H12-    C1-    C4-   H43
    11      2     19     20      9     0.00  14.72768   2 ;     O2-    P1-    O3-    C3
    11     12     15     16      9     0.00   0.00000   0 ;     O2-    C2-    C5-   H51
    11     12     15     16      9     0.00   1.04600   1 ;     O2-    C2-    C5-   H51
    11     12     15     17      9     0.00   0.00000   0 ;     O2-    C2-    C5-   H52
    11     12     15     17      9     0.00   1.04600   1 ;     O2-    C2-    C5-   H52
    11     12     15     18      9     0.00   0.00000   0 ;     O2-    C2-    C5-   H53
    11     12     15     18      9     0.00   1.04600   1 ;     O2-    C2-    C5-   H53
    12     11      2     19      9     0.00  14.72768   2 ;     C2-    O2-    P1-    O3
    13     12     15     16      9     0.00   0.65084   3 ;    H21-    C2-    C5-   H51
    13     12     15     17      9     0.00   0.65084   3 ;    H21-    C2-    C5-   H52
    13     12     15     18      9     0.00   0.65084   3 ;    H21-    C2-    C5-   H53
    14     12     15     16      9     0.00   0.65084   3 ;    H22-    C2-    C5-   H51
    14     12     15     17      9     0.00   0.65084   3 ;    H22-    C2-    C5-   H52
    14     12     15     18      9     0.00   0.65084   3 ;    H22-    C2-    C5-   H53
    19     20     23     24      9     0.00   0.00000   0 ;     O3-    C3-    C6-   H61
    19     20     23     24      9     0.00   1.04600   1 ;     O3-    C3-    C6-   H61
    19     20     23     25      9     0.00   0.00000   0 ;     O3-    C3-    C6-   H62
    19     20     23     25      9     0.00   1.04600   1 ;     O3-    C3-    C6-   H62
    19     20     23     26      9     0.00   0.00000   0 ;     O3-    C3-    C6-   H63
    19     20     23     26      9     0.00   1.04600   1 ;     O3-    C3-    C6-   H63
    21     20     23     24      9     0.00   0.65084   3 ;    H31-    C3-    C6-   H61
    21     20     23     25      9     0.00   0.65084   3 ;    H31-    C3-    C6-   H62
    21     20     23     26      9     0.00   0.65084   3 ;    H31-    C3-    C6-   H63
    22     20     23     24      9     0.00   0.65084   3 ;    H32-    C3-    C6-   H61
    22     20     23     25      9     0.00   0.65084   3 ;    H32-    C3-    C6-   H62
    22     20     23     26      9     0.00   0.65084   3 ;    H32-    C3-    C6-   H63
