; mobley_8207196_GMX.itp created by acpype (v: 2023.10.27) on Thu May 14 13:49:09 2026

[ atomtypes ]
;name   bond_type     mass     charge   ptype   sigma         epsilon       Amb
 ca       ca          0.00000  0.00000   A     3.31521e-01   4.13379e-01 ; 1.86  0.0988
 c3       c3          0.00000  0.00000   A     3.39771e-01   4.51035e-01 ; 1.91  0.1078
 nb       nb          0.00000  0.00000   A     3.38417e-01   3.93714e-01 ; 1.90  0.0941
 nu       nu          0.00000  0.00000   A     3.27904e-01   6.46428e-01 ; 1.84  0.1545
 cl       cl          0.00000  0.00000   A     3.46595e-01   1.10374e+00 ; 1.95  0.2638
 hc       hc          0.00000  0.00000   A     2.60018e-01   8.70272e-02 ; 1.46  0.0208
 h1       h1          0.00000  0.00000   A     2.42200e-01   8.70272e-02 ; 1.36  0.0208
 hn       hn          0.00000  0.00000   A     1.10650e-01   4.18400e-02 ; 0.62  0.0100

[ moleculetype ]
;name            nrexcl
 mobley_8207196   3

[ atoms ]
;   nr  type  resi  res  atom  cgnr     charge      mass       ; qtot   bond_type
     1   ca     1   MOL    C1    1     0.936899     12.01000 ; qtot 0.937
     2   ca     1   MOL    C2    2     0.936899     12.01000 ; qtot 1.874
     3   ca     1   MOL    C3    3     0.807000     12.01000 ; qtot 2.681
     4   c3     1   MOL    C4    4    -0.114100     12.01000 ; qtot 2.567
     5   c3     1   MOL    C5    5    -0.114100     12.01000 ; qtot 2.453
     6   c3     1   MOL    C6    6     0.218800     12.01000 ; qtot 2.671
     7   c3     1   MOL    C7    7     0.218800     12.01000 ; qtot 2.890
     8   nb     1   MOL    N1    8    -0.839000     14.01000 ; qtot 2.051
     9   nb     1   MOL    N2    9    -0.813000     14.01000 ; qtot 1.238
    10   nb     1   MOL    N3   10    -0.813000     14.01000 ; qtot 0.425
    11   nu     1   MOL    N4   11    -0.849900     14.01000 ; qtot -0.425
    12   nu     1   MOL    N5   12    -0.849900     14.01000 ; qtot -1.275
    13   cl     1   MOL   CL1   13    -0.118000     35.45000 ; qtot -1.393
    14   hc     1   MOL    H1   14     0.046367      1.00800 ; qtot -1.346
    15   hc     1   MOL    H2   15     0.046367      1.00800 ; qtot -1.300
    16   hc     1   MOL    H3   16     0.046367      1.00800 ; qtot -1.254
    17   hc     1   MOL    H4   17     0.046367      1.00800 ; qtot -1.207
    18   hc     1   MOL    H5   18     0.046367      1.00800 ; qtot -1.161
    19   hc     1   MOL    H6   19     0.046367      1.00800 ; qtot -1.114
    20   h1     1   MOL    H7   20     0.053700      1.00800 ; qtot -1.061
    21   h1     1   MOL    H8   21     0.053700      1.00800 ; qtot -1.007
    22   h1     1   MOL    H9   22     0.053700      1.00800 ; qtot -0.953
    23   h1     1   MOL   H10   23     0.053700      1.00800 ; qtot -0.900
    24   hn     1   MOL   H11   24     0.449800      1.00800 ; qtot -0.450
    25   hn     1   MOL   H12   25     0.449800      1.00800 ; qtot -0.000

[ bonds ]
;   ai     aj funct   r             k
     1      8   1    1.3392e-01    3.2341e+05 ;     C1 - N1    
     1      9   1    1.3392e-01    3.2341e+05 ;     C1 - N2    
     1     11   1    1.3944e-01    2.6771e+05 ;     C1 - N4    
     2      8   1    1.3392e-01    3.2341e+05 ;     C2 - N1    
     2     10   1    1.3392e-01    3.2341e+05 ;     C2 - N3    
     2     12   1    1.3944e-01    2.6771e+05 ;     C2 - N5    
     3      9   1    1.3392e-01    3.2341e+05 ;     C3 - N2    
     3     10   1    1.3392e-01    3.2341e+05 ;     C3 - N3    
     3     13   1    1.7572e-01    1.5730e+05 ;     C3 - CL1   
     4      6   1    1.5354e-01    1.9154e+05 ;     C4 - C6    
     4     14   1    1.0962e-01    2.8891e+05 ;     C4 - H1    
     4     15   1    1.0962e-01    2.8891e+05 ;     C4 - H2    
     4     16   1    1.0962e-01    2.8891e+05 ;     C4 - H3    
     5      7   1    1.5354e-01    1.9154e+05 ;     C5 - C7    
     5     17   1    1.0962e-01    2.8891e+05 ;     C5 - H4    
     5     18   1    1.0962e-01    2.8891e+05 ;     C5 - H5    
     5     19   1    1.0962e-01    2.8891e+05 ;     C5 - H6    
     6     11   1    1.4590e-01    2.1658e+05 ;     C6 - N4    
     6     20   1    1.0969e-01    2.8804e+05 ;     C6 - H7    
     6     21   1    1.0969e-01    2.8804e+05 ;     C6 - H8    
     7     12   1    1.4590e-01    2.1658e+05 ;     C7 - N5    
     7     22   1    1.0969e-01    2.8804e+05 ;     C7 - H9    
     7     23   1    1.0969e-01    2.8804e+05 ;     C7 - H10   
    11     24   1    1.0137e-01    3.9538e+05 ;     N4 - H11   
    12     25   1    1.0137e-01    3.9538e+05 ;     N5 - H12   

[ pairs ]
;   ai     aj    funct
     1      4      1 ;     C1 - C4    
     1     10      1 ;     C1 - N3    
     1     12      1 ;     C1 - N5    
     1     13      1 ;     C1 - CL1   
     1     20      1 ;     C1 - H7    
     1     21      1 ;     C1 - H8    
     2      5      1 ;     C2 - C5    
     2     13      1 ;     C2 - CL1   
     2     22      1 ;     C2 - H9    
     2     23      1 ;     C2 - H10   
     3     12      1 ;     C3 - N5    
     4     24      1 ;     C4 - H11   
     5     25      1 ;     C5 - H12   
     7      8      1 ;     C7 - N1    
     7     10      1 ;     C7 - N3    
     8      3      1 ;     N1 - C3    
     8      6      1 ;     N1 - C6    
     8     24      1 ;     N1 - H11   
     8     25      1 ;     N1 - H12   
     9      2      1 ;     N2 - C2    
     9      6      1 ;     N2 - C6    
     9     24      1 ;     N2 - H11   
    10     25      1 ;     N3 - H12   
    11      2      1 ;     N4 - C2    
    11      3      1 ;     N4 - C3    
    11     14      1 ;     N4 - H1    
    11     15      1 ;     N4 - H2    
    11     16      1 ;     N4 - H3    
    12     17      1 ;     N5 - H4    
    12     18      1 ;     N5 - H5    
    12     19      1 ;     N5 - H6    
    14     20      1 ;     H1 - H7    
    14     21      1 ;     H1 - H8    
    15     20      1 ;     H2 - H7    
    15     21      1 ;     H2 - H8    
    16     20      1 ;     H3 - H7    
    16     21      1 ;     H3 - H8    
    17     22      1 ;     H4 - H9    
    17     23      1 ;     H4 - H10   
    18     22      1 ;     H5 - H9    
    18     23      1 ;     H5 - H10   
    19     22      1 ;     H6 - H9    
    19     23      1 ;     H6 - H10   
    20     24      1 ;     H7 - H11   
    21     24      1 ;     H8 - H11   
    22     25      1 ;     H9 - H12   
    23     25      1 ;    H10 - H12   

[ angles ]
;   ai     aj     ak    funct   theta         cth
     1      8      2      1    1.1724e+02    6.9580e+02 ;     C1 - N1     - C2    
     1      9      3      1    1.1724e+02    6.9580e+02 ;     C1 - N2     - C3    
     1     11      6      1    1.2373e+02    6.3513e+02 ;     C1 - N4     - C6    
     1     11     24      1    1.1473e+02    4.8083e+02 ;     C1 - N4     - H11   
     2     10      3      1    1.1724e+02    6.9580e+02 ;     C2 - N3     - C3    
     2     12      7      1    1.2373e+02    6.3513e+02 ;     C2 - N5     - C7    
     2     12     25      1    1.1473e+02    4.8083e+02 ;     C2 - N5     - H12   
     4      6     11      1    1.1053e+02    5.4986e+02 ;     C4 - C6     - N4    
     4      6     20      1    1.0959e+02    3.6217e+02 ;     C4 - C6     - H7    
     4      6     21      1    1.0959e+02    3.6217e+02 ;     C4 - C6     - H8    
     5      7     12      1    1.1053e+02    5.4986e+02 ;     C5 - C7     - N5    
     5      7     22      1    1.0959e+02    3.6217e+02 ;     C5 - C7     - H9    
     5      7     23      1    1.0959e+02    3.6217e+02 ;     C5 - C7     - H10   
     6      4     14      1    1.0968e+02    3.6208e+02 ;     C6 - C4     - H1    
     6      4     15      1    1.0968e+02    3.6208e+02 ;     C6 - C4     - H2    
     6      4     16      1    1.0968e+02    3.6208e+02 ;     C6 - C4     - H3    
     6     11     24      1    1.1531e+02    4.6024e+02 ;     C6 - N4     - H11   
     7      5     17      1    1.0968e+02    3.6208e+02 ;     C7 - C5     - H4    
     7      5     18      1    1.0968e+02    3.6208e+02 ;     C7 - C5     - H5    
     7      5     19      1    1.0968e+02    3.6208e+02 ;     C7 - C5     - H6    
     7     12     25      1    1.1531e+02    4.6024e+02 ;     C7 - N5     - H12   
     8      1      9      1    1.2730e+02    6.0886e+02 ;     N1 - C1     - N2    
     8      1     11      1    1.1717e+02    6.2132e+02 ;     N1 - C1     - N4    
     8      2     10      1    1.2730e+02    6.0886e+02 ;     N1 - C2     - N3    
     8      2     12      1    1.1717e+02    6.2132e+02 ;     N1 - C2     - N5    
     9      1     11      1    1.1717e+02    6.2132e+02 ;     N2 - C1     - N4    
     9      3     10      1    1.2730e+02    6.0886e+02 ;     N2 - C3     - N3    
     9      3     13      1    1.1619e+02    5.8158e+02 ;     N2 - C3     - CL1   
    10      2     12      1    1.1717e+02    6.2132e+02 ;     N3 - C2     - N5    
    10      3     13      1    1.1619e+02    5.8158e+02 ;     N3 - C3     - CL1   
    11      6     20      1    1.0966e+02    4.0200e+02 ;     N4 - C6     - H7    
    11      6     21      1    1.0966e+02    4.0200e+02 ;     N4 - C6     - H8    
    12      7     22      1    1.0966e+02    4.0200e+02 ;     N5 - C7     - H9    
    12      7     23      1    1.0966e+02    4.0200e+02 ;     N5 - C7     - H10   
    14      4     15      1    1.0773e+02    2.9957e+02 ;     H1 - C4     - H2    
    14      4     16      1    1.0773e+02    2.9957e+02 ;     H1 - C4     - H3    
    15      4     16      1    1.0773e+02    2.9957e+02 ;     H2 - C4     - H3    
    17      5     18      1    1.0773e+02    2.9957e+02 ;     H4 - C5     - H5    
    17      5     19      1    1.0773e+02    2.9957e+02 ;     H4 - C5     - H6    
    18      5     19      1    1.0773e+02    2.9957e+02 ;     H5 - C5     - H6    
    20      6     21      1    1.0855e+02    2.9824e+02 ;     H7 - C6     - H8    
    22      7     23      1    1.0855e+02    2.9824e+02 ;     H9 - C7     - H10   

[ dihedrals ] ; propers
; for gromacs 4.5 or higher, using funct 9
;    i      j      k      l   func   phase     kd      pn
     1      8      2     10      9   180.00  20.08320   2 ;     C1-    N1-    C2-    N3
     1      8      2     12      9   180.00  20.08320   2 ;     C1-    N1-    C2-    N5
     1      9      3     10      9   180.00  20.08320   2 ;     C1-    N2-    C3-    N3
     1      9      3     13      9   180.00  20.08320   2 ;     C1-    N2-    C3-   CL1
     1     11      6      4      9     0.00   0.00000   0 ;     C1-    N4-    C6-    C4
     1     11      6     20      9     0.00   1.75728   3 ;     C1-    N4-    C6-    H7
     1     11      6     21      9     0.00   1.75728   3 ;     C1-    N4-    C6-    H8
     2     10      3      9      9   180.00  20.08320   2 ;     C2-    N3-    C3-    N2
     2     10      3     13      9   180.00  20.08320   2 ;     C2-    N3-    C3-   CL1
     2     12      7      5      9     0.00   0.00000   0 ;     C2-    N5-    C7-    C5
     2     12      7     22      9     0.00   1.75728   3 ;     C2-    N5-    C7-    H9
     2     12      7     23      9     0.00   1.75728   3 ;     C2-    N5-    C7-   H10
     3     10      2      8      9   180.00  20.08320   2 ;     C3-    N3-    C2-    N1
     3     10      2     12      9   180.00  20.08320   2 ;     C3-    N3-    C2-    N5
     4      6     11     24      9     0.00   0.00000   0 ;     C4-    C6-    N4-   H11
     5      7     12     25      9     0.00   0.00000   0 ;     C5-    C7-    N5-   H12
     7     12      2      8      9   180.00   4.39320   2 ;     C7-    N5-    C2-    N1
     7     12      2     10      9   180.00   4.39320   2 ;     C7-    N5-    C2-    N3
     8      1      9      3      9   180.00  20.08320   2 ;     N1-    C1-    N2-    C3
     8      1     11      6      9   180.00   4.39320   2 ;     N1-    C1-    N4-    C6
     8      1     11     24      9   180.00   4.39320   2 ;     N1-    C1-    N4-   H11
     8      2     12     25      9   180.00   4.39320   2 ;     N1-    C2-    N5-   H12
     9      1      8      2      9   180.00  20.08320   2 ;     N2-    C1-    N1-    C2
     9      1     11      6      9   180.00   4.39320   2 ;     N2-    C1-    N4-    C6
     9      1     11     24      9   180.00   4.39320   2 ;     N2-    C1-    N4-   H11
    10      2     12     25      9   180.00   4.39320   2 ;     N3-    C2-    N5-   H12
    11      1      8      2      9   180.00  20.08320   2 ;     N4-    C1-    N1-    C2
    11      1      9      3      9   180.00  20.08320   2 ;     N4-    C1-    N2-    C3
    11      6      4     14      9     0.00   0.65084   3 ;     N4-    C6-    C4-    H1
    11      6      4     15      9     0.00   0.65084   3 ;     N4-    C6-    C4-    H2
    11      6      4     16      9     0.00   0.65084   3 ;     N4-    C6-    C4-    H3
    12      7      5     17      9     0.00   0.65084   3 ;     N5-    C7-    C5-    H4
    12      7      5     18      9     0.00   0.65084   3 ;     N5-    C7-    C5-    H5
    12      7      5     19      9     0.00   0.65084   3 ;     N5-    C7-    C5-    H6
    14      4      6     20      9     0.00   0.65084   3 ;     H1-    C4-    C6-    H7
    14      4      6     21      9     0.00   0.65084   3 ;     H1-    C4-    C6-    H8
    15      4      6     20      9     0.00   0.65084   3 ;     H2-    C4-    C6-    H7
    15      4      6     21      9     0.00   0.65084   3 ;     H2-    C4-    C6-    H8
    16      4      6     20      9     0.00   0.65084   3 ;     H3-    C4-    C6-    H7
    16      4      6     21      9     0.00   0.65084   3 ;     H3-    C4-    C6-    H8
    17      5      7     22      9     0.00   0.65084   3 ;     H4-    C5-    C7-    H9
    17      5      7     23      9     0.00   0.65084   3 ;     H4-    C5-    C7-   H10
    18      5      7     22      9     0.00   0.65084   3 ;     H5-    C5-    C7-    H9
    18      5      7     23      9     0.00   0.65084   3 ;     H5-    C5-    C7-   H10
    19      5      7     22      9     0.00   0.65084   3 ;     H6-    C5-    C7-    H9
    19      5      7     23      9     0.00   0.65084   3 ;     H6-    C5-    C7-   H10
    20      6     11     24      9     0.00   0.00000   0 ;     H7-    C6-    N4-   H11
    21      6     11     24      9     0.00   0.00000   0 ;     H8-    C6-    N4-   H11
    22      7     12     25      9     0.00   0.00000   0 ;     H9-    C7-    N5-   H12
    23      7     12     25      9     0.00   0.00000   0 ;    H10-    C7-    N5-   H12

[ dihedrals ] ; impropers
; treated as propers in GROMACS to use correct AMBER analytical function
;    i      j      k      l   func   phase     kd      pn
     6      1     11     24      4   180.00   4.60240   2 ;     C6-    C1-    N4-   H11
     7      2     12     25      4   180.00   4.60240   2 ;     C7-    C2-    N5-   H12
     8     10      2     12      4   180.00   4.60240   2 ;     N1-    N3-    C2-    N5
    11      1      9      8      4   180.00   4.60240   2 ;     N4-    C1-    N2-    N1
    13      9      3     10      4   180.00   4.60240   2 ;    CL1-    N2-    C3-    N3
