mobley_2771569_GMX.gro created by acpype (v: 2023.10.27) on Thu May 14 13:40:08 2026
 1711
    1MOL     C1    1   1.264   1.407   1.163
    1MOL     C2    2   1.304   1.171   1.169
    1MOL     C3    3   1.288   1.416   1.314
    1MOL     C4    4   1.328   1.178   1.320
    1MOL     C5    5   1.276   1.297   1.524
    1MOL     N1    6   1.338   1.297   1.103
    1MOL     N2    7   1.253   1.289   1.380
    1MOL     H1    8   1.157   1.396   1.142
    1MOL     H2    9   1.296   1.501   1.117
    1MOL     H3   10   1.365   1.090   1.127
    1MOL     H4   11   1.199   1.145   1.149
    1MOL     H5   12   1.393   1.442   1.334
    1MOL     H6   13   1.226   1.497   1.355
    1MOL     H7   14   1.296   1.083   1.365
    1MOL     H8   15   1.436   1.189   1.340
    1MOL     H9   16   1.186   1.329   1.576
    1MOL    H10   17   1.357   1.368   1.545
    1MOL    H11   18   1.306   1.199   1.562
    1MOL    H12   19   1.316   1.290   1.004
    2SOL     OW   20   0.230   0.628   0.113
    2SOL    HW1   21   0.137   0.626   0.150
    2SOL    HW2   22   0.231   0.589   0.021
    3SOL     OW   23   0.225   0.275   0.996
    3SOL    HW1   24   0.260   0.258   1.088
    3SOL    HW2   25   0.137   0.230   0.984
    4SOL     OW   26   0.019   0.368   0.647
    4SOL    HW1   27  -0.063   0.411   0.686
    4SOL    HW2   28  -0.009   0.295   0.584
    5SOL     OW   29   0.569   1.275   1.165
    5SOL    HW1   30   0.476   1.268   1.128
    5SOL    HW2   31   0.580   1.364   1.209
    6SOL     OW   32   1.555   1.511   0.703
    6SOL    HW1   33   1.498   1.495   0.784
    6SOL    HW2   34   1.496   1.521   0.623
    7SOL     OW   35   1.135   0.703   0.717
    7SOL    HW1   36   1.192   0.781   0.692
    7SOL    HW2   37   1.075   0.729   0.793
    8SOL     OW   38   1.755   0.607   0.231
    8SOL    HW1   39   1.743   0.594   0.132
    8SOL    HW2   40   1.725   0.526   0.280
    9SOL     OW   41   0.768   1.144   1.023
    9SOL    HW1   42   0.690   1.161   1.083
    9SOL    HW2   43   0.802   1.231   0.987
   10SOL     OW   44   0.850   0.798   1.823
   10SOL    HW1   45   0.846   0.874   1.888
   10SOL    HW2   46   0.872   0.834   1.732
   11SOL     OW   47   0.685   1.012   0.665
   11SOL    HW1   48   0.754   0.996   0.735
   11SOL    HW2   49   0.612   1.069   0.703
   12SOL     OW   50   0.686   1.161   1.803
   12SOL    HW1   51   0.746   1.240   1.817
   12SOL    HW2   52   0.600   1.192   1.762
   13SOL     OW   53   0.335   1.435   1.061
   13SOL    HW1   54   0.257   1.404   1.008
   13SOL    HW2   55   0.393   1.493   1.004
   14SOL     OW   56   0.438   0.392   1.499
   14SOL    HW1   57   0.520   0.336   1.508
   14SOL    HW2   58   0.357   0.334   1.503
   15SOL     OW   59   1.603   0.447   0.737
   15SOL    HW1   60   1.529   0.493   0.687
   15SOL    HW2   61   1.654   0.515   0.790
   16SOL     OW   62   0.231   1.713   0.483
   16SOL    HW1   63   0.265   1.790   0.537
   16SOL    HW2   64   0.275   1.713   0.393
   17SOL     OW   65   0.230   1.434   0.538
   17SOL    HW1   66   0.204   1.530   0.538
   17SOL    HW2   67   0.159   1.380   0.583
   18SOL     OW   68   0.240   1.091   0.886
   18SOL    HW1   69   0.254   1.007   0.938
   18SOL    HW2   70   0.185   1.155   0.941
   19SOL     OW   71   0.620   1.786   1.439
   19SOL    HW1   72   0.528   1.769   1.474
   19SOL    HW2   73   0.648   1.878   1.465
   20SOL     OW   74   0.606   0.964   0.123
   20SOL    HW1   75   0.613   1.048   0.069
   20SOL    HW2   76   0.652   0.977   0.211
   21SOL     OW   77   1.594   0.114   1.480
   21SOL    HW1   78   1.576   0.181   1.408
   21SOL    HW2   79   1.591   0.160   1.569
   22SOL     OW   80   0.122   0.643   0.563
   22SOL    HW1   81   0.077   0.555   0.580
   22SOL    HW2   82   0.121   0.697   0.647
   23SOL     OW   83   1.842   1.767   0.359
   23SOL    HW1   84   1.896   1.738   0.439
   23SOL    HW2   85   1.872   1.857   0.330
   24SOL     OW   86   0.027   1.596   0.117
   24SOL    HW1   87   0.008   1.500   0.138
   24SOL    HW2   88  -0.006   1.654   0.192
   25SOL     OW   89   1.689   0.922   0.612
   25SOL    HW1   90   1.784   0.893   0.620
   25SOL    HW2   91   1.681   0.987   0.537
   26SOL     OW   92   1.641   1.108   0.432
   26SOL    HW1   93   1.727   1.110   0.380
   26SOL    HW2   94   1.655   1.155   0.520
   27SOL     OW   95   0.113   0.737   1.597
   27SOL    HW1   96   0.201   0.724   1.642
   27SOL    HW2   97   0.100   0.834   1.575
   28SOL     OW   98   0.613   1.365   0.726
   28SOL    HW1   99   0.564   1.278   0.735
   28SOL    HW2  100   0.590   1.408   0.639
   29SOL     OW  101   0.809   0.004   0.502
   29SOL    HW1  102   0.849   0.095   0.493
   29SOL    HW2  103   0.709   0.012   0.508
   30SOL     OW  104   0.197   0.976   1.264
   30SOL    HW1  105   0.286   0.931   1.250
   30SOL    HW2  106   0.124   0.911   1.245
   31SOL     OW  107   1.525   0.999   0.190
   31SOL    HW1  108   1.462   0.923   0.203
   31SOL    HW2  109   1.573   1.017   0.276
   32SOL     OW  110   1.187   1.792   1.616
   32SOL    HW1  111   1.211   1.852   1.540
   32SOL    HW2  112   1.194   1.697   1.586
   33SOL     OW  113   0.317   0.251   1.801
   33SOL    HW1  114   0.388   0.322   1.807
   33SOL    HW2  115   0.229   0.290   1.829
   34SOL     OW  116   1.466   1.417   0.953
   34SOL    HW1  117   1.407   1.423   1.033
   34SOL    HW2  118   1.451   1.329   0.907
   35SOL     OW  119   1.667   1.714   0.572
   35SOL    HW1  120   1.626   1.691   0.484
   35SOL    HW2  121   1.649   1.640   0.637
   36SOL     OW  122   0.598   0.729   0.270
   36SOL    HW1  123   0.622   0.798   0.202
   36SOL    HW2  124   0.520   0.762   0.324
   37SOL     OW  125   1.281   0.345   0.944
   37SOL    HW1  126   1.195   0.295   0.931
   37SOL    HW2  127   1.343   0.291   1.000
   38SOL     OW  128   1.576   1.662   0.307
   38SOL    HW1  129   1.665   1.708   0.310
   38SOL    HW2  130   1.555   1.638   0.212
   39SOL     OW  131   0.807   0.605   1.465
   39SOL    HW1  132   0.760   0.602   1.554
   39SOL    HW2  133   0.756   0.550   1.399
   40SOL     OW  134   1.394   0.469   1.674
   40SOL    HW1  135   1.374   0.512   1.762
   40SOL    HW2  136   1.472   0.407   1.683
   41SOL     OW  137   0.973   0.890   1.572
   41SOL    HW1  138   1.019   0.806   1.543
   41SOL    HW2  139   0.917   0.924   1.497
   42SOL     OW  140   0.991   0.410   1.242
   42SOL    HW1  141   0.914   0.444   1.296
   42SOL    HW2  142   0.957   0.359   1.163
   43SOL     OW  143   1.041   0.701   0.429
   43SOL    HW1  144   1.067   0.697   0.525
   43SOL    HW2  145   0.956   0.650   0.415
   44SOL     OW  146   0.076   0.811   0.789
   44SOL    HW1  147   0.175   0.799   0.798
   44SOL    HW2  148   0.052   0.906   0.810
   45SOL     OW  149   0.130   1.821   1.571
   45SOL    HW1  150   0.120   1.806   1.670
   45SOL    HW2  151   0.044   1.857   1.535
   46SOL     OW  152   0.865   0.348   0.195
   46SOL    HW1  153   0.924   0.411   0.146
   46SOL    HW2  154   0.884   0.254   0.166
   47SOL     OW  155   1.719   0.585   1.831
   47SOL    HW1  156   1.693   0.674   1.795
   47SOL    HW2  157   1.717   0.517   1.758
   48SOL     OW  158   1.362   1.144   0.545
   48SOL    HW1  159   1.445   1.115   0.497
   48SOL    HW2  160   1.313   1.211   0.489
   49SOL     OW  161   0.550   0.196   0.885
   49SOL    HW1  162   0.545   0.191   0.985
   49SOL    HW2  163   0.552   0.292   0.856
   50SOL     OW  164   1.008   1.456   0.477
   50SOL    HW1  165   0.962   1.528   0.425
   50SOL    HW2  166   1.004   1.476   0.575
   51SOL     OW  167   0.351   1.801   0.853
   51SOL    HW1  168   0.401   1.715   0.859
   51SOL    HW2  169   0.416   1.878   0.850
   52SOL     OW  170   1.795   1.066   0.873
   52SOL    HW1  171   1.733   1.051   0.797
   52SOL    HW2  172   1.743   1.077   0.958
   53SOL     OW  173   0.321   0.943   0.242
   53SOL    HW1  174   0.403   0.982   0.200
   53SOL    HW2  175   0.294   0.861   0.193
   54SOL     OW  176   1.458   0.735   0.728
   54SOL    HW1  177   1.453   0.670   0.803
   54SOL    HW2  178   1.538   0.794   0.741
   55SOL     OW  179   0.461   1.266   1.727
   55SOL    HW1  180   0.411   1.267   1.641
   55SOL    HW2  181   0.398   1.248   1.803
   56SOL     OW  182   1.111   1.776   0.237
   56SOL    HW1  183   1.051   1.714   0.287
   56SOL    HW2  184   1.142   1.732   0.152
   57SOL     OW  185   0.202   0.285   1.498
   57SOL    HW1  186   0.122   0.345   1.485
   57SOL    HW2  187   0.192   0.236   1.584
   58SOL     OW  188   1.632   1.377   0.081
   58SOL    HW1  189   1.600   1.471   0.071
   58SOL    HW2  190   1.556   1.314   0.069
   59SOL     OW  191   0.464   1.743   0.323
   59SOL    HW1  192   0.497   1.782   0.409
   59SOL    HW2  193   0.540   1.736   0.258
   60SOL     OW  194   1.400   0.107   0.426
   60SOL    HW1  195   1.376   0.070   0.336
   60SOL    HW2  196   1.499   0.123   0.430
   61SOL     OW  197   0.249   1.785   1.241
   61SOL    HW1  198   0.306   1.720   1.291
   61SOL    HW2  199   0.233   1.752   1.148
   62SOL     OW  200   0.940   1.698   0.904
   62SOL    HW1  201   1.020   1.641   0.925
   62SOL    HW2  202   0.891   1.658   0.827
   63SOL     OW  203   0.382   0.700   0.480
   63SOL    HW1  204   0.427   0.610   0.477
   63SOL    HW2  205   0.288   0.689   0.513
   64SOL     OW  206   1.547   0.222   1.729
   64SOL    HW1  207   1.542   0.259   1.821
   64SOL    HW2  208   1.475   0.153   1.717
   65SOL     OW  209   0.614   0.122   0.117
   65SOL    HW1  210   0.712   0.100   0.124
   65SOL    HW2  211   0.583   0.105   0.024
   66SOL     OW  212   0.781   0.264   1.749
   66SOL    HW1  213   0.848   0.203   1.792
   66SOL    HW2  214   0.708   0.283   1.814
   67SOL     OW  215   0.888   1.514   1.195
   67SOL    HW1  216   0.865   1.489   1.101
   67SOL    HW2  217   0.949   1.445   1.234
   68SOL     OW  218   1.351   0.590   1.433
   68SOL    HW1  219   1.379   0.547   1.518
   68SOL    HW2  220   1.376   0.686   1.434
   69SOL     OW  221   0.803   1.402   0.924
   69SOL    HW1  222   0.893   1.416   0.882
   69SOL    HW2  223   0.732   1.404   0.853
   70SOL     OW  224   0.922   0.503   0.899
   70SOL    HW1  225   0.897   0.494   0.803
   70SOL    HW2  226   0.970   0.421   0.930
   71SOL     OW  227   0.539   0.064   0.512
   71SOL    HW1  228   0.458   0.065   0.570
   71SOL    HW2  229   0.542   0.147   0.457
   72SOL     OW  230   1.434   1.188   0.041
   72SOL    HW1  231   1.466   1.112   0.098
   72SOL    HW2  232   1.342   1.215   0.071
   73SOL     OW  233   0.297   0.035   0.171
   73SOL    HW1  234   0.346   0.119   0.150
   73SOL    HW2  235   0.359  -0.030   0.216
   74SOL     OW  236   0.935   0.236   0.480
   74SOL    HW1  237   0.887   0.277   0.402
   74SOL    HW2  238   1.034   0.234   0.461
   75SOL     OW  239   1.076   0.683   1.464
   75SOL    HW1  240   0.996   0.622   1.467
   75SOL    HW2  241   1.157   0.630   1.440
   76SOL     OW  242   1.227   1.570   0.793
   76SOL    HW1  243   1.248   1.644   0.728
   76SOL    HW2  244   1.295   1.570   0.866
   77SOL     OW  245   0.459   1.152   0.741
   77SOL    HW1  246   0.388   1.125   0.806
   77SOL    HW2  247   0.433   1.124   0.648
   78SOL     OW  248   1.271   1.797   0.591
   78SOL    HW1  249   1.315   1.861   0.527
   78SOL    HW2  250   1.221   1.849   0.661
   79SOL     OW  251   1.032   0.549   0.016
   79SOL    HW1  252   0.991   0.631  -0.023
   79SOL    HW2  253   1.096   0.575   0.089
   80SOL     OW  254   0.078   0.556   1.386
   80SOL    HW1  255   0.170   0.555   1.345
   80SOL    HW2  256   0.072   0.630   1.453
   81SOL     OW  257   0.561   0.222   1.147
   81SOL    HW1  258   0.599   0.138   1.184
   81SOL    HW2  259   0.473   0.241   1.191
   82SOL     OW  260   0.866   0.454   0.642
   82SOL    HW1  261   0.834   0.526   0.580
   82SOL    HW2  262   0.890   0.373   0.589
   83SOL     OW  263   1.017   0.039   0.753
   83SOL    HW1  264   0.945   0.044   0.684
   83SOL    HW2  265   0.993  -0.030   0.822
   84SOL     OW  266   1.429   1.173   0.867
   84SOL    HW1  267   1.374   1.089   0.860
   84SOL    HW2  268   1.455   1.202   0.775
   85SOL     OW  269   1.466   0.590   0.992
   85SOL    HW1  270   1.436   0.495   0.999
   85SOL    HW2  271   1.539   0.606   1.058
   86SOL     OW  272   1.857   0.833   0.377
   86SOL    HW1  273   1.899   0.769   0.441
   86SOL    HW2  274   1.819   0.782   0.299
   87SOL     OW  275   0.488   1.385   0.174
   87SOL    HW1  276   0.401   1.370   0.221
   87SOL    HW2  277   0.471   1.411   0.079
   88SOL     OW  278   1.664   1.280   0.657
   88SOL    HW1  279   1.763   1.288   0.671
   88SOL    HW2  280   1.619   1.364   0.688
   89SOL     OW  281   1.390   0.575   0.078
   89SOL    HW1  282   1.336   0.554   0.159
   89SOL    HW2  283   1.481   0.534   0.087
   90SOL     OW  284   0.527   0.256   0.328
   90SOL    HW1  285   0.554   0.197   0.253
   90SOL    HW2  286   0.527   0.351   0.297
   91SOL     OW  287   1.754   1.223   1.588
   91SOL    HW1  288   1.845   1.184   1.575
   91SOL    HW2  289   1.762   1.319   1.612
   92SOL     OW  290   1.592   1.629   1.625
   92SOL    HW1  291   1.619   1.663   1.535
   92SOL    HW2  292   1.671   1.591   1.671
   93SOL     OW  293   1.638   1.099   1.079
   93SOL    HW1  294   1.643   1.180   1.138
   93SOL    HW2  295   1.552   1.101   1.028
   94SOL     OW  296   0.915   0.089   1.402
   94SOL    HW1  297   0.940   0.069   1.307
   94SOL    HW2  298   0.987   0.145   1.444
   95SOL     OW  299   0.980   1.116   1.719
   95SOL    HW1  300   0.881   1.122   1.729
   95SOL    HW2  301   1.003   1.036   1.663
   96SOL     OW  302   0.705   1.050   0.368
   96SOL    HW1  303   0.691   1.057   0.467
   96SOL    HW2  304   0.789   0.999   0.350
   97SOL     OW  305   0.410   0.813   1.251
   97SOL    HW1  306   0.496   0.825   1.301
   97SOL    HW2  307   0.368   0.726   1.278
   98SOL     OW  308   1.274   0.386   1.262
   98SOL    HW1  309   1.295   0.460   1.326
   98SOL    HW2  310   1.185   0.403   1.219
   99SOL     OW  311   0.064   1.564   1.331
   99SOL    HW1  312   0.018   1.646   1.297
   99SOL    HW2  313   0.162   1.583   1.340
  100SOL     OW  314   0.367   1.100   0.501
  100SOL    HW1  315   0.360   1.183   0.445
  100SOL    HW2  316   0.371   1.020   0.441
  101SOL     OW  317   0.566   0.537   0.865
  101SOL    HW1  318   0.578   0.603   0.791
  101SOL    HW2  319   0.612   0.571   0.948
  102SOL     OW  320   1.252   1.348   0.388
  102SOL    HW1  321   1.302   1.425   0.428
  102SOL    HW2  322   1.157   1.350   0.420
  103SOL     OW  323   1.582   0.639   0.472
  103SOL    HW1  324   1.551   0.700   0.545
  103SOL    HW2  325   1.632   0.691   0.403
  104SOL     OW  326   0.354   1.510   1.329
  104SOL    HW1  327   0.333   1.466   1.242
  104SOL    HW2  328   0.451   1.536   1.332
  105SOL     OW  329   0.402   0.751   1.598
  105SOL    HW1  330   0.470   0.806   1.551
  105SOL    HW2  331   0.442   0.663   1.625
  106SOL     OW  332   1.587   0.779   1.670
  106SOL    HW1  333   1.495   0.817   1.665
  106SOL    HW2  334   1.647   0.826   1.605
  107SOL     OW  335   1.013   0.105   1.770
  107SOL    HW1  336   1.019   0.190   1.718
  107SOL    HW2  337   1.045   0.029   1.713
  108SOL     OW  338   0.504   0.050   1.740
  108SOL    HW1  339   0.462  -0.007   1.670
  108SOL    HW2  340   0.438   0.119   1.772
  109SOL     OW  341   0.573   0.870   1.029
  109SOL    HW1  342   0.617   0.959   1.020
  109SOL    HW2  343   0.510   0.870   1.106
  110SOL     OW  344   1.360   0.862   1.045
  110SOL    HW1  345   1.285   0.862   0.979
  110SOL    HW2  346   1.397   0.770   1.054
  111SOL     OW  347   1.209   0.525   0.275
  111SOL    HW1  348   1.222   0.441   0.329
  111SOL    HW2  349   1.180   0.599   0.335
  112SOL     OW  350   0.307   0.213   1.231
  112SOL    HW1  351   0.284   0.250   1.321
  112SOL    HW2  352   0.277   0.118   1.225
  113SOL     OW  353   0.037   1.310   1.282
  113SOL    HW1  354   0.090   1.261   1.350
  113SOL    HW2  355   0.059   1.408   1.287
  114SOL     OW  356   0.732   0.634   1.064
  114SOL    HW1  357   0.791   0.608   0.988
  114SOL    HW2  358   0.704   0.730   1.053
  115SOL     OW  359   1.728   0.935   1.854
  115SOL    HW1  360   1.682   0.928   1.765
  115SOL    HW2  361   1.666   0.979   1.920
  116SOL     OW  362   0.307   0.063   0.618
  116SOL    HW1  363   0.296   0.157   0.651
  116SOL    HW2  364   0.302   0.000   0.695
  117SOL     OW  365   1.622   0.367   0.374
  117SOL    HW1  366   1.624   0.291   0.438
  117SOL    HW2  367   1.574   0.444   0.414
  118SOL     OW  368   1.023   0.766   0.966
  118SOL    HW1  369   1.038   0.787   1.062
  118SOL    HW2  370   0.993   0.671   0.957
  119SOL     OW  371   0.980   1.573   1.700
  119SOL    HW1  372   0.960   1.617   1.612
  119SOL    HW2  373   1.019   1.482   1.684
  120SOL     OW  374   1.859   1.518   1.605
  120SOL    HW1  375   1.873   1.545   1.510
  120SOL    HW2  376   1.942   1.540   1.658
  121SOL     OW  377   0.350   0.898   1.804
  121SOL    HW1  378   0.426   0.942   1.852
  121SOL    HW2  379   0.385   0.851   1.722
  122SOL     OW  380   1.540   0.274   0.125
  122SOL    HW1  381   1.479   0.199   0.148
  122SOL    HW2  382   1.562   0.326   0.208
  123SOL     OW  383   1.303   0.838   0.042
  123SOL    HW1  384   1.337   0.745   0.057
  123SOL    HW2  385   1.321   0.865  -0.053
  124SOL     OW  386   1.068   1.333   0.849
  124SOL    HW1  387   1.075   1.249   0.794
  124SOL    HW2  388   1.130   1.402   0.813
  125SOL     OW  389   0.319   0.810   0.949
  125SOL    HW1  390   0.412   0.846   0.954
  125SOL    HW2  391   0.313   0.725   1.001
  126SOL     OW  392   0.339   0.509   1.006
  126SOL    HW1  393   0.287   0.426   0.989
  126SOL    HW2  394   0.416   0.514   0.942
  127SOL     OW  395   1.138   0.380   1.678
  127SOL    HW1  396   1.093   0.443   1.742
  127SOL    HW2  397   1.231   0.411   1.661
  128SOL     OW  398   1.160   0.207   1.477
  128SOL    HW1  399   1.160   0.271   1.554
  128SOL    HW2  400   1.188   0.255   1.394
  129SOL     OW  401   0.008   1.326   0.200
  129SOL    HW1  402  -0.085   1.347   0.169
  129SOL    HW2  403   0.018   1.227   0.213
  130SOL     OW  404   0.088   1.801   0.927
  130SOL    HW1  405   0.046   1.715   0.900
  130SOL    HW2  406   0.182   1.804   0.893
  131SOL     OW  407   0.504   1.568   0.910
  131SOL    HW1  408   0.570   1.642   0.919
  131SOL    HW2  409   0.548   1.489   0.868
  132SOL     OW  410   1.002   0.796   1.238
  132SOL    HW1  411   1.043   0.764   1.324
  132SOL    HW2  412   0.906   0.769   1.235
  133SOL     OW  413   0.040   0.544   1.114
  133SOL    HW1  414   0.125   0.511   1.073
  133SOL    HW2  415   0.053   0.559   1.212
  134SOL     OW  416   0.189   0.520   1.722
  134SOL    HW1  417   0.248   0.480   1.652
  134SOL    HW2  418   0.131   0.591   1.681
  135SOL     OW  419   1.369   0.950   1.660
  135SOL    HW1  420   1.408   1.039   1.680
  135SOL    HW2  421   1.379   0.930   1.563
  136SOL     OW  422   0.815   0.572   0.325
  136SOL    HW1  423   0.822   0.483   0.279
  136SOL    HW2  424   0.721   0.606   0.317
  137SOL     OW  425   1.657   0.604   1.206
  137SOL    HW1  426   1.619   0.535   1.268
  137SOL    HW2  427   1.739   0.568   1.162
  138SOL     OW  428   0.252   1.564   1.744
  138SOL    HW1  429   0.222   1.621   1.820
  138SOL    HW2  430   0.245   1.467   1.770
  139SOL     OW  431   0.671   0.464   1.269
  139SOL    HW1  432   0.637   0.375   1.239
  139SOL    HW2  433   0.697   0.518   1.189
  140SOL     OW  434   0.930   1.678   1.465
  140SOL    HW1  435   0.906   1.660   1.370
  140SOL    HW2  436   0.960   1.772   1.475
  141SOL     OW  437   0.473   0.500   0.191
  141SOL    HW1  438   0.534   0.580   0.195
  141SOL    HW2  439   0.378   0.531   0.198
  142SOL     OW  440   0.159   1.137   1.466
  142SOL    HW1  441   0.181   1.076   1.542
  142SOL    HW2  442   0.169   1.088   1.380
  143SOL     OW  443   1.302   0.855   0.309
  143SOL    HW1  444   1.216   0.824   0.351
  143SOL    HW2  445   1.298   0.841   0.210
  144SOL     OW  446   1.759   1.747   1.154
  144SOL    HW1  447   1.820   1.777   1.081
  144SOL    HW2  448   1.721   1.658   1.132
  145SOL     OW  449   1.252   1.731   1.128
  145SOL    HW1  450   1.336   1.736   1.074
  145SOL    HW2  451   1.229   1.635   1.146
  146SOL     OW  452   0.083   1.258   1.022
  146SOL    HW1  453   0.078   1.257   1.122
  146SOL    HW2  454   0.000   1.217   0.984
  147SOL     OW  455   0.688   1.662   1.716
  147SOL    HW1  456   0.632   1.743   1.725
  147SOL    HW2  457   0.740   1.666   1.630
  148SOL     OW  458   0.903   0.086   0.133
  148SOL    HW1  459   0.954   0.087   0.047
  148SOL    HW2  460   0.959   0.044   0.204
  149SOL     OW  461   1.726   0.135   0.523
  149SOL    HW1  462   1.799   0.118   0.456
  149SOL    HW2  463   1.695   0.048   0.561
  150SOL     OW  464   1.388   1.573   0.477
  150SOL    HW1  465   1.455   1.585   0.403
  150SOL    HW2  466   1.348   1.662   0.500
  151SOL     OW  467   0.130   1.794   1.851
  151SOL    HW1  468   0.089   1.720   1.904
  151SOL    HW2  469   0.194   1.845   1.909
  152SOL     OW  470   1.280   0.927   0.672
  152SOL    HW1  471   1.340   0.846   0.674
  152SOL    HW2  472   1.320   0.996   0.612
  153SOL     OW  473   0.830   1.273   1.422
  153SOL    HW1  474   0.825   1.306   1.517
  153SOL    HW2  475   0.744   1.292   1.376
  154SOL     OW  476   0.672   1.616   0.154
  154SOL    HW1  477   0.681   1.626   0.055
  154SOL    HW2  478   0.632   1.527   0.175
  155SOL     OW  479   1.650   1.720   1.394
  155SOL    HW1  480   1.703   1.730   1.310
  155SOL    HW2  481   1.623   1.810   1.428
  156SOL     OW  482   1.841   0.175   0.963
  156SOL    HW1  483   1.880   0.090   0.927
  156SOL    HW2  484   1.743   0.177   0.944
  157SOL     OW  485   0.263   0.326   0.720
  157SOL    HW1  486   0.184   0.377   0.686
  157SOL    HW2  487   0.254   0.311   0.818
  158SOL     OW  488   1.194   1.612   0.031
  158SOL    HW1  489   1.200   1.519   0.068
  158SOL    HW2  490   1.135   1.612  -0.049
  159SOL     OW  491   0.822   1.002   1.372
  159SOL    HW1  492   0.862   1.001   1.280
  159SOL    HW2  493   0.832   1.094   1.412
  160SOL     OW  494   0.916   0.910   0.291
  160SOL    HW1  495   0.979   0.948   0.223
  160SOL    HW2  496   0.956   0.827   0.330
  161SOL     OW  497   1.504   1.607   0.044
  161SOL    HW1  498   1.412   1.644   0.051
  161SOL    HW2  499   1.542   1.627  -0.046
  162SOL     OW  500   0.372   1.288   1.490
  162SOL    HW1  501   0.359   1.381   1.456
  162SOL    HW2  502   0.288   1.236   1.477
  163SOL     OW  503   1.614   1.292   1.289
  163SOL    HW1  504   1.674   1.295   1.369
  163SOL    HW2  505   1.539   1.356   1.302
  164SOL     OW  506   1.039   1.098   0.696
  164SOL    HW1  507   0.969   1.051   0.750
  164SOL    HW2  508   1.098   1.030   0.653
  165SOL     OW  509   1.014   0.236   0.971
  165SOL    HW1  510   1.006   0.200   0.878
  165SOL    HW2  511   1.012   0.160   1.036
  166SOL     OW  512   0.590   1.487   0.491
  166SOL    HW1  513   0.632   1.429   0.421
  166SOL    HW2  514   0.546   1.566   0.447
  167SOL     OW  515   1.709   0.385   1.381
  167SOL    HW1  516   1.782   0.454   1.385
  167SOL    HW2  517   1.737   0.310   1.322
  168SOL     OW  518   0.255   1.348   0.290
  168SOL    HW1  519   0.159   1.349   0.263
  168SOL    HW2  520   0.267   1.401   0.374
  169SOL     OW  521   0.105   1.013   1.726
  169SOL    HW1  522   0.028   0.980   1.780
  169SOL    HW2  523   0.190   0.983   1.768
  170SOL     OW  524   0.672   0.203   1.489
  170SOL    HW1  525   0.762   0.187   1.449
  170SOL    HW2  526   0.680   0.208   1.588
  171SOL     OW  527   0.075   0.345   0.033
  171SOL    HW1  528  -0.017   0.317   0.004
  171SOL    HW2  529   0.106   0.422  -0.023
  172SOL     OW  530   1.440   0.856   1.398
  172SOL    HW1  531   1.383   0.908   1.335
  172SOL    HW2  532   1.536   0.868   1.374
  173SOL     OW  533   0.072   0.166   0.318
  173SOL    HW1  534   0.055   0.249   0.264
  173SOL    HW2  535   0.162   0.129   0.296
  174SOL     OW  536   1.183   1.335   0.119
  174SOL    HW1  537   1.084   1.324   0.121
  174SOL    HW2  538   1.217   1.350   0.212
  175SOL     OW  539   0.613   0.842   1.431
  175SOL    HW1  540   0.669   0.923   1.414
  175SOL    HW2  541   0.672   0.762   1.434
  176SOL     OW  542   1.493   1.767   0.959
  176SOL    HW1  543   1.526   1.831   0.890
  176SOL    HW2  544   1.559   1.761   1.034
  177SOL     OW  545   0.716   0.565   1.708
  177SOL    HW1  546   0.735   0.630   1.782
  177SOL    HW2  547   0.776   0.485   1.717
  178SOL     OW  548   1.450   1.220   1.633
  178SOL    HW1  549   1.441   1.210   1.732
  178SOL    HW2  550   1.546   1.213   1.607
  179SOL     OW  551   0.390   1.741   1.560
  179SOL    HW1  552   0.299   1.782   1.558
  179SOL    HW2  553   0.383   1.647   1.592
  180SOL     OW  554   1.674   0.883   1.254
  180SOL    HW1  555   1.647   0.794   1.217
  180SOL    HW2  556   1.675   0.951   1.181
  181SOL     OW  557   1.225   0.325   0.449
  181SOL    HW1  558   1.290   0.251   0.438
  181SOL    HW2  559   1.245   0.375   0.533
  182SOL     OW  560   0.594   0.745   0.652
  182SOL    HW1  561   0.644   0.830   0.633
  182SOL    HW2  562   0.506   0.747   0.604
  183SOL     OW  563   1.777   0.342   1.642
  183SOL    HW1  564   1.760   0.373   1.548
  183SOL    HW2  565   1.693   0.305   1.680
  184SOL     OW  566   1.730   0.934   1.517
  184SOL    HW1  567   1.768   1.025   1.532
  184SOL    HW2  568   1.722   0.917   1.418
  185SOL     OW  569   0.859   1.374   0.016
  185SOL    HW1  570   0.813   1.389   0.104
  185SOL    HW2  571   0.903   1.459  -0.014
  186SOL     OW  572   0.661   1.790   0.953
  186SOL    HW1  573   0.615   1.878   0.940
  186SOL    HW2  574   0.760   1.802   0.946
  187SOL     OW  575   0.859   0.956   0.861
  187SOL    HW1  576   0.913   0.887   0.909
  187SOL    HW2  577   0.827   1.025   0.927
  188SOL     OW  578   1.083   0.984   0.087
  188SOL    HW1  579   1.060   1.037   0.005
  188SOL    HW2  580   1.164   0.928   0.068
  189SOL     OW  581   1.861   1.569   0.851
  189SOL    HW1  582   1.790   1.557   0.781
  189SOL    HW2  583   1.862   1.490   0.911
  190SOL     OW  584   0.221   1.314   1.844
  190SOL    HW1  585   0.156   1.241   1.823
  190SOL    HW2  586   0.225   1.328   1.942
  191SOL     OW  587   0.079   1.240   0.653
  191SOL    HW1  588   0.078   1.193   0.741
  191SOL    HW2  589   0.161   1.212   0.602
  192SOL     OW  590   0.672   1.391   1.624
  192SOL    HW1  591   0.594   1.341   1.662
  192SOL    HW2  592   0.669   1.486   1.655
  193SOL     OW  593   1.824   0.192   1.227
  193SOL    HW1  594   1.820   0.102   1.271
  193SOL    HW2  595   1.827   0.181   1.128
  194SOL     OW  596   0.428   0.424   0.520
  194SOL    HW1  597   0.458   0.352   0.458
  194SOL    HW2  598   0.389   0.384   0.603
  195SOL     OW  599   1.705   1.487   1.104
  195SOL    HW1  600   1.612   1.462   1.077
  195SOL    HW2  601   1.731   1.437   1.186
  196SOL     OW  602   0.317   0.547   1.280
  196SOL    HW1  603   0.355   0.488   1.352
  196SOL    HW2  604   0.357   0.521   1.192
  197SOL     OW  605   0.812   1.586   0.687
  197SOL    HW1  606   0.844   1.596   0.593
  197SOL    HW2  607   0.733   1.524   0.689
  198SOL     OW  608   1.424   0.214   1.112
  198SOL    HW1  609   1.476   0.149   1.167
  198SOL    HW2  610   1.375   0.277   1.173
  199SOL     OW  611   1.001   0.034   1.154
  199SOL    HW1  612   0.938  -0.038   1.123
  199SOL    HW2  613   1.094  -0.002   1.154
  200SOL     OW  614   0.770   1.330   0.301
  200SOL    HW1  615   0.724   1.243   0.318
  200SOL    HW2  616   0.861   1.327   0.342
  201SOL     OW  617   0.618   1.567   1.284
  201SOL    HW1  618   0.613   1.649   1.341
  201SOL    HW2  619   0.707   1.564   1.239
  202SOL     OW  620   1.352   0.052   0.168
  202SOL    HW1  621   1.387   0.011   0.084
  202SOL    HW2  622   1.262   0.014   0.188
  203SOL     OW  623   1.300   0.453   0.691
  203SOL    HW1  624   1.241   0.533   0.695
  203SOL    HW2  625   1.315   0.418   0.784
  204SOL     OW  626   1.593   0.221   0.882
  204SOL    HW1  627   1.509   0.220   0.936
  204SOL    HW2  628   1.595   0.304   0.826
  205SOL     OW  629   0.039   1.077   0.300
  205SOL    HW1  630   0.138   1.066   0.291
  205SOL    HW2  631  -0.001   0.991   0.332
  206SOL     OW  632   0.875   1.646   0.337
  206SOL    HW1  633   0.798   1.611   0.283
  206SOL    HW2  634   0.843   1.717   0.399
  207SOL     OW  635   0.230   0.628   1.975
  207SOL    HW1  636   0.137   0.626   2.012
  207SOL    HW2  637   0.231   0.589   1.883
  208SOL     OW  638   1.755   0.607   2.093
  208SOL    HW1  639   1.743   0.594   1.994
  208SOL    HW2  640   1.725   0.526   2.142
  209SOL     OW  641   1.603   0.447   2.599
  209SOL    HW1  642   1.529   0.493   2.549
  209SOL    HW2  643   1.654   0.515   2.652
  210SOL     OW  644   0.231   1.713   2.345
  210SOL    HW1  645   0.265   1.790   2.399
  210SOL    HW2  646   0.275   1.713   2.255
  211SOL     OW  647   0.230   1.434   2.400
  211SOL    HW1  648   0.204   1.530   2.400
  211SOL    HW2  649   0.159   1.380   2.445
  212SOL     OW  650   0.606   0.964   1.985
  212SOL    HW1  651   0.613   1.048   1.931
  212SOL    HW2  652   0.652   0.977   2.073
  213SOL     OW  653   0.122   0.643   2.425
  213SOL    HW1  654   0.077   0.555   2.442
  213SOL    HW2  655   0.121   0.697   2.509
  214SOL     OW  656   1.842   1.767   2.221
  214SOL    HW1  657   1.896   1.738   2.301
  214SOL    HW2  658   1.872   1.857   2.192
  215SOL     OW  659   0.027   1.596   1.979
  215SOL    HW1  660   0.008   1.500   2.000
  215SOL    HW2  661  -0.006   1.654   2.054
  216SOL     OW  662   1.689   0.922   2.474
  216SOL    HW1  663   1.784   0.893   2.482
  216SOL    HW2  664   1.681   0.987   2.399
  217SOL     OW  665   1.641   1.108   2.294
  217SOL    HW1  666   1.727   1.110   2.242
  217SOL    HW2  667   1.655   1.155   2.382
  218SOL     OW  668   0.613   1.365   2.588
  218SOL    HW1  669   0.564   1.278   2.597
  218SOL    HW2  670   0.590   1.408   2.501
  219SOL     OW  671   0.809   0.004   2.364
  219SOL    HW1  672   0.849   0.095   2.355
  219SOL    HW2  673   0.709   0.012   2.370
  220SOL     OW  674   1.525   0.999   2.052
  220SOL    HW1  675   1.462   0.923   2.065
  220SOL    HW2  676   1.573   1.017   2.138
  221SOL     OW  677   1.466   1.417   2.815
  221SOL    HW1  678   1.407   1.423   2.895
  221SOL    HW2  679   1.451   1.329   2.769
  222SOL     OW  680   0.598   0.729   2.132
  222SOL    HW1  681   0.622   0.798   2.064
  222SOL    HW2  682   0.520   0.762   2.186
  223SOL     OW  683   1.281   0.345   2.806
  223SOL    HW1  684   1.195   0.295   2.793
  223SOL    HW2  685   1.343   0.291   2.862
  224SOL     OW  686   1.576   1.662   2.169
  224SOL    HW1  687   1.665   1.708   2.172
  224SOL    HW2  688   1.555   1.638   2.074
  225SOL     OW  689   1.041   0.701   2.291
  225SOL    HW1  690   1.067   0.697   2.387
  225SOL    HW2  691   0.956   0.650   2.277
  226SOL     OW  692   0.076   0.811   2.651
  226SOL    HW1  693   0.175   0.799   2.660
  226SOL    HW2  694   0.052   0.906   2.672
  227SOL     OW  695   0.865   0.348   2.057
  227SOL    HW1  696   0.924   0.411   2.008
  227SOL    HW2  697   0.884   0.254   2.028
  228SOL     OW  698   1.362   1.144   2.407
  228SOL    HW1  699   1.445   1.115   2.359
  228SOL    HW2  700   1.313   1.211   2.351
  229SOL     OW  701   1.008   1.456   2.339
  229SOL    HW1  702   0.962   1.528   2.287
  229SOL    HW2  703   1.004   1.476   2.437
  230SOL     OW  704   0.351   1.801   2.715
  230SOL    HW1  705   0.401   1.715   2.721
  230SOL    HW2  706   0.416   1.878   2.712
  231SOL     OW  707   1.795   1.066   2.735
  231SOL    HW1  708   1.733   1.051   2.659
  231SOL    HW2  709   1.743   1.077   2.820
  232SOL     OW  710   0.321   0.943   2.104
  232SOL    HW1  711   0.403   0.982   2.062
  232SOL    HW2  712   0.294   0.861   2.055
  233SOL     OW  713   1.111   1.776   2.099
  233SOL    HW1  714   1.051   1.714   2.149
  233SOL    HW2  715   1.142   1.732   2.014
  234SOL     OW  716   1.632   1.377   1.943
  234SOL    HW1  717   1.600   1.471   1.933
  234SOL    HW2  718   1.556   1.314   1.931
  235SOL     OW  719   0.464   1.743   2.185
  235SOL    HW1  720   0.497   1.782   2.271
  235SOL    HW2  721   0.540   1.736   2.120
  236SOL     OW  722   1.400   0.107   2.288
  236SOL    HW1  723   1.376   0.070   2.198
  236SOL    HW2  724   1.499   0.123   2.292
  237SOL     OW  725   0.382   0.700   2.342
  237SOL    HW1  726   0.427   0.610   2.339
  237SOL    HW2  727   0.288   0.689   2.375
  238SOL     OW  728   0.614   0.122   1.979
  238SOL    HW1  729   0.712   0.100   1.986
  238SOL    HW2  730   0.583   0.105   1.886
  239SOL     OW  731   0.539   0.064   2.374
  239SOL    HW1  732   0.458   0.065   2.432
  239SOL    HW2  733   0.542   0.147   2.319
  240SOL     OW  734   1.434   1.188   1.903
  240SOL    HW1  735   1.466   1.112   1.960
  240SOL    HW2  736   1.342   1.215   1.933
  241SOL     OW  737   0.297   0.035   2.033
  241SOL    HW1  738   0.346   0.119   2.012
  241SOL    HW2  739   0.359  -0.030   2.078
  242SOL     OW  740   0.935   0.236   2.342
  242SOL    HW1  741   0.887   0.277   2.264
  242SOL    HW2  742   1.034   0.234   2.323
  243SOL     OW  743   0.459   1.152   2.603
  243SOL    HW1  744   0.388   1.125   2.668
  243SOL    HW2  745   0.433   1.124   2.510
  244SOL     OW  746   1.271   1.797   2.453
  244SOL    HW1  747   1.315   1.861   2.389
  244SOL    HW2  748   1.221   1.849   2.523
  245SOL     OW  749   1.032   0.549   1.878
  245SOL    HW1  750   0.991   0.631   1.839
  245SOL    HW2  751   1.096   0.575   1.951
  246SOL     OW  752   0.866   0.454   2.504
  246SOL    HW1  753   0.834   0.526   2.442
  246SOL    HW2  754   0.890   0.373   2.451
  247SOL     OW  755   1.857   0.833   2.239
  247SOL    HW1  756   1.899   0.769   2.303
  247SOL    HW2  757   1.819   0.782   2.161
  248SOL     OW  758   0.488   1.385   2.036
  248SOL    HW1  759   0.401   1.370   2.083
  248SOL    HW2  760   0.471   1.411   1.941
  249SOL     OW  761   1.390   0.575   1.940
  249SOL    HW1  762   1.336   0.554   2.021
  249SOL    HW2  763   1.481   0.534   1.949
  250SOL     OW  764   0.527   0.256   2.190
  250SOL    HW1  765   0.554   0.197   2.115
  250SOL    HW2  766   0.527   0.351   2.159
  251SOL     OW  767   0.705   1.050   2.230
  251SOL    HW1  768   0.691   1.057   2.329
  251SOL    HW2  769   0.789   0.999   2.212
  252SOL     OW  770   0.367   1.100   2.363
  252SOL    HW1  771   0.360   1.183   2.307
  252SOL    HW2  772   0.371   1.020   2.303
  253SOL     OW  773   1.252   1.348   2.250
  253SOL    HW1  774   1.302   1.425   2.290
  253SOL    HW2  775   1.157   1.350   2.282
  254SOL     OW  776   1.582   0.639   2.334
  254SOL    HW1  777   1.551   0.700   2.407
  254SOL    HW2  778   1.632   0.691   2.265
  255SOL     OW  779   1.209   0.525   2.137
  255SOL    HW1  780   1.222   0.441   2.191
  255SOL    HW2  781   1.180   0.599   2.197
  256SOL     OW  782   0.307   0.063   2.480
  256SOL    HW1  783   0.296   0.157   2.513
  256SOL    HW2  784   0.302   0.000   2.557
  257SOL     OW  785   1.622   0.367   2.236
  257SOL    HW1  786   1.624   0.291   2.300
  257SOL    HW2  787   1.574   0.444   2.276
  258SOL     OW  788   1.540   0.274   1.987
  258SOL    HW1  789   1.479   0.199   2.010
  258SOL    HW2  790   1.562   0.326   2.070
  259SOL     OW  791   1.303   0.838   1.904
  259SOL    HW1  792   1.337   0.745   1.919
  259SOL    HW2  793   1.321   0.865   1.809
  260SOL     OW  794   0.008   1.326   2.062
  260SOL    HW1  795  -0.085   1.347   2.031
  260SOL    HW2  796   0.018   1.227   2.075
  261SOL     OW  797   0.815   0.572   2.187
  261SOL    HW1  798   0.822   0.483   2.141
  261SOL    HW2  799   0.721   0.606   2.179
  262SOL     OW  800   0.473   0.500   2.053
  262SOL    HW1  801   0.534   0.580   2.057
  262SOL    HW2  802   0.378   0.531   2.060
  263SOL     OW  803   1.302   0.855   2.171
  263SOL    HW1  804   1.216   0.824   2.213
  263SOL    HW2  805   1.298   0.841   2.072
  264SOL     OW  806   1.726   0.135   2.385
  264SOL    HW1  807   1.799   0.118   2.318
  264SOL    HW2  808   1.695   0.048   2.423
  265SOL     OW  809   1.388   1.573   2.339
  265SOL    HW1  810   1.455   1.585   2.265
  265SOL    HW2  811   1.348   1.662   2.362
  266SOL     OW  812   0.672   1.616   2.016
  266SOL    HW1  813   0.681   1.626   1.917
  266SOL    HW2  814   0.632   1.527   2.037
  267SOL     OW  815   1.841   0.175   2.825
  267SOL    HW1  816   1.880   0.090   2.789
  267SOL    HW2  817   1.743   0.177   2.806
  268SOL     OW  818   1.194   1.612   1.893
  268SOL    HW1  819   1.200   1.519   1.930
  268SOL    HW2  820   1.135   1.612   1.813
  269SOL     OW  821   0.916   0.910   2.153
  269SOL    HW1  822   0.979   0.948   2.085
  269SOL    HW2  823   0.956   0.827   2.192
  270SOL     OW  824   1.504   1.607   1.906
  270SOL    HW1  825   1.412   1.644   1.913
  270SOL    HW2  826   1.542   1.627   1.816
  271SOL     OW  827   0.590   1.487   2.353
  271SOL    HW1  828   0.632   1.429   2.283
  271SOL    HW2  829   0.546   1.566   2.309
  272SOL     OW  830   0.255   1.348   2.152
  272SOL    HW1  831   0.159   1.349   2.125
  272SOL    HW2  832   0.267   1.401   2.236
  273SOL     OW  833   0.075   0.345   1.895
  273SOL    HW1  834  -0.017   0.317   1.866
  273SOL    HW2  835   0.106   0.422   1.839
  274SOL     OW  836   0.072   0.166   2.180
  274SOL    HW1  837   0.055   0.249   2.126
  274SOL    HW2  838   0.162   0.129   2.158
  275SOL     OW  839   1.183   1.335   1.981
  275SOL    HW1  840   1.084   1.324   1.983
  275SOL    HW2  841   1.217   1.350   2.074
  276SOL     OW  842   1.225   0.325   2.311
  276SOL    HW1  843   1.290   0.251   2.300
  276SOL    HW2  844   1.245   0.375   2.395
  277SOL     OW  845   0.594   0.745   2.514
  277SOL    HW1  846   0.644   0.830   2.495
  277SOL    HW2  847   0.506   0.747   2.466
  278SOL     OW  848   0.859   1.374   1.878
  278SOL    HW1  849   0.813   1.389   1.966
  278SOL    HW2  850   0.903   1.459   1.848
  279SOL     OW  851   1.083   0.984   1.949
  279SOL    HW1  852   1.060   1.037   1.867
  279SOL    HW2  853   1.164   0.928   1.930
  280SOL     OW  854   0.079   1.240   2.515
  280SOL    HW1  855   0.078   1.193   2.603
  280SOL    HW2  856   0.161   1.212   2.464
  281SOL     OW  857   0.428   0.424   2.382
  281SOL    HW1  858   0.458   0.352   2.320
  281SOL    HW2  859   0.389   0.384   2.465
  282SOL     OW  860   0.812   1.586   2.549
  282SOL    HW1  861   0.844   1.596   2.455
  282SOL    HW2  862   0.733   1.524   2.551
  283SOL     OW  863   0.770   1.330   2.163
  283SOL    HW1  864   0.724   1.243   2.180
  283SOL    HW2  865   0.861   1.327   2.204
  284SOL     OW  866   1.352   0.052   2.030
  284SOL    HW1  867   1.387   0.011   1.946
  284SOL    HW2  868   1.262   0.014   2.050
  285SOL     OW  869   1.300   0.453   2.553
  285SOL    HW1  870   1.241   0.533   2.557
  285SOL    HW2  871   1.315   0.418   2.646
  286SOL     OW  872   0.039   1.077   2.162
  286SOL    HW1  873   0.138   1.066   2.153
  286SOL    HW2  874  -0.001   0.991   2.194
  287SOL     OW  875   0.875   1.646   2.199
  287SOL    HW1  876   0.798   1.611   2.145
  287SOL    HW2  877   0.843   1.717   2.261
  288SOL     OW  878   0.225   2.137   0.996
  288SOL    HW1  879   0.260   2.120   1.088
  288SOL    HW2  880   0.137   2.092   0.984
  289SOL     OW  881   0.019   2.230   0.647
  289SOL    HW1  882  -0.063   2.273   0.686
  289SOL    HW2  883  -0.009   2.157   0.584
  290SOL     OW  884   1.755   2.469   0.231
  290SOL    HW1  885   1.743   2.456   0.132
  290SOL    HW2  886   1.725   2.388   0.280
  291SOL     OW  887   0.438   2.254   1.499
  291SOL    HW1  888   0.520   2.198   1.508
  291SOL    HW2  889   0.357   2.196   1.503
  292SOL     OW  890   1.603   2.309   0.737
  292SOL    HW1  891   1.529   2.355   0.687
  292SOL    HW2  892   1.654   2.377   0.790
  293SOL     OW  893   1.594   1.976   1.480
  293SOL    HW1  894   1.576   2.043   1.408
  293SOL    HW2  895   1.591   2.022   1.569
  294SOL     OW  896   0.122   2.505   0.563
  294SOL    HW1  897   0.077   2.417   0.580
  294SOL    HW2  898   0.121   2.559   0.647
  295SOL     OW  899   0.113   2.599   1.597
  295SOL    HW1  900   0.201   2.586   1.642
  295SOL    HW2  901   0.100   2.696   1.575
  296SOL     OW  902   0.809   1.866   0.502
  296SOL    HW1  903   0.849   1.957   0.493
  296SOL    HW2  904   0.709   1.874   0.508
  297SOL     OW  905   0.317   2.113   1.801
  297SOL    HW1  906   0.388   2.184   1.807
  297SOL    HW2  907   0.229   2.152   1.829
  298SOL     OW  908   1.281   2.207   0.944
  298SOL    HW1  909   1.195   2.157   0.931
  298SOL    HW2  910   1.343   2.153   1.000
  299SOL     OW  911   0.807   2.467   1.465
  299SOL    HW1  912   0.760   2.464   1.554
  299SOL    HW2  913   0.756   2.412   1.399
  300SOL     OW  914   1.394   2.331   1.674
  300SOL    HW1  915   1.374   2.374   1.762
  300SOL    HW2  916   1.472   2.269   1.683
  301SOL     OW  917   0.991   2.272   1.242
  301SOL    HW1  918   0.914   2.306   1.296
  301SOL    HW2  919   0.957   2.221   1.163
  302SOL     OW  920   1.041   2.563   0.429
  302SOL    HW1  921   1.067   2.559   0.525
  302SOL    HW2  922   0.956   2.512   0.415
  303SOL     OW  923   0.076   2.673   0.789
  303SOL    HW1  924   0.175   2.661   0.798
  303SOL    HW2  925   0.052   2.768   0.810
  304SOL     OW  926   0.865   2.210   0.195
  304SOL    HW1  927   0.924   2.273   0.146
  304SOL    HW2  928   0.884   2.116   0.166
  305SOL     OW  929   1.719   2.447   1.831
  305SOL    HW1  930   1.693   2.536   1.795
  305SOL    HW2  931   1.717   2.379   1.758
  306SOL     OW  932   0.550   2.058   0.885
  306SOL    HW1  933   0.545   2.053   0.985
  306SOL    HW2  934   0.552   2.154   0.856
  307SOL     OW  935   1.458   2.597   0.728
  307SOL    HW1  936   1.453   2.532   0.803
  307SOL    HW2  937   1.538   2.656   0.741
  308SOL     OW  938   0.202   2.147   1.498
  308SOL    HW1  939   0.122   2.207   1.485
  308SOL    HW2  940   0.192   2.098   1.584
  309SOL     OW  941   1.400   1.969   0.426
  309SOL    HW1  942   1.376   1.932   0.336
  309SOL    HW2  943   1.499   1.985   0.430
  310SOL     OW  944   1.547   2.084   1.729
  310SOL    HW1  945   1.542   2.121   1.821
  310SOL    HW2  946   1.475   2.015   1.717
  311SOL     OW  947   0.614   1.984   0.117
  311SOL    HW1  948   0.712   1.962   0.124
  311SOL    HW2  949   0.583   1.967   0.024
  312SOL     OW  950   0.781   2.126   1.749
  312SOL    HW1  951   0.848   2.065   1.792
  312SOL    HW2  952   0.708   2.145   1.814
  313SOL     OW  953   1.351   2.452   1.433
  313SOL    HW1  954   1.379   2.409   1.518
  313SOL    HW2  955   1.376   2.548   1.434
  314SOL     OW  956   0.922   2.365   0.899
  314SOL    HW1  957   0.897   2.356   0.803
  314SOL    HW2  958   0.970   2.283   0.930
  315SOL     OW  959   0.539   1.926   0.512
  315SOL    HW1  960   0.458   1.927   0.570
  315SOL    HW2  961   0.542   2.009   0.457
  316SOL     OW  962   0.935   2.098   0.480
  316SOL    HW1  963   0.887   2.139   0.402
  316SOL    HW2  964   1.034   2.096   0.461
  317SOL     OW  965   1.076   2.545   1.464
  317SOL    HW1  966   0.996   2.484   1.467
  317SOL    HW2  967   1.157   2.492   1.440
  318SOL     OW  968   1.032   2.411   0.016
  318SOL    HW1  969   0.991   2.493  -0.023
  318SOL    HW2  970   1.096   2.437   0.089
  319SOL     OW  971   0.078   2.418   1.386
  319SOL    HW1  972   0.170   2.417   1.345
  319SOL    HW2  973   0.072   2.492   1.453
  320SOL     OW  974   0.561   2.084   1.147
  320SOL    HW1  975   0.599   2.000   1.184
  320SOL    HW2  976   0.473   2.103   1.191
  321SOL     OW  977   0.866   2.316   0.642
  321SOL    HW1  978   0.834   2.388   0.580
  321SOL    HW2  979   0.890   2.235   0.589
  322SOL     OW  980   1.017   1.901   0.753
  322SOL    HW1  981   0.945   1.906   0.684
  322SOL    HW2  982   0.993   1.832   0.822
  323SOL     OW  983   1.466   2.452   0.992
  323SOL    HW1  984   1.436   2.357   0.999
  323SOL    HW2  985   1.539   2.468   1.058
  324SOL     OW  986   1.390   2.437   0.078
  324SOL    HW1  987   1.336   2.416   0.159
  324SOL    HW2  988   1.481   2.396   0.087
  325SOL     OW  989   0.527   2.118   0.328
  325SOL    HW1  990   0.554   2.059   0.253
  325SOL    HW2  991   0.527   2.213   0.297
  326SOL     OW  992   0.915   1.951   1.402
  326SOL    HW1  993   0.940   1.931   1.307
  326SOL    HW2  994   0.987   2.007   1.444
  327SOL     OW  995   1.274   2.248   1.262
  327SOL    HW1  996   1.295   2.322   1.326
  327SOL    HW2  997   1.185   2.265   1.219
  328SOL     OW  998   0.566   2.399   0.865
  328SOL    HW1  999   0.578   2.465   0.791
  328SOL    HW2 1000   0.612   2.433   0.948
  329SOL     OW 1001   1.582   2.501   0.472
  329SOL    HW1 1002   1.551   2.562   0.545
  329SOL    HW2 1003   1.632   2.553   0.403
  330SOL     OW 1004   1.013   1.967   1.770
  330SOL    HW1 1005   1.019   2.052   1.718
  330SOL    HW2 1006   1.045   1.891   1.713
  331SOL     OW 1007   0.504   1.912   1.740
  331SOL    HW1 1008   0.462   1.855   1.670
  331SOL    HW2 1009   0.438   1.981   1.772
  332SOL     OW 1010   1.209   2.387   0.275
  332SOL    HW1 1011   1.222   2.303   0.329
  332SOL    HW2 1012   1.180   2.461   0.335
  333SOL     OW 1013   0.307   2.075   1.231
  333SOL    HW1 1014   0.284   2.112   1.321
  333SOL    HW2 1015   0.277   1.980   1.225
  334SOL     OW 1016   0.732   2.496   1.064
  334SOL    HW1 1017   0.791   2.470   0.988
  334SOL    HW2 1018   0.704   2.592   1.053
  335SOL     OW 1019   0.307   1.925   0.618
  335SOL    HW1 1020   0.296   2.019   0.651
  335SOL    HW2 1021   0.302   1.862   0.695
  336SOL     OW 1022   1.622   2.229   0.374
  336SOL    HW1 1023   1.624   2.153   0.438
  336SOL    HW2 1024   1.574   2.306   0.414
  337SOL     OW 1025   1.540   2.136   0.125
  337SOL    HW1 1026   1.479   2.061   0.148
  337SOL    HW2 1027   1.562   2.188   0.208
  338SOL     OW 1028   0.319   2.672   0.949
  338SOL    HW1 1029   0.412   2.708   0.954
  338SOL    HW2 1030   0.313   2.587   1.001
  339SOL     OW 1031   0.339   2.371   1.006
  339SOL    HW1 1032   0.287   2.288   0.989
  339SOL    HW2 1033   0.416   2.376   0.942
  340SOL     OW 1034   1.138   2.242   1.678
  340SOL    HW1 1035   1.093   2.305   1.742
  340SOL    HW2 1036   1.231   2.273   1.661
  341SOL     OW 1037   1.160   2.069   1.477
  341SOL    HW1 1038   1.160   2.133   1.554
  341SOL    HW2 1039   1.188   2.117   1.394
  342SOL     OW 1040   0.040   2.406   1.114
  342SOL    HW1 1041   0.125   2.373   1.073
  342SOL    HW2 1042   0.053   2.421   1.212
  343SOL     OW 1043   0.189   2.382   1.722
  343SOL    HW1 1044   0.248   2.342   1.652
  343SOL    HW2 1045   0.131   2.453   1.681
  344SOL     OW 1046   0.815   2.434   0.325
  344SOL    HW1 1047   0.822   2.345   0.279
  344SOL    HW2 1048   0.721   2.468   0.317
  345SOL     OW 1049   1.657   2.466   1.206
  345SOL    HW1 1050   1.619   2.397   1.268
  345SOL    HW2 1051   1.739   2.430   1.162
  346SOL     OW 1052   0.671   2.326   1.269
  346SOL    HW1 1053   0.637   2.237   1.239
  346SOL    HW2 1054   0.697   2.380   1.189
  347SOL     OW 1055   0.473   2.362   0.191
  347SOL    HW1 1056   0.534   2.442   0.195
  347SOL    HW2 1057   0.378   2.393   0.198
  348SOL     OW 1058   0.903   1.948   0.133
  348SOL    HW1 1059   0.954   1.949   0.047
  348SOL    HW2 1060   0.959   1.906   0.204
  349SOL     OW 1061   1.726   1.997   0.523
  349SOL    HW1 1062   1.799   1.980   0.456
  349SOL    HW2 1063   1.695   1.910   0.561
  350SOL     OW 1064   1.280   2.789   0.672
  350SOL    HW1 1065   1.340   2.708   0.674
  350SOL    HW2 1066   1.320   2.858   0.612
  351SOL     OW 1067   1.841   2.037   0.963
  351SOL    HW1 1068   1.880   1.952   0.927
  351SOL    HW2 1069   1.743   2.039   0.944
  352SOL     OW 1070   0.263   2.188   0.720
  352SOL    HW1 1071   0.184   2.239   0.686
  352SOL    HW2 1072   0.254   2.173   0.818
  353SOL     OW 1073   1.014   2.098   0.971
  353SOL    HW1 1074   1.006   2.062   0.878
  353SOL    HW2 1075   1.012   2.022   1.036
  354SOL     OW 1076   1.709   2.247   1.381
  354SOL    HW1 1077   1.782   2.316   1.385
  354SOL    HW2 1078   1.737   2.172   1.322
  355SOL     OW 1079   0.672   2.065   1.489
  355SOL    HW1 1080   0.762   2.049   1.449
  355SOL    HW2 1081   0.680   2.070   1.588
  356SOL     OW 1082   0.075   2.207   0.033
  356SOL    HW1 1083  -0.017   2.179   0.004
  356SOL    HW2 1084   0.106   2.284  -0.023
  357SOL     OW 1085   0.072   2.028   0.318
  357SOL    HW1 1086   0.055   2.111   0.264
  357SOL    HW2 1087   0.162   1.991   0.296
  358SOL     OW 1088   0.716   2.427   1.708
  358SOL    HW1 1089   0.735   2.492   1.782
  358SOL    HW2 1090   0.776   2.347   1.717
  359SOL     OW 1091   1.225   2.187   0.449
  359SOL    HW1 1092   1.290   2.113   0.438
  359SOL    HW2 1093   1.245   2.237   0.533
  360SOL     OW 1094   1.777   2.204   1.642
  360SOL    HW1 1095   1.760   2.235   1.548
  360SOL    HW2 1096   1.693   2.167   1.680
  361SOL     OW 1097   1.083   2.846   0.087
  361SOL    HW1 1098   1.060   2.899   0.005
  361SOL    HW2 1099   1.164   2.790   0.068
  362SOL     OW 1100   1.824   2.054   1.227
  362SOL    HW1 1101   1.820   1.964   1.271
  362SOL    HW2 1102   1.827   2.043   1.128
  363SOL     OW 1103   0.428   2.286   0.520
  363SOL    HW1 1104   0.458   2.214   0.458
  363SOL    HW2 1105   0.389   2.246   0.603
  364SOL     OW 1106   0.317   2.409   1.280
  364SOL    HW1 1107   0.355   2.350   1.352
  364SOL    HW2 1108   0.357   2.383   1.192
  365SOL     OW 1109   1.424   2.076   1.112
  365SOL    HW1 1110   1.476   2.011   1.167
  365SOL    HW2 1111   1.375   2.139   1.173
  366SOL     OW 1112   1.001   1.896   1.154
  366SOL    HW1 1113   0.938   1.824   1.123
  366SOL    HW2 1114   1.094   1.860   1.154
  367SOL     OW 1115   1.352   1.914   0.168
  367SOL    HW1 1116   1.387   1.873   0.084
  367SOL    HW2 1117   1.262   1.876   0.188
  368SOL     OW 1118   1.300   2.315   0.691
  368SOL    HW1 1119   1.241   2.395   0.695
  368SOL    HW2 1120   1.315   2.280   0.784
  369SOL     OW 1121   1.593   2.083   0.882
  369SOL    HW1 1122   1.509   2.082   0.936
  369SOL    HW2 1123   1.595   2.166   0.826
  370SOL     OW 1124   1.135   2.565   2.579
  370SOL    HW1 1125   1.192   2.643   2.554
  370SOL    HW2 1126   1.075   2.591   2.655
  371SOL     OW 1127   1.755   2.469   2.093
  371SOL    HW1 1128   1.743   2.456   1.994
  371SOL    HW2 1129   1.725   2.388   2.142
  372SOL     OW 1130   1.603   2.309   2.599
  372SOL    HW1 1131   1.529   2.355   2.549
  372SOL    HW2 1132   1.654   2.377   2.652
  373SOL     OW 1133   0.122   2.505   2.425
  373SOL    HW1 1134   0.077   2.417   2.442
  373SOL    HW2 1135   0.121   2.559   2.509
  374SOL     OW 1136   0.809   1.866   2.364
  374SOL    HW1 1137   0.849   1.957   2.355
  374SOL    HW2 1138   0.709   1.874   2.370
  375SOL     OW 1139   1.281   2.207   2.806
  375SOL    HW1 1140   1.195   2.157   2.793
  375SOL    HW2 1141   1.343   2.153   2.862
  376SOL     OW 1142   1.041   2.563   2.291
  376SOL    HW1 1143   1.067   2.559   2.387
  376SOL    HW2 1144   0.956   2.512   2.277
  377SOL     OW 1145   0.076   2.673   2.651
  377SOL    HW1 1146   0.175   2.661   2.660
  377SOL    HW2 1147   0.052   2.768   2.672
  378SOL     OW 1148   0.865   2.210   2.057
  378SOL    HW1 1149   0.924   2.273   2.008
  378SOL    HW2 1150   0.884   2.116   2.028
  379SOL     OW 1151   1.400   1.969   2.288
  379SOL    HW1 1152   1.376   1.932   2.198
  379SOL    HW2 1153   1.499   1.985   2.292
  380SOL     OW 1154   0.614   1.984   1.979
  380SOL    HW1 1155   0.712   1.962   1.986
  380SOL    HW2 1156   0.583   1.967   1.886
  381SOL     OW 1157   0.539   1.926   2.374
  381SOL    HW1 1158   0.458   1.927   2.432
  381SOL    HW2 1159   0.542   2.009   2.319
  382SOL     OW 1160   0.297   1.897   2.033
  382SOL    HW1 1161   0.346   1.981   2.012
  382SOL    HW2 1162   0.359   1.832   2.078
  383SOL     OW 1163   0.935   2.098   2.342
  383SOL    HW1 1164   0.887   2.139   2.264
  383SOL    HW2 1165   1.034   2.096   2.323
  384SOL     OW 1166   1.032   2.411   1.878
  384SOL    HW1 1167   0.991   2.493   1.839
  384SOL    HW2 1168   1.096   2.437   1.951
  385SOL     OW 1169   0.866   2.316   2.504
  385SOL    HW1 1170   0.834   2.388   2.442
  385SOL    HW2 1171   0.890   2.235   2.451
  386SOL     OW 1172   1.390   2.437   1.940
  386SOL    HW1 1173   1.336   2.416   2.021
  386SOL    HW2 1174   1.481   2.396   1.949
  387SOL     OW 1175   0.527   2.118   2.190
  387SOL    HW1 1176   0.554   2.059   2.115
  387SOL    HW2 1177   0.527   2.213   2.159
  388SOL     OW 1178   1.582   2.501   2.334
  388SOL    HW1 1179   1.551   2.562   2.407
  388SOL    HW2 1180   1.632   2.553   2.265
  389SOL     OW 1181   1.209   2.387   2.137
  389SOL    HW1 1182   1.222   2.303   2.191
  389SOL    HW2 1183   1.180   2.461   2.197
  390SOL     OW 1184   0.307   1.925   2.480
  390SOL    HW1 1185   0.296   2.019   2.513
  390SOL    HW2 1186   0.302   1.862   2.557
  391SOL     OW 1187   1.622   2.229   2.236
  391SOL    HW1 1188   1.624   2.153   2.300
  391SOL    HW2 1189   1.574   2.306   2.276
  392SOL     OW 1190   1.540   2.136   1.987
  392SOL    HW1 1191   1.479   2.061   2.010
  392SOL    HW2 1192   1.562   2.188   2.070
  393SOL     OW 1193   0.815   2.434   2.187
  393SOL    HW1 1194   0.822   2.345   2.141
  393SOL    HW2 1195   0.721   2.468   2.179
  394SOL     OW 1196   0.473   2.362   2.053
  394SOL    HW1 1197   0.534   2.442   2.057
  394SOL    HW2 1198   0.378   2.393   2.060
  395SOL     OW 1199   1.726   1.997   2.385
  395SOL    HW1 1200   1.799   1.980   2.318
  395SOL    HW2 1201   1.695   1.910   2.423
  396SOL     OW 1202   1.280   2.789   2.534
  396SOL    HW1 1203   1.340   2.708   2.536
  396SOL    HW2 1204   1.320   2.858   2.474
  397SOL     OW 1205   1.841   2.037   2.825
  397SOL    HW1 1206   1.880   1.952   2.789
  397SOL    HW2 1207   1.743   2.039   2.806
  398SOL     OW 1208   0.075   2.207   1.895
  398SOL    HW1 1209  -0.017   2.179   1.866
  398SOL    HW2 1210   0.106   2.284   1.839
  399SOL     OW 1211   0.072   2.028   2.180
  399SOL    HW1 1212   0.055   2.111   2.126
  399SOL    HW2 1213   0.162   1.991   2.158
  400SOL     OW 1214   1.225   2.187   2.311
  400SOL    HW1 1215   1.290   2.113   2.300
  400SOL    HW2 1216   1.245   2.237   2.395
  401SOL     OW 1217   1.083   2.846   1.949
  401SOL    HW1 1218   1.060   2.899   1.867
  401SOL    HW2 1219   1.164   2.790   1.930
  402SOL     OW 1220   0.428   2.286   2.382
  402SOL    HW1 1221   0.458   2.214   2.320
  402SOL    HW2 1222   0.389   2.246   2.465
  403SOL     OW 1223   1.352   1.914   2.030
  403SOL    HW1 1224   1.387   1.873   1.946
  403SOL    HW2 1225   1.262   1.876   2.050
  404SOL     OW 1226   1.300   2.315   2.553
  404SOL    HW1 1227   1.241   2.395   2.557
  404SOL    HW2 1228   1.315   2.280   2.646
  405SOL     OW 1229   2.092   0.628   0.113
  405SOL    HW1 1230   1.999   0.626   0.150
  405SOL    HW2 1231   2.093   0.589   0.021
  406SOL     OW 1232   2.087   0.275   0.996
  406SOL    HW1 1233   2.122   0.258   1.088
  406SOL    HW2 1234   1.999   0.230   0.984
  407SOL     OW 1235   1.881   0.368   0.647
  407SOL    HW1 1236   1.799   0.411   0.686
  407SOL    HW2 1237   1.853   0.295   0.584
  408SOL     OW 1238   2.431   1.275   1.165
  408SOL    HW1 1239   2.338   1.268   1.128
  408SOL    HW2 1240   2.442   1.364   1.209
  409SOL     OW 1241   2.712   0.798   1.823
  409SOL    HW1 1242   2.708   0.874   1.888
  409SOL    HW2 1243   2.734   0.834   1.732
  410SOL     OW 1244   2.197   1.435   1.061
  410SOL    HW1 1245   2.119   1.404   1.008
  410SOL    HW2 1246   2.255   1.493   1.004
  411SOL     OW 1247   2.300   0.392   1.499
  411SOL    HW1 1248   2.382   0.336   1.508
  411SOL    HW2 1249   2.219   0.334   1.503
  412SOL     OW 1250   2.093   1.713   0.483
  412SOL    HW1 1251   2.127   1.790   0.537
  412SOL    HW2 1252   2.137   1.713   0.393
  413SOL     OW 1253   2.092   1.434   0.538
  413SOL    HW1 1254   2.066   1.530   0.538
  413SOL    HW2 1255   2.021   1.380   0.583
  414SOL     OW 1256   2.102   1.091   0.886
  414SOL    HW1 1257   2.116   1.007   0.938
  414SOL    HW2 1258   2.047   1.155   0.941
  415SOL     OW 1259   2.482   1.786   1.439
  415SOL    HW1 1260   2.390   1.769   1.474
  415SOL    HW2 1261   2.510   1.878   1.465
  416SOL     OW 1262   2.468   0.964   0.123
  416SOL    HW1 1263   2.475   1.048   0.069
  416SOL    HW2 1264   2.514   0.977   0.211
  417SOL     OW 1265   1.984   0.643   0.563
  417SOL    HW1 1266   1.939   0.555   0.580
  417SOL    HW2 1267   1.983   0.697   0.647
  418SOL     OW 1268   1.889   1.596   0.117
  418SOL    HW1 1269   1.870   1.500   0.138
  418SOL    HW2 1270   1.856   1.654   0.192
  419SOL     OW 1271   1.975   0.737   1.597
  419SOL    HW1 1272   2.063   0.724   1.642
  419SOL    HW2 1273   1.962   0.834   1.575
  420SOL     OW 1274   2.475   1.365   0.726
  420SOL    HW1 1275   2.426   1.278   0.735
  420SOL    HW2 1276   2.452   1.408   0.639
  421SOL     OW 1277   2.059   0.976   1.264
  421SOL    HW1 1278   2.148   0.931   1.250
  421SOL    HW2 1279   1.986   0.911   1.245
  422SOL     OW 1280   2.179   0.251   1.801
  422SOL    HW1 1281   2.250   0.322   1.807
  422SOL    HW2 1282   2.091   0.290   1.829
  423SOL     OW 1283   2.460   0.729   0.270
  423SOL    HW1 1284   2.484   0.798   0.202
  423SOL    HW2 1285   2.382   0.762   0.324
  424SOL     OW 1286   1.938   0.811   0.789
  424SOL    HW1 1287   2.037   0.799   0.798
  424SOL    HW2 1288   1.914   0.906   0.810
  425SOL     OW 1289   1.992   1.821   1.571
  425SOL    HW1 1290   1.982   1.806   1.670
  425SOL    HW2 1291   1.906   1.857   1.535
  426SOL     OW 1292   2.412   0.196   0.885
  426SOL    HW1 1293   2.407   0.191   0.985
  426SOL    HW2 1294   2.414   0.292   0.856
  427SOL     OW 1295   2.213   1.801   0.853
  427SOL    HW1 1296   2.263   1.715   0.859
  427SOL    HW2 1297   2.278   1.878   0.850
  428SOL     OW 1298   2.183   0.943   0.242
  428SOL    HW1 1299   2.265   0.982   0.200
  428SOL    HW2 1300   2.156   0.861   0.193
  429SOL     OW 1301   2.323   1.266   1.727
  429SOL    HW1 1302   2.273   1.267   1.641
  429SOL    HW2 1303   2.260   1.248   1.803
  430SOL     OW 1304   2.064   0.285   1.498
  430SOL    HW1 1305   1.984   0.345   1.485
  430SOL    HW2 1306   2.054   0.236   1.584
  431SOL     OW 1307   2.326   1.743   0.323
  431SOL    HW1 1308   2.359   1.782   0.409
  431SOL    HW2 1309   2.402   1.736   0.258
  432SOL     OW 1310   2.111   1.785   1.241
  432SOL    HW1 1311   2.168   1.720   1.291
  432SOL    HW2 1312   2.095   1.752   1.148
  433SOL     OW 1313   2.244   0.700   0.480
  433SOL    HW1 1314   2.289   0.610   0.477
  433SOL    HW2 1315   2.150   0.689   0.513
  434SOL     OW 1316   2.665   1.402   0.924
  434SOL    HW1 1317   2.755   1.416   0.882
  434SOL    HW2 1318   2.594   1.404   0.853
  435SOL     OW 1319   2.401   0.064   0.512
  435SOL    HW1 1320   2.320   0.065   0.570
  435SOL    HW2 1321   2.404   0.147   0.457
  436SOL     OW 1322   2.159   0.035   0.171
  436SOL    HW1 1323   2.208   0.119   0.150
  436SOL    HW2 1324   2.221  -0.030   0.216
  437SOL     OW 1325   2.797   0.236   0.480
  437SOL    HW1 1326   2.749   0.277   0.402
  437SOL    HW2 1327   2.896   0.234   0.461
  438SOL     OW 1328   2.321   1.152   0.741
  438SOL    HW1 1329   2.250   1.125   0.806
  438SOL    HW2 1330   2.295   1.124   0.648
  439SOL     OW 1331   1.940   0.556   1.386
  439SOL    HW1 1332   2.032   0.555   1.345
  439SOL    HW2 1333   1.934   0.630   1.453
  440SOL     OW 1334   2.423   0.222   1.147
  440SOL    HW1 1335   2.461   0.138   1.184
  440SOL    HW2 1336   2.335   0.241   1.191
  441SOL     OW 1337   2.350   1.385   0.174
  441SOL    HW1 1338   2.263   1.370   0.221
  441SOL    HW2 1339   2.333   1.411   0.079
  442SOL     OW 1340   2.389   0.256   0.328
  442SOL    HW1 1341   2.416   0.197   0.253
  442SOL    HW2 1342   2.389   0.351   0.297
  443SOL     OW 1343   2.272   0.813   1.251
  443SOL    HW1 1344   2.358   0.825   1.301
  443SOL    HW2 1345   2.230   0.726   1.278
  444SOL     OW 1346   1.926   1.564   1.331
  444SOL    HW1 1347   1.880   1.646   1.297
  444SOL    HW2 1348   2.024   1.583   1.340
  445SOL     OW 1349   2.229   1.100   0.501
  445SOL    HW1 1350   2.222   1.183   0.445
  445SOL    HW2 1351   2.233   1.020   0.441
  446SOL     OW 1352   2.428   0.537   0.865
  446SOL    HW1 1353   2.440   0.603   0.791
  446SOL    HW2 1354   2.474   0.571   0.948
  447SOL     OW 1355   2.216   1.510   1.329
  447SOL    HW1 1356   2.195   1.466   1.242
  447SOL    HW2 1357   2.313   1.536   1.332
  448SOL     OW 1358   2.264   0.751   1.598
  448SOL    HW1 1359   2.332   0.806   1.551
  448SOL    HW2 1360   2.304   0.663   1.625
  449SOL     OW 1361   2.366   0.050   1.740
  449SOL    HW1 1362   2.324  -0.007   1.670
  449SOL    HW2 1363   2.300   0.119   1.772
  450SOL     OW 1364   2.435   0.870   1.029
  450SOL    HW1 1365   2.479   0.959   1.020
  450SOL    HW2 1366   2.372   0.870   1.106
  451SOL     OW 1367   2.169   0.213   1.231
  451SOL    HW1 1368   2.146   0.250   1.321
  451SOL    HW2 1369   2.139   0.118   1.225
  452SOL     OW 1370   1.899   1.310   1.282
  452SOL    HW1 1371   1.952   1.261   1.350
  452SOL    HW2 1372   1.921   1.408   1.287
  453SOL     OW 1373   2.169   0.063   0.618
  453SOL    HW1 1374   2.158   0.157   0.651
  453SOL    HW2 1375   2.164   0.000   0.695
  454SOL     OW 1376   2.212   0.898   1.804
  454SOL    HW1 1377   2.288   0.942   1.852
  454SOL    HW2 1378   2.247   0.851   1.722
  455SOL     OW 1379   2.181   0.810   0.949
  455SOL    HW1 1380   2.274   0.846   0.954
  455SOL    HW2 1381   2.175   0.725   1.001
  456SOL     OW 1382   2.201   0.509   1.006
  456SOL    HW1 1383   2.149   0.426   0.989
  456SOL    HW2 1384   2.278   0.514   0.942
  457SOL     OW 1385   1.870   1.326   0.200
  457SOL    HW1 1386   1.777   1.347   0.169
  457SOL    HW2 1387   1.880   1.227   0.213
  458SOL     OW 1388   1.950   1.801   0.927
  458SOL    HW1 1389   1.908   1.715   0.900
  458SOL    HW2 1390   2.044   1.804   0.893
  459SOL     OW 1391   2.366   1.568   0.910
  459SOL    HW1 1392   2.432   1.642   0.919
  459SOL    HW2 1393   2.410   1.489   0.868
  460SOL     OW 1394   1.902   0.544   1.114
  460SOL    HW1 1395   1.987   0.511   1.073
  460SOL    HW2 1396   1.915   0.559   1.212
  461SOL     OW 1397   2.051   0.520   1.722
  461SOL    HW1 1398   2.110   0.480   1.652
  461SOL    HW2 1399   1.993   0.591   1.681
  462SOL     OW 1400   2.677   0.572   0.325
  462SOL    HW1 1401   2.684   0.483   0.279
  462SOL    HW2 1402   2.583   0.606   0.317
  463SOL     OW 1403   2.114   1.564   1.744
  463SOL    HW1 1404   2.084   1.621   1.820
  463SOL    HW2 1405   2.107   1.467   1.770
  464SOL     OW 1406   2.335   0.500   0.191
  464SOL    HW1 1407   2.396   0.580   0.195
  464SOL    HW2 1408   2.240   0.531   0.198
  465SOL     OW 1409   2.021   1.137   1.466
  465SOL    HW1 1410   2.043   1.076   1.542
  465SOL    HW2 1411   2.031   1.088   1.380
  466SOL     OW 1412   1.945   1.258   1.022
  466SOL    HW1 1413   1.940   1.257   1.122
  466SOL    HW2 1414   1.862   1.217   0.984
  467SOL     OW 1415   2.550   1.662   1.716
  467SOL    HW1 1416   2.494   1.743   1.725
  467SOL    HW2 1417   2.602   1.666   1.630
  468SOL     OW 1418   1.992   1.794   1.851
  468SOL    HW1 1419   1.951   1.720   1.904
  468SOL    HW2 1420   2.056   1.845   1.909
  469SOL     OW 1421   2.125   0.326   0.720
  469SOL    HW1 1422   2.046   0.377   0.686
  469SOL    HW2 1423   2.116   0.311   0.818
  470SOL     OW 1424   2.234   1.288   1.490
  470SOL    HW1 1425   2.221   1.381   1.456
  470SOL    HW2 1426   2.150   1.236   1.477
  471SOL     OW 1427   2.452   1.487   0.491
  471SOL    HW1 1428   2.494   1.429   0.421
  471SOL    HW2 1429   2.408   1.566   0.447
  472SOL     OW 1430   2.117   1.348   0.290
  472SOL    HW1 1431   2.021   1.349   0.263
  472SOL    HW2 1432   2.129   1.401   0.374
  473SOL     OW 1433   1.967   1.013   1.726
  473SOL    HW1 1434   1.890   0.980   1.780
  473SOL    HW2 1435   2.052   0.983   1.768
  474SOL     OW 1436   2.534   0.203   1.489
  474SOL    HW1 1437   2.624   0.187   1.449
  474SOL    HW2 1438   2.542   0.208   1.588
  475SOL     OW 1439   1.937   0.345   0.033
  475SOL    HW1 1440   1.845   0.317   0.004
  475SOL    HW2 1441   1.968   0.422  -0.023
  476SOL     OW 1442   2.475   0.842   1.431
  476SOL    HW1 1443   2.531   0.923   1.414
  476SOL    HW2 1444   2.534   0.762   1.434
  477SOL     OW 1445   2.252   1.741   1.560
  477SOL    HW1 1446   2.161   1.782   1.558
  477SOL    HW2 1447   2.245   1.647   1.592
  478SOL     OW 1448   2.456   0.745   0.652
  478SOL    HW1 1449   2.506   0.830   0.633
  478SOL    HW2 1450   2.368   0.747   0.604
  479SOL     OW 1451   2.083   1.314   1.844
  479SOL    HW1 1452   2.018   1.241   1.823
  479SOL    HW2 1453   2.087   1.328   1.942
  480SOL     OW 1454   1.941   1.240   0.653
  480SOL    HW1 1455   1.940   1.193   0.741
  480SOL    HW2 1456   2.023   1.212   0.602
  481SOL     OW 1457   2.534   1.391   1.624
  481SOL    HW1 1458   2.456   1.341   1.662
  481SOL    HW2 1459   2.531   1.486   1.655
  482SOL     OW 1460   2.290   0.424   0.520
  482SOL    HW1 1461   2.320   0.352   0.458
  482SOL    HW2 1462   2.251   0.384   0.603
  483SOL     OW 1463   2.179   0.547   1.280
  483SOL    HW1 1464   2.217   0.488   1.352
  483SOL    HW2 1465   2.219   0.521   1.192
  484SOL     OW 1466   1.901   1.077   0.300
  484SOL    HW1 1467   2.000   1.066   0.291
  484SOL    HW2 1468   1.861   0.991   0.332
  485SOL     OW 1469   2.092   0.628   1.975
  485SOL    HW1 1470   1.999   0.626   2.012
  485SOL    HW2 1471   2.093   0.589   1.883
  486SOL     OW 1472   2.087   0.275   2.858
  486SOL    HW1 1473   2.122   0.258   2.950
  486SOL    HW2 1474   1.999   0.230   2.846
  487SOL     OW 1475   2.093   1.713   2.345
  487SOL    HW1 1476   2.127   1.790   2.399
  487SOL    HW2 1477   2.137   1.713   2.255
  488SOL     OW 1478   2.092   1.434   2.400
  488SOL    HW1 1479   2.066   1.530   2.400
  488SOL    HW2 1480   2.021   1.380   2.445
  489SOL     OW 1481   2.468   0.964   1.985
  489SOL    HW1 1482   2.475   1.048   1.931
  489SOL    HW2 1483   2.514   0.977   2.073
  490SOL     OW 1484   1.984   0.643   2.425
  490SOL    HW1 1485   1.939   0.555   2.442
  490SOL    HW2 1486   1.983   0.697   2.509
  491SOL     OW 1487   1.889   1.596   1.979
  491SOL    HW1 1488   1.870   1.500   2.000
  491SOL    HW2 1489   1.856   1.654   2.054
  492SOL     OW 1490   2.475   1.365   2.588
  492SOL    HW1 1491   2.426   1.278   2.597
  492SOL    HW2 1492   2.452   1.408   2.501
  493SOL     OW 1493   2.460   0.729   2.132
  493SOL    HW1 1494   2.484   0.798   2.064
  493SOL    HW2 1495   2.382   0.762   2.186
  494SOL     OW 1496   1.938   0.811   2.651
  494SOL    HW1 1497   2.037   0.799   2.660
  494SOL    HW2 1498   1.914   0.906   2.672
  495SOL     OW 1499   2.213   1.801   2.715
  495SOL    HW1 1500   2.263   1.715   2.721
  495SOL    HW2 1501   2.278   1.878   2.712
  496SOL     OW 1502   2.183   0.943   2.104
  496SOL    HW1 1503   2.265   0.982   2.062
  496SOL    HW2 1504   2.156   0.861   2.055
  497SOL     OW 1505   2.326   1.743   2.185
  497SOL    HW1 1506   2.359   1.782   2.271
  497SOL    HW2 1507   2.402   1.736   2.120
  498SOL     OW 1508   2.244   0.700   2.342
  498SOL    HW1 1509   2.289   0.610   2.339
  498SOL    HW2 1510   2.150   0.689   2.375
  499SOL     OW 1511   2.476   0.122   1.979
  499SOL    HW1 1512   2.574   0.100   1.986
  499SOL    HW2 1513   2.445   0.105   1.886
  500SOL     OW 1514   2.401   0.064   2.374
  500SOL    HW1 1515   2.320   0.065   2.432
  500SOL    HW2 1516   2.404   0.147   2.319
  501SOL     OW 1517   2.159   0.035   2.033
  501SOL    HW1 1518   2.208   0.119   2.012
  501SOL    HW2 1519   2.221  -0.030   2.078
  502SOL     OW 1520   2.797   0.236   2.342
  502SOL    HW1 1521   2.749   0.277   2.264
  502SOL    HW2 1522   2.896   0.234   2.323
  503SOL     OW 1523   2.321   1.152   2.603
  503SOL    HW1 1524   2.250   1.125   2.668
  503SOL    HW2 1525   2.295   1.124   2.510
  504SOL     OW 1526   2.350   1.385   2.036
  504SOL    HW1 1527   2.263   1.370   2.083
  504SOL    HW2 1528   2.333   1.411   1.941
  505SOL     OW 1529   2.389   0.256   2.190
  505SOL    HW1 1530   2.416   0.197   2.115
  505SOL    HW2 1531   2.389   0.351   2.159
  506SOL     OW 1532   2.229   1.100   2.363
  506SOL    HW1 1533   2.222   1.183   2.307
  506SOL    HW2 1534   2.233   1.020   2.303
  507SOL     OW 1535   2.169   0.063   2.480
  507SOL    HW1 1536   2.158   0.157   2.513
  507SOL    HW2 1537   2.164   0.000   2.557
  508SOL     OW 1538   1.870   1.326   2.062
  508SOL    HW1 1539   1.777   1.347   2.031
  508SOL    HW2 1540   1.880   1.227   2.075
  509SOL     OW 1541   2.677   0.572   2.187
  509SOL    HW1 1542   2.684   0.483   2.141
  509SOL    HW2 1543   2.583   0.606   2.179
  510SOL     OW 1544   2.335   0.500   2.053
  510SOL    HW1 1545   2.396   0.580   2.057
  510SOL    HW2 1546   2.240   0.531   2.060
  511SOL     OW 1547   2.452   1.487   2.353
  511SOL    HW1 1548   2.494   1.429   2.283
  511SOL    HW2 1549   2.408   1.566   2.309
  512SOL     OW 1550   2.117   1.348   2.152
  512SOL    HW1 1551   2.021   1.349   2.125
  512SOL    HW2 1552   2.129   1.401   2.236
  513SOL     OW 1553   1.937   0.345   1.895
  513SOL    HW1 1554   1.845   0.317   1.866
  513SOL    HW2 1555   1.968   0.422   1.839
  514SOL     OW 1556   1.934   0.166   2.180
  514SOL    HW1 1557   1.917   0.249   2.126
  514SOL    HW2 1558   2.024   0.129   2.158
  515SOL     OW 1559   2.456   0.745   2.514
  515SOL    HW1 1560   2.506   0.830   2.495
  515SOL    HW2 1561   2.368   0.747   2.466
  516SOL     OW 1562   1.941   1.240   2.515
  516SOL    HW1 1563   1.940   1.193   2.603
  516SOL    HW2 1564   2.023   1.212   2.464
  517SOL     OW 1565   2.290   0.424   2.382
  517SOL    HW1 1566   2.320   0.352   2.320
  517SOL    HW2 1567   2.251   0.384   2.465
  518SOL     OW 1568   1.901   1.077   2.162
  518SOL    HW1 1569   2.000   1.066   2.153
  518SOL    HW2 1570   1.861   0.991   2.194
  519SOL     OW 1571   2.087   2.137   0.996
  519SOL    HW1 1572   2.122   2.120   1.088
  519SOL    HW2 1573   1.999   2.092   0.984
  520SOL     OW 1574   1.881   2.230   0.647
  520SOL    HW1 1575   1.799   2.273   0.686
  520SOL    HW2 1576   1.853   2.157   0.584
  521SOL     OW 1577   2.712   2.660   1.823
  521SOL    HW1 1578   2.708   2.736   1.888
  521SOL    HW2 1579   2.734   2.696   1.732
  522SOL     OW 1580   2.300   2.254   1.499
  522SOL    HW1 1581   2.382   2.198   1.508
  522SOL    HW2 1582   2.219   2.196   1.503
  523SOL     OW 1583   1.984   2.505   0.563
  523SOL    HW1 1584   1.939   2.417   0.580
  523SOL    HW2 1585   1.983   2.559   0.647
  524SOL     OW 1586   1.975   2.599   1.597
  524SOL    HW1 1587   2.063   2.586   1.642
  524SOL    HW2 1588   1.962   2.696   1.575
  525SOL     OW 1589   2.671   1.866   0.502
  525SOL    HW1 1590   2.711   1.957   0.493
  525SOL    HW2 1591   2.571   1.874   0.508
  526SOL     OW 1592   2.179   2.113   1.801
  526SOL    HW1 1593   2.250   2.184   1.807
  526SOL    HW2 1594   2.091   2.152   1.829
  527SOL     OW 1595   2.460   2.591   0.270
  527SOL    HW1 1596   2.484   2.660   0.202
  527SOL    HW2 1597   2.382   2.624   0.324
  528SOL     OW 1598   2.412   2.058   0.885
  528SOL    HW1 1599   2.407   2.053   0.985
  528SOL    HW2 1600   2.414   2.154   0.856
  529SOL     OW 1601   2.064   2.147   1.498
  529SOL    HW1 1602   1.984   2.207   1.485
  529SOL    HW2 1603   2.054   2.098   1.584
  530SOL     OW 1604   2.476   1.984   0.117
  530SOL    HW1 1605   2.574   1.962   0.124
  530SOL    HW2 1606   2.445   1.967   0.024
  531SOL     OW 1607   2.401   1.926   0.512
  531SOL    HW1 1608   2.320   1.927   0.570
  531SOL    HW2 1609   2.404   2.009   0.457
  532SOL     OW 1610   2.797   2.098   0.480
  532SOL    HW1 1611   2.749   2.139   0.402
  532SOL    HW2 1612   2.896   2.096   0.461
  533SOL     OW 1613   1.940   2.418   1.386
  533SOL    HW1 1614   2.032   2.417   1.345
  533SOL    HW2 1615   1.934   2.492   1.453
  534SOL     OW 1616   2.423   2.084   1.147
  534SOL    HW1 1617   2.461   2.000   1.184
  534SOL    HW2 1618   2.335   2.103   1.191
  535SOL     OW 1619   2.389   2.118   0.328
  535SOL    HW1 1620   2.416   2.059   0.253
  535SOL    HW2 1621   2.389   2.213   0.297
  536SOL     OW 1622   2.428   2.399   0.865
  536SOL    HW1 1623   2.440   2.465   0.791
  536SOL    HW2 1624   2.474   2.433   0.948
  537SOL     OW 1625   2.366   1.912   1.740
  537SOL    HW1 1626   2.324   1.855   1.670
  537SOL    HW2 1627   2.300   1.981   1.772
  538SOL     OW 1628   2.169   2.075   1.231
  538SOL    HW1 1629   2.146   2.112   1.321
  538SOL    HW2 1630   2.139   1.980   1.225
  539SOL     OW 1631   2.169   1.925   0.618
  539SOL    HW1 1632   2.158   2.019   0.651
  539SOL    HW2 1633   2.164   1.862   0.695
  540SOL     OW 1634   2.181   2.672   0.949
  540SOL    HW1 1635   2.274   2.708   0.954
  540SOL    HW2 1636   2.175   2.587   1.001
  541SOL     OW 1637   2.201   2.371   1.006
  541SOL    HW1 1638   2.149   2.288   0.989
  541SOL    HW2 1639   2.278   2.376   0.942
  542SOL     OW 1640   1.902   2.406   1.114
  542SOL    HW1 1641   1.987   2.373   1.073
  542SOL    HW2 1642   1.915   2.421   1.212
  543SOL     OW 1643   2.051   2.382   1.722
  543SOL    HW1 1644   2.110   2.342   1.652
  543SOL    HW2 1645   1.993   2.453   1.681
  544SOL     OW 1646   2.677   2.434   0.325
  544SOL    HW1 1647   2.684   2.345   0.279
  544SOL    HW2 1648   2.583   2.468   0.317
  545SOL     OW 1649   2.335   2.362   0.191
  545SOL    HW1 1650   2.396   2.442   0.195
  545SOL    HW2 1651   2.240   2.393   0.198
  546SOL     OW 1652   2.765   1.948   0.133
  546SOL    HW1 1653   2.816   1.949   0.047
  546SOL    HW2 1654   2.821   1.906   0.204
  547SOL     OW 1655   2.125   2.188   0.720
  547SOL    HW1 1656   2.046   2.239   0.686
  547SOL    HW2 1657   2.116   2.173   0.818
  548SOL     OW 1658   2.534   2.065   1.489
  548SOL    HW1 1659   2.624   2.049   1.449
  548SOL    HW2 1660   2.542   2.070   1.588
  549SOL     OW 1661   1.937   2.207   0.033
  549SOL    HW1 1662   1.845   2.179   0.004
  549SOL    HW2 1663   1.968   2.284  -0.023
  550SOL     OW 1664   2.290   2.286   0.520
  550SOL    HW1 1665   2.320   2.214   0.458
  550SOL    HW2 1666   2.251   2.246   0.603
  551SOL     OW 1667   2.179   2.409   1.280
  551SOL    HW1 1668   2.217   2.350   1.352
  551SOL    HW2 1669   2.219   2.383   1.192
  552SOL     OW 1670   2.087   2.137   2.858
  552SOL    HW1 1671   2.122   2.120   2.950
  552SOL    HW2 1672   1.999   2.092   2.846
  553SOL     OW 1673   1.984   2.505   2.425
  553SOL    HW1 1674   1.939   2.417   2.442
  553SOL    HW2 1675   1.983   2.559   2.509
  554SOL     OW 1676   2.671   1.866   2.364
  554SOL    HW1 1677   2.711   1.957   2.355
  554SOL    HW2 1678   2.571   1.874   2.370
  555SOL     OW 1679   2.476   1.984   1.979
  555SOL    HW1 1680   2.574   1.962   1.986
  555SOL    HW2 1681   2.445   1.967   1.886
  556SOL     OW 1682   2.401   1.926   2.374
  556SOL    HW1 1683   2.320   1.927   2.432
  556SOL    HW2 1684   2.404   2.009   2.319
  557SOL     OW 1685   2.159   1.897   2.033
  557SOL    HW1 1686   2.208   1.981   2.012
  557SOL    HW2 1687   2.221   1.832   2.078
  558SOL     OW 1688   2.797   2.098   2.342
  558SOL    HW1 1689   2.749   2.139   2.264
  558SOL    HW2 1690   2.896   2.096   2.323
  559SOL     OW 1691   2.389   2.118   2.190
  559SOL    HW1 1692   2.416   2.059   2.115
  559SOL    HW2 1693   2.389   2.213   2.159
  560SOL     OW 1694   2.169   1.925   2.480
  560SOL    HW1 1695   2.158   2.019   2.513
  560SOL    HW2 1696   2.164   1.862   2.557
  561SOL     OW 1697   2.677   2.434   2.187
  561SOL    HW1 1698   2.684   2.345   2.141
  561SOL    HW2 1699   2.583   2.468   2.179
  562SOL     OW 1700   2.335   2.362   2.053
  562SOL    HW1 1701   2.396   2.442   2.057
  562SOL    HW2 1702   2.240   2.393   2.060
  563SOL     OW 1703   1.937   2.207   1.895
  563SOL    HW1 1704   1.845   2.179   1.866
  563SOL    HW2 1705   1.968   2.284   1.839
  564SOL     OW 1706   1.934   2.028   2.180
  564SOL    HW1 1707   1.917   2.111   2.126
  564SOL    HW2 1708   2.024   1.991   2.158
  565SOL     OW 1709   2.290   2.286   2.382
  565SOL    HW1 1710   2.320   2.214   2.320
  565SOL    HW2 1711   2.251   2.246   2.465
   2.58788   2.58788   2.58788
