; mobley_2371092_GMX.itp created by acpype (v: 2023.10.27) on Thu May 14 13:42:59 2026

[ atomtypes ]
;name   bond_type     mass     charge   ptype   sigma         epsilon       Amb
 ca       ca          0.00000  0.00000   A     3.31521e-01   4.13379e-01 ; 1.86  0.0988
 c3       c3          0.00000  0.00000   A     3.39771e-01   4.51035e-01 ; 1.91  0.1078
 nb       nb          0.00000  0.00000   A     3.38417e-01   3.93714e-01 ; 1.90  0.0941
 ha       ha          0.00000  0.00000   A     2.62548e-01   6.73624e-02 ; 1.47  0.0161
 h4       h4          0.00000  0.00000   A     2.53639e-01   6.73624e-02 ; 1.42  0.0161
 hc       hc          0.00000  0.00000   A     2.60018e-01   8.70272e-02 ; 1.46  0.0208

[ moleculetype ]
;name            nrexcl
 mobley_2371092   3

[ atoms ]
;   nr  type  resi  res  atom  cgnr     charge      mass       ; qtot   bond_type
     1   ca     1   MOL    C1    1    -0.244300     12.01000 ; qtot -0.244
     2   ca     1   MOL    C2    2     0.390200     12.01000 ; qtot 0.146
     3   ca     1   MOL    C3    3     0.395200     12.01000 ; qtot 0.541
     4   ca     1   MOL    C4    4    -0.041300     12.01000 ; qtot 0.500
     5   ca     1   MOL    C5    5    -0.194600     12.01000 ; qtot 0.305
     6   c3     1   MOL    C6    6    -0.058800     12.01000 ; qtot 0.246
     7   c3     1   MOL    C7    7    -0.047800     12.01000 ; qtot 0.199
     8   nb     1   MOL    N1    8    -0.665998     14.01000 ; qtot -0.467
     9   ha     1   MOL    H1    9     0.142000      1.00800 ; qtot -0.325
    10   h4     1   MOL    H2   10     0.020100      1.00800 ; qtot -0.305
    11   h4     1   MOL    H3   11     0.020100      1.00800 ; qtot -0.285
    12   hc     1   MOL    H4   12     0.049033      1.00800 ; qtot -0.236
    13   hc     1   MOL    H5   13     0.049033      1.00800 ; qtot -0.187
    14   hc     1   MOL    H6   14     0.049033      1.00800 ; qtot -0.138
    15   hc     1   MOL    H7   15     0.046033      1.00800 ; qtot -0.092
    16   hc     1   MOL    H8   16     0.046033      1.00800 ; qtot -0.046
    17   hc     1   MOL    H9   17     0.046033      1.00800 ; qtot -0.000

[ bonds ]
;   ai     aj funct   r             k
     1      2   1    1.3986e-01    2.9644e+05 ;     C1 - C2    
     1      4   1    1.3986e-01    2.9644e+05 ;     C1 - C4    
     1      9   1    1.0860e-01    3.0183e+05 ;     C1 - H1    
     2      8   1    1.3392e-01    3.2341e+05 ;     C2 - N1    
     2     10   1    1.0885e-01    2.9859e+05 ;     C2 - H2    
     3      5   1    1.3986e-01    2.9644e+05 ;     C3 - C5    
     3      8   1    1.3392e-01    3.2341e+05 ;     C3 - N1    
     3     11   1    1.0885e-01    2.9859e+05 ;     C3 - H3    
     4      5   1    1.3986e-01    2.9644e+05 ;     C4 - C5    
     4      6   1    1.5147e-01    2.0410e+05 ;     C4 - C6    
     5      7   1    1.5147e-01    2.0410e+05 ;     C5 - C7    
     6     12   1    1.0962e-01    2.8891e+05 ;     C6 - H4    
     6     13   1    1.0962e-01    2.8891e+05 ;     C6 - H5    
     6     14   1    1.0962e-01    2.8891e+05 ;     C6 - H6    
     7     15   1    1.0962e-01    2.8891e+05 ;     C7 - H7    
     7     16   1    1.0962e-01    2.8891e+05 ;     C7 - H8    
     7     17   1    1.0962e-01    2.8891e+05 ;     C7 - H9    

[ pairs ]
;   ai     aj    funct
     1      3      1 ;     C1 - C3    
     1      7      1 ;     C1 - C7    
     1     12      1 ;     C1 - H4    
     1     13      1 ;     C1 - H5    
     1     14      1 ;     C1 - H6    
     2      5      1 ;     C2 - C5    
     2      6      1 ;     C2 - C6    
     2     11      1 ;     C2 - H3    
     3      6      1 ;     C3 - C6    
     3     10      1 ;     C3 - H2    
     3     15      1 ;     C3 - H7    
     3     16      1 ;     C3 - H8    
     3     17      1 ;     C3 - H9    
     4      8      1 ;     C4 - N1    
     4     10      1 ;     C4 - H2    
     4     11      1 ;     C4 - H3    
     4     15      1 ;     C4 - H7    
     4     16      1 ;     C4 - H8    
     4     17      1 ;     C4 - H9    
     5     12      1 ;     C5 - H4    
     5     13      1 ;     C5 - H5    
     5     14      1 ;     C5 - H6    
     6      7      1 ;     C6 - C7    
     7      8      1 ;     C7 - N1    
     7     11      1 ;     C7 - H3    
     9      5      1 ;     H1 - C5    
     9      6      1 ;     H1 - C6    
     9      8      1 ;     H1 - N1    
     9     10      1 ;     H1 - H2    

[ angles ]
;   ai     aj     ak    funct   theta         cth
     1      2      8      1    1.2294e+02    5.7045e+02 ;     C1 - C2     - N1    
     1      2     10      1    1.2032e+02    3.7489e+02 ;     C1 - C2     - H2    
     1      4      5      1    1.2002e+02    5.3279e+02 ;     C1 - C4     - C5    
     1      4      6      1    1.2083e+02    5.0827e+02 ;     C1 - C4     - C6    
     2      1      4      1    1.2002e+02    5.3279e+02 ;     C2 - C1     - C4    
     2      1      9      1    1.1988e+02    3.7572e+02 ;     C2 - C1     - H1    
     2      8      3      1    1.1724e+02    6.9580e+02 ;     C2 - N1     - C3    
     3      5      4      1    1.2002e+02    5.3279e+02 ;     C3 - C5     - C4    
     3      5      7      1    1.2083e+02    5.0827e+02 ;     C3 - C5     - C7    
     4      1      9      1    1.1988e+02    3.7572e+02 ;     C4 - C1     - H1    
     4      5      7      1    1.2083e+02    5.0827e+02 ;     C4 - C5     - C7    
     4      6     12      1    1.1063e+02    3.6493e+02 ;     C4 - C6     - H4    
     4      6     13      1    1.1063e+02    3.6493e+02 ;     C4 - C6     - H5    
     4      6     14      1    1.1063e+02    3.6493e+02 ;     C4 - C6     - H6    
     5      3      8      1    1.2294e+02    5.7045e+02 ;     C5 - C3     - N1    
     5      3     11      1    1.2032e+02    3.7489e+02 ;     C5 - C3     - H3    
     5      4      6      1    1.2083e+02    5.0827e+02 ;     C5 - C4     - C6    
     5      7     15      1    1.1063e+02    3.6493e+02 ;     C5 - C7     - H7    
     5      7     16      1    1.1063e+02    3.6493e+02 ;     C5 - C7     - H8    
     5      7     17      1    1.1063e+02    3.6493e+02 ;     C5 - C7     - H9    
     8      2     10      1    1.1602e+02    4.1924e+02 ;     N1 - C2     - H2    
     8      3     11      1    1.1602e+02    4.1924e+02 ;     N1 - C3     - H3    
    12      6     13      1    1.0773e+02    2.9957e+02 ;     H4 - C6     - H5    
    12      6     14      1    1.0773e+02    2.9957e+02 ;     H4 - C6     - H6    
    13      6     14      1    1.0773e+02    2.9957e+02 ;     H5 - C6     - H6    
    15      7     16      1    1.0773e+02    2.9957e+02 ;     H7 - C7     - H8    
    15      7     17      1    1.0773e+02    2.9957e+02 ;     H7 - C7     - H9    
    16      7     17      1    1.0773e+02    2.9957e+02 ;     H8 - C7     - H9    

[ dihedrals ] ; propers
; for gromacs 4.5 or higher, using funct 9
;    i      j      k      l   func   phase     kd      pn
     1      2      8      3      9   180.00  20.08320   2 ;     C1-    C2-    N1-    C3
     1      4      5      3      9   180.00  15.16700   2 ;     C1-    C4-    C5-    C3
     1      4      5      7      9   180.00  15.16700   2 ;     C1-    C4-    C5-    C7
     1      4      6     12      9     0.00   0.00000   0 ;     C1-    C4-    C6-    H4
     1      4      6     13      9     0.00   0.00000   0 ;     C1-    C4-    C6-    H5
     1      4      6     14      9     0.00   0.00000   0 ;     C1-    C4-    C6-    H6
     2      1      4      5      9   180.00  15.16700   2 ;     C2-    C1-    C4-    C5
     2      1      4      6      9   180.00  15.16700   2 ;     C2-    C1-    C4-    C6
     2      8      3      5      9   180.00  20.08320   2 ;     C2-    N1-    C3-    C5
     2      8      3     11      9   180.00  20.08320   2 ;     C2-    N1-    C3-    H3
     3      5      4      6      9   180.00  15.16700   2 ;     C3-    C5-    C4-    C6
     3      5      7     15      9     0.00   0.00000   0 ;     C3-    C5-    C7-    H7
     3      5      7     16      9     0.00   0.00000   0 ;     C3-    C5-    C7-    H8
     3      5      7     17      9     0.00   0.00000   0 ;     C3-    C5-    C7-    H9
     3      8      2     10      9   180.00  20.08320   2 ;     C3-    N1-    C2-    H2
     4      1      2      8      9   180.00  15.16700   2 ;     C4-    C1-    C2-    N1
     4      1      2     10      9   180.00  15.16700   2 ;     C4-    C1-    C2-    H2
     4      5      3      8      9   180.00  15.16700   2 ;     C4-    C5-    C3-    N1
     4      5      3     11      9   180.00  15.16700   2 ;     C4-    C5-    C3-    H3
     4      5      7     15      9     0.00   0.00000   0 ;     C4-    C5-    C7-    H7
     4      5      7     16      9     0.00   0.00000   0 ;     C4-    C5-    C7-    H8
     4      5      7     17      9     0.00   0.00000   0 ;     C4-    C5-    C7-    H9
     5      4      6     12      9     0.00   0.00000   0 ;     C5-    C4-    C6-    H4
     5      4      6     13      9     0.00   0.00000   0 ;     C5-    C4-    C6-    H5
     5      4      6     14      9     0.00   0.00000   0 ;     C5-    C4-    C6-    H6
     6      4      5      7      9   180.00  15.16700   2 ;     C6-    C4-    C5-    C7
     7      5      3      8      9   180.00  15.16700   2 ;     C7-    C5-    C3-    N1
     7      5      3     11      9   180.00  15.16700   2 ;     C7-    C5-    C3-    H3
     9      1      2      8      9   180.00  15.16700   2 ;     H1-    C1-    C2-    N1
     9      1      2     10      9   180.00  15.16700   2 ;     H1-    C1-    C2-    H2
     9      1      4      5      9   180.00  15.16700   2 ;     H1-    C1-    C4-    C5
     9      1      4      6      9   180.00  15.16700   2 ;     H1-    C1-    C4-    C6

[ dihedrals ] ; impropers
; treated as propers in GROMACS to use correct AMBER analytical function
;    i      j      k      l   func   phase     kd      pn
     1      5      4      6      4   180.00   4.60240   2 ;     C1-    C5-    C4-    C6
     1     10      2      8      4   180.00   4.60240   2 ;     C1-    H2-    C2-    N1
     5     11      3      8      4   180.00   4.60240   2 ;     C5-    H3-    C3-    N1
     7      3      5      4      4   180.00   4.60240   2 ;     C7-    C3-    C5-    C4
     9      1      4      2      4   180.00   4.60240   2 ;     H1-    C1-    C4-    C2
