; mobley_5456566_GMX.itp created by acpype (v: 2023.10.27) on Thu May 14 13:48:23 2026

[ atomtypes ]
;name   bond_type     mass     charge   ptype   sigma         epsilon       Amb
 cp       cp          0.00000  0.00000   A     3.31521e-01   4.13379e-01 ; 1.86  0.0988
 ca       ca          0.00000  0.00000   A     3.31521e-01   4.13379e-01 ; 1.86  0.0988
 cl       cl          0.00000  0.00000   A     3.46595e-01   1.10374e+00 ; 1.95  0.2638

[ moleculetype ]
;name            nrexcl
 mobley_5456566   3

[ atoms ]
;   nr  type  resi  res  atom  cgnr     charge      mass       ; qtot   bond_type
     1   cp     1   MOL    C1    1    -0.027000     12.01000 ; qtot -0.027
     2   cp     1   MOL    C2    2    -0.027000     12.01000 ; qtot -0.054
     3   ca     1   MOL    C3    3     0.051900     12.01000 ; qtot -0.002
     4   ca     1   MOL    C4    4     0.051900     12.01000 ; qtot 0.050
     5   ca     1   MOL    C5    5     0.051900     12.01000 ; qtot 0.102
     6   ca     1   MOL    C6    6     0.051900     12.01000 ; qtot 0.154
     7   ca     1   MOL    C7    7     0.015400     12.01000 ; qtot 0.169
     8   ca     1   MOL    C8    8     0.015400     12.01000 ; qtot 0.184
     9   ca     1   MOL    C9    9     0.015400     12.01000 ; qtot 0.200
    10   ca     1   MOL   C10   10     0.015400     12.01000 ; qtot 0.215
    11   ca     1   MOL   C11   11     0.038400     12.01000 ; qtot 0.254
    12   ca     1   MOL   C12   12     0.038400     12.01000 ; qtot 0.292
    13   cl     1   MOL   CL1   13    -0.032400     35.45000 ; qtot 0.260
    14   cl     1   MOL   CL2   14    -0.032400     35.45000 ; qtot 0.227
    15   cl     1   MOL   CL3   15    -0.032400     35.45000 ; qtot 0.195
    16   cl     1   MOL   CL4   16    -0.032400     35.45000 ; qtot 0.162
    17   cl     1   MOL   CL5   17    -0.027400     35.45000 ; qtot 0.135
    18   cl     1   MOL   CL6   18    -0.027400     35.45000 ; qtot 0.108
    19   cl     1   MOL   CL7   19    -0.027400     35.45000 ; qtot 0.080
    20   cl     1   MOL   CL8   20    -0.027400     35.45000 ; qtot 0.053
    21   cl     1   MOL   CL9   21    -0.026400     35.45000 ; qtot 0.026
    22   cl     1   MOL  CL10   22    -0.026400     35.45000 ; qtot 0.000

[ bonds ]
;   ai     aj funct   r             k
     1      2   1    1.4829e-01    2.2541e+05 ;     C1 - C2    
     1      3   1    1.4056e-01    2.8959e+05 ;     C1 - C3    
     1      4   1    1.4056e-01    2.8959e+05 ;     C1 - C4    
     2      5   1    1.4056e-01    2.8959e+05 ;     C2 - C5    
     2      6   1    1.4056e-01    2.8959e+05 ;     C2 - C6    
     3      7   1    1.3986e-01    2.9644e+05 ;     C3 - C7    
     3     13   1    1.7572e-01    1.5730e+05 ;     C3 - CL1   
     4      8   1    1.3986e-01    2.9644e+05 ;     C4 - C8    
     4     14   1    1.7572e-01    1.5730e+05 ;     C4 - CL2   
     5      9   1    1.3986e-01    2.9644e+05 ;     C5 - C9    
     5     15   1    1.7572e-01    1.5730e+05 ;     C5 - CL3   
     6     10   1    1.3986e-01    2.9644e+05 ;     C6 - C10   
     6     16   1    1.7572e-01    1.5730e+05 ;     C6 - CL4   
     7     11   1    1.3986e-01    2.9644e+05 ;     C7 - C11   
     7     17   1    1.7572e-01    1.5730e+05 ;     C7 - CL5   
     8     11   1    1.3986e-01    2.9644e+05 ;     C8 - C11   
     8     18   1    1.7572e-01    1.5730e+05 ;     C8 - CL6   
     9     12   1    1.3986e-01    2.9644e+05 ;     C9 - C12   
     9     19   1    1.7572e-01    1.5730e+05 ;     C9 - CL7   
    10     12   1    1.3986e-01    2.9644e+05 ;    C10 - C12   
    10     20   1    1.7572e-01    1.5730e+05 ;    C10 - CL8   
    11     21   1    1.7572e-01    1.5730e+05 ;    C11 - CL9   
    12     22   1    1.7572e-01    1.5730e+05 ;    C12 - CL10  

[ pairs ]
;   ai     aj    funct
     1      9      1 ;     C1 - C9    
     1     10      1 ;     C1 - C10   
     1     11      1 ;     C1 - C11   
     1     15      1 ;     C1 - CL3   
     1     16      1 ;     C1 - CL4   
     1     17      1 ;     C1 - CL5   
     1     18      1 ;     C1 - CL6   
     2      7      1 ;     C2 - C7    
     2      8      1 ;     C2 - C8    
     2     12      1 ;     C2 - C12   
     2     13      1 ;     C2 - CL1   
     2     14      1 ;     C2 - CL2   
     2     19      1 ;     C2 - CL7   
     2     20      1 ;     C2 - CL8   
     3      5      1 ;     C3 - C5    
     3      6      1 ;     C3 - C6    
     3      8      1 ;     C3 - C8    
     3     14      1 ;     C3 - CL2   
     3     21      1 ;     C3 - CL9   
     4      5      1 ;     C4 - C5    
     4      6      1 ;     C4 - C6    
     4      7      1 ;     C4 - C7    
     4     13      1 ;     C4 - CL1   
     4     21      1 ;     C4 - CL9   
     5     10      1 ;     C5 - C10   
     5     16      1 ;     C5 - CL4   
     5     22      1 ;     C5 - CL10  
     6      9      1 ;     C6 - C9    
     6     15      1 ;     C6 - CL3   
     6     22      1 ;     C6 - CL10  
     7     18      1 ;     C7 - CL6   
     8     17      1 ;     C8 - CL5   
     9     20      1 ;     C9 - CL8   
    10     19      1 ;    C10 - CL7   
    11     13      1 ;    C11 - CL1   
    11     14      1 ;    C11 - CL2   
    12     15      1 ;    C12 - CL3   
    12     16      1 ;    C12 - CL4   
    13     17      1 ;    CL1 - CL5   
    14     18      1 ;    CL2 - CL6   
    15     19      1 ;    CL3 - CL7   
    16     20      1 ;    CL4 - CL8   
    17     21      1 ;    CL5 - CL9   
    18     21      1 ;    CL6 - CL9   
    19     22      1 ;    CL7 - CL10  
    20     22      1 ;    CL8 - CL10  

[ angles ]
;   ai     aj     ak    funct   theta         cth
     1      2      5      1    1.2110e+02    5.1296e+02 ;     C1 - C2     - C5    
     1      2      6      1    1.2110e+02    5.1296e+02 ;     C1 - C2     - C6    
     1      3      7      1    1.2073e+02    5.2995e+02 ;     C1 - C3     - C7    
     1      3     13      1    1.2044e+02    5.3304e+02 ;     C1 - C3     - CL1   
     1      4      8      1    1.2073e+02    5.2995e+02 ;     C1 - C4     - C8    
     1      4     14      1    1.2044e+02    5.3304e+02 ;     C1 - C4     - CL2   
     2      1      3      1    1.2110e+02    5.1296e+02 ;     C2 - C1     - C3    
     2      1      4      1    1.2110e+02    5.1296e+02 ;     C2 - C1     - C4    
     2      5      9      1    1.2073e+02    5.2995e+02 ;     C2 - C5     - C9    
     2      5     15      1    1.2044e+02    5.3304e+02 ;     C2 - C5     - CL3   
     2      6     10      1    1.2073e+02    5.2995e+02 ;     C2 - C6     - C10   
     2      6     16      1    1.2044e+02    5.3304e+02 ;     C2 - C6     - CL4   
     3      1      4      1    1.1841e+02    5.3379e+02 ;     C3 - C1     - C4    
     3      7     11      1    1.2002e+02    5.3279e+02 ;     C3 - C7     - C11   
     3      7     17      1    1.1938e+02    5.3605e+02 ;     C3 - C7     - CL5   
     4      8     11      1    1.2002e+02    5.3279e+02 ;     C4 - C8     - C11   
     4      8     18      1    1.1938e+02    5.3605e+02 ;     C4 - C8     - CL6   
     5      2      6      1    1.1841e+02    5.3379e+02 ;     C5 - C2     - C6    
     5      9     12      1    1.2002e+02    5.3279e+02 ;     C5 - C9     - C12   
     5      9     19      1    1.1938e+02    5.3605e+02 ;     C5 - C9     - CL7   
     6     10     12      1    1.2002e+02    5.3279e+02 ;     C6 - C10    - C12   
     6     10     20      1    1.1938e+02    5.3605e+02 ;     C6 - C10    - CL8   
     7      3     13      1    1.1938e+02    5.3605e+02 ;     C7 - C3     - CL1   
     7     11      8      1    1.2002e+02    5.3279e+02 ;     C7 - C11    - C8    
     7     11     21      1    1.1938e+02    5.3605e+02 ;     C7 - C11    - CL9   
     8      4     14      1    1.1938e+02    5.3605e+02 ;     C8 - C4     - CL2   
     8     11     21      1    1.1938e+02    5.3605e+02 ;     C8 - C11    - CL9   
     9      5     15      1    1.1938e+02    5.3605e+02 ;     C9 - C5     - CL3   
     9     12     10      1    1.2002e+02    5.3279e+02 ;     C9 - C12    - C10   
     9     12     22      1    1.1938e+02    5.3605e+02 ;     C9 - C12    - CL10  
    10      6     16      1    1.1938e+02    5.3605e+02 ;    C10 - C6     - CL4   
    10     12     22      1    1.1938e+02    5.3605e+02 ;    C10 - C12    - CL10  
    11      7     17      1    1.1938e+02    5.3605e+02 ;    C11 - C7     - CL5   
    11      8     18      1    1.1938e+02    5.3605e+02 ;    C11 - C8     - CL6   
    12      9     19      1    1.1938e+02    5.3605e+02 ;    C12 - C9     - CL7   
    12     10     20      1    1.1938e+02    5.3605e+02 ;    C12 - C10    - CL8   

[ dihedrals ] ; propers
; for gromacs 4.5 or higher, using funct 9
;    i      j      k      l   func   phase     kd      pn
     1      2      5      9      9   180.00  15.16700   2 ;     C1-    C2-    C5-    C9
     1      2      5     15      9   180.00  15.16700   2 ;     C1-    C2-    C5-   CL3
     1      2      6     10      9   180.00  15.16700   2 ;     C1-    C2-    C6-   C10
     1      2      6     16      9   180.00  15.16700   2 ;     C1-    C2-    C6-   CL4
     1      3      7     11      9   180.00  15.16700   2 ;     C1-    C3-    C7-   C11
     1      3      7     17      9   180.00  15.16700   2 ;     C1-    C3-    C7-   CL5
     1      4      8     11      9   180.00  15.16700   2 ;     C1-    C4-    C8-   C11
     1      4      8     18      9   180.00  15.16700   2 ;     C1-    C4-    C8-   CL6
     2      1      3      7      9   180.00  15.16700   2 ;     C2-    C1-    C3-    C7
     2      1      3     13      9   180.00  15.16700   2 ;     C2-    C1-    C3-   CL1
     2      1      4      8      9   180.00  15.16700   2 ;     C2-    C1-    C4-    C8
     2      1      4     14      9   180.00  15.16700   2 ;     C2-    C1-    C4-   CL2
     2      5      9     12      9   180.00  15.16700   2 ;     C2-    C5-    C9-   C12
     2      5      9     19      9   180.00  15.16700   2 ;     C2-    C5-    C9-   CL7
     2      6     10     12      9   180.00  15.16700   2 ;     C2-    C6-   C10-   C12
     2      6     10     20      9   180.00  15.16700   2 ;     C2-    C6-   C10-   CL8
     3      1      2      5      9   180.00   3.20076   2 ;     C3-    C1-    C2-    C5
     3      1      2      6      9   180.00   3.20076   2 ;     C3-    C1-    C2-    C6
     3      1      4      8      9   180.00  15.16700   2 ;     C3-    C1-    C4-    C8
     3      1      4     14      9   180.00  15.16700   2 ;     C3-    C1-    C4-   CL2
     3      7     11      8      9   180.00  15.16700   2 ;     C3-    C7-   C11-    C8
     3      7     11     21      9   180.00  15.16700   2 ;     C3-    C7-   C11-   CL9
     4      1      2      5      9   180.00   3.20076   2 ;     C4-    C1-    C2-    C5
     4      1      2      6      9   180.00   3.20076   2 ;     C4-    C1-    C2-    C6
     4      1      3      7      9   180.00  15.16700   2 ;     C4-    C1-    C3-    C7
     4      1      3     13      9   180.00  15.16700   2 ;     C4-    C1-    C3-   CL1
     4      8     11      7      9   180.00  15.16700   2 ;     C4-    C8-   C11-    C7
     4      8     11     21      9   180.00  15.16700   2 ;     C4-    C8-   C11-   CL9
     5      2      6     10      9   180.00  15.16700   2 ;     C5-    C2-    C6-   C10
     5      2      6     16      9   180.00  15.16700   2 ;     C5-    C2-    C6-   CL4
     5      9     12     10      9   180.00  15.16700   2 ;     C5-    C9-   C12-   C10
     5      9     12     22      9   180.00  15.16700   2 ;     C5-    C9-   C12-  CL10
     6      2      5      9      9   180.00  15.16700   2 ;     C6-    C2-    C5-    C9
     6      2      5     15      9   180.00  15.16700   2 ;     C6-    C2-    C5-   CL3
     6     10     12      9      9   180.00  15.16700   2 ;     C6-   C10-   C12-    C9
     6     10     12     22      9   180.00  15.16700   2 ;     C6-   C10-   C12-  CL10
     7     11      8     18      9   180.00  15.16700   2 ;     C7-   C11-    C8-   CL6
     8     11      7     17      9   180.00  15.16700   2 ;     C8-   C11-    C7-   CL5
     9     12     10     20      9   180.00  15.16700   2 ;     C9-   C12-   C10-   CL8
    10     12      9     19      9   180.00  15.16700   2 ;    C10-   C12-    C9-   CL7
    11      7      3     13      9   180.00  15.16700   2 ;    C11-    C7-    C3-   CL1
    11      8      4     14      9   180.00  15.16700   2 ;    C11-    C8-    C4-   CL2
    12      9      5     15      9   180.00  15.16700   2 ;    C12-    C9-    C5-   CL3
    12     10      6     16      9   180.00  15.16700   2 ;    C12-   C10-    C6-   CL4
    13      3      7     17      9   180.00  15.16700   2 ;    CL1-    C3-    C7-   CL5
    14      4      8     18      9   180.00  15.16700   2 ;    CL2-    C4-    C8-   CL6
    15      5      9     19      9   180.00  15.16700   2 ;    CL3-    C5-    C9-   CL7
    16      6     10     20      9   180.00  15.16700   2 ;    CL4-    C6-   C10-   CL8
    17      7     11     21      9   180.00  15.16700   2 ;    CL5-    C7-   C11-   CL9
    18      8     11     21      9   180.00  15.16700   2 ;    CL6-    C8-   C11-   CL9
    19      9     12     22      9   180.00  15.16700   2 ;    CL7-    C9-   C12-  CL10
    20     10     12     22      9   180.00  15.16700   2 ;    CL8-   C10-   C12-  CL10

[ dihedrals ] ; impropers
; treated as propers in GROMACS to use correct AMBER analytical function
;    i      j      k      l   func   phase     kd      pn
     1      2      6      5      4   180.00   4.60240   2 ;     C1-    C2-    C6-    C5
     1      3     13      7      4   180.00   4.60240   2 ;     C1-    C3-   CL1-    C7
     1      4     14      8      4   180.00   4.60240   2 ;     C1-    C4-   CL2-    C8
     2      1      4      3      4   180.00   4.60240   2 ;     C2-    C1-    C4-    C3
     3     11      7     17      4   180.00   4.60240   2 ;     C3-   C11-    C7-   CL5
     4     11      8     18      4   180.00   4.60240   2 ;     C4-   C11-    C8-   CL6
     5     12      9     19      4   180.00   4.60240   2 ;     C5-   C12-    C9-   CL7
     6     12     10     20      4   180.00   4.60240   2 ;     C6-   C12-   C10-   CL8
     7      8     11     21      4   180.00   4.60240   2 ;     C7-    C8-   C11-   CL9
     9     10     12     22      4   180.00   4.60240   2 ;     C9-   C10-   C12-  CL10
     9     15      5      2      4   180.00   4.60240   2 ;     C9-   CL3-    C5-    C2
    10     16      6      2      4   180.00   4.60240   2 ;    C10-   CL4-    C6-    C2
