mobley_7375018_GMX.gro created by acpype (v: 2023.10.27) on Thu May 14 13:58:09 2026
 3961
    1MOL     C1    1   2.244   1.643   1.724
    1MOL     C2    2   2.351   1.544   1.760
    1MOL     C3    3   1.114   1.846   1.732
    1MOL     C4    4   2.101   1.597   1.747
    1MOL     C5    5   1.255   1.890   1.699
    1MOL     C6    6   1.996   1.701   1.707
    1MOL     C7    7   1.357   1.781   1.730
    1MOL     C8    8   1.853   1.652   1.730
    1MOL     C9    9   1.499   1.824   1.693
    1MOL    C10   10   1.750   1.759   1.693
    1MOL    C11   11   1.606   1.719   1.723
    1MOL     O1   12   2.272   1.754   1.681
    1MOL     H1   13   2.343   1.518   1.866
    1MOL     H2   14   2.450   1.588   1.742
    1MOL     H3   15   2.341   1.454   1.699
    1MOL     H4   16   1.086   1.757   1.675
    1MOL     H5   17   1.104   1.822   1.839
    1MOL     H6   18   1.043   1.926   1.709
    1MOL     H7   19   2.091   1.576   1.854
    1MOL     H8   20   2.084   1.504   1.691
    1MOL     H9   21   1.279   1.981   1.756
    1MOL    H10   22   1.260   1.917   1.592
    1MOL    H11   23   2.012   1.791   1.767
    1MOL    H12   24   2.009   1.729   1.602
    1MOL    H13   25   1.352   1.757   1.837
    1MOL    H14   26   1.331   1.689   1.675
    1MOL    H15   27   1.835   1.561   1.671
    1MOL    H16   28   1.840   1.624   1.836
    1MOL    H17   29   1.502   1.846   1.585
    1MOL    H18   30   1.524   1.918   1.744
    1MOL    H19   31   1.761   1.785   1.587
    1MOL    H20   32   1.772   1.850   1.750
    1MOL    H21   33   1.582   1.628   1.665
    1MOL    H22   34   1.599   1.691   1.829
    2SOL     OW   35   0.230   0.628   0.113
    2SOL    HW1   36   0.137   0.626   0.150
    2SOL    HW2   37   0.231   0.589   0.021
    3SOL     OW   38   0.225   0.275   0.996
    3SOL    HW1   39   0.260   0.258   1.088
    3SOL    HW2   40   0.137   0.230   0.984
    4SOL     OW   41   0.019   0.368   0.647
    4SOL    HW1   42  -0.063   0.411   0.686
    4SOL    HW2   43  -0.009   0.295   0.584
    5SOL     OW   44   0.569   1.275   1.165
    5SOL    HW1   45   0.476   1.268   1.128
    5SOL    HW2   46   0.580   1.364   1.209
    6SOL     OW   47   1.555   1.511   0.703
    6SOL    HW1   48   1.498   1.495   0.784
    6SOL    HW2   49   1.496   1.521   0.623
    7SOL     OW   50   1.135   0.703   0.717
    7SOL    HW1   51   1.192   0.781   0.692
    7SOL    HW2   52   1.075   0.729   0.793
    8SOL     OW   53   1.755   0.607   0.231
    8SOL    HW1   54   1.743   0.594   0.132
    8SOL    HW2   55   1.725   0.526   0.280
    9SOL     OW   56   0.768   1.144   1.023
    9SOL    HW1   57   0.690   1.161   1.083
    9SOL    HW2   58   0.802   1.231   0.987
   10SOL     OW   59   0.850   0.798   1.823
   10SOL    HW1   60   0.846   0.874   1.888
   10SOL    HW2   61   0.872   0.834   1.732
   11SOL     OW   62   0.685   1.012   0.665
   11SOL    HW1   63   0.754   0.996   0.735
   11SOL    HW2   64   0.612   1.069   0.703
   12SOL     OW   65   0.686   1.161   1.803
   12SOL    HW1   66   0.746   1.240   1.817
   12SOL    HW2   67   0.600   1.192   1.762
   13SOL     OW   68   0.335   1.435   1.061
   13SOL    HW1   69   0.257   1.404   1.008
   13SOL    HW2   70   0.393   1.493   1.004
   14SOL     OW   71   1.460   1.505   1.339
   14SOL    HW1   72   1.484   1.599   1.365
   14SOL    HW2   73   1.444   1.451   1.421
   15SOL     OW   74   0.438   0.392   1.499
   15SOL    HW1   75   0.520   0.336   1.508
   15SOL    HW2   76   0.357   0.334   1.503
   16SOL     OW   77   1.603   0.447   0.737
   16SOL    HW1   78   1.529   0.493   0.687
   16SOL    HW2   79   1.654   0.515   0.790
   17SOL     OW   80   0.231   1.713   0.483
   17SOL    HW1   81   0.265   1.790   0.537
   17SOL    HW2   82   0.275   1.713   0.393
   18SOL     OW   83   1.127   1.341   1.690
   18SOL    HW1   84   1.174   1.341   1.778
   18SOL    HW2   85   1.079   1.254   1.679
   19SOL     OW   86   0.230   1.434   0.538
   19SOL    HW1   87   0.204   1.530   0.538
   19SOL    HW2   88   0.159   1.380   0.583
   20SOL     OW   89   0.240   1.091   0.886
   20SOL    HW1   90   0.254   1.007   0.938
   20SOL    HW2   91   0.185   1.155   0.941
   21SOL     OW   92   0.620   1.786   1.439
   21SOL    HW1   93   0.528   1.769   1.474
   21SOL    HW2   94   0.648   1.878   1.465
   22SOL     OW   95   0.606   0.964   0.123
   22SOL    HW1   96   0.613   1.048   0.069
   22SOL    HW2   97   0.652   0.977   0.211
   23SOL     OW   98   1.594   0.114   1.480
   23SOL    HW1   99   1.576   0.181   1.408
   23SOL    HW2  100   1.591   0.160   1.569
   24SOL     OW  101   0.122   0.643   0.563
   24SOL    HW1  102   0.077   0.555   0.580
   24SOL    HW2  103   0.121   0.697   0.647
   25SOL     OW  104   1.842   1.767   0.359
   25SOL    HW1  105   1.896   1.738   0.439
   25SOL    HW2  106   1.872   1.857   0.330
   26SOL     OW  107   0.027   1.596   0.117
   26SOL    HW1  108   0.008   1.500   0.138
   26SOL    HW2  109  -0.006   1.654   0.192
   27SOL     OW  110   1.689   0.922   0.612
   27SOL    HW1  111   1.784   0.893   0.620
   27SOL    HW2  112   1.681   0.987   0.537
   28SOL     OW  113   1.641   1.108   0.432
   28SOL    HW1  114   1.727   1.110   0.380
   28SOL    HW2  115   1.655   1.155   0.520
   29SOL     OW  116   0.113   0.737   1.597
   29SOL    HW1  117   0.201   0.724   1.642
   29SOL    HW2  118   0.100   0.834   1.575
   30SOL     OW  119   0.613   1.365   0.726
   30SOL    HW1  120   0.564   1.278   0.735
   30SOL    HW2  121   0.590   1.408   0.639
   31SOL     OW  122   1.293   1.228   1.423
   31SOL    HW1  123   1.330   1.155   1.365
   31SOL    HW2  124   1.345   1.233   1.508
   32SOL     OW  125   0.809   0.004   0.502
   32SOL    HW1  126   0.849   0.095   0.493
   32SOL    HW2  127   0.709   0.012   0.508
   33SOL     OW  128   0.197   0.976   1.264
   33SOL    HW1  129   0.286   0.931   1.250
   33SOL    HW2  130   0.124   0.911   1.245
   34SOL     OW  131   1.525   0.999   0.190
   34SOL    HW1  132   1.462   0.923   0.203
   34SOL    HW2  133   1.573   1.017   0.276
   35SOL     OW  134   0.317   0.251   1.801
   35SOL    HW1  135   0.388   0.322   1.807
   35SOL    HW2  136   0.229   0.290   1.829
   36SOL     OW  137   1.466   1.417   0.953
   36SOL    HW1  138   1.407   1.423   1.033
   36SOL    HW2  139   1.451   1.329   0.907
   37SOL     OW  140   1.667   1.714   0.572
   37SOL    HW1  141   1.626   1.691   0.484
   37SOL    HW2  142   1.649   1.640   0.637
   38SOL     OW  143   0.598   0.729   0.270
   38SOL    HW1  144   0.622   0.798   0.202
   38SOL    HW2  145   0.520   0.762   0.324
   39SOL     OW  146   1.281   0.345   0.944
   39SOL    HW1  147   1.195   0.295   0.931
   39SOL    HW2  148   1.343   0.291   1.000
   40SOL     OW  149   1.576   1.662   0.307
   40SOL    HW1  150   1.665   1.708   0.310
   40SOL    HW2  151   1.555   1.638   0.212
   41SOL     OW  152   0.807   0.605   1.465
   41SOL    HW1  153   0.760   0.602   1.554
   41SOL    HW2  154   0.756   0.550   1.399
   42SOL     OW  155   1.394   0.469   1.674
   42SOL    HW1  156   1.374   0.512   1.762
   42SOL    HW2  157   1.472   0.407   1.683
   43SOL     OW  158   0.973   0.890   1.572
   43SOL    HW1  159   1.019   0.806   1.543
   43SOL    HW2  160   0.917   0.924   1.497
   44SOL     OW  161   0.991   0.410   1.242
   44SOL    HW1  162   0.914   0.444   1.296
   44SOL    HW2  163   0.957   0.359   1.163
   45SOL     OW  164   1.041   0.701   0.429
   45SOL    HW1  165   1.067   0.697   0.525
   45SOL    HW2  166   0.956   0.650   0.415
   46SOL     OW  167   0.076   0.811   0.789
   46SOL    HW1  168   0.175   0.799   0.798
   46SOL    HW2  169   0.052   0.906   0.810
   47SOL     OW  170   0.130   1.821   1.571
   47SOL    HW1  171   0.120   1.806   1.670
   47SOL    HW2  172   0.044   1.857   1.535
   48SOL     OW  173   0.865   0.348   0.195
   48SOL    HW1  174   0.924   0.411   0.146
   48SOL    HW2  175   0.884   0.254   0.166
   49SOL     OW  176   1.719   0.585   1.831
   49SOL    HW1  177   1.693   0.674   1.795
   49SOL    HW2  178   1.717   0.517   1.758
   50SOL     OW  179   1.362   1.144   0.545
   50SOL    HW1  180   1.445   1.115   0.497
   50SOL    HW2  181   1.313   1.211   0.489
   51SOL     OW  182   0.550   0.196   0.885
   51SOL    HW1  183   0.545   0.191   0.985
   51SOL    HW2  184   0.552   0.292   0.856
   52SOL     OW  185   1.008   1.456   0.477
   52SOL    HW1  186   0.962   1.528   0.425
   52SOL    HW2  187   1.004   1.476   0.575
   53SOL     OW  188   0.351   1.801   0.853
   53SOL    HW1  189   0.401   1.715   0.859
   53SOL    HW2  190   0.416   1.878   0.850
   54SOL     OW  191   1.795   1.066   0.873
   54SOL    HW1  192   1.733   1.051   0.797
   54SOL    HW2  193   1.743   1.077   0.958
   55SOL     OW  194   1.227   1.550   1.506
   55SOL    HW1  195   1.233   1.473   1.570
   55SOL    HW2  196   1.175   1.524   1.426
   56SOL     OW  197   0.321   0.943   0.242
   56SOL    HW1  198   0.403   0.982   0.200
   56SOL    HW2  199   0.294   0.861   0.193
   57SOL     OW  200   1.458   0.735   0.728
   57SOL    HW1  201   1.453   0.670   0.803
   57SOL    HW2  202   1.538   0.794   0.741
   58SOL     OW  203   0.461   1.266   1.727
   58SOL    HW1  204   0.411   1.267   1.641
   58SOL    HW2  205   0.398   1.248   1.803
   59SOL     OW  206   1.111   1.776   0.237
   59SOL    HW1  207   1.051   1.714   0.287
   59SOL    HW2  208   1.142   1.732   0.152
   60SOL     OW  209   0.202   0.285   1.498
   60SOL    HW1  210   0.122   0.345   1.485
   60SOL    HW2  211   0.192   0.236   1.584
   61SOL     OW  212   1.632   1.377   0.081
   61SOL    HW1  213   1.600   1.471   0.071
   61SOL    HW2  214   1.556   1.314   0.069
   62SOL     OW  215   0.464   1.743   0.323
   62SOL    HW1  216   0.497   1.782   0.409
   62SOL    HW2  217   0.540   1.736   0.258
   63SOL     OW  218   1.400   0.107   0.426
   63SOL    HW1  219   1.376   0.070   0.336
   63SOL    HW2  220   1.499   0.123   0.430
   64SOL     OW  221   0.249   1.785   1.241
   64SOL    HW1  222   0.306   1.720   1.291
   64SOL    HW2  223   0.233   1.752   1.148
   65SOL     OW  224   0.940   1.698   0.904
   65SOL    HW1  225   1.020   1.641   0.925
   65SOL    HW2  226   0.891   1.658   0.827
   66SOL     OW  227   0.382   0.700   0.480
   66SOL    HW1  228   0.427   0.610   0.477
   66SOL    HW2  229   0.288   0.689   0.513
   67SOL     OW  230   1.547   0.222   1.729
   67SOL    HW1  231   1.542   0.259   1.821
   67SOL    HW2  232   1.475   0.153   1.717
   68SOL     OW  233   0.614   0.122   0.117
   68SOL    HW1  234   0.712   0.100   0.124
   68SOL    HW2  235   0.583   0.105   0.024
   69SOL     OW  236   0.781   0.264   1.749
   69SOL    HW1  237   0.848   0.203   1.792
   69SOL    HW2  238   0.708   0.283   1.814
   70SOL     OW  239   0.888   1.514   1.195
   70SOL    HW1  240   0.865   1.489   1.101
   70SOL    HW2  241   0.949   1.445   1.234
   71SOL     OW  242   1.351   0.590   1.433
   71SOL    HW1  243   1.379   0.547   1.518
   71SOL    HW2  244   1.376   0.686   1.434
   72SOL     OW  245   0.803   1.402   0.924
   72SOL    HW1  246   0.893   1.416   0.882
   72SOL    HW2  247   0.732   1.404   0.853
   73SOL     OW  248   0.922   0.503   0.899
   73SOL    HW1  249   0.897   0.494   0.803
   73SOL    HW2  250   0.970   0.421   0.930
   74SOL     OW  251   0.539   0.064   0.512
   74SOL    HW1  252   0.458   0.065   0.570
   74SOL    HW2  253   0.542   0.147   0.457
   75SOL     OW  254   1.434   1.188   0.041
   75SOL    HW1  255   1.466   1.112   0.098
   75SOL    HW2  256   1.342   1.215   0.071
   76SOL     OW  257   0.297   0.035   0.171
   76SOL    HW1  258   0.346   0.119   0.150
   76SOL    HW2  259   0.359  -0.030   0.216
   77SOL     OW  260   0.935   0.236   0.480
   77SOL    HW1  261   0.887   0.277   0.402
   77SOL    HW2  262   1.034   0.234   0.461
   78SOL     OW  263   1.076   0.683   1.464
   78SOL    HW1  264   0.996   0.622   1.467
   78SOL    HW2  265   1.157   0.630   1.440
   79SOL     OW  266   1.227   1.570   0.793
   79SOL    HW1  267   1.248   1.644   0.728
   79SOL    HW2  268   1.295   1.570   0.866
   80SOL     OW  269   0.459   1.152   0.741
   80SOL    HW1  270   0.388   1.125   0.806
   80SOL    HW2  271   0.433   1.124   0.648
   81SOL     OW  272   1.271   1.797   0.591
   81SOL    HW1  273   1.315   1.861   0.527
   81SOL    HW2  274   1.221   1.849   0.661
   82SOL     OW  275   1.032   0.549   0.016
   82SOL    HW1  276   0.991   0.631  -0.023
   82SOL    HW2  277   1.096   0.575   0.089
   83SOL     OW  278   0.078   0.556   1.386
   83SOL    HW1  279   0.170   0.555   1.345
   83SOL    HW2  280   0.072   0.630   1.453
   84SOL     OW  281   0.561   0.222   1.147
   84SOL    HW1  282   0.599   0.138   1.184
   84SOL    HW2  283   0.473   0.241   1.191
   85SOL     OW  284   0.866   0.454   0.642
   85SOL    HW1  285   0.834   0.526   0.580
   85SOL    HW2  286   0.890   0.373   0.589
   86SOL     OW  287   1.017   0.039   0.753
   86SOL    HW1  288   0.945   0.044   0.684
   86SOL    HW2  289   0.993  -0.030   0.822
   87SOL     OW  290   1.429   1.173   0.867
   87SOL    HW1  291   1.374   1.089   0.860
   87SOL    HW2  292   1.455   1.202   0.775
   88SOL     OW  293   1.466   0.590   0.992
   88SOL    HW1  294   1.436   0.495   0.999
   88SOL    HW2  295   1.539   0.606   1.058
   89SOL     OW  296   1.857   0.833   0.377
   89SOL    HW1  297   1.899   0.769   0.441
   89SOL    HW2  298   1.819   0.782   0.299
   90SOL     OW  299   0.488   1.385   0.174
   90SOL    HW1  300   0.401   1.370   0.221
   90SOL    HW2  301   0.471   1.411   0.079
   91SOL     OW  302   1.664   1.280   0.657
   91SOL    HW1  303   1.763   1.288   0.671
   91SOL    HW2  304   1.619   1.364   0.688
   92SOL     OW  305   1.390   0.575   0.078
   92SOL    HW1  306   1.336   0.554   0.159
   92SOL    HW2  307   1.481   0.534   0.087
   93SOL     OW  308   0.527   0.256   0.328
   93SOL    HW1  309   0.554   0.197   0.253
   93SOL    HW2  310   0.527   0.351   0.297
   94SOL     OW  311   1.754   1.223   1.588
   94SOL    HW1  312   1.845   1.184   1.575
   94SOL    HW2  313   1.762   1.319   1.612
   95SOL     OW  314   1.064   1.347   1.340
   95SOL    HW1  315   0.984   1.324   1.395
   95SOL    HW2  316   1.147   1.321   1.389
   96SOL     OW  317   1.111   1.195   1.100
   96SOL    HW1  318   1.071   1.239   1.181
   96SOL    HW2  319   1.070   1.232   1.017
   97SOL     OW  320   1.638   1.099   1.079
   97SOL    HW1  321   1.643   1.180   1.138
   97SOL    HW2  322   1.552   1.101   1.028
   98SOL     OW  323   0.915   0.089   1.402
   98SOL    HW1  324   0.940   0.069   1.307
   98SOL    HW2  325   0.987   0.145   1.444
   99SOL     OW  326   0.980   1.116   1.719
   99SOL    HW1  327   0.881   1.122   1.729
   99SOL    HW2  328   1.003   1.036   1.663
  100SOL     OW  329   0.705   1.050   0.368
  100SOL    HW1  330   0.691   1.057   0.467
  100SOL    HW2  331   0.789   0.999   0.350
  101SOL     OW  332   0.410   0.813   1.251
  101SOL    HW1  333   0.496   0.825   1.301
  101SOL    HW2  334   0.368   0.726   1.278
  102SOL     OW  335   1.274   0.386   1.262
  102SOL    HW1  336   1.295   0.460   1.326
  102SOL    HW2  337   1.185   0.403   1.219
  103SOL     OW  338   0.064   1.564   1.331
  103SOL    HW1  339   0.018   1.646   1.297
  103SOL    HW2  340   0.162   1.583   1.340
  104SOL     OW  341   0.367   1.100   0.501
  104SOL    HW1  342   0.360   1.183   0.445
  104SOL    HW2  343   0.371   1.020   0.441
  105SOL     OW  344   0.566   0.537   0.865
  105SOL    HW1  345   0.578   0.603   0.791
  105SOL    HW2  346   0.612   0.571   0.948
  106SOL     OW  347   1.252   1.348   0.388
  106SOL    HW1  348   1.302   1.425   0.428
  106SOL    HW2  349   1.157   1.350   0.420
  107SOL     OW  350   1.272   1.445   1.142
  107SOL    HW1  351   1.319   1.458   1.229
  107SOL    HW2  352   1.206   1.371   1.151
  108SOL     OW  353   1.582   0.639   0.472
  108SOL    HW1  354   1.551   0.700   0.545
  108SOL    HW2  355   1.632   0.691   0.403
  109SOL     OW  356   0.354   1.510   1.329
  109SOL    HW1  357   0.333   1.466   1.242
  109SOL    HW2  358   0.451   1.536   1.332
  110SOL     OW  359   0.402   0.751   1.598
  110SOL    HW1  360   0.470   0.806   1.551
  110SOL    HW2  361   0.442   0.663   1.625
  111SOL     OW  362   1.587   0.779   1.670
  111SOL    HW1  363   1.495   0.817   1.665
  111SOL    HW2  364   1.647   0.826   1.605
  112SOL     OW  365   1.013   0.105   1.770
  112SOL    HW1  366   1.019   0.190   1.718
  112SOL    HW2  367   1.045   0.029   1.713
  113SOL     OW  368   0.504   0.050   1.740
  113SOL    HW1  369   0.462  -0.007   1.670
  113SOL    HW2  370   0.438   0.119   1.772
  114SOL     OW  371   0.573   0.870   1.029
  114SOL    HW1  372   0.617   0.959   1.020
  114SOL    HW2  373   0.510   0.870   1.106
  115SOL     OW  374   1.360   0.862   1.045
  115SOL    HW1  375   1.285   0.862   0.979
  115SOL    HW2  376   1.397   0.770   1.054
  116SOL     OW  377   1.209   0.525   0.275
  116SOL    HW1  378   1.222   0.441   0.329
  116SOL    HW2  379   1.180   0.599   0.335
  117SOL     OW  380   0.307   0.213   1.231
  117SOL    HW1  381   0.284   0.250   1.321
  117SOL    HW2  382   0.277   0.118   1.225
  118SOL     OW  383   0.037   1.310   1.282
  118SOL    HW1  384   0.090   1.261   1.350
  118SOL    HW2  385   0.059   1.408   1.287
  119SOL     OW  386   0.732   0.634   1.064
  119SOL    HW1  387   0.791   0.608   0.988
  119SOL    HW2  388   0.704   0.730   1.053
  120SOL     OW  389   1.728   0.935   1.854
  120SOL    HW1  390   1.682   0.928   1.765
  120SOL    HW2  391   1.666   0.979   1.920
  121SOL     OW  392   0.307   0.063   0.618
  121SOL    HW1  393   0.296   0.157   0.651
  121SOL    HW2  394   0.302   0.000   0.695
  122SOL     OW  395   1.622   0.367   0.374
  122SOL    HW1  396   1.624   0.291   0.438
  122SOL    HW2  397   1.574   0.444   0.414
  123SOL     OW  398   1.023   0.766   0.966
  123SOL    HW1  399   1.038   0.787   1.062
  123SOL    HW2  400   0.993   0.671   0.957
  124SOL     OW  401   0.980   1.573   1.700
  124SOL    HW1  402   0.960   1.617   1.612
  124SOL    HW2  403   1.019   1.482   1.684
  125SOL     OW  404   0.350   0.898   1.804
  125SOL    HW1  405   0.426   0.942   1.852
  125SOL    HW2  406   0.385   0.851   1.722
  126SOL     OW  407   1.540   0.274   0.125
  126SOL    HW1  408   1.479   0.199   0.148
  126SOL    HW2  409   1.562   0.326   0.208
  127SOL     OW  410   1.303   0.838   0.042
  127SOL    HW1  411   1.337   0.745   0.057
  127SOL    HW2  412   1.321   0.865  -0.053
  128SOL     OW  413   1.068   1.333   0.849
  128SOL    HW1  414   1.075   1.249   0.794
  128SOL    HW2  415   1.130   1.402   0.813
  129SOL     OW  416   0.319   0.810   0.949
  129SOL    HW1  417   0.412   0.846   0.954
  129SOL    HW2  418   0.313   0.725   1.001
  130SOL     OW  419   0.339   0.509   1.006
  130SOL    HW1  420   0.287   0.426   0.989
  130SOL    HW2  421   0.416   0.514   0.942
  131SOL     OW  422   1.138   0.380   1.678
  131SOL    HW1  423   1.093   0.443   1.742
  131SOL    HW2  424   1.231   0.411   1.661
  132SOL     OW  425   1.160   0.207   1.477
  132SOL    HW1  426   1.160   0.271   1.554
  132SOL    HW2  427   1.188   0.255   1.394
  133SOL     OW  428   0.008   1.326   0.200
  133SOL    HW1  429  -0.085   1.347   0.169
  133SOL    HW2  430   0.018   1.227   0.213
  134SOL     OW  431   0.088   1.801   0.927
  134SOL    HW1  432   0.046   1.715   0.900
  134SOL    HW2  433   0.182   1.804   0.893
  135SOL     OW  434   0.504   1.568   0.910
  135SOL    HW1  435   0.570   1.642   0.919
  135SOL    HW2  436   0.548   1.489   0.868
  136SOL     OW  437   1.002   0.796   1.238
  136SOL    HW1  438   1.043   0.764   1.324
  136SOL    HW2  439   0.906   0.769   1.235
  137SOL     OW  440   0.040   0.544   1.114
  137SOL    HW1  441   0.125   0.511   1.073
  137SOL    HW2  442   0.053   0.559   1.212
  138SOL     OW  443   0.189   0.520   1.722
  138SOL    HW1  444   0.248   0.480   1.652
  138SOL    HW2  445   0.131   0.591   1.681
  139SOL     OW  446   1.369   0.950   1.660
  139SOL    HW1  447   1.408   1.039   1.680
  139SOL    HW2  448   1.379   0.930   1.563
  140SOL     OW  449   0.815   0.572   0.325
  140SOL    HW1  450   0.822   0.483   0.279
  140SOL    HW2  451   0.721   0.606   0.317
  141SOL     OW  452   1.657   0.604   1.206
  141SOL    HW1  453   1.619   0.535   1.268
  141SOL    HW2  454   1.739   0.568   1.162
  142SOL     OW  455   0.252   1.564   1.744
  142SOL    HW1  456   0.222   1.621   1.820
  142SOL    HW2  457   0.245   1.467   1.770
  143SOL     OW  458   0.671   0.464   1.269
  143SOL    HW1  459   0.637   0.375   1.239
  143SOL    HW2  460   0.697   0.518   1.189
  144SOL     OW  461   0.930   1.678   1.465
  144SOL    HW1  462   0.906   1.660   1.370
  144SOL    HW2  463   0.960   1.772   1.475
  145SOL     OW  464   0.473   0.500   0.191
  145SOL    HW1  465   0.534   0.580   0.195
  145SOL    HW2  466   0.378   0.531   0.198
  146SOL     OW  467   0.159   1.137   1.466
  146SOL    HW1  468   0.181   1.076   1.542
  146SOL    HW2  469   0.169   1.088   1.380
  147SOL     OW  470   1.347   1.059   1.234
  147SOL    HW1  471   1.371   0.996   1.160
  147SOL    HW2  472   1.257   1.099   1.216
  148SOL     OW  473   1.302   0.855   0.309
  148SOL    HW1  474   1.216   0.824   0.351
  148SOL    HW2  475   1.298   0.841   0.210
  149SOL     OW  476   1.759   1.747   1.154
  149SOL    HW1  477   1.820   1.777   1.081
  149SOL    HW2  478   1.721   1.658   1.132
  150SOL     OW  479   1.252   1.731   1.128
  150SOL    HW1  480   1.336   1.736   1.074
  150SOL    HW2  481   1.229   1.635   1.146
  151SOL     OW  482   0.083   1.258   1.022
  151SOL    HW1  483   0.078   1.257   1.122
  151SOL    HW2  484   0.000   1.217   0.984
  152SOL     OW  485   0.688   1.662   1.716
  152SOL    HW1  486   0.632   1.743   1.725
  152SOL    HW2  487   0.740   1.666   1.630
  153SOL     OW  488   0.903   0.086   0.133
  153SOL    HW1  489   0.954   0.087   0.047
  153SOL    HW2  490   0.959   0.044   0.204
  154SOL     OW  491   1.726   0.135   0.523
  154SOL    HW1  492   1.799   0.118   0.456
  154SOL    HW2  493   1.695   0.048   0.561
  155SOL     OW  494   1.388   1.573   0.477
  155SOL    HW1  495   1.455   1.585   0.403
  155SOL    HW2  496   1.348   1.662   0.500
  156SOL     OW  497   0.130   1.794   1.851
  156SOL    HW1  498   0.089   1.720   1.904
  156SOL    HW2  499   0.194   1.845   1.909
  157SOL     OW  500   1.280   0.927   0.672
  157SOL    HW1  501   1.340   0.846   0.674
  157SOL    HW2  502   1.320   0.996   0.612
  158SOL     OW  503   0.830   1.273   1.422
  158SOL    HW1  504   0.825   1.306   1.517
  158SOL    HW2  505   0.744   1.292   1.376
  159SOL     OW  506   0.672   1.616   0.154
  159SOL    HW1  507   0.681   1.626   0.055
  159SOL    HW2  508   0.632   1.527   0.175
  160SOL     OW  509   1.650   1.720   1.394
  160SOL    HW1  510   1.703   1.730   1.310
  160SOL    HW2  511   1.623   1.810   1.428
  161SOL     OW  512   1.841   0.175   0.963
  161SOL    HW1  513   1.880   0.090   0.927
  161SOL    HW2  514   1.743   0.177   0.944
  162SOL     OW  515   0.263   0.326   0.720
  162SOL    HW1  516   0.184   0.377   0.686
  162SOL    HW2  517   0.254   0.311   0.818
  163SOL     OW  518   1.194   1.612   0.031
  163SOL    HW1  519   1.200   1.519   0.068
  163SOL    HW2  520   1.135   1.612  -0.049
  164SOL     OW  521   0.822   1.002   1.372
  164SOL    HW1  522   0.862   1.001   1.280
  164SOL    HW2  523   0.832   1.094   1.412
  165SOL     OW  524   0.916   0.910   0.291
  165SOL    HW1  525   0.979   0.948   0.223
  165SOL    HW2  526   0.956   0.827   0.330
  166SOL     OW  527   1.504   1.607   0.044
  166SOL    HW1  528   1.412   1.644   0.051
  166SOL    HW2  529   1.542   1.627  -0.046
  167SOL     OW  530   0.372   1.288   1.490
  167SOL    HW1  531   0.359   1.381   1.456
  167SOL    HW2  532   0.288   1.236   1.477
  168SOL     OW  533   1.614   1.292   1.289
  168SOL    HW1  534   1.674   1.295   1.369
  168SOL    HW2  535   1.539   1.356   1.302
  169SOL     OW  536   1.039   1.098   0.696
  169SOL    HW1  537   0.969   1.051   0.750
  169SOL    HW2  538   1.098   1.030   0.653
  170SOL     OW  539   1.014   0.236   0.971
  170SOL    HW1  540   1.006   0.200   0.878
  170SOL    HW2  541   1.012   0.160   1.036
  171SOL     OW  542   0.590   1.487   0.491
  171SOL    HW1  543   0.632   1.429   0.421
  171SOL    HW2  544   0.546   1.566   0.447
  172SOL     OW  545   1.709   0.385   1.381
  172SOL    HW1  546   1.782   0.454   1.385
  172SOL    HW2  547   1.737   0.310   1.322
  173SOL     OW  548   0.255   1.348   0.290
  173SOL    HW1  549   0.159   1.349   0.263
  173SOL    HW2  550   0.267   1.401   0.374
  174SOL     OW  551   0.105   1.013   1.726
  174SOL    HW1  552   0.028   0.980   1.780
  174SOL    HW2  553   0.190   0.983   1.768
  175SOL     OW  554   0.672   0.203   1.489
  175SOL    HW1  555   0.762   0.187   1.449
  175SOL    HW2  556   0.680   0.208   1.588
  176SOL     OW  557   0.075   0.345   0.033
  176SOL    HW1  558  -0.017   0.317   0.004
  176SOL    HW2  559   0.106   0.422  -0.023
  177SOL     OW  560   1.440   0.856   1.398
  177SOL    HW1  561   1.383   0.908   1.335
  177SOL    HW2  562   1.536   0.868   1.374
  178SOL     OW  563   0.072   0.166   0.318
  178SOL    HW1  564   0.055   0.249   0.264
  178SOL    HW2  565   0.162   0.129   0.296
  179SOL     OW  566   1.183   1.335   0.119
  179SOL    HW1  567   1.084   1.324   0.121
  179SOL    HW2  568   1.217   1.350   0.212
  180SOL     OW  569   0.613   0.842   1.431
  180SOL    HW1  570   0.669   0.923   1.414
  180SOL    HW2  571   0.672   0.762   1.434
  181SOL     OW  572   1.493   1.767   0.959
  181SOL    HW1  573   1.526   1.831   0.890
  181SOL    HW2  574   1.559   1.761   1.034
  182SOL     OW  575   0.716   0.565   1.708
  182SOL    HW1  576   0.735   0.630   1.782
  182SOL    HW2  577   0.776   0.485   1.717
  183SOL     OW  578   1.450   1.220   1.633
  183SOL    HW1  579   1.441   1.210   1.732
  183SOL    HW2  580   1.546   1.213   1.607
  184SOL     OW  581   0.390   1.741   1.560
  184SOL    HW1  582   0.299   1.782   1.558
  184SOL    HW2  583   0.383   1.647   1.592
  185SOL     OW  584   1.674   0.883   1.254
  185SOL    HW1  585   1.647   0.794   1.217
  185SOL    HW2  586   1.675   0.951   1.181
  186SOL     OW  587   1.225   0.325   0.449
  186SOL    HW1  588   1.290   0.251   0.438
  186SOL    HW2  589   1.245   0.375   0.533
  187SOL     OW  590   0.594   0.745   0.652
  187SOL    HW1  591   0.644   0.830   0.633
  187SOL    HW2  592   0.506   0.747   0.604
  188SOL     OW  593   1.777   0.342   1.642
  188SOL    HW1  594   1.760   0.373   1.548
  188SOL    HW2  595   1.693   0.305   1.680
  189SOL     OW  596   1.730   0.934   1.517
  189SOL    HW1  597   1.768   1.025   1.532
  189SOL    HW2  598   1.722   0.917   1.418
  190SOL     OW  599   0.859   1.374   0.016
  190SOL    HW1  600   0.813   1.389   0.104
  190SOL    HW2  601   0.903   1.459  -0.014
  191SOL     OW  602   0.661   1.790   0.953
  191SOL    HW1  603   0.615   1.878   0.940
  191SOL    HW2  604   0.760   1.802   0.946
  192SOL     OW  605   0.859   0.956   0.861
  192SOL    HW1  606   0.913   0.887   0.909
  192SOL    HW2  607   0.827   1.025   0.927
  193SOL     OW  608   1.083   0.984   0.087
  193SOL    HW1  609   1.060   1.037   0.005
  193SOL    HW2  610   1.164   0.928   0.068
  194SOL     OW  611   1.861   1.569   0.851
  194SOL    HW1  612   1.790   1.557   0.781
  194SOL    HW2  613   1.862   1.490   0.911
  195SOL     OW  614   0.221   1.314   1.844
  195SOL    HW1  615   0.156   1.241   1.823
  195SOL    HW2  616   0.225   1.328   1.942
  196SOL     OW  617   0.079   1.240   0.653
  196SOL    HW1  618   0.078   1.193   0.741
  196SOL    HW2  619   0.161   1.212   0.602
  197SOL     OW  620   0.672   1.391   1.624
  197SOL    HW1  621   0.594   1.341   1.662
  197SOL    HW2  622   0.669   1.486   1.655
  198SOL     OW  623   1.824   0.192   1.227
  198SOL    HW1  624   1.820   0.102   1.271
  198SOL    HW2  625   1.827   0.181   1.128
  199SOL     OW  626   0.428   0.424   0.520
  199SOL    HW1  627   0.458   0.352   0.458
  199SOL    HW2  628   0.389   0.384   0.603
  200SOL     OW  629   1.705   1.487   1.104
  200SOL    HW1  630   1.612   1.462   1.077
  200SOL    HW2  631   1.731   1.437   1.186
  201SOL     OW  632   0.317   0.547   1.280
  201SOL    HW1  633   0.355   0.488   1.352
  201SOL    HW2  634   0.357   0.521   1.192
  202SOL     OW  635   0.812   1.586   0.687
  202SOL    HW1  636   0.844   1.596   0.593
  202SOL    HW2  637   0.733   1.524   0.689
  203SOL     OW  638   1.424   0.214   1.112
  203SOL    HW1  639   1.476   0.149   1.167
  203SOL    HW2  640   1.375   0.277   1.173
  204SOL     OW  641   1.001   0.034   1.154
  204SOL    HW1  642   0.938  -0.038   1.123
  204SOL    HW2  643   1.094  -0.002   1.154
  205SOL     OW  644   0.770   1.330   0.301
  205SOL    HW1  645   0.724   1.243   0.318
  205SOL    HW2  646   0.861   1.327   0.342
  206SOL     OW  647   0.618   1.567   1.284
  206SOL    HW1  648   0.613   1.649   1.341
  206SOL    HW2  649   0.707   1.564   1.239
  207SOL     OW  650   1.352   0.052   0.168
  207SOL    HW1  651   1.387   0.011   0.084
  207SOL    HW2  652   1.262   0.014   0.188
  208SOL     OW  653   1.300   0.453   0.691
  208SOL    HW1  654   1.241   0.533   0.695
  208SOL    HW2  655   1.315   0.418   0.784
  209SOL     OW  656   1.593   0.221   0.882
  209SOL    HW1  657   1.509   0.220   0.936
  209SOL    HW2  658   1.595   0.304   0.826
  210SOL     OW  659   0.039   1.077   0.300
  210SOL    HW1  660   0.138   1.066   0.291
  210SOL    HW2  661  -0.001   0.991   0.332
  211SOL     OW  662   0.875   1.646   0.337
  211SOL    HW1  663   0.798   1.611   0.283
  211SOL    HW2  664   0.843   1.717   0.399
  212SOL     OW  665   0.230   0.628   1.975
  212SOL    HW1  666   0.137   0.626   2.012
  212SOL    HW2  667   0.231   0.589   1.883
  213SOL     OW  668   0.225   0.275   2.858
  213SOL    HW1  669   0.260   0.258   2.950
  213SOL    HW2  670   0.137   0.230   2.846
  214SOL     OW  671   0.019   0.368   2.509
  214SOL    HW1  672  -0.063   0.411   2.548
  214SOL    HW2  673  -0.009   0.295   2.446
  215SOL     OW  674   0.569   1.275   3.027
  215SOL    HW1  675   0.476   1.268   2.990
  215SOL    HW2  676   0.580   1.364   3.071
  216SOL     OW  677   1.555   1.511   2.565
  216SOL    HW1  678   1.498   1.495   2.646
  216SOL    HW2  679   1.496   1.521   2.485
  217SOL     OW  680   1.135   0.703   2.579
  217SOL    HW1  681   1.192   0.781   2.554
  217SOL    HW2  682   1.075   0.729   2.655
  218SOL     OW  683   1.755   0.607   2.093
  218SOL    HW1  684   1.743   0.594   1.994
  218SOL    HW2  685   1.725   0.526   2.142
  219SOL     OW  686   0.768   1.144   2.885
  219SOL    HW1  687   0.690   1.161   2.945
  219SOL    HW2  688   0.802   1.231   2.849
  220SOL     OW  689   0.685   1.012   2.527
  220SOL    HW1  690   0.754   0.996   2.597
  220SOL    HW2  691   0.612   1.069   2.565
  221SOL     OW  692   0.335   1.435   2.923
  221SOL    HW1  693   0.257   1.404   2.870
  221SOL    HW2  694   0.393   1.493   2.866
  222SOL     OW  695   1.460   1.505   3.201
  222SOL    HW1  696   1.484   1.599   3.227
  222SOL    HW2  697   1.444   1.451   3.283
  223SOL     OW  698   0.438   0.392   3.361
  223SOL    HW1  699   0.520   0.336   3.370
  223SOL    HW2  700   0.357   0.334   3.365
  224SOL     OW  701   1.603   0.447   2.599
  224SOL    HW1  702   1.529   0.493   2.549
  224SOL    HW2  703   1.654   0.515   2.652
  225SOL     OW  704   0.231   1.713   2.345
  225SOL    HW1  705   0.265   1.790   2.399
  225SOL    HW2  706   0.275   1.713   2.255
  226SOL     OW  707   0.230   1.434   2.400
  226SOL    HW1  708   0.204   1.530   2.400
  226SOL    HW2  709   0.159   1.380   2.445
  227SOL     OW  710   0.240   1.091   2.748
  227SOL    HW1  711   0.254   1.007   2.800
  227SOL    HW2  712   0.185   1.155   2.803
  228SOL     OW  713   0.620   1.786   3.301
  228SOL    HW1  714   0.528   1.769   3.336
  228SOL    HW2  715   0.648   1.878   3.327
  229SOL     OW  716   0.606   0.964   1.985
  229SOL    HW1  717   0.613   1.048   1.931
  229SOL    HW2  718   0.652   0.977   2.073
  230SOL     OW  719   1.594   0.114   3.342
  230SOL    HW1  720   1.576   0.181   3.270
  230SOL    HW2  721   1.591   0.160   3.431
  231SOL     OW  722   0.122   0.643   2.425
  231SOL    HW1  723   0.077   0.555   2.442
  231SOL    HW2  724   0.121   0.697   2.509
  232SOL     OW  725   1.842   1.767   2.221
  232SOL    HW1  726   1.896   1.738   2.301
  232SOL    HW2  727   1.872   1.857   2.192
  233SOL     OW  728   0.027   1.596   1.979
  233SOL    HW1  729   0.008   1.500   2.000
  233SOL    HW2  730  -0.006   1.654   2.054
  234SOL     OW  731   1.689   0.922   2.474
  234SOL    HW1  732   1.784   0.893   2.482
  234SOL    HW2  733   1.681   0.987   2.399
  235SOL     OW  734   1.641   1.108   2.294
  235SOL    HW1  735   1.727   1.110   2.242
  235SOL    HW2  736   1.655   1.155   2.382
  236SOL     OW  737   0.613   1.365   2.588
  236SOL    HW1  738   0.564   1.278   2.597
  236SOL    HW2  739   0.590   1.408   2.501
  237SOL     OW  740   0.809   0.004   2.364
  237SOL    HW1  741   0.849   0.095   2.355
  237SOL    HW2  742   0.709   0.012   2.370
  238SOL     OW  743   0.197   0.976   3.126
  238SOL    HW1  744   0.286   0.931   3.112
  238SOL    HW2  745   0.124   0.911   3.107
  239SOL     OW  746   1.525   0.999   2.052
  239SOL    HW1  747   1.462   0.923   2.065
  239SOL    HW2  748   1.573   1.017   2.138
  240SOL     OW  749   1.466   1.417   2.815
  240SOL    HW1  750   1.407   1.423   2.895
  240SOL    HW2  751   1.451   1.329   2.769
  241SOL     OW  752   1.667   1.714   2.434
  241SOL    HW1  753   1.626   1.691   2.346
  241SOL    HW2  754   1.649   1.640   2.499
  242SOL     OW  755   0.598   0.729   2.132
  242SOL    HW1  756   0.622   0.798   2.064
  242SOL    HW2  757   0.520   0.762   2.186
  243SOL     OW  758   1.281   0.345   2.806
  243SOL    HW1  759   1.195   0.295   2.793
  243SOL    HW2  760   1.343   0.291   2.862
  244SOL     OW  761   1.576   1.662   2.169
  244SOL    HW1  762   1.665   1.708   2.172
  244SOL    HW2  763   1.555   1.638   2.074
  245SOL     OW  764   0.807   0.605   3.327
  245SOL    HW1  765   0.760   0.602   3.416
  245SOL    HW2  766   0.756   0.550   3.261
  246SOL     OW  767   0.973   0.890   3.434
  246SOL    HW1  768   1.019   0.806   3.405
  246SOL    HW2  769   0.917   0.924   3.359
  247SOL     OW  770   0.991   0.410   3.104
  247SOL    HW1  771   0.914   0.444   3.158
  247SOL    HW2  772   0.957   0.359   3.025
  248SOL     OW  773   1.041   0.701   2.291
  248SOL    HW1  774   1.067   0.697   2.387
  248SOL    HW2  775   0.956   0.650   2.277
  249SOL     OW  776   0.076   0.811   2.651
  249SOL    HW1  777   0.175   0.799   2.660
  249SOL    HW2  778   0.052   0.906   2.672
  250SOL     OW  779   0.130   1.821   3.433
  250SOL    HW1  780   0.120   1.806   3.532
  250SOL    HW2  781   0.044   1.857   3.397
  251SOL     OW  782   0.865   0.348   2.057
  251SOL    HW1  783   0.924   0.411   2.008
  251SOL    HW2  784   0.884   0.254   2.028
  252SOL     OW  785   1.362   1.144   2.407
  252SOL    HW1  786   1.445   1.115   2.359
  252SOL    HW2  787   1.313   1.211   2.351
  253SOL     OW  788   0.550   0.196   2.747
  253SOL    HW1  789   0.545   0.191   2.847
  253SOL    HW2  790   0.552   0.292   2.718
  254SOL     OW  791   1.008   1.456   2.339
  254SOL    HW1  792   0.962   1.528   2.287
  254SOL    HW2  793   1.004   1.476   2.437
  255SOL     OW  794   0.351   1.801   2.715
  255SOL    HW1  795   0.401   1.715   2.721
  255SOL    HW2  796   0.416   1.878   2.712
  256SOL     OW  797   1.795   1.066   2.735
  256SOL    HW1  798   1.733   1.051   2.659
  256SOL    HW2  799   1.743   1.077   2.820
  257SOL     OW  800   0.321   0.943   2.104
  257SOL    HW1  801   0.403   0.982   2.062
  257SOL    HW2  802   0.294   0.861   2.055
  258SOL     OW  803   1.458   0.735   2.590
  258SOL    HW1  804   1.453   0.670   2.665
  258SOL    HW2  805   1.538   0.794   2.603
  259SOL     OW  806   1.111   1.776   2.099
  259SOL    HW1  807   1.051   1.714   2.149
  259SOL    HW2  808   1.142   1.732   2.014
  260SOL     OW  809   1.632   1.377   1.943
  260SOL    HW1  810   1.600   1.471   1.933
  260SOL    HW2  811   1.556   1.314   1.931
  261SOL     OW  812   0.464   1.743   2.185
  261SOL    HW1  813   0.497   1.782   2.271
  261SOL    HW2  814   0.540   1.736   2.120
  262SOL     OW  815   1.400   0.107   2.288
  262SOL    HW1  816   1.376   0.070   2.198
  262SOL    HW2  817   1.499   0.123   2.292
  263SOL     OW  818   0.249   1.785   3.103
  263SOL    HW1  819   0.306   1.720   3.153
  263SOL    HW2  820   0.233   1.752   3.010
  264SOL     OW  821   0.940   1.698   2.766
  264SOL    HW1  822   1.020   1.641   2.787
  264SOL    HW2  823   0.891   1.658   2.689
  265SOL     OW  824   0.382   0.700   2.342
  265SOL    HW1  825   0.427   0.610   2.339
  265SOL    HW2  826   0.288   0.689   2.375
  266SOL     OW  827   0.614   0.122   1.979
  266SOL    HW1  828   0.712   0.100   1.986
  266SOL    HW2  829   0.583   0.105   1.886
  267SOL     OW  830   0.888   1.514   3.057
  267SOL    HW1  831   0.865   1.489   2.963
  267SOL    HW2  832   0.949   1.445   3.096
  268SOL     OW  833   0.803   1.402   2.786
  268SOL    HW1  834   0.893   1.416   2.744
  268SOL    HW2  835   0.732   1.404   2.715
  269SOL     OW  836   0.922   0.503   2.761
  269SOL    HW1  837   0.897   0.494   2.665
  269SOL    HW2  838   0.970   0.421   2.792
  270SOL     OW  839   0.539   0.064   2.374
  270SOL    HW1  840   0.458   0.065   2.432
  270SOL    HW2  841   0.542   0.147   2.319
  271SOL     OW  842   1.434   1.188   1.903
  271SOL    HW1  843   1.466   1.112   1.960
  271SOL    HW2  844   1.342   1.215   1.933
  272SOL     OW  845   0.297   0.035   2.033
  272SOL    HW1  846   0.346   0.119   2.012
  272SOL    HW2  847   0.359  -0.030   2.078
  273SOL     OW  848   0.935   0.236   2.342
  273SOL    HW1  849   0.887   0.277   2.264
  273SOL    HW2  850   1.034   0.234   2.323
  274SOL     OW  851   1.227   1.570   2.655
  274SOL    HW1  852   1.248   1.644   2.590
  274SOL    HW2  853   1.295   1.570   2.728
  275SOL     OW  854   0.459   1.152   2.603
  275SOL    HW1  855   0.388   1.125   2.668
  275SOL    HW2  856   0.433   1.124   2.510
  276SOL     OW  857   1.271   1.797   2.453
  276SOL    HW1  858   1.315   1.861   2.389
  276SOL    HW2  859   1.221   1.849   2.523
  277SOL     OW  860   1.032   0.549   1.878
  277SOL    HW1  861   0.991   0.631   1.839
  277SOL    HW2  862   1.096   0.575   1.951
  278SOL     OW  863   0.078   0.556   3.248
  278SOL    HW1  864   0.170   0.555   3.207
  278SOL    HW2  865   0.072   0.630   3.315
  279SOL     OW  866   0.561   0.222   3.009
  279SOL    HW1  867   0.599   0.138   3.046
  279SOL    HW2  868   0.473   0.241   3.053
  280SOL     OW  869   0.866   0.454   2.504
  280SOL    HW1  870   0.834   0.526   2.442
  280SOL    HW2  871   0.890   0.373   2.451
  281SOL     OW  872   1.017   0.039   2.615
  281SOL    HW1  873   0.945   0.044   2.546
  281SOL    HW2  874   0.993  -0.030   2.684
  282SOL     OW  875   1.429   1.173   2.729
  282SOL    HW1  876   1.374   1.089   2.722
  282SOL    HW2  877   1.455   1.202   2.637
  283SOL     OW  878   1.466   0.590   2.854
  283SOL    HW1  879   1.436   0.495   2.861
  283SOL    HW2  880   1.539   0.606   2.920
  284SOL     OW  881   1.857   0.833   2.239
  284SOL    HW1  882   1.899   0.769   2.303
  284SOL    HW2  883   1.819   0.782   2.161
  285SOL     OW  884   0.488   1.385   2.036
  285SOL    HW1  885   0.401   1.370   2.083
  285SOL    HW2  886   0.471   1.411   1.941
  286SOL     OW  887   1.664   1.280   2.519
  286SOL    HW1  888   1.763   1.288   2.533
  286SOL    HW2  889   1.619   1.364   2.550
  287SOL     OW  890   1.390   0.575   1.940
  287SOL    HW1  891   1.336   0.554   2.021
  287SOL    HW2  892   1.481   0.534   1.949
  288SOL     OW  893   0.527   0.256   2.190
  288SOL    HW1  894   0.554   0.197   2.115
  288SOL    HW2  895   0.527   0.351   2.159
  289SOL     OW  896   1.064   1.347   3.202
  289SOL    HW1  897   0.984   1.324   3.257
  289SOL    HW2  898   1.147   1.321   3.251
  290SOL     OW  899   1.111   1.195   2.962
  290SOL    HW1  900   1.071   1.239   3.043
  290SOL    HW2  901   1.070   1.232   2.879
  291SOL     OW  902   1.638   1.099   2.941
  291SOL    HW1  903   1.643   1.180   3.000
  291SOL    HW2  904   1.552   1.101   2.890
  292SOL     OW  905   0.915   0.089   3.264
  292SOL    HW1  906   0.940   0.069   3.169
  292SOL    HW2  907   0.987   0.145   3.306
  293SOL     OW  908   0.705   1.050   2.230
  293SOL    HW1  909   0.691   1.057   2.329
  293SOL    HW2  910   0.789   0.999   2.212
  294SOL     OW  911   0.410   0.813   3.113
  294SOL    HW1  912   0.496   0.825   3.163
  294SOL    HW2  913   0.368   0.726   3.140
  295SOL     OW  914   1.274   0.386   3.124
  295SOL    HW1  915   1.295   0.460   3.188
  295SOL    HW2  916   1.185   0.403   3.081
  296SOL     OW  917   0.064   1.564   3.193
  296SOL    HW1  918   0.018   1.646   3.159
  296SOL    HW2  919   0.162   1.583   3.202
  297SOL     OW  920   0.367   1.100   2.363
  297SOL    HW1  921   0.360   1.183   2.307
  297SOL    HW2  922   0.371   1.020   2.303
  298SOL     OW  923   0.566   0.537   2.727
  298SOL    HW1  924   0.578   0.603   2.653
  298SOL    HW2  925   0.612   0.571   2.810
  299SOL     OW  926   1.252   1.348   2.250
  299SOL    HW1  927   1.302   1.425   2.290
  299SOL    HW2  928   1.157   1.350   2.282
  300SOL     OW  929   1.272   1.445   3.004
  300SOL    HW1  930   1.319   1.458   3.091
  300SOL    HW2  931   1.206   1.371   3.013
  301SOL     OW  932   1.582   0.639   2.334
  301SOL    HW1  933   1.551   0.700   2.407
  301SOL    HW2  934   1.632   0.691   2.265
  302SOL     OW  935   0.354   1.510   3.191
  302SOL    HW1  936   0.333   1.466   3.104
  302SOL    HW2  937   0.451   1.536   3.194
  303SOL     OW  938   0.402   0.751   3.460
  303SOL    HW1  939   0.470   0.806   3.413
  303SOL    HW2  940   0.442   0.663   3.487
  304SOL     OW  941   1.587   0.779   3.532
  304SOL    HW1  942   1.495   0.817   3.527
  304SOL    HW2  943   1.647   0.826   3.467
  305SOL     OW  944   0.573   0.870   2.891
  305SOL    HW1  945   0.617   0.959   2.882
  305SOL    HW2  946   0.510   0.870   2.968
  306SOL     OW  947   1.360   0.862   2.907
  306SOL    HW1  948   1.285   0.862   2.841
  306SOL    HW2  949   1.397   0.770   2.916
  307SOL     OW  950   1.209   0.525   2.137
  307SOL    HW1  951   1.222   0.441   2.191
  307SOL    HW2  952   1.180   0.599   2.197
  308SOL     OW  953   0.307   0.213   3.093
  308SOL    HW1  954   0.284   0.250   3.183
  308SOL    HW2  955   0.277   0.118   3.087
  309SOL     OW  956   0.037   1.310   3.144
  309SOL    HW1  957   0.090   1.261   3.212
  309SOL    HW2  958   0.059   1.408   3.149
  310SOL     OW  959   0.732   0.634   2.926
  310SOL    HW1  960   0.791   0.608   2.850
  310SOL    HW2  961   0.704   0.730   2.915
  311SOL     OW  962   0.307   0.063   2.480
  311SOL    HW1  963   0.296   0.157   2.513
  311SOL    HW2  964   0.302   0.000   2.557
  312SOL     OW  965   1.622   0.367   2.236
  312SOL    HW1  966   1.624   0.291   2.300
  312SOL    HW2  967   1.574   0.444   2.276
  313SOL     OW  968   1.023   0.766   2.828
  313SOL    HW1  969   1.038   0.787   2.924
  313SOL    HW2  970   0.993   0.671   2.819
  314SOL     OW  971   0.980   1.573   3.562
  314SOL    HW1  972   0.960   1.617   3.474
  314SOL    HW2  973   1.019   1.482   3.546
  315SOL     OW  974   1.540   0.274   1.987
  315SOL    HW1  975   1.479   0.199   2.010
  315SOL    HW2  976   1.562   0.326   2.070
  316SOL     OW  977   1.303   0.838   1.904
  316SOL    HW1  978   1.337   0.745   1.919
  316SOL    HW2  979   1.321   0.865   1.809
  317SOL     OW  980   1.068   1.333   2.711
  317SOL    HW1  981   1.075   1.249   2.656
  317SOL    HW2  982   1.130   1.402   2.675
  318SOL     OW  983   0.319   0.810   2.811
  318SOL    HW1  984   0.412   0.846   2.816
  318SOL    HW2  985   0.313   0.725   2.863
  319SOL     OW  986   0.339   0.509   2.868
  319SOL    HW1  987   0.287   0.426   2.851
  319SOL    HW2  988   0.416   0.514   2.804
  320SOL     OW  989   1.138   0.380   3.540
  320SOL    HW1  990   1.093   0.443   3.604
  320SOL    HW2  991   1.231   0.411   3.523
  321SOL     OW  992   1.160   0.207   3.339
  321SOL    HW1  993   1.160   0.271   3.416
  321SOL    HW2  994   1.188   0.255   3.256
  322SOL     OW  995   0.008   1.326   2.062
  322SOL    HW1  996  -0.085   1.347   2.031
  322SOL    HW2  997   0.018   1.227   2.075
  323SOL     OW  998   0.088   1.801   2.789
  323SOL    HW1  999   0.046   1.715   2.762
  323SOL    HW2 1000   0.182   1.804   2.755
  324SOL     OW 1001   0.504   1.568   2.772
  324SOL    HW1 1002   0.570   1.642   2.781
  324SOL    HW2 1003   0.548   1.489   2.730
  325SOL     OW 1004   1.002   0.796   3.100
  325SOL    HW1 1005   1.043   0.764   3.186
  325SOL    HW2 1006   0.906   0.769   3.097
  326SOL     OW 1007   0.040   0.544   2.976
  326SOL    HW1 1008   0.125   0.511   2.935
  326SOL    HW2 1009   0.053   0.559   3.074
  327SOL     OW 1010   0.815   0.572   2.187
  327SOL    HW1 1011   0.822   0.483   2.141
  327SOL    HW2 1012   0.721   0.606   2.179
  328SOL     OW 1013   1.657   0.604   3.068
  328SOL    HW1 1014   1.619   0.535   3.130
  328SOL    HW2 1015   1.739   0.568   3.024
  329SOL     OW 1016   0.252   1.564   3.606
  329SOL    HW1 1017   0.222   1.621   3.682
  329SOL    HW2 1018   0.245   1.467   3.632
  330SOL     OW 1019   0.671   0.464   3.131
  330SOL    HW1 1020   0.637   0.375   3.101
  330SOL    HW2 1021   0.697   0.518   3.051
  331SOL     OW 1022   0.930   1.678   3.327
  331SOL    HW1 1023   0.906   1.660   3.232
  331SOL    HW2 1024   0.960   1.772   3.337
  332SOL     OW 1025   0.473   0.500   2.053
  332SOL    HW1 1026   0.534   0.580   2.057
  332SOL    HW2 1027   0.378   0.531   2.060
  333SOL     OW 1028   0.159   1.137   3.328
  333SOL    HW1 1029   0.181   1.076   3.404
  333SOL    HW2 1030   0.169   1.088   3.242
  334SOL     OW 1031   1.347   1.059   3.096
  334SOL    HW1 1032   1.371   0.996   3.022
  334SOL    HW2 1033   1.257   1.099   3.078
  335SOL     OW 1034   1.302   0.855   2.171
  335SOL    HW1 1035   1.216   0.824   2.213
  335SOL    HW2 1036   1.298   0.841   2.072
  336SOL     OW 1037   1.759   1.747   3.016
  336SOL    HW1 1038   1.820   1.777   2.943
  336SOL    HW2 1039   1.721   1.658   2.994
  337SOL     OW 1040   1.252   1.731   2.990
  337SOL    HW1 1041   1.336   1.736   2.936
  337SOL    HW2 1042   1.229   1.635   3.008
  338SOL     OW 1043   0.083   1.258   2.884
  338SOL    HW1 1044   0.078   1.257   2.984
  338SOL    HW2 1045   0.000   1.217   2.846
  339SOL     OW 1046   1.726   0.135   2.385
  339SOL    HW1 1047   1.799   0.118   2.318
  339SOL    HW2 1048   1.695   0.048   2.423
  340SOL     OW 1049   1.388   1.573   2.339
  340SOL    HW1 1050   1.455   1.585   2.265
  340SOL    HW2 1051   1.348   1.662   2.362
  341SOL     OW 1052   1.280   0.927   2.534
  341SOL    HW1 1053   1.340   0.846   2.536
  341SOL    HW2 1054   1.320   0.996   2.474
  342SOL     OW 1055   0.672   1.616   2.016
  342SOL    HW1 1056   0.681   1.626   1.917
  342SOL    HW2 1057   0.632   1.527   2.037
  343SOL     OW 1058   1.650   1.720   3.256
  343SOL    HW1 1059   1.703   1.730   3.172
  343SOL    HW2 1060   1.623   1.810   3.290
  344SOL     OW 1061   1.841   0.175   2.825
  344SOL    HW1 1062   1.880   0.090   2.789
  344SOL    HW2 1063   1.743   0.177   2.806
  345SOL     OW 1064   0.263   0.326   2.582
  345SOL    HW1 1065   0.184   0.377   2.548
  345SOL    HW2 1066   0.254   0.311   2.680
  346SOL     OW 1067   1.194   1.612   1.893
  346SOL    HW1 1068   1.200   1.519   1.930
  346SOL    HW2 1069   1.135   1.612   1.813
  347SOL     OW 1070   0.822   1.002   3.234
  347SOL    HW1 1071   0.862   1.001   3.142
  347SOL    HW2 1072   0.832   1.094   3.274
  348SOL     OW 1073   0.916   0.910   2.153
  348SOL    HW1 1074   0.979   0.948   2.085
  348SOL    HW2 1075   0.956   0.827   2.192
  349SOL     OW 1076   0.372   1.288   3.352
  349SOL    HW1 1077   0.359   1.381   3.318
  349SOL    HW2 1078   0.288   1.236   3.339
  350SOL     OW 1079   1.614   1.292   3.151
  350SOL    HW1 1080   1.674   1.295   3.231
  350SOL    HW2 1081   1.539   1.356   3.164
  351SOL     OW 1082   1.039   1.098   2.558
  351SOL    HW1 1083   0.969   1.051   2.612
  351SOL    HW2 1084   1.098   1.030   2.515
  352SOL     OW 1085   1.014   0.236   2.833
  352SOL    HW1 1086   1.006   0.200   2.740
  352SOL    HW2 1087   1.012   0.160   2.898
  353SOL     OW 1088   0.590   1.487   2.353
  353SOL    HW1 1089   0.632   1.429   2.283
  353SOL    HW2 1090   0.546   1.566   2.309
  354SOL     OW 1091   1.709   0.385   3.243
  354SOL    HW1 1092   1.782   0.454   3.247
  354SOL    HW2 1093   1.737   0.310   3.184
  355SOL     OW 1094   0.255   1.348   2.152
  355SOL    HW1 1095   0.159   1.349   2.125
  355SOL    HW2 1096   0.267   1.401   2.236
  356SOL     OW 1097   0.672   0.203   3.351
  356SOL    HW1 1098   0.762   0.187   3.311
  356SOL    HW2 1099   0.680   0.208   3.450
  357SOL     OW 1100   0.075   0.345   1.895
  357SOL    HW1 1101  -0.017   0.317   1.866
  357SOL    HW2 1102   0.106   0.422   1.839
  358SOL     OW 1103   1.440   0.856   3.260
  358SOL    HW1 1104   1.383   0.908   3.197
  358SOL    HW2 1105   1.536   0.868   3.236
  359SOL     OW 1106   0.072   0.166   2.180
  359SOL    HW1 1107   0.055   0.249   2.126
  359SOL    HW2 1108   0.162   0.129   2.158
  360SOL     OW 1109   1.183   1.335   1.981
  360SOL    HW1 1110   1.084   1.324   1.983
  360SOL    HW2 1111   1.217   1.350   2.074
  361SOL     OW 1112   0.613   0.842   3.293
  361SOL    HW1 1113   0.669   0.923   3.276
  361SOL    HW2 1114   0.672   0.762   3.296
  362SOL     OW 1115   1.493   1.767   2.821
  362SOL    HW1 1116   1.526   1.831   2.752
  362SOL    HW2 1117   1.559   1.761   2.896
  363SOL     OW 1118   0.390   1.741   3.422
  363SOL    HW1 1119   0.299   1.782   3.420
  363SOL    HW2 1120   0.383   1.647   3.454
  364SOL     OW 1121   1.674   0.883   3.116
  364SOL    HW1 1122   1.647   0.794   3.079
  364SOL    HW2 1123   1.675   0.951   3.043
  365SOL     OW 1124   1.225   0.325   2.311
  365SOL    HW1 1125   1.290   0.251   2.300
  365SOL    HW2 1126   1.245   0.375   2.395
  366SOL     OW 1127   0.594   0.745   2.514
  366SOL    HW1 1128   0.644   0.830   2.495
  366SOL    HW2 1129   0.506   0.747   2.466
  367SOL     OW 1130   1.777   0.342   3.504
  367SOL    HW1 1131   1.760   0.373   3.410
  367SOL    HW2 1132   1.693   0.305   3.542
  368SOL     OW 1133   1.730   0.934   3.379
  368SOL    HW1 1134   1.768   1.025   3.394
  368SOL    HW2 1135   1.722   0.917   3.280
  369SOL     OW 1136   0.859   1.374   1.878
  369SOL    HW1 1137   0.813   1.389   1.966
  369SOL    HW2 1138   0.903   1.459   1.848
  370SOL     OW 1139   0.661   1.790   2.815
  370SOL    HW1 1140   0.615   1.878   2.802
  370SOL    HW2 1141   0.760   1.802   2.808
  371SOL     OW 1142   0.859   0.956   2.723
  371SOL    HW1 1143   0.913   0.887   2.771
  371SOL    HW2 1144   0.827   1.025   2.789
  372SOL     OW 1145   1.083   0.984   1.949
  372SOL    HW1 1146   1.060   1.037   1.867
  372SOL    HW2 1147   1.164   0.928   1.930
  373SOL     OW 1148   1.861   1.569   2.713
  373SOL    HW1 1149   1.790   1.557   2.643
  373SOL    HW2 1150   1.862   1.490   2.773
  374SOL     OW 1151   0.079   1.240   2.515
  374SOL    HW1 1152   0.078   1.193   2.603
  374SOL    HW2 1153   0.161   1.212   2.464
  375SOL     OW 1154   1.824   0.192   3.089
  375SOL    HW1 1155   1.820   0.102   3.133
  375SOL    HW2 1156   1.827   0.181   2.990
  376SOL     OW 1157   0.428   0.424   2.382
  376SOL    HW1 1158   0.458   0.352   2.320
  376SOL    HW2 1159   0.389   0.384   2.465
  377SOL     OW 1160   1.705   1.487   2.966
  377SOL    HW1 1161   1.612   1.462   2.939
  377SOL    HW2 1162   1.731   1.437   3.048
  378SOL     OW 1163   0.317   0.547   3.142
  378SOL    HW1 1164   0.355   0.488   3.214
  378SOL    HW2 1165   0.357   0.521   3.054
  379SOL     OW 1166   0.812   1.586   2.549
  379SOL    HW1 1167   0.844   1.596   2.455
  379SOL    HW2 1168   0.733   1.524   2.551
  380SOL     OW 1169   1.424   0.214   2.974
  380SOL    HW1 1170   1.476   0.149   3.029
  380SOL    HW2 1171   1.375   0.277   3.035
  381SOL     OW 1172   1.001   0.034   3.016
  381SOL    HW1 1173   0.938  -0.038   2.985
  381SOL    HW2 1174   1.094  -0.002   3.016
  382SOL     OW 1175   0.770   1.330   2.163
  382SOL    HW1 1176   0.724   1.243   2.180
  382SOL    HW2 1177   0.861   1.327   2.204
  383SOL     OW 1178   0.618   1.567   3.146
  383SOL    HW1 1179   0.613   1.649   3.203
  383SOL    HW2 1180   0.707   1.564   3.101
  384SOL     OW 1181   1.352   0.052   2.030
  384SOL    HW1 1182   1.387   0.011   1.946
  384SOL    HW2 1183   1.262   0.014   2.050
  385SOL     OW 1184   1.300   0.453   2.553
  385SOL    HW1 1185   1.241   0.533   2.557
  385SOL    HW2 1186   1.315   0.418   2.646
  386SOL     OW 1187   1.593   0.221   2.744
  386SOL    HW1 1188   1.509   0.220   2.798
  386SOL    HW2 1189   1.595   0.304   2.688
  387SOL     OW 1190   0.039   1.077   2.162
  387SOL    HW1 1191   0.138   1.066   2.153
  387SOL    HW2 1192  -0.001   0.991   2.194
  388SOL     OW 1193   0.875   1.646   2.199
  388SOL    HW1 1194   0.798   1.611   2.145
  388SOL    HW2 1195   0.843   1.717   2.261
  389SOL     OW 1196   0.230   2.490   0.113
  389SOL    HW1 1197   0.137   2.488   0.150
  389SOL    HW2 1198   0.231   2.451   0.021
  390SOL     OW 1199   0.225   2.137   0.996
  390SOL    HW1 1200   0.260   2.120   1.088
  390SOL    HW2 1201   0.137   2.092   0.984
  391SOL     OW 1202   0.019   2.230   0.647
  391SOL    HW1 1203  -0.063   2.273   0.686
  391SOL    HW2 1204  -0.009   2.157   0.584
  392SOL     OW 1205   0.569   3.137   1.165
  392SOL    HW1 1206   0.476   3.130   1.128
  392SOL    HW2 1207   0.580   3.226   1.209
  393SOL     OW 1208   1.555   3.373   0.703
  393SOL    HW1 1209   1.498   3.357   0.784
  393SOL    HW2 1210   1.496   3.383   0.623
  394SOL     OW 1211   1.135   2.565   0.717
  394SOL    HW1 1212   1.192   2.643   0.692
  394SOL    HW2 1213   1.075   2.591   0.793
  395SOL     OW 1214   1.755   2.469   0.231
  395SOL    HW1 1215   1.743   2.456   0.132
  395SOL    HW2 1216   1.725   2.388   0.280
  396SOL     OW 1217   0.768   3.006   1.023
  396SOL    HW1 1218   0.690   3.023   1.083
  396SOL    HW2 1219   0.802   3.093   0.987
  397SOL     OW 1220   0.850   2.660   1.823
  397SOL    HW1 1221   0.846   2.736   1.888
  397SOL    HW2 1222   0.872   2.696   1.732
  398SOL     OW 1223   0.685   2.874   0.665
  398SOL    HW1 1224   0.754   2.858   0.735
  398SOL    HW2 1225   0.612   2.931   0.703
  399SOL     OW 1226   0.686   3.023   1.803
  399SOL    HW1 1227   0.746   3.102   1.817
  399SOL    HW2 1228   0.600   3.054   1.762
  400SOL     OW 1229   0.335   3.297   1.061
  400SOL    HW1 1230   0.257   3.266   1.008
  400SOL    HW2 1231   0.393   3.355   1.004
  401SOL     OW 1232   1.460   3.367   1.339
  401SOL    HW1 1233   1.484   3.461   1.365
  401SOL    HW2 1234   1.444   3.313   1.421
  402SOL     OW 1235   0.438   2.254   1.499
  402SOL    HW1 1236   0.520   2.198   1.508
  402SOL    HW2 1237   0.357   2.196   1.503
  403SOL     OW 1238   1.603   2.309   0.737
  403SOL    HW1 1239   1.529   2.355   0.687
  403SOL    HW2 1240   1.654   2.377   0.790
  404SOL     OW 1241   1.127   3.203   1.690
  404SOL    HW1 1242   1.174   3.203   1.778
  404SOL    HW2 1243   1.079   3.116   1.679
  405SOL     OW 1244   0.230   3.296   0.538
  405SOL    HW1 1245   0.204   3.392   0.538
  405SOL    HW2 1246   0.159   3.242   0.583
  406SOL     OW 1247   0.240   2.953   0.886
  406SOL    HW1 1248   0.254   2.869   0.938
  406SOL    HW2 1249   0.185   3.017   0.941
  407SOL     OW 1250   0.606   2.826   0.123
  407SOL    HW1 1251   0.613   2.910   0.069
  407SOL    HW2 1252   0.652   2.839   0.211
  408SOL     OW 1253   1.594   1.976   1.480
  408SOL    HW1 1254   1.576   2.043   1.408
  408SOL    HW2 1255   1.591   2.022   1.569
  409SOL     OW 1256   0.122   2.505   0.563
  409SOL    HW1 1257   0.077   2.417   0.580
  409SOL    HW2 1258   0.121   2.559   0.647
  410SOL     OW 1259   0.027   3.458   0.117
  410SOL    HW1 1260   0.008   3.362   0.138
  410SOL    HW2 1261  -0.006   3.516   0.192
  411SOL     OW 1262   1.689   2.784   0.612
  411SOL    HW1 1263   1.784   2.755   0.620
  411SOL    HW2 1264   1.681   2.849   0.537
  412SOL     OW 1265   1.641   2.970   0.432
  412SOL    HW1 1266   1.727   2.972   0.380
  412SOL    HW2 1267   1.655   3.017   0.520
  413SOL     OW 1268   0.113   2.599   1.597
  413SOL    HW1 1269   0.201   2.586   1.642
  413SOL    HW2 1270   0.100   2.696   1.575
  414SOL     OW 1271   0.613   3.227   0.726
  414SOL    HW1 1272   0.564   3.140   0.735
  414SOL    HW2 1273   0.590   3.270   0.639
  415SOL     OW 1274   1.293   3.090   1.423
  415SOL    HW1 1275   1.330   3.017   1.365
  415SOL    HW2 1276   1.345   3.095   1.508
  416SOL     OW 1277   0.809   1.866   0.502
  416SOL    HW1 1278   0.849   1.957   0.493
  416SOL    HW2 1279   0.709   1.874   0.508
  417SOL     OW 1280   0.197   2.838   1.264
  417SOL    HW1 1281   0.286   2.793   1.250
  417SOL    HW2 1282   0.124   2.773   1.245
  418SOL     OW 1283   1.525   2.861   0.190
  418SOL    HW1 1284   1.462   2.785   0.203
  418SOL    HW2 1285   1.573   2.879   0.276
  419SOL     OW 1286   0.317   2.113   1.801
  419SOL    HW1 1287   0.388   2.184   1.807
  419SOL    HW2 1288   0.229   2.152   1.829
  420SOL     OW 1289   1.466   3.279   0.953
  420SOL    HW1 1290   1.407   3.285   1.033
  420SOL    HW2 1291   1.451   3.191   0.907
  421SOL     OW 1292   0.598   2.591   0.270
  421SOL    HW1 1293   0.622   2.660   0.202
  421SOL    HW2 1294   0.520   2.624   0.324
  422SOL     OW 1295   1.281   2.207   0.944
  422SOL    HW1 1296   1.195   2.157   0.931
  422SOL    HW2 1297   1.343   2.153   1.000
  423SOL     OW 1298   0.807   2.467   1.465
  423SOL    HW1 1299   0.760   2.464   1.554
  423SOL    HW2 1300   0.756   2.412   1.399
  424SOL     OW 1301   1.394   2.331   1.674
  424SOL    HW1 1302   1.374   2.374   1.762
  424SOL    HW2 1303   1.472   2.269   1.683
  425SOL     OW 1304   0.973   2.752   1.572
  425SOL    HW1 1305   1.019   2.668   1.543
  425SOL    HW2 1306   0.917   2.786   1.497
  426SOL     OW 1307   0.991   2.272   1.242
  426SOL    HW1 1308   0.914   2.306   1.296
  426SOL    HW2 1309   0.957   2.221   1.163
  427SOL     OW 1310   1.041   2.563   0.429
  427SOL    HW1 1311   1.067   2.559   0.525
  427SOL    HW2 1312   0.956   2.512   0.415
  428SOL     OW 1313   0.076   2.673   0.789
  428SOL    HW1 1314   0.175   2.661   0.798
  428SOL    HW2 1315   0.052   2.768   0.810
  429SOL     OW 1316   0.865   2.210   0.195
  429SOL    HW1 1317   0.924   2.273   0.146
  429SOL    HW2 1318   0.884   2.116   0.166
  430SOL     OW 1319   1.719   2.447   1.831
  430SOL    HW1 1320   1.693   2.536   1.795
  430SOL    HW2 1321   1.717   2.379   1.758
  431SOL     OW 1322   1.362   3.006   0.545
  431SOL    HW1 1323   1.445   2.977   0.497
  431SOL    HW2 1324   1.313   3.073   0.489
  432SOL     OW 1325   0.550   2.058   0.885
  432SOL    HW1 1326   0.545   2.053   0.985
  432SOL    HW2 1327   0.552   2.154   0.856
  433SOL     OW 1328   1.008   3.318   0.477
  433SOL    HW1 1329   0.962   3.390   0.425
  433SOL    HW2 1330   1.004   3.338   0.575
  434SOL     OW 1331   1.795   2.928   0.873
  434SOL    HW1 1332   1.733   2.913   0.797
  434SOL    HW2 1333   1.743   2.939   0.958
  435SOL     OW 1334   1.227   3.412   1.506
  435SOL    HW1 1335   1.233   3.335   1.570
  435SOL    HW2 1336   1.175   3.386   1.426
  436SOL     OW 1337   0.321   2.805   0.242
  436SOL    HW1 1338   0.403   2.844   0.200
  436SOL    HW2 1339   0.294   2.723   0.193
  437SOL     OW 1340   1.458   2.597   0.728
  437SOL    HW1 1341   1.453   2.532   0.803
  437SOL    HW2 1342   1.538   2.656   0.741
  438SOL     OW 1343   0.461   3.128   1.727
  438SOL    HW1 1344   0.411   3.129   1.641
  438SOL    HW2 1345   0.398   3.110   1.803
  439SOL     OW 1346   1.111   3.638   0.237
  439SOL    HW1 1347   1.051   3.576   0.287
  439SOL    HW2 1348   1.142   3.594   0.152
  440SOL     OW 1349   0.202   2.147   1.498
  440SOL    HW1 1350   0.122   2.207   1.485
  440SOL    HW2 1351   0.192   2.098   1.584
  441SOL     OW 1352   1.632   3.239   0.081
  441SOL    HW1 1353   1.600   3.333   0.071
  441SOL    HW2 1354   1.556   3.176   0.069
  442SOL     OW 1355   1.400   1.969   0.426
  442SOL    HW1 1356   1.376   1.932   0.336
  442SOL    HW2 1357   1.499   1.985   0.430
  443SOL     OW 1358   0.382   2.562   0.480
  443SOL    HW1 1359   0.427   2.472   0.477
  443SOL    HW2 1360   0.288   2.551   0.513
  444SOL     OW 1361   0.614   1.984   0.117
  444SOL    HW1 1362   0.712   1.962   0.124
  444SOL    HW2 1363   0.583   1.967   0.024
  445SOL     OW 1364   0.781   2.126   1.749
  445SOL    HW1 1365   0.848   2.065   1.792
  445SOL    HW2 1366   0.708   2.145   1.814
  446SOL     OW 1367   1.351   2.452   1.433
  446SOL    HW1 1368   1.379   2.409   1.518
  446SOL    HW2 1369   1.376   2.548   1.434
  447SOL     OW 1370   0.803   3.264   0.924
  447SOL    HW1 1371   0.893   3.278   0.882
  447SOL    HW2 1372   0.732   3.266   0.853
  448SOL     OW 1373   0.922   2.365   0.899
  448SOL    HW1 1374   0.897   2.356   0.803
  448SOL    HW2 1375   0.970   2.283   0.930
  449SOL     OW 1376   0.539   1.926   0.512
  449SOL    HW1 1377   0.458   1.927   0.570
  449SOL    HW2 1378   0.542   2.009   0.457
  450SOL     OW 1379   1.434   3.050   0.041
  450SOL    HW1 1380   1.466   2.974   0.098
  450SOL    HW2 1381   1.342   3.077   0.071
  451SOL     OW 1382   0.297   1.897   0.171
  451SOL    HW1 1383   0.346   1.981   0.150
  451SOL    HW2 1384   0.359   1.832   0.216
  452SOL     OW 1385   0.935   2.098   0.480
  452SOL    HW1 1386   0.887   2.139   0.402
  452SOL    HW2 1387   1.034   2.096   0.461
  453SOL     OW 1388   1.076   2.545   1.464
  453SOL    HW1 1389   0.996   2.484   1.467
  453SOL    HW2 1390   1.157   2.492   1.440
  454SOL     OW 1391   1.227   3.432   0.793
  454SOL    HW1 1392   1.248   3.506   0.728
  454SOL    HW2 1393   1.295   3.432   0.866
  455SOL     OW 1394   0.459   3.014   0.741
  455SOL    HW1 1395   0.388   2.987   0.806
  455SOL    HW2 1396   0.433   2.986   0.648
  456SOL     OW 1397   1.032   2.411   0.016
  456SOL    HW1 1398   0.991   2.493  -0.023
  456SOL    HW2 1399   1.096   2.437   0.089
  457SOL     OW 1400   0.078   2.418   1.386
  457SOL    HW1 1401   0.170   2.417   1.345
  457SOL    HW2 1402   0.072   2.492   1.453
  458SOL     OW 1403   0.561   2.084   1.147
  458SOL    HW1 1404   0.599   2.000   1.184
  458SOL    HW2 1405   0.473   2.103   1.191
  459SOL     OW 1406   0.866   2.316   0.642
  459SOL    HW1 1407   0.834   2.388   0.580
  459SOL    HW2 1408   0.890   2.235   0.589
  460SOL     OW 1409   1.017   1.901   0.753
  460SOL    HW1 1410   0.945   1.906   0.684
  460SOL    HW2 1411   0.993   1.832   0.822
  461SOL     OW 1412   1.429   3.035   0.867
  461SOL    HW1 1413   1.374   2.951   0.860
  461SOL    HW2 1414   1.455   3.064   0.775
  462SOL     OW 1415   1.466   2.452   0.992
  462SOL    HW1 1416   1.436   2.357   0.999
  462SOL    HW2 1417   1.539   2.468   1.058
  463SOL     OW 1418   1.857   2.695   0.377
  463SOL    HW1 1419   1.899   2.631   0.441
  463SOL    HW2 1420   1.819   2.644   0.299
  464SOL     OW 1421   0.488   3.247   0.174
  464SOL    HW1 1422   0.401   3.232   0.221
  464SOL    HW2 1423   0.471   3.273   0.079
  465SOL     OW 1424   1.664   3.142   0.657
  465SOL    HW1 1425   1.763   3.150   0.671
  465SOL    HW2 1426   1.619   3.226   0.688
  466SOL     OW 1427   1.390   2.437   0.078
  466SOL    HW1 1428   1.336   2.416   0.159
  466SOL    HW2 1429   1.481   2.396   0.087
  467SOL     OW 1430   0.527   2.118   0.328
  467SOL    HW1 1431   0.554   2.059   0.253
  467SOL    HW2 1432   0.527   2.213   0.297
  468SOL     OW 1433   1.754   3.085   1.588
  468SOL    HW1 1434   1.845   3.046   1.575
  468SOL    HW2 1435   1.762   3.181   1.612
  469SOL     OW 1436   1.064   3.209   1.340
  469SOL    HW1 1437   0.984   3.186   1.395
  469SOL    HW2 1438   1.147   3.183   1.389
  470SOL     OW 1439   1.111   3.057   1.100
  470SOL    HW1 1440   1.071   3.101   1.181
  470SOL    HW2 1441   1.070   3.094   1.017
  471SOL     OW 1442   1.638   2.961   1.079
  471SOL    HW1 1443   1.643   3.042   1.138
  471SOL    HW2 1444   1.552   2.963   1.028
  472SOL     OW 1445   0.915   1.951   1.402
  472SOL    HW1 1446   0.940   1.931   1.307
  472SOL    HW2 1447   0.987   2.007   1.444
  473SOL     OW 1448   0.980   2.978   1.719
  473SOL    HW1 1449   0.881   2.984   1.729
  473SOL    HW2 1450   1.003   2.898   1.663
  474SOL     OW 1451   0.705   2.912   0.368
  474SOL    HW1 1452   0.691   2.919   0.467
  474SOL    HW2 1453   0.789   2.861   0.350
  475SOL     OW 1454   0.410   2.675   1.251
  475SOL    HW1 1455   0.496   2.687   1.301
  475SOL    HW2 1456   0.368   2.588   1.278
  476SOL     OW 1457   1.274   2.248   1.262
  476SOL    HW1 1458   1.295   2.322   1.326
  476SOL    HW2 1459   1.185   2.265   1.219
  477SOL     OW 1460   0.064   3.426   1.331
  477SOL    HW1 1461   0.018   3.508   1.297
  477SOL    HW2 1462   0.162   3.445   1.340
  478SOL     OW 1463   0.367   2.962   0.501
  478SOL    HW1 1464   0.360   3.045   0.445
  478SOL    HW2 1465   0.371   2.882   0.441
  479SOL     OW 1466   0.566   2.399   0.865
  479SOL    HW1 1467   0.578   2.465   0.791
  479SOL    HW2 1468   0.612   2.433   0.948
  480SOL     OW 1469   1.252   3.210   0.388
  480SOL    HW1 1470   1.302   3.287   0.428
  480SOL    HW2 1471   1.157   3.212   0.420
  481SOL     OW 1472   1.272   3.307   1.142
  481SOL    HW1 1473   1.319   3.320   1.229
  481SOL    HW2 1474   1.206   3.233   1.151
  482SOL     OW 1475   1.582   2.501   0.472
  482SOL    HW1 1476   1.551   2.562   0.545
  482SOL    HW2 1477   1.632   2.553   0.403
  483SOL     OW 1478   0.354   3.372   1.329
  483SOL    HW1 1479   0.333   3.328   1.242
  483SOL    HW2 1480   0.451   3.398   1.332
  484SOL     OW 1481   0.402   2.613   1.598
  484SOL    HW1 1482   0.470   2.668   1.551
  484SOL    HW2 1483   0.442   2.525   1.625
  485SOL     OW 1484   1.587   2.641   1.670
  485SOL    HW1 1485   1.495   2.679   1.665
  485SOL    HW2 1486   1.647   2.688   1.605
  486SOL     OW 1487   0.504   1.912   1.740
  486SOL    HW1 1488   0.462   1.855   1.670
  486SOL    HW2 1489   0.438   1.981   1.772
  487SOL     OW 1490   0.573   2.732   1.029
  487SOL    HW1 1491   0.617   2.821   1.020
  487SOL    HW2 1492   0.510   2.732   1.106
  488SOL     OW 1493   1.360   2.724   1.045
  488SOL    HW1 1494   1.285   2.724   0.979
  488SOL    HW2 1495   1.397   2.632   1.054
  489SOL     OW 1496   1.209   2.387   0.275
  489SOL    HW1 1497   1.222   2.303   0.329
  489SOL    HW2 1498   1.180   2.461   0.335
  490SOL     OW 1499   0.307   2.075   1.231
  490SOL    HW1 1500   0.284   2.112   1.321
  490SOL    HW2 1501   0.277   1.980   1.225
  491SOL     OW 1502   0.037   3.172   1.282
  491SOL    HW1 1503   0.090   3.123   1.350
  491SOL    HW2 1504   0.059   3.270   1.287
  492SOL     OW 1505   0.732   2.496   1.064
  492SOL    HW1 1506   0.791   2.470   0.988
  492SOL    HW2 1507   0.704   2.592   1.053
  493SOL     OW 1508   1.728   2.797   1.854
  493SOL    HW1 1509   1.682   2.790   1.765
  493SOL    HW2 1510   1.666   2.841   1.920
  494SOL     OW 1511   0.307   1.925   0.618
  494SOL    HW1 1512   0.296   2.019   0.651
  494SOL    HW2 1513   0.302   1.862   0.695
  495SOL     OW 1514   1.622   2.229   0.374
  495SOL    HW1 1515   1.624   2.153   0.438
  495SOL    HW2 1516   1.574   2.306   0.414
  496SOL     OW 1517   1.023   2.628   0.966
  496SOL    HW1 1518   1.038   2.649   1.062
  496SOL    HW2 1519   0.993   2.533   0.957
  497SOL     OW 1520   1.859   3.380   1.605
  497SOL    HW1 1521   1.873   3.407   1.510
  497SOL    HW2 1522   1.942   3.402   1.658
  498SOL     OW 1523   0.350   2.760   1.804
  498SOL    HW1 1524   0.426   2.804   1.852
  498SOL    HW2 1525   0.385   2.713   1.722
  499SOL     OW 1526   1.540   2.136   0.125
  499SOL    HW1 1527   1.479   2.061   0.148
  499SOL    HW2 1528   1.562   2.188   0.208
  500SOL     OW 1529   1.303   2.700   0.042
  500SOL    HW1 1530   1.337   2.607   0.057
  500SOL    HW2 1531   1.321   2.727  -0.053
  501SOL     OW 1532   1.068   3.195   0.849
  501SOL    HW1 1533   1.075   3.111   0.794
  501SOL    HW2 1534   1.130   3.264   0.813
  502SOL     OW 1535   0.319   2.672   0.949
  502SOL    HW1 1536   0.412   2.708   0.954
  502SOL    HW2 1537   0.313   2.587   1.001
  503SOL     OW 1538   0.339   2.371   1.006
  503SOL    HW1 1539   0.287   2.288   0.989
  503SOL    HW2 1540   0.416   2.376   0.942
  504SOL     OW 1541   1.138   2.242   1.678
  504SOL    HW1 1542   1.093   2.305   1.742
  504SOL    HW2 1543   1.231   2.273   1.661
  505SOL     OW 1544   1.160   2.069   1.477
  505SOL    HW1 1545   1.160   2.133   1.554
  505SOL    HW2 1546   1.188   2.117   1.394
  506SOL     OW 1547   0.008   3.188   0.200
  506SOL    HW1 1548  -0.085   3.209   0.169
  506SOL    HW2 1549   0.018   3.089   0.213
  507SOL     OW 1550   1.002   2.658   1.238
  507SOL    HW1 1551   1.043   2.626   1.324
  507SOL    HW2 1552   0.906   2.631   1.235
  508SOL     OW 1553   0.040   2.406   1.114
  508SOL    HW1 1554   0.125   2.373   1.073
  508SOL    HW2 1555   0.053   2.421   1.212
  509SOL     OW 1556   0.189   2.382   1.722
  509SOL    HW1 1557   0.248   2.342   1.652
  509SOL    HW2 1558   0.131   2.453   1.681
  510SOL     OW 1559   1.369   2.812   1.660
  510SOL    HW1 1560   1.408   2.901   1.680
  510SOL    HW2 1561   1.379   2.792   1.563
  511SOL     OW 1562   0.815   2.434   0.325
  511SOL    HW1 1563   0.822   2.345   0.279
  511SOL    HW2 1564   0.721   2.468   0.317
  512SOL     OW 1565   1.657   2.466   1.206
  512SOL    HW1 1566   1.619   2.397   1.268
  512SOL    HW2 1567   1.739   2.430   1.162
  513SOL     OW 1568   0.252   3.426   1.744
  513SOL    HW1 1569   0.222   3.483   1.820
  513SOL    HW2 1570   0.245   3.329   1.770
  514SOL     OW 1571   0.671   2.326   1.269
  514SOL    HW1 1572   0.637   2.237   1.239
  514SOL    HW2 1573   0.697   2.380   1.189
  515SOL     OW 1574   0.473   2.362   0.191
  515SOL    HW1 1575   0.534   2.442   0.195
  515SOL    HW2 1576   0.378   2.393   0.198
  516SOL     OW 1577   0.159   2.999   1.466
  516SOL    HW1 1578   0.181   2.938   1.542
  516SOL    HW2 1579   0.169   2.950   1.380
  517SOL     OW 1580   1.347   2.921   1.234
  517SOL    HW1 1581   1.371   2.858   1.160
  517SOL    HW2 1582   1.257   2.961   1.216
  518SOL     OW 1583   1.302   2.717   0.309
  518SOL    HW1 1584   1.216   2.686   0.351
  518SOL    HW2 1585   1.298   2.703   0.210
  519SOL     OW 1586   0.083   3.120   1.022
  519SOL    HW1 1587   0.078   3.119   1.122
  519SOL    HW2 1588   0.000   3.079   0.984
  520SOL     OW 1589   0.688   3.524   1.716
  520SOL    HW1 1590   0.632   3.605   1.725
  520SOL    HW2 1591   0.740   3.528   1.630
  521SOL     OW 1592   0.903   1.948   0.133
  521SOL    HW1 1593   0.954   1.949   0.047
  521SOL    HW2 1594   0.959   1.906   0.204
  522SOL     OW 1595   1.726   1.997   0.523
  522SOL    HW1 1596   1.799   1.980   0.456
  522SOL    HW2 1597   1.695   1.910   0.561
  523SOL     OW 1598   1.280   2.789   0.672
  523SOL    HW1 1599   1.340   2.708   0.674
  523SOL    HW2 1600   1.320   2.858   0.612
  524SOL     OW 1601   0.830   3.135   1.422
  524SOL    HW1 1602   0.825   3.168   1.517
  524SOL    HW2 1603   0.744   3.154   1.376
  525SOL     OW 1604   1.841   2.037   0.963
  525SOL    HW1 1605   1.880   1.952   0.927
  525SOL    HW2 1606   1.743   2.039   0.944
  526SOL     OW 1607   0.263   2.188   0.720
  526SOL    HW1 1608   0.184   2.239   0.686
  526SOL    HW2 1609   0.254   2.173   0.818
  527SOL     OW 1610   1.194   3.474   0.031
  527SOL    HW1 1611   1.200   3.381   0.068
  527SOL    HW2 1612   1.135   3.474  -0.049
  528SOL     OW 1613   0.822   2.864   1.372
  528SOL    HW1 1614   0.862   2.863   1.280
  528SOL    HW2 1615   0.832   2.956   1.412
  529SOL     OW 1616   0.916   2.772   0.291
  529SOL    HW1 1617   0.979   2.810   0.223
  529SOL    HW2 1618   0.956   2.689   0.330
  530SOL     OW 1619   0.372   3.150   1.490
  530SOL    HW1 1620   0.359   3.243   1.456
  530SOL    HW2 1621   0.288   3.098   1.477
  531SOL     OW 1622   1.614   3.154   1.289
  531SOL    HW1 1623   1.674   3.157   1.369
  531SOL    HW2 1624   1.539   3.218   1.302
  532SOL     OW 1625   1.039   2.960   0.696
  532SOL    HW1 1626   0.969   2.913   0.750
  532SOL    HW2 1627   1.098   2.892   0.653
  533SOL     OW 1628   1.014   2.098   0.971
  533SOL    HW1 1629   1.006   2.062   0.878
  533SOL    HW2 1630   1.012   2.022   1.036
  534SOL     OW 1631   1.709   2.247   1.381
  534SOL    HW1 1632   1.782   2.316   1.385
  534SOL    HW2 1633   1.737   2.172   1.322
  535SOL     OW 1634   0.255   3.210   0.290
  535SOL    HW1 1635   0.159   3.211   0.263
  535SOL    HW2 1636   0.267   3.263   0.374
  536SOL     OW 1637   0.105   2.875   1.726
  536SOL    HW1 1638   0.028   2.842   1.780
  536SOL    HW2 1639   0.190   2.845   1.768
  537SOL     OW 1640   0.672   2.065   1.489
  537SOL    HW1 1641   0.762   2.049   1.449
  537SOL    HW2 1642   0.680   2.070   1.588
  538SOL     OW 1643   0.075   2.207   0.033
  538SOL    HW1 1644  -0.017   2.179   0.004
  538SOL    HW2 1645   0.106   2.284  -0.023
  539SOL     OW 1646   1.440   2.718   1.398
  539SOL    HW1 1647   1.383   2.770   1.335
  539SOL    HW2 1648   1.536   2.730   1.374
  540SOL     OW 1649   0.072   2.028   0.318
  540SOL    HW1 1650   0.055   2.111   0.264
  540SOL    HW2 1651   0.162   1.991   0.296
  541SOL     OW 1652   1.183   3.197   0.119
  541SOL    HW1 1653   1.084   3.186   0.121
  541SOL    HW2 1654   1.217   3.212   0.212
  542SOL     OW 1655   0.613   2.704   1.431
  542SOL    HW1 1656   0.669   2.785   1.414
  542SOL    HW2 1657   0.672   2.624   1.434
  543SOL     OW 1658   0.716   2.427   1.708
  543SOL    HW1 1659   0.735   2.492   1.782
  543SOL    HW2 1660   0.776   2.347   1.717
  544SOL     OW 1661   1.450   3.082   1.633
  544SOL    HW1 1662   1.441   3.072   1.732
  544SOL    HW2 1663   1.546   3.075   1.607
  545SOL     OW 1664   1.674   2.745   1.254
  545SOL    HW1 1665   1.647   2.656   1.217
  545SOL    HW2 1666   1.675   2.813   1.181
  546SOL     OW 1667   1.225   2.187   0.449
  546SOL    HW1 1668   1.290   2.113   0.438
  546SOL    HW2 1669   1.245   2.237   0.533
  547SOL     OW 1670   0.594   2.607   0.652
  547SOL    HW1 1671   0.644   2.692   0.633
  547SOL    HW2 1672   0.506   2.609   0.604
  548SOL     OW 1673   1.777   2.204   1.642
  548SOL    HW1 1674   1.760   2.235   1.548
  548SOL    HW2 1675   1.693   2.167   1.680
  549SOL     OW 1676   1.730   2.796   1.517
  549SOL    HW1 1677   1.768   2.887   1.532
  549SOL    HW2 1678   1.722   2.779   1.418
  550SOL     OW 1679   0.859   3.236   0.016
  550SOL    HW1 1680   0.813   3.251   0.104
  550SOL    HW2 1681   0.903   3.321  -0.014
  551SOL     OW 1682   0.859   2.818   0.861
  551SOL    HW1 1683   0.913   2.749   0.909
  551SOL    HW2 1684   0.827   2.887   0.927
  552SOL     OW 1685   1.083   2.846   0.087
  552SOL    HW1 1686   1.060   2.899   0.005
  552SOL    HW2 1687   1.164   2.790   0.068
  553SOL     OW 1688   0.221   3.176   1.844
  553SOL    HW1 1689   0.156   3.103   1.823
  553SOL    HW2 1690   0.225   3.190   1.942
  554SOL     OW 1691   0.079   3.102   0.653
  554SOL    HW1 1692   0.078   3.055   0.741
  554SOL    HW2 1693   0.161   3.074   0.602
  555SOL     OW 1694   0.672   3.253   1.624
  555SOL    HW1 1695   0.594   3.203   1.662
  555SOL    HW2 1696   0.669   3.348   1.655
  556SOL     OW 1697   1.824   2.054   1.227
  556SOL    HW1 1698   1.820   1.964   1.271
  556SOL    HW2 1699   1.827   2.043   1.128
  557SOL     OW 1700   0.428   2.286   0.520
  557SOL    HW1 1701   0.458   2.214   0.458
  557SOL    HW2 1702   0.389   2.246   0.603
  558SOL     OW 1703   1.705   3.349   1.104
  558SOL    HW1 1704   1.612   3.324   1.077
  558SOL    HW2 1705   1.731   3.299   1.186
  559SOL     OW 1706   0.317   2.409   1.280
  559SOL    HW1 1707   0.355   2.350   1.352
  559SOL    HW2 1708   0.357   2.383   1.192
  560SOL     OW 1709   1.424   2.076   1.112
  560SOL    HW1 1710   1.476   2.011   1.167
  560SOL    HW2 1711   1.375   2.139   1.173
  561SOL     OW 1712   1.001   1.896   1.154
  561SOL    HW1 1713   0.938   1.824   1.123
  561SOL    HW2 1714   1.094   1.860   1.154
  562SOL     OW 1715   0.770   3.192   0.301
  562SOL    HW1 1716   0.724   3.105   0.318
  562SOL    HW2 1717   0.861   3.189   0.342
  563SOL     OW 1718   0.618   3.429   1.284
  563SOL    HW1 1719   0.613   3.511   1.341
  563SOL    HW2 1720   0.707   3.426   1.239
  564SOL     OW 1721   1.352   1.914   0.168
  564SOL    HW1 1722   1.387   1.873   0.084
  564SOL    HW2 1723   1.262   1.876   0.188
  565SOL     OW 1724   1.300   2.315   0.691
  565SOL    HW1 1725   1.241   2.395   0.695
  565SOL    HW2 1726   1.315   2.280   0.784
  566SOL     OW 1727   1.593   2.083   0.882
  566SOL    HW1 1728   1.509   2.082   0.936
  566SOL    HW2 1729   1.595   2.166   0.826
  567SOL     OW 1730   0.039   2.939   0.300
  567SOL    HW1 1731   0.138   2.928   0.291
  567SOL    HW2 1732  -0.001   2.853   0.332
  568SOL     OW 1733   0.230   2.490   1.975
  568SOL    HW1 1734   0.137   2.488   2.012
  568SOL    HW2 1735   0.231   2.451   1.883
  569SOL     OW 1736   0.225   2.137   2.858
  569SOL    HW1 1737   0.260   2.120   2.950
  569SOL    HW2 1738   0.137   2.092   2.846
  570SOL     OW 1739   0.019   2.230   2.509
  570SOL    HW1 1740  -0.063   2.273   2.548
  570SOL    HW2 1741  -0.009   2.157   2.446
  571SOL     OW 1742   0.569   3.137   3.027
  571SOL    HW1 1743   0.476   3.130   2.990
  571SOL    HW2 1744   0.580   3.226   3.071
  572SOL     OW 1745   1.555   3.373   2.565
  572SOL    HW1 1746   1.498   3.357   2.646
  572SOL    HW2 1747   1.496   3.383   2.485
  573SOL     OW 1748   1.135   2.565   2.579
  573SOL    HW1 1749   1.192   2.643   2.554
  573SOL    HW2 1750   1.075   2.591   2.655
  574SOL     OW 1751   1.755   2.469   2.093
  574SOL    HW1 1752   1.743   2.456   1.994
  574SOL    HW2 1753   1.725   2.388   2.142
  575SOL     OW 1754   0.768   3.006   2.885
  575SOL    HW1 1755   0.690   3.023   2.945
  575SOL    HW2 1756   0.802   3.093   2.849
  576SOL     OW 1757   0.685   2.874   2.527
  576SOL    HW1 1758   0.754   2.858   2.597
  576SOL    HW2 1759   0.612   2.931   2.565
  577SOL     OW 1760   0.335   3.297   2.923
  577SOL    HW1 1761   0.257   3.266   2.870
  577SOL    HW2 1762   0.393   3.355   2.866
  578SOL     OW 1763   1.460   3.367   3.201
  578SOL    HW1 1764   1.484   3.461   3.227
  578SOL    HW2 1765   1.444   3.313   3.283
  579SOL     OW 1766   0.438   2.254   3.361
  579SOL    HW1 1767   0.520   2.198   3.370
  579SOL    HW2 1768   0.357   2.196   3.365
  580SOL     OW 1769   1.603   2.309   2.599
  580SOL    HW1 1770   1.529   2.355   2.549
  580SOL    HW2 1771   1.654   2.377   2.652
  581SOL     OW 1772   0.230   3.296   2.400
  581SOL    HW1 1773   0.204   3.392   2.400
  581SOL    HW2 1774   0.159   3.242   2.445
  582SOL     OW 1775   0.240   2.953   2.748
  582SOL    HW1 1776   0.254   2.869   2.800
  582SOL    HW2 1777   0.185   3.017   2.803
  583SOL     OW 1778   0.606   2.826   1.985
  583SOL    HW1 1779   0.613   2.910   1.931
  583SOL    HW2 1780   0.652   2.839   2.073
  584SOL     OW 1781   1.594   1.976   3.342
  584SOL    HW1 1782   1.576   2.043   3.270
  584SOL    HW2 1783   1.591   2.022   3.431
  585SOL     OW 1784   0.122   2.505   2.425
  585SOL    HW1 1785   0.077   2.417   2.442
  585SOL    HW2 1786   0.121   2.559   2.509
  586SOL     OW 1787   0.027   3.458   1.979
  586SOL    HW1 1788   0.008   3.362   2.000
  586SOL    HW2 1789  -0.006   3.516   2.054
  587SOL     OW 1790   1.689   2.784   2.474
  587SOL    HW1 1791   1.784   2.755   2.482
  587SOL    HW2 1792   1.681   2.849   2.399
  588SOL     OW 1793   1.641   2.970   2.294
  588SOL    HW1 1794   1.727   2.972   2.242
  588SOL    HW2 1795   1.655   3.017   2.382
  589SOL     OW 1796   0.613   3.227   2.588
  589SOL    HW1 1797   0.564   3.140   2.597
  589SOL    HW2 1798   0.590   3.270   2.501
  590SOL     OW 1799   0.809   1.866   2.364
  590SOL    HW1 1800   0.849   1.957   2.355
  590SOL    HW2 1801   0.709   1.874   2.370
  591SOL     OW 1802   0.197   2.838   3.126
  591SOL    HW1 1803   0.286   2.793   3.112
  591SOL    HW2 1804   0.124   2.773   3.107
  592SOL     OW 1805   1.525   2.861   2.052
  592SOL    HW1 1806   1.462   2.785   2.065
  592SOL    HW2 1807   1.573   2.879   2.138
  593SOL     OW 1808   1.466   3.279   2.815
  593SOL    HW1 1809   1.407   3.285   2.895
  593SOL    HW2 1810   1.451   3.191   2.769
  594SOL     OW 1811   0.598   2.591   2.132
  594SOL    HW1 1812   0.622   2.660   2.064
  594SOL    HW2 1813   0.520   2.624   2.186
  595SOL     OW 1814   1.281   2.207   2.806
  595SOL    HW1 1815   1.195   2.157   2.793
  595SOL    HW2 1816   1.343   2.153   2.862
  596SOL     OW 1817   0.807   2.467   3.327
  596SOL    HW1 1818   0.760   2.464   3.416
  596SOL    HW2 1819   0.756   2.412   3.261
  597SOL     OW 1820   0.973   2.752   3.434
  597SOL    HW1 1821   1.019   2.668   3.405
  597SOL    HW2 1822   0.917   2.786   3.359
  598SOL     OW 1823   0.991   2.272   3.104
  598SOL    HW1 1824   0.914   2.306   3.158
  598SOL    HW2 1825   0.957   2.221   3.025
  599SOL     OW 1826   1.041   2.563   2.291
  599SOL    HW1 1827   1.067   2.559   2.387
  599SOL    HW2 1828   0.956   2.512   2.277
  600SOL     OW 1829   0.076   2.673   2.651
  600SOL    HW1 1830   0.175   2.661   2.660
  600SOL    HW2 1831   0.052   2.768   2.672
  601SOL     OW 1832   0.865   2.210   2.057
  601SOL    HW1 1833   0.924   2.273   2.008
  601SOL    HW2 1834   0.884   2.116   2.028
  602SOL     OW 1835   1.362   3.006   2.407
  602SOL    HW1 1836   1.445   2.977   2.359
  602SOL    HW2 1837   1.313   3.073   2.351
  603SOL     OW 1838   0.550   2.058   2.747
  603SOL    HW1 1839   0.545   2.053   2.847
  603SOL    HW2 1840   0.552   2.154   2.718
  604SOL     OW 1841   1.008   3.318   2.339
  604SOL    HW1 1842   0.962   3.390   2.287
  604SOL    HW2 1843   1.004   3.338   2.437
  605SOL     OW 1844   1.795   2.928   2.735
  605SOL    HW1 1845   1.733   2.913   2.659
  605SOL    HW2 1846   1.743   2.939   2.820
  606SOL     OW 1847   0.321   2.805   2.104
  606SOL    HW1 1848   0.403   2.844   2.062
  606SOL    HW2 1849   0.294   2.723   2.055
  607SOL     OW 1850   1.458   2.597   2.590
  607SOL    HW1 1851   1.453   2.532   2.665
  607SOL    HW2 1852   1.538   2.656   2.603
  608SOL     OW 1853   1.111   3.638   2.099
  608SOL    HW1 1854   1.051   3.576   2.149
  608SOL    HW2 1855   1.142   3.594   2.014
  609SOL     OW 1856   1.632   3.239   1.943
  609SOL    HW1 1857   1.600   3.333   1.933
  609SOL    HW2 1858   1.556   3.176   1.931
  610SOL     OW 1859   1.400   1.969   2.288
  610SOL    HW1 1860   1.376   1.932   2.198
  610SOL    HW2 1861   1.499   1.985   2.292
  611SOL     OW 1862   0.382   2.562   2.342
  611SOL    HW1 1863   0.427   2.472   2.339
  611SOL    HW2 1864   0.288   2.551   2.375
  612SOL     OW 1865   0.614   1.984   1.979
  612SOL    HW1 1866   0.712   1.962   1.986
  612SOL    HW2 1867   0.583   1.967   1.886
  613SOL     OW 1868   0.803   3.264   2.786
  613SOL    HW1 1869   0.893   3.278   2.744
  613SOL    HW2 1870   0.732   3.266   2.715
  614SOL     OW 1871   0.922   2.365   2.761
  614SOL    HW1 1872   0.897   2.356   2.665
  614SOL    HW2 1873   0.970   2.283   2.792
  615SOL     OW 1874   0.539   1.926   2.374
  615SOL    HW1 1875   0.458   1.927   2.432
  615SOL    HW2 1876   0.542   2.009   2.319
  616SOL     OW 1877   1.434   3.050   1.903
  616SOL    HW1 1878   1.466   2.974   1.960
  616SOL    HW2 1879   1.342   3.077   1.933
  617SOL     OW 1880   0.297   1.897   2.033
  617SOL    HW1 1881   0.346   1.981   2.012
  617SOL    HW2 1882   0.359   1.832   2.078
  618SOL     OW 1883   0.935   2.098   2.342
  618SOL    HW1 1884   0.887   2.139   2.264
  618SOL    HW2 1885   1.034   2.096   2.323
  619SOL     OW 1886   1.227   3.432   2.655
  619SOL    HW1 1887   1.248   3.506   2.590
  619SOL    HW2 1888   1.295   3.432   2.728
  620SOL     OW 1889   0.459   3.014   2.603
  620SOL    HW1 1890   0.388   2.987   2.668
  620SOL    HW2 1891   0.433   2.986   2.510
  621SOL     OW 1892   1.032   2.411   1.878
  621SOL    HW1 1893   0.991   2.493   1.839
  621SOL    HW2 1894   1.096   2.437   1.951
  622SOL     OW 1895   0.078   2.418   3.248
  622SOL    HW1 1896   0.170   2.417   3.207
  622SOL    HW2 1897   0.072   2.492   3.315
  623SOL     OW 1898   0.561   2.084   3.009
  623SOL    HW1 1899   0.599   2.000   3.046
  623SOL    HW2 1900   0.473   2.103   3.053
  624SOL     OW 1901   0.866   2.316   2.504
  624SOL    HW1 1902   0.834   2.388   2.442
  624SOL    HW2 1903   0.890   2.235   2.451
  625SOL     OW 1904   1.017   1.901   2.615
  625SOL    HW1 1905   0.945   1.906   2.546
  625SOL    HW2 1906   0.993   1.832   2.684
  626SOL     OW 1907   1.429   3.035   2.729
  626SOL    HW1 1908   1.374   2.951   2.722
  626SOL    HW2 1909   1.455   3.064   2.637
  627SOL     OW 1910   1.466   2.452   2.854
  627SOL    HW1 1911   1.436   2.357   2.861
  627SOL    HW2 1912   1.539   2.468   2.920
  628SOL     OW 1913   1.857   2.695   2.239
  628SOL    HW1 1914   1.899   2.631   2.303
  628SOL    HW2 1915   1.819   2.644   2.161
  629SOL     OW 1916   0.488   3.247   2.036
  629SOL    HW1 1917   0.401   3.232   2.083
  629SOL    HW2 1918   0.471   3.273   1.941
  630SOL     OW 1919   1.664   3.142   2.519
  630SOL    HW1 1920   1.763   3.150   2.533
  630SOL    HW2 1921   1.619   3.226   2.550
  631SOL     OW 1922   1.390   2.437   1.940
  631SOL    HW1 1923   1.336   2.416   2.021
  631SOL    HW2 1924   1.481   2.396   1.949
  632SOL     OW 1925   0.527   2.118   2.190
  632SOL    HW1 1926   0.554   2.059   2.115
  632SOL    HW2 1927   0.527   2.213   2.159
  633SOL     OW 1928   1.064   3.209   3.202
  633SOL    HW1 1929   0.984   3.186   3.257
  633SOL    HW2 1930   1.147   3.183   3.251
  634SOL     OW 1931   1.111   3.057   2.962
  634SOL    HW1 1932   1.071   3.101   3.043
  634SOL    HW2 1933   1.070   3.094   2.879
  635SOL     OW 1934   1.638   2.961   2.941
  635SOL    HW1 1935   1.643   3.042   3.000
  635SOL    HW2 1936   1.552   2.963   2.890
  636SOL     OW 1937   0.915   1.951   3.264
  636SOL    HW1 1938   0.940   1.931   3.169
  636SOL    HW2 1939   0.987   2.007   3.306
  637SOL     OW 1940   0.705   2.912   2.230
  637SOL    HW1 1941   0.691   2.919   2.329
  637SOL    HW2 1942   0.789   2.861   2.212
  638SOL     OW 1943   0.410   2.675   3.113
  638SOL    HW1 1944   0.496   2.687   3.163
  638SOL    HW2 1945   0.368   2.588   3.140
  639SOL     OW 1946   1.274   2.248   3.124
  639SOL    HW1 1947   1.295   2.322   3.188
  639SOL    HW2 1948   1.185   2.265   3.081
  640SOL     OW 1949   0.064   3.426   3.193
  640SOL    HW1 1950   0.018   3.508   3.159
  640SOL    HW2 1951   0.162   3.445   3.202
  641SOL     OW 1952   0.367   2.962   2.363
  641SOL    HW1 1953   0.360   3.045   2.307
  641SOL    HW2 1954   0.371   2.882   2.303
  642SOL     OW 1955   0.566   2.399   2.727
  642SOL    HW1 1956   0.578   2.465   2.653
  642SOL    HW2 1957   0.612   2.433   2.810
  643SOL     OW 1958   1.252   3.210   2.250
  643SOL    HW1 1959   1.302   3.287   2.290
  643SOL    HW2 1960   1.157   3.212   2.282
  644SOL     OW 1961   1.272   3.307   3.004
  644SOL    HW1 1962   1.319   3.320   3.091
  644SOL    HW2 1963   1.206   3.233   3.013
  645SOL     OW 1964   1.582   2.501   2.334
  645SOL    HW1 1965   1.551   2.562   2.407
  645SOL    HW2 1966   1.632   2.553   2.265
  646SOL     OW 1967   0.354   3.372   3.191
  646SOL    HW1 1968   0.333   3.328   3.104
  646SOL    HW2 1969   0.451   3.398   3.194
  647SOL     OW 1970   0.402   2.613   3.460
  647SOL    HW1 1971   0.470   2.668   3.413
  647SOL    HW2 1972   0.442   2.525   3.487
  648SOL     OW 1973   1.587   2.641   3.532
  648SOL    HW1 1974   1.495   2.679   3.527
  648SOL    HW2 1975   1.647   2.688   3.467
  649SOL     OW 1976   0.573   2.732   2.891
  649SOL    HW1 1977   0.617   2.821   2.882
  649SOL    HW2 1978   0.510   2.732   2.968
  650SOL     OW 1979   1.360   2.724   2.907
  650SOL    HW1 1980   1.285   2.724   2.841
  650SOL    HW2 1981   1.397   2.632   2.916
  651SOL     OW 1982   1.209   2.387   2.137
  651SOL    HW1 1983   1.222   2.303   2.191
  651SOL    HW2 1984   1.180   2.461   2.197
  652SOL     OW 1985   0.307   2.075   3.093
  652SOL    HW1 1986   0.284   2.112   3.183
  652SOL    HW2 1987   0.277   1.980   3.087
  653SOL     OW 1988   0.037   3.172   3.144
  653SOL    HW1 1989   0.090   3.123   3.212
  653SOL    HW2 1990   0.059   3.270   3.149
  654SOL     OW 1991   0.732   2.496   2.926
  654SOL    HW1 1992   0.791   2.470   2.850
  654SOL    HW2 1993   0.704   2.592   2.915
  655SOL     OW 1994   0.307   1.925   2.480
  655SOL    HW1 1995   0.296   2.019   2.513
  655SOL    HW2 1996   0.302   1.862   2.557
  656SOL     OW 1997   1.622   2.229   2.236
  656SOL    HW1 1998   1.624   2.153   2.300
  656SOL    HW2 1999   1.574   2.306   2.276
  657SOL     OW 2000   1.023   2.628   2.828
  657SOL    HW1 2001   1.038   2.649   2.924
  657SOL    HW2 2002   0.993   2.533   2.819
  658SOL     OW 2003   1.540   2.136   1.987
  658SOL    HW1 2004   1.479   2.061   2.010
  658SOL    HW2 2005   1.562   2.188   2.070
  659SOL     OW 2006   1.303   2.700   1.904
  659SOL    HW1 2007   1.337   2.607   1.919
  659SOL    HW2 2008   1.321   2.727   1.809
  660SOL     OW 2009   1.068   3.195   2.711
  660SOL    HW1 2010   1.075   3.111   2.656
  660SOL    HW2 2011   1.130   3.264   2.675
  661SOL     OW 2012   0.319   2.672   2.811
  661SOL    HW1 2013   0.412   2.708   2.816
  661SOL    HW2 2014   0.313   2.587   2.863
  662SOL     OW 2015   0.339   2.371   2.868
  662SOL    HW1 2016   0.287   2.288   2.851
  662SOL    HW2 2017   0.416   2.376   2.804
  663SOL     OW 2018   1.138   2.242   3.540
  663SOL    HW1 2019   1.093   2.305   3.604
  663SOL    HW2 2020   1.231   2.273   3.523
  664SOL     OW 2021   1.160   2.069   3.339
  664SOL    HW1 2022   1.160   2.133   3.416
  664SOL    HW2 2023   1.188   2.117   3.256
  665SOL     OW 2024   0.008   3.188   2.062
  665SOL    HW1 2025  -0.085   3.209   2.031
  665SOL    HW2 2026   0.018   3.089   2.075
  666SOL     OW 2027   1.002   2.658   3.100
  666SOL    HW1 2028   1.043   2.626   3.186
  666SOL    HW2 2029   0.906   2.631   3.097
  667SOL     OW 2030   0.040   2.406   2.976
  667SOL    HW1 2031   0.125   2.373   2.935
  667SOL    HW2 2032   0.053   2.421   3.074
  668SOL     OW 2033   0.815   2.434   2.187
  668SOL    HW1 2034   0.822   2.345   2.141
  668SOL    HW2 2035   0.721   2.468   2.179
  669SOL     OW 2036   1.657   2.466   3.068
  669SOL    HW1 2037   1.619   2.397   3.130
  669SOL    HW2 2038   1.739   2.430   3.024
  670SOL     OW 2039   0.671   2.326   3.131
  670SOL    HW1 2040   0.637   2.237   3.101
  670SOL    HW2 2041   0.697   2.380   3.051
  671SOL     OW 2042   0.473   2.362   2.053
  671SOL    HW1 2043   0.534   2.442   2.057
  671SOL    HW2 2044   0.378   2.393   2.060
  672SOL     OW 2045   0.159   2.999   3.328
  672SOL    HW1 2046   0.181   2.938   3.404
  672SOL    HW2 2047   0.169   2.950   3.242
  673SOL     OW 2048   1.347   2.921   3.096
  673SOL    HW1 2049   1.371   2.858   3.022
  673SOL    HW2 2050   1.257   2.961   3.078
  674SOL     OW 2051   1.302   2.717   2.171
  674SOL    HW1 2052   1.216   2.686   2.213
  674SOL    HW2 2053   1.298   2.703   2.072
  675SOL     OW 2054   0.083   3.120   2.884
  675SOL    HW1 2055   0.078   3.119   2.984
  675SOL    HW2 2056   0.000   3.079   2.846
  676SOL     OW 2057   1.726   1.997   2.385
  676SOL    HW1 2058   1.799   1.980   2.318
  676SOL    HW2 2059   1.695   1.910   2.423
  677SOL     OW 2060   1.280   2.789   2.534
  677SOL    HW1 2061   1.340   2.708   2.536
  677SOL    HW2 2062   1.320   2.858   2.474
  678SOL     OW 2063   1.841   2.037   2.825
  678SOL    HW1 2064   1.880   1.952   2.789
  678SOL    HW2 2065   1.743   2.039   2.806
  679SOL     OW 2066   0.263   2.188   2.582
  679SOL    HW1 2067   0.184   2.239   2.548
  679SOL    HW2 2068   0.254   2.173   2.680
  680SOL     OW 2069   0.822   2.864   3.234
  680SOL    HW1 2070   0.862   2.863   3.142
  680SOL    HW2 2071   0.832   2.956   3.274
  681SOL     OW 2072   0.916   2.772   2.153
  681SOL    HW1 2073   0.979   2.810   2.085
  681SOL    HW2 2074   0.956   2.689   2.192
  682SOL     OW 2075   0.372   3.150   3.352
  682SOL    HW1 2076   0.359   3.243   3.318
  682SOL    HW2 2077   0.288   3.098   3.339
  683SOL     OW 2078   1.614   3.154   3.151
  683SOL    HW1 2079   1.674   3.157   3.231
  683SOL    HW2 2080   1.539   3.218   3.164
  684SOL     OW 2081   1.039   2.960   2.558
  684SOL    HW1 2082   0.969   2.913   2.612
  684SOL    HW2 2083   1.098   2.892   2.515
  685SOL     OW 2084   1.014   2.098   2.833
  685SOL    HW1 2085   1.006   2.062   2.740
  685SOL    HW2 2086   1.012   2.022   2.898
  686SOL     OW 2087   1.709   2.247   3.243
  686SOL    HW1 2088   1.782   2.316   3.247
  686SOL    HW2 2089   1.737   2.172   3.184
  687SOL     OW 2090   0.255   3.210   2.152
  687SOL    HW1 2091   0.159   3.211   2.125
  687SOL    HW2 2092   0.267   3.263   2.236
  688SOL     OW 2093   0.672   2.065   3.351
  688SOL    HW1 2094   0.762   2.049   3.311
  688SOL    HW2 2095   0.680   2.070   3.450
  689SOL     OW 2096   0.075   2.207   1.895
  689SOL    HW1 2097  -0.017   2.179   1.866
  689SOL    HW2 2098   0.106   2.284   1.839
  690SOL     OW 2099   1.440   2.718   3.260
  690SOL    HW1 2100   1.383   2.770   3.197
  690SOL    HW2 2101   1.536   2.730   3.236
  691SOL     OW 2102   0.072   2.028   2.180
  691SOL    HW1 2103   0.055   2.111   2.126
  691SOL    HW2 2104   0.162   1.991   2.158
  692SOL     OW 2105   1.183   3.197   1.981
  692SOL    HW1 2106   1.084   3.186   1.983
  692SOL    HW2 2107   1.217   3.212   2.074
  693SOL     OW 2108   0.613   2.704   3.293
  693SOL    HW1 2109   0.669   2.785   3.276
  693SOL    HW2 2110   0.672   2.624   3.296
  694SOL     OW 2111   0.390   3.603   3.422
  694SOL    HW1 2112   0.299   3.644   3.420
  694SOL    HW2 2113   0.383   3.509   3.454
  695SOL     OW 2114   1.674   2.745   3.116
  695SOL    HW1 2115   1.647   2.656   3.079
  695SOL    HW2 2116   1.675   2.813   3.043
  696SOL     OW 2117   1.225   2.187   2.311
  696SOL    HW1 2118   1.290   2.113   2.300
  696SOL    HW2 2119   1.245   2.237   2.395
  697SOL     OW 2120   0.594   2.607   2.514
  697SOL    HW1 2121   0.644   2.692   2.495
  697SOL    HW2 2122   0.506   2.609   2.466
  698SOL     OW 2123   1.777   2.204   3.504
  698SOL    HW1 2124   1.760   2.235   3.410
  698SOL    HW2 2125   1.693   2.167   3.542
  699SOL     OW 2126   1.730   2.796   3.379
  699SOL    HW1 2127   1.768   2.887   3.394
  699SOL    HW2 2128   1.722   2.779   3.280
  700SOL     OW 2129   0.859   3.236   1.878
  700SOL    HW1 2130   0.813   3.251   1.966
  700SOL    HW2 2131   0.903   3.321   1.848
  701SOL     OW 2132   0.859   2.818   2.723
  701SOL    HW1 2133   0.913   2.749   2.771
  701SOL    HW2 2134   0.827   2.887   2.789
  702SOL     OW 2135   1.083   2.846   1.949
  702SOL    HW1 2136   1.060   2.899   1.867
  702SOL    HW2 2137   1.164   2.790   1.930
  703SOL     OW 2138   0.079   3.102   2.515
  703SOL    HW1 2139   0.078   3.055   2.603
  703SOL    HW2 2140   0.161   3.074   2.464
  704SOL     OW 2141   1.824   2.054   3.089
  704SOL    HW1 2142   1.820   1.964   3.133
  704SOL    HW2 2143   1.827   2.043   2.990
  705SOL     OW 2144   0.428   2.286   2.382
  705SOL    HW1 2145   0.458   2.214   2.320
  705SOL    HW2 2146   0.389   2.246   2.465
  706SOL     OW 2147   1.705   3.349   2.966
  706SOL    HW1 2148   1.612   3.324   2.939
  706SOL    HW2 2149   1.731   3.299   3.048
  707SOL     OW 2150   0.317   2.409   3.142
  707SOL    HW1 2151   0.355   2.350   3.214
  707SOL    HW2 2152   0.357   2.383   3.054
  708SOL     OW 2153   1.424   2.076   2.974
  708SOL    HW1 2154   1.476   2.011   3.029
  708SOL    HW2 2155   1.375   2.139   3.035
  709SOL     OW 2156   1.001   1.896   3.016
  709SOL    HW1 2157   0.938   1.824   2.985
  709SOL    HW2 2158   1.094   1.860   3.016
  710SOL     OW 2159   0.770   3.192   2.163
  710SOL    HW1 2160   0.724   3.105   2.180
  710SOL    HW2 2161   0.861   3.189   2.204
  711SOL     OW 2162   0.618   3.429   3.146
  711SOL    HW1 2163   0.613   3.511   3.203
  711SOL    HW2 2164   0.707   3.426   3.101
  712SOL     OW 2165   1.352   1.914   2.030
  712SOL    HW1 2166   1.387   1.873   1.946
  712SOL    HW2 2167   1.262   1.876   2.050
  713SOL     OW 2168   1.300   2.315   2.553
  713SOL    HW1 2169   1.241   2.395   2.557
  713SOL    HW2 2170   1.315   2.280   2.646
  714SOL     OW 2171   1.593   2.083   2.744
  714SOL    HW1 2172   1.509   2.082   2.798
  714SOL    HW2 2173   1.595   2.166   2.688
  715SOL     OW 2174   0.039   2.939   2.162
  715SOL    HW1 2175   0.138   2.928   2.153
  715SOL    HW2 2176  -0.001   2.853   2.194
  716SOL     OW 2177   2.092   0.628   0.113
  716SOL    HW1 2178   1.999   0.626   0.150
  716SOL    HW2 2179   2.093   0.589   0.021
  717SOL     OW 2180   2.087   0.275   0.996
  717SOL    HW1 2181   2.122   0.258   1.088
  717SOL    HW2 2182   1.999   0.230   0.984
  718SOL     OW 2183   1.881   0.368   0.647
  718SOL    HW1 2184   1.799   0.411   0.686
  718SOL    HW2 2185   1.853   0.295   0.584
  719SOL     OW 2186   2.431   1.275   1.165
  719SOL    HW1 2187   2.338   1.268   1.128
  719SOL    HW2 2188   2.442   1.364   1.209
  720SOL     OW 2189   3.417   1.511   0.703
  720SOL    HW1 2190   3.360   1.495   0.784
  720SOL    HW2 2191   3.358   1.521   0.623
  721SOL     OW 2192   2.997   0.703   0.717
  721SOL    HW1 2193   3.054   0.781   0.692
  721SOL    HW2 2194   2.937   0.729   0.793
  722SOL     OW 2195   2.630   1.144   1.023
  722SOL    HW1 2196   2.552   1.161   1.083
  722SOL    HW2 2197   2.664   1.231   0.987
  723SOL     OW 2198   2.712   0.798   1.823
  723SOL    HW1 2199   2.708   0.874   1.888
  723SOL    HW2 2200   2.734   0.834   1.732
  724SOL     OW 2201   2.547   1.012   0.665
  724SOL    HW1 2202   2.616   0.996   0.735
  724SOL    HW2 2203   2.474   1.069   0.703
  725SOL     OW 2204   2.548   1.161   1.803
  725SOL    HW1 2205   2.608   1.240   1.817
  725SOL    HW2 2206   2.462   1.192   1.762
  726SOL     OW 2207   2.197   1.435   1.061
  726SOL    HW1 2208   2.119   1.404   1.008
  726SOL    HW2 2209   2.255   1.493   1.004
  727SOL     OW 2210   3.322   1.505   1.339
  727SOL    HW1 2211   3.346   1.599   1.365
  727SOL    HW2 2212   3.306   1.451   1.421
  728SOL     OW 2213   2.300   0.392   1.499
  728SOL    HW1 2214   2.382   0.336   1.508
  728SOL    HW2 2215   2.219   0.334   1.503
  729SOL     OW 2216   2.093   1.713   0.483
  729SOL    HW1 2217   2.127   1.790   0.537
  729SOL    HW2 2218   2.137   1.713   0.393
  730SOL     OW 2219   2.989   1.341   1.690
  730SOL    HW1 2220   3.036   1.341   1.778
  730SOL    HW2 2221   2.941   1.254   1.679
  731SOL     OW 2222   2.092   1.434   0.538
  731SOL    HW1 2223   2.066   1.530   0.538
  731SOL    HW2 2224   2.021   1.380   0.583
  732SOL     OW 2225   2.102   1.091   0.886
  732SOL    HW1 2226   2.116   1.007   0.938
  732SOL    HW2 2227   2.047   1.155   0.941
  733SOL     OW 2228   2.482   1.786   1.439
  733SOL    HW1 2229   2.390   1.769   1.474
  733SOL    HW2 2230   2.510   1.878   1.465
  734SOL     OW 2231   2.468   0.964   0.123
  734SOL    HW1 2232   2.475   1.048   0.069
  734SOL    HW2 2233   2.514   0.977   0.211
  735SOL     OW 2234   3.456   0.114   1.480
  735SOL    HW1 2235   3.438   0.181   1.408
  735SOL    HW2 2236   3.453   0.160   1.569
  736SOL     OW 2237   1.984   0.643   0.563
  736SOL    HW1 2238   1.939   0.555   0.580
  736SOL    HW2 2239   1.983   0.697   0.647
  737SOL     OW 2240   1.889   1.596   0.117
  737SOL    HW1 2241   1.870   1.500   0.138
  737SOL    HW2 2242   1.856   1.654   0.192
  738SOL     OW 2243   3.551   0.922   0.612
  738SOL    HW1 2244   3.646   0.893   0.620
  738SOL    HW2 2245   3.543   0.987   0.537
  739SOL     OW 2246   1.975   0.737   1.597
  739SOL    HW1 2247   2.063   0.724   1.642
  739SOL    HW2 2248   1.962   0.834   1.575
  740SOL     OW 2249   2.475   1.365   0.726
  740SOL    HW1 2250   2.426   1.278   0.735
  740SOL    HW2 2251   2.452   1.408   0.639
  741SOL     OW 2252   3.155   1.228   1.423
  741SOL    HW1 2253   3.192   1.155   1.365
  741SOL    HW2 2254   3.207   1.233   1.508
  742SOL     OW 2255   2.671   0.004   0.502
  742SOL    HW1 2256   2.711   0.095   0.493
  742SOL    HW2 2257   2.571   0.012   0.508
  743SOL     OW 2258   2.059   0.976   1.264
  743SOL    HW1 2259   2.148   0.931   1.250
  743SOL    HW2 2260   1.986   0.911   1.245
  744SOL     OW 2261   3.049   1.792   1.616
  744SOL    HW1 2262   3.073   1.852   1.540
  744SOL    HW2 2263   3.056   1.697   1.586
  745SOL     OW 2264   2.179   0.251   1.801
  745SOL    HW1 2265   2.250   0.322   1.807
  745SOL    HW2 2266   2.091   0.290   1.829
  746SOL     OW 2267   3.328   1.417   0.953
  746SOL    HW1 2268   3.269   1.423   1.033
  746SOL    HW2 2269   3.313   1.329   0.907
  747SOL     OW 2270   3.529   1.714   0.572
  747SOL    HW1 2271   3.488   1.691   0.484
  747SOL    HW2 2272   3.511   1.640   0.637
  748SOL     OW 2273   2.460   0.729   0.270
  748SOL    HW1 2274   2.484   0.798   0.202
  748SOL    HW2 2275   2.382   0.762   0.324
  749SOL     OW 2276   3.143   0.345   0.944
  749SOL    HW1 2277   3.057   0.295   0.931
  749SOL    HW2 2278   3.205   0.291   1.000
  750SOL     OW 2279   2.669   0.605   1.465
  750SOL    HW1 2280   2.622   0.602   1.554
  750SOL    HW2 2281   2.618   0.550   1.399
  751SOL     OW 2282   3.256   0.469   1.674
  751SOL    HW1 2283   3.236   0.512   1.762
  751SOL    HW2 2284   3.334   0.407   1.683
  752SOL     OW 2285   2.835   0.890   1.572
  752SOL    HW1 2286   2.881   0.806   1.543
  752SOL    HW2 2287   2.779   0.924   1.497
  753SOL     OW 2288   2.853   0.410   1.242
  753SOL    HW1 2289   2.776   0.444   1.296
  753SOL    HW2 2290   2.819   0.359   1.163
  754SOL     OW 2291   2.903   0.701   0.429
  754SOL    HW1 2292   2.929   0.697   0.525
  754SOL    HW2 2293   2.818   0.650   0.415
  755SOL     OW 2294   1.938   0.811   0.789
  755SOL    HW1 2295   2.037   0.799   0.798
  755SOL    HW2 2296   1.914   0.906   0.810
  756SOL     OW 2297   2.727   0.348   0.195
  756SOL    HW1 2298   2.786   0.411   0.146
  756SOL    HW2 2299   2.746   0.254   0.166
  757SOL     OW 2300   3.224   1.144   0.545
  757SOL    HW1 2301   3.307   1.115   0.497
  757SOL    HW2 2302   3.175   1.211   0.489
  758SOL     OW 2303   2.412   0.196   0.885
  758SOL    HW1 2304   2.407   0.191   0.985
  758SOL    HW2 2305   2.414   0.292   0.856
  759SOL     OW 2306   2.870   1.456   0.477
  759SOL    HW1 2307   2.824   1.528   0.425
  759SOL    HW2 2308   2.866   1.476   0.575
  760SOL     OW 2309   2.213   1.801   0.853
  760SOL    HW1 2310   2.263   1.715   0.859
  760SOL    HW2 2311   2.278   1.878   0.850
  761SOL     OW 2312   3.089   1.550   1.506
  761SOL    HW1 2313   3.095   1.473   1.570
  761SOL    HW2 2314   3.037   1.524   1.426
  762SOL     OW 2315   2.183   0.943   0.242
  762SOL    HW1 2316   2.265   0.982   0.200
  762SOL    HW2 2317   2.156   0.861   0.193
  763SOL     OW 2318   2.323   1.266   1.727
  763SOL    HW1 2319   2.273   1.267   1.641
  763SOL    HW2 2320   2.260   1.248   1.803
  764SOL     OW 2321   2.973   1.776   0.237
  764SOL    HW1 2322   2.913   1.714   0.287
  764SOL    HW2 2323   3.004   1.732   0.152
  765SOL     OW 2324   2.064   0.285   1.498
  765SOL    HW1 2325   1.984   0.345   1.485
  765SOL    HW2 2326   2.054   0.236   1.584
  766SOL     OW 2327   2.326   1.743   0.323
  766SOL    HW1 2328   2.359   1.782   0.409
  766SOL    HW2 2329   2.402   1.736   0.258
  767SOL     OW 2330   3.262   0.107   0.426
  767SOL    HW1 2331   3.238   0.070   0.336
  767SOL    HW2 2332   3.361   0.123   0.430
  768SOL     OW 2333   2.111   1.785   1.241
  768SOL    HW1 2334   2.168   1.720   1.291
  768SOL    HW2 2335   2.095   1.752   1.148
  769SOL     OW 2336   2.802   1.698   0.904
  769SOL    HW1 2337   2.882   1.641   0.925
  769SOL    HW2 2338   2.753   1.658   0.827
  770SOL     OW 2339   2.244   0.700   0.480
  770SOL    HW1 2340   2.289   0.610   0.477
  770SOL    HW2 2341   2.150   0.689   0.513
  771SOL     OW 2342   2.476   0.122   0.117
  771SOL    HW1 2343   2.574   0.100   0.124
  771SOL    HW2 2344   2.445   0.105   0.024
  772SOL     OW 2345   2.643   0.264   1.749
  772SOL    HW1 2346   2.710   0.203   1.792
  772SOL    HW2 2347   2.570   0.283   1.814
  773SOL     OW 2348   2.750   1.514   1.195
  773SOL    HW1 2349   2.727   1.489   1.101
  773SOL    HW2 2350   2.811   1.445   1.234
  774SOL     OW 2351   3.213   0.590   1.433
  774SOL    HW1 2352   3.241   0.547   1.518
  774SOL    HW2 2353   3.238   0.686   1.434
  775SOL     OW 2354   2.665   1.402   0.924
  775SOL    HW1 2355   2.755   1.416   0.882
  775SOL    HW2 2356   2.594   1.404   0.853
  776SOL     OW 2357   2.784   0.503   0.899
  776SOL    HW1 2358   2.759   0.494   0.803
  776SOL    HW2 2359   2.832   0.421   0.930
  777SOL     OW 2360   2.401   0.064   0.512
  777SOL    HW1 2361   2.320   0.065   0.570
  777SOL    HW2 2362   2.404   0.147   0.457
  778SOL     OW 2363   3.296   1.188   0.041
  778SOL    HW1 2364   3.328   1.112   0.098
  778SOL    HW2 2365   3.204   1.215   0.071
  779SOL     OW 2366   2.159   0.035   0.171
  779SOL    HW1 2367   2.208   0.119   0.150
  779SOL    HW2 2368   2.221  -0.030   0.216
  780SOL     OW 2369   2.797   0.236   0.480
  780SOL    HW1 2370   2.749   0.277   0.402
  780SOL    HW2 2371   2.896   0.234   0.461
  781SOL     OW 2372   2.938   0.683   1.464
  781SOL    HW1 2373   2.858   0.622   1.467
  781SOL    HW2 2374   3.019   0.630   1.440
  782SOL     OW 2375   3.089   1.570   0.793
  782SOL    HW1 2376   3.110   1.644   0.728
  782SOL    HW2 2377   3.157   1.570   0.866
  783SOL     OW 2378   2.321   1.152   0.741
  783SOL    HW1 2379   2.250   1.125   0.806
  783SOL    HW2 2380   2.295   1.124   0.648
  784SOL     OW 2381   3.133   1.797   0.591
  784SOL    HW1 2382   3.177   1.861   0.527
  784SOL    HW2 2383   3.083   1.849   0.661
  785SOL     OW 2384   2.894   0.549   0.016
  785SOL    HW1 2385   2.853   0.631  -0.023
  785SOL    HW2 2386   2.958   0.575   0.089
  786SOL     OW 2387   1.940   0.556   1.386
  786SOL    HW1 2388   2.032   0.555   1.345
  786SOL    HW2 2389   1.934   0.630   1.453
  787SOL     OW 2390   2.423   0.222   1.147
  787SOL    HW1 2391   2.461   0.138   1.184
  787SOL    HW2 2392   2.335   0.241   1.191
  788SOL     OW 2393   2.728   0.454   0.642
  788SOL    HW1 2394   2.696   0.526   0.580
  788SOL    HW2 2395   2.752   0.373   0.589
  789SOL     OW 2396   2.879   0.039   0.753
  789SOL    HW1 2397   2.807   0.044   0.684
  789SOL    HW2 2398   2.855  -0.030   0.822
  790SOL     OW 2399   3.291   1.173   0.867
  790SOL    HW1 2400   3.236   1.089   0.860
  790SOL    HW2 2401   3.317   1.202   0.775
  791SOL     OW 2402   2.350   1.385   0.174
  791SOL    HW1 2403   2.263   1.370   0.221
  791SOL    HW2 2404   2.333   1.411   0.079
  792SOL     OW 2405   3.252   0.575   0.078
  792SOL    HW1 2406   3.198   0.554   0.159
  792SOL    HW2 2407   3.343   0.534   0.087
  793SOL     OW 2408   2.389   0.256   0.328
  793SOL    HW1 2409   2.416   0.197   0.253
  793SOL    HW2 2410   2.389   0.351   0.297
  794SOL     OW 2411   2.926   1.347   1.340
  794SOL    HW1 2412   2.846   1.324   1.395
  794SOL    HW2 2413   3.009   1.321   1.389
  795SOL     OW 2414   3.454   1.629   1.625
  795SOL    HW1 2415   3.481   1.663   1.535
  795SOL    HW2 2416   3.533   1.591   1.671
  796SOL     OW 2417   2.973   1.195   1.100
  796SOL    HW1 2418   2.933   1.239   1.181
  796SOL    HW2 2419   2.932   1.232   1.017
  797SOL     OW 2420   2.777   0.089   1.402
  797SOL    HW1 2421   2.802   0.069   1.307
  797SOL    HW2 2422   2.849   0.145   1.444
  798SOL     OW 2423   2.842   1.116   1.719
  798SOL    HW1 2424   2.743   1.122   1.729
  798SOL    HW2 2425   2.865   1.036   1.663
  799SOL     OW 2426   2.567   1.050   0.368
  799SOL    HW1 2427   2.553   1.057   0.467
  799SOL    HW2 2428   2.651   0.999   0.350
  800SOL     OW 2429   2.272   0.813   1.251
  800SOL    HW1 2430   2.358   0.825   1.301
  800SOL    HW2 2431   2.230   0.726   1.278
  801SOL     OW 2432   3.136   0.386   1.262
  801SOL    HW1 2433   3.157   0.460   1.326
  801SOL    HW2 2434   3.047   0.403   1.219
  802SOL     OW 2435   1.926   1.564   1.331
  802SOL    HW1 2436   1.880   1.646   1.297
  802SOL    HW2 2437   2.024   1.583   1.340
  803SOL     OW 2438   2.229   1.100   0.501
  803SOL    HW1 2439   2.222   1.183   0.445
  803SOL    HW2 2440   2.233   1.020   0.441
  804SOL     OW 2441   2.428   0.537   0.865
  804SOL    HW1 2442   2.440   0.603   0.791
  804SOL    HW2 2443   2.474   0.571   0.948
  805SOL     OW 2444   3.114   1.348   0.388
  805SOL    HW1 2445   3.164   1.425   0.428
  805SOL    HW2 2446   3.019   1.350   0.420
  806SOL     OW 2447   3.134   1.445   1.142
  806SOL    HW1 2448   3.181   1.458   1.229
  806SOL    HW2 2449   3.068   1.371   1.151
  807SOL     OW 2450   2.216   1.510   1.329
  807SOL    HW1 2451   2.195   1.466   1.242
  807SOL    HW2 2452   2.313   1.536   1.332
  808SOL     OW 2453   2.264   0.751   1.598
  808SOL    HW1 2454   2.332   0.806   1.551
  808SOL    HW2 2455   2.304   0.663   1.625
  809SOL     OW 2456   2.875   0.105   1.770
  809SOL    HW1 2457   2.881   0.190   1.718
  809SOL    HW2 2458   2.907   0.029   1.713
  810SOL     OW 2459   2.366   0.050   1.740
  810SOL    HW1 2460   2.324  -0.007   1.670
  810SOL    HW2 2461   2.300   0.119   1.772
  811SOL     OW 2462   2.435   0.870   1.029
  811SOL    HW1 2463   2.479   0.959   1.020
  811SOL    HW2 2464   2.372   0.870   1.106
  812SOL     OW 2465   3.222   0.862   1.045
  812SOL    HW1 2466   3.147   0.862   0.979
  812SOL    HW2 2467   3.259   0.770   1.054
  813SOL     OW 2468   3.071   0.525   0.275
  813SOL    HW1 2469   3.084   0.441   0.329
  813SOL    HW2 2470   3.042   0.599   0.335
  814SOL     OW 2471   2.169   0.213   1.231
  814SOL    HW1 2472   2.146   0.250   1.321
  814SOL    HW2 2473   2.139   0.118   1.225
  815SOL     OW 2474   1.899   1.310   1.282
  815SOL    HW1 2475   1.952   1.261   1.350
  815SOL    HW2 2476   1.921   1.408   1.287
  816SOL     OW 2477   2.594   0.634   1.064
  816SOL    HW1 2478   2.653   0.608   0.988
  816SOL    HW2 2479   2.566   0.730   1.053
  817SOL     OW 2480   2.169   0.063   0.618
  817SOL    HW1 2481   2.158   0.157   0.651
  817SOL    HW2 2482   2.164   0.000   0.695
  818SOL     OW 2483   3.484   0.367   0.374
  818SOL    HW1 2484   3.486   0.291   0.438
  818SOL    HW2 2485   3.436   0.444   0.414
  819SOL     OW 2486   2.885   0.766   0.966
  819SOL    HW1 2487   2.900   0.787   1.062
  819SOL    HW2 2488   2.855   0.671   0.957
  820SOL     OW 2489   2.842   1.573   1.700
  820SOL    HW1 2490   2.822   1.617   1.612
  820SOL    HW2 2491   2.881   1.482   1.684
  821SOL     OW 2492   2.212   0.898   1.804
  821SOL    HW1 2493   2.288   0.942   1.852
  821SOL    HW2 2494   2.247   0.851   1.722
  822SOL     OW 2495   3.165   0.838   0.042
  822SOL    HW1 2496   3.199   0.745   0.057
  822SOL    HW2 2497   3.183   0.865  -0.053
  823SOL     OW 2498   2.930   1.333   0.849
  823SOL    HW1 2499   2.937   1.249   0.794
  823SOL    HW2 2500   2.992   1.402   0.813
  824SOL     OW 2501   2.181   0.810   0.949
  824SOL    HW1 2502   2.274   0.846   0.954
  824SOL    HW2 2503   2.175   0.725   1.001
  825SOL     OW 2504   2.201   0.509   1.006
  825SOL    HW1 2505   2.149   0.426   0.989
  825SOL    HW2 2506   2.278   0.514   0.942
  826SOL     OW 2507   3.000   0.380   1.678
  826SOL    HW1 2508   2.955   0.443   1.742
  826SOL    HW2 2509   3.093   0.411   1.661
  827SOL     OW 2510   3.022   0.207   1.477
  827SOL    HW1 2511   3.022   0.271   1.554
  827SOL    HW2 2512   3.050   0.255   1.394
  828SOL     OW 2513   1.870   1.326   0.200
  828SOL    HW1 2514   1.777   1.347   0.169
  828SOL    HW2 2515   1.880   1.227   0.213
  829SOL     OW 2516   1.950   1.801   0.927
  829SOL    HW1 2517   1.908   1.715   0.900
  829SOL    HW2 2518   2.044   1.804   0.893
  830SOL     OW 2519   2.366   1.568   0.910
  830SOL    HW1 2520   2.432   1.642   0.919
  830SOL    HW2 2521   2.410   1.489   0.868
  831SOL     OW 2522   2.864   0.796   1.238
  831SOL    HW1 2523   2.905   0.764   1.324
  831SOL    HW2 2524   2.768   0.769   1.235
  832SOL     OW 2525   1.902   0.544   1.114
  832SOL    HW1 2526   1.987   0.511   1.073
  832SOL    HW2 2527   1.915   0.559   1.212
  833SOL     OW 2528   2.051   0.520   1.722
  833SOL    HW1 2529   2.110   0.480   1.652
  833SOL    HW2 2530   1.993   0.591   1.681
  834SOL     OW 2531   3.231   0.950   1.660
  834SOL    HW1 2532   3.270   1.039   1.680
  834SOL    HW2 2533   3.241   0.930   1.563
  835SOL     OW 2534   2.677   0.572   0.325
  835SOL    HW1 2535   2.684   0.483   0.279
  835SOL    HW2 2536   2.583   0.606   0.317
  836SOL     OW 2537   2.533   0.464   1.269
  836SOL    HW1 2538   2.499   0.375   1.239
  836SOL    HW2 2539   2.559   0.518   1.189
  837SOL     OW 2540   2.792   1.678   1.465
  837SOL    HW1 2541   2.768   1.660   1.370
  837SOL    HW2 2542   2.822   1.772   1.475
  838SOL     OW 2543   2.335   0.500   0.191
  838SOL    HW1 2544   2.396   0.580   0.195
  838SOL    HW2 2545   2.240   0.531   0.198
  839SOL     OW 2546   2.021   1.137   1.466
  839SOL    HW1 2547   2.043   1.076   1.542
  839SOL    HW2 2548   2.031   1.088   1.380
  840SOL     OW 2549   3.209   1.059   1.234
  840SOL    HW1 2550   3.233   0.996   1.160
  840SOL    HW2 2551   3.119   1.099   1.216
  841SOL     OW 2552   3.164   0.855   0.309
  841SOL    HW1 2553   3.078   0.824   0.351
  841SOL    HW2 2554   3.160   0.841   0.210
  842SOL     OW 2555   3.114   1.731   1.128
  842SOL    HW1 2556   3.198   1.736   1.074
  842SOL    HW2 2557   3.091   1.635   1.146
  843SOL     OW 2558   1.945   1.258   1.022
  843SOL    HW1 2559   1.940   1.257   1.122
  843SOL    HW2 2560   1.862   1.217   0.984
  844SOL     OW 2561   2.765   0.086   0.133
  844SOL    HW1 2562   2.816   0.087   0.047
  844SOL    HW2 2563   2.821   0.044   0.204
  845SOL     OW 2564   3.588   0.135   0.523
  845SOL    HW1 2565   3.661   0.118   0.456
  845SOL    HW2 2566   3.557   0.048   0.561
  846SOL     OW 2567   3.250   1.573   0.477
  846SOL    HW1 2568   3.317   1.585   0.403
  846SOL    HW2 2569   3.210   1.662   0.500
  847SOL     OW 2570   3.142   0.927   0.672
  847SOL    HW1 2571   3.202   0.846   0.674
  847SOL    HW2 2572   3.182   0.996   0.612
  848SOL     OW 2573   2.692   1.273   1.422
  848SOL    HW1 2574   2.687   1.306   1.517
  848SOL    HW2 2575   2.606   1.292   1.376
  849SOL     OW 2576   2.534   1.616   0.154
  849SOL    HW1 2577   2.543   1.626   0.055
  849SOL    HW2 2578   2.494   1.527   0.175
  850SOL     OW 2579   2.125   0.326   0.720
  850SOL    HW1 2580   2.046   0.377   0.686
  850SOL    HW2 2581   2.116   0.311   0.818
  851SOL     OW 2582   3.056   1.612   0.031
  851SOL    HW1 2583   3.062   1.519   0.068
  851SOL    HW2 2584   2.997   1.612  -0.049
  852SOL     OW 2585   2.684   1.002   1.372
  852SOL    HW1 2586   2.724   1.001   1.280
  852SOL    HW2 2587   2.694   1.094   1.412
  853SOL     OW 2588   2.778   0.910   0.291
  853SOL    HW1 2589   2.841   0.948   0.223
  853SOL    HW2 2590   2.818   0.827   0.330
  854SOL     OW 2591   2.234   1.288   1.490
  854SOL    HW1 2592   2.221   1.381   1.456
  854SOL    HW2 2593   2.150   1.236   1.477
  855SOL     OW 2594   2.901   1.098   0.696
  855SOL    HW1 2595   2.831   1.051   0.750
  855SOL    HW2 2596   2.960   1.030   0.653
  856SOL     OW 2597   2.876   0.236   0.971
  856SOL    HW1 2598   2.868   0.200   0.878
  856SOL    HW2 2599   2.874   0.160   1.036
  857SOL     OW 2600   2.452   1.487   0.491
  857SOL    HW1 2601   2.494   1.429   0.421
  857SOL    HW2 2602   2.408   1.566   0.447
  858SOL     OW 2603   2.117   1.348   0.290
  858SOL    HW1 2604   2.021   1.349   0.263
  858SOL    HW2 2605   2.129   1.401   0.374
  859SOL     OW 2606   1.967   1.013   1.726
  859SOL    HW1 2607   1.890   0.980   1.780
  859SOL    HW2 2608   2.052   0.983   1.768
  860SOL     OW 2609   2.534   0.203   1.489
  860SOL    HW1 2610   2.624   0.187   1.449
  860SOL    HW2 2611   2.542   0.208   1.588
  861SOL     OW 2612   3.302   0.856   1.398
  861SOL    HW1 2613   3.245   0.908   1.335
  861SOL    HW2 2614   3.398   0.868   1.374
  862SOL     OW 2615   1.934   0.166   0.318
  862SOL    HW1 2616   1.917   0.249   0.264
  862SOL    HW2 2617   2.024   0.129   0.296
  863SOL     OW 2618   3.045   1.335   0.119
  863SOL    HW1 2619   2.946   1.324   0.121
  863SOL    HW2 2620   3.079   1.350   0.212
  864SOL     OW 2621   2.475   0.842   1.431
  864SOL    HW1 2622   2.531   0.923   1.414
  864SOL    HW2 2623   2.534   0.762   1.434
  865SOL     OW 2624   2.578   0.565   1.708
  865SOL    HW1 2625   2.597   0.630   1.782
  865SOL    HW2 2626   2.638   0.485   1.717
  866SOL     OW 2627   3.312   1.220   1.633
  866SOL    HW1 2628   3.303   1.210   1.732
  866SOL    HW2 2629   3.408   1.213   1.607
  867SOL     OW 2630   3.087   0.325   0.449
  867SOL    HW1 2631   3.152   0.251   0.438
  867SOL    HW2 2632   3.107   0.375   0.533
  868SOL     OW 2633   2.456   0.745   0.652
  868SOL    HW1 2634   2.506   0.830   0.633
  868SOL    HW2 2635   2.368   0.747   0.604
  869SOL     OW 2636   2.721   1.374   0.016
  869SOL    HW1 2637   2.675   1.389   0.104
  869SOL    HW2 2638   2.765   1.459  -0.014
  870SOL     OW 2639   2.523   1.790   0.953
  870SOL    HW1 2640   2.477   1.878   0.940
  870SOL    HW2 2641   2.622   1.802   0.946
  871SOL     OW 2642   2.721   0.956   0.861
  871SOL    HW1 2643   2.775   0.887   0.909
  871SOL    HW2 2644   2.689   1.025   0.927
  872SOL     OW 2645   2.945   0.984   0.087
  872SOL    HW1 2646   2.922   1.037   0.005
  872SOL    HW2 2647   3.026   0.928   0.068
  873SOL     OW 2648   2.083   1.314   1.844
  873SOL    HW1 2649   2.018   1.241   1.823
  873SOL    HW2 2650   2.087   1.328   1.942
  874SOL     OW 2651   1.941   1.240   0.653
  874SOL    HW1 2652   1.940   1.193   0.741
  874SOL    HW2 2653   2.023   1.212   0.602
  875SOL     OW 2654   2.534   1.391   1.624
  875SOL    HW1 2655   2.456   1.341   1.662
  875SOL    HW2 2656   2.531   1.486   1.655
  876SOL     OW 2657   2.290   0.424   0.520
  876SOL    HW1 2658   2.320   0.352   0.458
  876SOL    HW2 2659   2.251   0.384   0.603
  877SOL     OW 2660   2.179   0.547   1.280
  877SOL    HW1 2661   2.217   0.488   1.352
  877SOL    HW2 2662   2.219   0.521   1.192
  878SOL     OW 2663   2.674   1.586   0.687
  878SOL    HW1 2664   2.706   1.596   0.593
  878SOL    HW2 2665   2.595   1.524   0.689
  879SOL     OW 2666   3.286   0.214   1.112
  879SOL    HW1 2667   3.338   0.149   1.167
  879SOL    HW2 2668   3.237   0.277   1.173
  880SOL     OW 2669   2.863   0.034   1.154
  880SOL    HW1 2670   2.800  -0.038   1.123
  880SOL    HW2 2671   2.956  -0.002   1.154
  881SOL     OW 2672   2.632   1.330   0.301
  881SOL    HW1 2673   2.586   1.243   0.318
  881SOL    HW2 2674   2.723   1.327   0.342
  882SOL     OW 2675   2.480   1.567   1.284
  882SOL    HW1 2676   2.475   1.649   1.341
  882SOL    HW2 2677   2.569   1.564   1.239
  883SOL     OW 2678   3.214   0.052   0.168
  883SOL    HW1 2679   3.249   0.011   0.084
  883SOL    HW2 2680   3.124   0.014   0.188
  884SOL     OW 2681   3.162   0.453   0.691
  884SOL    HW1 2682   3.103   0.533   0.695
  884SOL    HW2 2683   3.177   0.418   0.784
  885SOL     OW 2684   3.455   0.221   0.882
  885SOL    HW1 2685   3.371   0.220   0.936
  885SOL    HW2 2686   3.457   0.304   0.826
  886SOL     OW 2687   1.901   1.077   0.300
  886SOL    HW1 2688   2.000   1.066   0.291
  886SOL    HW2 2689   1.861   0.991   0.332
  887SOL     OW 2690   2.737   1.646   0.337
  887SOL    HW1 2691   2.660   1.611   0.283
  887SOL    HW2 2692   2.705   1.717   0.399
  888SOL     OW 2693   2.092   0.628   1.975
  888SOL    HW1 2694   1.999   0.626   2.012
  888SOL    HW2 2695   2.093   0.589   1.883
  889SOL     OW 2696   2.087   0.275   2.858
  889SOL    HW1 2697   2.122   0.258   2.950
  889SOL    HW2 2698   1.999   0.230   2.846
  890SOL     OW 2699   1.881   0.368   2.509
  890SOL    HW1 2700   1.799   0.411   2.548
  890SOL    HW2 2701   1.853   0.295   2.446
  891SOL     OW 2702   2.431   1.275   3.027
  891SOL    HW1 2703   2.338   1.268   2.990
  891SOL    HW2 2704   2.442   1.364   3.071
  892SOL     OW 2705   3.417   1.511   2.565
  892SOL    HW1 2706   3.360   1.495   2.646
  892SOL    HW2 2707   3.358   1.521   2.485
  893SOL     OW 2708   2.997   0.703   2.579
  893SOL    HW1 2709   3.054   0.781   2.554
  893SOL    HW2 2710   2.937   0.729   2.655
  894SOL     OW 2711   2.630   1.144   2.885
  894SOL    HW1 2712   2.552   1.161   2.945
  894SOL    HW2 2713   2.664   1.231   2.849
  895SOL     OW 2714   2.547   1.012   2.527
  895SOL    HW1 2715   2.616   0.996   2.597
  895SOL    HW2 2716   2.474   1.069   2.565
  896SOL     OW 2717   2.197   1.435   2.923
  896SOL    HW1 2718   2.119   1.404   2.870
  896SOL    HW2 2719   2.255   1.493   2.866
  897SOL     OW 2720   3.322   1.505   3.201
  897SOL    HW1 2721   3.346   1.599   3.227
  897SOL    HW2 2722   3.306   1.451   3.283
  898SOL     OW 2723   2.300   0.392   3.361
  898SOL    HW1 2724   2.382   0.336   3.370
  898SOL    HW2 2725   2.219   0.334   3.365
  899SOL     OW 2726   2.093   1.713   2.345
  899SOL    HW1 2727   2.127   1.790   2.399
  899SOL    HW2 2728   2.137   1.713   2.255
  900SOL     OW 2729   2.092   1.434   2.400
  900SOL    HW1 2730   2.066   1.530   2.400
  900SOL    HW2 2731   2.021   1.380   2.445
  901SOL     OW 2732   2.102   1.091   2.748
  901SOL    HW1 2733   2.116   1.007   2.800
  901SOL    HW2 2734   2.047   1.155   2.803
  902SOL     OW 2735   2.482   1.786   3.301
  902SOL    HW1 2736   2.390   1.769   3.336
  902SOL    HW2 2737   2.510   1.878   3.327
  903SOL     OW 2738   2.468   0.964   1.985
  903SOL    HW1 2739   2.475   1.048   1.931
  903SOL    HW2 2740   2.514   0.977   2.073
  904SOL     OW 2741   3.456   0.114   3.342
  904SOL    HW1 2742   3.438   0.181   3.270
  904SOL    HW2 2743   3.453   0.160   3.431
  905SOL     OW 2744   1.984   0.643   2.425
  905SOL    HW1 2745   1.939   0.555   2.442
  905SOL    HW2 2746   1.983   0.697   2.509
  906SOL     OW 2747   3.551   0.922   2.474
  906SOL    HW1 2748   3.646   0.893   2.482
  906SOL    HW2 2749   3.543   0.987   2.399
  907SOL     OW 2750   2.475   1.365   2.588
  907SOL    HW1 2751   2.426   1.278   2.597
  907SOL    HW2 2752   2.452   1.408   2.501
  908SOL     OW 2753   2.671   0.004   2.364
  908SOL    HW1 2754   2.711   0.095   2.355
  908SOL    HW2 2755   2.571   0.012   2.370
  909SOL     OW 2756   2.059   0.976   3.126
  909SOL    HW1 2757   2.148   0.931   3.112
  909SOL    HW2 2758   1.986   0.911   3.107
  910SOL     OW 2759   3.328   1.417   2.815
  910SOL    HW1 2760   3.269   1.423   2.895
  910SOL    HW2 2761   3.313   1.329   2.769
  911SOL     OW 2762   3.529   1.714   2.434
  911SOL    HW1 2763   3.488   1.691   2.346
  911SOL    HW2 2764   3.511   1.640   2.499
  912SOL     OW 2765   2.460   0.729   2.132
  912SOL    HW1 2766   2.484   0.798   2.064
  912SOL    HW2 2767   2.382   0.762   2.186
  913SOL     OW 2768   3.143   0.345   2.806
  913SOL    HW1 2769   3.057   0.295   2.793
  913SOL    HW2 2770   3.205   0.291   2.862
  914SOL     OW 2771   2.669   0.605   3.327
  914SOL    HW1 2772   2.622   0.602   3.416
  914SOL    HW2 2773   2.618   0.550   3.261
  915SOL     OW 2774   2.835   0.890   3.434
  915SOL    HW1 2775   2.881   0.806   3.405
  915SOL    HW2 2776   2.779   0.924   3.359
  916SOL     OW 2777   2.853   0.410   3.104
  916SOL    HW1 2778   2.776   0.444   3.158
  916SOL    HW2 2779   2.819   0.359   3.025
  917SOL     OW 2780   2.903   0.701   2.291
  917SOL    HW1 2781   2.929   0.697   2.387
  917SOL    HW2 2782   2.818   0.650   2.277
  918SOL     OW 2783   1.938   0.811   2.651
  918SOL    HW1 2784   2.037   0.799   2.660
  918SOL    HW2 2785   1.914   0.906   2.672
  919SOL     OW 2786   1.992   1.821   3.433
  919SOL    HW1 2787   1.982   1.806   3.532
  919SOL    HW2 2788   1.906   1.857   3.397
  920SOL     OW 2789   2.727   0.348   2.057
  920SOL    HW1 2790   2.786   0.411   2.008
  920SOL    HW2 2791   2.746   0.254   2.028
  921SOL     OW 2792   3.224   1.144   2.407
  921SOL    HW1 2793   3.307   1.115   2.359
  921SOL    HW2 2794   3.175   1.211   2.351
  922SOL     OW 2795   2.412   0.196   2.747
  922SOL    HW1 2796   2.407   0.191   2.847
  922SOL    HW2 2797   2.414   0.292   2.718
  923SOL     OW 2798   2.870   1.456   2.339
  923SOL    HW1 2799   2.824   1.528   2.287
  923SOL    HW2 2800   2.866   1.476   2.437
  924SOL     OW 2801   2.213   1.801   2.715
  924SOL    HW1 2802   2.263   1.715   2.721
  924SOL    HW2 2803   2.278   1.878   2.712
  925SOL     OW 2804   2.183   0.943   2.104
  925SOL    HW1 2805   2.265   0.982   2.062
  925SOL    HW2 2806   2.156   0.861   2.055
  926SOL     OW 2807   2.973   1.776   2.099
  926SOL    HW1 2808   2.913   1.714   2.149
  926SOL    HW2 2809   3.004   1.732   2.014
  927SOL     OW 2810   2.064   0.285   3.360
  927SOL    HW1 2811   1.984   0.345   3.347
  927SOL    HW2 2812   2.054   0.236   3.446
  928SOL     OW 2813   2.326   1.743   2.185
  928SOL    HW1 2814   2.359   1.782   2.271
  928SOL    HW2 2815   2.402   1.736   2.120
  929SOL     OW 2816   3.262   0.107   2.288
  929SOL    HW1 2817   3.238   0.070   2.198
  929SOL    HW2 2818   3.361   0.123   2.292
  930SOL     OW 2819   2.111   1.785   3.103
  930SOL    HW1 2820   2.168   1.720   3.153
  930SOL    HW2 2821   2.095   1.752   3.010
  931SOL     OW 2822   2.802   1.698   2.766
  931SOL    HW1 2823   2.882   1.641   2.787
  931SOL    HW2 2824   2.753   1.658   2.689
  932SOL     OW 2825   2.244   0.700   2.342
  932SOL    HW1 2826   2.289   0.610   2.339
  932SOL    HW2 2827   2.150   0.689   2.375
  933SOL     OW 2828   2.476   0.122   1.979
  933SOL    HW1 2829   2.574   0.100   1.986
  933SOL    HW2 2830   2.445   0.105   1.886
  934SOL     OW 2831   2.750   1.514   3.057
  934SOL    HW1 2832   2.727   1.489   2.963
  934SOL    HW2 2833   2.811   1.445   3.096
  935SOL     OW 2834   2.665   1.402   2.786
  935SOL    HW1 2835   2.755   1.416   2.744
  935SOL    HW2 2836   2.594   1.404   2.715
  936SOL     OW 2837   2.784   0.503   2.761
  936SOL    HW1 2838   2.759   0.494   2.665
  936SOL    HW2 2839   2.832   0.421   2.792
  937SOL     OW 2840   2.401   0.064   2.374
  937SOL    HW1 2841   2.320   0.065   2.432
  937SOL    HW2 2842   2.404   0.147   2.319
  938SOL     OW 2843   3.296   1.188   1.903
  938SOL    HW1 2844   3.328   1.112   1.960
  938SOL    HW2 2845   3.204   1.215   1.933
  939SOL     OW 2846   2.159   0.035   2.033
  939SOL    HW1 2847   2.208   0.119   2.012
  939SOL    HW2 2848   2.221  -0.030   2.078
  940SOL     OW 2849   2.797   0.236   2.342
  940SOL    HW1 2850   2.749   0.277   2.264
  940SOL    HW2 2851   2.896   0.234   2.323
  941SOL     OW 2852   3.089   1.570   2.655
  941SOL    HW1 2853   3.110   1.644   2.590
  941SOL    HW2 2854   3.157   1.570   2.728
  942SOL     OW 2855   2.321   1.152   2.603
  942SOL    HW1 2856   2.250   1.125   2.668
  942SOL    HW2 2857   2.295   1.124   2.510
  943SOL     OW 2858   3.133   1.797   2.453
  943SOL    HW1 2859   3.177   1.861   2.389
  943SOL    HW2 2860   3.083   1.849   2.523
  944SOL     OW 2861   2.894   0.549   1.878
  944SOL    HW1 2862   2.853   0.631   1.839
  944SOL    HW2 2863   2.958   0.575   1.951
  945SOL     OW 2864   1.940   0.556   3.248
  945SOL    HW1 2865   2.032   0.555   3.207
  945SOL    HW2 2866   1.934   0.630   3.315
  946SOL     OW 2867   2.423   0.222   3.009
  946SOL    HW1 2868   2.461   0.138   3.046
  946SOL    HW2 2869   2.335   0.241   3.053
  947SOL     OW 2870   2.728   0.454   2.504
  947SOL    HW1 2871   2.696   0.526   2.442
  947SOL    HW2 2872   2.752   0.373   2.451
  948SOL     OW 2873   2.879   0.039   2.615
  948SOL    HW1 2874   2.807   0.044   2.546
  948SOL    HW2 2875   2.855  -0.030   2.684
  949SOL     OW 2876   3.291   1.173   2.729
  949SOL    HW1 2877   3.236   1.089   2.722
  949SOL    HW2 2878   3.317   1.202   2.637
  950SOL     OW 2879   3.252   0.575   1.940
  950SOL    HW1 2880   3.198   0.554   2.021
  950SOL    HW2 2881   3.343   0.534   1.949
  951SOL     OW 2882   2.389   0.256   2.190
  951SOL    HW1 2883   2.416   0.197   2.115
  951SOL    HW2 2884   2.389   0.351   2.159
  952SOL     OW 2885   2.926   1.347   3.202
  952SOL    HW1 2886   2.846   1.324   3.257
  952SOL    HW2 2887   3.009   1.321   3.251
  953SOL     OW 2888   2.973   1.195   2.962
  953SOL    HW1 2889   2.933   1.239   3.043
  953SOL    HW2 2890   2.932   1.232   2.879
  954SOL     OW 2891   2.777   0.089   3.264
  954SOL    HW1 2892   2.802   0.069   3.169
  954SOL    HW2 2893   2.849   0.145   3.306
  955SOL     OW 2894   2.567   1.050   2.230
  955SOL    HW1 2895   2.553   1.057   2.329
  955SOL    HW2 2896   2.651   0.999   2.212
  956SOL     OW 2897   2.272   0.813   3.113
  956SOL    HW1 2898   2.358   0.825   3.163
  956SOL    HW2 2899   2.230   0.726   3.140
  957SOL     OW 2900   3.136   0.386   3.124
  957SOL    HW1 2901   3.157   0.460   3.188
  957SOL    HW2 2902   3.047   0.403   3.081
  958SOL     OW 2903   1.926   1.564   3.193
  958SOL    HW1 2904   1.880   1.646   3.159
  958SOL    HW2 2905   2.024   1.583   3.202
  959SOL     OW 2906   2.229   1.100   2.363
  959SOL    HW1 2907   2.222   1.183   2.307
  959SOL    HW2 2908   2.233   1.020   2.303
  960SOL     OW 2909   2.428   0.537   2.727
  960SOL    HW1 2910   2.440   0.603   2.653
  960SOL    HW2 2911   2.474   0.571   2.810
  961SOL     OW 2912   3.114   1.348   2.250
  961SOL    HW1 2913   3.164   1.425   2.290
  961SOL    HW2 2914   3.019   1.350   2.282
  962SOL     OW 2915   3.134   1.445   3.004
  962SOL    HW1 2916   3.181   1.458   3.091
  962SOL    HW2 2917   3.068   1.371   3.013
  963SOL     OW 2918   2.216   1.510   3.191
  963SOL    HW1 2919   2.195   1.466   3.104
  963SOL    HW2 2920   2.313   1.536   3.194
  964SOL     OW 2921   2.264   0.751   3.460
  964SOL    HW1 2922   2.332   0.806   3.413
  964SOL    HW2 2923   2.304   0.663   3.487
  965SOL     OW 2924   3.449   0.779   3.532
  965SOL    HW1 2925   3.357   0.817   3.527
  965SOL    HW2 2926   3.509   0.826   3.467
  966SOL     OW 2927   2.435   0.870   2.891
  966SOL    HW1 2928   2.479   0.959   2.882
  966SOL    HW2 2929   2.372   0.870   2.968
  967SOL     OW 2930   3.222   0.862   2.907
  967SOL    HW1 2931   3.147   0.862   2.841
  967SOL    HW2 2932   3.259   0.770   2.916
  968SOL     OW 2933   3.071   0.525   2.137
  968SOL    HW1 2934   3.084   0.441   2.191
  968SOL    HW2 2935   3.042   0.599   2.197
  969SOL     OW 2936   2.169   0.213   3.093
  969SOL    HW1 2937   2.146   0.250   3.183
  969SOL    HW2 2938   2.139   0.118   3.087
  970SOL     OW 2939   1.899   1.310   3.144
  970SOL    HW1 2940   1.952   1.261   3.212
  970SOL    HW2 2941   1.921   1.408   3.149
  971SOL     OW 2942   2.594   0.634   2.926
  971SOL    HW1 2943   2.653   0.608   2.850
  971SOL    HW2 2944   2.566   0.730   2.915
  972SOL     OW 2945   2.169   0.063   2.480
  972SOL    HW1 2946   2.158   0.157   2.513
  972SOL    HW2 2947   2.164   0.000   2.557
  973SOL     OW 2948   3.484   0.367   2.236
  973SOL    HW1 2949   3.486   0.291   2.300
  973SOL    HW2 2950   3.436   0.444   2.276
  974SOL     OW 2951   2.885   0.766   2.828
  974SOL    HW1 2952   2.900   0.787   2.924
  974SOL    HW2 2953   2.855   0.671   2.819
  975SOL     OW 2954   2.842   1.573   3.562
  975SOL    HW1 2955   2.822   1.617   3.474
  975SOL    HW2 2956   2.881   1.482   3.546
  976SOL     OW 2957   3.165   0.838   1.904
  976SOL    HW1 2958   3.199   0.745   1.919
  976SOL    HW2 2959   3.183   0.865   1.809
  977SOL     OW 2960   2.930   1.333   2.711
  977SOL    HW1 2961   2.937   1.249   2.656
  977SOL    HW2 2962   2.992   1.402   2.675
  978SOL     OW 2963   2.181   0.810   2.811
  978SOL    HW1 2964   2.274   0.846   2.816
  978SOL    HW2 2965   2.175   0.725   2.863
  979SOL     OW 2966   2.201   0.509   2.868
  979SOL    HW1 2967   2.149   0.426   2.851
  979SOL    HW2 2968   2.278   0.514   2.804
  980SOL     OW 2969   3.000   0.380   3.540
  980SOL    HW1 2970   2.955   0.443   3.604
  980SOL    HW2 2971   3.093   0.411   3.523
  981SOL     OW 2972   3.022   0.207   3.339
  981SOL    HW1 2973   3.022   0.271   3.416
  981SOL    HW2 2974   3.050   0.255   3.256
  982SOL     OW 2975   1.870   1.326   2.062
  982SOL    HW1 2976   1.777   1.347   2.031
  982SOL    HW2 2977   1.880   1.227   2.075
  983SOL     OW 2978   1.950   1.801   2.789
  983SOL    HW1 2979   1.908   1.715   2.762
  983SOL    HW2 2980   2.044   1.804   2.755
  984SOL     OW 2981   2.366   1.568   2.772
  984SOL    HW1 2982   2.432   1.642   2.781
  984SOL    HW2 2983   2.410   1.489   2.730
  985SOL     OW 2984   2.864   0.796   3.100
  985SOL    HW1 2985   2.905   0.764   3.186
  985SOL    HW2 2986   2.768   0.769   3.097
  986SOL     OW 2987   1.902   0.544   2.976
  986SOL    HW1 2988   1.987   0.511   2.935
  986SOL    HW2 2989   1.915   0.559   3.074
  987SOL     OW 2990   2.677   0.572   2.187
  987SOL    HW1 2991   2.684   0.483   2.141
  987SOL    HW2 2992   2.583   0.606   2.179
  988SOL     OW 2993   2.114   1.564   3.606
  988SOL    HW1 2994   2.084   1.621   3.682
  988SOL    HW2 2995   2.107   1.467   3.632
  989SOL     OW 2996   2.533   0.464   3.131
  989SOL    HW1 2997   2.499   0.375   3.101
  989SOL    HW2 2998   2.559   0.518   3.051
  990SOL     OW 2999   2.792   1.678   3.327
  990SOL    HW1 3000   2.768   1.660   3.232
  990SOL    HW2 3001   2.822   1.772   3.337
  991SOL     OW 3002   2.335   0.500   2.053
  991SOL    HW1 3003   2.396   0.580   2.057
  991SOL    HW2 3004   2.240   0.531   2.060
  992SOL     OW 3005   2.021   1.137   3.328
  992SOL    HW1 3006   2.043   1.076   3.404
  992SOL    HW2 3007   2.031   1.088   3.242
  993SOL     OW 3008   3.209   1.059   3.096
  993SOL    HW1 3009   3.233   0.996   3.022
  993SOL    HW2 3010   3.119   1.099   3.078
  994SOL     OW 3011   3.164   0.855   2.171
  994SOL    HW1 3012   3.078   0.824   2.213
  994SOL    HW2 3013   3.160   0.841   2.072
  995SOL     OW 3014   3.114   1.731   2.990
  995SOL    HW1 3015   3.198   1.736   2.936
  995SOL    HW2 3016   3.091   1.635   3.008
  996SOL     OW 3017   1.945   1.258   2.884
  996SOL    HW1 3018   1.940   1.257   2.984
  996SOL    HW2 3019   1.862   1.217   2.846
  997SOL     OW 3020   3.588   0.135   2.385
  997SOL    HW1 3021   3.661   0.118   2.318
  997SOL    HW2 3022   3.557   0.048   2.423
  998SOL     OW 3023   3.250   1.573   2.339
  998SOL    HW1 3024   3.317   1.585   2.265
  998SOL    HW2 3025   3.210   1.662   2.362
  999SOL     OW 3026   3.142   0.927   2.534
  999SOL    HW1 3027   3.202   0.846   2.536
  999SOL    HW2 3028   3.182   0.996   2.474
 1000SOL     OW 3029   2.534   1.616   2.016
 1000SOL    HW1 3030   2.543   1.626   1.917
 1000SOL    HW2 3031   2.494   1.527   2.037
 1001SOL     OW 3032   2.125   0.326   2.582
 1001SOL    HW1 3033   2.046   0.377   2.548
 1001SOL    HW2 3034   2.116   0.311   2.680
 1002SOL     OW 3035   3.056   1.612   1.893
 1002SOL    HW1 3036   3.062   1.519   1.930
 1002SOL    HW2 3037   2.997   1.612   1.813
 1003SOL     OW 3038   2.684   1.002   3.234
 1003SOL    HW1 3039   2.724   1.001   3.142
 1003SOL    HW2 3040   2.694   1.094   3.274
 1004SOL     OW 3041   2.778   0.910   2.153
 1004SOL    HW1 3042   2.841   0.948   2.085
 1004SOL    HW2 3043   2.818   0.827   2.192
 1005SOL     OW 3044   2.234   1.288   3.352
 1005SOL    HW1 3045   2.221   1.381   3.318
 1005SOL    HW2 3046   2.150   1.236   3.339
 1006SOL     OW 3047   2.901   1.098   2.558
 1006SOL    HW1 3048   2.831   1.051   2.612
 1006SOL    HW2 3049   2.960   1.030   2.515
 1007SOL     OW 3050   2.876   0.236   2.833
 1007SOL    HW1 3051   2.868   0.200   2.740
 1007SOL    HW2 3052   2.874   0.160   2.898
 1008SOL     OW 3053   2.452   1.487   2.353
 1008SOL    HW1 3054   2.494   1.429   2.283
 1008SOL    HW2 3055   2.408   1.566   2.309
 1009SOL     OW 3056   2.117   1.348   2.152
 1009SOL    HW1 3057   2.021   1.349   2.125
 1009SOL    HW2 3058   2.129   1.401   2.236
 1010SOL     OW 3059   2.534   0.203   3.351
 1010SOL    HW1 3060   2.624   0.187   3.311
 1010SOL    HW2 3061   2.542   0.208   3.450
 1011SOL     OW 3062   1.937   0.345   1.895
 1011SOL    HW1 3063   1.845   0.317   1.866
 1011SOL    HW2 3064   1.968   0.422   1.839
 1012SOL     OW 3065   3.302   0.856   3.260
 1012SOL    HW1 3066   3.245   0.908   3.197
 1012SOL    HW2 3067   3.398   0.868   3.236
 1013SOL     OW 3068   1.934   0.166   2.180
 1013SOL    HW1 3069   1.917   0.249   2.126
 1013SOL    HW2 3070   2.024   0.129   2.158
 1014SOL     OW 3071   3.045   1.335   1.981
 1014SOL    HW1 3072   2.946   1.324   1.983
 1014SOL    HW2 3073   3.079   1.350   2.074
 1015SOL     OW 3074   2.475   0.842   3.293
 1015SOL    HW1 3075   2.531   0.923   3.276
 1015SOL    HW2 3076   2.534   0.762   3.296
 1016SOL     OW 3077   2.252   1.741   3.422
 1016SOL    HW1 3078   2.161   1.782   3.420
 1016SOL    HW2 3079   2.245   1.647   3.454
 1017SOL     OW 3080   3.087   0.325   2.311
 1017SOL    HW1 3081   3.152   0.251   2.300
 1017SOL    HW2 3082   3.107   0.375   2.395
 1018SOL     OW 3083   2.456   0.745   2.514
 1018SOL    HW1 3084   2.506   0.830   2.495
 1018SOL    HW2 3085   2.368   0.747   2.466
 1019SOL     OW 3086   2.721   1.374   1.878
 1019SOL    HW1 3087   2.675   1.389   1.966
 1019SOL    HW2 3088   2.765   1.459   1.848
 1020SOL     OW 3089   2.523   1.790   2.815
 1020SOL    HW1 3090   2.477   1.878   2.802
 1020SOL    HW2 3091   2.622   1.802   2.808
 1021SOL     OW 3092   2.721   0.956   2.723
 1021SOL    HW1 3093   2.775   0.887   2.771
 1021SOL    HW2 3094   2.689   1.025   2.789
 1022SOL     OW 3095   2.945   0.984   1.949
 1022SOL    HW1 3096   2.922   1.037   1.867
 1022SOL    HW2 3097   3.026   0.928   1.930
 1023SOL     OW 3098   1.941   1.240   2.515
 1023SOL    HW1 3099   1.940   1.193   2.603
 1023SOL    HW2 3100   2.023   1.212   2.464
 1024SOL     OW 3101   2.290   0.424   2.382
 1024SOL    HW1 3102   2.320   0.352   2.320
 1024SOL    HW2 3103   2.251   0.384   2.465
 1025SOL     OW 3104   2.179   0.547   3.142
 1025SOL    HW1 3105   2.217   0.488   3.214
 1025SOL    HW2 3106   2.219   0.521   3.054
 1026SOL     OW 3107   2.674   1.586   2.549
 1026SOL    HW1 3108   2.706   1.596   2.455
 1026SOL    HW2 3109   2.595   1.524   2.551
 1027SOL     OW 3110   3.286   0.214   2.974
 1027SOL    HW1 3111   3.338   0.149   3.029
 1027SOL    HW2 3112   3.237   0.277   3.035
 1028SOL     OW 3113   2.863   0.034   3.016
 1028SOL    HW1 3114   2.800  -0.038   2.985
 1028SOL    HW2 3115   2.956  -0.002   3.016
 1029SOL     OW 3116   2.632   1.330   2.163
 1029SOL    HW1 3117   2.586   1.243   2.180
 1029SOL    HW2 3118   2.723   1.327   2.204
 1030SOL     OW 3119   2.480   1.567   3.146
 1030SOL    HW1 3120   2.475   1.649   3.203
 1030SOL    HW2 3121   2.569   1.564   3.101
 1031SOL     OW 3122   3.214   0.052   2.030
 1031SOL    HW1 3123   3.249   0.011   1.946
 1031SOL    HW2 3124   3.124   0.014   2.050
 1032SOL     OW 3125   3.162   0.453   2.553
 1032SOL    HW1 3126   3.103   0.533   2.557
 1032SOL    HW2 3127   3.177   0.418   2.646
 1033SOL     OW 3128   3.455   0.221   2.744
 1033SOL    HW1 3129   3.371   0.220   2.798
 1033SOL    HW2 3130   3.457   0.304   2.688
 1034SOL     OW 3131   1.901   1.077   2.162
 1034SOL    HW1 3132   2.000   1.066   2.153
 1034SOL    HW2 3133   1.861   0.991   2.194
 1035SOL     OW 3134   2.737   1.646   2.199
 1035SOL    HW1 3135   2.660   1.611   2.145
 1035SOL    HW2 3136   2.705   1.717   2.261
 1036SOL     OW 3137   2.092   2.490   0.113
 1036SOL    HW1 3138   1.999   2.488   0.150
 1036SOL    HW2 3139   2.093   2.451   0.021
 1037SOL     OW 3140   2.087   2.137   0.996
 1037SOL    HW1 3141   2.122   2.120   1.088
 1037SOL    HW2 3142   1.999   2.092   0.984
 1038SOL     OW 3143   1.881   2.230   0.647
 1038SOL    HW1 3144   1.799   2.273   0.686
 1038SOL    HW2 3145   1.853   2.157   0.584
 1039SOL     OW 3146   2.431   3.137   1.165
 1039SOL    HW1 3147   2.338   3.130   1.128
 1039SOL    HW2 3148   2.442   3.226   1.209
 1040SOL     OW 3149   3.417   3.373   0.703
 1040SOL    HW1 3150   3.360   3.357   0.784
 1040SOL    HW2 3151   3.358   3.383   0.623
 1041SOL     OW 3152   2.997   2.565   0.717
 1041SOL    HW1 3153   3.054   2.643   0.692
 1041SOL    HW2 3154   2.937   2.591   0.793
 1042SOL     OW 3155   2.630   3.006   1.023
 1042SOL    HW1 3156   2.552   3.023   1.083
 1042SOL    HW2 3157   2.664   3.093   0.987
 1043SOL     OW 3158   2.712   2.660   1.823
 1043SOL    HW1 3159   2.708   2.736   1.888
 1043SOL    HW2 3160   2.734   2.696   1.732
 1044SOL     OW 3161   2.547   2.874   0.665
 1044SOL    HW1 3162   2.616   2.858   0.735
 1044SOL    HW2 3163   2.474   2.931   0.703
 1045SOL     OW 3164   2.548   3.023   1.803
 1045SOL    HW1 3165   2.608   3.102   1.817
 1045SOL    HW2 3166   2.462   3.054   1.762
 1046SOL     OW 3167   2.197   3.297   1.061
 1046SOL    HW1 3168   2.119   3.266   1.008
 1046SOL    HW2 3169   2.255   3.355   1.004
 1047SOL     OW 3170   3.322   3.367   1.339
 1047SOL    HW1 3171   3.346   3.461   1.365
 1047SOL    HW2 3172   3.306   3.313   1.421
 1048SOL     OW 3173   2.300   2.254   1.499
 1048SOL    HW1 3174   2.382   2.198   1.508
 1048SOL    HW2 3175   2.219   2.196   1.503
 1049SOL     OW 3176   2.989   3.203   1.690
 1049SOL    HW1 3177   3.036   3.203   1.778
 1049SOL    HW2 3178   2.941   3.116   1.679
 1050SOL     OW 3179   2.092   3.296   0.538
 1050SOL    HW1 3180   2.066   3.392   0.538
 1050SOL    HW2 3181   2.021   3.242   0.583
 1051SOL     OW 3182   2.102   2.953   0.886
 1051SOL    HW1 3183   2.116   2.869   0.938
 1051SOL    HW2 3184   2.047   3.017   0.941
 1052SOL     OW 3185   2.468   2.826   0.123
 1052SOL    HW1 3186   2.475   2.910   0.069
 1052SOL    HW2 3187   2.514   2.839   0.211
 1053SOL     OW 3188   1.984   2.505   0.563
 1053SOL    HW1 3189   1.939   2.417   0.580
 1053SOL    HW2 3190   1.983   2.559   0.647
 1054SOL     OW 3191   1.889   3.458   0.117
 1054SOL    HW1 3192   1.870   3.362   0.138
 1054SOL    HW2 3193   1.856   3.516   0.192
 1055SOL     OW 3194   3.551   2.784   0.612
 1055SOL    HW1 3195   3.646   2.755   0.620
 1055SOL    HW2 3196   3.543   2.849   0.537
 1056SOL     OW 3197   1.975   2.599   1.597
 1056SOL    HW1 3198   2.063   2.586   1.642
 1056SOL    HW2 3199   1.962   2.696   1.575
 1057SOL     OW 3200   2.475   3.227   0.726
 1057SOL    HW1 3201   2.426   3.140   0.735
 1057SOL    HW2 3202   2.452   3.270   0.639
 1058SOL     OW 3203   3.155   3.090   1.423
 1058SOL    HW1 3204   3.192   3.017   1.365
 1058SOL    HW2 3205   3.207   3.095   1.508
 1059SOL     OW 3206   2.671   1.866   0.502
 1059SOL    HW1 3207   2.711   1.957   0.493
 1059SOL    HW2 3208   2.571   1.874   0.508
 1060SOL     OW 3209   2.059   2.838   1.264
 1060SOL    HW1 3210   2.148   2.793   1.250
 1060SOL    HW2 3211   1.986   2.773   1.245
 1061SOL     OW 3212   2.179   2.113   1.801
 1061SOL    HW1 3213   2.250   2.184   1.807
 1061SOL    HW2 3214   2.091   2.152   1.829
 1062SOL     OW 3215   3.328   3.279   0.953
 1062SOL    HW1 3216   3.269   3.285   1.033
 1062SOL    HW2 3217   3.313   3.191   0.907
 1063SOL     OW 3218   2.460   2.591   0.270
 1063SOL    HW1 3219   2.484   2.660   0.202
 1063SOL    HW2 3220   2.382   2.624   0.324
 1064SOL     OW 3221   3.143   2.207   0.944
 1064SOL    HW1 3222   3.057   2.157   0.931
 1064SOL    HW2 3223   3.205   2.153   1.000
 1065SOL     OW 3224   2.669   2.467   1.465
 1065SOL    HW1 3225   2.622   2.464   1.554
 1065SOL    HW2 3226   2.618   2.412   1.399
 1066SOL     OW 3227   3.256   2.331   1.674
 1066SOL    HW1 3228   3.236   2.374   1.762
 1066SOL    HW2 3229   3.334   2.269   1.683
 1067SOL     OW 3230   2.835   2.752   1.572
 1067SOL    HW1 3231   2.881   2.668   1.543
 1067SOL    HW2 3232   2.779   2.786   1.497
 1068SOL     OW 3233   2.853   2.272   1.242
 1068SOL    HW1 3234   2.776   2.306   1.296
 1068SOL    HW2 3235   2.819   2.221   1.163
 1069SOL     OW 3236   2.903   2.563   0.429
 1069SOL    HW1 3237   2.929   2.559   0.525
 1069SOL    HW2 3238   2.818   2.512   0.415
 1070SOL     OW 3239   1.938   2.673   0.789
 1070SOL    HW1 3240   2.037   2.661   0.798
 1070SOL    HW2 3241   1.914   2.768   0.810
 1071SOL     OW 3242   2.727   2.210   0.195
 1071SOL    HW1 3243   2.786   2.273   0.146
 1071SOL    HW2 3244   2.746   2.116   0.166
 1072SOL     OW 3245   3.224   3.006   0.545
 1072SOL    HW1 3246   3.307   2.977   0.497
 1072SOL    HW2 3247   3.175   3.073   0.489
 1073SOL     OW 3248   2.412   2.058   0.885
 1073SOL    HW1 3249   2.407   2.053   0.985
 1073SOL    HW2 3250   2.414   2.154   0.856
 1074SOL     OW 3251   2.870   3.318   0.477
 1074SOL    HW1 3252   2.824   3.390   0.425
 1074SOL    HW2 3253   2.866   3.338   0.575
 1075SOL     OW 3254   3.089   3.412   1.506
 1075SOL    HW1 3255   3.095   3.335   1.570
 1075SOL    HW2 3256   3.037   3.386   1.426
 1076SOL     OW 3257   2.183   2.805   0.242
 1076SOL    HW1 3258   2.265   2.844   0.200
 1076SOL    HW2 3259   2.156   2.723   0.193
 1077SOL     OW 3260   2.323   3.128   1.727
 1077SOL    HW1 3261   2.273   3.129   1.641
 1077SOL    HW2 3262   2.260   3.110   1.803
 1078SOL     OW 3263   2.973   3.638   0.237
 1078SOL    HW1 3264   2.913   3.576   0.287
 1078SOL    HW2 3265   3.004   3.594   0.152
 1079SOL     OW 3266   2.064   2.147   1.498
 1079SOL    HW1 3267   1.984   2.207   1.485
 1079SOL    HW2 3268   2.054   2.098   1.584
 1080SOL     OW 3269   3.262   1.969   0.426
 1080SOL    HW1 3270   3.238   1.932   0.336
 1080SOL    HW2 3271   3.361   1.985   0.430
 1081SOL     OW 3272   2.244   2.562   0.480
 1081SOL    HW1 3273   2.289   2.472   0.477
 1081SOL    HW2 3274   2.150   2.551   0.513
 1082SOL     OW 3275   2.476   1.984   0.117
 1082SOL    HW1 3276   2.574   1.962   0.124
 1082SOL    HW2 3277   2.445   1.967   0.024
 1083SOL     OW 3278   2.643   2.126   1.749
 1083SOL    HW1 3279   2.710   2.065   1.792
 1083SOL    HW2 3280   2.570   2.145   1.814
 1084SOL     OW 3281   3.213   2.452   1.433
 1084SOL    HW1 3282   3.241   2.409   1.518
 1084SOL    HW2 3283   3.238   2.548   1.434
 1085SOL     OW 3284   2.665   3.264   0.924
 1085SOL    HW1 3285   2.755   3.278   0.882
 1085SOL    HW2 3286   2.594   3.266   0.853
 1086SOL     OW 3287   2.784   2.365   0.899
 1086SOL    HW1 3288   2.759   2.356   0.803
 1086SOL    HW2 3289   2.832   2.283   0.930
 1087SOL     OW 3290   2.401   1.926   0.512
 1087SOL    HW1 3291   2.320   1.927   0.570
 1087SOL    HW2 3292   2.404   2.009   0.457
 1088SOL     OW 3293   3.296   3.050   0.041
 1088SOL    HW1 3294   3.328   2.974   0.098
 1088SOL    HW2 3295   3.204   3.077   0.071
 1089SOL     OW 3296   2.159   1.897   0.171
 1089SOL    HW1 3297   2.208   1.981   0.150
 1089SOL    HW2 3298   2.221   1.832   0.216
 1090SOL     OW 3299   2.797   2.098   0.480
 1090SOL    HW1 3300   2.749   2.139   0.402
 1090SOL    HW2 3301   2.896   2.096   0.461
 1091SOL     OW 3302   2.938   2.545   1.464
 1091SOL    HW1 3303   2.858   2.484   1.467
 1091SOL    HW2 3304   3.019   2.492   1.440
 1092SOL     OW 3305   3.089   3.432   0.793
 1092SOL    HW1 3306   3.110   3.506   0.728
 1092SOL    HW2 3307   3.157   3.432   0.866
 1093SOL     OW 3308   2.321   3.014   0.741
 1093SOL    HW1 3309   2.250   2.987   0.806
 1093SOL    HW2 3310   2.295   2.986   0.648
 1094SOL     OW 3311   2.894   2.411   0.016
 1094SOL    HW1 3312   2.853   2.493  -0.023
 1094SOL    HW2 3313   2.958   2.437   0.089
 1095SOL     OW 3314   1.940   2.418   1.386
 1095SOL    HW1 3315   2.032   2.417   1.345
 1095SOL    HW2 3316   1.934   2.492   1.453
 1096SOL     OW 3317   2.423   2.084   1.147
 1096SOL    HW1 3318   2.461   2.000   1.184
 1096SOL    HW2 3319   2.335   2.103   1.191
 1097SOL     OW 3320   2.728   2.316   0.642
 1097SOL    HW1 3321   2.696   2.388   0.580
 1097SOL    HW2 3322   2.752   2.235   0.589
 1098SOL     OW 3323   2.879   1.901   0.753
 1098SOL    HW1 3324   2.807   1.906   0.684
 1098SOL    HW2 3325   2.855   1.832   0.822
 1099SOL     OW 3326   3.291   3.035   0.867
 1099SOL    HW1 3327   3.236   2.951   0.860
 1099SOL    HW2 3328   3.317   3.064   0.775
 1100SOL     OW 3329   2.350   3.247   0.174
 1100SOL    HW1 3330   2.263   3.232   0.221
 1100SOL    HW2 3331   2.333   3.273   0.079
 1101SOL     OW 3332   3.252   2.437   0.078
 1101SOL    HW1 3333   3.198   2.416   0.159
 1101SOL    HW2 3334   3.343   2.396   0.087
 1102SOL     OW 3335   2.389   2.118   0.328
 1102SOL    HW1 3336   2.416   2.059   0.253
 1102SOL    HW2 3337   2.389   2.213   0.297
 1103SOL     OW 3338   2.926   3.209   1.340
 1103SOL    HW1 3339   2.846   3.186   1.395
 1103SOL    HW2 3340   3.009   3.183   1.389
 1104SOL     OW 3341   2.973   3.057   1.100
 1104SOL    HW1 3342   2.933   3.101   1.181
 1104SOL    HW2 3343   2.932   3.094   1.017
 1105SOL     OW 3344   2.777   1.951   1.402
 1105SOL    HW1 3345   2.802   1.931   1.307
 1105SOL    HW2 3346   2.849   2.007   1.444
 1106SOL     OW 3347   2.842   2.978   1.719
 1106SOL    HW1 3348   2.743   2.984   1.729
 1106SOL    HW2 3349   2.865   2.898   1.663
 1107SOL     OW 3350   2.567   2.912   0.368
 1107SOL    HW1 3351   2.553   2.919   0.467
 1107SOL    HW2 3352   2.651   2.861   0.350
 1108SOL     OW 3353   2.272   2.675   1.251
 1108SOL    HW1 3354   2.358   2.687   1.301
 1108SOL    HW2 3355   2.230   2.588   1.278
 1109SOL     OW 3356   3.136   2.248   1.262
 1109SOL    HW1 3357   3.157   2.322   1.326
 1109SOL    HW2 3358   3.047   2.265   1.219
 1110SOL     OW 3359   2.229   2.962   0.501
 1110SOL    HW1 3360   2.222   3.045   0.445
 1110SOL    HW2 3361   2.233   2.882   0.441
 1111SOL     OW 3362   2.428   2.399   0.865
 1111SOL    HW1 3363   2.440   2.465   0.791
 1111SOL    HW2 3364   2.474   2.433   0.948
 1112SOL     OW 3365   3.114   3.210   0.388
 1112SOL    HW1 3366   3.164   3.287   0.428
 1112SOL    HW2 3367   3.019   3.212   0.420
 1113SOL     OW 3368   3.134   3.307   1.142
 1113SOL    HW1 3369   3.181   3.320   1.229
 1113SOL    HW2 3370   3.068   3.233   1.151
 1114SOL     OW 3371   2.216   3.372   1.329
 1114SOL    HW1 3372   2.195   3.328   1.242
 1114SOL    HW2 3373   2.313   3.398   1.332
 1115SOL     OW 3374   2.264   2.613   1.598
 1115SOL    HW1 3375   2.332   2.668   1.551
 1115SOL    HW2 3376   2.304   2.525   1.625
 1116SOL     OW 3377   2.875   1.967   1.770
 1116SOL    HW1 3378   2.881   2.052   1.718
 1116SOL    HW2 3379   2.907   1.891   1.713
 1117SOL     OW 3380   2.435   2.732   1.029
 1117SOL    HW1 3381   2.479   2.821   1.020
 1117SOL    HW2 3382   2.372   2.732   1.106
 1118SOL     OW 3383   3.222   2.724   1.045
 1118SOL    HW1 3384   3.147   2.724   0.979
 1118SOL    HW2 3385   3.259   2.632   1.054
 1119SOL     OW 3386   3.071   2.387   0.275
 1119SOL    HW1 3387   3.084   2.303   0.329
 1119SOL    HW2 3388   3.042   2.461   0.335
 1120SOL     OW 3389   2.169   2.075   1.231
 1120SOL    HW1 3390   2.146   2.112   1.321
 1120SOL    HW2 3391   2.139   1.980   1.225
 1121SOL     OW 3392   1.899   3.172   1.282
 1121SOL    HW1 3393   1.952   3.123   1.350
 1121SOL    HW2 3394   1.921   3.270   1.287
 1122SOL     OW 3395   2.594   2.496   1.064
 1122SOL    HW1 3396   2.653   2.470   0.988
 1122SOL    HW2 3397   2.566   2.592   1.053
 1123SOL     OW 3398   2.169   1.925   0.618
 1123SOL    HW1 3399   2.158   2.019   0.651
 1123SOL    HW2 3400   2.164   1.862   0.695
 1124SOL     OW 3401   3.484   2.229   0.374
 1124SOL    HW1 3402   3.486   2.153   0.438
 1124SOL    HW2 3403   3.436   2.306   0.414
 1125SOL     OW 3404   2.885   2.628   0.966
 1125SOL    HW1 3405   2.900   2.649   1.062
 1125SOL    HW2 3406   2.855   2.533   0.957
 1126SOL     OW 3407   2.212   2.760   1.804
 1126SOL    HW1 3408   2.288   2.804   1.852
 1126SOL    HW2 3409   2.247   2.713   1.722
 1127SOL     OW 3410   3.165   2.700   0.042
 1127SOL    HW1 3411   3.199   2.607   0.057
 1127SOL    HW2 3412   3.183   2.727  -0.053
 1128SOL     OW 3413   2.930   3.195   0.849
 1128SOL    HW1 3414   2.937   3.111   0.794
 1128SOL    HW2 3415   2.992   3.264   0.813
 1129SOL     OW 3416   2.181   2.672   0.949
 1129SOL    HW1 3417   2.274   2.708   0.954
 1129SOL    HW2 3418   2.175   2.587   1.001
 1130SOL     OW 3419   2.201   2.371   1.006
 1130SOL    HW1 3420   2.149   2.288   0.989
 1130SOL    HW2 3421   2.278   2.376   0.942
 1131SOL     OW 3422   3.000   2.242   1.678
 1131SOL    HW1 3423   2.955   2.305   1.742
 1131SOL    HW2 3424   3.093   2.273   1.661
 1132SOL     OW 3425   3.022   2.069   1.477
 1132SOL    HW1 3426   3.022   2.133   1.554
 1132SOL    HW2 3427   3.050   2.117   1.394
 1133SOL     OW 3428   1.870   3.188   0.200
 1133SOL    HW1 3429   1.777   3.209   0.169
 1133SOL    HW2 3430   1.880   3.089   0.213
 1134SOL     OW 3431   2.864   2.658   1.238
 1134SOL    HW1 3432   2.905   2.626   1.324
 1134SOL    HW2 3433   2.768   2.631   1.235
 1135SOL     OW 3434   1.902   2.406   1.114
 1135SOL    HW1 3435   1.987   2.373   1.073
 1135SOL    HW2 3436   1.915   2.421   1.212
 1136SOL     OW 3437   2.051   2.382   1.722
 1136SOL    HW1 3438   2.110   2.342   1.652
 1136SOL    HW2 3439   1.993   2.453   1.681
 1137SOL     OW 3440   3.231   2.812   1.660
 1137SOL    HW1 3441   3.270   2.901   1.680
 1137SOL    HW2 3442   3.241   2.792   1.563
 1138SOL     OW 3443   2.677   2.434   0.325
 1138SOL    HW1 3444   2.684   2.345   0.279
 1138SOL    HW2 3445   2.583   2.468   0.317
 1139SOL     OW 3446   2.114   3.426   1.744
 1139SOL    HW1 3447   2.084   3.483   1.820
 1139SOL    HW2 3448   2.107   3.329   1.770
 1140SOL     OW 3449   2.533   2.326   1.269
 1140SOL    HW1 3450   2.499   2.237   1.239
 1140SOL    HW2 3451   2.559   2.380   1.189
 1141SOL     OW 3452   2.335   2.362   0.191
 1141SOL    HW1 3453   2.396   2.442   0.195
 1141SOL    HW2 3454   2.240   2.393   0.198
 1142SOL     OW 3455   2.021   2.999   1.466
 1142SOL    HW1 3456   2.043   2.938   1.542
 1142SOL    HW2 3457   2.031   2.950   1.380
 1143SOL     OW 3458   3.209   2.921   1.234
 1143SOL    HW1 3459   3.233   2.858   1.160
 1143SOL    HW2 3460   3.119   2.961   1.216
 1144SOL     OW 3461   3.164   2.717   0.309
 1144SOL    HW1 3462   3.078   2.686   0.351
 1144SOL    HW2 3463   3.160   2.703   0.210
 1145SOL     OW 3464   1.945   3.120   1.022
 1145SOL    HW1 3465   1.940   3.119   1.122
 1145SOL    HW2 3466   1.862   3.079   0.984
 1146SOL     OW 3467   2.550   3.524   1.716
 1146SOL    HW1 3468   2.494   3.605   1.725
 1146SOL    HW2 3469   2.602   3.528   1.630
 1147SOL     OW 3470   2.765   1.948   0.133
 1147SOL    HW1 3471   2.816   1.949   0.047
 1147SOL    HW2 3472   2.821   1.906   0.204
 1148SOL     OW 3473   3.588   1.997   0.523
 1148SOL    HW1 3474   3.661   1.980   0.456
 1148SOL    HW2 3475   3.557   1.910   0.561
 1149SOL     OW 3476   3.142   2.789   0.672
 1149SOL    HW1 3477   3.202   2.708   0.674
 1149SOL    HW2 3478   3.182   2.858   0.612
 1150SOL     OW 3479   2.692   3.135   1.422
 1150SOL    HW1 3480   2.687   3.168   1.517
 1150SOL    HW2 3481   2.606   3.154   1.376
 1151SOL     OW 3482   2.125   2.188   0.720
 1151SOL    HW1 3483   2.046   2.239   0.686
 1151SOL    HW2 3484   2.116   2.173   0.818
 1152SOL     OW 3485   3.056   3.474   0.031
 1152SOL    HW1 3486   3.062   3.381   0.068
 1152SOL    HW2 3487   2.997   3.474  -0.049
 1153SOL     OW 3488   2.684   2.864   1.372
 1153SOL    HW1 3489   2.724   2.863   1.280
 1153SOL    HW2 3490   2.694   2.956   1.412
 1154SOL     OW 3491   2.778   2.772   0.291
 1154SOL    HW1 3492   2.841   2.810   0.223
 1154SOL    HW2 3493   2.818   2.689   0.330
 1155SOL     OW 3494   2.234   3.150   1.490
 1155SOL    HW1 3495   2.221   3.243   1.456
 1155SOL    HW2 3496   2.150   3.098   1.477
 1156SOL     OW 3497   2.901   2.960   0.696
 1156SOL    HW1 3498   2.831   2.913   0.750
 1156SOL    HW2 3499   2.960   2.892   0.653
 1157SOL     OW 3500   2.876   2.098   0.971
 1157SOL    HW1 3501   2.868   2.062   0.878
 1157SOL    HW2 3502   2.874   2.022   1.036
 1158SOL     OW 3503   2.117   3.210   0.290
 1158SOL    HW1 3504   2.021   3.211   0.263
 1158SOL    HW2 3505   2.129   3.263   0.374
 1159SOL     OW 3506   1.967   2.875   1.726
 1159SOL    HW1 3507   1.890   2.842   1.780
 1159SOL    HW2 3508   2.052   2.845   1.768
 1160SOL     OW 3509   2.534   2.065   1.489
 1160SOL    HW1 3510   2.624   2.049   1.449
 1160SOL    HW2 3511   2.542   2.070   1.588
 1161SOL     OW 3512   3.302   2.718   1.398
 1161SOL    HW1 3513   3.245   2.770   1.335
 1161SOL    HW2 3514   3.398   2.730   1.374
 1162SOL     OW 3515   1.934   2.028   0.318
 1162SOL    HW1 3516   1.917   2.111   0.264
 1162SOL    HW2 3517   2.024   1.991   0.296
 1163SOL     OW 3518   3.045   3.197   0.119
 1163SOL    HW1 3519   2.946   3.186   0.121
 1163SOL    HW2 3520   3.079   3.212   0.212
 1164SOL     OW 3521   2.475   2.704   1.431
 1164SOL    HW1 3522   2.531   2.785   1.414
 1164SOL    HW2 3523   2.534   2.624   1.434
 1165SOL     OW 3524   2.578   2.427   1.708
 1165SOL    HW1 3525   2.597   2.492   1.782
 1165SOL    HW2 3526   2.638   2.347   1.717
 1166SOL     OW 3527   3.312   3.082   1.633
 1166SOL    HW1 3528   3.303   3.072   1.732
 1166SOL    HW2 3529   3.408   3.075   1.607
 1167SOL     OW 3530   3.087   2.187   0.449
 1167SOL    HW1 3531   3.152   2.113   0.438
 1167SOL    HW2 3532   3.107   2.237   0.533
 1168SOL     OW 3533   2.456   2.607   0.652
 1168SOL    HW1 3534   2.506   2.692   0.633
 1168SOL    HW2 3535   2.368   2.609   0.604
 1169SOL     OW 3536   2.721   3.236   0.016
 1169SOL    HW1 3537   2.675   3.251   0.104
 1169SOL    HW2 3538   2.765   3.321  -0.014
 1170SOL     OW 3539   3.270   3.713   1.720
 1170SOL    HW1 3540   3.174   3.702   1.693
 1170SOL    HW2 3541   3.326   3.646   1.672
 1171SOL     OW 3542   2.721   2.818   0.861
 1171SOL    HW1 3543   2.775   2.749   0.909
 1171SOL    HW2 3544   2.689   2.887   0.927
 1172SOL     OW 3545   2.945   2.846   0.087
 1172SOL    HW1 3546   2.922   2.899   0.005
 1172SOL    HW2 3547   3.026   2.790   0.068
 1173SOL     OW 3548   2.083   3.176   1.844
 1173SOL    HW1 3549   2.018   3.103   1.823
 1173SOL    HW2 3550   2.087   3.190   1.942
 1174SOL     OW 3551   1.941   3.102   0.653
 1174SOL    HW1 3552   1.940   3.055   0.741
 1174SOL    HW2 3553   2.023   3.074   0.602
 1175SOL     OW 3554   2.534   3.253   1.624
 1175SOL    HW1 3555   2.456   3.203   1.662
 1175SOL    HW2 3556   2.531   3.348   1.655
 1176SOL     OW 3557   2.290   2.286   0.520
 1176SOL    HW1 3558   2.320   2.214   0.458
 1176SOL    HW2 3559   2.251   2.246   0.603
 1177SOL     OW 3560   2.179   2.409   1.280
 1177SOL    HW1 3561   2.217   2.350   1.352
 1177SOL    HW2 3562   2.219   2.383   1.192
 1178SOL     OW 3563   3.286   2.076   1.112
 1178SOL    HW1 3564   3.338   2.011   1.167
 1178SOL    HW2 3565   3.237   2.139   1.173
 1179SOL     OW 3566   2.863   1.896   1.154
 1179SOL    HW1 3567   2.800   1.824   1.123
 1179SOL    HW2 3568   2.956   1.860   1.154
 1180SOL     OW 3569   2.632   3.192   0.301
 1180SOL    HW1 3570   2.586   3.105   0.318
 1180SOL    HW2 3571   2.723   3.189   0.342
 1181SOL     OW 3572   2.480   3.429   1.284
 1181SOL    HW1 3573   2.475   3.511   1.341
 1181SOL    HW2 3574   2.569   3.426   1.239
 1182SOL     OW 3575   3.214   1.914   0.168
 1182SOL    HW1 3576   3.249   1.873   0.084
 1182SOL    HW2 3577   3.124   1.876   0.188
 1183SOL     OW 3578   3.162   2.315   0.691
 1183SOL    HW1 3579   3.103   2.395   0.695
 1183SOL    HW2 3580   3.177   2.280   0.784
 1184SOL     OW 3581   3.455   2.083   0.882
 1184SOL    HW1 3582   3.371   2.082   0.936
 1184SOL    HW2 3583   3.457   2.166   0.826
 1185SOL     OW 3584   1.901   2.939   0.300
 1185SOL    HW1 3585   2.000   2.928   0.291
 1185SOL    HW2 3586   1.861   2.853   0.332
 1186SOL     OW 3587   2.092   2.490   1.975
 1186SOL    HW1 3588   1.999   2.488   2.012
 1186SOL    HW2 3589   2.093   2.451   1.883
 1187SOL     OW 3590   2.087   2.137   2.858
 1187SOL    HW1 3591   2.122   2.120   2.950
 1187SOL    HW2 3592   1.999   2.092   2.846
 1188SOL     OW 3593   1.881   2.230   2.509
 1188SOL    HW1 3594   1.799   2.273   2.548
 1188SOL    HW2 3595   1.853   2.157   2.446
 1189SOL     OW 3596   2.431   3.137   3.027
 1189SOL    HW1 3597   2.338   3.130   2.990
 1189SOL    HW2 3598   2.442   3.226   3.071
 1190SOL     OW 3599   3.417   3.373   2.565
 1190SOL    HW1 3600   3.360   3.357   2.646
 1190SOL    HW2 3601   3.358   3.383   2.485
 1191SOL     OW 3602   2.997   2.565   2.579
 1191SOL    HW1 3603   3.054   2.643   2.554
 1191SOL    HW2 3604   2.937   2.591   2.655
 1192SOL     OW 3605   2.630   3.006   2.885
 1192SOL    HW1 3606   2.552   3.023   2.945
 1192SOL    HW2 3607   2.664   3.093   2.849
 1193SOL     OW 3608   2.547   2.874   2.527
 1193SOL    HW1 3609   2.616   2.858   2.597
 1193SOL    HW2 3610   2.474   2.931   2.565
 1194SOL     OW 3611   2.197   3.297   2.923
 1194SOL    HW1 3612   2.119   3.266   2.870
 1194SOL    HW2 3613   2.255   3.355   2.866
 1195SOL     OW 3614   3.322   3.367   3.201
 1195SOL    HW1 3615   3.346   3.461   3.227
 1195SOL    HW2 3616   3.306   3.313   3.283
 1196SOL     OW 3617   2.300   2.254   3.361
 1196SOL    HW1 3618   2.382   2.198   3.370
 1196SOL    HW2 3619   2.219   2.196   3.365
 1197SOL     OW 3620   2.092   3.296   2.400
 1197SOL    HW1 3621   2.066   3.392   2.400
 1197SOL    HW2 3622   2.021   3.242   2.445
 1198SOL     OW 3623   2.102   2.953   2.748
 1198SOL    HW1 3624   2.116   2.869   2.800
 1198SOL    HW2 3625   2.047   3.017   2.803
 1199SOL     OW 3626   2.468   2.826   1.985
 1199SOL    HW1 3627   2.475   2.910   1.931
 1199SOL    HW2 3628   2.514   2.839   2.073
 1200SOL     OW 3629   1.984   2.505   2.425
 1200SOL    HW1 3630   1.939   2.417   2.442
 1200SOL    HW2 3631   1.983   2.559   2.509
 1201SOL     OW 3632   1.889   3.458   1.979
 1201SOL    HW1 3633   1.870   3.362   2.000
 1201SOL    HW2 3634   1.856   3.516   2.054
 1202SOL     OW 3635   3.551   2.784   2.474
 1202SOL    HW1 3636   3.646   2.755   2.482
 1202SOL    HW2 3637   3.543   2.849   2.399
 1203SOL     OW 3638   2.475   3.227   2.588
 1203SOL    HW1 3639   2.426   3.140   2.597
 1203SOL    HW2 3640   2.452   3.270   2.501
 1204SOL     OW 3641   2.671   1.866   2.364
 1204SOL    HW1 3642   2.711   1.957   2.355
 1204SOL    HW2 3643   2.571   1.874   2.370
 1205SOL     OW 3644   2.059   2.838   3.126
 1205SOL    HW1 3645   2.148   2.793   3.112
 1205SOL    HW2 3646   1.986   2.773   3.107
 1206SOL     OW 3647   3.328   3.279   2.815
 1206SOL    HW1 3648   3.269   3.285   2.895
 1206SOL    HW2 3649   3.313   3.191   2.769
 1207SOL     OW 3650   2.460   2.591   2.132
 1207SOL    HW1 3651   2.484   2.660   2.064
 1207SOL    HW2 3652   2.382   2.624   2.186
 1208SOL     OW 3653   3.143   2.207   2.806
 1208SOL    HW1 3654   3.057   2.157   2.793
 1208SOL    HW2 3655   3.205   2.153   2.862
 1209SOL     OW 3656   2.669   2.467   3.327
 1209SOL    HW1 3657   2.622   2.464   3.416
 1209SOL    HW2 3658   2.618   2.412   3.261
 1210SOL     OW 3659   2.835   2.752   3.434
 1210SOL    HW1 3660   2.881   2.668   3.405
 1210SOL    HW2 3661   2.779   2.786   3.359
 1211SOL     OW 3662   2.853   2.272   3.104
 1211SOL    HW1 3663   2.776   2.306   3.158
 1211SOL    HW2 3664   2.819   2.221   3.025
 1212SOL     OW 3665   2.903   2.563   2.291
 1212SOL    HW1 3666   2.929   2.559   2.387
 1212SOL    HW2 3667   2.818   2.512   2.277
 1213SOL     OW 3668   1.938   2.673   2.651
 1213SOL    HW1 3669   2.037   2.661   2.660
 1213SOL    HW2 3670   1.914   2.768   2.672
 1214SOL     OW 3671   2.727   2.210   2.057
 1214SOL    HW1 3672   2.786   2.273   2.008
 1214SOL    HW2 3673   2.746   2.116   2.028
 1215SOL     OW 3674   3.224   3.006   2.407
 1215SOL    HW1 3675   3.307   2.977   2.359
 1215SOL    HW2 3676   3.175   3.073   2.351
 1216SOL     OW 3677   2.412   2.058   2.747
 1216SOL    HW1 3678   2.407   2.053   2.847
 1216SOL    HW2 3679   2.414   2.154   2.718
 1217SOL     OW 3680   2.870   3.318   2.339
 1217SOL    HW1 3681   2.824   3.390   2.287
 1217SOL    HW2 3682   2.866   3.338   2.437
 1218SOL     OW 3683   2.183   2.805   2.104
 1218SOL    HW1 3684   2.265   2.844   2.062
 1218SOL    HW2 3685   2.156   2.723   2.055
 1219SOL     OW 3686   2.973   3.638   2.099
 1219SOL    HW1 3687   2.913   3.576   2.149
 1219SOL    HW2 3688   3.004   3.594   2.014
 1220SOL     OW 3689   2.064   2.147   3.360
 1220SOL    HW1 3690   1.984   2.207   3.347
 1220SOL    HW2 3691   2.054   2.098   3.446
 1221SOL     OW 3692   3.262   1.969   2.288
 1221SOL    HW1 3693   3.238   1.932   2.198
 1221SOL    HW2 3694   3.361   1.985   2.292
 1222SOL     OW 3695   2.244   2.562   2.342
 1222SOL    HW1 3696   2.289   2.472   2.339
 1222SOL    HW2 3697   2.150   2.551   2.375
 1223SOL     OW 3698   2.476   1.984   1.979
 1223SOL    HW1 3699   2.574   1.962   1.986
 1223SOL    HW2 3700   2.445   1.967   1.886
 1224SOL     OW 3701   2.665   3.264   2.786
 1224SOL    HW1 3702   2.755   3.278   2.744
 1224SOL    HW2 3703   2.594   3.266   2.715
 1225SOL     OW 3704   2.784   2.365   2.761
 1225SOL    HW1 3705   2.759   2.356   2.665
 1225SOL    HW2 3706   2.832   2.283   2.792
 1226SOL     OW 3707   2.401   1.926   2.374
 1226SOL    HW1 3708   2.320   1.927   2.432
 1226SOL    HW2 3709   2.404   2.009   2.319
 1227SOL     OW 3710   3.296   3.050   1.903
 1227SOL    HW1 3711   3.328   2.974   1.960
 1227SOL    HW2 3712   3.204   3.077   1.933
 1228SOL     OW 3713   2.159   1.897   2.033
 1228SOL    HW1 3714   2.208   1.981   2.012
 1228SOL    HW2 3715   2.221   1.832   2.078
 1229SOL     OW 3716   2.797   2.098   2.342
 1229SOL    HW1 3717   2.749   2.139   2.264
 1229SOL    HW2 3718   2.896   2.096   2.323
 1230SOL     OW 3719   3.089   3.432   2.655
 1230SOL    HW1 3720   3.110   3.506   2.590
 1230SOL    HW2 3721   3.157   3.432   2.728
 1231SOL     OW 3722   2.321   3.014   2.603
 1231SOL    HW1 3723   2.250   2.987   2.668
 1231SOL    HW2 3724   2.295   2.986   2.510
 1232SOL     OW 3725   2.894   2.411   1.878
 1232SOL    HW1 3726   2.853   2.493   1.839
 1232SOL    HW2 3727   2.958   2.437   1.951
 1233SOL     OW 3728   1.940   2.418   3.248
 1233SOL    HW1 3729   2.032   2.417   3.207
 1233SOL    HW2 3730   1.934   2.492   3.315
 1234SOL     OW 3731   2.423   2.084   3.009
 1234SOL    HW1 3732   2.461   2.000   3.046
 1234SOL    HW2 3733   2.335   2.103   3.053
 1235SOL     OW 3734   2.728   2.316   2.504
 1235SOL    HW1 3735   2.696   2.388   2.442
 1235SOL    HW2 3736   2.752   2.235   2.451
 1236SOL     OW 3737   2.879   1.901   2.615
 1236SOL    HW1 3738   2.807   1.906   2.546
 1236SOL    HW2 3739   2.855   1.832   2.684
 1237SOL     OW 3740   3.291   3.035   2.729
 1237SOL    HW1 3741   3.236   2.951   2.722
 1237SOL    HW2 3742   3.317   3.064   2.637
 1238SOL     OW 3743   2.350   3.247   2.036
 1238SOL    HW1 3744   2.263   3.232   2.083
 1238SOL    HW2 3745   2.333   3.273   1.941
 1239SOL     OW 3746   3.252   2.437   1.940
 1239SOL    HW1 3747   3.198   2.416   2.021
 1239SOL    HW2 3748   3.343   2.396   1.949
 1240SOL     OW 3749   2.389   2.118   2.190
 1240SOL    HW1 3750   2.416   2.059   2.115
 1240SOL    HW2 3751   2.389   2.213   2.159
 1241SOL     OW 3752   2.926   3.209   3.202
 1241SOL    HW1 3753   2.846   3.186   3.257
 1241SOL    HW2 3754   3.009   3.183   3.251
 1242SOL     OW 3755   2.973   3.057   2.962
 1242SOL    HW1 3756   2.933   3.101   3.043
 1242SOL    HW2 3757   2.932   3.094   2.879
 1243SOL     OW 3758   2.777   1.951   3.264
 1243SOL    HW1 3759   2.802   1.931   3.169
 1243SOL    HW2 3760   2.849   2.007   3.306
 1244SOL     OW 3761   2.567   2.912   2.230
 1244SOL    HW1 3762   2.553   2.919   2.329
 1244SOL    HW2 3763   2.651   2.861   2.212
 1245SOL     OW 3764   2.272   2.675   3.113
 1245SOL    HW1 3765   2.358   2.687   3.163
 1245SOL    HW2 3766   2.230   2.588   3.140
 1246SOL     OW 3767   3.136   2.248   3.124
 1246SOL    HW1 3768   3.157   2.322   3.188
 1246SOL    HW2 3769   3.047   2.265   3.081
 1247SOL     OW 3770   2.229   2.962   2.363
 1247SOL    HW1 3771   2.222   3.045   2.307
 1247SOL    HW2 3772   2.233   2.882   2.303
 1248SOL     OW 3773   2.428   2.399   2.727
 1248SOL    HW1 3774   2.440   2.465   2.653
 1248SOL    HW2 3775   2.474   2.433   2.810
 1249SOL     OW 3776   3.114   3.210   2.250
 1249SOL    HW1 3777   3.164   3.287   2.290
 1249SOL    HW2 3778   3.019   3.212   2.282
 1250SOL     OW 3779   3.134   3.307   3.004
 1250SOL    HW1 3780   3.181   3.320   3.091
 1250SOL    HW2 3781   3.068   3.233   3.013
 1251SOL     OW 3782   2.216   3.372   3.191
 1251SOL    HW1 3783   2.195   3.328   3.104
 1251SOL    HW2 3784   2.313   3.398   3.194
 1252SOL     OW 3785   2.264   2.613   3.460
 1252SOL    HW1 3786   2.332   2.668   3.413
 1252SOL    HW2 3787   2.304   2.525   3.487
 1253SOL     OW 3788   3.449   2.641   3.532
 1253SOL    HW1 3789   3.357   2.679   3.527
 1253SOL    HW2 3790   3.509   2.688   3.467
 1254SOL     OW 3791   2.435   2.732   2.891
 1254SOL    HW1 3792   2.479   2.821   2.882
 1254SOL    HW2 3793   2.372   2.732   2.968
 1255SOL     OW 3794   3.222   2.724   2.907
 1255SOL    HW1 3795   3.147   2.724   2.841
 1255SOL    HW2 3796   3.259   2.632   2.916
 1256SOL     OW 3797   3.071   2.387   2.137
 1256SOL    HW1 3798   3.084   2.303   2.191
 1256SOL    HW2 3799   3.042   2.461   2.197
 1257SOL     OW 3800   2.169   2.075   3.093
 1257SOL    HW1 3801   2.146   2.112   3.183
 1257SOL    HW2 3802   2.139   1.980   3.087
 1258SOL     OW 3803   1.899   3.172   3.144
 1258SOL    HW1 3804   1.952   3.123   3.212
 1258SOL    HW2 3805   1.921   3.270   3.149
 1259SOL     OW 3806   2.594   2.496   2.926
 1259SOL    HW1 3807   2.653   2.470   2.850
 1259SOL    HW2 3808   2.566   2.592   2.915
 1260SOL     OW 3809   2.169   1.925   2.480
 1260SOL    HW1 3810   2.158   2.019   2.513
 1260SOL    HW2 3811   2.164   1.862   2.557
 1261SOL     OW 3812   3.484   2.229   2.236
 1261SOL    HW1 3813   3.486   2.153   2.300
 1261SOL    HW2 3814   3.436   2.306   2.276
 1262SOL     OW 3815   2.885   2.628   2.828
 1262SOL    HW1 3816   2.900   2.649   2.924
 1262SOL    HW2 3817   2.855   2.533   2.819
 1263SOL     OW 3818   3.165   2.700   1.904
 1263SOL    HW1 3819   3.199   2.607   1.919
 1263SOL    HW2 3820   3.183   2.727   1.809
 1264SOL     OW 3821   2.930   3.195   2.711
 1264SOL    HW1 3822   2.937   3.111   2.656
 1264SOL    HW2 3823   2.992   3.264   2.675
 1265SOL     OW 3824   2.181   2.672   2.811
 1265SOL    HW1 3825   2.274   2.708   2.816
 1265SOL    HW2 3826   2.175   2.587   2.863
 1266SOL     OW 3827   2.201   2.371   2.868
 1266SOL    HW1 3828   2.149   2.288   2.851
 1266SOL    HW2 3829   2.278   2.376   2.804
 1267SOL     OW 3830   3.000   2.242   3.540
 1267SOL    HW1 3831   2.955   2.305   3.604
 1267SOL    HW2 3832   3.093   2.273   3.523
 1268SOL     OW 3833   3.022   2.069   3.339
 1268SOL    HW1 3834   3.022   2.133   3.416
 1268SOL    HW2 3835   3.050   2.117   3.256
 1269SOL     OW 3836   1.870   3.188   2.062
 1269SOL    HW1 3837   1.777   3.209   2.031
 1269SOL    HW2 3838   1.880   3.089   2.075
 1270SOL     OW 3839   2.864   2.658   3.100
 1270SOL    HW1 3840   2.905   2.626   3.186
 1270SOL    HW2 3841   2.768   2.631   3.097
 1271SOL     OW 3842   1.902   2.406   2.976
 1271SOL    HW1 3843   1.987   2.373   2.935
 1271SOL    HW2 3844   1.915   2.421   3.074
 1272SOL     OW 3845   2.677   2.434   2.187
 1272SOL    HW1 3846   2.684   2.345   2.141
 1272SOL    HW2 3847   2.583   2.468   2.179
 1273SOL     OW 3848   2.533   2.326   3.131
 1273SOL    HW1 3849   2.499   2.237   3.101
 1273SOL    HW2 3850   2.559   2.380   3.051
 1274SOL     OW 3851   2.335   2.362   2.053
 1274SOL    HW1 3852   2.396   2.442   2.057
 1274SOL    HW2 3853   2.240   2.393   2.060
 1275SOL     OW 3854   2.021   2.999   3.328
 1275SOL    HW1 3855   2.043   2.938   3.404
 1275SOL    HW2 3856   2.031   2.950   3.242
 1276SOL     OW 3857   3.209   2.921   3.096
 1276SOL    HW1 3858   3.233   2.858   3.022
 1276SOL    HW2 3859   3.119   2.961   3.078
 1277SOL     OW 3860   3.164   2.717   2.171
 1277SOL    HW1 3861   3.078   2.686   2.213
 1277SOL    HW2 3862   3.160   2.703   2.072
 1278SOL     OW 3863   1.945   3.120   2.884
 1278SOL    HW1 3864   1.940   3.119   2.984
 1278SOL    HW2 3865   1.862   3.079   2.846
 1279SOL     OW 3866   3.588   1.997   2.385
 1279SOL    HW1 3867   3.661   1.980   2.318
 1279SOL    HW2 3868   3.557   1.910   2.423
 1280SOL     OW 3869   3.142   2.789   2.534
 1280SOL    HW1 3870   3.202   2.708   2.536
 1280SOL    HW2 3871   3.182   2.858   2.474
 1281SOL     OW 3872   2.125   2.188   2.582
 1281SOL    HW1 3873   2.046   2.239   2.548
 1281SOL    HW2 3874   2.116   2.173   2.680
 1282SOL     OW 3875   2.684   2.864   3.234
 1282SOL    HW1 3876   2.724   2.863   3.142
 1282SOL    HW2 3877   2.694   2.956   3.274
 1283SOL     OW 3878   2.778   2.772   2.153
 1283SOL    HW1 3879   2.841   2.810   2.085
 1283SOL    HW2 3880   2.818   2.689   2.192
 1284SOL     OW 3881   2.234   3.150   3.352
 1284SOL    HW1 3882   2.221   3.243   3.318
 1284SOL    HW2 3883   2.150   3.098   3.339
 1285SOL     OW 3884   2.901   2.960   2.558
 1285SOL    HW1 3885   2.831   2.913   2.612
 1285SOL    HW2 3886   2.960   2.892   2.515
 1286SOL     OW 3887   2.876   2.098   2.833
 1286SOL    HW1 3888   2.868   2.062   2.740
 1286SOL    HW2 3889   2.874   2.022   2.898
 1287SOL     OW 3890   2.117   3.210   2.152
 1287SOL    HW1 3891   2.021   3.211   2.125
 1287SOL    HW2 3892   2.129   3.263   2.236
 1288SOL     OW 3893   2.534   2.065   3.351
 1288SOL    HW1 3894   2.624   2.049   3.311
 1288SOL    HW2 3895   2.542   2.070   3.450
 1289SOL     OW 3896   1.937   2.207   1.895
 1289SOL    HW1 3897   1.845   2.179   1.866
 1289SOL    HW2 3898   1.968   2.284   1.839
 1290SOL     OW 3899   3.302   2.718   3.260
 1290SOL    HW1 3900   3.245   2.770   3.197
 1290SOL    HW2 3901   3.398   2.730   3.236
 1291SOL     OW 3902   1.934   2.028   2.180
 1291SOL    HW1 3903   1.917   2.111   2.126
 1291SOL    HW2 3904   2.024   1.991   2.158
 1292SOL     OW 3905   3.045   3.197   1.981
 1292SOL    HW1 3906   2.946   3.186   1.983
 1292SOL    HW2 3907   3.079   3.212   2.074
 1293SOL     OW 3908   2.475   2.704   3.293
 1293SOL    HW1 3909   2.531   2.785   3.276
 1293SOL    HW2 3910   2.534   2.624   3.296
 1294SOL     OW 3911   3.087   2.187   2.311
 1294SOL    HW1 3912   3.152   2.113   2.300
 1294SOL    HW2 3913   3.107   2.237   2.395
 1295SOL     OW 3914   2.456   2.607   2.514
 1295SOL    HW1 3915   2.506   2.692   2.495
 1295SOL    HW2 3916   2.368   2.609   2.466
 1296SOL     OW 3917   2.721   3.236   1.878
 1296SOL    HW1 3918   2.675   3.251   1.966
 1296SOL    HW2 3919   2.765   3.321   1.848
 1297SOL     OW 3920   3.270   3.713   3.582
 1297SOL    HW1 3921   3.174   3.702   3.555
 1297SOL    HW2 3922   3.326   3.646   3.534
 1298SOL     OW 3923   2.721   2.818   2.723
 1298SOL    HW1 3924   2.775   2.749   2.771
 1298SOL    HW2 3925   2.689   2.887   2.789
 1299SOL     OW 3926   2.945   2.846   1.949
 1299SOL    HW1 3927   2.922   2.899   1.867
 1299SOL    HW2 3928   3.026   2.790   1.930
 1300SOL     OW 3929   1.941   3.102   2.515
 1300SOL    HW1 3930   1.940   3.055   2.603
 1300SOL    HW2 3931   2.023   3.074   2.464
 1301SOL     OW 3932   2.290   2.286   2.382
 1301SOL    HW1 3933   2.320   2.214   2.320
 1301SOL    HW2 3934   2.251   2.246   2.465
 1302SOL     OW 3935   2.179   2.409   3.142
 1302SOL    HW1 3936   2.217   2.350   3.214
 1302SOL    HW2 3937   2.219   2.383   3.054
 1303SOL     OW 3938   3.286   2.076   2.974
 1303SOL    HW1 3939   3.338   2.011   3.029
 1303SOL    HW2 3940   3.237   2.139   3.035
 1304SOL     OW 3941   2.863   1.896   3.016
 1304SOL    HW1 3942   2.800   1.824   2.985
 1304SOL    HW2 3943   2.956   1.860   3.016
 1305SOL     OW 3944   2.632   3.192   2.163
 1305SOL    HW1 3945   2.586   3.105   2.180
 1305SOL    HW2 3946   2.723   3.189   2.204
 1306SOL     OW 3947   2.480   3.429   3.146
 1306SOL    HW1 3948   2.475   3.511   3.203
 1306SOL    HW2 3949   2.569   3.426   3.101
 1307SOL     OW 3950   3.214   1.914   2.030
 1307SOL    HW1 3951   3.249   1.873   1.946
 1307SOL    HW2 3952   3.124   1.876   2.050
 1308SOL     OW 3953   3.162   2.315   2.553
 1308SOL    HW1 3954   3.103   2.395   2.557
 1308SOL    HW2 3955   3.177   2.280   2.646
 1309SOL     OW 3956   3.455   2.083   2.744
 1309SOL    HW1 3957   3.371   2.082   2.798
 1309SOL    HW2 3958   3.457   2.166   2.688
 1310SOL     OW 3959   1.901   2.939   2.162
 1310SOL    HW1 3960   2.000   2.928   2.153
 1310SOL    HW2 3961   1.861   2.853   2.194
   3.44741   3.44741   3.44741
