4_bromophenol
    13
   0.8180000  -0.4390000   0.5640000   2.9370000  -1.5970000   0.6200000
   0.7990000  -0.4060000   1.9590000   2.9180000  -1.5650000   2.0140000
   1.8870000  -1.0340000  -0.1050000   1.8500000  -0.9690000   2.6840000
   1.9050000  -1.0650000  -1.4660000   1.8250000  -0.9240000   4.5730000
  -0.0030000   0.0030000   0.0050000   3.7720000  -2.0630000   0.1040000
  -0.0410000   0.0620000   2.4650000   3.7460000  -2.0060000   2.5640000
   2.6760000  -1.5840000  -1.7580000
