; mobley_1733799_GMX_OPLS.top created by acpype (v: 2023.10.27) on Wed May 20 23:44:56 2026

; Include forcefield parameters
#include "ffoplsaa.itp"

; Include mobley_1733799_GMX.itp topology
#include "mobley_1733799_GMX.itp"

; Ligand position restraints
#ifdef POSRES_LIG
#include "posre_mobley_1733799.itp"
#endif

[ system ]
 mobley_1733799

[ molecules ]
; Compound        nmols
 mobley_1733799   1     
