mobley_3761215_GMX.gro created by acpype (v: 2023.10.27) on Wed May 20 23:46:05 2026
 8
    1  MOL   C1    1   0.102   0.028  -0.027
    1  MOL   C2    2   0.129   0.176   0.000
    1  MOL  CL1    3   0.016   0.276  -0.096
    1  MOL  CL2    4   0.105   0.210   0.174
    1  MOL  CL3    5   0.296   0.216  -0.045
    1  MOL   H1    6   0.170  -0.036   0.030
    1  MOL   H2    7   0.000  -0.000   0.000
    1  MOL   H3    8   0.116   0.004  -0.133
    5.93000     6.23000     6.13600
