mobley_6235784_GMX.gro created by acpype (v: 2023.10.27) on Wed May 20 23:45:14 2026
   14
    1MOL     C1    1   2.245   2.110   2.369
    1MOL     C2    2   2.317   2.444   2.182
    1MOL     C3    3   2.313   2.211   2.277
    1MOL     C4    4   2.243   2.347   2.274
    1MOL    CL1    5   2.234   2.418   2.437
    1MOL     H1    6   2.304   2.018   2.374
    1MOL     H2    7   2.145   2.084   2.333
    1MOL     H3    8   2.236   2.150   2.471
    1MOL     H4    9   2.316   2.409   2.078
    1MOL     H5   10   2.270   2.543   2.184
    1MOL     H6   11   2.422   2.457   2.213
    1MOL     H7   12   2.320   2.168   2.176
    1MOL     H8   13   2.416   2.224   2.313
    1MOL     H9   14   2.140   2.335   2.238
   4.55936   4.55936   4.55936
