; mobley_7599023_GMX_OPLS.top created by acpype (v: 2023.10.27) on Wed May 20 23:51:51 2026

; Include forcefield parameters
#include "ffoplsaa.itp"

; Include mobley_7599023_GMX.itp topology
#include "mobley_7599023_GMX.itp"

; Ligand position restraints
#ifdef POSRES_LIG
#include "posre_mobley_7599023.itp"
#endif

[ system ]
 mobley_7599023

[ molecules ]
; Compound        nmols
 mobley_7599023   1     
