bromobenzene
    12
   1.8850000  -1.0380000  -0.1090000   0.8180000  -0.4410000   0.5630000
   2.9350000  -1.6040000   0.6140000   0.8010000  -0.4100000   1.9570000
   2.9180000  -1.5730000   2.0080000   1.8510000  -0.9770000   2.6800000
   1.8280000  -0.9350000   4.5690000   1.8980000  -1.0610000  -1.1950000
   0.0000000   0.0000000  -0.0000000   3.7660000  -2.0680000   0.0910000
  -0.0380000   0.0590000   2.4650000   3.7440000  -2.0180000   2.5570000
