mobley_1733799_GMX.gro created by acpype (v: 2023.10.27) on Wed May 20 23:44:56 2026
   13
    1MOL     C1    1   2.210   2.382   2.268
    1MOL     C2    2   2.422   2.266   2.274
    1MOL     C3    3   2.208   2.385   2.408
    1MOL     C4    4   2.420   2.269   2.413
    1MOL     C5    5   2.317   2.323   2.201
    1MOL     C6    6   2.313   2.329   2.480
    1MOL     O1    7   2.319   2.320   2.065
    1MOL    BR1    8   2.310   2.334   2.669
    1MOL     H1    9   2.128   2.426   2.213
    1MOL     H2   10   2.505   2.220   2.222
    1MOL     H3   11   2.124   2.432   2.458
    1MOL     H4   12   2.503   2.225   2.468
    1MOL     H5   13   2.396   2.268   2.036
   4.64222   4.64222   4.64222
