mobley_8467917_GMX.gro created by acpype (v: 2023.10.27) on Wed May 20 23:42:17 2026
   21
    1MOL     C1    1   2.421   2.631   2.271
    1MOL     C2    2   2.383   2.516   2.327
    1MOL     C3    3   2.326   2.732   2.215
    1MOL     C4    4   2.534   2.264   2.738
    1MOL     C5    5   2.479   2.414   2.383
    1MOL     C6    6   2.557   2.286   2.590
    1MOL     C7    7   2.458   2.388   2.532
    1MOL     H1    8   2.527   2.655   2.264
    1MOL     H2    9   2.277   2.491   2.334
    1MOL     H3   10   2.346   2.747   2.109
    1MOL     H4   11   2.338   2.827   2.267
    1MOL     H5   12   2.221   2.700   2.226
    1MOL     H6   13   2.545   2.357   2.794
    1MOL     H7   14   2.433   2.225   2.757
    1MOL     H8   15   2.606   2.191   2.778
    1MOL     H9   16   2.464   2.320   2.328
    1MOL    H10   17   2.583   2.445   2.365
    1MOL    H11   18   2.547   2.191   2.537
    1MOL    H12   19   2.660   2.321   2.575
    1MOL    H13   20   2.356   2.350   2.547
    1MOL    H14   21   2.465   2.482   2.588
   4.90791   4.90791   4.90791
