mobley_8467917_GMX.gro created by acpype (v: 2023.10.27) on Wed May 20 23:42:17 2026
11568
    1MOL     C1    1   2.421   2.631   2.271
    1MOL     C2    2   2.383   2.516   2.327
    1MOL     C3    3   2.326   2.732   2.215
    1MOL     C4    4   2.534   2.264   2.738
    1MOL     C5    5   2.479   2.414   2.383
    1MOL     C6    6   2.557   2.286   2.590
    1MOL     C7    7   2.458   2.388   2.532
    1MOL     H1    8   2.527   2.655   2.264
    1MOL     H2    9   2.277   2.491   2.334
    1MOL     H3   10   2.346   2.747   2.109
    1MOL     H4   11   2.338   2.827   2.267
    1MOL     H5   12   2.221   2.700   2.226
    1MOL     H6   13   2.545   2.357   2.794
    1MOL     H7   14   2.433   2.225   2.757
    1MOL     H8   15   2.606   2.191   2.778
    1MOL     H9   16   2.464   2.320   2.328
    1MOL    H10   17   2.583   2.445   2.365
    1MOL    H11   18   2.547   2.191   2.537
    1MOL    H12   19   2.660   2.321   2.575
    1MOL    H13   20   2.356   2.350   2.547
    1MOL    H14   21   2.465   2.482   2.588
    2SOL     OW   22   0.230   0.628   0.113
    2SOL    HW1   23   0.137   0.626   0.150
    2SOL    HW2   24   0.231   0.589   0.021
    3SOL     OW   25   0.225   0.275   0.996
    3SOL    HW1   26   0.260   0.258   1.088
    3SOL    HW2   27   0.137   0.230   0.984
    4SOL     OW   28   0.019   0.368   0.647
    4SOL    HW1   29  -0.063   0.411   0.686
    4SOL    HW2   30  -0.009   0.295   0.584
    5SOL     OW   31   0.569   1.275   1.165
    5SOL    HW1   32   0.476   1.268   1.128
    5SOL    HW2   33   0.580   1.364   1.209
    6SOL     OW   34   1.555   1.511   0.703
    6SOL    HW1   35   1.498   1.495   0.784
    6SOL    HW2   36   1.496   1.521   0.623
    7SOL     OW   37   1.135   0.703   0.717
    7SOL    HW1   38   1.192   0.781   0.692
    7SOL    HW2   39   1.075   0.729   0.793
    8SOL     OW   40   1.755   0.607   0.231
    8SOL    HW1   41   1.743   0.594   0.132
    8SOL    HW2   42   1.725   0.526   0.280
    9SOL     OW   43   0.768   1.144   1.023
    9SOL    HW1   44   0.690   1.161   1.083
    9SOL    HW2   45   0.802   1.231   0.987
   10SOL     OW   46   0.850   0.798   1.823
   10SOL    HW1   47   0.846   0.874   1.888
   10SOL    HW2   48   0.872   0.834   1.732
   11SOL     OW   49   0.685   1.012   0.665
   11SOL    HW1   50   0.754   0.996   0.735
   11SOL    HW2   51   0.612   1.069   0.703
   12SOL     OW   52   0.686   1.161   1.803
   12SOL    HW1   53   0.746   1.240   1.817
   12SOL    HW2   54   0.600   1.192   1.762
   13SOL     OW   55   0.335   1.435   1.061
   13SOL    HW1   56   0.257   1.404   1.008
   13SOL    HW2   57   0.393   1.493   1.004
   14SOL     OW   58   1.460   1.505   1.339
   14SOL    HW1   59   1.484   1.599   1.365
   14SOL    HW2   60   1.444   1.451   1.421
   15SOL     OW   61   0.438   0.392   1.499
   15SOL    HW1   62   0.520   0.336   1.508
   15SOL    HW2   63   0.357   0.334   1.503
   16SOL     OW   64   1.603   0.447   0.737
   16SOL    HW1   65   1.529   0.493   0.687
   16SOL    HW2   66   1.654   0.515   0.790
   17SOL     OW   67   0.231   1.713   0.483
   17SOL    HW1   68   0.265   1.790   0.537
   17SOL    HW2   69   0.275   1.713   0.393
   18SOL     OW   70   1.127   1.341   1.690
   18SOL    HW1   71   1.174   1.341   1.778
   18SOL    HW2   72   1.079   1.254   1.679
   19SOL     OW   73   0.230   1.434   0.538
   19SOL    HW1   74   0.204   1.530   0.538
   19SOL    HW2   75   0.159   1.380   0.583
   20SOL     OW   76   0.240   1.091   0.886
   20SOL    HW1   77   0.254   1.007   0.938
   20SOL    HW2   78   0.185   1.155   0.941
   21SOL     OW   79   0.620   1.786   1.439
   21SOL    HW1   80   0.528   1.769   1.474
   21SOL    HW2   81   0.648   1.878   1.465
   22SOL     OW   82   0.606   0.964   0.123
   22SOL    HW1   83   0.613   1.048   0.069
   22SOL    HW2   84   0.652   0.977   0.211
   23SOL     OW   85   1.594   0.114   1.480
   23SOL    HW1   86   1.576   0.181   1.408
   23SOL    HW2   87   1.591   0.160   1.569
   24SOL     OW   88   0.122   0.643   0.563
   24SOL    HW1   89   0.077   0.555   0.580
   24SOL    HW2   90   0.121   0.697   0.647
   25SOL     OW   91   1.842   1.767   0.359
   25SOL    HW1   92   1.896   1.738   0.439
   25SOL    HW2   93   1.872   1.857   0.330
   26SOL     OW   94   0.027   1.596   0.117
   26SOL    HW1   95   0.008   1.500   0.138
   26SOL    HW2   96  -0.006   1.654   0.192
   27SOL     OW   97   1.689   0.922   0.612
   27SOL    HW1   98   1.784   0.893   0.620
   27SOL    HW2   99   1.681   0.987   0.537
   28SOL     OW  100   1.641   1.108   0.432
   28SOL    HW1  101   1.727   1.110   0.380
   28SOL    HW2  102   1.655   1.155   0.520
   29SOL     OW  103   0.113   0.737   1.597
   29SOL    HW1  104   0.201   0.724   1.642
   29SOL    HW2  105   0.100   0.834   1.575
   30SOL     OW  106   0.613   1.365   0.726
   30SOL    HW1  107   0.564   1.278   0.735
   30SOL    HW2  108   0.590   1.408   0.639
   31SOL     OW  109   1.293   1.228   1.423
   31SOL    HW1  110   1.330   1.155   1.365
   31SOL    HW2  111   1.345   1.233   1.508
   32SOL     OW  112   0.809   0.004   0.502
   32SOL    HW1  113   0.849   0.095   0.493
   32SOL    HW2  114   0.709   0.012   0.508
   33SOL     OW  115   0.197   0.976   1.264
   33SOL    HW1  116   0.286   0.931   1.250
   33SOL    HW2  117   0.124   0.911   1.245
   34SOL     OW  118   1.525   0.999   0.190
   34SOL    HW1  119   1.462   0.923   0.203
   34SOL    HW2  120   1.573   1.017   0.276
   35SOL     OW  121   1.187   1.792   1.616
   35SOL    HW1  122   1.211   1.852   1.540
   35SOL    HW2  123   1.194   1.697   1.586
   36SOL     OW  124   0.317   0.251   1.801
   36SOL    HW1  125   0.388   0.322   1.807
   36SOL    HW2  126   0.229   0.290   1.829
   37SOL     OW  127   1.466   1.417   0.953
   37SOL    HW1  128   1.407   1.423   1.033
   37SOL    HW2  129   1.451   1.329   0.907
   38SOL     OW  130   1.667   1.714   0.572
   38SOL    HW1  131   1.626   1.691   0.484
   38SOL    HW2  132   1.649   1.640   0.637
   39SOL     OW  133   0.598   0.729   0.270
   39SOL    HW1  134   0.622   0.798   0.202
   39SOL    HW2  135   0.520   0.762   0.324
   40SOL     OW  136   1.281   0.345   0.944
   40SOL    HW1  137   1.195   0.295   0.931
   40SOL    HW2  138   1.343   0.291   1.000
   41SOL     OW  139   1.576   1.662   0.307
   41SOL    HW1  140   1.665   1.708   0.310
   41SOL    HW2  141   1.555   1.638   0.212
   42SOL     OW  142   0.807   0.605   1.465
   42SOL    HW1  143   0.760   0.602   1.554
   42SOL    HW2  144   0.756   0.550   1.399
   43SOL     OW  145   1.394   0.469   1.674
   43SOL    HW1  146   1.374   0.512   1.762
   43SOL    HW2  147   1.472   0.407   1.683
   44SOL     OW  148   0.973   0.890   1.572
   44SOL    HW1  149   1.019   0.806   1.543
   44SOL    HW2  150   0.917   0.924   1.497
   45SOL     OW  151   0.991   0.410   1.242
   45SOL    HW1  152   0.914   0.444   1.296
   45SOL    HW2  153   0.957   0.359   1.163
   46SOL     OW  154   1.041   0.701   0.429
   46SOL    HW1  155   1.067   0.697   0.525
   46SOL    HW2  156   0.956   0.650   0.415
   47SOL     OW  157   0.076   0.811   0.789
   47SOL    HW1  158   0.175   0.799   0.798
   47SOL    HW2  159   0.052   0.906   0.810
   48SOL     OW  160   0.130   1.821   1.571
   48SOL    HW1  161   0.120   1.806   1.670
   48SOL    HW2  162   0.044   1.857   1.535
   49SOL     OW  163   0.865   0.348   0.195
   49SOL    HW1  164   0.924   0.411   0.146
   49SOL    HW2  165   0.884   0.254   0.166
   50SOL     OW  166   1.719   0.585   1.831
   50SOL    HW1  167   1.693   0.674   1.795
   50SOL    HW2  168   1.717   0.517   1.758
   51SOL     OW  169   1.362   1.144   0.545
   51SOL    HW1  170   1.445   1.115   0.497
   51SOL    HW2  171   1.313   1.211   0.489
   52SOL     OW  172   0.550   0.196   0.885
   52SOL    HW1  173   0.545   0.191   0.985
   52SOL    HW2  174   0.552   0.292   0.856
   53SOL     OW  175   1.008   1.456   0.477
   53SOL    HW1  176   0.962   1.528   0.425
   53SOL    HW2  177   1.004   1.476   0.575
   54SOL     OW  178   0.351   1.801   0.853
   54SOL    HW1  179   0.401   1.715   0.859
   54SOL    HW2  180   0.416   1.878   0.850
   55SOL     OW  181   1.795   1.066   0.873
   55SOL    HW1  182   1.733   1.051   0.797
   55SOL    HW2  183   1.743   1.077   0.958
   56SOL     OW  184   1.227   1.550   1.506
   56SOL    HW1  185   1.233   1.473   1.570
   56SOL    HW2  186   1.175   1.524   1.426
   57SOL     OW  187   0.321   0.943   0.242
   57SOL    HW1  188   0.403   0.982   0.200
   57SOL    HW2  189   0.294   0.861   0.193
   58SOL     OW  190   1.458   0.735   0.728
   58SOL    HW1  191   1.453   0.670   0.803
   58SOL    HW2  192   1.538   0.794   0.741
   59SOL     OW  193   0.461   1.266   1.727
   59SOL    HW1  194   0.411   1.267   1.641
   59SOL    HW2  195   0.398   1.248   1.803
   60SOL     OW  196   1.111   1.776   0.237
   60SOL    HW1  197   1.051   1.714   0.287
   60SOL    HW2  198   1.142   1.732   0.152
   61SOL     OW  199   0.202   0.285   1.498
   61SOL    HW1  200   0.122   0.345   1.485
   61SOL    HW2  201   0.192   0.236   1.584
   62SOL     OW  202   1.632   1.377   0.081
   62SOL    HW1  203   1.600   1.471   0.071
   62SOL    HW2  204   1.556   1.314   0.069
   63SOL     OW  205   0.464   1.743   0.323
   63SOL    HW1  206   0.497   1.782   0.409
   63SOL    HW2  207   0.540   1.736   0.258
   64SOL     OW  208   1.400   0.107   0.426
   64SOL    HW1  209   1.376   0.070   0.336
   64SOL    HW2  210   1.499   0.123   0.430
   65SOL     OW  211   0.249   1.785   1.241
   65SOL    HW1  212   0.306   1.720   1.291
   65SOL    HW2  213   0.233   1.752   1.148
   66SOL     OW  214   0.940   1.698   0.904
   66SOL    HW1  215   1.020   1.641   0.925
   66SOL    HW2  216   0.891   1.658   0.827
   67SOL     OW  217   0.382   0.700   0.480
   67SOL    HW1  218   0.427   0.610   0.477
   67SOL    HW2  219   0.288   0.689   0.513
   68SOL     OW  220   1.547   0.222   1.729
   68SOL    HW1  221   1.542   0.259   1.821
   68SOL    HW2  222   1.475   0.153   1.717
   69SOL     OW  223   0.614   0.122   0.117
   69SOL    HW1  224   0.712   0.100   0.124
   69SOL    HW2  225   0.583   0.105   0.024
   70SOL     OW  226   0.781   0.264   1.749
   70SOL    HW1  227   0.848   0.203   1.792
   70SOL    HW2  228   0.708   0.283   1.814
   71SOL     OW  229   0.888   1.514   1.195
   71SOL    HW1  230   0.865   1.489   1.101
   71SOL    HW2  231   0.949   1.445   1.234
   72SOL     OW  232   1.351   0.590   1.433
   72SOL    HW1  233   1.379   0.547   1.518
   72SOL    HW2  234   1.376   0.686   1.434
   73SOL     OW  235   0.803   1.402   0.924
   73SOL    HW1  236   0.893   1.416   0.882
   73SOL    HW2  237   0.732   1.404   0.853
   74SOL     OW  238   0.922   0.503   0.899
   74SOL    HW1  239   0.897   0.494   0.803
   74SOL    HW2  240   0.970   0.421   0.930
   75SOL     OW  241   0.539   0.064   0.512
   75SOL    HW1  242   0.458   0.065   0.570
   75SOL    HW2  243   0.542   0.147   0.457
   76SOL     OW  244   1.434   1.188   0.041
   76SOL    HW1  245   1.466   1.112   0.098
   76SOL    HW2  246   1.342   1.215   0.071
   77SOL     OW  247   0.297   0.035   0.171
   77SOL    HW1  248   0.346   0.119   0.150
   77SOL    HW2  249   0.359  -0.030   0.216
   78SOL     OW  250   0.935   0.236   0.480
   78SOL    HW1  251   0.887   0.277   0.402
   78SOL    HW2  252   1.034   0.234   0.461
   79SOL     OW  253   1.076   0.683   1.464
   79SOL    HW1  254   0.996   0.622   1.467
   79SOL    HW2  255   1.157   0.630   1.440
   80SOL     OW  256   1.227   1.570   0.793
   80SOL    HW1  257   1.248   1.644   0.728
   80SOL    HW2  258   1.295   1.570   0.866
   81SOL     OW  259   0.459   1.152   0.741
   81SOL    HW1  260   0.388   1.125   0.806
   81SOL    HW2  261   0.433   1.124   0.648
   82SOL     OW  262   1.271   1.797   0.591
   82SOL    HW1  263   1.315   1.861   0.527
   82SOL    HW2  264   1.221   1.849   0.661
   83SOL     OW  265   1.032   0.549   0.016
   83SOL    HW1  266   0.991   0.631  -0.023
   83SOL    HW2  267   1.096   0.575   0.089
   84SOL     OW  268   0.078   0.556   1.386
   84SOL    HW1  269   0.170   0.555   1.345
   84SOL    HW2  270   0.072   0.630   1.453
   85SOL     OW  271   0.561   0.222   1.147
   85SOL    HW1  272   0.599   0.138   1.184
   85SOL    HW2  273   0.473   0.241   1.191
   86SOL     OW  274   0.866   0.454   0.642
   86SOL    HW1  275   0.834   0.526   0.580
   86SOL    HW2  276   0.890   0.373   0.589
   87SOL     OW  277   1.017   0.039   0.753
   87SOL    HW1  278   0.945   0.044   0.684
   87SOL    HW2  279   0.993  -0.030   0.822
   88SOL     OW  280   1.429   1.173   0.867
   88SOL    HW1  281   1.374   1.089   0.860
   88SOL    HW2  282   1.455   1.202   0.775
   89SOL     OW  283   1.466   0.590   0.992
   89SOL    HW1  284   1.436   0.495   0.999
   89SOL    HW2  285   1.539   0.606   1.058
   90SOL     OW  286   1.857   0.833   0.377
   90SOL    HW1  287   1.899   0.769   0.441
   90SOL    HW2  288   1.819   0.782   0.299
   91SOL     OW  289   0.488   1.385   0.174
   91SOL    HW1  290   0.401   1.370   0.221
   91SOL    HW2  291   0.471   1.411   0.079
   92SOL     OW  292   1.664   1.280   0.657
   92SOL    HW1  293   1.763   1.288   0.671
   92SOL    HW2  294   1.619   1.364   0.688
   93SOL     OW  295   1.390   0.575   0.078
   93SOL    HW1  296   1.336   0.554   0.159
   93SOL    HW2  297   1.481   0.534   0.087
   94SOL     OW  298   0.527   0.256   0.328
   94SOL    HW1  299   0.554   0.197   0.253
   94SOL    HW2  300   0.527   0.351   0.297
   95SOL     OW  301   1.754   1.223   1.588
   95SOL    HW1  302   1.845   1.184   1.575
   95SOL    HW2  303   1.762   1.319   1.612
   96SOL     OW  304   1.064   1.347   1.340
   96SOL    HW1  305   0.984   1.324   1.395
   96SOL    HW2  306   1.147   1.321   1.389
   97SOL     OW  307   1.592   1.629   1.625
   97SOL    HW1  308   1.619   1.663   1.535
   97SOL    HW2  309   1.671   1.591   1.671
   98SOL     OW  310   1.111   1.195   1.100
   98SOL    HW1  311   1.071   1.239   1.181
   98SOL    HW2  312   1.070   1.232   1.017
   99SOL     OW  313   1.638   1.099   1.079
   99SOL    HW1  314   1.643   1.180   1.138
   99SOL    HW2  315   1.552   1.101   1.028
  100SOL     OW  316   0.915   0.089   1.402
  100SOL    HW1  317   0.940   0.069   1.307
  100SOL    HW2  318   0.987   0.145   1.444
  101SOL     OW  319   0.980   1.116   1.719
  101SOL    HW1  320   0.881   1.122   1.729
  101SOL    HW2  321   1.003   1.036   1.663
  102SOL     OW  322   0.705   1.050   0.368
  102SOL    HW1  323   0.691   1.057   0.467
  102SOL    HW2  324   0.789   0.999   0.350
  103SOL     OW  325   0.410   0.813   1.251
  103SOL    HW1  326   0.496   0.825   1.301
  103SOL    HW2  327   0.368   0.726   1.278
  104SOL     OW  328   1.274   0.386   1.262
  104SOL    HW1  329   1.295   0.460   1.326
  104SOL    HW2  330   1.185   0.403   1.219
  105SOL     OW  331   0.064   1.564   1.331
  105SOL    HW1  332   0.018   1.646   1.297
  105SOL    HW2  333   0.162   1.583   1.340
  106SOL     OW  334   0.367   1.100   0.501
  106SOL    HW1  335   0.360   1.183   0.445
  106SOL    HW2  336   0.371   1.020   0.441
  107SOL     OW  337   0.566   0.537   0.865
  107SOL    HW1  338   0.578   0.603   0.791
  107SOL    HW2  339   0.612   0.571   0.948
  108SOL     OW  340   1.252   1.348   0.388
  108SOL    HW1  341   1.302   1.425   0.428
  108SOL    HW2  342   1.157   1.350   0.420
  109SOL     OW  343   1.272   1.445   1.142
  109SOL    HW1  344   1.319   1.458   1.229
  109SOL    HW2  345   1.206   1.371   1.151
  110SOL     OW  346   1.582   0.639   0.472
  110SOL    HW1  347   1.551   0.700   0.545
  110SOL    HW2  348   1.632   0.691   0.403
  111SOL     OW  349   0.354   1.510   1.329
  111SOL    HW1  350   0.333   1.466   1.242
  111SOL    HW2  351   0.451   1.536   1.332
  112SOL     OW  352   0.402   0.751   1.598
  112SOL    HW1  353   0.470   0.806   1.551
  112SOL    HW2  354   0.442   0.663   1.625
  113SOL     OW  355   1.587   0.779   1.670
  113SOL    HW1  356   1.495   0.817   1.665
  113SOL    HW2  357   1.647   0.826   1.605
  114SOL     OW  358   1.013   0.105   1.770
  114SOL    HW1  359   1.019   0.190   1.718
  114SOL    HW2  360   1.045   0.029   1.713
  115SOL     OW  361   0.504   0.050   1.740
  115SOL    HW1  362   0.462  -0.007   1.670
  115SOL    HW2  363   0.438   0.119   1.772
  116SOL     OW  364   0.573   0.870   1.029
  116SOL    HW1  365   0.617   0.959   1.020
  116SOL    HW2  366   0.510   0.870   1.106
  117SOL     OW  367   1.360   0.862   1.045
  117SOL    HW1  368   1.285   0.862   0.979
  117SOL    HW2  369   1.397   0.770   1.054
  118SOL     OW  370   1.209   0.525   0.275
  118SOL    HW1  371   1.222   0.441   0.329
  118SOL    HW2  372   1.180   0.599   0.335
  119SOL     OW  373   0.307   0.213   1.231
  119SOL    HW1  374   0.284   0.250   1.321
  119SOL    HW2  375   0.277   0.118   1.225
  120SOL     OW  376   0.037   1.310   1.282
  120SOL    HW1  377   0.090   1.261   1.350
  120SOL    HW2  378   0.059   1.408   1.287
  121SOL     OW  379   0.732   0.634   1.064
  121SOL    HW1  380   0.791   0.608   0.988
  121SOL    HW2  381   0.704   0.730   1.053
  122SOL     OW  382   1.728   0.935   1.854
  122SOL    HW1  383   1.682   0.928   1.765
  122SOL    HW2  384   1.666   0.979   1.920
  123SOL     OW  385   0.307   0.063   0.618
  123SOL    HW1  386   0.296   0.157   0.651
  123SOL    HW2  387   0.302   0.000   0.695
  124SOL     OW  388   1.622   0.367   0.374
  124SOL    HW1  389   1.624   0.291   0.438
  124SOL    HW2  390   1.574   0.444   0.414
  125SOL     OW  391   1.023   0.766   0.966
  125SOL    HW1  392   1.038   0.787   1.062
  125SOL    HW2  393   0.993   0.671   0.957
  126SOL     OW  394   0.980   1.573   1.700
  126SOL    HW1  395   0.960   1.617   1.612
  126SOL    HW2  396   1.019   1.482   1.684
  127SOL     OW  397   1.859   1.518   1.605
  127SOL    HW1  398   1.873   1.545   1.510
  127SOL    HW2  399   1.942   1.540   1.658
  128SOL     OW  400   0.350   0.898   1.804
  128SOL    HW1  401   0.426   0.942   1.852
  128SOL    HW2  402   0.385   0.851   1.722
  129SOL     OW  403   1.540   0.274   0.125
  129SOL    HW1  404   1.479   0.199   0.148
  129SOL    HW2  405   1.562   0.326   0.208
  130SOL     OW  406   1.303   0.838   0.042
  130SOL    HW1  407   1.337   0.745   0.057
  130SOL    HW2  408   1.321   0.865  -0.053
  131SOL     OW  409   1.068   1.333   0.849
  131SOL    HW1  410   1.075   1.249   0.794
  131SOL    HW2  411   1.130   1.402   0.813
  132SOL     OW  412   0.319   0.810   0.949
  132SOL    HW1  413   0.412   0.846   0.954
  132SOL    HW2  414   0.313   0.725   1.001
  133SOL     OW  415   0.339   0.509   1.006
  133SOL    HW1  416   0.287   0.426   0.989
  133SOL    HW2  417   0.416   0.514   0.942
  134SOL     OW  418   1.138   0.380   1.678
  134SOL    HW1  419   1.093   0.443   1.742
  134SOL    HW2  420   1.231   0.411   1.661
  135SOL     OW  421   1.160   0.207   1.477
  135SOL    HW1  422   1.160   0.271   1.554
  135SOL    HW2  423   1.188   0.255   1.394
  136SOL     OW  424   0.008   1.326   0.200
  136SOL    HW1  425  -0.085   1.347   0.169
  136SOL    HW2  426   0.018   1.227   0.213
  137SOL     OW  427   0.088   1.801   0.927
  137SOL    HW1  428   0.046   1.715   0.900
  137SOL    HW2  429   0.182   1.804   0.893
  138SOL     OW  430   0.504   1.568   0.910
  138SOL    HW1  431   0.570   1.642   0.919
  138SOL    HW2  432   0.548   1.489   0.868
  139SOL     OW  433   1.002   0.796   1.238
  139SOL    HW1  434   1.043   0.764   1.324
  139SOL    HW2  435   0.906   0.769   1.235
  140SOL     OW  436   0.040   0.544   1.114
  140SOL    HW1  437   0.125   0.511   1.073
  140SOL    HW2  438   0.053   0.559   1.212
  141SOL     OW  439   0.189   0.520   1.722
  141SOL    HW1  440   0.248   0.480   1.652
  141SOL    HW2  441   0.131   0.591   1.681
  142SOL     OW  442   1.369   0.950   1.660
  142SOL    HW1  443   1.408   1.039   1.680
  142SOL    HW2  444   1.379   0.930   1.563
  143SOL     OW  445   0.815   0.572   0.325
  143SOL    HW1  446   0.822   0.483   0.279
  143SOL    HW2  447   0.721   0.606   0.317
  144SOL     OW  448   1.657   0.604   1.206
  144SOL    HW1  449   1.619   0.535   1.268
  144SOL    HW2  450   1.739   0.568   1.162
  145SOL     OW  451   0.252   1.564   1.744
  145SOL    HW1  452   0.222   1.621   1.820
  145SOL    HW2  453   0.245   1.467   1.770
  146SOL     OW  454   0.671   0.464   1.269
  146SOL    HW1  455   0.637   0.375   1.239
  146SOL    HW2  456   0.697   0.518   1.189
  147SOL     OW  457   0.930   1.678   1.465
  147SOL    HW1  458   0.906   1.660   1.370
  147SOL    HW2  459   0.960   1.772   1.475
  148SOL     OW  460   0.473   0.500   0.191
  148SOL    HW1  461   0.534   0.580   0.195
  148SOL    HW2  462   0.378   0.531   0.198
  149SOL     OW  463   0.159   1.137   1.466
  149SOL    HW1  464   0.181   1.076   1.542
  149SOL    HW2  465   0.169   1.088   1.380
  150SOL     OW  466   1.347   1.059   1.234
  150SOL    HW1  467   1.371   0.996   1.160
  150SOL    HW2  468   1.257   1.099   1.216
  151SOL     OW  469   1.302   0.855   0.309
  151SOL    HW1  470   1.216   0.824   0.351
  151SOL    HW2  471   1.298   0.841   0.210
  152SOL     OW  472   1.759   1.747   1.154
  152SOL    HW1  473   1.820   1.777   1.081
  152SOL    HW2  474   1.721   1.658   1.132
  153SOL     OW  475   1.252   1.731   1.128
  153SOL    HW1  476   1.336   1.736   1.074
  153SOL    HW2  477   1.229   1.635   1.146
  154SOL     OW  478   0.083   1.258   1.022
  154SOL    HW1  479   0.078   1.257   1.122
  154SOL    HW2  480   0.000   1.217   0.984
  155SOL     OW  481   0.688   1.662   1.716
  155SOL    HW1  482   0.632   1.743   1.725
  155SOL    HW2  483   0.740   1.666   1.630
  156SOL     OW  484   0.903   0.086   0.133
  156SOL    HW1  485   0.954   0.087   0.047
  156SOL    HW2  486   0.959   0.044   0.204
  157SOL     OW  487   1.726   0.135   0.523
  157SOL    HW1  488   1.799   0.118   0.456
  157SOL    HW2  489   1.695   0.048   0.561
  158SOL     OW  490   1.388   1.573   0.477
  158SOL    HW1  491   1.455   1.585   0.403
  158SOL    HW2  492   1.348   1.662   0.500
  159SOL     OW  493   0.130   1.794   1.851
  159SOL    HW1  494   0.089   1.720   1.904
  159SOL    HW2  495   0.194   1.845   1.909
  160SOL     OW  496   1.280   0.927   0.672
  160SOL    HW1  497   1.340   0.846   0.674
  160SOL    HW2  498   1.320   0.996   0.612
  161SOL     OW  499   0.830   1.273   1.422
  161SOL    HW1  500   0.825   1.306   1.517
  161SOL    HW2  501   0.744   1.292   1.376
  162SOL     OW  502   0.672   1.616   0.154
  162SOL    HW1  503   0.681   1.626   0.055
  162SOL    HW2  504   0.632   1.527   0.175
  163SOL     OW  505   1.650   1.720   1.394
  163SOL    HW1  506   1.703   1.730   1.310
  163SOL    HW2  507   1.623   1.810   1.428
  164SOL     OW  508   1.841   0.175   0.963
  164SOL    HW1  509   1.880   0.090   0.927
  164SOL    HW2  510   1.743   0.177   0.944
  165SOL     OW  511   0.263   0.326   0.720
  165SOL    HW1  512   0.184   0.377   0.686
  165SOL    HW2  513   0.254   0.311   0.818
  166SOL     OW  514   1.194   1.612   0.031
  166SOL    HW1  515   1.200   1.519   0.068
  166SOL    HW2  516   1.135   1.612  -0.049
  167SOL     OW  517   0.822   1.002   1.372
  167SOL    HW1  518   0.862   1.001   1.280
  167SOL    HW2  519   0.832   1.094   1.412
  168SOL     OW  520   0.916   0.910   0.291
  168SOL    HW1  521   0.979   0.948   0.223
  168SOL    HW2  522   0.956   0.827   0.330
  169SOL     OW  523   1.504   1.607   0.044
  169SOL    HW1  524   1.412   1.644   0.051
  169SOL    HW2  525   1.542   1.627  -0.046
  170SOL     OW  526   0.372   1.288   1.490
  170SOL    HW1  527   0.359   1.381   1.456
  170SOL    HW2  528   0.288   1.236   1.477
  171SOL     OW  529   1.614   1.292   1.289
  171SOL    HW1  530   1.674   1.295   1.369
  171SOL    HW2  531   1.539   1.356   1.302
  172SOL     OW  532   1.039   1.098   0.696
  172SOL    HW1  533   0.969   1.051   0.750
  172SOL    HW2  534   1.098   1.030   0.653
  173SOL     OW  535   1.014   0.236   0.971
  173SOL    HW1  536   1.006   0.200   0.878
  173SOL    HW2  537   1.012   0.160   1.036
  174SOL     OW  538   0.590   1.487   0.491
  174SOL    HW1  539   0.632   1.429   0.421
  174SOL    HW2  540   0.546   1.566   0.447
  175SOL     OW  541   1.709   0.385   1.381
  175SOL    HW1  542   1.782   0.454   1.385
  175SOL    HW2  543   1.737   0.310   1.322
  176SOL     OW  544   0.255   1.348   0.290
  176SOL    HW1  545   0.159   1.349   0.263
  176SOL    HW2  546   0.267   1.401   0.374
  177SOL     OW  547   0.105   1.013   1.726
  177SOL    HW1  548   0.028   0.980   1.780
  177SOL    HW2  549   0.190   0.983   1.768
  178SOL     OW  550   0.672   0.203   1.489
  178SOL    HW1  551   0.762   0.187   1.449
  178SOL    HW2  552   0.680   0.208   1.588
  179SOL     OW  553   0.075   0.345   0.033
  179SOL    HW1  554  -0.017   0.317   0.004
  179SOL    HW2  555   0.106   0.422  -0.023
  180SOL     OW  556   1.440   0.856   1.398
  180SOL    HW1  557   1.383   0.908   1.335
  180SOL    HW2  558   1.536   0.868   1.374
  181SOL     OW  559   0.072   0.166   0.318
  181SOL    HW1  560   0.055   0.249   0.264
  181SOL    HW2  561   0.162   0.129   0.296
  182SOL     OW  562   1.183   1.335   0.119
  182SOL    HW1  563   1.084   1.324   0.121
  182SOL    HW2  564   1.217   1.350   0.212
  183SOL     OW  565   0.613   0.842   1.431
  183SOL    HW1  566   0.669   0.923   1.414
  183SOL    HW2  567   0.672   0.762   1.434
  184SOL     OW  568   1.493   1.767   0.959
  184SOL    HW1  569   1.526   1.831   0.890
  184SOL    HW2  570   1.559   1.761   1.034
  185SOL     OW  571   0.716   0.565   1.708
  185SOL    HW1  572   0.735   0.630   1.782
  185SOL    HW2  573   0.776   0.485   1.717
  186SOL     OW  574   1.450   1.220   1.633
  186SOL    HW1  575   1.441   1.210   1.732
  186SOL    HW2  576   1.546   1.213   1.607
  187SOL     OW  577   0.390   1.741   1.560
  187SOL    HW1  578   0.299   1.782   1.558
  187SOL    HW2  579   0.383   1.647   1.592
  188SOL     OW  580   1.674   0.883   1.254
  188SOL    HW1  581   1.647   0.794   1.217
  188SOL    HW2  582   1.675   0.951   1.181
  189SOL     OW  583   1.225   0.325   0.449
  189SOL    HW1  584   1.290   0.251   0.438
  189SOL    HW2  585   1.245   0.375   0.533
  190SOL     OW  586   0.594   0.745   0.652
  190SOL    HW1  587   0.644   0.830   0.633
  190SOL    HW2  588   0.506   0.747   0.604
  191SOL     OW  589   1.777   0.342   1.642
  191SOL    HW1  590   1.760   0.373   1.548
  191SOL    HW2  591   1.693   0.305   1.680
  192SOL     OW  592   1.730   0.934   1.517
  192SOL    HW1  593   1.768   1.025   1.532
  192SOL    HW2  594   1.722   0.917   1.418
  193SOL     OW  595   0.859   1.374   0.016
  193SOL    HW1  596   0.813   1.389   0.104
  193SOL    HW2  597   0.903   1.459  -0.014
  194SOL     OW  598   0.661   1.790   0.953
  194SOL    HW1  599   0.615   1.878   0.940
  194SOL    HW2  600   0.760   1.802   0.946
  195SOL     OW  601   0.859   0.956   0.861
  195SOL    HW1  602   0.913   0.887   0.909
  195SOL    HW2  603   0.827   1.025   0.927
  196SOL     OW  604   1.083   0.984   0.087
  196SOL    HW1  605   1.060   1.037   0.005
  196SOL    HW2  606   1.164   0.928   0.068
  197SOL     OW  607   1.861   1.569   0.851
  197SOL    HW1  608   1.790   1.557   0.781
  197SOL    HW2  609   1.862   1.490   0.911
  198SOL     OW  610   0.221   1.314   1.844
  198SOL    HW1  611   0.156   1.241   1.823
  198SOL    HW2  612   0.225   1.328   1.942
  199SOL     OW  613   0.079   1.240   0.653
  199SOL    HW1  614   0.078   1.193   0.741
  199SOL    HW2  615   0.161   1.212   0.602
  200SOL     OW  616   0.672   1.391   1.624
  200SOL    HW1  617   0.594   1.341   1.662
  200SOL    HW2  618   0.669   1.486   1.655
  201SOL     OW  619   1.824   0.192   1.227
  201SOL    HW1  620   1.820   0.102   1.271
  201SOL    HW2  621   1.827   0.181   1.128
  202SOL     OW  622   0.428   0.424   0.520
  202SOL    HW1  623   0.458   0.352   0.458
  202SOL    HW2  624   0.389   0.384   0.603
  203SOL     OW  625   1.705   1.487   1.104
  203SOL    HW1  626   1.612   1.462   1.077
  203SOL    HW2  627   1.731   1.437   1.186
  204SOL     OW  628   0.317   0.547   1.280
  204SOL    HW1  629   0.355   0.488   1.352
  204SOL    HW2  630   0.357   0.521   1.192
  205SOL     OW  631   0.812   1.586   0.687
  205SOL    HW1  632   0.844   1.596   0.593
  205SOL    HW2  633   0.733   1.524   0.689
  206SOL     OW  634   1.424   0.214   1.112
  206SOL    HW1  635   1.476   0.149   1.167
  206SOL    HW2  636   1.375   0.277   1.173
  207SOL     OW  637   1.001   0.034   1.154
  207SOL    HW1  638   0.938  -0.038   1.123
  207SOL    HW2  639   1.094  -0.002   1.154
  208SOL     OW  640   0.770   1.330   0.301
  208SOL    HW1  641   0.724   1.243   0.318
  208SOL    HW2  642   0.861   1.327   0.342
  209SOL     OW  643   0.618   1.567   1.284
  209SOL    HW1  644   0.613   1.649   1.341
  209SOL    HW2  645   0.707   1.564   1.239
  210SOL     OW  646   1.352   0.052   0.168
  210SOL    HW1  647   1.387   0.011   0.084
  210SOL    HW2  648   1.262   0.014   0.188
  211SOL     OW  649   1.300   0.453   0.691
  211SOL    HW1  650   1.241   0.533   0.695
  211SOL    HW2  651   1.315   0.418   0.784
  212SOL     OW  652   1.593   0.221   0.882
  212SOL    HW1  653   1.509   0.220   0.936
  212SOL    HW2  654   1.595   0.304   0.826
  213SOL     OW  655   0.039   1.077   0.300
  213SOL    HW1  656   0.138   1.066   0.291
  213SOL    HW2  657  -0.001   0.991   0.332
  214SOL     OW  658   0.875   1.646   0.337
  214SOL    HW1  659   0.798   1.611   0.283
  214SOL    HW2  660   0.843   1.717   0.399
  215SOL     OW  661   0.230   0.628   1.975
  215SOL    HW1  662   0.137   0.626   2.012
  215SOL    HW2  663   0.231   0.589   1.883
  216SOL     OW  664   0.225   0.275   2.858
  216SOL    HW1  665   0.260   0.258   2.950
  216SOL    HW2  666   0.137   0.230   2.846
  217SOL     OW  667   0.019   0.368   2.509
  217SOL    HW1  668  -0.063   0.411   2.548
  217SOL    HW2  669  -0.009   0.295   2.446
  218SOL     OW  670   0.569   1.275   3.027
  218SOL    HW1  671   0.476   1.268   2.990
  218SOL    HW2  672   0.580   1.364   3.071
  219SOL     OW  673   1.555   1.511   2.565
  219SOL    HW1  674   1.498   1.495   2.646
  219SOL    HW2  675   1.496   1.521   2.485
  220SOL     OW  676   1.135   0.703   2.579
  220SOL    HW1  677   1.192   0.781   2.554
  220SOL    HW2  678   1.075   0.729   2.655
  221SOL     OW  679   1.755   0.607   2.093
  221SOL    HW1  680   1.743   0.594   1.994
  221SOL    HW2  681   1.725   0.526   2.142
  222SOL     OW  682   0.768   1.144   2.885
  222SOL    HW1  683   0.690   1.161   2.945
  222SOL    HW2  684   0.802   1.231   2.849
  223SOL     OW  685   0.850   0.798   3.685
  223SOL    HW1  686   0.846   0.874   3.750
  223SOL    HW2  687   0.872   0.834   3.594
  224SOL     OW  688   0.685   1.012   2.527
  224SOL    HW1  689   0.754   0.996   2.597
  224SOL    HW2  690   0.612   1.069   2.565
  225SOL     OW  691   0.686   1.161   3.665
  225SOL    HW1  692   0.746   1.240   3.679
  225SOL    HW2  693   0.600   1.192   3.624
  226SOL     OW  694   0.335   1.435   2.923
  226SOL    HW1  695   0.257   1.404   2.870
  226SOL    HW2  696   0.393   1.493   2.866
  227SOL     OW  697   1.460   1.505   3.201
  227SOL    HW1  698   1.484   1.599   3.227
  227SOL    HW2  699   1.444   1.451   3.283
  228SOL     OW  700   0.438   0.392   3.361
  228SOL    HW1  701   0.520   0.336   3.370
  228SOL    HW2  702   0.357   0.334   3.365
  229SOL     OW  703   1.603   0.447   2.599
  229SOL    HW1  704   1.529   0.493   2.549
  229SOL    HW2  705   1.654   0.515   2.652
  230SOL     OW  706   0.231   1.713   2.345
  230SOL    HW1  707   0.265   1.790   2.399
  230SOL    HW2  708   0.275   1.713   2.255
  231SOL     OW  709   1.127   1.341   3.552
  231SOL    HW1  710   1.174   1.341   3.640
  231SOL    HW2  711   1.079   1.254   3.541
  232SOL     OW  712   0.230   1.434   2.400
  232SOL    HW1  713   0.204   1.530   2.400
  232SOL    HW2  714   0.159   1.380   2.445
  233SOL     OW  715   0.240   1.091   2.748
  233SOL    HW1  716   0.254   1.007   2.800
  233SOL    HW2  717   0.185   1.155   2.803
  234SOL     OW  718   0.620   1.786   3.301
  234SOL    HW1  719   0.528   1.769   3.336
  234SOL    HW2  720   0.648   1.878   3.327
  235SOL     OW  721   0.606   0.964   1.985
  235SOL    HW1  722   0.613   1.048   1.931
  235SOL    HW2  723   0.652   0.977   2.073
  236SOL     OW  724   1.594   0.114   3.342
  236SOL    HW1  725   1.576   0.181   3.270
  236SOL    HW2  726   1.591   0.160   3.431
  237SOL     OW  727   0.122   0.643   2.425
  237SOL    HW1  728   0.077   0.555   2.442
  237SOL    HW2  729   0.121   0.697   2.509
  238SOL     OW  730   1.842   1.767   2.221
  238SOL    HW1  731   1.896   1.738   2.301
  238SOL    HW2  732   1.872   1.857   2.192
  239SOL     OW  733   0.027   1.596   1.979
  239SOL    HW1  734   0.008   1.500   2.000
  239SOL    HW2  735  -0.006   1.654   2.054
  240SOL     OW  736   1.689   0.922   2.474
  240SOL    HW1  737   1.784   0.893   2.482
  240SOL    HW2  738   1.681   0.987   2.399
  241SOL     OW  739   1.641   1.108   2.294
  241SOL    HW1  740   1.727   1.110   2.242
  241SOL    HW2  741   1.655   1.155   2.382
  242SOL     OW  742   0.113   0.737   3.459
  242SOL    HW1  743   0.201   0.724   3.504
  242SOL    HW2  744   0.100   0.834   3.437
  243SOL     OW  745   0.613   1.365   2.588
  243SOL    HW1  746   0.564   1.278   2.597
  243SOL    HW2  747   0.590   1.408   2.501
  244SOL     OW  748   1.293   1.228   3.285
  244SOL    HW1  749   1.330   1.155   3.227
  244SOL    HW2  750   1.345   1.233   3.370
  245SOL     OW  751   0.809   0.004   2.364
  245SOL    HW1  752   0.849   0.095   2.355
  245SOL    HW2  753   0.709   0.012   2.370
  246SOL     OW  754   0.197   0.976   3.126
  246SOL    HW1  755   0.286   0.931   3.112
  246SOL    HW2  756   0.124   0.911   3.107
  247SOL     OW  757   1.525   0.999   2.052
  247SOL    HW1  758   1.462   0.923   2.065
  247SOL    HW2  759   1.573   1.017   2.138
  248SOL     OW  760   1.187   1.792   3.478
  248SOL    HW1  761   1.211   1.852   3.402
  248SOL    HW2  762   1.194   1.697   3.448
  249SOL     OW  763   0.317   0.251   3.663
  249SOL    HW1  764   0.388   0.322   3.669
  249SOL    HW2  765   0.229   0.290   3.691
  250SOL     OW  766   1.466   1.417   2.815
  250SOL    HW1  767   1.407   1.423   2.895
  250SOL    HW2  768   1.451   1.329   2.769
  251SOL     OW  769   1.667   1.714   2.434
  251SOL    HW1  770   1.626   1.691   2.346
  251SOL    HW2  771   1.649   1.640   2.499
  252SOL     OW  772   0.598   0.729   2.132
  252SOL    HW1  773   0.622   0.798   2.064
  252SOL    HW2  774   0.520   0.762   2.186
  253SOL     OW  775   1.281   0.345   2.806
  253SOL    HW1  776   1.195   0.295   2.793
  253SOL    HW2  777   1.343   0.291   2.862
  254SOL     OW  778   1.576   1.662   2.169
  254SOL    HW1  779   1.665   1.708   2.172
  254SOL    HW2  780   1.555   1.638   2.074
  255SOL     OW  781   0.807   0.605   3.327
  255SOL    HW1  782   0.760   0.602   3.416
  255SOL    HW2  783   0.756   0.550   3.261
  256SOL     OW  784   1.394   0.469   3.536
  256SOL    HW1  785   1.374   0.512   3.624
  256SOL    HW2  786   1.472   0.407   3.545
  257SOL     OW  787   0.973   0.890   3.434
  257SOL    HW1  788   1.019   0.806   3.405
  257SOL    HW2  789   0.917   0.924   3.359
  258SOL     OW  790   0.991   0.410   3.104
  258SOL    HW1  791   0.914   0.444   3.158
  258SOL    HW2  792   0.957   0.359   3.025
  259SOL     OW  793   1.041   0.701   2.291
  259SOL    HW1  794   1.067   0.697   2.387
  259SOL    HW2  795   0.956   0.650   2.277
  260SOL     OW  796   0.076   0.811   2.651
  260SOL    HW1  797   0.175   0.799   2.660
  260SOL    HW2  798   0.052   0.906   2.672
  261SOL     OW  799   0.130   1.821   3.433
  261SOL    HW1  800   0.120   1.806   3.532
  261SOL    HW2  801   0.044   1.857   3.397
  262SOL     OW  802   0.865   0.348   2.057
  262SOL    HW1  803   0.924   0.411   2.008
  262SOL    HW2  804   0.884   0.254   2.028
  263SOL     OW  805   1.719   0.585   3.693
  263SOL    HW1  806   1.693   0.674   3.657
  263SOL    HW2  807   1.717   0.517   3.620
  264SOL     OW  808   1.362   1.144   2.407
  264SOL    HW1  809   1.445   1.115   2.359
  264SOL    HW2  810   1.313   1.211   2.351
  265SOL     OW  811   0.550   0.196   2.747
  265SOL    HW1  812   0.545   0.191   2.847
  265SOL    HW2  813   0.552   0.292   2.718
  266SOL     OW  814   1.008   1.456   2.339
  266SOL    HW1  815   0.962   1.528   2.287
  266SOL    HW2  816   1.004   1.476   2.437
  267SOL     OW  817   0.351   1.801   2.715
  267SOL    HW1  818   0.401   1.715   2.721
  267SOL    HW2  819   0.416   1.878   2.712
  268SOL     OW  820   1.795   1.066   2.735
  268SOL    HW1  821   1.733   1.051   2.659
  268SOL    HW2  822   1.743   1.077   2.820
  269SOL     OW  823   1.227   1.550   3.368
  269SOL    HW1  824   1.233   1.473   3.432
  269SOL    HW2  825   1.175   1.524   3.288
  270SOL     OW  826   0.321   0.943   2.104
  270SOL    HW1  827   0.403   0.982   2.062
  270SOL    HW2  828   0.294   0.861   2.055
  271SOL     OW  829   1.458   0.735   2.590
  271SOL    HW1  830   1.453   0.670   2.665
  271SOL    HW2  831   1.538   0.794   2.603
  272SOL     OW  832   0.461   1.266   3.589
  272SOL    HW1  833   0.411   1.267   3.503
  272SOL    HW2  834   0.398   1.248   3.665
  273SOL     OW  835   1.111   1.776   2.099
  273SOL    HW1  836   1.051   1.714   2.149
  273SOL    HW2  837   1.142   1.732   2.014
  274SOL     OW  838   0.202   0.285   3.360
  274SOL    HW1  839   0.122   0.345   3.347
  274SOL    HW2  840   0.192   0.236   3.446
  275SOL     OW  841   1.632   1.377   1.943
  275SOL    HW1  842   1.600   1.471   1.933
  275SOL    HW2  843   1.556   1.314   1.931
  276SOL     OW  844   0.464   1.743   2.185
  276SOL    HW1  845   0.497   1.782   2.271
  276SOL    HW2  846   0.540   1.736   2.120
  277SOL     OW  847   1.400   0.107   2.288
  277SOL    HW1  848   1.376   0.070   2.198
  277SOL    HW2  849   1.499   0.123   2.292
  278SOL     OW  850   0.249   1.785   3.103
  278SOL    HW1  851   0.306   1.720   3.153
  278SOL    HW2  852   0.233   1.752   3.010
  279SOL     OW  853   0.940   1.698   2.766
  279SOL    HW1  854   1.020   1.641   2.787
  279SOL    HW2  855   0.891   1.658   2.689
  280SOL     OW  856   0.382   0.700   2.342
  280SOL    HW1  857   0.427   0.610   2.339
  280SOL    HW2  858   0.288   0.689   2.375
  281SOL     OW  859   1.547   0.222   3.591
  281SOL    HW1  860   1.542   0.259   3.683
  281SOL    HW2  861   1.475   0.153   3.579
  282SOL     OW  862   0.614   0.122   1.979
  282SOL    HW1  863   0.712   0.100   1.986
  282SOL    HW2  864   0.583   0.105   1.886
  283SOL     OW  865   0.781   0.264   3.611
  283SOL    HW1  866   0.848   0.203   3.654
  283SOL    HW2  867   0.708   0.283   3.676
  284SOL     OW  868   0.888   1.514   3.057
  284SOL    HW1  869   0.865   1.489   2.963
  284SOL    HW2  870   0.949   1.445   3.096
  285SOL     OW  871   1.351   0.590   3.295
  285SOL    HW1  872   1.379   0.547   3.380
  285SOL    HW2  873   1.376   0.686   3.296
  286SOL     OW  874   0.803   1.402   2.786
  286SOL    HW1  875   0.893   1.416   2.744
  286SOL    HW2  876   0.732   1.404   2.715
  287SOL     OW  877   0.922   0.503   2.761
  287SOL    HW1  878   0.897   0.494   2.665
  287SOL    HW2  879   0.970   0.421   2.792
  288SOL     OW  880   0.539   0.064   2.374
  288SOL    HW1  881   0.458   0.065   2.432
  288SOL    HW2  882   0.542   0.147   2.319
  289SOL     OW  883   1.434   1.188   1.903
  289SOL    HW1  884   1.466   1.112   1.960
  289SOL    HW2  885   1.342   1.215   1.933
  290SOL     OW  886   0.297   0.035   2.033
  290SOL    HW1  887   0.346   0.119   2.012
  290SOL    HW2  888   0.359  -0.030   2.078
  291SOL     OW  889   0.935   0.236   2.342
  291SOL    HW1  890   0.887   0.277   2.264
  291SOL    HW2  891   1.034   0.234   2.323
  292SOL     OW  892   1.076   0.683   3.326
  292SOL    HW1  893   0.996   0.622   3.329
  292SOL    HW2  894   1.157   0.630   3.302
  293SOL     OW  895   1.227   1.570   2.655
  293SOL    HW1  896   1.248   1.644   2.590
  293SOL    HW2  897   1.295   1.570   2.728
  294SOL     OW  898   0.459   1.152   2.603
  294SOL    HW1  899   0.388   1.125   2.668
  294SOL    HW2  900   0.433   1.124   2.510
  295SOL     OW  901   1.271   1.797   2.453
  295SOL    HW1  902   1.315   1.861   2.389
  295SOL    HW2  903   1.221   1.849   2.523
  296SOL     OW  904   1.032   0.549   1.878
  296SOL    HW1  905   0.991   0.631   1.839
  296SOL    HW2  906   1.096   0.575   1.951
  297SOL     OW  907   0.078   0.556   3.248
  297SOL    HW1  908   0.170   0.555   3.207
  297SOL    HW2  909   0.072   0.630   3.315
  298SOL     OW  910   0.561   0.222   3.009
  298SOL    HW1  911   0.599   0.138   3.046
  298SOL    HW2  912   0.473   0.241   3.053
  299SOL     OW  913   0.866   0.454   2.504
  299SOL    HW1  914   0.834   0.526   2.442
  299SOL    HW2  915   0.890   0.373   2.451
  300SOL     OW  916   1.017   0.039   2.615
  300SOL    HW1  917   0.945   0.044   2.546
  300SOL    HW2  918   0.993  -0.030   2.684
  301SOL     OW  919   1.429   1.173   2.729
  301SOL    HW1  920   1.374   1.089   2.722
  301SOL    HW2  921   1.455   1.202   2.637
  302SOL     OW  922   1.466   0.590   2.854
  302SOL    HW1  923   1.436   0.495   2.861
  302SOL    HW2  924   1.539   0.606   2.920
  303SOL     OW  925   1.857   0.833   2.239
  303SOL    HW1  926   1.899   0.769   2.303
  303SOL    HW2  927   1.819   0.782   2.161
  304SOL     OW  928   0.488   1.385   2.036
  304SOL    HW1  929   0.401   1.370   2.083
  304SOL    HW2  930   0.471   1.411   1.941
  305SOL     OW  931   1.664   1.280   2.519
  305SOL    HW1  932   1.763   1.288   2.533
  305SOL    HW2  933   1.619   1.364   2.550
  306SOL     OW  934   1.390   0.575   1.940
  306SOL    HW1  935   1.336   0.554   2.021
  306SOL    HW2  936   1.481   0.534   1.949
  307SOL     OW  937   0.527   0.256   2.190
  307SOL    HW1  938   0.554   0.197   2.115
  307SOL    HW2  939   0.527   0.351   2.159
  308SOL     OW  940   1.754   1.223   3.450
  308SOL    HW1  941   1.845   1.184   3.437
  308SOL    HW2  942   1.762   1.319   3.474
  309SOL     OW  943   1.064   1.347   3.202
  309SOL    HW1  944   0.984   1.324   3.257
  309SOL    HW2  945   1.147   1.321   3.251
  310SOL     OW  946   1.592   1.629   3.487
  310SOL    HW1  947   1.619   1.663   3.397
  310SOL    HW2  948   1.671   1.591   3.533
  311SOL     OW  949   1.111   1.195   2.962
  311SOL    HW1  950   1.071   1.239   3.043
  311SOL    HW2  951   1.070   1.232   2.879
  312SOL     OW  952   1.638   1.099   2.941
  312SOL    HW1  953   1.643   1.180   3.000
  312SOL    HW2  954   1.552   1.101   2.890
  313SOL     OW  955   0.915   0.089   3.264
  313SOL    HW1  956   0.940   0.069   3.169
  313SOL    HW2  957   0.987   0.145   3.306
  314SOL     OW  958   0.980   1.116   3.581
  314SOL    HW1  959   0.881   1.122   3.591
  314SOL    HW2  960   1.003   1.036   3.525
  315SOL     OW  961   0.705   1.050   2.230
  315SOL    HW1  962   0.691   1.057   2.329
  315SOL    HW2  963   0.789   0.999   2.212
  316SOL     OW  964   0.410   0.813   3.113
  316SOL    HW1  965   0.496   0.825   3.163
  316SOL    HW2  966   0.368   0.726   3.140
  317SOL     OW  967   1.274   0.386   3.124
  317SOL    HW1  968   1.295   0.460   3.188
  317SOL    HW2  969   1.185   0.403   3.081
  318SOL     OW  970   0.064   1.564   3.193
  318SOL    HW1  971   0.018   1.646   3.159
  318SOL    HW2  972   0.162   1.583   3.202
  319SOL     OW  973   0.367   1.100   2.363
  319SOL    HW1  974   0.360   1.183   2.307
  319SOL    HW2  975   0.371   1.020   2.303
  320SOL     OW  976   0.566   0.537   2.727
  320SOL    HW1  977   0.578   0.603   2.653
  320SOL    HW2  978   0.612   0.571   2.810
  321SOL     OW  979   1.252   1.348   2.250
  321SOL    HW1  980   1.302   1.425   2.290
  321SOL    HW2  981   1.157   1.350   2.282
  322SOL     OW  982   1.272   1.445   3.004
  322SOL    HW1  983   1.319   1.458   3.091
  322SOL    HW2  984   1.206   1.371   3.013
  323SOL     OW  985   1.582   0.639   2.334
  323SOL    HW1  986   1.551   0.700   2.407
  323SOL    HW2  987   1.632   0.691   2.265
  324SOL     OW  988   0.354   1.510   3.191
  324SOL    HW1  989   0.333   1.466   3.104
  324SOL    HW2  990   0.451   1.536   3.194
  325SOL     OW  991   0.402   0.751   3.460
  325SOL    HW1  992   0.470   0.806   3.413
  325SOL    HW2  993   0.442   0.663   3.487
  326SOL     OW  994   1.587   0.779   3.532
  326SOL    HW1  995   1.495   0.817   3.527
  326SOL    HW2  996   1.647   0.826   3.467
  327SOL     OW  997   1.013   0.105   3.632
  327SOL    HW1  998   1.019   0.190   3.580
  327SOL    HW2  999   1.045   0.029   3.575
  328SOL     OW 1000   0.504   0.050   3.602
  328SOL    HW1 1001   0.462  -0.007   3.532
  328SOL    HW2 1002   0.438   0.119   3.634
  329SOL     OW 1003   0.573   0.870   2.891
  329SOL    HW1 1004   0.617   0.959   2.882
  329SOL    HW2 1005   0.510   0.870   2.968
  330SOL     OW 1006   1.360   0.862   2.907
  330SOL    HW1 1007   1.285   0.862   2.841
  330SOL    HW2 1008   1.397   0.770   2.916
  331SOL     OW 1009   1.209   0.525   2.137
  331SOL    HW1 1010   1.222   0.441   2.191
  331SOL    HW2 1011   1.180   0.599   2.197
  332SOL     OW 1012   0.307   0.213   3.093
  332SOL    HW1 1013   0.284   0.250   3.183
  332SOL    HW2 1014   0.277   0.118   3.087
  333SOL     OW 1015   0.037   1.310   3.144
  333SOL    HW1 1016   0.090   1.261   3.212
  333SOL    HW2 1017   0.059   1.408   3.149
  334SOL     OW 1018   0.732   0.634   2.926
  334SOL    HW1 1019   0.791   0.608   2.850
  334SOL    HW2 1020   0.704   0.730   2.915
  335SOL     OW 1021   1.728   0.935   3.716
  335SOL    HW1 1022   1.682   0.928   3.627
  335SOL    HW2 1023   1.666   0.979   3.782
  336SOL     OW 1024   0.307   0.063   2.480
  336SOL    HW1 1025   0.296   0.157   2.513
  336SOL    HW2 1026   0.302   0.000   2.557
  337SOL     OW 1027   1.622   0.367   2.236
  337SOL    HW1 1028   1.624   0.291   2.300
  337SOL    HW2 1029   1.574   0.444   2.276
  338SOL     OW 1030   1.023   0.766   2.828
  338SOL    HW1 1031   1.038   0.787   2.924
  338SOL    HW2 1032   0.993   0.671   2.819
  339SOL     OW 1033   0.980   1.573   3.562
  339SOL    HW1 1034   0.960   1.617   3.474
  339SOL    HW2 1035   1.019   1.482   3.546
  340SOL     OW 1036   1.859   1.518   3.467
  340SOL    HW1 1037   1.873   1.545   3.372
  340SOL    HW2 1038   1.942   1.540   3.520
  341SOL     OW 1039   0.350   0.898   3.666
  341SOL    HW1 1040   0.426   0.942   3.714
  341SOL    HW2 1041   0.385   0.851   3.584
  342SOL     OW 1042   1.540   0.274   1.987
  342SOL    HW1 1043   1.479   0.199   2.010
  342SOL    HW2 1044   1.562   0.326   2.070
  343SOL     OW 1045   1.303   0.838   1.904
  343SOL    HW1 1046   1.337   0.745   1.919
  343SOL    HW2 1047   1.321   0.865   1.809
  344SOL     OW 1048   1.068   1.333   2.711
  344SOL    HW1 1049   1.075   1.249   2.656
  344SOL    HW2 1050   1.130   1.402   2.675
  345SOL     OW 1051   0.319   0.810   2.811
  345SOL    HW1 1052   0.412   0.846   2.816
  345SOL    HW2 1053   0.313   0.725   2.863
  346SOL     OW 1054   0.339   0.509   2.868
  346SOL    HW1 1055   0.287   0.426   2.851
  346SOL    HW2 1056   0.416   0.514   2.804
  347SOL     OW 1057   1.138   0.380   3.540
  347SOL    HW1 1058   1.093   0.443   3.604
  347SOL    HW2 1059   1.231   0.411   3.523
  348SOL     OW 1060   1.160   0.207   3.339
  348SOL    HW1 1061   1.160   0.271   3.416
  348SOL    HW2 1062   1.188   0.255   3.256
  349SOL     OW 1063   0.008   1.326   2.062
  349SOL    HW1 1064  -0.085   1.347   2.031
  349SOL    HW2 1065   0.018   1.227   2.075
  350SOL     OW 1066   0.088   1.801   2.789
  350SOL    HW1 1067   0.046   1.715   2.762
  350SOL    HW2 1068   0.182   1.804   2.755
  351SOL     OW 1069   0.504   1.568   2.772
  351SOL    HW1 1070   0.570   1.642   2.781
  351SOL    HW2 1071   0.548   1.489   2.730
  352SOL     OW 1072   1.002   0.796   3.100
  352SOL    HW1 1073   1.043   0.764   3.186
  352SOL    HW2 1074   0.906   0.769   3.097
  353SOL     OW 1075   0.040   0.544   2.976
  353SOL    HW1 1076   0.125   0.511   2.935
  353SOL    HW2 1077   0.053   0.559   3.074
  354SOL     OW 1078   0.189   0.520   3.584
  354SOL    HW1 1079   0.248   0.480   3.514
  354SOL    HW2 1080   0.131   0.591   3.543
  355SOL     OW 1081   1.369   0.950   3.522
  355SOL    HW1 1082   1.408   1.039   3.542
  355SOL    HW2 1083   1.379   0.930   3.425
  356SOL     OW 1084   0.815   0.572   2.187
  356SOL    HW1 1085   0.822   0.483   2.141
  356SOL    HW2 1086   0.721   0.606   2.179
  357SOL     OW 1087   1.657   0.604   3.068
  357SOL    HW1 1088   1.619   0.535   3.130
  357SOL    HW2 1089   1.739   0.568   3.024
  358SOL     OW 1090   0.252   1.564   3.606
  358SOL    HW1 1091   0.222   1.621   3.682
  358SOL    HW2 1092   0.245   1.467   3.632
  359SOL     OW 1093   0.671   0.464   3.131
  359SOL    HW1 1094   0.637   0.375   3.101
  359SOL    HW2 1095   0.697   0.518   3.051
  360SOL     OW 1096   0.930   1.678   3.327
  360SOL    HW1 1097   0.906   1.660   3.232
  360SOL    HW2 1098   0.960   1.772   3.337
  361SOL     OW 1099   0.473   0.500   2.053
  361SOL    HW1 1100   0.534   0.580   2.057
  361SOL    HW2 1101   0.378   0.531   2.060
  362SOL     OW 1102   0.159   1.137   3.328
  362SOL    HW1 1103   0.181   1.076   3.404
  362SOL    HW2 1104   0.169   1.088   3.242
  363SOL     OW 1105   1.347   1.059   3.096
  363SOL    HW1 1106   1.371   0.996   3.022
  363SOL    HW2 1107   1.257   1.099   3.078
  364SOL     OW 1108   1.302   0.855   2.171
  364SOL    HW1 1109   1.216   0.824   2.213
  364SOL    HW2 1110   1.298   0.841   2.072
  365SOL     OW 1111   1.759   1.747   3.016
  365SOL    HW1 1112   1.820   1.777   2.943
  365SOL    HW2 1113   1.721   1.658   2.994
  366SOL     OW 1114   1.252   1.731   2.990
  366SOL    HW1 1115   1.336   1.736   2.936
  366SOL    HW2 1116   1.229   1.635   3.008
  367SOL     OW 1117   0.083   1.258   2.884
  367SOL    HW1 1118   0.078   1.257   2.984
  367SOL    HW2 1119   0.000   1.217   2.846
  368SOL     OW 1120   0.688   1.662   3.578
  368SOL    HW1 1121   0.632   1.743   3.587
  368SOL    HW2 1122   0.740   1.666   3.492
  369SOL     OW 1123   1.726   0.135   2.385
  369SOL    HW1 1124   1.799   0.118   2.318
  369SOL    HW2 1125   1.695   0.048   2.423
  370SOL     OW 1126   1.388   1.573   2.339
  370SOL    HW1 1127   1.455   1.585   2.265
  370SOL    HW2 1128   1.348   1.662   2.362
  371SOL     OW 1129   0.130   1.794   3.713
  371SOL    HW1 1130   0.089   1.720   3.766
  371SOL    HW2 1131   0.194   1.845   3.771
  372SOL     OW 1132   1.280   0.927   2.534
  372SOL    HW1 1133   1.340   0.846   2.536
  372SOL    HW2 1134   1.320   0.996   2.474
  373SOL     OW 1135   0.830   1.273   3.284
  373SOL    HW1 1136   0.825   1.306   3.379
  373SOL    HW2 1137   0.744   1.292   3.238
  374SOL     OW 1138   0.672   1.616   2.016
  374SOL    HW1 1139   0.681   1.626   1.917
  374SOL    HW2 1140   0.632   1.527   2.037
  375SOL     OW 1141   1.650   1.720   3.256
  375SOL    HW1 1142   1.703   1.730   3.172
  375SOL    HW2 1143   1.623   1.810   3.290
  376SOL     OW 1144   1.841   0.175   2.825
  376SOL    HW1 1145   1.880   0.090   2.789
  376SOL    HW2 1146   1.743   0.177   2.806
  377SOL     OW 1147   0.263   0.326   2.582
  377SOL    HW1 1148   0.184   0.377   2.548
  377SOL    HW2 1149   0.254   0.311   2.680
  378SOL     OW 1150   1.194   1.612   1.893
  378SOL    HW1 1151   1.200   1.519   1.930
  378SOL    HW2 1152   1.135   1.612   1.813
  379SOL     OW 1153   0.822   1.002   3.234
  379SOL    HW1 1154   0.862   1.001   3.142
  379SOL    HW2 1155   0.832   1.094   3.274
  380SOL     OW 1156   0.916   0.910   2.153
  380SOL    HW1 1157   0.979   0.948   2.085
  380SOL    HW2 1158   0.956   0.827   2.192
  381SOL     OW 1159   1.504   1.607   1.906
  381SOL    HW1 1160   1.412   1.644   1.913
  381SOL    HW2 1161   1.542   1.627   1.816
  382SOL     OW 1162   0.372   1.288   3.352
  382SOL    HW1 1163   0.359   1.381   3.318
  382SOL    HW2 1164   0.288   1.236   3.339
  383SOL     OW 1165   1.614   1.292   3.151
  383SOL    HW1 1166   1.674   1.295   3.231
  383SOL    HW2 1167   1.539   1.356   3.164
  384SOL     OW 1168   1.039   1.098   2.558
  384SOL    HW1 1169   0.969   1.051   2.612
  384SOL    HW2 1170   1.098   1.030   2.515
  385SOL     OW 1171   1.014   0.236   2.833
  385SOL    HW1 1172   1.006   0.200   2.740
  385SOL    HW2 1173   1.012   0.160   2.898
  386SOL     OW 1174   0.590   1.487   2.353
  386SOL    HW1 1175   0.632   1.429   2.283
  386SOL    HW2 1176   0.546   1.566   2.309
  387SOL     OW 1177   1.709   0.385   3.243
  387SOL    HW1 1178   1.782   0.454   3.247
  387SOL    HW2 1179   1.737   0.310   3.184
  388SOL     OW 1180   0.255   1.348   2.152
  388SOL    HW1 1181   0.159   1.349   2.125
  388SOL    HW2 1182   0.267   1.401   2.236
  389SOL     OW 1183   0.105   1.013   3.588
  389SOL    HW1 1184   0.028   0.980   3.642
  389SOL    HW2 1185   0.190   0.983   3.630
  390SOL     OW 1186   0.672   0.203   3.351
  390SOL    HW1 1187   0.762   0.187   3.311
  390SOL    HW2 1188   0.680   0.208   3.450
  391SOL     OW 1189   0.075   0.345   1.895
  391SOL    HW1 1190  -0.017   0.317   1.866
  391SOL    HW2 1191   0.106   0.422   1.839
  392SOL     OW 1192   1.440   0.856   3.260
  392SOL    HW1 1193   1.383   0.908   3.197
  392SOL    HW2 1194   1.536   0.868   3.236
  393SOL     OW 1195   0.072   0.166   2.180
  393SOL    HW1 1196   0.055   0.249   2.126
  393SOL    HW2 1197   0.162   0.129   2.158
  394SOL     OW 1198   1.183   1.335   1.981
  394SOL    HW1 1199   1.084   1.324   1.983
  394SOL    HW2 1200   1.217   1.350   2.074
  395SOL     OW 1201   0.613   0.842   3.293
  395SOL    HW1 1202   0.669   0.923   3.276
  395SOL    HW2 1203   0.672   0.762   3.296
  396SOL     OW 1204   1.493   1.767   2.821
  396SOL    HW1 1205   1.526   1.831   2.752
  396SOL    HW2 1206   1.559   1.761   2.896
  397SOL     OW 1207   0.716   0.565   3.570
  397SOL    HW1 1208   0.735   0.630   3.644
  397SOL    HW2 1209   0.776   0.485   3.579
  398SOL     OW 1210   1.450   1.220   3.495
  398SOL    HW1 1211   1.441   1.210   3.594
  398SOL    HW2 1212   1.546   1.213   3.469
  399SOL     OW 1213   0.390   1.741   3.422
  399SOL    HW1 1214   0.299   1.782   3.420
  399SOL    HW2 1215   0.383   1.647   3.454
  400SOL     OW 1216   1.674   0.883   3.116
  400SOL    HW1 1217   1.647   0.794   3.079
  400SOL    HW2 1218   1.675   0.951   3.043
  401SOL     OW 1219   1.225   0.325   2.311
  401SOL    HW1 1220   1.290   0.251   2.300
  401SOL    HW2 1221   1.245   0.375   2.395
  402SOL     OW 1222   0.594   0.745   2.514
  402SOL    HW1 1223   0.644   0.830   2.495
  402SOL    HW2 1224   0.506   0.747   2.466
  403SOL     OW 1225   1.777   0.342   3.504
  403SOL    HW1 1226   1.760   0.373   3.410
  403SOL    HW2 1227   1.693   0.305   3.542
  404SOL     OW 1228   1.730   0.934   3.379
  404SOL    HW1 1229   1.768   1.025   3.394
  404SOL    HW2 1230   1.722   0.917   3.280
  405SOL     OW 1231   0.859   1.374   1.878
  405SOL    HW1 1232   0.813   1.389   1.966
  405SOL    HW2 1233   0.903   1.459   1.848
  406SOL     OW 1234   0.661   1.790   2.815
  406SOL    HW1 1235   0.615   1.878   2.802
  406SOL    HW2 1236   0.760   1.802   2.808
  407SOL     OW 1237   0.859   0.956   2.723
  407SOL    HW1 1238   0.913   0.887   2.771
  407SOL    HW2 1239   0.827   1.025   2.789
  408SOL     OW 1240   1.083   0.984   1.949
  408SOL    HW1 1241   1.060   1.037   1.867
  408SOL    HW2 1242   1.164   0.928   1.930
  409SOL     OW 1243   1.861   1.569   2.713
  409SOL    HW1 1244   1.790   1.557   2.643
  409SOL    HW2 1245   1.862   1.490   2.773
  410SOL     OW 1246   0.221   1.314   3.706
  410SOL    HW1 1247   0.156   1.241   3.685
  410SOL    HW2 1248   0.225   1.328   3.804
  411SOL     OW 1249   0.079   1.240   2.515
  411SOL    HW1 1250   0.078   1.193   2.603
  411SOL    HW2 1251   0.161   1.212   2.464
  412SOL     OW 1252   0.672   1.391   3.486
  412SOL    HW1 1253   0.594   1.341   3.524
  412SOL    HW2 1254   0.669   1.486   3.517
  413SOL     OW 1255   1.824   0.192   3.089
  413SOL    HW1 1256   1.820   0.102   3.133
  413SOL    HW2 1257   1.827   0.181   2.990
  414SOL     OW 1258   0.428   0.424   2.382
  414SOL    HW1 1259   0.458   0.352   2.320
  414SOL    HW2 1260   0.389   0.384   2.465
  415SOL     OW 1261   1.705   1.487   2.966
  415SOL    HW1 1262   1.612   1.462   2.939
  415SOL    HW2 1263   1.731   1.437   3.048
  416SOL     OW 1264   0.317   0.547   3.142
  416SOL    HW1 1265   0.355   0.488   3.214
  416SOL    HW2 1266   0.357   0.521   3.054
  417SOL     OW 1267   0.812   1.586   2.549
  417SOL    HW1 1268   0.844   1.596   2.455
  417SOL    HW2 1269   0.733   1.524   2.551
  418SOL     OW 1270   1.424   0.214   2.974
  418SOL    HW1 1271   1.476   0.149   3.029
  418SOL    HW2 1272   1.375   0.277   3.035
  419SOL     OW 1273   1.001   0.034   3.016
  419SOL    HW1 1274   0.938  -0.038   2.985
  419SOL    HW2 1275   1.094  -0.002   3.016
  420SOL     OW 1276   0.770   1.330   2.163
  420SOL    HW1 1277   0.724   1.243   2.180
  420SOL    HW2 1278   0.861   1.327   2.204
  421SOL     OW 1279   0.618   1.567   3.146
  421SOL    HW1 1280   0.613   1.649   3.203
  421SOL    HW2 1281   0.707   1.564   3.101
  422SOL     OW 1282   1.352   0.052   2.030
  422SOL    HW1 1283   1.387   0.011   1.946
  422SOL    HW2 1284   1.262   0.014   2.050
  423SOL     OW 1285   1.300   0.453   2.553
  423SOL    HW1 1286   1.241   0.533   2.557
  423SOL    HW2 1287   1.315   0.418   2.646
  424SOL     OW 1288   1.593   0.221   2.744
  424SOL    HW1 1289   1.509   0.220   2.798
  424SOL    HW2 1290   1.595   0.304   2.688
  425SOL     OW 1291   0.039   1.077   2.162
  425SOL    HW1 1292   0.138   1.066   2.153
  425SOL    HW2 1293  -0.001   0.991   2.194
  426SOL     OW 1294   0.875   1.646   2.199
  426SOL    HW1 1295   0.798   1.611   2.145
  426SOL    HW2 1296   0.843   1.717   2.261
  427SOL     OW 1297   0.230   0.628   3.837
  427SOL    HW1 1298   0.137   0.626   3.874
  427SOL    HW2 1299   0.231   0.589   3.745
  428SOL     OW 1300   0.225   0.275   4.720
  428SOL    HW1 1301   0.260   0.258   4.812
  428SOL    HW2 1302   0.137   0.230   4.708
  429SOL     OW 1303   0.019   0.368   4.371
  429SOL    HW1 1304  -0.063   0.411   4.410
  429SOL    HW2 1305  -0.009   0.295   4.308
  430SOL     OW 1306   1.555   1.511   4.427
  430SOL    HW1 1307   1.498   1.495   4.508
  430SOL    HW2 1308   1.496   1.521   4.347
  431SOL     OW 1309   1.135   0.703   4.441
  431SOL    HW1 1310   1.192   0.781   4.416
  431SOL    HW2 1311   1.075   0.729   4.517
  432SOL     OW 1312   1.755   0.607   3.955
  432SOL    HW1 1313   1.743   0.594   3.856
  432SOL    HW2 1314   1.725   0.526   4.004
  433SOL     OW 1315   0.768   1.144   4.747
  433SOL    HW1 1316   0.690   1.161   4.807
  433SOL    HW2 1317   0.802   1.231   4.711
  434SOL     OW 1318   0.685   1.012   4.389
  434SOL    HW1 1319   0.754   0.996   4.459
  434SOL    HW2 1320   0.612   1.069   4.427
  435SOL     OW 1321   0.335   1.435   4.785
  435SOL    HW1 1322   0.257   1.404   4.732
  435SOL    HW2 1323   0.393   1.493   4.728
  436SOL     OW 1324   1.603   0.447   4.461
  436SOL    HW1 1325   1.529   0.493   4.411
  436SOL    HW2 1326   1.654   0.515   4.514
  437SOL     OW 1327   0.231   1.713   4.207
  437SOL    HW1 1328   0.265   1.790   4.261
  437SOL    HW2 1329   0.275   1.713   4.117
  438SOL     OW 1330   0.230   1.434   4.262
  438SOL    HW1 1331   0.204   1.530   4.262
  438SOL    HW2 1332   0.159   1.380   4.307
  439SOL     OW 1333   0.240   1.091   4.610
  439SOL    HW1 1334   0.254   1.007   4.662
  439SOL    HW2 1335   0.185   1.155   4.665
  440SOL     OW 1336   0.606   0.964   3.847
  440SOL    HW1 1337   0.613   1.048   3.793
  440SOL    HW2 1338   0.652   0.977   3.935
  441SOL     OW 1339   0.122   0.643   4.287
  441SOL    HW1 1340   0.077   0.555   4.304
  441SOL    HW2 1341   0.121   0.697   4.371
  442SOL     OW 1342   1.842   1.767   4.083
  442SOL    HW1 1343   1.896   1.738   4.163
  442SOL    HW2 1344   1.872   1.857   4.054
  443SOL     OW 1345   0.027   1.596   3.841
  443SOL    HW1 1346   0.008   1.500   3.862
  443SOL    HW2 1347  -0.006   1.654   3.916
  444SOL     OW 1348   1.689   0.922   4.336
  444SOL    HW1 1349   1.784   0.893   4.344
  444SOL    HW2 1350   1.681   0.987   4.261
  445SOL     OW 1351   1.641   1.108   4.156
  445SOL    HW1 1352   1.727   1.110   4.104
  445SOL    HW2 1353   1.655   1.155   4.244
  446SOL     OW 1354   0.613   1.365   4.450
  446SOL    HW1 1355   0.564   1.278   4.459
  446SOL    HW2 1356   0.590   1.408   4.363
  447SOL     OW 1357   0.809   0.004   4.226
  447SOL    HW1 1358   0.849   0.095   4.217
  447SOL    HW2 1359   0.709   0.012   4.232
  448SOL     OW 1360   0.197   0.976   4.988
  448SOL    HW1 1361   0.286   0.931   4.974
  448SOL    HW2 1362   0.124   0.911   4.969
  449SOL     OW 1363   1.525   0.999   3.914
  449SOL    HW1 1364   1.462   0.923   3.927
  449SOL    HW2 1365   1.573   1.017   4.000
  450SOL     OW 1366   1.466   1.417   4.677
  450SOL    HW1 1367   1.407   1.423   4.757
  450SOL    HW2 1368   1.451   1.329   4.631
  451SOL     OW 1369   1.667   1.714   4.296
  451SOL    HW1 1370   1.626   1.691   4.208
  451SOL    HW2 1371   1.649   1.640   4.361
  452SOL     OW 1372   0.598   0.729   3.994
  452SOL    HW1 1373   0.622   0.798   3.926
  452SOL    HW2 1374   0.520   0.762   4.048
  453SOL     OW 1375   1.281   0.345   4.668
  453SOL    HW1 1376   1.195   0.295   4.655
  453SOL    HW2 1377   1.343   0.291   4.724
  454SOL     OW 1378   1.576   1.662   4.031
  454SOL    HW1 1379   1.665   1.708   4.034
  454SOL    HW2 1380   1.555   1.638   3.936
  455SOL     OW 1381   1.041   0.701   4.153
  455SOL    HW1 1382   1.067   0.697   4.249
  455SOL    HW2 1383   0.956   0.650   4.139
  456SOL     OW 1384   0.076   0.811   4.513
  456SOL    HW1 1385   0.175   0.799   4.522
  456SOL    HW2 1386   0.052   0.906   4.534
  457SOL     OW 1387   0.865   0.348   3.919
  457SOL    HW1 1388   0.924   0.411   3.870
  457SOL    HW2 1389   0.884   0.254   3.890
  458SOL     OW 1390   1.362   1.144   4.269
  458SOL    HW1 1391   1.445   1.115   4.221
  458SOL    HW2 1392   1.313   1.211   4.213
  459SOL     OW 1393   0.550   0.196   4.609
  459SOL    HW1 1394   0.545   0.191   4.709
  459SOL    HW2 1395   0.552   0.292   4.580
  460SOL     OW 1396   1.008   1.456   4.201
  460SOL    HW1 1397   0.962   1.528   4.149
  460SOL    HW2 1398   1.004   1.476   4.299
  461SOL     OW 1399   0.351   1.801   4.577
  461SOL    HW1 1400   0.401   1.715   4.583
  461SOL    HW2 1401   0.416   1.878   4.574
  462SOL     OW 1402   1.795   1.066   4.597
  462SOL    HW1 1403   1.733   1.051   4.521
  462SOL    HW2 1404   1.743   1.077   4.682
  463SOL     OW 1405   0.321   0.943   3.966
  463SOL    HW1 1406   0.403   0.982   3.924
  463SOL    HW2 1407   0.294   0.861   3.917
  464SOL     OW 1408   1.458   0.735   4.452
  464SOL    HW1 1409   1.453   0.670   4.527
  464SOL    HW2 1410   1.538   0.794   4.465
  465SOL     OW 1411   1.111   1.776   3.961
  465SOL    HW1 1412   1.051   1.714   4.011
  465SOL    HW2 1413   1.142   1.732   3.876
  466SOL     OW 1414   1.632   1.377   3.805
  466SOL    HW1 1415   1.600   1.471   3.795
  466SOL    HW2 1416   1.556   1.314   3.793
  467SOL     OW 1417   0.464   1.743   4.047
  467SOL    HW1 1418   0.497   1.782   4.133
  467SOL    HW2 1419   0.540   1.736   3.982
  468SOL     OW 1420   1.400   0.107   4.150
  468SOL    HW1 1421   1.376   0.070   4.060
  468SOL    HW2 1422   1.499   0.123   4.154
  469SOL     OW 1423   0.249   1.785   4.965
  469SOL    HW1 1424   0.306   1.720   5.015
  469SOL    HW2 1425   0.233   1.752   4.872
  470SOL     OW 1426   0.940   1.698   4.628
  470SOL    HW1 1427   1.020   1.641   4.649
  470SOL    HW2 1428   0.891   1.658   4.551
  471SOL     OW 1429   0.382   0.700   4.204
  471SOL    HW1 1430   0.427   0.610   4.201
  471SOL    HW2 1431   0.288   0.689   4.237
  472SOL     OW 1432   0.614   0.122   3.841
  472SOL    HW1 1433   0.712   0.100   3.848
  472SOL    HW2 1434   0.583   0.105   3.748
  473SOL     OW 1435   0.803   1.402   4.648
  473SOL    HW1 1436   0.893   1.416   4.606
  473SOL    HW2 1437   0.732   1.404   4.577
  474SOL     OW 1438   0.922   0.503   4.623
  474SOL    HW1 1439   0.897   0.494   4.527
  474SOL    HW2 1440   0.970   0.421   4.654
  475SOL     OW 1441   0.539   0.064   4.236
  475SOL    HW1 1442   0.458   0.065   4.294
  475SOL    HW2 1443   0.542   0.147   4.181
  476SOL     OW 1444   1.434   1.188   3.765
  476SOL    HW1 1445   1.466   1.112   3.822
  476SOL    HW2 1446   1.342   1.215   3.795
  477SOL     OW 1447   0.297   0.035   3.895
  477SOL    HW1 1448   0.346   0.119   3.874
  477SOL    HW2 1449   0.359  -0.030   3.940
  478SOL     OW 1450   0.935   0.236   4.204
  478SOL    HW1 1451   0.887   0.277   4.126
  478SOL    HW2 1452   1.034   0.234   4.185
  479SOL     OW 1453   1.227   1.570   4.517
  479SOL    HW1 1454   1.248   1.644   4.452
  479SOL    HW2 1455   1.295   1.570   4.590
  480SOL     OW 1456   0.459   1.152   4.465
  480SOL    HW1 1457   0.388   1.125   4.530
  480SOL    HW2 1458   0.433   1.124   4.372
  481SOL     OW 1459   1.271   1.797   4.315
  481SOL    HW1 1460   1.315   1.861   4.251
  481SOL    HW2 1461   1.221   1.849   4.385
  482SOL     OW 1462   1.032   0.549   3.740
  482SOL    HW1 1463   0.991   0.631   3.701
  482SOL    HW2 1464   1.096   0.575   3.813
  483SOL     OW 1465   0.866   0.454   4.366
  483SOL    HW1 1466   0.834   0.526   4.304
  483SOL    HW2 1467   0.890   0.373   4.313
  484SOL     OW 1468   1.017   0.039   4.477
  484SOL    HW1 1469   0.945   0.044   4.408
  484SOL    HW2 1470   0.993  -0.030   4.546
  485SOL     OW 1471   1.429   1.173   4.591
  485SOL    HW1 1472   1.374   1.089   4.584
  485SOL    HW2 1473   1.455   1.202   4.499
  486SOL     OW 1474   1.466   0.590   4.716
  486SOL    HW1 1475   1.436   0.495   4.723
  486SOL    HW2 1476   1.539   0.606   4.782
  487SOL     OW 1477   1.857   0.833   4.101
  487SOL    HW1 1478   1.899   0.769   4.165
  487SOL    HW2 1479   1.819   0.782   4.023
  488SOL     OW 1480   0.488   1.385   3.898
  488SOL    HW1 1481   0.401   1.370   3.945
  488SOL    HW2 1482   0.471   1.411   3.803
  489SOL     OW 1483   1.664   1.280   4.381
  489SOL    HW1 1484   1.763   1.288   4.395
  489SOL    HW2 1485   1.619   1.364   4.412
  490SOL     OW 1486   1.390   0.575   3.802
  490SOL    HW1 1487   1.336   0.554   3.883
  490SOL    HW2 1488   1.481   0.534   3.811
  491SOL     OW 1489   0.527   0.256   4.052
  491SOL    HW1 1490   0.554   0.197   3.977
  491SOL    HW2 1491   0.527   0.351   4.021
  492SOL     OW 1492   1.111   1.195   4.824
  492SOL    HW1 1493   1.071   1.239   4.905
  492SOL    HW2 1494   1.070   1.232   4.741
  493SOL     OW 1495   1.638   1.099   4.803
  493SOL    HW1 1496   1.643   1.180   4.862
  493SOL    HW2 1497   1.552   1.101   4.752
  494SOL     OW 1498   0.705   1.050   4.092
  494SOL    HW1 1499   0.691   1.057   4.191
  494SOL    HW2 1500   0.789   0.999   4.074
  495SOL     OW 1501   0.410   0.813   4.975
  495SOL    HW1 1502   0.496   0.825   5.025
  495SOL    HW2 1503   0.368   0.726   5.002
  496SOL     OW 1504   0.367   1.100   4.225
  496SOL    HW1 1505   0.360   1.183   4.169
  496SOL    HW2 1506   0.371   1.020   4.165
  497SOL     OW 1507   0.566   0.537   4.589
  497SOL    HW1 1508   0.578   0.603   4.515
  497SOL    HW2 1509   0.612   0.571   4.672
  498SOL     OW 1510   1.252   1.348   4.112
  498SOL    HW1 1511   1.302   1.425   4.152
  498SOL    HW2 1512   1.157   1.350   4.144
  499SOL     OW 1513   1.582   0.639   4.196
  499SOL    HW1 1514   1.551   0.700   4.269
  499SOL    HW2 1515   1.632   0.691   4.127
  500SOL     OW 1516   0.354   1.510   5.053
  500SOL    HW1 1517   0.333   1.466   4.966
  500SOL    HW2 1518   0.451   1.536   5.056
  501SOL     OW 1519   0.573   0.870   4.753
  501SOL    HW1 1520   0.617   0.959   4.744
  501SOL    HW2 1521   0.510   0.870   4.830
  502SOL     OW 1522   1.209   0.525   3.999
  502SOL    HW1 1523   1.222   0.441   4.053
  502SOL    HW2 1524   1.180   0.599   4.059
  503SOL     OW 1525   0.732   0.634   4.788
  503SOL    HW1 1526   0.791   0.608   4.712
  503SOL    HW2 1527   0.704   0.730   4.777
  504SOL     OW 1528   0.307   0.063   4.342
  504SOL    HW1 1529   0.296   0.157   4.375
  504SOL    HW2 1530   0.302   0.000   4.419
  505SOL     OW 1531   1.622   0.367   4.098
  505SOL    HW1 1532   1.624   0.291   4.162
  505SOL    HW2 1533   1.574   0.444   4.138
  506SOL     OW 1534   1.023   0.766   4.690
  506SOL    HW1 1535   1.038   0.787   4.786
  506SOL    HW2 1536   0.993   0.671   4.681
  507SOL     OW 1537   1.540   0.274   3.849
  507SOL    HW1 1538   1.479   0.199   3.872
  507SOL    HW2 1539   1.562   0.326   3.932
  508SOL     OW 1540   1.303   0.838   3.766
  508SOL    HW1 1541   1.337   0.745   3.781
  508SOL    HW2 1542   1.321   0.865   3.671
  509SOL     OW 1543   1.068   1.333   4.573
  509SOL    HW1 1544   1.075   1.249   4.518
  509SOL    HW2 1545   1.130   1.402   4.537
  510SOL     OW 1546   0.319   0.810   4.673
  510SOL    HW1 1547   0.412   0.846   4.678
  510SOL    HW2 1548   0.313   0.725   4.725
  511SOL     OW 1549   0.339   0.509   4.730
  511SOL    HW1 1550   0.287   0.426   4.713
  511SOL    HW2 1551   0.416   0.514   4.666
  512SOL     OW 1552   0.008   1.326   3.924
  512SOL    HW1 1553  -0.085   1.347   3.893
  512SOL    HW2 1554   0.018   1.227   3.937
  513SOL     OW 1555   0.088   1.801   4.651
  513SOL    HW1 1556   0.046   1.715   4.624
  513SOL    HW2 1557   0.182   1.804   4.617
  514SOL     OW 1558   0.504   1.568   4.634
  514SOL    HW1 1559   0.570   1.642   4.643
  514SOL    HW2 1560   0.548   1.489   4.592
  515SOL     OW 1561   1.002   0.796   4.962
  515SOL    HW1 1562   1.043   0.764   5.048
  515SOL    HW2 1563   0.906   0.769   4.959
  516SOL     OW 1564   0.815   0.572   4.049
  516SOL    HW1 1565   0.822   0.483   4.003
  516SOL    HW2 1566   0.721   0.606   4.041
  517SOL     OW 1567   0.671   0.464   4.993
  517SOL    HW1 1568   0.637   0.375   4.963
  517SOL    HW2 1569   0.697   0.518   4.913
  518SOL     OW 1570   0.473   0.500   3.915
  518SOL    HW1 1571   0.534   0.580   3.919
  518SOL    HW2 1572   0.378   0.531   3.922
  519SOL     OW 1573   1.302   0.855   4.033
  519SOL    HW1 1574   1.216   0.824   4.075
  519SOL    HW2 1575   1.298   0.841   3.934
  520SOL     OW 1576   1.759   1.747   4.878
  520SOL    HW1 1577   1.820   1.777   4.805
  520SOL    HW2 1578   1.721   1.658   4.856
  521SOL     OW 1579   0.083   1.258   4.746
  521SOL    HW1 1580   0.078   1.257   4.846
  521SOL    HW2 1581   0.000   1.217   4.708
  522SOL     OW 1582   1.726   0.135   4.247
  522SOL    HW1 1583   1.799   0.118   4.180
  522SOL    HW2 1584   1.695   0.048   4.285
  523SOL     OW 1585   1.388   1.573   4.201
  523SOL    HW1 1586   1.455   1.585   4.127
  523SOL    HW2 1587   1.348   1.662   4.224
  524SOL     OW 1588   1.280   0.927   4.396
  524SOL    HW1 1589   1.340   0.846   4.398
  524SOL    HW2 1590   1.320   0.996   4.336
  525SOL     OW 1591   0.672   1.616   3.878
  525SOL    HW1 1592   0.681   1.626   3.779
  525SOL    HW2 1593   0.632   1.527   3.899
  526SOL     OW 1594   1.841   0.175   4.687
  526SOL    HW1 1595   1.880   0.090   4.651
  526SOL    HW2 1596   1.743   0.177   4.668
  527SOL     OW 1597   0.263   0.326   4.444
  527SOL    HW1 1598   0.184   0.377   4.410
  527SOL    HW2 1599   0.254   0.311   4.542
  528SOL     OW 1600   1.194   1.612   3.755
  528SOL    HW1 1601   1.200   1.519   3.792
  528SOL    HW2 1602   1.135   1.612   3.675
  529SOL     OW 1603   0.916   0.910   4.015
  529SOL    HW1 1604   0.979   0.948   3.947
  529SOL    HW2 1605   0.956   0.827   4.054
  530SOL     OW 1606   1.504   1.607   3.768
  530SOL    HW1 1607   1.412   1.644   3.775
  530SOL    HW2 1608   1.542   1.627   3.678
  531SOL     OW 1609   1.039   1.098   4.420
  531SOL    HW1 1610   0.969   1.051   4.474
  531SOL    HW2 1611   1.098   1.030   4.377
  532SOL     OW 1612   1.014   0.236   4.695
  532SOL    HW1 1613   1.006   0.200   4.602
  532SOL    HW2 1614   1.012   0.160   4.760
  533SOL     OW 1615   0.590   1.487   4.215
  533SOL    HW1 1616   0.632   1.429   4.145
  533SOL    HW2 1617   0.546   1.566   4.171
  534SOL     OW 1618   0.255   1.348   4.014
  534SOL    HW1 1619   0.159   1.349   3.987
  534SOL    HW2 1620   0.267   1.401   4.098
  535SOL     OW 1621   0.075   0.345   3.757
  535SOL    HW1 1622  -0.017   0.317   3.728
  535SOL    HW2 1623   0.106   0.422   3.701
  536SOL     OW 1624   0.072   0.166   4.042
  536SOL    HW1 1625   0.055   0.249   3.988
  536SOL    HW2 1626   0.162   0.129   4.020
  537SOL     OW 1627   1.183   1.335   3.843
  537SOL    HW1 1628   1.084   1.324   3.845
  537SOL    HW2 1629   1.217   1.350   3.936
  538SOL     OW 1630   1.493   1.767   4.683
  538SOL    HW1 1631   1.526   1.831   4.614
  538SOL    HW2 1632   1.559   1.761   4.758
  539SOL     OW 1633   1.674   0.883   4.978
  539SOL    HW1 1634   1.647   0.794   4.941
  539SOL    HW2 1635   1.675   0.951   4.905
  540SOL     OW 1636   1.225   0.325   4.173
  540SOL    HW1 1637   1.290   0.251   4.162
  540SOL    HW2 1638   1.245   0.375   4.257
  541SOL     OW 1639   0.594   0.745   4.376
  541SOL    HW1 1640   0.644   0.830   4.357
  541SOL    HW2 1641   0.506   0.747   4.328
  542SOL     OW 1642   0.859   1.374   3.740
  542SOL    HW1 1643   0.813   1.389   3.828
  542SOL    HW2 1644   0.903   1.459   3.710
  543SOL     OW 1645   0.661   1.790   4.677
  543SOL    HW1 1646   0.615   1.878   4.664
  543SOL    HW2 1647   0.760   1.802   4.670
  544SOL     OW 1648   0.859   0.956   4.585
  544SOL    HW1 1649   0.913   0.887   4.633
  544SOL    HW2 1650   0.827   1.025   4.651
  545SOL     OW 1651   1.083   0.984   3.811
  545SOL    HW1 1652   1.060   1.037   3.729
  545SOL    HW2 1653   1.164   0.928   3.792
  546SOL     OW 1654   1.861   1.569   4.575
  546SOL    HW1 1655   1.790   1.557   4.505
  546SOL    HW2 1656   1.862   1.490   4.635
  547SOL     OW 1657   0.079   1.240   4.377
  547SOL    HW1 1658   0.078   1.193   4.465
  547SOL    HW2 1659   0.161   1.212   4.326
  548SOL     OW 1660   1.824   0.192   4.951
  548SOL    HW1 1661   1.820   0.102   4.995
  548SOL    HW2 1662   1.827   0.181   4.852
  549SOL     OW 1663   0.428   0.424   4.244
  549SOL    HW1 1664   0.458   0.352   4.182
  549SOL    HW2 1665   0.389   0.384   4.327
  550SOL     OW 1666   0.812   1.586   4.411
  550SOL    HW1 1667   0.844   1.596   4.317
  550SOL    HW2 1668   0.733   1.524   4.413
  551SOL     OW 1669   1.424   0.214   4.836
  551SOL    HW1 1670   1.476   0.149   4.891
  551SOL    HW2 1671   1.375   0.277   4.897
  552SOL     OW 1672   0.770   1.330   4.025
  552SOL    HW1 1673   0.724   1.243   4.042
  552SOL    HW2 1674   0.861   1.327   4.066
  553SOL     OW 1675   1.352   0.052   3.892
  553SOL    HW1 1676   1.387   0.011   3.808
  553SOL    HW2 1677   1.262   0.014   3.912
  554SOL     OW 1678   1.300   0.453   4.415
  554SOL    HW1 1679   1.241   0.533   4.419
  554SOL    HW2 1680   1.315   0.418   4.508
  555SOL     OW 1681   1.593   0.221   4.606
  555SOL    HW1 1682   1.509   0.220   4.660
  555SOL    HW2 1683   1.595   0.304   4.550
  556SOL     OW 1684   0.039   1.077   4.024
  556SOL    HW1 1685   0.138   1.066   4.015
  556SOL    HW2 1686  -0.001   0.991   4.056
  557SOL     OW 1687   0.875   1.646   4.061
  557SOL    HW1 1688   0.798   1.611   4.007
  557SOL    HW2 1689   0.843   1.717   4.123
  558SOL     OW 1690   0.230   2.490   0.113
  558SOL    HW1 1691   0.137   2.488   0.150
  558SOL    HW2 1692   0.231   2.451   0.021
  559SOL     OW 1693   0.225   2.137   0.996
  559SOL    HW1 1694   0.260   2.120   1.088
  559SOL    HW2 1695   0.137   2.092   0.984
  560SOL     OW 1696   0.019   2.230   0.647
  560SOL    HW1 1697  -0.063   2.273   0.686
  560SOL    HW2 1698  -0.009   2.157   0.584
  561SOL     OW 1699   0.569   3.137   1.165
  561SOL    HW1 1700   0.476   3.130   1.128
  561SOL    HW2 1701   0.580   3.226   1.209
  562SOL     OW 1702   1.555   3.373   0.703
  562SOL    HW1 1703   1.498   3.357   0.784
  562SOL    HW2 1704   1.496   3.383   0.623
  563SOL     OW 1705   1.135   2.565   0.717
  563SOL    HW1 1706   1.192   2.643   0.692
  563SOL    HW2 1707   1.075   2.591   0.793
  564SOL     OW 1708   1.755   2.469   0.231
  564SOL    HW1 1709   1.743   2.456   0.132
  564SOL    HW2 1710   1.725   2.388   0.280
  565SOL     OW 1711   0.768   3.006   1.023
  565SOL    HW1 1712   0.690   3.023   1.083
  565SOL    HW2 1713   0.802   3.093   0.987
  566SOL     OW 1714   0.850   2.660   1.823
  566SOL    HW1 1715   0.846   2.736   1.888
  566SOL    HW2 1716   0.872   2.696   1.732
  567SOL     OW 1717   0.685   2.874   0.665
  567SOL    HW1 1718   0.754   2.858   0.735
  567SOL    HW2 1719   0.612   2.931   0.703
  568SOL     OW 1720   0.686   3.023   1.803
  568SOL    HW1 1721   0.746   3.102   1.817
  568SOL    HW2 1722   0.600   3.054   1.762
  569SOL     OW 1723   0.335   3.297   1.061
  569SOL    HW1 1724   0.257   3.266   1.008
  569SOL    HW2 1725   0.393   3.355   1.004
  570SOL     OW 1726   1.460   3.367   1.339
  570SOL    HW1 1727   1.484   3.461   1.365
  570SOL    HW2 1728   1.444   3.313   1.421
  571SOL     OW 1729   0.438   2.254   1.499
  571SOL    HW1 1730   0.520   2.198   1.508
  571SOL    HW2 1731   0.357   2.196   1.503
  572SOL     OW 1732   1.603   2.309   0.737
  572SOL    HW1 1733   1.529   2.355   0.687
  572SOL    HW2 1734   1.654   2.377   0.790
  573SOL     OW 1735   0.231   3.575   0.483
  573SOL    HW1 1736   0.265   3.652   0.537
  573SOL    HW2 1737   0.275   3.575   0.393
  574SOL     OW 1738   1.127   3.203   1.690
  574SOL    HW1 1739   1.174   3.203   1.778
  574SOL    HW2 1740   1.079   3.116   1.679
  575SOL     OW 1741   0.230   3.296   0.538
  575SOL    HW1 1742   0.204   3.392   0.538
  575SOL    HW2 1743   0.159   3.242   0.583
  576SOL     OW 1744   0.240   2.953   0.886
  576SOL    HW1 1745   0.254   2.869   0.938
  576SOL    HW2 1746   0.185   3.017   0.941
  577SOL     OW 1747   0.620   3.648   1.439
  577SOL    HW1 1748   0.528   3.631   1.474
  577SOL    HW2 1749   0.648   3.740   1.465
  578SOL     OW 1750   0.606   2.826   0.123
  578SOL    HW1 1751   0.613   2.910   0.069
  578SOL    HW2 1752   0.652   2.839   0.211
  579SOL     OW 1753   1.594   1.976   1.480
  579SOL    HW1 1754   1.576   2.043   1.408
  579SOL    HW2 1755   1.591   2.022   1.569
  580SOL     OW 1756   0.122   2.505   0.563
  580SOL    HW1 1757   0.077   2.417   0.580
  580SOL    HW2 1758   0.121   2.559   0.647
  581SOL     OW 1759   1.842   3.629   0.359
  581SOL    HW1 1760   1.896   3.600   0.439
  581SOL    HW2 1761   1.872   3.719   0.330
  582SOL     OW 1762   0.027   3.458   0.117
  582SOL    HW1 1763   0.008   3.362   0.138
  582SOL    HW2 1764  -0.006   3.516   0.192
  583SOL     OW 1765   1.689   2.784   0.612
  583SOL    HW1 1766   1.784   2.755   0.620
  583SOL    HW2 1767   1.681   2.849   0.537
  584SOL     OW 1768   1.641   2.970   0.432
  584SOL    HW1 1769   1.727   2.972   0.380
  584SOL    HW2 1770   1.655   3.017   0.520
  585SOL     OW 1771   0.113   2.599   1.597
  585SOL    HW1 1772   0.201   2.586   1.642
  585SOL    HW2 1773   0.100   2.696   1.575
  586SOL     OW 1774   0.613   3.227   0.726
  586SOL    HW1 1775   0.564   3.140   0.735
  586SOL    HW2 1776   0.590   3.270   0.639
  587SOL     OW 1777   1.293   3.090   1.423
  587SOL    HW1 1778   1.330   3.017   1.365
  587SOL    HW2 1779   1.345   3.095   1.508
  588SOL     OW 1780   0.809   1.866   0.502
  588SOL    HW1 1781   0.849   1.957   0.493
  588SOL    HW2 1782   0.709   1.874   0.508
  589SOL     OW 1783   0.197   2.838   1.264
  589SOL    HW1 1784   0.286   2.793   1.250
  589SOL    HW2 1785   0.124   2.773   1.245
  590SOL     OW 1786   1.525   2.861   0.190
  590SOL    HW1 1787   1.462   2.785   0.203
  590SOL    HW2 1788   1.573   2.879   0.276
  591SOL     OW 1789   1.187   3.654   1.616
  591SOL    HW1 1790   1.211   3.714   1.540
  591SOL    HW2 1791   1.194   3.559   1.586
  592SOL     OW 1792   0.317   2.113   1.801
  592SOL    HW1 1793   0.388   2.184   1.807
  592SOL    HW2 1794   0.229   2.152   1.829
  593SOL     OW 1795   1.466   3.279   0.953
  593SOL    HW1 1796   1.407   3.285   1.033
  593SOL    HW2 1797   1.451   3.191   0.907
  594SOL     OW 1798   1.667   3.576   0.572
  594SOL    HW1 1799   1.626   3.553   0.484
  594SOL    HW2 1800   1.649   3.502   0.637
  595SOL     OW 1801   0.598   2.591   0.270
  595SOL    HW1 1802   0.622   2.660   0.202
  595SOL    HW2 1803   0.520   2.624   0.324
  596SOL     OW 1804   1.281   2.207   0.944
  596SOL    HW1 1805   1.195   2.157   0.931
  596SOL    HW2 1806   1.343   2.153   1.000
  597SOL     OW 1807   1.576   3.524   0.307
  597SOL    HW1 1808   1.665   3.570   0.310
  597SOL    HW2 1809   1.555   3.500   0.212
  598SOL     OW 1810   0.807   2.467   1.465
  598SOL    HW1 1811   0.760   2.464   1.554
  598SOL    HW2 1812   0.756   2.412   1.399
  599SOL     OW 1813   1.394   2.331   1.674
  599SOL    HW1 1814   1.374   2.374   1.762
  599SOL    HW2 1815   1.472   2.269   1.683
  600SOL     OW 1816   0.973   2.752   1.572
  600SOL    HW1 1817   1.019   2.668   1.543
  600SOL    HW2 1818   0.917   2.786   1.497
  601SOL     OW 1819   0.991   2.272   1.242
  601SOL    HW1 1820   0.914   2.306   1.296
  601SOL    HW2 1821   0.957   2.221   1.163
  602SOL     OW 1822   1.041   2.563   0.429
  602SOL    HW1 1823   1.067   2.559   0.525
  602SOL    HW2 1824   0.956   2.512   0.415
  603SOL     OW 1825   0.076   2.673   0.789
  603SOL    HW1 1826   0.175   2.661   0.798
  603SOL    HW2 1827   0.052   2.768   0.810
  604SOL     OW 1828   0.130   3.683   1.571
  604SOL    HW1 1829   0.120   3.668   1.670
  604SOL    HW2 1830   0.044   3.719   1.535
  605SOL     OW 1831   0.865   2.210   0.195
  605SOL    HW1 1832   0.924   2.273   0.146
  605SOL    HW2 1833   0.884   2.116   0.166
  606SOL     OW 1834   1.719   2.447   1.831
  606SOL    HW1 1835   1.693   2.536   1.795
  606SOL    HW2 1836   1.717   2.379   1.758
  607SOL     OW 1837   1.362   3.006   0.545
  607SOL    HW1 1838   1.445   2.977   0.497
  607SOL    HW2 1839   1.313   3.073   0.489
  608SOL     OW 1840   0.550   2.058   0.885
  608SOL    HW1 1841   0.545   2.053   0.985
  608SOL    HW2 1842   0.552   2.154   0.856
  609SOL     OW 1843   1.008   3.318   0.477
  609SOL    HW1 1844   0.962   3.390   0.425
  609SOL    HW2 1845   1.004   3.338   0.575
  610SOL     OW 1846   0.351   3.663   0.853
  610SOL    HW1 1847   0.401   3.577   0.859
  610SOL    HW2 1848   0.416   3.740   0.850
  611SOL     OW 1849   1.795   2.928   0.873
  611SOL    HW1 1850   1.733   2.913   0.797
  611SOL    HW2 1851   1.743   2.939   0.958
  612SOL     OW 1852   1.227   3.412   1.506
  612SOL    HW1 1853   1.233   3.335   1.570
  612SOL    HW2 1854   1.175   3.386   1.426
  613SOL     OW 1855   0.321   2.805   0.242
  613SOL    HW1 1856   0.403   2.844   0.200
  613SOL    HW2 1857   0.294   2.723   0.193
  614SOL     OW 1858   1.458   2.597   0.728
  614SOL    HW1 1859   1.453   2.532   0.803
  614SOL    HW2 1860   1.538   2.656   0.741
  615SOL     OW 1861   0.461   3.128   1.727
  615SOL    HW1 1862   0.411   3.129   1.641
  615SOL    HW2 1863   0.398   3.110   1.803
  616SOL     OW 1864   1.111   3.638   0.237
  616SOL    HW1 1865   1.051   3.576   0.287
  616SOL    HW2 1866   1.142   3.594   0.152
  617SOL     OW 1867   0.202   2.147   1.498
  617SOL    HW1 1868   0.122   2.207   1.485
  617SOL    HW2 1869   0.192   2.098   1.584
  618SOL     OW 1870   1.632   3.239   0.081
  618SOL    HW1 1871   1.600   3.333   0.071
  618SOL    HW2 1872   1.556   3.176   0.069
  619SOL     OW 1873   0.464   3.605   0.323
  619SOL    HW1 1874   0.497   3.644   0.409
  619SOL    HW2 1875   0.540   3.598   0.258
  620SOL     OW 1876   1.400   1.969   0.426
  620SOL    HW1 1877   1.376   1.932   0.336
  620SOL    HW2 1878   1.499   1.985   0.430
  621SOL     OW 1879   0.249   3.647   1.241
  621SOL    HW1 1880   0.306   3.582   1.291
  621SOL    HW2 1881   0.233   3.614   1.148
  622SOL     OW 1882   0.940   3.560   0.904
  622SOL    HW1 1883   1.020   3.503   0.925
  622SOL    HW2 1884   0.891   3.520   0.827
  623SOL     OW 1885   0.382   2.562   0.480
  623SOL    HW1 1886   0.427   2.472   0.477
  623SOL    HW2 1887   0.288   2.551   0.513
  624SOL     OW 1888   1.547   2.084   1.729
  624SOL    HW1 1889   1.542   2.121   1.821
  624SOL    HW2 1890   1.475   2.015   1.717
  625SOL     OW 1891   0.614   1.984   0.117
  625SOL    HW1 1892   0.712   1.962   0.124
  625SOL    HW2 1893   0.583   1.967   0.024
  626SOL     OW 1894   0.781   2.126   1.749
  626SOL    HW1 1895   0.848   2.065   1.792
  626SOL    HW2 1896   0.708   2.145   1.814
  627SOL     OW 1897   0.888   3.376   1.195
  627SOL    HW1 1898   0.865   3.351   1.101
  627SOL    HW2 1899   0.949   3.307   1.234
  628SOL     OW 1900   1.351   2.452   1.433
  628SOL    HW1 1901   1.379   2.409   1.518
  628SOL    HW2 1902   1.376   2.548   1.434
  629SOL     OW 1903   0.803   3.264   0.924
  629SOL    HW1 1904   0.893   3.278   0.882
  629SOL    HW2 1905   0.732   3.266   0.853
  630SOL     OW 1906   0.922   2.365   0.899
  630SOL    HW1 1907   0.897   2.356   0.803
  630SOL    HW2 1908   0.970   2.283   0.930
  631SOL     OW 1909   0.539   1.926   0.512
  631SOL    HW1 1910   0.458   1.927   0.570
  631SOL    HW2 1911   0.542   2.009   0.457
  632SOL     OW 1912   1.434   3.050   0.041
  632SOL    HW1 1913   1.466   2.974   0.098
  632SOL    HW2 1914   1.342   3.077   0.071
  633SOL     OW 1915   0.935   2.098   0.480
  633SOL    HW1 1916   0.887   2.139   0.402
  633SOL    HW2 1917   1.034   2.096   0.461
  634SOL     OW 1918   1.076   2.545   1.464
  634SOL    HW1 1919   0.996   2.484   1.467
  634SOL    HW2 1920   1.157   2.492   1.440
  635SOL     OW 1921   1.227   3.432   0.793
  635SOL    HW1 1922   1.248   3.506   0.728
  635SOL    HW2 1923   1.295   3.432   0.866
  636SOL     OW 1924   0.459   3.014   0.741
  636SOL    HW1 1925   0.388   2.987   0.806
  636SOL    HW2 1926   0.433   2.986   0.648
  637SOL     OW 1927   1.271   3.659   0.591
  637SOL    HW1 1928   1.315   3.723   0.527
  637SOL    HW2 1929   1.221   3.711   0.661
  638SOL     OW 1930   1.032   2.411   0.016
  638SOL    HW1 1931   0.991   2.493  -0.023
  638SOL    HW2 1932   1.096   2.437   0.089
  639SOL     OW 1933   0.078   2.418   1.386
  639SOL    HW1 1934   0.170   2.417   1.345
  639SOL    HW2 1935   0.072   2.492   1.453
  640SOL     OW 1936   0.561   2.084   1.147
  640SOL    HW1 1937   0.599   2.000   1.184
  640SOL    HW2 1938   0.473   2.103   1.191
  641SOL     OW 1939   0.866   2.316   0.642
  641SOL    HW1 1940   0.834   2.388   0.580
  641SOL    HW2 1941   0.890   2.235   0.589
  642SOL     OW 1942   1.017   1.901   0.753
  642SOL    HW1 1943   0.945   1.906   0.684
  642SOL    HW2 1944   0.993   1.832   0.822
  643SOL     OW 1945   1.429   3.035   0.867
  643SOL    HW1 1946   1.374   2.951   0.860
  643SOL    HW2 1947   1.455   3.064   0.775
  644SOL     OW 1948   1.466   2.452   0.992
  644SOL    HW1 1949   1.436   2.357   0.999
  644SOL    HW2 1950   1.539   2.468   1.058
  645SOL     OW 1951   1.857   2.695   0.377
  645SOL    HW1 1952   1.899   2.631   0.441
  645SOL    HW2 1953   1.819   2.644   0.299
  646SOL     OW 1954   0.488   3.247   0.174
  646SOL    HW1 1955   0.401   3.232   0.221
  646SOL    HW2 1956   0.471   3.273   0.079
  647SOL     OW 1957   1.664   3.142   0.657
  647SOL    HW1 1958   1.763   3.150   0.671
  647SOL    HW2 1959   1.619   3.226   0.688
  648SOL     OW 1960   1.390   2.437   0.078
  648SOL    HW1 1961   1.336   2.416   0.159
  648SOL    HW2 1962   1.481   2.396   0.087
  649SOL     OW 1963   0.527   2.118   0.328
  649SOL    HW1 1964   0.554   2.059   0.253
  649SOL    HW2 1965   0.527   2.213   0.297
  650SOL     OW 1966   1.754   3.085   1.588
  650SOL    HW1 1967   1.845   3.046   1.575
  650SOL    HW2 1968   1.762   3.181   1.612
  651SOL     OW 1969   1.064   3.209   1.340
  651SOL    HW1 1970   0.984   3.186   1.395
  651SOL    HW2 1971   1.147   3.183   1.389
  652SOL     OW 1972   1.592   3.491   1.625
  652SOL    HW1 1973   1.619   3.525   1.535
  652SOL    HW2 1974   1.671   3.453   1.671
  653SOL     OW 1975   1.111   3.057   1.100
  653SOL    HW1 1976   1.071   3.101   1.181
  653SOL    HW2 1977   1.070   3.094   1.017
  654SOL     OW 1978   1.638   2.961   1.079
  654SOL    HW1 1979   1.643   3.042   1.138
  654SOL    HW2 1980   1.552   2.963   1.028
  655SOL     OW 1981   0.915   1.951   1.402
  655SOL    HW1 1982   0.940   1.931   1.307
  655SOL    HW2 1983   0.987   2.007   1.444
  656SOL     OW 1984   0.980   2.978   1.719
  656SOL    HW1 1985   0.881   2.984   1.729
  656SOL    HW2 1986   1.003   2.898   1.663
  657SOL     OW 1987   0.705   2.912   0.368
  657SOL    HW1 1988   0.691   2.919   0.467
  657SOL    HW2 1989   0.789   2.861   0.350
  658SOL     OW 1990   0.410   2.675   1.251
  658SOL    HW1 1991   0.496   2.687   1.301
  658SOL    HW2 1992   0.368   2.588   1.278
  659SOL     OW 1993   1.274   2.248   1.262
  659SOL    HW1 1994   1.295   2.322   1.326
  659SOL    HW2 1995   1.185   2.265   1.219
  660SOL     OW 1996   0.064   3.426   1.331
  660SOL    HW1 1997   0.018   3.508   1.297
  660SOL    HW2 1998   0.162   3.445   1.340
  661SOL     OW 1999   0.367   2.962   0.501
  661SOL    HW1 2000   0.360   3.045   0.445
  661SOL    HW2 2001   0.371   2.882   0.441
  662SOL     OW 2002   0.566   2.399   0.865
  662SOL    HW1 2003   0.578   2.465   0.791
  662SOL    HW2 2004   0.612   2.433   0.948
  663SOL     OW 2005   1.252   3.210   0.388
  663SOL    HW1 2006   1.302   3.287   0.428
  663SOL    HW2 2007   1.157   3.212   0.420
  664SOL     OW 2008   1.272   3.307   1.142
  664SOL    HW1 2009   1.319   3.320   1.229
  664SOL    HW2 2010   1.206   3.233   1.151
  665SOL     OW 2011   1.582   2.501   0.472
  665SOL    HW1 2012   1.551   2.562   0.545
  665SOL    HW2 2013   1.632   2.553   0.403
  666SOL     OW 2014   0.354   3.372   1.329
  666SOL    HW1 2015   0.333   3.328   1.242
  666SOL    HW2 2016   0.451   3.398   1.332
  667SOL     OW 2017   0.402   2.613   1.598
  667SOL    HW1 2018   0.470   2.668   1.551
  667SOL    HW2 2019   0.442   2.525   1.625
  668SOL     OW 2020   1.587   2.641   1.670
  668SOL    HW1 2021   1.495   2.679   1.665
  668SOL    HW2 2022   1.647   2.688   1.605
  669SOL     OW 2023   1.013   1.967   1.770
  669SOL    HW1 2024   1.019   2.052   1.718
  669SOL    HW2 2025   1.045   1.891   1.713
  670SOL     OW 2026   0.504   1.912   1.740
  670SOL    HW1 2027   0.462   1.855   1.670
  670SOL    HW2 2028   0.438   1.981   1.772
  671SOL     OW 2029   0.573   2.732   1.029
  671SOL    HW1 2030   0.617   2.821   1.020
  671SOL    HW2 2031   0.510   2.732   1.106
  672SOL     OW 2032   1.360   2.724   1.045
  672SOL    HW1 2033   1.285   2.724   0.979
  672SOL    HW2 2034   1.397   2.632   1.054
  673SOL     OW 2035   1.209   2.387   0.275
  673SOL    HW1 2036   1.222   2.303   0.329
  673SOL    HW2 2037   1.180   2.461   0.335
  674SOL     OW 2038   0.307   2.075   1.231
  674SOL    HW1 2039   0.284   2.112   1.321
  674SOL    HW2 2040   0.277   1.980   1.225
  675SOL     OW 2041   0.037   3.172   1.282
  675SOL    HW1 2042   0.090   3.123   1.350
  675SOL    HW2 2043   0.059   3.270   1.287
  676SOL     OW 2044   0.732   2.496   1.064
  676SOL    HW1 2045   0.791   2.470   0.988
  676SOL    HW2 2046   0.704   2.592   1.053
  677SOL     OW 2047   1.728   2.797   1.854
  677SOL    HW1 2048   1.682   2.790   1.765
  677SOL    HW2 2049   1.666   2.841   1.920
  678SOL     OW 2050   0.307   1.925   0.618
  678SOL    HW1 2051   0.296   2.019   0.651
  678SOL    HW2 2052   0.302   1.862   0.695
  679SOL     OW 2053   1.622   2.229   0.374
  679SOL    HW1 2054   1.624   2.153   0.438
  679SOL    HW2 2055   1.574   2.306   0.414
  680SOL     OW 2056   1.023   2.628   0.966
  680SOL    HW1 2057   1.038   2.649   1.062
  680SOL    HW2 2058   0.993   2.533   0.957
  681SOL     OW 2059   0.980   3.435   1.700
  681SOL    HW1 2060   0.960   3.479   1.612
  681SOL    HW2 2061   1.019   3.344   1.684
  682SOL     OW 2062   1.859   3.380   1.605
  682SOL    HW1 2063   1.873   3.407   1.510
  682SOL    HW2 2064   1.942   3.402   1.658
  683SOL     OW 2065   0.350   2.760   1.804
  683SOL    HW1 2066   0.426   2.804   1.852
  683SOL    HW2 2067   0.385   2.713   1.722
  684SOL     OW 2068   1.540   2.136   0.125
  684SOL    HW1 2069   1.479   2.061   0.148
  684SOL    HW2 2070   1.562   2.188   0.208
  685SOL     OW 2071   1.303   2.700   0.042
  685SOL    HW1 2072   1.337   2.607   0.057
  685SOL    HW2 2073   1.321   2.727  -0.053
  686SOL     OW 2074   1.068   3.195   0.849
  686SOL    HW1 2075   1.075   3.111   0.794
  686SOL    HW2 2076   1.130   3.264   0.813
  687SOL     OW 2077   0.319   2.672   0.949
  687SOL    HW1 2078   0.412   2.708   0.954
  687SOL    HW2 2079   0.313   2.587   1.001
  688SOL     OW 2080   0.339   2.371   1.006
  688SOL    HW1 2081   0.287   2.288   0.989
  688SOL    HW2 2082   0.416   2.376   0.942
  689SOL     OW 2083   1.138   2.242   1.678
  689SOL    HW1 2084   1.093   2.305   1.742
  689SOL    HW2 2085   1.231   2.273   1.661
  690SOL     OW 2086   1.160   2.069   1.477
  690SOL    HW1 2087   1.160   2.133   1.554
  690SOL    HW2 2088   1.188   2.117   1.394
  691SOL     OW 2089   0.008   3.188   0.200
  691SOL    HW1 2090  -0.085   3.209   0.169
  691SOL    HW2 2091   0.018   3.089   0.213
  692SOL     OW 2092   0.088   3.663   0.927
  692SOL    HW1 2093   0.046   3.577   0.900
  692SOL    HW2 2094   0.182   3.666   0.893
  693SOL     OW 2095   0.504   3.430   0.910
  693SOL    HW1 2096   0.570   3.504   0.919
  693SOL    HW2 2097   0.548   3.351   0.868
  694SOL     OW 2098   1.002   2.658   1.238
  694SOL    HW1 2099   1.043   2.626   1.324
  694SOL    HW2 2100   0.906   2.631   1.235
  695SOL     OW 2101   0.040   2.406   1.114
  695SOL    HW1 2102   0.125   2.373   1.073
  695SOL    HW2 2103   0.053   2.421   1.212
  696SOL     OW 2104   0.189   2.382   1.722
  696SOL    HW1 2105   0.248   2.342   1.652
  696SOL    HW2 2106   0.131   2.453   1.681
  697SOL     OW 2107   1.369   2.812   1.660
  697SOL    HW1 2108   1.408   2.901   1.680
  697SOL    HW2 2109   1.379   2.792   1.563
  698SOL     OW 2110   0.815   2.434   0.325
  698SOL    HW1 2111   0.822   2.345   0.279
  698SOL    HW2 2112   0.721   2.468   0.317
  699SOL     OW 2113   1.657   2.466   1.206
  699SOL    HW1 2114   1.619   2.397   1.268
  699SOL    HW2 2115   1.739   2.430   1.162
  700SOL     OW 2116   0.252   3.426   1.744
  700SOL    HW1 2117   0.222   3.483   1.820
  700SOL    HW2 2118   0.245   3.329   1.770
  701SOL     OW 2119   0.671   2.326   1.269
  701SOL    HW1 2120   0.637   2.237   1.239
  701SOL    HW2 2121   0.697   2.380   1.189
  702SOL     OW 2122   0.930   3.540   1.465
  702SOL    HW1 2123   0.906   3.522   1.370
  702SOL    HW2 2124   0.960   3.634   1.475
  703SOL     OW 2125   0.473   2.362   0.191
  703SOL    HW1 2126   0.534   2.442   0.195
  703SOL    HW2 2127   0.378   2.393   0.198
  704SOL     OW 2128   0.159   2.999   1.466
  704SOL    HW1 2129   0.181   2.938   1.542
  704SOL    HW2 2130   0.169   2.950   1.380
  705SOL     OW 2131   1.347   2.921   1.234
  705SOL    HW1 2132   1.371   2.858   1.160
  705SOL    HW2 2133   1.257   2.961   1.216
  706SOL     OW 2134   1.302   2.717   0.309
  706SOL    HW1 2135   1.216   2.686   0.351
  706SOL    HW2 2136   1.298   2.703   0.210
  707SOL     OW 2137   1.759   3.609   1.154
  707SOL    HW1 2138   1.820   3.639   1.081
  707SOL    HW2 2139   1.721   3.520   1.132
  708SOL     OW 2140   1.252   3.593   1.128
  708SOL    HW1 2141   1.336   3.598   1.074
  708SOL    HW2 2142   1.229   3.497   1.146
  709SOL     OW 2143   0.083   3.120   1.022
  709SOL    HW1 2144   0.078   3.119   1.122
  709SOL    HW2 2145   0.000   3.079   0.984
  710SOL     OW 2146   0.688   3.524   1.716
  710SOL    HW1 2147   0.632   3.605   1.725
  710SOL    HW2 2148   0.740   3.528   1.630
  711SOL     OW 2149   0.903   1.948   0.133
  711SOL    HW1 2150   0.954   1.949   0.047
  711SOL    HW2 2151   0.959   1.906   0.204
  712SOL     OW 2152   1.726   1.997   0.523
  712SOL    HW1 2153   1.799   1.980   0.456
  712SOL    HW2 2154   1.695   1.910   0.561
  713SOL     OW 2155   1.388   3.435   0.477
  713SOL    HW1 2156   1.455   3.447   0.403
  713SOL    HW2 2157   1.348   3.524   0.500
  714SOL     OW 2158   0.130   3.656   1.851
  714SOL    HW1 2159   0.089   3.582   1.904
  714SOL    HW2 2160   0.194   3.707   1.909
  715SOL     OW 2161   1.280   2.789   0.672
  715SOL    HW1 2162   1.340   2.708   0.674
  715SOL    HW2 2163   1.320   2.858   0.612
  716SOL     OW 2164   0.830   3.135   1.422
  716SOL    HW1 2165   0.825   3.168   1.517
  716SOL    HW2 2166   0.744   3.154   1.376
  717SOL     OW 2167   0.672   3.478   0.154
  717SOL    HW1 2168   0.681   3.488   0.055
  717SOL    HW2 2169   0.632   3.389   0.175
  718SOL     OW 2170   1.650   3.582   1.394
  718SOL    HW1 2171   1.703   3.592   1.310
  718SOL    HW2 2172   1.623   3.672   1.428
  719SOL     OW 2173   1.841   2.037   0.963
  719SOL    HW1 2174   1.880   1.952   0.927
  719SOL    HW2 2175   1.743   2.039   0.944
  720SOL     OW 2176   0.263   2.188   0.720
  720SOL    HW1 2177   0.184   2.239   0.686
  720SOL    HW2 2178   0.254   2.173   0.818
  721SOL     OW 2179   1.194   3.474   0.031
  721SOL    HW1 2180   1.200   3.381   0.068
  721SOL    HW2 2181   1.135   3.474  -0.049
  722SOL     OW 2182   0.822   2.864   1.372
  722SOL    HW1 2183   0.862   2.863   1.280
  722SOL    HW2 2184   0.832   2.956   1.412
  723SOL     OW 2185   0.916   2.772   0.291
  723SOL    HW1 2186   0.979   2.810   0.223
  723SOL    HW2 2187   0.956   2.689   0.330
  724SOL     OW 2188   1.504   3.469   0.044
  724SOL    HW1 2189   1.412   3.506   0.051
  724SOL    HW2 2190   1.542   3.489  -0.046
  725SOL     OW 2191   0.372   3.150   1.490
  725SOL    HW1 2192   0.359   3.243   1.456
  725SOL    HW2 2193   0.288   3.098   1.477
  726SOL     OW 2194   1.614   3.154   1.289
  726SOL    HW1 2195   1.674   3.157   1.369
  726SOL    HW2 2196   1.539   3.218   1.302
  727SOL     OW 2197   1.039   2.960   0.696
  727SOL    HW1 2198   0.969   2.913   0.750
  727SOL    HW2 2199   1.098   2.892   0.653
  728SOL     OW 2200   1.014   2.098   0.971
  728SOL    HW1 2201   1.006   2.062   0.878
  728SOL    HW2 2202   1.012   2.022   1.036
  729SOL     OW 2203   0.590   3.349   0.491
  729SOL    HW1 2204   0.632   3.291   0.421
  729SOL    HW2 2205   0.546   3.428   0.447
  730SOL     OW 2206   1.709   2.247   1.381
  730SOL    HW1 2207   1.782   2.316   1.385
  730SOL    HW2 2208   1.737   2.172   1.322
  731SOL     OW 2209   0.255   3.210   0.290
  731SOL    HW1 2210   0.159   3.211   0.263
  731SOL    HW2 2211   0.267   3.263   0.374
  732SOL     OW 2212   0.105   2.875   1.726
  732SOL    HW1 2213   0.028   2.842   1.780
  732SOL    HW2 2214   0.190   2.845   1.768
  733SOL     OW 2215   0.672   2.065   1.489
  733SOL    HW1 2216   0.762   2.049   1.449
  733SOL    HW2 2217   0.680   2.070   1.588
  734SOL     OW 2218   0.075   2.207   0.033
  734SOL    HW1 2219  -0.017   2.179   0.004
  734SOL    HW2 2220   0.106   2.284  -0.023
  735SOL     OW 2221   1.440   2.718   1.398
  735SOL    HW1 2222   1.383   2.770   1.335
  735SOL    HW2 2223   1.536   2.730   1.374
  736SOL     OW 2224   0.072   2.028   0.318
  736SOL    HW1 2225   0.055   2.111   0.264
  736SOL    HW2 2226   0.162   1.991   0.296
  737SOL     OW 2227   1.183   3.197   0.119
  737SOL    HW1 2228   1.084   3.186   0.121
  737SOL    HW2 2229   1.217   3.212   0.212
  738SOL     OW 2230   0.613   2.704   1.431
  738SOL    HW1 2231   0.669   2.785   1.414
  738SOL    HW2 2232   0.672   2.624   1.434
  739SOL     OW 2233   1.493   3.629   0.959
  739SOL    HW1 2234   1.526   3.693   0.890
  739SOL    HW2 2235   1.559   3.623   1.034
  740SOL     OW 2236   0.716   2.427   1.708
  740SOL    HW1 2237   0.735   2.492   1.782
  740SOL    HW2 2238   0.776   2.347   1.717
  741SOL     OW 2239   1.450   3.082   1.633
  741SOL    HW1 2240   1.441   3.072   1.732
  741SOL    HW2 2241   1.546   3.075   1.607
  742SOL     OW 2242   0.390   3.603   1.560
  742SOL    HW1 2243   0.299   3.644   1.558
  742SOL    HW2 2244   0.383   3.509   1.592
  743SOL     OW 2245   1.674   2.745   1.254
  743SOL    HW1 2246   1.647   2.656   1.217
  743SOL    HW2 2247   1.675   2.813   1.181
  744SOL     OW 2248   1.225   2.187   0.449
  744SOL    HW1 2249   1.290   2.113   0.438
  744SOL    HW2 2250   1.245   2.237   0.533
  745SOL     OW 2251   0.594   2.607   0.652
  745SOL    HW1 2252   0.644   2.692   0.633
  745SOL    HW2 2253   0.506   2.609   0.604
  746SOL     OW 2254   1.777   2.204   1.642
  746SOL    HW1 2255   1.760   2.235   1.548
  746SOL    HW2 2256   1.693   2.167   1.680
  747SOL     OW 2257   1.730   2.796   1.517
  747SOL    HW1 2258   1.768   2.887   1.532
  747SOL    HW2 2259   1.722   2.779   1.418
  748SOL     OW 2260   0.859   3.236   0.016
  748SOL    HW1 2261   0.813   3.251   0.104
  748SOL    HW2 2262   0.903   3.321  -0.014
  749SOL     OW 2263   0.661   3.652   0.953
  749SOL    HW1 2264   0.615   3.740   0.940
  749SOL    HW2 2265   0.760   3.664   0.946
  750SOL     OW 2266   0.859   2.818   0.861
  750SOL    HW1 2267   0.913   2.749   0.909
  750SOL    HW2 2268   0.827   2.887   0.927
  751SOL     OW 2269   1.083   2.846   0.087
  751SOL    HW1 2270   1.060   2.899   0.005
  751SOL    HW2 2271   1.164   2.790   0.068
  752SOL     OW 2272   1.861   3.431   0.851
  752SOL    HW1 2273   1.790   3.419   0.781
  752SOL    HW2 2274   1.862   3.352   0.911
  753SOL     OW 2275   0.221   3.176   1.844
  753SOL    HW1 2276   0.156   3.103   1.823
  753SOL    HW2 2277   0.225   3.190   1.942
  754SOL     OW 2278   0.079   3.102   0.653
  754SOL    HW1 2279   0.078   3.055   0.741
  754SOL    HW2 2280   0.161   3.074   0.602
  755SOL     OW 2281   0.672   3.253   1.624
  755SOL    HW1 2282   0.594   3.203   1.662
  755SOL    HW2 2283   0.669   3.348   1.655
  756SOL     OW 2284   1.824   2.054   1.227
  756SOL    HW1 2285   1.820   1.964   1.271
  756SOL    HW2 2286   1.827   2.043   1.128
  757SOL     OW 2287   0.428   2.286   0.520
  757SOL    HW1 2288   0.458   2.214   0.458
  757SOL    HW2 2289   0.389   2.246   0.603
  758SOL     OW 2290   1.705   3.349   1.104
  758SOL    HW1 2291   1.612   3.324   1.077
  758SOL    HW2 2292   1.731   3.299   1.186
  759SOL     OW 2293   0.317   2.409   1.280
  759SOL    HW1 2294   0.355   2.350   1.352
  759SOL    HW2 2295   0.357   2.383   1.192
  760SOL     OW 2296   0.812   3.448   0.687
  760SOL    HW1 2297   0.844   3.458   0.593
  760SOL    HW2 2298   0.733   3.386   0.689
  761SOL     OW 2299   1.424   2.076   1.112
  761SOL    HW1 2300   1.476   2.011   1.167
  761SOL    HW2 2301   1.375   2.139   1.173
  762SOL     OW 2302   1.001   1.896   1.154
  762SOL    HW1 2303   0.938   1.824   1.123
  762SOL    HW2 2304   1.094   1.860   1.154
  763SOL     OW 2305   0.770   3.192   0.301
  763SOL    HW1 2306   0.724   3.105   0.318
  763SOL    HW2 2307   0.861   3.189   0.342
  764SOL     OW 2308   0.618   3.429   1.284
  764SOL    HW1 2309   0.613   3.511   1.341
  764SOL    HW2 2310   0.707   3.426   1.239
  765SOL     OW 2311   1.352   1.914   0.168
  765SOL    HW1 2312   1.387   1.873   0.084
  765SOL    HW2 2313   1.262   1.876   0.188
  766SOL     OW 2314   1.300   2.315   0.691
  766SOL    HW1 2315   1.241   2.395   0.695
  766SOL    HW2 2316   1.315   2.280   0.784
  767SOL     OW 2317   1.593   2.083   0.882
  767SOL    HW1 2318   1.509   2.082   0.936
  767SOL    HW2 2319   1.595   2.166   0.826
  768SOL     OW 2320   0.039   2.939   0.300
  768SOL    HW1 2321   0.138   2.928   0.291
  768SOL    HW2 2322  -0.001   2.853   0.332
  769SOL     OW 2323   0.875   3.508   0.337
  769SOL    HW1 2324   0.798   3.473   0.283
  769SOL    HW2 2325   0.843   3.579   0.399
  770SOL     OW 2326   0.230   2.490   1.975
  770SOL    HW1 2327   0.137   2.488   2.012
  770SOL    HW2 2328   0.231   2.451   1.883
  771SOL     OW 2329   0.225   2.137   2.858
  771SOL    HW1 2330   0.260   2.120   2.950
  771SOL    HW2 2331   0.137   2.092   2.846
  772SOL     OW 2332   0.019   2.230   2.509
  772SOL    HW1 2333  -0.063   2.273   2.548
  772SOL    HW2 2334  -0.009   2.157   2.446
  773SOL     OW 2335   0.569   3.137   3.027
  773SOL    HW1 2336   0.476   3.130   2.990
  773SOL    HW2 2337   0.580   3.226   3.071
  774SOL     OW 2338   1.555   3.373   2.565
  774SOL    HW1 2339   1.498   3.357   2.646
  774SOL    HW2 2340   1.496   3.383   2.485
  775SOL     OW 2341   1.135   2.565   2.579
  775SOL    HW1 2342   1.192   2.643   2.554
  775SOL    HW2 2343   1.075   2.591   2.655
  776SOL     OW 2344   1.755   2.469   2.093
  776SOL    HW1 2345   1.743   2.456   1.994
  776SOL    HW2 2346   1.725   2.388   2.142
  777SOL     OW 2347   0.768   3.006   2.885
  777SOL    HW1 2348   0.690   3.023   2.945
  777SOL    HW2 2349   0.802   3.093   2.849
  778SOL     OW 2350   0.850   2.660   3.685
  778SOL    HW1 2351   0.846   2.736   3.750
  778SOL    HW2 2352   0.872   2.696   3.594
  779SOL     OW 2353   0.685   2.874   2.527
  779SOL    HW1 2354   0.754   2.858   2.597
  779SOL    HW2 2355   0.612   2.931   2.565
  780SOL     OW 2356   0.686   3.023   3.665
  780SOL    HW1 2357   0.746   3.102   3.679
  780SOL    HW2 2358   0.600   3.054   3.624
  781SOL     OW 2359   0.335   3.297   2.923
  781SOL    HW1 2360   0.257   3.266   2.870
  781SOL    HW2 2361   0.393   3.355   2.866
  782SOL     OW 2362   1.460   3.367   3.201
  782SOL    HW1 2363   1.484   3.461   3.227
  782SOL    HW2 2364   1.444   3.313   3.283
  783SOL     OW 2365   0.438   2.254   3.361
  783SOL    HW1 2366   0.520   2.198   3.370
  783SOL    HW2 2367   0.357   2.196   3.365
  784SOL     OW 2368   1.603   2.309   2.599
  784SOL    HW1 2369   1.529   2.355   2.549
  784SOL    HW2 2370   1.654   2.377   2.652
  785SOL     OW 2371   0.231   3.575   2.345
  785SOL    HW1 2372   0.265   3.652   2.399
  785SOL    HW2 2373   0.275   3.575   2.255
  786SOL     OW 2374   1.127   3.203   3.552
  786SOL    HW1 2375   1.174   3.203   3.640
  786SOL    HW2 2376   1.079   3.116   3.541
  787SOL     OW 2377   0.230   3.296   2.400
  787SOL    HW1 2378   0.204   3.392   2.400
  787SOL    HW2 2379   0.159   3.242   2.445
  788SOL     OW 2380   0.240   2.953   2.748
  788SOL    HW1 2381   0.254   2.869   2.800
  788SOL    HW2 2382   0.185   3.017   2.803
  789SOL     OW 2383   0.620   3.648   3.301
  789SOL    HW1 2384   0.528   3.631   3.336
  789SOL    HW2 2385   0.648   3.740   3.327
  790SOL     OW 2386   0.606   2.826   1.985
  790SOL    HW1 2387   0.613   2.910   1.931
  790SOL    HW2 2388   0.652   2.839   2.073
  791SOL     OW 2389   1.594   1.976   3.342
  791SOL    HW1 2390   1.576   2.043   3.270
  791SOL    HW2 2391   1.591   2.022   3.431
  792SOL     OW 2392   0.122   2.505   2.425
  792SOL    HW1 2393   0.077   2.417   2.442
  792SOL    HW2 2394   0.121   2.559   2.509
  793SOL     OW 2395   1.842   3.629   2.221
  793SOL    HW1 2396   1.896   3.600   2.301
  793SOL    HW2 2397   1.872   3.719   2.192
  794SOL     OW 2398   0.027   3.458   1.979
  794SOL    HW1 2399   0.008   3.362   2.000
  794SOL    HW2 2400  -0.006   3.516   2.054
  795SOL     OW 2401   1.689   2.784   2.474
  795SOL    HW1 2402   1.784   2.755   2.482
  795SOL    HW2 2403   1.681   2.849   2.399
  796SOL     OW 2404   1.641   2.970   2.294
  796SOL    HW1 2405   1.727   2.972   2.242
  796SOL    HW2 2406   1.655   3.017   2.382
  797SOL     OW 2407   0.113   2.599   3.459
  797SOL    HW1 2408   0.201   2.586   3.504
  797SOL    HW2 2409   0.100   2.696   3.437
  798SOL     OW 2410   0.613   3.227   2.588
  798SOL    HW1 2411   0.564   3.140   2.597
  798SOL    HW2 2412   0.590   3.270   2.501
  799SOL     OW 2413   1.293   3.090   3.285
  799SOL    HW1 2414   1.330   3.017   3.227
  799SOL    HW2 2415   1.345   3.095   3.370
  800SOL     OW 2416   0.809   1.866   2.364
  800SOL    HW1 2417   0.849   1.957   2.355
  800SOL    HW2 2418   0.709   1.874   2.370
  801SOL     OW 2419   0.197   2.838   3.126
  801SOL    HW1 2420   0.286   2.793   3.112
  801SOL    HW2 2421   0.124   2.773   3.107
  802SOL     OW 2422   1.525   2.861   2.052
  802SOL    HW1 2423   1.462   2.785   2.065
  802SOL    HW2 2424   1.573   2.879   2.138
  803SOL     OW 2425   1.187   3.654   3.478
  803SOL    HW1 2426   1.211   3.714   3.402
  803SOL    HW2 2427   1.194   3.559   3.448
  804SOL     OW 2428   0.317   2.113   3.663
  804SOL    HW1 2429   0.388   2.184   3.669
  804SOL    HW2 2430   0.229   2.152   3.691
  805SOL     OW 2431   1.466   3.279   2.815
  805SOL    HW1 2432   1.407   3.285   2.895
  805SOL    HW2 2433   1.451   3.191   2.769
  806SOL     OW 2434   1.667   3.576   2.434
  806SOL    HW1 2435   1.626   3.553   2.346
  806SOL    HW2 2436   1.649   3.502   2.499
  807SOL     OW 2437   0.598   2.591   2.132
  807SOL    HW1 2438   0.622   2.660   2.064
  807SOL    HW2 2439   0.520   2.624   2.186
  808SOL     OW 2440   1.281   2.207   2.806
  808SOL    HW1 2441   1.195   2.157   2.793
  808SOL    HW2 2442   1.343   2.153   2.862
  809SOL     OW 2443   1.576   3.524   2.169
  809SOL    HW1 2444   1.665   3.570   2.172
  809SOL    HW2 2445   1.555   3.500   2.074
  810SOL     OW 2446   0.807   2.467   3.327
  810SOL    HW1 2447   0.760   2.464   3.416
  810SOL    HW2 2448   0.756   2.412   3.261
  811SOL     OW 2449   1.394   2.331   3.536
  811SOL    HW1 2450   1.374   2.374   3.624
  811SOL    HW2 2451   1.472   2.269   3.545
  812SOL     OW 2452   0.973   2.752   3.434
  812SOL    HW1 2453   1.019   2.668   3.405
  812SOL    HW2 2454   0.917   2.786   3.359
  813SOL     OW 2455   0.991   2.272   3.104
  813SOL    HW1 2456   0.914   2.306   3.158
  813SOL    HW2 2457   0.957   2.221   3.025
  814SOL     OW 2458   1.041   2.563   2.291
  814SOL    HW1 2459   1.067   2.559   2.387
  814SOL    HW2 2460   0.956   2.512   2.277
  815SOL     OW 2461   0.076   2.673   2.651
  815SOL    HW1 2462   0.175   2.661   2.660
  815SOL    HW2 2463   0.052   2.768   2.672
  816SOL     OW 2464   0.130   3.683   3.433
  816SOL    HW1 2465   0.120   3.668   3.532
  816SOL    HW2 2466   0.044   3.719   3.397
  817SOL     OW 2467   0.865   2.210   2.057
  817SOL    HW1 2468   0.924   2.273   2.008
  817SOL    HW2 2469   0.884   2.116   2.028
  818SOL     OW 2470   1.719   2.447   3.693
  818SOL    HW1 2471   1.693   2.536   3.657
  818SOL    HW2 2472   1.717   2.379   3.620
  819SOL     OW 2473   1.362   3.006   2.407
  819SOL    HW1 2474   1.445   2.977   2.359
  819SOL    HW2 2475   1.313   3.073   2.351
  820SOL     OW 2476   0.550   2.058   2.747
  820SOL    HW1 2477   0.545   2.053   2.847
  820SOL    HW2 2478   0.552   2.154   2.718
  821SOL     OW 2479   1.008   3.318   2.339
  821SOL    HW1 2480   0.962   3.390   2.287
  821SOL    HW2 2481   1.004   3.338   2.437
  822SOL     OW 2482   0.351   3.663   2.715
  822SOL    HW1 2483   0.401   3.577   2.721
  822SOL    HW2 2484   0.416   3.740   2.712
  823SOL     OW 2485   1.795   2.928   2.735
  823SOL    HW1 2486   1.733   2.913   2.659
  823SOL    HW2 2487   1.743   2.939   2.820
  824SOL     OW 2488   1.227   3.412   3.368
  824SOL    HW1 2489   1.233   3.335   3.432
  824SOL    HW2 2490   1.175   3.386   3.288
  825SOL     OW 2491   0.321   2.805   2.104
  825SOL    HW1 2492   0.403   2.844   2.062
  825SOL    HW2 2493   0.294   2.723   2.055
  826SOL     OW 2494   1.458   2.597   2.590
  826SOL    HW1 2495   1.453   2.532   2.665
  826SOL    HW2 2496   1.538   2.656   2.603
  827SOL     OW 2497   0.461   3.128   3.589
  827SOL    HW1 2498   0.411   3.129   3.503
  827SOL    HW2 2499   0.398   3.110   3.665
  828SOL     OW 2500   1.111   3.638   2.099
  828SOL    HW1 2501   1.051   3.576   2.149
  828SOL    HW2 2502   1.142   3.594   2.014
  829SOL     OW 2503   0.202   2.147   3.360
  829SOL    HW1 2504   0.122   2.207   3.347
  829SOL    HW2 2505   0.192   2.098   3.446
  830SOL     OW 2506   1.632   3.239   1.943
  830SOL    HW1 2507   1.600   3.333   1.933
  830SOL    HW2 2508   1.556   3.176   1.931
  831SOL     OW 2509   0.464   3.605   2.185
  831SOL    HW1 2510   0.497   3.644   2.271
  831SOL    HW2 2511   0.540   3.598   2.120
  832SOL     OW 2512   1.400   1.969   2.288
  832SOL    HW1 2513   1.376   1.932   2.198
  832SOL    HW2 2514   1.499   1.985   2.292
  833SOL     OW 2515   0.249   3.647   3.103
  833SOL    HW1 2516   0.306   3.582   3.153
  833SOL    HW2 2517   0.233   3.614   3.010
  834SOL     OW 2518   0.940   3.560   2.766
  834SOL    HW1 2519   1.020   3.503   2.787
  834SOL    HW2 2520   0.891   3.520   2.689
  835SOL     OW 2521   0.382   2.562   2.342
  835SOL    HW1 2522   0.427   2.472   2.339
  835SOL    HW2 2523   0.288   2.551   2.375
  836SOL     OW 2524   1.547   2.084   3.591
  836SOL    HW1 2525   1.542   2.121   3.683
  836SOL    HW2 2526   1.475   2.015   3.579
  837SOL     OW 2527   0.614   1.984   1.979
  837SOL    HW1 2528   0.712   1.962   1.986
  837SOL    HW2 2529   0.583   1.967   1.886
  838SOL     OW 2530   0.781   2.126   3.611
  838SOL    HW1 2531   0.848   2.065   3.654
  838SOL    HW2 2532   0.708   2.145   3.676
  839SOL     OW 2533   0.888   3.376   3.057
  839SOL    HW1 2534   0.865   3.351   2.963
  839SOL    HW2 2535   0.949   3.307   3.096
  840SOL     OW 2536   1.351   2.452   3.295
  840SOL    HW1 2537   1.379   2.409   3.380
  840SOL    HW2 2538   1.376   2.548   3.296
  841SOL     OW 2539   0.803   3.264   2.786
  841SOL    HW1 2540   0.893   3.278   2.744
  841SOL    HW2 2541   0.732   3.266   2.715
  842SOL     OW 2542   0.922   2.365   2.761
  842SOL    HW1 2543   0.897   2.356   2.665
  842SOL    HW2 2544   0.970   2.283   2.792
  843SOL     OW 2545   0.539   1.926   2.374
  843SOL    HW1 2546   0.458   1.927   2.432
  843SOL    HW2 2547   0.542   2.009   2.319
  844SOL     OW 2548   1.434   3.050   1.903
  844SOL    HW1 2549   1.466   2.974   1.960
  844SOL    HW2 2550   1.342   3.077   1.933
  845SOL     OW 2551   0.297   1.897   2.033
  845SOL    HW1 2552   0.346   1.981   2.012
  845SOL    HW2 2553   0.359   1.832   2.078
  846SOL     OW 2554   0.935   2.098   2.342
  846SOL    HW1 2555   0.887   2.139   2.264
  846SOL    HW2 2556   1.034   2.096   2.323
  847SOL     OW 2557   1.076   2.545   3.326
  847SOL    HW1 2558   0.996   2.484   3.329
  847SOL    HW2 2559   1.157   2.492   3.302
  848SOL     OW 2560   1.227   3.432   2.655
  848SOL    HW1 2561   1.248   3.506   2.590
  848SOL    HW2 2562   1.295   3.432   2.728
  849SOL     OW 2563   0.459   3.014   2.603
  849SOL    HW1 2564   0.388   2.987   2.668
  849SOL    HW2 2565   0.433   2.986   2.510
  850SOL     OW 2566   1.271   3.659   2.453
  850SOL    HW1 2567   1.315   3.723   2.389
  850SOL    HW2 2568   1.221   3.711   2.523
  851SOL     OW 2569   1.032   2.411   1.878
  851SOL    HW1 2570   0.991   2.493   1.839
  851SOL    HW2 2571   1.096   2.437   1.951
  852SOL     OW 2572   0.078   2.418   3.248
  852SOL    HW1 2573   0.170   2.417   3.207
  852SOL    HW2 2574   0.072   2.492   3.315
  853SOL     OW 2575   0.561   2.084   3.009
  853SOL    HW1 2576   0.599   2.000   3.046
  853SOL    HW2 2577   0.473   2.103   3.053
  854SOL     OW 2578   0.866   2.316   2.504
  854SOL    HW1 2579   0.834   2.388   2.442
  854SOL    HW2 2580   0.890   2.235   2.451
  855SOL     OW 2581   1.017   1.901   2.615
  855SOL    HW1 2582   0.945   1.906   2.546
  855SOL    HW2 2583   0.993   1.832   2.684
  856SOL     OW 2584   1.429   3.035   2.729
  856SOL    HW1 2585   1.374   2.951   2.722
  856SOL    HW2 2586   1.455   3.064   2.637
  857SOL     OW 2587   1.466   2.452   2.854
  857SOL    HW1 2588   1.436   2.357   2.861
  857SOL    HW2 2589   1.539   2.468   2.920
  858SOL     OW 2590   1.857   2.695   2.239
  858SOL    HW1 2591   1.899   2.631   2.303
  858SOL    HW2 2592   1.819   2.644   2.161
  859SOL     OW 2593   0.488   3.247   2.036
  859SOL    HW1 2594   0.401   3.232   2.083
  859SOL    HW2 2595   0.471   3.273   1.941
  860SOL     OW 2596   1.664   3.142   2.519
  860SOL    HW1 2597   1.763   3.150   2.533
  860SOL    HW2 2598   1.619   3.226   2.550
  861SOL     OW 2599   1.390   2.437   1.940
  861SOL    HW1 2600   1.336   2.416   2.021
  861SOL    HW2 2601   1.481   2.396   1.949
  862SOL     OW 2602   0.527   2.118   2.190
  862SOL    HW1 2603   0.554   2.059   2.115
  862SOL    HW2 2604   0.527   2.213   2.159
  863SOL     OW 2605   1.754   3.085   3.450
  863SOL    HW1 2606   1.845   3.046   3.437
  863SOL    HW2 2607   1.762   3.181   3.474
  864SOL     OW 2608   1.064   3.209   3.202
  864SOL    HW1 2609   0.984   3.186   3.257
  864SOL    HW2 2610   1.147   3.183   3.251
  865SOL     OW 2611   1.592   3.491   3.487
  865SOL    HW1 2612   1.619   3.525   3.397
  865SOL    HW2 2613   1.671   3.453   3.533
  866SOL     OW 2614   1.111   3.057   2.962
  866SOL    HW1 2615   1.071   3.101   3.043
  866SOL    HW2 2616   1.070   3.094   2.879
  867SOL     OW 2617   1.638   2.961   2.941
  867SOL    HW1 2618   1.643   3.042   3.000
  867SOL    HW2 2619   1.552   2.963   2.890
  868SOL     OW 2620   0.915   1.951   3.264
  868SOL    HW1 2621   0.940   1.931   3.169
  868SOL    HW2 2622   0.987   2.007   3.306
  869SOL     OW 2623   0.980   2.978   3.581
  869SOL    HW1 2624   0.881   2.984   3.591
  869SOL    HW2 2625   1.003   2.898   3.525
  870SOL     OW 2626   0.705   2.912   2.230
  870SOL    HW1 2627   0.691   2.919   2.329
  870SOL    HW2 2628   0.789   2.861   2.212
  871SOL     OW 2629   0.410   2.675   3.113
  871SOL    HW1 2630   0.496   2.687   3.163
  871SOL    HW2 2631   0.368   2.588   3.140
  872SOL     OW 2632   1.274   2.248   3.124
  872SOL    HW1 2633   1.295   2.322   3.188
  872SOL    HW2 2634   1.185   2.265   3.081
  873SOL     OW 2635   0.064   3.426   3.193
  873SOL    HW1 2636   0.018   3.508   3.159
  873SOL    HW2 2637   0.162   3.445   3.202
  874SOL     OW 2638   0.367   2.962   2.363
  874SOL    HW1 2639   0.360   3.045   2.307
  874SOL    HW2 2640   0.371   2.882   2.303
  875SOL     OW 2641   0.566   2.399   2.727
  875SOL    HW1 2642   0.578   2.465   2.653
  875SOL    HW2 2643   0.612   2.433   2.810
  876SOL     OW 2644   1.252   3.210   2.250
  876SOL    HW1 2645   1.302   3.287   2.290
  876SOL    HW2 2646   1.157   3.212   2.282
  877SOL     OW 2647   1.272   3.307   3.004
  877SOL    HW1 2648   1.319   3.320   3.091
  877SOL    HW2 2649   1.206   3.233   3.013
  878SOL     OW 2650   1.582   2.501   2.334
  878SOL    HW1 2651   1.551   2.562   2.407
  878SOL    HW2 2652   1.632   2.553   2.265
  879SOL     OW 2653   0.354   3.372   3.191
  879SOL    HW1 2654   0.333   3.328   3.104
  879SOL    HW2 2655   0.451   3.398   3.194
  880SOL     OW 2656   0.402   2.613   3.460
  880SOL    HW1 2657   0.470   2.668   3.413
  880SOL    HW2 2658   0.442   2.525   3.487
  881SOL     OW 2659   1.587   2.641   3.532
  881SOL    HW1 2660   1.495   2.679   3.527
  881SOL    HW2 2661   1.647   2.688   3.467
  882SOL     OW 2662   1.013   1.967   3.632
  882SOL    HW1 2663   1.019   2.052   3.580
  882SOL    HW2 2664   1.045   1.891   3.575
  883SOL     OW 2665   0.504   1.912   3.602
  883SOL    HW1 2666   0.462   1.855   3.532
  883SOL    HW2 2667   0.438   1.981   3.634
  884SOL     OW 2668   0.573   2.732   2.891
  884SOL    HW1 2669   0.617   2.821   2.882
  884SOL    HW2 2670   0.510   2.732   2.968
  885SOL     OW 2671   1.360   2.724   2.907
  885SOL    HW1 2672   1.285   2.724   2.841
  885SOL    HW2 2673   1.397   2.632   2.916
  886SOL     OW 2674   1.209   2.387   2.137
  886SOL    HW1 2675   1.222   2.303   2.191
  886SOL    HW2 2676   1.180   2.461   2.197
  887SOL     OW 2677   0.307   2.075   3.093
  887SOL    HW1 2678   0.284   2.112   3.183
  887SOL    HW2 2679   0.277   1.980   3.087
  888SOL     OW 2680   0.037   3.172   3.144
  888SOL    HW1 2681   0.090   3.123   3.212
  888SOL    HW2 2682   0.059   3.270   3.149
  889SOL     OW 2683   0.732   2.496   2.926
  889SOL    HW1 2684   0.791   2.470   2.850
  889SOL    HW2 2685   0.704   2.592   2.915
  890SOL     OW 2686   1.728   2.797   3.716
  890SOL    HW1 2687   1.682   2.790   3.627
  890SOL    HW2 2688   1.666   2.841   3.782
  891SOL     OW 2689   0.307   1.925   2.480
  891SOL    HW1 2690   0.296   2.019   2.513
  891SOL    HW2 2691   0.302   1.862   2.557
  892SOL     OW 2692   1.622   2.229   2.236
  892SOL    HW1 2693   1.624   2.153   2.300
  892SOL    HW2 2694   1.574   2.306   2.276
  893SOL     OW 2695   1.023   2.628   2.828
  893SOL    HW1 2696   1.038   2.649   2.924
  893SOL    HW2 2697   0.993   2.533   2.819
  894SOL     OW 2698   0.980   3.435   3.562
  894SOL    HW1 2699   0.960   3.479   3.474
  894SOL    HW2 2700   1.019   3.344   3.546
  895SOL     OW 2701   1.859   3.380   3.467
  895SOL    HW1 2702   1.873   3.407   3.372
  895SOL    HW2 2703   1.942   3.402   3.520
  896SOL     OW 2704   0.350   2.760   3.666
  896SOL    HW1 2705   0.426   2.804   3.714
  896SOL    HW2 2706   0.385   2.713   3.584
  897SOL     OW 2707   1.540   2.136   1.987
  897SOL    HW1 2708   1.479   2.061   2.010
  897SOL    HW2 2709   1.562   2.188   2.070
  898SOL     OW 2710   1.303   2.700   1.904
  898SOL    HW1 2711   1.337   2.607   1.919
  898SOL    HW2 2712   1.321   2.727   1.809
  899SOL     OW 2713   1.068   3.195   2.711
  899SOL    HW1 2714   1.075   3.111   2.656
  899SOL    HW2 2715   1.130   3.264   2.675
  900SOL     OW 2716   0.319   2.672   2.811
  900SOL    HW1 2717   0.412   2.708   2.816
  900SOL    HW2 2718   0.313   2.587   2.863
  901SOL     OW 2719   0.339   2.371   2.868
  901SOL    HW1 2720   0.287   2.288   2.851
  901SOL    HW2 2721   0.416   2.376   2.804
  902SOL     OW 2722   1.138   2.242   3.540
  902SOL    HW1 2723   1.093   2.305   3.604
  902SOL    HW2 2724   1.231   2.273   3.523
  903SOL     OW 2725   1.160   2.069   3.339
  903SOL    HW1 2726   1.160   2.133   3.416
  903SOL    HW2 2727   1.188   2.117   3.256
  904SOL     OW 2728   0.008   3.188   2.062
  904SOL    HW1 2729  -0.085   3.209   2.031
  904SOL    HW2 2730   0.018   3.089   2.075
  905SOL     OW 2731   0.088   3.663   2.789
  905SOL    HW1 2732   0.046   3.577   2.762
  905SOL    HW2 2733   0.182   3.666   2.755
  906SOL     OW 2734   0.504   3.430   2.772
  906SOL    HW1 2735   0.570   3.504   2.781
  906SOL    HW2 2736   0.548   3.351   2.730
  907SOL     OW 2737   1.002   2.658   3.100
  907SOL    HW1 2738   1.043   2.626   3.186
  907SOL    HW2 2739   0.906   2.631   3.097
  908SOL     OW 2740   0.040   2.406   2.976
  908SOL    HW1 2741   0.125   2.373   2.935
  908SOL    HW2 2742   0.053   2.421   3.074
  909SOL     OW 2743   0.189   2.382   3.584
  909SOL    HW1 2744   0.248   2.342   3.514
  909SOL    HW2 2745   0.131   2.453   3.543
  910SOL     OW 2746   1.369   2.812   3.522
  910SOL    HW1 2747   1.408   2.901   3.542
  910SOL    HW2 2748   1.379   2.792   3.425
  911SOL     OW 2749   0.815   2.434   2.187
  911SOL    HW1 2750   0.822   2.345   2.141
  911SOL    HW2 2751   0.721   2.468   2.179
  912SOL     OW 2752   1.657   2.466   3.068
  912SOL    HW1 2753   1.619   2.397   3.130
  912SOL    HW2 2754   1.739   2.430   3.024
  913SOL     OW 2755   0.252   3.426   3.606
  913SOL    HW1 2756   0.222   3.483   3.682
  913SOL    HW2 2757   0.245   3.329   3.632
  914SOL     OW 2758   0.671   2.326   3.131
  914SOL    HW1 2759   0.637   2.237   3.101
  914SOL    HW2 2760   0.697   2.380   3.051
  915SOL     OW 2761   0.930   3.540   3.327
  915SOL    HW1 2762   0.906   3.522   3.232
  915SOL    HW2 2763   0.960   3.634   3.337
  916SOL     OW 2764   0.473   2.362   2.053
  916SOL    HW1 2765   0.534   2.442   2.057
  916SOL    HW2 2766   0.378   2.393   2.060
  917SOL     OW 2767   0.159   2.999   3.328
  917SOL    HW1 2768   0.181   2.938   3.404
  917SOL    HW2 2769   0.169   2.950   3.242
  918SOL     OW 2770   1.347   2.921   3.096
  918SOL    HW1 2771   1.371   2.858   3.022
  918SOL    HW2 2772   1.257   2.961   3.078
  919SOL     OW 2773   1.302   2.717   2.171
  919SOL    HW1 2774   1.216   2.686   2.213
  919SOL    HW2 2775   1.298   2.703   2.072
  920SOL     OW 2776   1.759   3.609   3.016
  920SOL    HW1 2777   1.820   3.639   2.943
  920SOL    HW2 2778   1.721   3.520   2.994
  921SOL     OW 2779   1.252   3.593   2.990
  921SOL    HW1 2780   1.336   3.598   2.936
  921SOL    HW2 2781   1.229   3.497   3.008
  922SOL     OW 2782   0.083   3.120   2.884
  922SOL    HW1 2783   0.078   3.119   2.984
  922SOL    HW2 2784   0.000   3.079   2.846
  923SOL     OW 2785   0.688   3.524   3.578
  923SOL    HW1 2786   0.632   3.605   3.587
  923SOL    HW2 2787   0.740   3.528   3.492
  924SOL     OW 2788   1.726   1.997   2.385
  924SOL    HW1 2789   1.799   1.980   2.318
  924SOL    HW2 2790   1.695   1.910   2.423
  925SOL     OW 2791   1.388   3.435   2.339
  925SOL    HW1 2792   1.455   3.447   2.265
  925SOL    HW2 2793   1.348   3.524   2.362
  926SOL     OW 2794   0.130   3.656   3.713
  926SOL    HW1 2795   0.089   3.582   3.766
  926SOL    HW2 2796   0.194   3.707   3.771
  927SOL     OW 2797   1.280   2.789   2.534
  927SOL    HW1 2798   1.340   2.708   2.536
  927SOL    HW2 2799   1.320   2.858   2.474
  928SOL     OW 2800   0.830   3.135   3.284
  928SOL    HW1 2801   0.825   3.168   3.379
  928SOL    HW2 2802   0.744   3.154   3.238
  929SOL     OW 2803   0.672   3.478   2.016
  929SOL    HW1 2804   0.681   3.488   1.917
  929SOL    HW2 2805   0.632   3.389   2.037
  930SOL     OW 2806   1.650   3.582   3.256
  930SOL    HW1 2807   1.703   3.592   3.172
  930SOL    HW2 2808   1.623   3.672   3.290
  931SOL     OW 2809   1.841   2.037   2.825
  931SOL    HW1 2810   1.880   1.952   2.789
  931SOL    HW2 2811   1.743   2.039   2.806
  932SOL     OW 2812   0.263   2.188   2.582
  932SOL    HW1 2813   0.184   2.239   2.548
  932SOL    HW2 2814   0.254   2.173   2.680
  933SOL     OW 2815   1.194   3.474   1.893
  933SOL    HW1 2816   1.200   3.381   1.930
  933SOL    HW2 2817   1.135   3.474   1.813
  934SOL     OW 2818   0.822   2.864   3.234
  934SOL    HW1 2819   0.862   2.863   3.142
  934SOL    HW2 2820   0.832   2.956   3.274
  935SOL     OW 2821   0.916   2.772   2.153
  935SOL    HW1 2822   0.979   2.810   2.085
  935SOL    HW2 2823   0.956   2.689   2.192
  936SOL     OW 2824   1.504   3.469   1.906
  936SOL    HW1 2825   1.412   3.506   1.913
  936SOL    HW2 2826   1.542   3.489   1.816
  937SOL     OW 2827   0.372   3.150   3.352
  937SOL    HW1 2828   0.359   3.243   3.318
  937SOL    HW2 2829   0.288   3.098   3.339
  938SOL     OW 2830   1.614   3.154   3.151
  938SOL    HW1 2831   1.674   3.157   3.231
  938SOL    HW2 2832   1.539   3.218   3.164
  939SOL     OW 2833   1.039   2.960   2.558
  939SOL    HW1 2834   0.969   2.913   2.612
  939SOL    HW2 2835   1.098   2.892   2.515
  940SOL     OW 2836   1.014   2.098   2.833
  940SOL    HW1 2837   1.006   2.062   2.740
  940SOL    HW2 2838   1.012   2.022   2.898
  941SOL     OW 2839   0.590   3.349   2.353
  941SOL    HW1 2840   0.632   3.291   2.283
  941SOL    HW2 2841   0.546   3.428   2.309
  942SOL     OW 2842   1.709   2.247   3.243
  942SOL    HW1 2843   1.782   2.316   3.247
  942SOL    HW2 2844   1.737   2.172   3.184
  943SOL     OW 2845   0.255   3.210   2.152
  943SOL    HW1 2846   0.159   3.211   2.125
  943SOL    HW2 2847   0.267   3.263   2.236
  944SOL     OW 2848   0.105   2.875   3.588
  944SOL    HW1 2849   0.028   2.842   3.642
  944SOL    HW2 2850   0.190   2.845   3.630
  945SOL     OW 2851   0.672   2.065   3.351
  945SOL    HW1 2852   0.762   2.049   3.311
  945SOL    HW2 2853   0.680   2.070   3.450
  946SOL     OW 2854   0.075   2.207   1.895
  946SOL    HW1 2855  -0.017   2.179   1.866
  946SOL    HW2 2856   0.106   2.284   1.839
  947SOL     OW 2857   1.440   2.718   3.260
  947SOL    HW1 2858   1.383   2.770   3.197
  947SOL    HW2 2859   1.536   2.730   3.236
  948SOL     OW 2860   0.072   2.028   2.180
  948SOL    HW1 2861   0.055   2.111   2.126
  948SOL    HW2 2862   0.162   1.991   2.158
  949SOL     OW 2863   1.183   3.197   1.981
  949SOL    HW1 2864   1.084   3.186   1.983
  949SOL    HW2 2865   1.217   3.212   2.074
  950SOL     OW 2866   0.613   2.704   3.293
  950SOL    HW1 2867   0.669   2.785   3.276
  950SOL    HW2 2868   0.672   2.624   3.296
  951SOL     OW 2869   1.493   3.629   2.821
  951SOL    HW1 2870   1.526   3.693   2.752
  951SOL    HW2 2871   1.559   3.623   2.896
  952SOL     OW 2872   0.716   2.427   3.570
  952SOL    HW1 2873   0.735   2.492   3.644
  952SOL    HW2 2874   0.776   2.347   3.579
  953SOL     OW 2875   1.450   3.082   3.495
  953SOL    HW1 2876   1.441   3.072   3.594
  953SOL    HW2 2877   1.546   3.075   3.469
  954SOL     OW 2878   0.390   3.603   3.422
  954SOL    HW1 2879   0.299   3.644   3.420
  954SOL    HW2 2880   0.383   3.509   3.454
  955SOL     OW 2881   1.674   2.745   3.116
  955SOL    HW1 2882   1.647   2.656   3.079
  955SOL    HW2 2883   1.675   2.813   3.043
  956SOL     OW 2884   1.225   2.187   2.311
  956SOL    HW1 2885   1.290   2.113   2.300
  956SOL    HW2 2886   1.245   2.237   2.395
  957SOL     OW 2887   0.594   2.607   2.514
  957SOL    HW1 2888   0.644   2.692   2.495
  957SOL    HW2 2889   0.506   2.609   2.466
  958SOL     OW 2890   1.777   2.204   3.504
  958SOL    HW1 2891   1.760   2.235   3.410
  958SOL    HW2 2892   1.693   2.167   3.542
  959SOL     OW 2893   1.730   2.796   3.379
  959SOL    HW1 2894   1.768   2.887   3.394
  959SOL    HW2 2895   1.722   2.779   3.280
  960SOL     OW 2896   0.859   3.236   1.878
  960SOL    HW1 2897   0.813   3.251   1.966
  960SOL    HW2 2898   0.903   3.321   1.848
  961SOL     OW 2899   0.661   3.652   2.815
  961SOL    HW1 2900   0.615   3.740   2.802
  961SOL    HW2 2901   0.760   3.664   2.808
  962SOL     OW 2902   0.859   2.818   2.723
  962SOL    HW1 2903   0.913   2.749   2.771
  962SOL    HW2 2904   0.827   2.887   2.789
  963SOL     OW 2905   1.083   2.846   1.949
  963SOL    HW1 2906   1.060   2.899   1.867
  963SOL    HW2 2907   1.164   2.790   1.930
  964SOL     OW 2908   1.861   3.431   2.713
  964SOL    HW1 2909   1.790   3.419   2.643
  964SOL    HW2 2910   1.862   3.352   2.773
  965SOL     OW 2911   0.221   3.176   3.706
  965SOL    HW1 2912   0.156   3.103   3.685
  965SOL    HW2 2913   0.225   3.190   3.804
  966SOL     OW 2914   0.079   3.102   2.515
  966SOL    HW1 2915   0.078   3.055   2.603
  966SOL    HW2 2916   0.161   3.074   2.464
  967SOL     OW 2917   0.672   3.253   3.486
  967SOL    HW1 2918   0.594   3.203   3.524
  967SOL    HW2 2919   0.669   3.348   3.517
  968SOL     OW 2920   1.824   2.054   3.089
  968SOL    HW1 2921   1.820   1.964   3.133
  968SOL    HW2 2922   1.827   2.043   2.990
  969SOL     OW 2923   0.428   2.286   2.382
  969SOL    HW1 2924   0.458   2.214   2.320
  969SOL    HW2 2925   0.389   2.246   2.465
  970SOL     OW 2926   1.705   3.349   2.966
  970SOL    HW1 2927   1.612   3.324   2.939
  970SOL    HW2 2928   1.731   3.299   3.048
  971SOL     OW 2929   0.317   2.409   3.142
  971SOL    HW1 2930   0.355   2.350   3.214
  971SOL    HW2 2931   0.357   2.383   3.054
  972SOL     OW 2932   0.812   3.448   2.549
  972SOL    HW1 2933   0.844   3.458   2.455
  972SOL    HW2 2934   0.733   3.386   2.551
  973SOL     OW 2935   1.424   2.076   2.974
  973SOL    HW1 2936   1.476   2.011   3.029
  973SOL    HW2 2937   1.375   2.139   3.035
  974SOL     OW 2938   1.001   1.896   3.016
  974SOL    HW1 2939   0.938   1.824   2.985
  974SOL    HW2 2940   1.094   1.860   3.016
  975SOL     OW 2941   0.770   3.192   2.163
  975SOL    HW1 2942   0.724   3.105   2.180
  975SOL    HW2 2943   0.861   3.189   2.204
  976SOL     OW 2944   0.618   3.429   3.146
  976SOL    HW1 2945   0.613   3.511   3.203
  976SOL    HW2 2946   0.707   3.426   3.101
  977SOL     OW 2947   1.352   1.914   2.030
  977SOL    HW1 2948   1.387   1.873   1.946
  977SOL    HW2 2949   1.262   1.876   2.050
  978SOL     OW 2950   1.300   2.315   2.553
  978SOL    HW1 2951   1.241   2.395   2.557
  978SOL    HW2 2952   1.315   2.280   2.646
  979SOL     OW 2953   1.593   2.083   2.744
  979SOL    HW1 2954   1.509   2.082   2.798
  979SOL    HW2 2955   1.595   2.166   2.688
  980SOL     OW 2956   0.039   2.939   2.162
  980SOL    HW1 2957   0.138   2.928   2.153
  980SOL    HW2 2958  -0.001   2.853   2.194
  981SOL     OW 2959   0.875   3.508   2.199
  981SOL    HW1 2960   0.798   3.473   2.145
  981SOL    HW2 2961   0.843   3.579   2.261
  982SOL     OW 2962   0.230   2.490   3.837
  982SOL    HW1 2963   0.137   2.488   3.874
  982SOL    HW2 2964   0.231   2.451   3.745
  983SOL     OW 2965   0.225   2.137   4.720
  983SOL    HW1 2966   0.260   2.120   4.812
  983SOL    HW2 2967   0.137   2.092   4.708
  984SOL     OW 2968   0.019   2.230   4.371
  984SOL    HW1 2969  -0.063   2.273   4.410
  984SOL    HW2 2970  -0.009   2.157   4.308
  985SOL     OW 2971   1.555   3.373   4.427
  985SOL    HW1 2972   1.498   3.357   4.508
  985SOL    HW2 2973   1.496   3.383   4.347
  986SOL     OW 2974   1.135   2.565   4.441
  986SOL    HW1 2975   1.192   2.643   4.416
  986SOL    HW2 2976   1.075   2.591   4.517
  987SOL     OW 2977   1.755   2.469   3.955
  987SOL    HW1 2978   1.743   2.456   3.856
  987SOL    HW2 2979   1.725   2.388   4.004
  988SOL     OW 2980   0.768   3.006   4.747
  988SOL    HW1 2981   0.690   3.023   4.807
  988SOL    HW2 2982   0.802   3.093   4.711
  989SOL     OW 2983   0.685   2.874   4.389
  989SOL    HW1 2984   0.754   2.858   4.459
  989SOL    HW2 2985   0.612   2.931   4.427
  990SOL     OW 2986   0.335   3.297   4.785
  990SOL    HW1 2987   0.257   3.266   4.732
  990SOL    HW2 2988   0.393   3.355   4.728
  991SOL     OW 2989   1.603   2.309   4.461
  991SOL    HW1 2990   1.529   2.355   4.411
  991SOL    HW2 2991   1.654   2.377   4.514
  992SOL     OW 2992   0.231   3.575   4.207
  992SOL    HW1 2993   0.265   3.652   4.261
  992SOL    HW2 2994   0.275   3.575   4.117
  993SOL     OW 2995   0.230   3.296   4.262
  993SOL    HW1 2996   0.204   3.392   4.262
  993SOL    HW2 2997   0.159   3.242   4.307
  994SOL     OW 2998   0.240   2.953   4.610
  994SOL    HW1 2999   0.254   2.869   4.662
  994SOL    HW2 3000   0.185   3.017   4.665
  995SOL     OW 3001   0.606   2.826   3.847
  995SOL    HW1 3002   0.613   2.910   3.793
  995SOL    HW2 3003   0.652   2.839   3.935
  996SOL     OW 3004   0.122   2.505   4.287
  996SOL    HW1 3005   0.077   2.417   4.304
  996SOL    HW2 3006   0.121   2.559   4.371
  997SOL     OW 3007   1.842   3.629   4.083
  997SOL    HW1 3008   1.896   3.600   4.163
  997SOL    HW2 3009   1.872   3.719   4.054
  998SOL     OW 3010   0.027   3.458   3.841
  998SOL    HW1 3011   0.008   3.362   3.862
  998SOL    HW2 3012  -0.006   3.516   3.916
  999SOL     OW 3013   1.689   2.784   4.336
  999SOL    HW1 3014   1.784   2.755   4.344
  999SOL    HW2 3015   1.681   2.849   4.261
 1000SOL     OW 3016   1.641   2.970   4.156
 1000SOL    HW1 3017   1.727   2.972   4.104
 1000SOL    HW2 3018   1.655   3.017   4.244
 1001SOL     OW 3019   0.613   3.227   4.450
 1001SOL    HW1 3020   0.564   3.140   4.459
 1001SOL    HW2 3021   0.590   3.270   4.363
 1002SOL     OW 3022   0.809   1.866   4.226
 1002SOL    HW1 3023   0.849   1.957   4.217
 1002SOL    HW2 3024   0.709   1.874   4.232
 1003SOL     OW 3025   0.197   2.838   4.988
 1003SOL    HW1 3026   0.286   2.793   4.974
 1003SOL    HW2 3027   0.124   2.773   4.969
 1004SOL     OW 3028   1.525   2.861   3.914
 1004SOL    HW1 3029   1.462   2.785   3.927
 1004SOL    HW2 3030   1.573   2.879   4.000
 1005SOL     OW 3031   1.466   3.279   4.677
 1005SOL    HW1 3032   1.407   3.285   4.757
 1005SOL    HW2 3033   1.451   3.191   4.631
 1006SOL     OW 3034   1.667   3.576   4.296
 1006SOL    HW1 3035   1.626   3.553   4.208
 1006SOL    HW2 3036   1.649   3.502   4.361
 1007SOL     OW 3037   0.598   2.591   3.994
 1007SOL    HW1 3038   0.622   2.660   3.926
 1007SOL    HW2 3039   0.520   2.624   4.048
 1008SOL     OW 3040   1.281   2.207   4.668
 1008SOL    HW1 3041   1.195   2.157   4.655
 1008SOL    HW2 3042   1.343   2.153   4.724
 1009SOL     OW 3043   1.576   3.524   4.031
 1009SOL    HW1 3044   1.665   3.570   4.034
 1009SOL    HW2 3045   1.555   3.500   3.936
 1010SOL     OW 3046   1.041   2.563   4.153
 1010SOL    HW1 3047   1.067   2.559   4.249
 1010SOL    HW2 3048   0.956   2.512   4.139
 1011SOL     OW 3049   0.076   2.673   4.513
 1011SOL    HW1 3050   0.175   2.661   4.522
 1011SOL    HW2 3051   0.052   2.768   4.534
 1012SOL     OW 3052   0.865   2.210   3.919
 1012SOL    HW1 3053   0.924   2.273   3.870
 1012SOL    HW2 3054   0.884   2.116   3.890
 1013SOL     OW 3055   1.362   3.006   4.269
 1013SOL    HW1 3056   1.445   2.977   4.221
 1013SOL    HW2 3057   1.313   3.073   4.213
 1014SOL     OW 3058   0.550   2.058   4.609
 1014SOL    HW1 3059   0.545   2.053   4.709
 1014SOL    HW2 3060   0.552   2.154   4.580
 1015SOL     OW 3061   1.008   3.318   4.201
 1015SOL    HW1 3062   0.962   3.390   4.149
 1015SOL    HW2 3063   1.004   3.338   4.299
 1016SOL     OW 3064   0.351   3.663   4.577
 1016SOL    HW1 3065   0.401   3.577   4.583
 1016SOL    HW2 3066   0.416   3.740   4.574
 1017SOL     OW 3067   1.795   2.928   4.597
 1017SOL    HW1 3068   1.733   2.913   4.521
 1017SOL    HW2 3069   1.743   2.939   4.682
 1018SOL     OW 3070   0.321   2.805   3.966
 1018SOL    HW1 3071   0.403   2.844   3.924
 1018SOL    HW2 3072   0.294   2.723   3.917
 1019SOL     OW 3073   1.458   2.597   4.452
 1019SOL    HW1 3074   1.453   2.532   4.527
 1019SOL    HW2 3075   1.538   2.656   4.465
 1020SOL     OW 3076   1.111   3.638   3.961
 1020SOL    HW1 3077   1.051   3.576   4.011
 1020SOL    HW2 3078   1.142   3.594   3.876
 1021SOL     OW 3079   1.632   3.239   3.805
 1021SOL    HW1 3080   1.600   3.333   3.795
 1021SOL    HW2 3081   1.556   3.176   3.793
 1022SOL     OW 3082   0.464   3.605   4.047
 1022SOL    HW1 3083   0.497   3.644   4.133
 1022SOL    HW2 3084   0.540   3.598   3.982
 1023SOL     OW 3085   1.400   1.969   4.150
 1023SOL    HW1 3086   1.376   1.932   4.060
 1023SOL    HW2 3087   1.499   1.985   4.154
 1024SOL     OW 3088   0.249   3.647   4.965
 1024SOL    HW1 3089   0.306   3.582   5.015
 1024SOL    HW2 3090   0.233   3.614   4.872
 1025SOL     OW 3091   0.940   3.560   4.628
 1025SOL    HW1 3092   1.020   3.503   4.649
 1025SOL    HW2 3093   0.891   3.520   4.551
 1026SOL     OW 3094   0.382   2.562   4.204
 1026SOL    HW1 3095   0.427   2.472   4.201
 1026SOL    HW2 3096   0.288   2.551   4.237
 1027SOL     OW 3097   0.614   1.984   3.841
 1027SOL    HW1 3098   0.712   1.962   3.848
 1027SOL    HW2 3099   0.583   1.967   3.748
 1028SOL     OW 3100   0.803   3.264   4.648
 1028SOL    HW1 3101   0.893   3.278   4.606
 1028SOL    HW2 3102   0.732   3.266   4.577
 1029SOL     OW 3103   0.922   2.365   4.623
 1029SOL    HW1 3104   0.897   2.356   4.527
 1029SOL    HW2 3105   0.970   2.283   4.654
 1030SOL     OW 3106   0.539   1.926   4.236
 1030SOL    HW1 3107   0.458   1.927   4.294
 1030SOL    HW2 3108   0.542   2.009   4.181
 1031SOL     OW 3109   1.434   3.050   3.765
 1031SOL    HW1 3110   1.466   2.974   3.822
 1031SOL    HW2 3111   1.342   3.077   3.795
 1032SOL     OW 3112   0.297   1.897   3.895
 1032SOL    HW1 3113   0.346   1.981   3.874
 1032SOL    HW2 3114   0.359   1.832   3.940
 1033SOL     OW 3115   0.935   2.098   4.204
 1033SOL    HW1 3116   0.887   2.139   4.126
 1033SOL    HW2 3117   1.034   2.096   4.185
 1034SOL     OW 3118   1.227   3.432   4.517
 1034SOL    HW1 3119   1.248   3.506   4.452
 1034SOL    HW2 3120   1.295   3.432   4.590
 1035SOL     OW 3121   0.459   3.014   4.465
 1035SOL    HW1 3122   0.388   2.987   4.530
 1035SOL    HW2 3123   0.433   2.986   4.372
 1036SOL     OW 3124   1.271   3.659   4.315
 1036SOL    HW1 3125   1.315   3.723   4.251
 1036SOL    HW2 3126   1.221   3.711   4.385
 1037SOL     OW 3127   1.032   2.411   3.740
 1037SOL    HW1 3128   0.991   2.493   3.701
 1037SOL    HW2 3129   1.096   2.437   3.813
 1038SOL     OW 3130   0.866   2.316   4.366
 1038SOL    HW1 3131   0.834   2.388   4.304
 1038SOL    HW2 3132   0.890   2.235   4.313
 1039SOL     OW 3133   1.017   1.901   4.477
 1039SOL    HW1 3134   0.945   1.906   4.408
 1039SOL    HW2 3135   0.993   1.832   4.546
 1040SOL     OW 3136   1.429   3.035   4.591
 1040SOL    HW1 3137   1.374   2.951   4.584
 1040SOL    HW2 3138   1.455   3.064   4.499
 1041SOL     OW 3139   1.466   2.452   4.716
 1041SOL    HW1 3140   1.436   2.357   4.723
 1041SOL    HW2 3141   1.539   2.468   4.782
 1042SOL     OW 3142   1.857   2.695   4.101
 1042SOL    HW1 3143   1.899   2.631   4.165
 1042SOL    HW2 3144   1.819   2.644   4.023
 1043SOL     OW 3145   0.488   3.247   3.898
 1043SOL    HW1 3146   0.401   3.232   3.945
 1043SOL    HW2 3147   0.471   3.273   3.803
 1044SOL     OW 3148   1.664   3.142   4.381
 1044SOL    HW1 3149   1.763   3.150   4.395
 1044SOL    HW2 3150   1.619   3.226   4.412
 1045SOL     OW 3151   1.390   2.437   3.802
 1045SOL    HW1 3152   1.336   2.416   3.883
 1045SOL    HW2 3153   1.481   2.396   3.811
 1046SOL     OW 3154   0.527   2.118   4.052
 1046SOL    HW1 3155   0.554   2.059   3.977
 1046SOL    HW2 3156   0.527   2.213   4.021
 1047SOL     OW 3157   1.111   3.057   4.824
 1047SOL    HW1 3158   1.071   3.101   4.905
 1047SOL    HW2 3159   1.070   3.094   4.741
 1048SOL     OW 3160   1.638   2.961   4.803
 1048SOL    HW1 3161   1.643   3.042   4.862
 1048SOL    HW2 3162   1.552   2.963   4.752
 1049SOL     OW 3163   0.705   2.912   4.092
 1049SOL    HW1 3164   0.691   2.919   4.191
 1049SOL    HW2 3165   0.789   2.861   4.074
 1050SOL     OW 3166   0.410   2.675   4.975
 1050SOL    HW1 3167   0.496   2.687   5.025
 1050SOL    HW2 3168   0.368   2.588   5.002
 1051SOL     OW 3169   0.367   2.962   4.225
 1051SOL    HW1 3170   0.360   3.045   4.169
 1051SOL    HW2 3171   0.371   2.882   4.165
 1052SOL     OW 3172   0.566   2.399   4.589
 1052SOL    HW1 3173   0.578   2.465   4.515
 1052SOL    HW2 3174   0.612   2.433   4.672
 1053SOL     OW 3175   1.252   3.210   4.112
 1053SOL    HW1 3176   1.302   3.287   4.152
 1053SOL    HW2 3177   1.157   3.212   4.144
 1054SOL     OW 3178   1.582   2.501   4.196
 1054SOL    HW1 3179   1.551   2.562   4.269
 1054SOL    HW2 3180   1.632   2.553   4.127
 1055SOL     OW 3181   0.354   3.372   5.053
 1055SOL    HW1 3182   0.333   3.328   4.966
 1055SOL    HW2 3183   0.451   3.398   5.056
 1056SOL     OW 3184   0.573   2.732   4.753
 1056SOL    HW1 3185   0.617   2.821   4.744
 1056SOL    HW2 3186   0.510   2.732   4.830
 1057SOL     OW 3187   1.209   2.387   3.999
 1057SOL    HW1 3188   1.222   2.303   4.053
 1057SOL    HW2 3189   1.180   2.461   4.059
 1058SOL     OW 3190   0.307   2.075   4.955
 1058SOL    HW1 3191   0.284   2.112   5.045
 1058SOL    HW2 3192   0.277   1.980   4.949
 1059SOL     OW 3193   0.732   2.496   4.788
 1059SOL    HW1 3194   0.791   2.470   4.712
 1059SOL    HW2 3195   0.704   2.592   4.777
 1060SOL     OW 3196   0.307   1.925   4.342
 1060SOL    HW1 3197   0.296   2.019   4.375
 1060SOL    HW2 3198   0.302   1.862   4.419
 1061SOL     OW 3199   1.622   2.229   4.098
 1061SOL    HW1 3200   1.624   2.153   4.162
 1061SOL    HW2 3201   1.574   2.306   4.138
 1062SOL     OW 3202   1.023   2.628   4.690
 1062SOL    HW1 3203   1.038   2.649   4.786
 1062SOL    HW2 3204   0.993   2.533   4.681
 1063SOL     OW 3205   1.540   2.136   3.849
 1063SOL    HW1 3206   1.479   2.061   3.872
 1063SOL    HW2 3207   1.562   2.188   3.932
 1064SOL     OW 3208   1.303   2.700   3.766
 1064SOL    HW1 3209   1.337   2.607   3.781
 1064SOL    HW2 3210   1.321   2.727   3.671
 1065SOL     OW 3211   1.068   3.195   4.573
 1065SOL    HW1 3212   1.075   3.111   4.518
 1065SOL    HW2 3213   1.130   3.264   4.537
 1066SOL     OW 3214   0.319   2.672   4.673
 1066SOL    HW1 3215   0.412   2.708   4.678
 1066SOL    HW2 3216   0.313   2.587   4.725
 1067SOL     OW 3217   0.339   2.371   4.730
 1067SOL    HW1 3218   0.287   2.288   4.713
 1067SOL    HW2 3219   0.416   2.376   4.666
 1068SOL     OW 3220   0.008   3.188   3.924
 1068SOL    HW1 3221  -0.085   3.209   3.893
 1068SOL    HW2 3222   0.018   3.089   3.937
 1069SOL     OW 3223   0.088   3.663   4.651
 1069SOL    HW1 3224   0.046   3.577   4.624
 1069SOL    HW2 3225   0.182   3.666   4.617
 1070SOL     OW 3226   0.504   3.430   4.634
 1070SOL    HW1 3227   0.570   3.504   4.643
 1070SOL    HW2 3228   0.548   3.351   4.592
 1071SOL     OW 3229   1.002   2.658   4.962
 1071SOL    HW1 3230   1.043   2.626   5.048
 1071SOL    HW2 3231   0.906   2.631   4.959
 1072SOL     OW 3232   0.815   2.434   4.049
 1072SOL    HW1 3233   0.822   2.345   4.003
 1072SOL    HW2 3234   0.721   2.468   4.041
 1073SOL     OW 3235   0.671   2.326   4.993
 1073SOL    HW1 3236   0.637   2.237   4.963
 1073SOL    HW2 3237   0.697   2.380   4.913
 1074SOL     OW 3238   0.473   2.362   3.915
 1074SOL    HW1 3239   0.534   2.442   3.919
 1074SOL    HW2 3240   0.378   2.393   3.922
 1075SOL     OW 3241   1.302   2.717   4.033
 1075SOL    HW1 3242   1.216   2.686   4.075
 1075SOL    HW2 3243   1.298   2.703   3.934
 1076SOL     OW 3244   1.759   3.609   4.878
 1076SOL    HW1 3245   1.820   3.639   4.805
 1076SOL    HW2 3246   1.721   3.520   4.856
 1077SOL     OW 3247   0.083   3.120   4.746
 1077SOL    HW1 3248   0.078   3.119   4.846
 1077SOL    HW2 3249   0.000   3.079   4.708
 1078SOL     OW 3250   1.726   1.997   4.247
 1078SOL    HW1 3251   1.799   1.980   4.180
 1078SOL    HW2 3252   1.695   1.910   4.285
 1079SOL     OW 3253   1.388   3.435   4.201
 1079SOL    HW1 3254   1.455   3.447   4.127
 1079SOL    HW2 3255   1.348   3.524   4.224
 1080SOL     OW 3256   1.280   2.789   4.396
 1080SOL    HW1 3257   1.340   2.708   4.398
 1080SOL    HW2 3258   1.320   2.858   4.336
 1081SOL     OW 3259   0.672   3.478   3.878
 1081SOL    HW1 3260   0.681   3.488   3.779
 1081SOL    HW2 3261   0.632   3.389   3.899
 1082SOL     OW 3262   1.841   2.037   4.687
 1082SOL    HW1 3263   1.880   1.952   4.651
 1082SOL    HW2 3264   1.743   2.039   4.668
 1083SOL     OW 3265   0.263   2.188   4.444
 1083SOL    HW1 3266   0.184   2.239   4.410
 1083SOL    HW2 3267   0.254   2.173   4.542
 1084SOL     OW 3268   1.194   3.474   3.755
 1084SOL    HW1 3269   1.200   3.381   3.792
 1084SOL    HW2 3270   1.135   3.474   3.675
 1085SOL     OW 3271   0.916   2.772   4.015
 1085SOL    HW1 3272   0.979   2.810   3.947
 1085SOL    HW2 3273   0.956   2.689   4.054
 1086SOL     OW 3274   1.504   3.469   3.768
 1086SOL    HW1 3275   1.412   3.506   3.775
 1086SOL    HW2 3276   1.542   3.489   3.678
 1087SOL     OW 3277   1.039   2.960   4.420
 1087SOL    HW1 3278   0.969   2.913   4.474
 1087SOL    HW2 3279   1.098   2.892   4.377
 1088SOL     OW 3280   1.014   2.098   4.695
 1088SOL    HW1 3281   1.006   2.062   4.602
 1088SOL    HW2 3282   1.012   2.022   4.760
 1089SOL     OW 3283   0.590   3.349   4.215
 1089SOL    HW1 3284   0.632   3.291   4.145
 1089SOL    HW2 3285   0.546   3.428   4.171
 1090SOL     OW 3286   0.255   3.210   4.014
 1090SOL    HW1 3287   0.159   3.211   3.987
 1090SOL    HW2 3288   0.267   3.263   4.098
 1091SOL     OW 3289   0.075   2.207   3.757
 1091SOL    HW1 3290  -0.017   2.179   3.728
 1091SOL    HW2 3291   0.106   2.284   3.701
 1092SOL     OW 3292   0.072   2.028   4.042
 1092SOL    HW1 3293   0.055   2.111   3.988
 1092SOL    HW2 3294   0.162   1.991   4.020
 1093SOL     OW 3295   1.183   3.197   3.843
 1093SOL    HW1 3296   1.084   3.186   3.845
 1093SOL    HW2 3297   1.217   3.212   3.936
 1094SOL     OW 3298   1.493   3.629   4.683
 1094SOL    HW1 3299   1.526   3.693   4.614
 1094SOL    HW2 3300   1.559   3.623   4.758
 1095SOL     OW 3301   1.674   2.745   4.978
 1095SOL    HW1 3302   1.647   2.656   4.941
 1095SOL    HW2 3303   1.675   2.813   4.905
 1096SOL     OW 3304   1.225   2.187   4.173
 1096SOL    HW1 3305   1.290   2.113   4.162
 1096SOL    HW2 3306   1.245   2.237   4.257
 1097SOL     OW 3307   0.594   2.607   4.376
 1097SOL    HW1 3308   0.644   2.692   4.357
 1097SOL    HW2 3309   0.506   2.609   4.328
 1098SOL     OW 3310   0.859   3.236   3.740
 1098SOL    HW1 3311   0.813   3.251   3.828
 1098SOL    HW2 3312   0.903   3.321   3.710
 1099SOL     OW 3313   0.661   3.652   4.677
 1099SOL    HW1 3314   0.615   3.740   4.664
 1099SOL    HW2 3315   0.760   3.664   4.670
 1100SOL     OW 3316   0.859   2.818   4.585
 1100SOL    HW1 3317   0.913   2.749   4.633
 1100SOL    HW2 3318   0.827   2.887   4.651
 1101SOL     OW 3319   1.083   2.846   3.811
 1101SOL    HW1 3320   1.060   2.899   3.729
 1101SOL    HW2 3321   1.164   2.790   3.792
 1102SOL     OW 3322   1.861   3.431   4.575
 1102SOL    HW1 3323   1.790   3.419   4.505
 1102SOL    HW2 3324   1.862   3.352   4.635
 1103SOL     OW 3325   0.079   3.102   4.377
 1103SOL    HW1 3326   0.078   3.055   4.465
 1103SOL    HW2 3327   0.161   3.074   4.326
 1104SOL     OW 3328   1.824   2.054   4.951
 1104SOL    HW1 3329   1.820   1.964   4.995
 1104SOL    HW2 3330   1.827   2.043   4.852
 1105SOL     OW 3331   0.428   2.286   4.244
 1105SOL    HW1 3332   0.458   2.214   4.182
 1105SOL    HW2 3333   0.389   2.246   4.327
 1106SOL     OW 3334   0.812   3.448   4.411
 1106SOL    HW1 3335   0.844   3.458   4.317
 1106SOL    HW2 3336   0.733   3.386   4.413
 1107SOL     OW 3337   1.424   2.076   4.836
 1107SOL    HW1 3338   1.476   2.011   4.891
 1107SOL    HW2 3339   1.375   2.139   4.897
 1108SOL     OW 3340   0.770   3.192   4.025
 1108SOL    HW1 3341   0.724   3.105   4.042
 1108SOL    HW2 3342   0.861   3.189   4.066
 1109SOL     OW 3343   1.352   1.914   3.892
 1109SOL    HW1 3344   1.387   1.873   3.808
 1109SOL    HW2 3345   1.262   1.876   3.912
 1110SOL     OW 3346   1.300   2.315   4.415
 1110SOL    HW1 3347   1.241   2.395   4.419
 1110SOL    HW2 3348   1.315   2.280   4.508
 1111SOL     OW 3349   1.593   2.083   4.606
 1111SOL    HW1 3350   1.509   2.082   4.660
 1111SOL    HW2 3351   1.595   2.166   4.550
 1112SOL     OW 3352   0.039   2.939   4.024
 1112SOL    HW1 3353   0.138   2.928   4.015
 1112SOL    HW2 3354  -0.001   2.853   4.056
 1113SOL     OW 3355   0.875   3.508   4.061
 1113SOL    HW1 3356   0.798   3.473   4.007
 1113SOL    HW2 3357   0.843   3.579   4.123
 1114SOL     OW 3358   0.230   4.352   0.113
 1114SOL    HW1 3359   0.137   4.350   0.150
 1114SOL    HW2 3360   0.231   4.313   0.021
 1115SOL     OW 3361   0.225   3.999   0.996
 1115SOL    HW1 3362   0.260   3.982   1.088
 1115SOL    HW2 3363   0.137   3.954   0.984
 1116SOL     OW 3364   0.019   4.092   0.647
 1116SOL    HW1 3365  -0.063   4.135   0.686
 1116SOL    HW2 3366  -0.009   4.019   0.584
 1117SOL     OW 3367   1.135   4.427   0.717
 1117SOL    HW1 3368   1.192   4.505   0.692
 1117SOL    HW2 3369   1.075   4.453   0.793
 1118SOL     OW 3370   1.755   4.331   0.231
 1118SOL    HW1 3371   1.743   4.318   0.132
 1118SOL    HW2 3372   1.725   4.250   0.280
 1119SOL     OW 3373   0.768   4.868   1.023
 1119SOL    HW1 3374   0.690   4.885   1.083
 1119SOL    HW2 3375   0.802   4.955   0.987
 1120SOL     OW 3376   0.850   4.522   1.823
 1120SOL    HW1 3377   0.846   4.598   1.888
 1120SOL    HW2 3378   0.872   4.558   1.732
 1121SOL     OW 3379   0.685   4.736   0.665
 1121SOL    HW1 3380   0.754   4.720   0.735
 1121SOL    HW2 3381   0.612   4.793   0.703
 1122SOL     OW 3382   0.438   4.116   1.499
 1122SOL    HW1 3383   0.520   4.060   1.508
 1122SOL    HW2 3384   0.357   4.058   1.503
 1123SOL     OW 3385   1.603   4.171   0.737
 1123SOL    HW1 3386   1.529   4.217   0.687
 1123SOL    HW2 3387   1.654   4.239   0.790
 1124SOL     OW 3388   0.230   5.158   0.538
 1124SOL    HW1 3389   0.204   5.254   0.538
 1124SOL    HW2 3390   0.159   5.104   0.583
 1125SOL     OW 3391   0.240   4.815   0.886
 1125SOL    HW1 3392   0.254   4.731   0.938
 1125SOL    HW2 3393   0.185   4.879   0.941
 1126SOL     OW 3394   0.606   4.688   0.123
 1126SOL    HW1 3395   0.613   4.772   0.069
 1126SOL    HW2 3396   0.652   4.701   0.211
 1127SOL     OW 3397   1.594   3.838   1.480
 1127SOL    HW1 3398   1.576   3.905   1.408
 1127SOL    HW2 3399   1.591   3.884   1.569
 1128SOL     OW 3400   0.122   4.367   0.563
 1128SOL    HW1 3401   0.077   4.279   0.580
 1128SOL    HW2 3402   0.121   4.421   0.647
 1129SOL     OW 3403   1.689   4.646   0.612
 1129SOL    HW1 3404   1.784   4.617   0.620
 1129SOL    HW2 3405   1.681   4.711   0.537
 1130SOL     OW 3406   0.113   4.461   1.597
 1130SOL    HW1 3407   0.201   4.448   1.642
 1130SOL    HW2 3408   0.100   4.558   1.575
 1131SOL     OW 3409   1.293   4.952   1.423
 1131SOL    HW1 3410   1.330   4.879   1.365
 1131SOL    HW2 3411   1.345   4.957   1.508
 1132SOL     OW 3412   0.809   3.728   0.502
 1132SOL    HW1 3413   0.849   3.819   0.493
 1132SOL    HW2 3414   0.709   3.736   0.508
 1133SOL     OW 3415   0.197   4.700   1.264
 1133SOL    HW1 3416   0.286   4.655   1.250
 1133SOL    HW2 3417   0.124   4.635   1.245
 1134SOL     OW 3418   1.525   4.723   0.190
 1134SOL    HW1 3419   1.462   4.647   0.203
 1134SOL    HW2 3420   1.573   4.741   0.276
 1135SOL     OW 3421   0.317   3.975   1.801
 1135SOL    HW1 3422   0.388   4.046   1.807
 1135SOL    HW2 3423   0.229   4.014   1.829
 1136SOL     OW 3424   0.598   4.453   0.270
 1136SOL    HW1 3425   0.622   4.522   0.202
 1136SOL    HW2 3426   0.520   4.486   0.324
 1137SOL     OW 3427   1.281   4.069   0.944
 1137SOL    HW1 3428   1.195   4.019   0.931
 1137SOL    HW2 3429   1.343   4.015   1.000
 1138SOL     OW 3430   0.807   4.329   1.465
 1138SOL    HW1 3431   0.760   4.326   1.554
 1138SOL    HW2 3432   0.756   4.274   1.399
 1139SOL     OW 3433   1.394   4.193   1.674
 1139SOL    HW1 3434   1.374   4.236   1.762
 1139SOL    HW2 3435   1.472   4.131   1.683
 1140SOL     OW 3436   0.973   4.614   1.572
 1140SOL    HW1 3437   1.019   4.530   1.543
 1140SOL    HW2 3438   0.917   4.648   1.497
 1141SOL     OW 3439   0.991   4.134   1.242
 1141SOL    HW1 3440   0.914   4.168   1.296
 1141SOL    HW2 3441   0.957   4.083   1.163
 1142SOL     OW 3442   1.041   4.425   0.429
 1142SOL    HW1 3443   1.067   4.421   0.525
 1142SOL    HW2 3444   0.956   4.374   0.415
 1143SOL     OW 3445   0.076   4.535   0.789
 1143SOL    HW1 3446   0.175   4.523   0.798
 1143SOL    HW2 3447   0.052   4.630   0.810
 1144SOL     OW 3448   0.865   4.072   0.195
 1144SOL    HW1 3449   0.924   4.135   0.146
 1144SOL    HW2 3450   0.884   3.978   0.166
 1145SOL     OW 3451   1.719   4.309   1.831
 1145SOL    HW1 3452   1.693   4.398   1.795
 1145SOL    HW2 3453   1.717   4.241   1.758
 1146SOL     OW 3454   0.550   3.920   0.885
 1146SOL    HW1 3455   0.545   3.915   0.985
 1146SOL    HW2 3456   0.552   4.016   0.856
 1147SOL     OW 3457   1.795   4.790   0.873
 1147SOL    HW1 3458   1.733   4.775   0.797
 1147SOL    HW2 3459   1.743   4.801   0.958
 1148SOL     OW 3460   0.321   4.667   0.242
 1148SOL    HW1 3461   0.403   4.706   0.200
 1148SOL    HW2 3462   0.294   4.585   0.193
 1149SOL     OW 3463   1.458   4.459   0.728
 1149SOL    HW1 3464   1.453   4.394   0.803
 1149SOL    HW2 3465   1.538   4.518   0.741
 1150SOL     OW 3466   0.202   4.009   1.498
 1150SOL    HW1 3467   0.122   4.069   1.485
 1150SOL    HW2 3468   0.192   3.960   1.584
 1151SOL     OW 3469   1.400   3.831   0.426
 1151SOL    HW1 3470   1.376   3.794   0.336
 1151SOL    HW2 3471   1.499   3.847   0.430
 1152SOL     OW 3472   0.382   4.424   0.480
 1152SOL    HW1 3473   0.427   4.334   0.477
 1152SOL    HW2 3474   0.288   4.413   0.513
 1153SOL     OW 3475   1.547   3.946   1.729
 1153SOL    HW1 3476   1.542   3.983   1.821
 1153SOL    HW2 3477   1.475   3.877   1.717
 1154SOL     OW 3478   0.614   3.846   0.117
 1154SOL    HW1 3479   0.712   3.824   0.124
 1154SOL    HW2 3480   0.583   3.829   0.024
 1155SOL     OW 3481   0.781   3.988   1.749
 1155SOL    HW1 3482   0.848   3.927   1.792
 1155SOL    HW2 3483   0.708   4.007   1.814
 1156SOL     OW 3484   1.351   4.314   1.433
 1156SOL    HW1 3485   1.379   4.271   1.518
 1156SOL    HW2 3486   1.376   4.410   1.434
 1157SOL     OW 3487   0.922   4.227   0.899
 1157SOL    HW1 3488   0.897   4.218   0.803
 1157SOL    HW2 3489   0.970   4.145   0.930
 1158SOL     OW 3490   0.539   3.788   0.512
 1158SOL    HW1 3491   0.458   3.789   0.570
 1158SOL    HW2 3492   0.542   3.871   0.457
 1159SOL     OW 3493   0.935   3.960   0.480
 1159SOL    HW1 3494   0.887   4.001   0.402
 1159SOL    HW2 3495   1.034   3.958   0.461
 1160SOL     OW 3496   1.076   4.407   1.464
 1160SOL    HW1 3497   0.996   4.346   1.467
 1160SOL    HW2 3498   1.157   4.354   1.440
 1161SOL     OW 3499   0.459   4.876   0.741
 1161SOL    HW1 3500   0.388   4.849   0.806
 1161SOL    HW2 3501   0.433   4.848   0.648
 1162SOL     OW 3502   1.032   4.273   0.016
 1162SOL    HW1 3503   0.991   4.355  -0.023
 1162SOL    HW2 3504   1.096   4.299   0.089
 1163SOL     OW 3505   0.078   4.280   1.386
 1163SOL    HW1 3506   0.170   4.279   1.345
 1163SOL    HW2 3507   0.072   4.354   1.453
 1164SOL     OW 3508   0.561   3.946   1.147
 1164SOL    HW1 3509   0.599   3.862   1.184
 1164SOL    HW2 3510   0.473   3.965   1.191
 1165SOL     OW 3511   0.866   4.178   0.642
 1165SOL    HW1 3512   0.834   4.250   0.580
 1165SOL    HW2 3513   0.890   4.097   0.589
 1166SOL     OW 3514   1.017   3.763   0.753
 1166SOL    HW1 3515   0.945   3.768   0.684
 1166SOL    HW2 3516   0.993   3.694   0.822
 1167SOL     OW 3517   1.429   4.897   0.867
 1167SOL    HW1 3518   1.374   4.813   0.860
 1167SOL    HW2 3519   1.455   4.926   0.775
 1168SOL     OW 3520   1.466   4.314   0.992
 1168SOL    HW1 3521   1.436   4.219   0.999
 1168SOL    HW2 3522   1.539   4.330   1.058
 1169SOL     OW 3523   1.857   4.557   0.377
 1169SOL    HW1 3524   1.899   4.493   0.441
 1169SOL    HW2 3525   1.819   4.506   0.299
 1170SOL     OW 3526   1.390   4.299   0.078
 1170SOL    HW1 3527   1.336   4.278   0.159
 1170SOL    HW2 3528   1.481   4.258   0.087
 1171SOL     OW 3529   0.527   3.980   0.328
 1171SOL    HW1 3530   0.554   3.921   0.253
 1171SOL    HW2 3531   0.527   4.075   0.297
 1172SOL     OW 3532   1.754   4.947   1.588
 1172SOL    HW1 3533   1.845   4.908   1.575
 1172SOL    HW2 3534   1.762   5.043   1.612
 1173SOL     OW 3535   1.638   4.823   1.079
 1173SOL    HW1 3536   1.643   4.904   1.138
 1173SOL    HW2 3537   1.552   4.825   1.028
 1174SOL     OW 3538   0.915   3.813   1.402
 1174SOL    HW1 3539   0.940   3.793   1.307
 1174SOL    HW2 3540   0.987   3.869   1.444
 1175SOL     OW 3541   0.705   4.774   0.368
 1175SOL    HW1 3542   0.691   4.781   0.467
 1175SOL    HW2 3543   0.789   4.723   0.350
 1176SOL     OW 3544   0.410   4.537   1.251
 1176SOL    HW1 3545   0.496   4.549   1.301
 1176SOL    HW2 3546   0.368   4.450   1.278
 1177SOL     OW 3547   1.274   4.110   1.262
 1177SOL    HW1 3548   1.295   4.184   1.326
 1177SOL    HW2 3549   1.185   4.127   1.219
 1178SOL     OW 3550   0.367   4.824   0.501
 1178SOL    HW1 3551   0.360   4.907   0.445
 1178SOL    HW2 3552   0.371   4.744   0.441
 1179SOL     OW 3553   0.566   4.261   0.865
 1179SOL    HW1 3554   0.578   4.327   0.791
 1179SOL    HW2 3555   0.612   4.295   0.948
 1180SOL     OW 3556   1.582   4.363   0.472
 1180SOL    HW1 3557   1.551   4.424   0.545
 1180SOL    HW2 3558   1.632   4.415   0.403
 1181SOL     OW 3559   0.402   4.475   1.598
 1181SOL    HW1 3560   0.470   4.530   1.551
 1181SOL    HW2 3561   0.442   4.387   1.625
 1182SOL     OW 3562   1.587   4.503   1.670
 1182SOL    HW1 3563   1.495   4.541   1.665
 1182SOL    HW2 3564   1.647   4.550   1.605
 1183SOL     OW 3565   1.013   3.829   1.770
 1183SOL    HW1 3566   1.019   3.914   1.718
 1183SOL    HW2 3567   1.045   3.753   1.713
 1184SOL     OW 3568   0.504   3.774   1.740
 1184SOL    HW1 3569   0.462   3.717   1.670
 1184SOL    HW2 3570   0.438   3.843   1.772
 1185SOL     OW 3571   0.573   4.594   1.029
 1185SOL    HW1 3572   0.617   4.683   1.020
 1185SOL    HW2 3573   0.510   4.594   1.106
 1186SOL     OW 3574   1.360   4.586   1.045
 1186SOL    HW1 3575   1.285   4.586   0.979
 1186SOL    HW2 3576   1.397   4.494   1.054
 1187SOL     OW 3577   1.209   4.249   0.275
 1187SOL    HW1 3578   1.222   4.165   0.329
 1187SOL    HW2 3579   1.180   4.323   0.335
 1188SOL     OW 3580   0.307   3.937   1.231
 1188SOL    HW1 3581   0.284   3.974   1.321
 1188SOL    HW2 3582   0.277   3.842   1.225
 1189SOL     OW 3583   0.037   5.034   1.282
 1189SOL    HW1 3584   0.090   4.985   1.350
 1189SOL    HW2 3585   0.059   5.132   1.287
 1190SOL     OW 3586   0.732   4.358   1.064
 1190SOL    HW1 3587   0.791   4.332   0.988
 1190SOL    HW2 3588   0.704   4.454   1.053
 1191SOL     OW 3589   1.728   4.659   1.854
 1191SOL    HW1 3590   1.682   4.652   1.765
 1191SOL    HW2 3591   1.666   4.703   1.920
 1192SOL     OW 3592   0.307   3.787   0.618
 1192SOL    HW1 3593   0.296   3.881   0.651
 1192SOL    HW2 3594   0.302   3.724   0.695
 1193SOL     OW 3595   1.622   4.091   0.374
 1193SOL    HW1 3596   1.624   4.015   0.438
 1193SOL    HW2 3597   1.574   4.168   0.414
 1194SOL     OW 3598   1.023   4.490   0.966
 1194SOL    HW1 3599   1.038   4.511   1.062
 1194SOL    HW2 3600   0.993   4.395   0.957
 1195SOL     OW 3601   0.350   4.622   1.804
 1195SOL    HW1 3602   0.426   4.666   1.852
 1195SOL    HW2 3603   0.385   4.575   1.722
 1196SOL     OW 3604   1.540   3.998   0.125
 1196SOL    HW1 3605   1.479   3.923   0.148
 1196SOL    HW2 3606   1.562   4.050   0.208
 1197SOL     OW 3607   1.303   4.562   0.042
 1197SOL    HW1 3608   1.337   4.469   0.057
 1197SOL    HW2 3609   1.321   4.589  -0.053
 1198SOL     OW 3610   0.319   4.534   0.949
 1198SOL    HW1 3611   0.412   4.570   0.954
 1198SOL    HW2 3612   0.313   4.449   1.001
 1199SOL     OW 3613   0.339   4.233   1.006
 1199SOL    HW1 3614   0.287   4.150   0.989
 1199SOL    HW2 3615   0.416   4.238   0.942
 1200SOL     OW 3616   1.138   4.104   1.678
 1200SOL    HW1 3617   1.093   4.167   1.742
 1200SOL    HW2 3618   1.231   4.135   1.661
 1201SOL     OW 3619   1.160   3.931   1.477
 1201SOL    HW1 3620   1.160   3.995   1.554
 1201SOL    HW2 3621   1.188   3.979   1.394
 1202SOL     OW 3622   1.002   4.520   1.238
 1202SOL    HW1 3623   1.043   4.488   1.324
 1202SOL    HW2 3624   0.906   4.493   1.235
 1203SOL     OW 3625   0.040   4.268   1.114
 1203SOL    HW1 3626   0.125   4.235   1.073
 1203SOL    HW2 3627   0.053   4.283   1.212
 1204SOL     OW 3628   0.189   4.244   1.722
 1204SOL    HW1 3629   0.248   4.204   1.652
 1204SOL    HW2 3630   0.131   4.315   1.681
 1205SOL     OW 3631   1.369   4.674   1.660
 1205SOL    HW1 3632   1.408   4.763   1.680
 1205SOL    HW2 3633   1.379   4.654   1.563
 1206SOL     OW 3634   0.815   4.296   0.325
 1206SOL    HW1 3635   0.822   4.207   0.279
 1206SOL    HW2 3636   0.721   4.330   0.317
 1207SOL     OW 3637   1.657   4.328   1.206
 1207SOL    HW1 3638   1.619   4.259   1.268
 1207SOL    HW2 3639   1.739   4.292   1.162
 1208SOL     OW 3640   0.671   4.188   1.269
 1208SOL    HW1 3641   0.637   4.099   1.239
 1208SOL    HW2 3642   0.697   4.242   1.189
 1209SOL     OW 3643   0.473   4.224   0.191
 1209SOL    HW1 3644   0.534   4.304   0.195
 1209SOL    HW2 3645   0.378   4.255   0.198
 1210SOL     OW 3646   0.159   4.861   1.466
 1210SOL    HW1 3647   0.181   4.800   1.542
 1210SOL    HW2 3648   0.169   4.812   1.380
 1211SOL     OW 3649   1.347   4.783   1.234
 1211SOL    HW1 3650   1.371   4.720   1.160
 1211SOL    HW2 3651   1.257   4.823   1.216
 1212SOL     OW 3652   1.302   4.579   0.309
 1212SOL    HW1 3653   1.216   4.548   0.351
 1212SOL    HW2 3654   1.298   4.565   0.210
 1213SOL     OW 3655   0.083   4.982   1.022
 1213SOL    HW1 3656   0.078   4.981   1.122
 1213SOL    HW2 3657   0.000   4.941   0.984
 1214SOL     OW 3658   0.903   3.810   0.133
 1214SOL    HW1 3659   0.954   3.811   0.047
 1214SOL    HW2 3660   0.959   3.768   0.204
 1215SOL     OW 3661   1.726   3.859   0.523
 1215SOL    HW1 3662   1.799   3.842   0.456
 1215SOL    HW2 3663   1.695   3.772   0.561
 1216SOL     OW 3664   1.280   4.651   0.672
 1216SOL    HW1 3665   1.340   4.570   0.674
 1216SOL    HW2 3666   1.320   4.720   0.612
 1217SOL     OW 3667   1.841   3.899   0.963
 1217SOL    HW1 3668   1.880   3.814   0.927
 1217SOL    HW2 3669   1.743   3.901   0.944
 1218SOL     OW 3670   0.263   4.050   0.720
 1218SOL    HW1 3671   0.184   4.101   0.686
 1218SOL    HW2 3672   0.254   4.035   0.818
 1219SOL     OW 3673   0.822   4.726   1.372
 1219SOL    HW1 3674   0.862   4.725   1.280
 1219SOL    HW2 3675   0.832   4.818   1.412
 1220SOL     OW 3676   0.916   4.634   0.291
 1220SOL    HW1 3677   0.979   4.672   0.223
 1220SOL    HW2 3678   0.956   4.551   0.330
 1221SOL     OW 3679   0.372   5.012   1.490
 1221SOL    HW1 3680   0.359   5.105   1.456
 1221SOL    HW2 3681   0.288   4.960   1.477
 1222SOL     OW 3682   1.014   3.960   0.971
 1222SOL    HW1 3683   1.006   3.924   0.878
 1222SOL    HW2 3684   1.012   3.884   1.036
 1223SOL     OW 3685   1.709   4.109   1.381
 1223SOL    HW1 3686   1.782   4.178   1.385
 1223SOL    HW2 3687   1.737   4.034   1.322
 1224SOL     OW 3688   0.105   4.737   1.726
 1224SOL    HW1 3689   0.028   4.704   1.780
 1224SOL    HW2 3690   0.190   4.707   1.768
 1225SOL     OW 3691   0.672   3.927   1.489
 1225SOL    HW1 3692   0.762   3.911   1.449
 1225SOL    HW2 3693   0.680   3.932   1.588
 1226SOL     OW 3694   0.075   4.069   0.033
 1226SOL    HW1 3695  -0.017   4.041   0.004
 1226SOL    HW2 3696   0.106   4.146  -0.023
 1227SOL     OW 3697   1.440   4.580   1.398
 1227SOL    HW1 3698   1.383   4.632   1.335
 1227SOL    HW2 3699   1.536   4.592   1.374
 1228SOL     OW 3700   0.072   3.890   0.318
 1228SOL    HW1 3701   0.055   3.973   0.264
 1228SOL    HW2 3702   0.162   3.853   0.296
 1229SOL     OW 3703   1.183   5.059   0.119
 1229SOL    HW1 3704   1.084   5.048   0.121
 1229SOL    HW2 3705   1.217   5.074   0.212
 1230SOL     OW 3706   0.613   4.566   1.431
 1230SOL    HW1 3707   0.669   4.647   1.414
 1230SOL    HW2 3708   0.672   4.486   1.434
 1231SOL     OW 3709   0.716   4.289   1.708
 1231SOL    HW1 3710   0.735   4.354   1.782
 1231SOL    HW2 3711   0.776   4.209   1.717
 1232SOL     OW 3712   1.674   4.607   1.254
 1232SOL    HW1 3713   1.647   4.518   1.217
 1232SOL    HW2 3714   1.675   4.675   1.181
 1233SOL     OW 3715   1.225   4.049   0.449
 1233SOL    HW1 3716   1.290   3.975   0.438
 1233SOL    HW2 3717   1.245   4.099   0.533
 1234SOL     OW 3718   0.594   4.469   0.652
 1234SOL    HW1 3719   0.644   4.554   0.633
 1234SOL    HW2 3720   0.506   4.471   0.604
 1235SOL     OW 3721   1.777   4.066   1.642
 1235SOL    HW1 3722   1.760   4.097   1.548
 1235SOL    HW2 3723   1.693   4.029   1.680
 1236SOL     OW 3724   1.730   4.658   1.517
 1236SOL    HW1 3725   1.768   4.749   1.532
 1236SOL    HW2 3726   1.722   4.641   1.418
 1237SOL     OW 3727   0.859   4.680   0.861
 1237SOL    HW1 3728   0.913   4.611   0.909
 1237SOL    HW2 3729   0.827   4.749   0.927
 1238SOL     OW 3730   1.083   4.708   0.087
 1238SOL    HW1 3731   1.060   4.761   0.005
 1238SOL    HW2 3732   1.164   4.652   0.068
 1239SOL     OW 3733   1.824   3.916   1.227
 1239SOL    HW1 3734   1.820   3.826   1.271
 1239SOL    HW2 3735   1.827   3.905   1.128
 1240SOL     OW 3736   0.428   4.148   0.520
 1240SOL    HW1 3737   0.458   4.076   0.458
 1240SOL    HW2 3738   0.389   4.108   0.603
 1241SOL     OW 3739   0.317   4.271   1.280
 1241SOL    HW1 3740   0.355   4.212   1.352
 1241SOL    HW2 3741   0.357   4.245   1.192
 1242SOL     OW 3742   1.424   3.938   1.112
 1242SOL    HW1 3743   1.476   3.873   1.167
 1242SOL    HW2 3744   1.375   4.001   1.173
 1243SOL     OW 3745   1.001   3.758   1.154
 1243SOL    HW1 3746   0.938   3.686   1.123
 1243SOL    HW2 3747   1.094   3.722   1.154
 1244SOL     OW 3748   0.770   5.054   0.301
 1244SOL    HW1 3749   0.724   4.967   0.318
 1244SOL    HW2 3750   0.861   5.051   0.342
 1245SOL     OW 3751   1.352   3.776   0.168
 1245SOL    HW1 3752   1.387   3.735   0.084
 1245SOL    HW2 3753   1.262   3.738   0.188
 1246SOL     OW 3754   1.300   4.177   0.691
 1246SOL    HW1 3755   1.241   4.257   0.695
 1246SOL    HW2 3756   1.315   4.142   0.784
 1247SOL     OW 3757   1.593   3.945   0.882
 1247SOL    HW1 3758   1.509   3.944   0.936
 1247SOL    HW2 3759   1.595   4.028   0.826
 1248SOL     OW 3760   0.039   4.801   0.300
 1248SOL    HW1 3761   0.138   4.790   0.291
 1248SOL    HW2 3762  -0.001   4.715   0.332
 1249SOL     OW 3763   0.230   4.352   1.975
 1249SOL    HW1 3764   0.137   4.350   2.012
 1249SOL    HW2 3765   0.231   4.313   1.883
 1250SOL     OW 3766   0.225   3.999   2.858
 1250SOL    HW1 3767   0.260   3.982   2.950
 1250SOL    HW2 3768   0.137   3.954   2.846
 1251SOL     OW 3769   0.019   4.092   2.509
 1251SOL    HW1 3770  -0.063   4.135   2.548
 1251SOL    HW2 3771  -0.009   4.019   2.446
 1252SOL     OW 3772   1.135   4.427   2.579
 1252SOL    HW1 3773   1.192   4.505   2.554
 1252SOL    HW2 3774   1.075   4.453   2.655
 1253SOL     OW 3775   1.755   4.331   2.093
 1253SOL    HW1 3776   1.743   4.318   1.994
 1253SOL    HW2 3777   1.725   4.250   2.142
 1254SOL     OW 3778   0.768   4.868   2.885
 1254SOL    HW1 3779   0.690   4.885   2.945
 1254SOL    HW2 3780   0.802   4.955   2.849
 1255SOL     OW 3781   0.850   4.522   3.685
 1255SOL    HW1 3782   0.846   4.598   3.750
 1255SOL    HW2 3783   0.872   4.558   3.594
 1256SOL     OW 3784   0.685   4.736   2.527
 1256SOL    HW1 3785   0.754   4.720   2.597
 1256SOL    HW2 3786   0.612   4.793   2.565
 1257SOL     OW 3787   0.438   4.116   3.361
 1257SOL    HW1 3788   0.520   4.060   3.370
 1257SOL    HW2 3789   0.357   4.058   3.365
 1258SOL     OW 3790   1.603   4.171   2.599
 1258SOL    HW1 3791   1.529   4.217   2.549
 1258SOL    HW2 3792   1.654   4.239   2.652
 1259SOL     OW 3793   0.230   5.158   2.400
 1259SOL    HW1 3794   0.204   5.254   2.400
 1259SOL    HW2 3795   0.159   5.104   2.445
 1260SOL     OW 3796   0.240   4.815   2.748
 1260SOL    HW1 3797   0.254   4.731   2.800
 1260SOL    HW2 3798   0.185   4.879   2.803
 1261SOL     OW 3799   0.606   4.688   1.985
 1261SOL    HW1 3800   0.613   4.772   1.931
 1261SOL    HW2 3801   0.652   4.701   2.073
 1262SOL     OW 3802   1.594   3.838   3.342
 1262SOL    HW1 3803   1.576   3.905   3.270
 1262SOL    HW2 3804   1.591   3.884   3.431
 1263SOL     OW 3805   0.122   4.367   2.425
 1263SOL    HW1 3806   0.077   4.279   2.442
 1263SOL    HW2 3807   0.121   4.421   2.509
 1264SOL     OW 3808   1.689   4.646   2.474
 1264SOL    HW1 3809   1.784   4.617   2.482
 1264SOL    HW2 3810   1.681   4.711   2.399
 1265SOL     OW 3811   0.113   4.461   3.459
 1265SOL    HW1 3812   0.201   4.448   3.504
 1265SOL    HW2 3813   0.100   4.558   3.437
 1266SOL     OW 3814   1.293   4.952   3.285
 1266SOL    HW1 3815   1.330   4.879   3.227
 1266SOL    HW2 3816   1.345   4.957   3.370
 1267SOL     OW 3817   0.809   3.728   2.364
 1267SOL    HW1 3818   0.849   3.819   2.355
 1267SOL    HW2 3819   0.709   3.736   2.370
 1268SOL     OW 3820   0.197   4.700   3.126
 1268SOL    HW1 3821   0.286   4.655   3.112
 1268SOL    HW2 3822   0.124   4.635   3.107
 1269SOL     OW 3823   1.525   4.723   2.052
 1269SOL    HW1 3824   1.462   4.647   2.065
 1269SOL    HW2 3825   1.573   4.741   2.138
 1270SOL     OW 3826   0.317   3.975   3.663
 1270SOL    HW1 3827   0.388   4.046   3.669
 1270SOL    HW2 3828   0.229   4.014   3.691
 1271SOL     OW 3829   0.598   4.453   2.132
 1271SOL    HW1 3830   0.622   4.522   2.064
 1271SOL    HW2 3831   0.520   4.486   2.186
 1272SOL     OW 3832   1.281   4.069   2.806
 1272SOL    HW1 3833   1.195   4.019   2.793
 1272SOL    HW2 3834   1.343   4.015   2.862
 1273SOL     OW 3835   0.807   4.329   3.327
 1273SOL    HW1 3836   0.760   4.326   3.416
 1273SOL    HW2 3837   0.756   4.274   3.261
 1274SOL     OW 3838   1.394   4.193   3.536
 1274SOL    HW1 3839   1.374   4.236   3.624
 1274SOL    HW2 3840   1.472   4.131   3.545
 1275SOL     OW 3841   0.973   4.614   3.434
 1275SOL    HW1 3842   1.019   4.530   3.405
 1275SOL    HW2 3843   0.917   4.648   3.359
 1276SOL     OW 3844   0.991   4.134   3.104
 1276SOL    HW1 3845   0.914   4.168   3.158
 1276SOL    HW2 3846   0.957   4.083   3.025
 1277SOL     OW 3847   1.041   4.425   2.291
 1277SOL    HW1 3848   1.067   4.421   2.387
 1277SOL    HW2 3849   0.956   4.374   2.277
 1278SOL     OW 3850   0.076   4.535   2.651
 1278SOL    HW1 3851   0.175   4.523   2.660
 1278SOL    HW2 3852   0.052   4.630   2.672
 1279SOL     OW 3853   0.865   4.072   2.057
 1279SOL    HW1 3854   0.924   4.135   2.008
 1279SOL    HW2 3855   0.884   3.978   2.028
 1280SOL     OW 3856   1.719   4.309   3.693
 1280SOL    HW1 3857   1.693   4.398   3.657
 1280SOL    HW2 3858   1.717   4.241   3.620
 1281SOL     OW 3859   0.550   3.920   2.747
 1281SOL    HW1 3860   0.545   3.915   2.847
 1281SOL    HW2 3861   0.552   4.016   2.718
 1282SOL     OW 3862   1.795   4.790   2.735
 1282SOL    HW1 3863   1.733   4.775   2.659
 1282SOL    HW2 3864   1.743   4.801   2.820
 1283SOL     OW 3865   0.321   4.667   2.104
 1283SOL    HW1 3866   0.403   4.706   2.062
 1283SOL    HW2 3867   0.294   4.585   2.055
 1284SOL     OW 3868   1.458   4.459   2.590
 1284SOL    HW1 3869   1.453   4.394   2.665
 1284SOL    HW2 3870   1.538   4.518   2.603
 1285SOL     OW 3871   0.202   4.009   3.360
 1285SOL    HW1 3872   0.122   4.069   3.347
 1285SOL    HW2 3873   0.192   3.960   3.446
 1286SOL     OW 3874   1.400   3.831   2.288
 1286SOL    HW1 3875   1.376   3.794   2.198
 1286SOL    HW2 3876   1.499   3.847   2.292
 1287SOL     OW 3877   0.382   4.424   2.342
 1287SOL    HW1 3878   0.427   4.334   2.339
 1287SOL    HW2 3879   0.288   4.413   2.375
 1288SOL     OW 3880   1.547   3.946   3.591
 1288SOL    HW1 3881   1.542   3.983   3.683
 1288SOL    HW2 3882   1.475   3.877   3.579
 1289SOL     OW 3883   0.614   3.846   1.979
 1289SOL    HW1 3884   0.712   3.824   1.986
 1289SOL    HW2 3885   0.583   3.829   1.886
 1290SOL     OW 3886   0.781   3.988   3.611
 1290SOL    HW1 3887   0.848   3.927   3.654
 1290SOL    HW2 3888   0.708   4.007   3.676
 1291SOL     OW 3889   1.351   4.314   3.295
 1291SOL    HW1 3890   1.379   4.271   3.380
 1291SOL    HW2 3891   1.376   4.410   3.296
 1292SOL     OW 3892   0.922   4.227   2.761
 1292SOL    HW1 3893   0.897   4.218   2.665
 1292SOL    HW2 3894   0.970   4.145   2.792
 1293SOL     OW 3895   0.539   3.788   2.374
 1293SOL    HW1 3896   0.458   3.789   2.432
 1293SOL    HW2 3897   0.542   3.871   2.319
 1294SOL     OW 3898   0.297   3.759   2.033
 1294SOL    HW1 3899   0.346   3.843   2.012
 1294SOL    HW2 3900   0.359   3.694   2.078
 1295SOL     OW 3901   0.935   3.960   2.342
 1295SOL    HW1 3902   0.887   4.001   2.264
 1295SOL    HW2 3903   1.034   3.958   2.323
 1296SOL     OW 3904   1.076   4.407   3.326
 1296SOL    HW1 3905   0.996   4.346   3.329
 1296SOL    HW2 3906   1.157   4.354   3.302
 1297SOL     OW 3907   0.459   4.876   2.603
 1297SOL    HW1 3908   0.388   4.849   2.668
 1297SOL    HW2 3909   0.433   4.848   2.510
 1298SOL     OW 3910   1.032   4.273   1.878
 1298SOL    HW1 3911   0.991   4.355   1.839
 1298SOL    HW2 3912   1.096   4.299   1.951
 1299SOL     OW 3913   0.078   4.280   3.248
 1299SOL    HW1 3914   0.170   4.279   3.207
 1299SOL    HW2 3915   0.072   4.354   3.315
 1300SOL     OW 3916   0.561   3.946   3.009
 1300SOL    HW1 3917   0.599   3.862   3.046
 1300SOL    HW2 3918   0.473   3.965   3.053
 1301SOL     OW 3919   0.866   4.178   2.504
 1301SOL    HW1 3920   0.834   4.250   2.442
 1301SOL    HW2 3921   0.890   4.097   2.451
 1302SOL     OW 3922   1.017   3.763   2.615
 1302SOL    HW1 3923   0.945   3.768   2.546
 1302SOL    HW2 3924   0.993   3.694   2.684
 1303SOL     OW 3925   1.429   4.897   2.729
 1303SOL    HW1 3926   1.374   4.813   2.722
 1303SOL    HW2 3927   1.455   4.926   2.637
 1304SOL     OW 3928   1.466   4.314   2.854
 1304SOL    HW1 3929   1.436   4.219   2.861
 1304SOL    HW2 3930   1.539   4.330   2.920
 1305SOL     OW 3931   1.857   4.557   2.239
 1305SOL    HW1 3932   1.899   4.493   2.303
 1305SOL    HW2 3933   1.819   4.506   2.161
 1306SOL     OW 3934   1.390   4.299   1.940
 1306SOL    HW1 3935   1.336   4.278   2.021
 1306SOL    HW2 3936   1.481   4.258   1.949
 1307SOL     OW 3937   0.527   3.980   2.190
 1307SOL    HW1 3938   0.554   3.921   2.115
 1307SOL    HW2 3939   0.527   4.075   2.159
 1308SOL     OW 3940   1.754   4.947   3.450
 1308SOL    HW1 3941   1.845   4.908   3.437
 1308SOL    HW2 3942   1.762   5.043   3.474
 1309SOL     OW 3943   1.638   4.823   2.941
 1309SOL    HW1 3944   1.643   4.904   3.000
 1309SOL    HW2 3945   1.552   4.825   2.890
 1310SOL     OW 3946   0.915   3.813   3.264
 1310SOL    HW1 3947   0.940   3.793   3.169
 1310SOL    HW2 3948   0.987   3.869   3.306
 1311SOL     OW 3949   0.705   4.774   2.230
 1311SOL    HW1 3950   0.691   4.781   2.329
 1311SOL    HW2 3951   0.789   4.723   2.212
 1312SOL     OW 3952   0.410   4.537   3.113
 1312SOL    HW1 3953   0.496   4.549   3.163
 1312SOL    HW2 3954   0.368   4.450   3.140
 1313SOL     OW 3955   1.274   4.110   3.124
 1313SOL    HW1 3956   1.295   4.184   3.188
 1313SOL    HW2 3957   1.185   4.127   3.081
 1314SOL     OW 3958   0.367   4.824   2.363
 1314SOL    HW1 3959   0.360   4.907   2.307
 1314SOL    HW2 3960   0.371   4.744   2.303
 1315SOL     OW 3961   0.566   4.261   2.727
 1315SOL    HW1 3962   0.578   4.327   2.653
 1315SOL    HW2 3963   0.612   4.295   2.810
 1316SOL     OW 3964   1.582   4.363   2.334
 1316SOL    HW1 3965   1.551   4.424   2.407
 1316SOL    HW2 3966   1.632   4.415   2.265
 1317SOL     OW 3967   0.402   4.475   3.460
 1317SOL    HW1 3968   0.470   4.530   3.413
 1317SOL    HW2 3969   0.442   4.387   3.487
 1318SOL     OW 3970   1.587   4.503   3.532
 1318SOL    HW1 3971   1.495   4.541   3.527
 1318SOL    HW2 3972   1.647   4.550   3.467
 1319SOL     OW 3973   1.013   3.829   3.632
 1319SOL    HW1 3974   1.019   3.914   3.580
 1319SOL    HW2 3975   1.045   3.753   3.575
 1320SOL     OW 3976   0.504   3.774   3.602
 1320SOL    HW1 3977   0.462   3.717   3.532
 1320SOL    HW2 3978   0.438   3.843   3.634
 1321SOL     OW 3979   0.573   4.594   2.891
 1321SOL    HW1 3980   0.617   4.683   2.882
 1321SOL    HW2 3981   0.510   4.594   2.968
 1322SOL     OW 3982   1.360   4.586   2.907
 1322SOL    HW1 3983   1.285   4.586   2.841
 1322SOL    HW2 3984   1.397   4.494   2.916
 1323SOL     OW 3985   1.209   4.249   2.137
 1323SOL    HW1 3986   1.222   4.165   2.191
 1323SOL    HW2 3987   1.180   4.323   2.197
 1324SOL     OW 3988   0.307   3.937   3.093
 1324SOL    HW1 3989   0.284   3.974   3.183
 1324SOL    HW2 3990   0.277   3.842   3.087
 1325SOL     OW 3991   0.037   5.034   3.144
 1325SOL    HW1 3992   0.090   4.985   3.212
 1325SOL    HW2 3993   0.059   5.132   3.149
 1326SOL     OW 3994   0.732   4.358   2.926
 1326SOL    HW1 3995   0.791   4.332   2.850
 1326SOL    HW2 3996   0.704   4.454   2.915
 1327SOL     OW 3997   1.728   4.659   3.716
 1327SOL    HW1 3998   1.682   4.652   3.627
 1327SOL    HW2 3999   1.666   4.703   3.782
 1328SOL     OW 4000   0.307   3.787   2.480
 1328SOL    HW1 4001   0.296   3.881   2.513
 1328SOL    HW2 4002   0.302   3.724   2.557
 1329SOL     OW 4003   1.622   4.091   2.236
 1329SOL    HW1 4004   1.624   4.015   2.300
 1329SOL    HW2 4005   1.574   4.168   2.276
 1330SOL     OW 4006   1.023   4.490   2.828
 1330SOL    HW1 4007   1.038   4.511   2.924
 1330SOL    HW2 4008   0.993   4.395   2.819
 1331SOL     OW 4009   0.350   4.622   3.666
 1331SOL    HW1 4010   0.426   4.666   3.714
 1331SOL    HW2 4011   0.385   4.575   3.584
 1332SOL     OW 4012   1.540   3.998   1.987
 1332SOL    HW1 4013   1.479   3.923   2.010
 1332SOL    HW2 4014   1.562   4.050   2.070
 1333SOL     OW 4015   1.303   4.562   1.904
 1333SOL    HW1 4016   1.337   4.469   1.919
 1333SOL    HW2 4017   1.321   4.589   1.809
 1334SOL     OW 4018   0.319   4.534   2.811
 1334SOL    HW1 4019   0.412   4.570   2.816
 1334SOL    HW2 4020   0.313   4.449   2.863
 1335SOL     OW 4021   0.339   4.233   2.868
 1335SOL    HW1 4022   0.287   4.150   2.851
 1335SOL    HW2 4023   0.416   4.238   2.804
 1336SOL     OW 4024   1.138   4.104   3.540
 1336SOL    HW1 4025   1.093   4.167   3.604
 1336SOL    HW2 4026   1.231   4.135   3.523
 1337SOL     OW 4027   1.160   3.931   3.339
 1337SOL    HW1 4028   1.160   3.995   3.416
 1337SOL    HW2 4029   1.188   3.979   3.256
 1338SOL     OW 4030   1.002   4.520   3.100
 1338SOL    HW1 4031   1.043   4.488   3.186
 1338SOL    HW2 4032   0.906   4.493   3.097
 1339SOL     OW 4033   0.040   4.268   2.976
 1339SOL    HW1 4034   0.125   4.235   2.935
 1339SOL    HW2 4035   0.053   4.283   3.074
 1340SOL     OW 4036   0.189   4.244   3.584
 1340SOL    HW1 4037   0.248   4.204   3.514
 1340SOL    HW2 4038   0.131   4.315   3.543
 1341SOL     OW 4039   1.369   4.674   3.522
 1341SOL    HW1 4040   1.408   4.763   3.542
 1341SOL    HW2 4041   1.379   4.654   3.425
 1342SOL     OW 4042   0.815   4.296   2.187
 1342SOL    HW1 4043   0.822   4.207   2.141
 1342SOL    HW2 4044   0.721   4.330   2.179
 1343SOL     OW 4045   1.657   4.328   3.068
 1343SOL    HW1 4046   1.619   4.259   3.130
 1343SOL    HW2 4047   1.739   4.292   3.024
 1344SOL     OW 4048   0.671   4.188   3.131
 1344SOL    HW1 4049   0.637   4.099   3.101
 1344SOL    HW2 4050   0.697   4.242   3.051
 1345SOL     OW 4051   0.473   4.224   2.053
 1345SOL    HW1 4052   0.534   4.304   2.057
 1345SOL    HW2 4053   0.378   4.255   2.060
 1346SOL     OW 4054   0.159   4.861   3.328
 1346SOL    HW1 4055   0.181   4.800   3.404
 1346SOL    HW2 4056   0.169   4.812   3.242
 1347SOL     OW 4057   1.347   4.783   3.096
 1347SOL    HW1 4058   1.371   4.720   3.022
 1347SOL    HW2 4059   1.257   4.823   3.078
 1348SOL     OW 4060   1.302   4.579   2.171
 1348SOL    HW1 4061   1.216   4.548   2.213
 1348SOL    HW2 4062   1.298   4.565   2.072
 1349SOL     OW 4063   0.083   4.982   2.884
 1349SOL    HW1 4064   0.078   4.981   2.984
 1349SOL    HW2 4065   0.000   4.941   2.846
 1350SOL     OW 4066   1.726   3.859   2.385
 1350SOL    HW1 4067   1.799   3.842   2.318
 1350SOL    HW2 4068   1.695   3.772   2.423
 1351SOL     OW 4069   1.280   4.651   2.534
 1351SOL    HW1 4070   1.340   4.570   2.536
 1351SOL    HW2 4071   1.320   4.720   2.474
 1352SOL     OW 4072   1.841   3.899   2.825
 1352SOL    HW1 4073   1.880   3.814   2.789
 1352SOL    HW2 4074   1.743   3.901   2.806
 1353SOL     OW 4075   0.263   4.050   2.582
 1353SOL    HW1 4076   0.184   4.101   2.548
 1353SOL    HW2 4077   0.254   4.035   2.680
 1354SOL     OW 4078   0.822   4.726   3.234
 1354SOL    HW1 4079   0.862   4.725   3.142
 1354SOL    HW2 4080   0.832   4.818   3.274
 1355SOL     OW 4081   0.916   4.634   2.153
 1355SOL    HW1 4082   0.979   4.672   2.085
 1355SOL    HW2 4083   0.956   4.551   2.192
 1356SOL     OW 4084   0.372   5.012   3.352
 1356SOL    HW1 4085   0.359   5.105   3.318
 1356SOL    HW2 4086   0.288   4.960   3.339
 1357SOL     OW 4087   1.014   3.960   2.833
 1357SOL    HW1 4088   1.006   3.924   2.740
 1357SOL    HW2 4089   1.012   3.884   2.898
 1358SOL     OW 4090   1.709   4.109   3.243
 1358SOL    HW1 4091   1.782   4.178   3.247
 1358SOL    HW2 4092   1.737   4.034   3.184
 1359SOL     OW 4093   0.105   4.737   3.588
 1359SOL    HW1 4094   0.028   4.704   3.642
 1359SOL    HW2 4095   0.190   4.707   3.630
 1360SOL     OW 4096   0.672   3.927   3.351
 1360SOL    HW1 4097   0.762   3.911   3.311
 1360SOL    HW2 4098   0.680   3.932   3.450
 1361SOL     OW 4099   0.075   4.069   1.895
 1361SOL    HW1 4100  -0.017   4.041   1.866
 1361SOL    HW2 4101   0.106   4.146   1.839
 1362SOL     OW 4102   1.440   4.580   3.260
 1362SOL    HW1 4103   1.383   4.632   3.197
 1362SOL    HW2 4104   1.536   4.592   3.236
 1363SOL     OW 4105   0.072   3.890   2.180
 1363SOL    HW1 4106   0.055   3.973   2.126
 1363SOL    HW2 4107   0.162   3.853   2.158
 1364SOL     OW 4108   1.183   5.059   1.981
 1364SOL    HW1 4109   1.084   5.048   1.983
 1364SOL    HW2 4110   1.217   5.074   2.074
 1365SOL     OW 4111   0.613   4.566   3.293
 1365SOL    HW1 4112   0.669   4.647   3.276
 1365SOL    HW2 4113   0.672   4.486   3.296
 1366SOL     OW 4114   0.716   4.289   3.570
 1366SOL    HW1 4115   0.735   4.354   3.644
 1366SOL    HW2 4116   0.776   4.209   3.579
 1367SOL     OW 4117   1.674   4.607   3.116
 1367SOL    HW1 4118   1.647   4.518   3.079
 1367SOL    HW2 4119   1.675   4.675   3.043
 1368SOL     OW 4120   1.225   4.049   2.311
 1368SOL    HW1 4121   1.290   3.975   2.300
 1368SOL    HW2 4122   1.245   4.099   2.395
 1369SOL     OW 4123   0.594   4.469   2.514
 1369SOL    HW1 4124   0.644   4.554   2.495
 1369SOL    HW2 4125   0.506   4.471   2.466
 1370SOL     OW 4126   1.777   4.066   3.504
 1370SOL    HW1 4127   1.760   4.097   3.410
 1370SOL    HW2 4128   1.693   4.029   3.542
 1371SOL     OW 4129   1.730   4.658   3.379
 1371SOL    HW1 4130   1.768   4.749   3.394
 1371SOL    HW2 4131   1.722   4.641   3.280
 1372SOL     OW 4132   0.859   4.680   2.723
 1372SOL    HW1 4133   0.913   4.611   2.771
 1372SOL    HW2 4134   0.827   4.749   2.789
 1373SOL     OW 4135   1.083   4.708   1.949
 1373SOL    HW1 4136   1.060   4.761   1.867
 1373SOL    HW2 4137   1.164   4.652   1.930
 1374SOL     OW 4138   1.824   3.916   3.089
 1374SOL    HW1 4139   1.820   3.826   3.133
 1374SOL    HW2 4140   1.827   3.905   2.990
 1375SOL     OW 4141   0.428   4.148   2.382
 1375SOL    HW1 4142   0.458   4.076   2.320
 1375SOL    HW2 4143   0.389   4.108   2.465
 1376SOL     OW 4144   0.317   4.271   3.142
 1376SOL    HW1 4145   0.355   4.212   3.214
 1376SOL    HW2 4146   0.357   4.245   3.054
 1377SOL     OW 4147   1.424   3.938   2.974
 1377SOL    HW1 4148   1.476   3.873   3.029
 1377SOL    HW2 4149   1.375   4.001   3.035
 1378SOL     OW 4150   1.001   3.758   3.016
 1378SOL    HW1 4151   0.938   3.686   2.985
 1378SOL    HW2 4152   1.094   3.722   3.016
 1379SOL     OW 4153   0.770   5.054   2.163
 1379SOL    HW1 4154   0.724   4.967   2.180
 1379SOL    HW2 4155   0.861   5.051   2.204
 1380SOL     OW 4156   1.352   3.776   2.030
 1380SOL    HW1 4157   1.387   3.735   1.946
 1380SOL    HW2 4158   1.262   3.738   2.050
 1381SOL     OW 4159   1.300   4.177   2.553
 1381SOL    HW1 4160   1.241   4.257   2.557
 1381SOL    HW2 4161   1.315   4.142   2.646
 1382SOL     OW 4162   1.593   3.945   2.744
 1382SOL    HW1 4163   1.509   3.944   2.798
 1382SOL    HW2 4164   1.595   4.028   2.688
 1383SOL     OW 4165   0.039   4.801   2.162
 1383SOL    HW1 4166   0.138   4.790   2.153
 1383SOL    HW2 4167  -0.001   4.715   2.194
 1384SOL     OW 4168   0.230   4.352   3.837
 1384SOL    HW1 4169   0.137   4.350   3.874
 1384SOL    HW2 4170   0.231   4.313   3.745
 1385SOL     OW 4171   0.225   3.999   4.720
 1385SOL    HW1 4172   0.260   3.982   4.812
 1385SOL    HW2 4173   0.137   3.954   4.708
 1386SOL     OW 4174   0.019   4.092   4.371
 1386SOL    HW1 4175  -0.063   4.135   4.410
 1386SOL    HW2 4176  -0.009   4.019   4.308
 1387SOL     OW 4177   1.135   4.427   4.441
 1387SOL    HW1 4178   1.192   4.505   4.416
 1387SOL    HW2 4179   1.075   4.453   4.517
 1388SOL     OW 4180   1.755   4.331   3.955
 1388SOL    HW1 4181   1.743   4.318   3.856
 1388SOL    HW2 4182   1.725   4.250   4.004
 1389SOL     OW 4183   0.768   4.868   4.747
 1389SOL    HW1 4184   0.690   4.885   4.807
 1389SOL    HW2 4185   0.802   4.955   4.711
 1390SOL     OW 4186   0.685   4.736   4.389
 1390SOL    HW1 4187   0.754   4.720   4.459
 1390SOL    HW2 4188   0.612   4.793   4.427
 1391SOL     OW 4189   1.603   4.171   4.461
 1391SOL    HW1 4190   1.529   4.217   4.411
 1391SOL    HW2 4191   1.654   4.239   4.514
 1392SOL     OW 4192   0.230   5.158   4.262
 1392SOL    HW1 4193   0.204   5.254   4.262
 1392SOL    HW2 4194   0.159   5.104   4.307
 1393SOL     OW 4195   0.240   4.815   4.610
 1393SOL    HW1 4196   0.254   4.731   4.662
 1393SOL    HW2 4197   0.185   4.879   4.665
 1394SOL     OW 4198   0.606   4.688   3.847
 1394SOL    HW1 4199   0.613   4.772   3.793
 1394SOL    HW2 4200   0.652   4.701   3.935
 1395SOL     OW 4201   0.122   4.367   4.287
 1395SOL    HW1 4202   0.077   4.279   4.304
 1395SOL    HW2 4203   0.121   4.421   4.371
 1396SOL     OW 4204   1.689   4.646   4.336
 1396SOL    HW1 4205   1.784   4.617   4.344
 1396SOL    HW2 4206   1.681   4.711   4.261
 1397SOL     OW 4207   0.809   3.728   4.226
 1397SOL    HW1 4208   0.849   3.819   4.217
 1397SOL    HW2 4209   0.709   3.736   4.232
 1398SOL     OW 4210   0.197   4.700   4.988
 1398SOL    HW1 4211   0.286   4.655   4.974
 1398SOL    HW2 4212   0.124   4.635   4.969
 1399SOL     OW 4213   1.525   4.723   3.914
 1399SOL    HW1 4214   1.462   4.647   3.927
 1399SOL    HW2 4215   1.573   4.741   4.000
 1400SOL     OW 4216   0.598   4.453   3.994
 1400SOL    HW1 4217   0.622   4.522   3.926
 1400SOL    HW2 4218   0.520   4.486   4.048
 1401SOL     OW 4219   1.281   4.069   4.668
 1401SOL    HW1 4220   1.195   4.019   4.655
 1401SOL    HW2 4221   1.343   4.015   4.724
 1402SOL     OW 4222   1.041   4.425   4.153
 1402SOL    HW1 4223   1.067   4.421   4.249
 1402SOL    HW2 4224   0.956   4.374   4.139
 1403SOL     OW 4225   0.076   4.535   4.513
 1403SOL    HW1 4226   0.175   4.523   4.522
 1403SOL    HW2 4227   0.052   4.630   4.534
 1404SOL     OW 4228   0.865   4.072   3.919
 1404SOL    HW1 4229   0.924   4.135   3.870
 1404SOL    HW2 4230   0.884   3.978   3.890
 1405SOL     OW 4231   0.550   3.920   4.609
 1405SOL    HW1 4232   0.545   3.915   4.709
 1405SOL    HW2 4233   0.552   4.016   4.580
 1406SOL     OW 4234   1.795   4.790   4.597
 1406SOL    HW1 4235   1.733   4.775   4.521
 1406SOL    HW2 4236   1.743   4.801   4.682
 1407SOL     OW 4237   0.321   4.667   3.966
 1407SOL    HW1 4238   0.403   4.706   3.924
 1407SOL    HW2 4239   0.294   4.585   3.917
 1408SOL     OW 4240   1.458   4.459   4.452
 1408SOL    HW1 4241   1.453   4.394   4.527
 1408SOL    HW2 4242   1.538   4.518   4.465
 1409SOL     OW 4243   1.400   3.831   4.150
 1409SOL    HW1 4244   1.376   3.794   4.060
 1409SOL    HW2 4245   1.499   3.847   4.154
 1410SOL     OW 4246   0.382   4.424   4.204
 1410SOL    HW1 4247   0.427   4.334   4.201
 1410SOL    HW2 4248   0.288   4.413   4.237
 1411SOL     OW 4249   0.614   3.846   3.841
 1411SOL    HW1 4250   0.712   3.824   3.848
 1411SOL    HW2 4251   0.583   3.829   3.748
 1412SOL     OW 4252   0.922   4.227   4.623
 1412SOL    HW1 4253   0.897   4.218   4.527
 1412SOL    HW2 4254   0.970   4.145   4.654
 1413SOL     OW 4255   0.539   3.788   4.236
 1413SOL    HW1 4256   0.458   3.789   4.294
 1413SOL    HW2 4257   0.542   3.871   4.181
 1414SOL     OW 4258   0.297   3.759   3.895
 1414SOL    HW1 4259   0.346   3.843   3.874
 1414SOL    HW2 4260   0.359   3.694   3.940
 1415SOL     OW 4261   0.935   3.960   4.204
 1415SOL    HW1 4262   0.887   4.001   4.126
 1415SOL    HW2 4263   1.034   3.958   4.185
 1416SOL     OW 4264   0.459   4.876   4.465
 1416SOL    HW1 4265   0.388   4.849   4.530
 1416SOL    HW2 4266   0.433   4.848   4.372
 1417SOL     OW 4267   1.032   4.273   3.740
 1417SOL    HW1 4268   0.991   4.355   3.701
 1417SOL    HW2 4269   1.096   4.299   3.813
 1418SOL     OW 4270   0.866   4.178   4.366
 1418SOL    HW1 4271   0.834   4.250   4.304
 1418SOL    HW2 4272   0.890   4.097   4.313
 1419SOL     OW 4273   1.017   3.763   4.477
 1419SOL    HW1 4274   0.945   3.768   4.408
 1419SOL    HW2 4275   0.993   3.694   4.546
 1420SOL     OW 4276   1.429   4.897   4.591
 1420SOL    HW1 4277   1.374   4.813   4.584
 1420SOL    HW2 4278   1.455   4.926   4.499
 1421SOL     OW 4279   1.466   4.314   4.716
 1421SOL    HW1 4280   1.436   4.219   4.723
 1421SOL    HW2 4281   1.539   4.330   4.782
 1422SOL     OW 4282   1.857   4.557   4.101
 1422SOL    HW1 4283   1.899   4.493   4.165
 1422SOL    HW2 4284   1.819   4.506   4.023
 1423SOL     OW 4285   1.390   4.299   3.802
 1423SOL    HW1 4286   1.336   4.278   3.883
 1423SOL    HW2 4287   1.481   4.258   3.811
 1424SOL     OW 4288   0.527   3.980   4.052
 1424SOL    HW1 4289   0.554   3.921   3.977
 1424SOL    HW2 4290   0.527   4.075   4.021
 1425SOL     OW 4291   1.638   4.823   4.803
 1425SOL    HW1 4292   1.643   4.904   4.862
 1425SOL    HW2 4293   1.552   4.825   4.752
 1426SOL     OW 4294   0.705   4.774   4.092
 1426SOL    HW1 4295   0.691   4.781   4.191
 1426SOL    HW2 4296   0.789   4.723   4.074
 1427SOL     OW 4297   0.410   4.537   4.975
 1427SOL    HW1 4298   0.496   4.549   5.025
 1427SOL    HW2 4299   0.368   4.450   5.002
 1428SOL     OW 4300   0.367   4.824   4.225
 1428SOL    HW1 4301   0.360   4.907   4.169
 1428SOL    HW2 4302   0.371   4.744   4.165
 1429SOL     OW 4303   0.566   4.261   4.589
 1429SOL    HW1 4304   0.578   4.327   4.515
 1429SOL    HW2 4305   0.612   4.295   4.672
 1430SOL     OW 4306   1.582   4.363   4.196
 1430SOL    HW1 4307   1.551   4.424   4.269
 1430SOL    HW2 4308   1.632   4.415   4.127
 1431SOL     OW 4309   0.573   4.594   4.753
 1431SOL    HW1 4310   0.617   4.683   4.744
 1431SOL    HW2 4311   0.510   4.594   4.830
 1432SOL     OW 4312   1.209   4.249   3.999
 1432SOL    HW1 4313   1.222   4.165   4.053
 1432SOL    HW2 4314   1.180   4.323   4.059
 1433SOL     OW 4315   0.307   3.937   4.955
 1433SOL    HW1 4316   0.284   3.974   5.045
 1433SOL    HW2 4317   0.277   3.842   4.949
 1434SOL     OW 4318   0.732   4.358   4.788
 1434SOL    HW1 4319   0.791   4.332   4.712
 1434SOL    HW2 4320   0.704   4.454   4.777
 1435SOL     OW 4321   0.307   3.787   4.342
 1435SOL    HW1 4322   0.296   3.881   4.375
 1435SOL    HW2 4323   0.302   3.724   4.419
 1436SOL     OW 4324   1.622   4.091   4.098
 1436SOL    HW1 4325   1.624   4.015   4.162
 1436SOL    HW2 4326   1.574   4.168   4.138
 1437SOL     OW 4327   1.023   4.490   4.690
 1437SOL    HW1 4328   1.038   4.511   4.786
 1437SOL    HW2 4329   0.993   4.395   4.681
 1438SOL     OW 4330   1.540   3.998   3.849
 1438SOL    HW1 4331   1.479   3.923   3.872
 1438SOL    HW2 4332   1.562   4.050   3.932
 1439SOL     OW 4333   1.303   4.562   3.766
 1439SOL    HW1 4334   1.337   4.469   3.781
 1439SOL    HW2 4335   1.321   4.589   3.671
 1440SOL     OW 4336   0.319   4.534   4.673
 1440SOL    HW1 4337   0.412   4.570   4.678
 1440SOL    HW2 4338   0.313   4.449   4.725
 1441SOL     OW 4339   0.339   4.233   4.730
 1441SOL    HW1 4340   0.287   4.150   4.713
 1441SOL    HW2 4341   0.416   4.238   4.666
 1442SOL     OW 4342   1.002   4.520   4.962
 1442SOL    HW1 4343   1.043   4.488   5.048
 1442SOL    HW2 4344   0.906   4.493   4.959
 1443SOL     OW 4345   0.815   4.296   4.049
 1443SOL    HW1 4346   0.822   4.207   4.003
 1443SOL    HW2 4347   0.721   4.330   4.041
 1444SOL     OW 4348   0.671   4.188   4.993
 1444SOL    HW1 4349   0.637   4.099   4.963
 1444SOL    HW2 4350   0.697   4.242   4.913
 1445SOL     OW 4351   0.473   4.224   3.915
 1445SOL    HW1 4352   0.534   4.304   3.919
 1445SOL    HW2 4353   0.378   4.255   3.922
 1446SOL     OW 4354   1.302   4.579   4.033
 1446SOL    HW1 4355   1.216   4.548   4.075
 1446SOL    HW2 4356   1.298   4.565   3.934
 1447SOL     OW 4357   0.083   4.982   4.746
 1447SOL    HW1 4358   0.078   4.981   4.846
 1447SOL    HW2 4359   0.000   4.941   4.708
 1448SOL     OW 4360   1.726   3.859   4.247
 1448SOL    HW1 4361   1.799   3.842   4.180
 1448SOL    HW2 4362   1.695   3.772   4.285
 1449SOL     OW 4363   1.280   4.651   4.396
 1449SOL    HW1 4364   1.340   4.570   4.398
 1449SOL    HW2 4365   1.320   4.720   4.336
 1450SOL     OW 4366   1.841   3.899   4.687
 1450SOL    HW1 4367   1.880   3.814   4.651
 1450SOL    HW2 4368   1.743   3.901   4.668
 1451SOL     OW 4369   0.263   4.050   4.444
 1451SOL    HW1 4370   0.184   4.101   4.410
 1451SOL    HW2 4371   0.254   4.035   4.542
 1452SOL     OW 4372   0.916   4.634   4.015
 1452SOL    HW1 4373   0.979   4.672   3.947
 1452SOL    HW2 4374   0.956   4.551   4.054
 1453SOL     OW 4375   1.014   3.960   4.695
 1453SOL    HW1 4376   1.006   3.924   4.602
 1453SOL    HW2 4377   1.012   3.884   4.760
 1454SOL     OW 4378   0.075   4.069   3.757
 1454SOL    HW1 4379  -0.017   4.041   3.728
 1454SOL    HW2 4380   0.106   4.146   3.701
 1455SOL     OW 4381   0.072   3.890   4.042
 1455SOL    HW1 4382   0.055   3.973   3.988
 1455SOL    HW2 4383   0.162   3.853   4.020
 1456SOL     OW 4384   1.183   5.059   3.843
 1456SOL    HW1 4385   1.084   5.048   3.845
 1456SOL    HW2 4386   1.217   5.074   3.936
 1457SOL     OW 4387   1.674   4.607   4.978
 1457SOL    HW1 4388   1.647   4.518   4.941
 1457SOL    HW2 4389   1.675   4.675   4.905
 1458SOL     OW 4390   1.225   4.049   4.173
 1458SOL    HW1 4391   1.290   3.975   4.162
 1458SOL    HW2 4392   1.245   4.099   4.257
 1459SOL     OW 4393   0.594   4.469   4.376
 1459SOL    HW1 4394   0.644   4.554   4.357
 1459SOL    HW2 4395   0.506   4.471   4.328
 1460SOL     OW 4396   0.859   4.680   4.585
 1460SOL    HW1 4397   0.913   4.611   4.633
 1460SOL    HW2 4398   0.827   4.749   4.651
 1461SOL     OW 4399   1.083   4.708   3.811
 1461SOL    HW1 4400   1.060   4.761   3.729
 1461SOL    HW2 4401   1.164   4.652   3.792
 1462SOL     OW 4402   1.824   3.916   4.951
 1462SOL    HW1 4403   1.820   3.826   4.995
 1462SOL    HW2 4404   1.827   3.905   4.852
 1463SOL     OW 4405   0.428   4.148   4.244
 1463SOL    HW1 4406   0.458   4.076   4.182
 1463SOL    HW2 4407   0.389   4.108   4.327
 1464SOL     OW 4408   1.424   3.938   4.836
 1464SOL    HW1 4409   1.476   3.873   4.891
 1464SOL    HW2 4410   1.375   4.001   4.897
 1465SOL     OW 4411   0.770   5.054   4.025
 1465SOL    HW1 4412   0.724   4.967   4.042
 1465SOL    HW2 4413   0.861   5.051   4.066
 1466SOL     OW 4414   1.352   3.776   3.892
 1466SOL    HW1 4415   1.387   3.735   3.808
 1466SOL    HW2 4416   1.262   3.738   3.912
 1467SOL     OW 4417   1.300   4.177   4.415
 1467SOL    HW1 4418   1.241   4.257   4.419
 1467SOL    HW2 4419   1.315   4.142   4.508
 1468SOL     OW 4420   1.593   3.945   4.606
 1468SOL    HW1 4421   1.509   3.944   4.660
 1468SOL    HW2 4422   1.595   4.028   4.550
 1469SOL     OW 4423   0.039   4.801   4.024
 1469SOL    HW1 4424   0.138   4.790   4.015
 1469SOL    HW2 4425  -0.001   4.715   4.056
 1470SOL     OW 4426   2.092   0.628   0.113
 1470SOL    HW1 4427   1.999   0.626   0.150
 1470SOL    HW2 4428   2.093   0.589   0.021
 1471SOL     OW 4429   2.087   0.275   0.996
 1471SOL    HW1 4430   2.122   0.258   1.088
 1471SOL    HW2 4431   1.999   0.230   0.984
 1472SOL     OW 4432   1.881   0.368   0.647
 1472SOL    HW1 4433   1.799   0.411   0.686
 1472SOL    HW2 4434   1.853   0.295   0.584
 1473SOL     OW 4435   2.431   1.275   1.165
 1473SOL    HW1 4436   2.338   1.268   1.128
 1473SOL    HW2 4437   2.442   1.364   1.209
 1474SOL     OW 4438   3.417   1.511   0.703
 1474SOL    HW1 4439   3.360   1.495   0.784
 1474SOL    HW2 4440   3.358   1.521   0.623
 1475SOL     OW 4441   2.997   0.703   0.717
 1475SOL    HW1 4442   3.054   0.781   0.692
 1475SOL    HW2 4443   2.937   0.729   0.793
 1476SOL     OW 4444   3.617   0.607   0.231
 1476SOL    HW1 4445   3.605   0.594   0.132
 1476SOL    HW2 4446   3.587   0.526   0.280
 1477SOL     OW 4447   2.630   1.144   1.023
 1477SOL    HW1 4448   2.552   1.161   1.083
 1477SOL    HW2 4449   2.664   1.231   0.987
 1478SOL     OW 4450   2.712   0.798   1.823
 1478SOL    HW1 4451   2.708   0.874   1.888
 1478SOL    HW2 4452   2.734   0.834   1.732
 1479SOL     OW 4453   2.547   1.012   0.665
 1479SOL    HW1 4454   2.616   0.996   0.735
 1479SOL    HW2 4455   2.474   1.069   0.703
 1480SOL     OW 4456   2.548   1.161   1.803
 1480SOL    HW1 4457   2.608   1.240   1.817
 1480SOL    HW2 4458   2.462   1.192   1.762
 1481SOL     OW 4459   2.197   1.435   1.061
 1481SOL    HW1 4460   2.119   1.404   1.008
 1481SOL    HW2 4461   2.255   1.493   1.004
 1482SOL     OW 4462   3.322   1.505   1.339
 1482SOL    HW1 4463   3.346   1.599   1.365
 1482SOL    HW2 4464   3.306   1.451   1.421
 1483SOL     OW 4465   2.300   0.392   1.499
 1483SOL    HW1 4466   2.382   0.336   1.508
 1483SOL    HW2 4467   2.219   0.334   1.503
 1484SOL     OW 4468   3.465   0.447   0.737
 1484SOL    HW1 4469   3.391   0.493   0.687
 1484SOL    HW2 4470   3.516   0.515   0.790
 1485SOL     OW 4471   2.093   1.713   0.483
 1485SOL    HW1 4472   2.127   1.790   0.537
 1485SOL    HW2 4473   2.137   1.713   0.393
 1486SOL     OW 4474   2.989   1.341   1.690
 1486SOL    HW1 4475   3.036   1.341   1.778
 1486SOL    HW2 4476   2.941   1.254   1.679
 1487SOL     OW 4477   2.092   1.434   0.538
 1487SOL    HW1 4478   2.066   1.530   0.538
 1487SOL    HW2 4479   2.021   1.380   0.583
 1488SOL     OW 4480   2.102   1.091   0.886
 1488SOL    HW1 4481   2.116   1.007   0.938
 1488SOL    HW2 4482   2.047   1.155   0.941
 1489SOL     OW 4483   2.482   1.786   1.439
 1489SOL    HW1 4484   2.390   1.769   1.474
 1489SOL    HW2 4485   2.510   1.878   1.465
 1490SOL     OW 4486   2.468   0.964   0.123
 1490SOL    HW1 4487   2.475   1.048   0.069
 1490SOL    HW2 4488   2.514   0.977   0.211
 1491SOL     OW 4489   3.456   0.114   1.480
 1491SOL    HW1 4490   3.438   0.181   1.408
 1491SOL    HW2 4491   3.453   0.160   1.569
 1492SOL     OW 4492   1.984   0.643   0.563
 1492SOL    HW1 4493   1.939   0.555   0.580
 1492SOL    HW2 4494   1.983   0.697   0.647
 1493SOL     OW 4495   3.704   1.767   0.359
 1493SOL    HW1 4496   3.758   1.738   0.439
 1493SOL    HW2 4497   3.734   1.857   0.330
 1494SOL     OW 4498   1.889   1.596   0.117
 1494SOL    HW1 4499   1.870   1.500   0.138
 1494SOL    HW2 4500   1.856   1.654   0.192
 1495SOL     OW 4501   3.551   0.922   0.612
 1495SOL    HW1 4502   3.646   0.893   0.620
 1495SOL    HW2 4503   3.543   0.987   0.537
 1496SOL     OW 4504   3.503   1.108   0.432
 1496SOL    HW1 4505   3.589   1.110   0.380
 1496SOL    HW2 4506   3.517   1.155   0.520
 1497SOL     OW 4507   1.975   0.737   1.597
 1497SOL    HW1 4508   2.063   0.724   1.642
 1497SOL    HW2 4509   1.962   0.834   1.575
 1498SOL     OW 4510   2.475   1.365   0.726
 1498SOL    HW1 4511   2.426   1.278   0.735
 1498SOL    HW2 4512   2.452   1.408   0.639
 1499SOL     OW 4513   3.155   1.228   1.423
 1499SOL    HW1 4514   3.192   1.155   1.365
 1499SOL    HW2 4515   3.207   1.233   1.508
 1500SOL     OW 4516   2.671   0.004   0.502
 1500SOL    HW1 4517   2.711   0.095   0.493
 1500SOL    HW2 4518   2.571   0.012   0.508
 1501SOL     OW 4519   2.059   0.976   1.264
 1501SOL    HW1 4520   2.148   0.931   1.250
 1501SOL    HW2 4521   1.986   0.911   1.245
 1502SOL     OW 4522   3.387   0.999   0.190
 1502SOL    HW1 4523   3.324   0.923   0.203
 1502SOL    HW2 4524   3.435   1.017   0.276
 1503SOL     OW 4525   3.049   1.792   1.616
 1503SOL    HW1 4526   3.073   1.852   1.540
 1503SOL    HW2 4527   3.056   1.697   1.586
 1504SOL     OW 4528   2.179   0.251   1.801
 1504SOL    HW1 4529   2.250   0.322   1.807
 1504SOL    HW2 4530   2.091   0.290   1.829
 1505SOL     OW 4531   3.328   1.417   0.953
 1505SOL    HW1 4532   3.269   1.423   1.033
 1505SOL    HW2 4533   3.313   1.329   0.907
 1506SOL     OW 4534   3.529   1.714   0.572
 1506SOL    HW1 4535   3.488   1.691   0.484
 1506SOL    HW2 4536   3.511   1.640   0.637
 1507SOL     OW 4537   2.460   0.729   0.270
 1507SOL    HW1 4538   2.484   0.798   0.202
 1507SOL    HW2 4539   2.382   0.762   0.324
 1508SOL     OW 4540   3.143   0.345   0.944
 1508SOL    HW1 4541   3.057   0.295   0.931
 1508SOL    HW2 4542   3.205   0.291   1.000
 1509SOL     OW 4543   3.438   1.662   0.307
 1509SOL    HW1 4544   3.527   1.708   0.310
 1509SOL    HW2 4545   3.417   1.638   0.212
 1510SOL     OW 4546   2.669   0.605   1.465
 1510SOL    HW1 4547   2.622   0.602   1.554
 1510SOL    HW2 4548   2.618   0.550   1.399
 1511SOL     OW 4549   3.256   0.469   1.674
 1511SOL    HW1 4550   3.236   0.512   1.762
 1511SOL    HW2 4551   3.334   0.407   1.683
 1512SOL     OW 4552   2.835   0.890   1.572
 1512SOL    HW1 4553   2.881   0.806   1.543
 1512SOL    HW2 4554   2.779   0.924   1.497
 1513SOL     OW 4555   2.853   0.410   1.242
 1513SOL    HW1 4556   2.776   0.444   1.296
 1513SOL    HW2 4557   2.819   0.359   1.163
 1514SOL     OW 4558   2.903   0.701   0.429
 1514SOL    HW1 4559   2.929   0.697   0.525
 1514SOL    HW2 4560   2.818   0.650   0.415
 1515SOL     OW 4561   1.938   0.811   0.789
 1515SOL    HW1 4562   2.037   0.799   0.798
 1515SOL    HW2 4563   1.914   0.906   0.810
 1516SOL     OW 4564   1.992   1.821   1.571
 1516SOL    HW1 4565   1.982   1.806   1.670
 1516SOL    HW2 4566   1.906   1.857   1.535
 1517SOL     OW 4567   2.727   0.348   0.195
 1517SOL    HW1 4568   2.786   0.411   0.146
 1517SOL    HW2 4569   2.746   0.254   0.166
 1518SOL     OW 4570   3.581   0.585   1.831
 1518SOL    HW1 4571   3.555   0.674   1.795
 1518SOL    HW2 4572   3.579   0.517   1.758
 1519SOL     OW 4573   3.224   1.144   0.545
 1519SOL    HW1 4574   3.307   1.115   0.497
 1519SOL    HW2 4575   3.175   1.211   0.489
 1520SOL     OW 4576   2.412   0.196   0.885
 1520SOL    HW1 4577   2.407   0.191   0.985
 1520SOL    HW2 4578   2.414   0.292   0.856
 1521SOL     OW 4579   2.870   1.456   0.477
 1521SOL    HW1 4580   2.824   1.528   0.425
 1521SOL    HW2 4581   2.866   1.476   0.575
 1522SOL     OW 4582   2.213   1.801   0.853
 1522SOL    HW1 4583   2.263   1.715   0.859
 1522SOL    HW2 4584   2.278   1.878   0.850
 1523SOL     OW 4585   3.657   1.066   0.873
 1523SOL    HW1 4586   3.595   1.051   0.797
 1523SOL    HW2 4587   3.605   1.077   0.958
 1524SOL     OW 4588   3.089   1.550   1.506
 1524SOL    HW1 4589   3.095   1.473   1.570
 1524SOL    HW2 4590   3.037   1.524   1.426
 1525SOL     OW 4591   2.183   0.943   0.242
 1525SOL    HW1 4592   2.265   0.982   0.200
 1525SOL    HW2 4593   2.156   0.861   0.193
 1526SOL     OW 4594   3.320   0.735   0.728
 1526SOL    HW1 4595   3.315   0.670   0.803
 1526SOL    HW2 4596   3.400   0.794   0.741
 1527SOL     OW 4597   2.323   1.266   1.727
 1527SOL    HW1 4598   2.273   1.267   1.641
 1527SOL    HW2 4599   2.260   1.248   1.803
 1528SOL     OW 4600   2.973   1.776   0.237
 1528SOL    HW1 4601   2.913   1.714   0.287
 1528SOL    HW2 4602   3.004   1.732   0.152
 1529SOL     OW 4603   2.064   0.285   1.498
 1529SOL    HW1 4604   1.984   0.345   1.485
 1529SOL    HW2 4605   2.054   0.236   1.584
 1530SOL     OW 4606   3.494   1.377   0.081
 1530SOL    HW1 4607   3.462   1.471   0.071
 1530SOL    HW2 4608   3.418   1.314   0.069
 1531SOL     OW 4609   2.326   1.743   0.323
 1531SOL    HW1 4610   2.359   1.782   0.409
 1531SOL    HW2 4611   2.402   1.736   0.258
 1532SOL     OW 4612   3.262   0.107   0.426
 1532SOL    HW1 4613   3.238   0.070   0.336
 1532SOL    HW2 4614   3.361   0.123   0.430
 1533SOL     OW 4615   2.111   1.785   1.241
 1533SOL    HW1 4616   2.168   1.720   1.291
 1533SOL    HW2 4617   2.095   1.752   1.148
 1534SOL     OW 4618   2.802   1.698   0.904
 1534SOL    HW1 4619   2.882   1.641   0.925
 1534SOL    HW2 4620   2.753   1.658   0.827
 1535SOL     OW 4621   2.244   0.700   0.480
 1535SOL    HW1 4622   2.289   0.610   0.477
 1535SOL    HW2 4623   2.150   0.689   0.513
 1536SOL     OW 4624   3.409   0.222   1.729
 1536SOL    HW1 4625   3.404   0.259   1.821
 1536SOL    HW2 4626   3.337   0.153   1.717
 1537SOL     OW 4627   2.476   0.122   0.117
 1537SOL    HW1 4628   2.574   0.100   0.124
 1537SOL    HW2 4629   2.445   0.105   0.024
 1538SOL     OW 4630   2.643   0.264   1.749
 1538SOL    HW1 4631   2.710   0.203   1.792
 1538SOL    HW2 4632   2.570   0.283   1.814
 1539SOL     OW 4633   2.750   1.514   1.195
 1539SOL    HW1 4634   2.727   1.489   1.101
 1539SOL    HW2 4635   2.811   1.445   1.234
 1540SOL     OW 4636   3.213   0.590   1.433
 1540SOL    HW1 4637   3.241   0.547   1.518
 1540SOL    HW2 4638   3.238   0.686   1.434
 1541SOL     OW 4639   2.665   1.402   0.924
 1541SOL    HW1 4640   2.755   1.416   0.882
 1541SOL    HW2 4641   2.594   1.404   0.853
 1542SOL     OW 4642   2.784   0.503   0.899
 1542SOL    HW1 4643   2.759   0.494   0.803
 1542SOL    HW2 4644   2.832   0.421   0.930
 1543SOL     OW 4645   2.401   0.064   0.512
 1543SOL    HW1 4646   2.320   0.065   0.570
 1543SOL    HW2 4647   2.404   0.147   0.457
 1544SOL     OW 4648   3.296   1.188   0.041
 1544SOL    HW1 4649   3.328   1.112   0.098
 1544SOL    HW2 4650   3.204   1.215   0.071
 1545SOL     OW 4651   2.159   0.035   0.171
 1545SOL    HW1 4652   2.208   0.119   0.150
 1545SOL    HW2 4653   2.221  -0.030   0.216
 1546SOL     OW 4654   2.797   0.236   0.480
 1546SOL    HW1 4655   2.749   0.277   0.402
 1546SOL    HW2 4656   2.896   0.234   0.461
 1547SOL     OW 4657   2.938   0.683   1.464
 1547SOL    HW1 4658   2.858   0.622   1.467
 1547SOL    HW2 4659   3.019   0.630   1.440
 1548SOL     OW 4660   3.089   1.570   0.793
 1548SOL    HW1 4661   3.110   1.644   0.728
 1548SOL    HW2 4662   3.157   1.570   0.866
 1549SOL     OW 4663   2.321   1.152   0.741
 1549SOL    HW1 4664   2.250   1.125   0.806
 1549SOL    HW2 4665   2.295   1.124   0.648
 1550SOL     OW 4666   3.133   1.797   0.591
 1550SOL    HW1 4667   3.177   1.861   0.527
 1550SOL    HW2 4668   3.083   1.849   0.661
 1551SOL     OW 4669   2.894   0.549   0.016
 1551SOL    HW1 4670   2.853   0.631  -0.023
 1551SOL    HW2 4671   2.958   0.575   0.089
 1552SOL     OW 4672   1.940   0.556   1.386
 1552SOL    HW1 4673   2.032   0.555   1.345
 1552SOL    HW2 4674   1.934   0.630   1.453
 1553SOL     OW 4675   2.423   0.222   1.147
 1553SOL    HW1 4676   2.461   0.138   1.184
 1553SOL    HW2 4677   2.335   0.241   1.191
 1554SOL     OW 4678   2.728   0.454   0.642
 1554SOL    HW1 4679   2.696   0.526   0.580
 1554SOL    HW2 4680   2.752   0.373   0.589
 1555SOL     OW 4681   2.879   0.039   0.753
 1555SOL    HW1 4682   2.807   0.044   0.684
 1555SOL    HW2 4683   2.855  -0.030   0.822
 1556SOL     OW 4684   3.291   1.173   0.867
 1556SOL    HW1 4685   3.236   1.089   0.860
 1556SOL    HW2 4686   3.317   1.202   0.775
 1557SOL     OW 4687   3.328   0.590   0.992
 1557SOL    HW1 4688   3.298   0.495   0.999
 1557SOL    HW2 4689   3.401   0.606   1.058
 1558SOL     OW 4690   3.719   0.833   0.377
 1558SOL    HW1 4691   3.761   0.769   0.441
 1558SOL    HW2 4692   3.681   0.782   0.299
 1559SOL     OW 4693   2.350   1.385   0.174
 1559SOL    HW1 4694   2.263   1.370   0.221
 1559SOL    HW2 4695   2.333   1.411   0.079
 1560SOL     OW 4696   3.526   1.280   0.657
 1560SOL    HW1 4697   3.625   1.288   0.671
 1560SOL    HW2 4698   3.481   1.364   0.688
 1561SOL     OW 4699   3.252   0.575   0.078
 1561SOL    HW1 4700   3.198   0.554   0.159
 1561SOL    HW2 4701   3.343   0.534   0.087
 1562SOL     OW 4702   2.389   0.256   0.328
 1562SOL    HW1 4703   2.416   0.197   0.253
 1562SOL    HW2 4704   2.389   0.351   0.297
 1563SOL     OW 4705   3.616   1.223   1.588
 1563SOL    HW1 4706   3.707   1.184   1.575
 1563SOL    HW2 4707   3.624   1.319   1.612
 1564SOL     OW 4708   2.926   1.347   1.340
 1564SOL    HW1 4709   2.846   1.324   1.395
 1564SOL    HW2 4710   3.009   1.321   1.389
 1565SOL     OW 4711   3.454   1.629   1.625
 1565SOL    HW1 4712   3.481   1.663   1.535
 1565SOL    HW2 4713   3.533   1.591   1.671
 1566SOL     OW 4714   2.973   1.195   1.100
 1566SOL    HW1 4715   2.933   1.239   1.181
 1566SOL    HW2 4716   2.932   1.232   1.017
 1567SOL     OW 4717   3.500   1.099   1.079
 1567SOL    HW1 4718   3.505   1.180   1.138
 1567SOL    HW2 4719   3.414   1.101   1.028
 1568SOL     OW 4720   2.777   0.089   1.402
 1568SOL    HW1 4721   2.802   0.069   1.307
 1568SOL    HW2 4722   2.849   0.145   1.444
 1569SOL     OW 4723   2.842   1.116   1.719
 1569SOL    HW1 4724   2.743   1.122   1.729
 1569SOL    HW2 4725   2.865   1.036   1.663
 1570SOL     OW 4726   2.567   1.050   0.368
 1570SOL    HW1 4727   2.553   1.057   0.467
 1570SOL    HW2 4728   2.651   0.999   0.350
 1571SOL     OW 4729   2.272   0.813   1.251
 1571SOL    HW1 4730   2.358   0.825   1.301
 1571SOL    HW2 4731   2.230   0.726   1.278
 1572SOL     OW 4732   3.136   0.386   1.262
 1572SOL    HW1 4733   3.157   0.460   1.326
 1572SOL    HW2 4734   3.047   0.403   1.219
 1573SOL     OW 4735   1.926   1.564   1.331
 1573SOL    HW1 4736   1.880   1.646   1.297
 1573SOL    HW2 4737   2.024   1.583   1.340
 1574SOL     OW 4738   2.229   1.100   0.501
 1574SOL    HW1 4739   2.222   1.183   0.445
 1574SOL    HW2 4740   2.233   1.020   0.441
 1575SOL     OW 4741   2.428   0.537   0.865
 1575SOL    HW1 4742   2.440   0.603   0.791
 1575SOL    HW2 4743   2.474   0.571   0.948
 1576SOL     OW 4744   3.114   1.348   0.388
 1576SOL    HW1 4745   3.164   1.425   0.428
 1576SOL    HW2 4746   3.019   1.350   0.420
 1577SOL     OW 4747   3.134   1.445   1.142
 1577SOL    HW1 4748   3.181   1.458   1.229
 1577SOL    HW2 4749   3.068   1.371   1.151
 1578SOL     OW 4750   3.444   0.639   0.472
 1578SOL    HW1 4751   3.413   0.700   0.545
 1578SOL    HW2 4752   3.494   0.691   0.403
 1579SOL     OW 4753   2.216   1.510   1.329
 1579SOL    HW1 4754   2.195   1.466   1.242
 1579SOL    HW2 4755   2.313   1.536   1.332
 1580SOL     OW 4756   2.264   0.751   1.598
 1580SOL    HW1 4757   2.332   0.806   1.551
 1580SOL    HW2 4758   2.304   0.663   1.625
 1581SOL     OW 4759   3.449   0.779   1.670
 1581SOL    HW1 4760   3.357   0.817   1.665
 1581SOL    HW2 4761   3.509   0.826   1.605
 1582SOL     OW 4762   2.875   0.105   1.770
 1582SOL    HW1 4763   2.881   0.190   1.718
 1582SOL    HW2 4764   2.907   0.029   1.713
 1583SOL     OW 4765   2.366   0.050   1.740
 1583SOL    HW1 4766   2.324  -0.007   1.670
 1583SOL    HW2 4767   2.300   0.119   1.772
 1584SOL     OW 4768   2.435   0.870   1.029
 1584SOL    HW1 4769   2.479   0.959   1.020
 1584SOL    HW2 4770   2.372   0.870   1.106
 1585SOL     OW 4771   3.222   0.862   1.045
 1585SOL    HW1 4772   3.147   0.862   0.979
 1585SOL    HW2 4773   3.259   0.770   1.054
 1586SOL     OW 4774   3.071   0.525   0.275
 1586SOL    HW1 4775   3.084   0.441   0.329
 1586SOL    HW2 4776   3.042   0.599   0.335
 1587SOL     OW 4777   2.169   0.213   1.231
 1587SOL    HW1 4778   2.146   0.250   1.321
 1587SOL    HW2 4779   2.139   0.118   1.225
 1588SOL     OW 4780   1.899   1.310   1.282
 1588SOL    HW1 4781   1.952   1.261   1.350
 1588SOL    HW2 4782   1.921   1.408   1.287
 1589SOL     OW 4783   2.594   0.634   1.064
 1589SOL    HW1 4784   2.653   0.608   0.988
 1589SOL    HW2 4785   2.566   0.730   1.053
 1590SOL     OW 4786   3.590   0.935   1.854
 1590SOL    HW1 4787   3.544   0.928   1.765
 1590SOL    HW2 4788   3.528   0.979   1.920
 1591SOL     OW 4789   2.169   0.063   0.618
 1591SOL    HW1 4790   2.158   0.157   0.651
 1591SOL    HW2 4791   2.164   0.000   0.695
 1592SOL     OW 4792   3.484   0.367   0.374
 1592SOL    HW1 4793   3.486   0.291   0.438
 1592SOL    HW2 4794   3.436   0.444   0.414
 1593SOL     OW 4795   2.885   0.766   0.966
 1593SOL    HW1 4796   2.900   0.787   1.062
 1593SOL    HW2 4797   2.855   0.671   0.957
 1594SOL     OW 4798   2.842   1.573   1.700
 1594SOL    HW1 4799   2.822   1.617   1.612
 1594SOL    HW2 4800   2.881   1.482   1.684
 1595SOL     OW 4801   3.721   1.518   1.605
 1595SOL    HW1 4802   3.735   1.545   1.510
 1595SOL    HW2 4803   3.804   1.540   1.658
 1596SOL     OW 4804   2.212   0.898   1.804
 1596SOL    HW1 4805   2.288   0.942   1.852
 1596SOL    HW2 4806   2.247   0.851   1.722
 1597SOL     OW 4807   3.402   0.274   0.125
 1597SOL    HW1 4808   3.341   0.199   0.148
 1597SOL    HW2 4809   3.424   0.326   0.208
 1598SOL     OW 4810   3.165   0.838   0.042
 1598SOL    HW1 4811   3.199   0.745   0.057
 1598SOL    HW2 4812   3.183   0.865  -0.053
 1599SOL     OW 4813   2.930   1.333   0.849
 1599SOL    HW1 4814   2.937   1.249   0.794
 1599SOL    HW2 4815   2.992   1.402   0.813
 1600SOL     OW 4816   2.181   0.810   0.949
 1600SOL    HW1 4817   2.274   0.846   0.954
 1600SOL    HW2 4818   2.175   0.725   1.001
 1601SOL     OW 4819   2.201   0.509   1.006
 1601SOL    HW1 4820   2.149   0.426   0.989
 1601SOL    HW2 4821   2.278   0.514   0.942
 1602SOL     OW 4822   3.000   0.380   1.678
 1602SOL    HW1 4823   2.955   0.443   1.742
 1602SOL    HW2 4824   3.093   0.411   1.661
 1603SOL     OW 4825   3.022   0.207   1.477
 1603SOL    HW1 4826   3.022   0.271   1.554
 1603SOL    HW2 4827   3.050   0.255   1.394
 1604SOL     OW 4828   1.870   1.326   0.200
 1604SOL    HW1 4829   1.777   1.347   0.169
 1604SOL    HW2 4830   1.880   1.227   0.213
 1605SOL     OW 4831   1.950   1.801   0.927
 1605SOL    HW1 4832   1.908   1.715   0.900
 1605SOL    HW2 4833   2.044   1.804   0.893
 1606SOL     OW 4834   2.366   1.568   0.910
 1606SOL    HW1 4835   2.432   1.642   0.919
 1606SOL    HW2 4836   2.410   1.489   0.868
 1607SOL     OW 4837   2.864   0.796   1.238
 1607SOL    HW1 4838   2.905   0.764   1.324
 1607SOL    HW2 4839   2.768   0.769   1.235
 1608SOL     OW 4840   1.902   0.544   1.114
 1608SOL    HW1 4841   1.987   0.511   1.073
 1608SOL    HW2 4842   1.915   0.559   1.212
 1609SOL     OW 4843   2.051   0.520   1.722
 1609SOL    HW1 4844   2.110   0.480   1.652
 1609SOL    HW2 4845   1.993   0.591   1.681
 1610SOL     OW 4846   3.231   0.950   1.660
 1610SOL    HW1 4847   3.270   1.039   1.680
 1610SOL    HW2 4848   3.241   0.930   1.563
 1611SOL     OW 4849   2.677   0.572   0.325
 1611SOL    HW1 4850   2.684   0.483   0.279
 1611SOL    HW2 4851   2.583   0.606   0.317
 1612SOL     OW 4852   3.519   0.604   1.206
 1612SOL    HW1 4853   3.481   0.535   1.268
 1612SOL    HW2 4854   3.601   0.568   1.162
 1613SOL     OW 4855   2.114   1.564   1.744
 1613SOL    HW1 4856   2.084   1.621   1.820
 1613SOL    HW2 4857   2.107   1.467   1.770
 1614SOL     OW 4858   2.533   0.464   1.269
 1614SOL    HW1 4859   2.499   0.375   1.239
 1614SOL    HW2 4860   2.559   0.518   1.189
 1615SOL     OW 4861   2.792   1.678   1.465
 1615SOL    HW1 4862   2.768   1.660   1.370
 1615SOL    HW2 4863   2.822   1.772   1.475
 1616SOL     OW 4864   2.335   0.500   0.191
 1616SOL    HW1 4865   2.396   0.580   0.195
 1616SOL    HW2 4866   2.240   0.531   0.198
 1617SOL     OW 4867   2.021   1.137   1.466
 1617SOL    HW1 4868   2.043   1.076   1.542
 1617SOL    HW2 4869   2.031   1.088   1.380
 1618SOL     OW 4870   3.209   1.059   1.234
 1618SOL    HW1 4871   3.233   0.996   1.160
 1618SOL    HW2 4872   3.119   1.099   1.216
 1619SOL     OW 4873   3.164   0.855   0.309
 1619SOL    HW1 4874   3.078   0.824   0.351
 1619SOL    HW2 4875   3.160   0.841   0.210
 1620SOL     OW 4876   3.621   1.747   1.154
 1620SOL    HW1 4877   3.682   1.777   1.081
 1620SOL    HW2 4878   3.583   1.658   1.132
 1621SOL     OW 4879   3.114   1.731   1.128
 1621SOL    HW1 4880   3.198   1.736   1.074
 1621SOL    HW2 4881   3.091   1.635   1.146
 1622SOL     OW 4882   1.945   1.258   1.022
 1622SOL    HW1 4883   1.940   1.257   1.122
 1622SOL    HW2 4884   1.862   1.217   0.984
 1623SOL     OW 4885   2.550   1.662   1.716
 1623SOL    HW1 4886   2.494   1.743   1.725
 1623SOL    HW2 4887   2.602   1.666   1.630
 1624SOL     OW 4888   2.765   0.086   0.133
 1624SOL    HW1 4889   2.816   0.087   0.047
 1624SOL    HW2 4890   2.821   0.044   0.204
 1625SOL     OW 4891   3.588   0.135   0.523
 1625SOL    HW1 4892   3.661   0.118   0.456
 1625SOL    HW2 4893   3.557   0.048   0.561
 1626SOL     OW 4894   3.250   1.573   0.477
 1626SOL    HW1 4895   3.317   1.585   0.403
 1626SOL    HW2 4896   3.210   1.662   0.500
 1627SOL     OW 4897   1.992   1.794   1.851
 1627SOL    HW1 4898   1.951   1.720   1.904
 1627SOL    HW2 4899   2.056   1.845   1.909
 1628SOL     OW 4900   3.142   0.927   0.672
 1628SOL    HW1 4901   3.202   0.846   0.674
 1628SOL    HW2 4902   3.182   0.996   0.612
 1629SOL     OW 4903   2.692   1.273   1.422
 1629SOL    HW1 4904   2.687   1.306   1.517
 1629SOL    HW2 4905   2.606   1.292   1.376
 1630SOL     OW 4906   2.534   1.616   0.154
 1630SOL    HW1 4907   2.543   1.626   0.055
 1630SOL    HW2 4908   2.494   1.527   0.175
 1631SOL     OW 4909   3.512   1.720   1.394
 1631SOL    HW1 4910   3.565   1.730   1.310
 1631SOL    HW2 4911   3.485   1.810   1.428
 1632SOL     OW 4912   3.703   0.175   0.963
 1632SOL    HW1 4913   3.742   0.090   0.927
 1632SOL    HW2 4914   3.605   0.177   0.944
 1633SOL     OW 4915   2.125   0.326   0.720
 1633SOL    HW1 4916   2.046   0.377   0.686
 1633SOL    HW2 4917   2.116   0.311   0.818
 1634SOL     OW 4918   3.056   1.612   0.031
 1634SOL    HW1 4919   3.062   1.519   0.068
 1634SOL    HW2 4920   2.997   1.612  -0.049
 1635SOL     OW 4921   2.684   1.002   1.372
 1635SOL    HW1 4922   2.724   1.001   1.280
 1635SOL    HW2 4923   2.694   1.094   1.412
 1636SOL     OW 4924   2.778   0.910   0.291
 1636SOL    HW1 4925   2.841   0.948   0.223
 1636SOL    HW2 4926   2.818   0.827   0.330
 1637SOL     OW 4927   3.366   1.607   0.044
 1637SOL    HW1 4928   3.274   1.644   0.051
 1637SOL    HW2 4929   3.404   1.627  -0.046
 1638SOL     OW 4930   2.234   1.288   1.490
 1638SOL    HW1 4931   2.221   1.381   1.456
 1638SOL    HW2 4932   2.150   1.236   1.477
 1639SOL     OW 4933   3.476   1.292   1.289
 1639SOL    HW1 4934   3.536   1.295   1.369
 1639SOL    HW2 4935   3.401   1.356   1.302
 1640SOL     OW 4936   2.901   1.098   0.696
 1640SOL    HW1 4937   2.831   1.051   0.750
 1640SOL    HW2 4938   2.960   1.030   0.653
 1641SOL     OW 4939   2.876   0.236   0.971
 1641SOL    HW1 4940   2.868   0.200   0.878
 1641SOL    HW2 4941   2.874   0.160   1.036
 1642SOL     OW 4942   2.452   1.487   0.491
 1642SOL    HW1 4943   2.494   1.429   0.421
 1642SOL    HW2 4944   2.408   1.566   0.447
 1643SOL     OW 4945   3.571   0.385   1.381
 1643SOL    HW1 4946   3.644   0.454   1.385
 1643SOL    HW2 4947   3.599   0.310   1.322
 1644SOL     OW 4948   2.117   1.348   0.290
 1644SOL    HW1 4949   2.021   1.349   0.263
 1644SOL    HW2 4950   2.129   1.401   0.374
 1645SOL     OW 4951   1.967   1.013   1.726
 1645SOL    HW1 4952   1.890   0.980   1.780
 1645SOL    HW2 4953   2.052   0.983   1.768
 1646SOL     OW 4954   2.534   0.203   1.489
 1646SOL    HW1 4955   2.624   0.187   1.449
 1646SOL    HW2 4956   2.542   0.208   1.588
 1647SOL     OW 4957   3.302   0.856   1.398
 1647SOL    HW1 4958   3.245   0.908   1.335
 1647SOL    HW2 4959   3.398   0.868   1.374
 1648SOL     OW 4960   1.934   0.166   0.318
 1648SOL    HW1 4961   1.917   0.249   0.264
 1648SOL    HW2 4962   2.024   0.129   0.296
 1649SOL     OW 4963   3.045   1.335   0.119
 1649SOL    HW1 4964   2.946   1.324   0.121
 1649SOL    HW2 4965   3.079   1.350   0.212
 1650SOL     OW 4966   2.475   0.842   1.431
 1650SOL    HW1 4967   2.531   0.923   1.414
 1650SOL    HW2 4968   2.534   0.762   1.434
 1651SOL     OW 4969   3.355   1.767   0.959
 1651SOL    HW1 4970   3.388   1.831   0.890
 1651SOL    HW2 4971   3.421   1.761   1.034
 1652SOL     OW 4972   2.578   0.565   1.708
 1652SOL    HW1 4973   2.597   0.630   1.782
 1652SOL    HW2 4974   2.638   0.485   1.717
 1653SOL     OW 4975   3.312   1.220   1.633
 1653SOL    HW1 4976   3.303   1.210   1.732
 1653SOL    HW2 4977   3.408   1.213   1.607
 1654SOL     OW 4978   2.252   1.741   1.560
 1654SOL    HW1 4979   2.161   1.782   1.558
 1654SOL    HW2 4980   2.245   1.647   1.592
 1655SOL     OW 4981   3.536   0.883   1.254
 1655SOL    HW1 4982   3.509   0.794   1.217
 1655SOL    HW2 4983   3.537   0.951   1.181
 1656SOL     OW 4984   3.087   0.325   0.449
 1656SOL    HW1 4985   3.152   0.251   0.438
 1656SOL    HW2 4986   3.107   0.375   0.533
 1657SOL     OW 4987   2.456   0.745   0.652
 1657SOL    HW1 4988   2.506   0.830   0.633
 1657SOL    HW2 4989   2.368   0.747   0.604
 1658SOL     OW 4990   3.639   0.342   1.642
 1658SOL    HW1 4991   3.622   0.373   1.548
 1658SOL    HW2 4992   3.555   0.305   1.680
 1659SOL     OW 4993   3.592   0.934   1.517
 1659SOL    HW1 4994   3.630   1.025   1.532
 1659SOL    HW2 4995   3.584   0.917   1.418
 1660SOL     OW 4996   2.721   1.374   0.016
 1660SOL    HW1 4997   2.675   1.389   0.104
 1660SOL    HW2 4998   2.765   1.459  -0.014
 1661SOL     OW 4999   2.523   1.790   0.953
 1661SOL    HW1 5000   2.477   1.878   0.940
 1661SOL    HW2 5001   2.622   1.802   0.946
 1662SOL     OW 5002   2.721   0.956   0.861
 1662SOL    HW1 5003   2.775   0.887   0.909
 1662SOL    HW2 5004   2.689   1.025   0.927
 1663SOL     OW 5005   2.945   0.984   0.087
 1663SOL    HW1 5006   2.922   1.037   0.005
 1663SOL    HW2 5007   3.026   0.928   0.068
 1664SOL     OW 5008   3.723   1.569   0.851
 1664SOL    HW1 5009   3.652   1.557   0.781
 1664SOL    HW2 5010   3.724   1.490   0.911
 1665SOL     OW 5011   2.083   1.314   1.844
 1665SOL    HW1 5012   2.018   1.241   1.823
 1665SOL    HW2 5013   2.087   1.328   1.942
 1666SOL     OW 5014   1.941   1.240   0.653
 1666SOL    HW1 5015   1.940   1.193   0.741
 1666SOL    HW2 5016   2.023   1.212   0.602
 1667SOL     OW 5017   2.534   1.391   1.624
 1667SOL    HW1 5018   2.456   1.341   1.662
 1667SOL    HW2 5019   2.531   1.486   1.655
 1668SOL     OW 5020   3.686   0.192   1.227
 1668SOL    HW1 5021   3.682   0.102   1.271
 1668SOL    HW2 5022   3.689   0.181   1.128
 1669SOL     OW 5023   2.290   0.424   0.520
 1669SOL    HW1 5024   2.320   0.352   0.458
 1669SOL    HW2 5025   2.251   0.384   0.603
 1670SOL     OW 5026   3.567   1.487   1.104
 1670SOL    HW1 5027   3.474   1.462   1.077
 1670SOL    HW2 5028   3.593   1.437   1.186
 1671SOL     OW 5029   2.179   0.547   1.280
 1671SOL    HW1 5030   2.217   0.488   1.352
 1671SOL    HW2 5031   2.219   0.521   1.192
 1672SOL     OW 5032   2.674   1.586   0.687
 1672SOL    HW1 5033   2.706   1.596   0.593
 1672SOL    HW2 5034   2.595   1.524   0.689
 1673SOL     OW 5035   3.286   0.214   1.112
 1673SOL    HW1 5036   3.338   0.149   1.167
 1673SOL    HW2 5037   3.237   0.277   1.173
 1674SOL     OW 5038   2.863   0.034   1.154
 1674SOL    HW1 5039   2.800  -0.038   1.123
 1674SOL    HW2 5040   2.956  -0.002   1.154
 1675SOL     OW 5041   2.632   1.330   0.301
 1675SOL    HW1 5042   2.586   1.243   0.318
 1675SOL    HW2 5043   2.723   1.327   0.342
 1676SOL     OW 5044   2.480   1.567   1.284
 1676SOL    HW1 5045   2.475   1.649   1.341
 1676SOL    HW2 5046   2.569   1.564   1.239
 1677SOL     OW 5047   3.214   0.052   0.168
 1677SOL    HW1 5048   3.249   0.011   0.084
 1677SOL    HW2 5049   3.124   0.014   0.188
 1678SOL     OW 5050   3.162   0.453   0.691
 1678SOL    HW1 5051   3.103   0.533   0.695
 1678SOL    HW2 5052   3.177   0.418   0.784
 1679SOL     OW 5053   3.455   0.221   0.882
 1679SOL    HW1 5054   3.371   0.220   0.936
 1679SOL    HW2 5055   3.457   0.304   0.826
 1680SOL     OW 5056   1.901   1.077   0.300
 1680SOL    HW1 5057   2.000   1.066   0.291
 1680SOL    HW2 5058   1.861   0.991   0.332
 1681SOL     OW 5059   2.737   1.646   0.337
 1681SOL    HW1 5060   2.660   1.611   0.283
 1681SOL    HW2 5061   2.705   1.717   0.399
 1682SOL     OW 5062   2.092   0.628   1.975
 1682SOL    HW1 5063   1.999   0.626   2.012
 1682SOL    HW2 5064   2.093   0.589   1.883
 1683SOL     OW 5065   2.087   0.275   2.858
 1683SOL    HW1 5066   2.122   0.258   2.950
 1683SOL    HW2 5067   1.999   0.230   2.846
 1684SOL     OW 5068   1.881   0.368   2.509
 1684SOL    HW1 5069   1.799   0.411   2.548
 1684SOL    HW2 5070   1.853   0.295   2.446
 1685SOL     OW 5071   2.431   1.275   3.027
 1685SOL    HW1 5072   2.338   1.268   2.990
 1685SOL    HW2 5073   2.442   1.364   3.071
 1686SOL     OW 5074   3.417   1.511   2.565
 1686SOL    HW1 5075   3.360   1.495   2.646
 1686SOL    HW2 5076   3.358   1.521   2.485
 1687SOL     OW 5077   2.997   0.703   2.579
 1687SOL    HW1 5078   3.054   0.781   2.554
 1687SOL    HW2 5079   2.937   0.729   2.655
 1688SOL     OW 5080   3.617   0.607   2.093
 1688SOL    HW1 5081   3.605   0.594   1.994
 1688SOL    HW2 5082   3.587   0.526   2.142
 1689SOL     OW 5083   2.630   1.144   2.885
 1689SOL    HW1 5084   2.552   1.161   2.945
 1689SOL    HW2 5085   2.664   1.231   2.849
 1690SOL     OW 5086   2.712   0.798   3.685
 1690SOL    HW1 5087   2.708   0.874   3.750
 1690SOL    HW2 5088   2.734   0.834   3.594
 1691SOL     OW 5089   2.547   1.012   2.527
 1691SOL    HW1 5090   2.616   0.996   2.597
 1691SOL    HW2 5091   2.474   1.069   2.565
 1692SOL     OW 5092   2.548   1.161   3.665
 1692SOL    HW1 5093   2.608   1.240   3.679
 1692SOL    HW2 5094   2.462   1.192   3.624
 1693SOL     OW 5095   2.197   1.435   2.923
 1693SOL    HW1 5096   2.119   1.404   2.870
 1693SOL    HW2 5097   2.255   1.493   2.866
 1694SOL     OW 5098   3.322   1.505   3.201
 1694SOL    HW1 5099   3.346   1.599   3.227
 1694SOL    HW2 5100   3.306   1.451   3.283
 1695SOL     OW 5101   2.300   0.392   3.361
 1695SOL    HW1 5102   2.382   0.336   3.370
 1695SOL    HW2 5103   2.219   0.334   3.365
 1696SOL     OW 5104   3.465   0.447   2.599
 1696SOL    HW1 5105   3.391   0.493   2.549
 1696SOL    HW2 5106   3.516   0.515   2.652
 1697SOL     OW 5107   2.093   1.713   2.345
 1697SOL    HW1 5108   2.127   1.790   2.399
 1697SOL    HW2 5109   2.137   1.713   2.255
 1698SOL     OW 5110   2.989   1.341   3.552
 1698SOL    HW1 5111   3.036   1.341   3.640
 1698SOL    HW2 5112   2.941   1.254   3.541
 1699SOL     OW 5113   2.092   1.434   2.400
 1699SOL    HW1 5114   2.066   1.530   2.400
 1699SOL    HW2 5115   2.021   1.380   2.445
 1700SOL     OW 5116   2.102   1.091   2.748
 1700SOL    HW1 5117   2.116   1.007   2.800
 1700SOL    HW2 5118   2.047   1.155   2.803
 1701SOL     OW 5119   2.482   1.786   3.301
 1701SOL    HW1 5120   2.390   1.769   3.336
 1701SOL    HW2 5121   2.510   1.878   3.327
 1702SOL     OW 5122   2.468   0.964   1.985
 1702SOL    HW1 5123   2.475   1.048   1.931
 1702SOL    HW2 5124   2.514   0.977   2.073
 1703SOL     OW 5125   3.456   0.114   3.342
 1703SOL    HW1 5126   3.438   0.181   3.270
 1703SOL    HW2 5127   3.453   0.160   3.431
 1704SOL     OW 5128   1.984   0.643   2.425
 1704SOL    HW1 5129   1.939   0.555   2.442
 1704SOL    HW2 5130   1.983   0.697   2.509
 1705SOL     OW 5131   3.704   1.767   2.221
 1705SOL    HW1 5132   3.758   1.738   2.301
 1705SOL    HW2 5133   3.734   1.857   2.192
 1706SOL     OW 5134   1.889   1.596   1.979
 1706SOL    HW1 5135   1.870   1.500   2.000
 1706SOL    HW2 5136   1.856   1.654   2.054
 1707SOL     OW 5137   3.551   0.922   2.474
 1707SOL    HW1 5138   3.646   0.893   2.482
 1707SOL    HW2 5139   3.543   0.987   2.399
 1708SOL     OW 5140   3.503   1.108   2.294
 1708SOL    HW1 5141   3.589   1.110   2.242
 1708SOL    HW2 5142   3.517   1.155   2.382
 1709SOL     OW 5143   1.975   0.737   3.459
 1709SOL    HW1 5144   2.063   0.724   3.504
 1709SOL    HW2 5145   1.962   0.834   3.437
 1710SOL     OW 5146   2.475   1.365   2.588
 1710SOL    HW1 5147   2.426   1.278   2.597
 1710SOL    HW2 5148   2.452   1.408   2.501
 1711SOL     OW 5149   3.155   1.228   3.285
 1711SOL    HW1 5150   3.192   1.155   3.227
 1711SOL    HW2 5151   3.207   1.233   3.370
 1712SOL     OW 5152   2.671   0.004   2.364
 1712SOL    HW1 5153   2.711   0.095   2.355
 1712SOL    HW2 5154   2.571   0.012   2.370
 1713SOL     OW 5155   2.059   0.976   3.126
 1713SOL    HW1 5156   2.148   0.931   3.112
 1713SOL    HW2 5157   1.986   0.911   3.107
 1714SOL     OW 5158   3.387   0.999   2.052
 1714SOL    HW1 5159   3.324   0.923   2.065
 1714SOL    HW2 5160   3.435   1.017   2.138
 1715SOL     OW 5161   3.049   1.792   3.478
 1715SOL    HW1 5162   3.073   1.852   3.402
 1715SOL    HW2 5163   3.056   1.697   3.448
 1716SOL     OW 5164   2.179   0.251   3.663
 1716SOL    HW1 5165   2.250   0.322   3.669
 1716SOL    HW2 5166   2.091   0.290   3.691
 1717SOL     OW 5167   3.328   1.417   2.815
 1717SOL    HW1 5168   3.269   1.423   2.895
 1717SOL    HW2 5169   3.313   1.329   2.769
 1718SOL     OW 5170   3.529   1.714   2.434
 1718SOL    HW1 5171   3.488   1.691   2.346
 1718SOL    HW2 5172   3.511   1.640   2.499
 1719SOL     OW 5173   2.460   0.729   2.132
 1719SOL    HW1 5174   2.484   0.798   2.064
 1719SOL    HW2 5175   2.382   0.762   2.186
 1720SOL     OW 5176   3.143   0.345   2.806
 1720SOL    HW1 5177   3.057   0.295   2.793
 1720SOL    HW2 5178   3.205   0.291   2.862
 1721SOL     OW 5179   3.438   1.662   2.169
 1721SOL    HW1 5180   3.527   1.708   2.172
 1721SOL    HW2 5181   3.417   1.638   2.074
 1722SOL     OW 5182   2.669   0.605   3.327
 1722SOL    HW1 5183   2.622   0.602   3.416
 1722SOL    HW2 5184   2.618   0.550   3.261
 1723SOL     OW 5185   3.256   0.469   3.536
 1723SOL    HW1 5186   3.236   0.512   3.624
 1723SOL    HW2 5187   3.334   0.407   3.545
 1724SOL     OW 5188   2.835   0.890   3.434
 1724SOL    HW1 5189   2.881   0.806   3.405
 1724SOL    HW2 5190   2.779   0.924   3.359
 1725SOL     OW 5191   2.853   0.410   3.104
 1725SOL    HW1 5192   2.776   0.444   3.158
 1725SOL    HW2 5193   2.819   0.359   3.025
 1726SOL     OW 5194   2.903   0.701   2.291
 1726SOL    HW1 5195   2.929   0.697   2.387
 1726SOL    HW2 5196   2.818   0.650   2.277
 1727SOL     OW 5197   1.938   0.811   2.651
 1727SOL    HW1 5198   2.037   0.799   2.660
 1727SOL    HW2 5199   1.914   0.906   2.672
 1728SOL     OW 5200   1.992   1.821   3.433
 1728SOL    HW1 5201   1.982   1.806   3.532
 1728SOL    HW2 5202   1.906   1.857   3.397
 1729SOL     OW 5203   2.727   0.348   2.057
 1729SOL    HW1 5204   2.786   0.411   2.008
 1729SOL    HW2 5205   2.746   0.254   2.028
 1730SOL     OW 5206   3.581   0.585   3.693
 1730SOL    HW1 5207   3.555   0.674   3.657
 1730SOL    HW2 5208   3.579   0.517   3.620
 1731SOL     OW 5209   3.224   1.144   2.407
 1731SOL    HW1 5210   3.307   1.115   2.359
 1731SOL    HW2 5211   3.175   1.211   2.351
 1732SOL     OW 5212   2.412   0.196   2.747
 1732SOL    HW1 5213   2.407   0.191   2.847
 1732SOL    HW2 5214   2.414   0.292   2.718
 1733SOL     OW 5215   2.870   1.456   2.339
 1733SOL    HW1 5216   2.824   1.528   2.287
 1733SOL    HW2 5217   2.866   1.476   2.437
 1734SOL     OW 5218   2.213   1.801   2.715
 1734SOL    HW1 5219   2.263   1.715   2.721
 1734SOL    HW2 5220   2.278   1.878   2.712
 1735SOL     OW 5221   3.657   1.066   2.735
 1735SOL    HW1 5222   3.595   1.051   2.659
 1735SOL    HW2 5223   3.605   1.077   2.820
 1736SOL     OW 5224   3.089   1.550   3.368
 1736SOL    HW1 5225   3.095   1.473   3.432
 1736SOL    HW2 5226   3.037   1.524   3.288
 1737SOL     OW 5227   2.183   0.943   2.104
 1737SOL    HW1 5228   2.265   0.982   2.062
 1737SOL    HW2 5229   2.156   0.861   2.055
 1738SOL     OW 5230   3.320   0.735   2.590
 1738SOL    HW1 5231   3.315   0.670   2.665
 1738SOL    HW2 5232   3.400   0.794   2.603
 1739SOL     OW 5233   2.323   1.266   3.589
 1739SOL    HW1 5234   2.273   1.267   3.503
 1739SOL    HW2 5235   2.260   1.248   3.665
 1740SOL     OW 5236   2.973   1.776   2.099
 1740SOL    HW1 5237   2.913   1.714   2.149
 1740SOL    HW2 5238   3.004   1.732   2.014
 1741SOL     OW 5239   2.064   0.285   3.360
 1741SOL    HW1 5240   1.984   0.345   3.347
 1741SOL    HW2 5241   2.054   0.236   3.446
 1742SOL     OW 5242   3.494   1.377   1.943
 1742SOL    HW1 5243   3.462   1.471   1.933
 1742SOL    HW2 5244   3.418   1.314   1.931
 1743SOL     OW 5245   2.326   1.743   2.185
 1743SOL    HW1 5246   2.359   1.782   2.271
 1743SOL    HW2 5247   2.402   1.736   2.120
 1744SOL     OW 5248   3.262   0.107   2.288
 1744SOL    HW1 5249   3.238   0.070   2.198
 1744SOL    HW2 5250   3.361   0.123   2.292
 1745SOL     OW 5251   2.111   1.785   3.103
 1745SOL    HW1 5252   2.168   1.720   3.153
 1745SOL    HW2 5253   2.095   1.752   3.010
 1746SOL     OW 5254   2.802   1.698   2.766
 1746SOL    HW1 5255   2.882   1.641   2.787
 1746SOL    HW2 5256   2.753   1.658   2.689
 1747SOL     OW 5257   2.244   0.700   2.342
 1747SOL    HW1 5258   2.289   0.610   2.339
 1747SOL    HW2 5259   2.150   0.689   2.375
 1748SOL     OW 5260   3.409   0.222   3.591
 1748SOL    HW1 5261   3.404   0.259   3.683
 1748SOL    HW2 5262   3.337   0.153   3.579
 1749SOL     OW 5263   2.476   0.122   1.979
 1749SOL    HW1 5264   2.574   0.100   1.986
 1749SOL    HW2 5265   2.445   0.105   1.886
 1750SOL     OW 5266   2.643   0.264   3.611
 1750SOL    HW1 5267   2.710   0.203   3.654
 1750SOL    HW2 5268   2.570   0.283   3.676
 1751SOL     OW 5269   2.750   1.514   3.057
 1751SOL    HW1 5270   2.727   1.489   2.963
 1751SOL    HW2 5271   2.811   1.445   3.096
 1752SOL     OW 5272   3.213   0.590   3.295
 1752SOL    HW1 5273   3.241   0.547   3.380
 1752SOL    HW2 5274   3.238   0.686   3.296
 1753SOL     OW 5275   2.665   1.402   2.786
 1753SOL    HW1 5276   2.755   1.416   2.744
 1753SOL    HW2 5277   2.594   1.404   2.715
 1754SOL     OW 5278   2.784   0.503   2.761
 1754SOL    HW1 5279   2.759   0.494   2.665
 1754SOL    HW2 5280   2.832   0.421   2.792
 1755SOL     OW 5281   2.401   0.064   2.374
 1755SOL    HW1 5282   2.320   0.065   2.432
 1755SOL    HW2 5283   2.404   0.147   2.319
 1756SOL     OW 5284   3.296   1.188   1.903
 1756SOL    HW1 5285   3.328   1.112   1.960
 1756SOL    HW2 5286   3.204   1.215   1.933
 1757SOL     OW 5287   2.159   0.035   2.033
 1757SOL    HW1 5288   2.208   0.119   2.012
 1757SOL    HW2 5289   2.221  -0.030   2.078
 1758SOL     OW 5290   2.797   0.236   2.342
 1758SOL    HW1 5291   2.749   0.277   2.264
 1758SOL    HW2 5292   2.896   0.234   2.323
 1759SOL     OW 5293   2.938   0.683   3.326
 1759SOL    HW1 5294   2.858   0.622   3.329
 1759SOL    HW2 5295   3.019   0.630   3.302
 1760SOL     OW 5296   3.089   1.570   2.655
 1760SOL    HW1 5297   3.110   1.644   2.590
 1760SOL    HW2 5298   3.157   1.570   2.728
 1761SOL     OW 5299   2.321   1.152   2.603
 1761SOL    HW1 5300   2.250   1.125   2.668
 1761SOL    HW2 5301   2.295   1.124   2.510
 1762SOL     OW 5302   3.133   1.797   2.453
 1762SOL    HW1 5303   3.177   1.861   2.389
 1762SOL    HW2 5304   3.083   1.849   2.523
 1763SOL     OW 5305   2.894   0.549   1.878
 1763SOL    HW1 5306   2.853   0.631   1.839
 1763SOL    HW2 5307   2.958   0.575   1.951
 1764SOL     OW 5308   1.940   0.556   3.248
 1764SOL    HW1 5309   2.032   0.555   3.207
 1764SOL    HW2 5310   1.934   0.630   3.315
 1765SOL     OW 5311   2.423   0.222   3.009
 1765SOL    HW1 5312   2.461   0.138   3.046
 1765SOL    HW2 5313   2.335   0.241   3.053
 1766SOL     OW 5314   2.728   0.454   2.504
 1766SOL    HW1 5315   2.696   0.526   2.442
 1766SOL    HW2 5316   2.752   0.373   2.451
 1767SOL     OW 5317   2.879   0.039   2.615
 1767SOL    HW1 5318   2.807   0.044   2.546
 1767SOL    HW2 5319   2.855  -0.030   2.684
 1768SOL     OW 5320   3.291   1.173   2.729
 1768SOL    HW1 5321   3.236   1.089   2.722
 1768SOL    HW2 5322   3.317   1.202   2.637
 1769SOL     OW 5323   3.328   0.590   2.854
 1769SOL    HW1 5324   3.298   0.495   2.861
 1769SOL    HW2 5325   3.401   0.606   2.920
 1770SOL     OW 5326   3.719   0.833   2.239
 1770SOL    HW1 5327   3.761   0.769   2.303
 1770SOL    HW2 5328   3.681   0.782   2.161
 1771SOL     OW 5329   2.350   1.385   2.036
 1771SOL    HW1 5330   2.263   1.370   2.083
 1771SOL    HW2 5331   2.333   1.411   1.941
 1772SOL     OW 5332   3.526   1.280   2.519
 1772SOL    HW1 5333   3.625   1.288   2.533
 1772SOL    HW2 5334   3.481   1.364   2.550
 1773SOL     OW 5335   3.252   0.575   1.940
 1773SOL    HW1 5336   3.198   0.554   2.021
 1773SOL    HW2 5337   3.343   0.534   1.949
 1774SOL     OW 5338   2.389   0.256   2.190
 1774SOL    HW1 5339   2.416   0.197   2.115
 1774SOL    HW2 5340   2.389   0.351   2.159
 1775SOL     OW 5341   3.616   1.223   3.450
 1775SOL    HW1 5342   3.707   1.184   3.437
 1775SOL    HW2 5343   3.624   1.319   3.474
 1776SOL     OW 5344   2.926   1.347   3.202
 1776SOL    HW1 5345   2.846   1.324   3.257
 1776SOL    HW2 5346   3.009   1.321   3.251
 1777SOL     OW 5347   3.454   1.629   3.487
 1777SOL    HW1 5348   3.481   1.663   3.397
 1777SOL    HW2 5349   3.533   1.591   3.533
 1778SOL     OW 5350   2.973   1.195   2.962
 1778SOL    HW1 5351   2.933   1.239   3.043
 1778SOL    HW2 5352   2.932   1.232   2.879
 1779SOL     OW 5353   3.500   1.099   2.941
 1779SOL    HW1 5354   3.505   1.180   3.000
 1779SOL    HW2 5355   3.414   1.101   2.890
 1780SOL     OW 5356   2.777   0.089   3.264
 1780SOL    HW1 5357   2.802   0.069   3.169
 1780SOL    HW2 5358   2.849   0.145   3.306
 1781SOL     OW 5359   2.842   1.116   3.581
 1781SOL    HW1 5360   2.743   1.122   3.591
 1781SOL    HW2 5361   2.865   1.036   3.525
 1782SOL     OW 5362   2.567   1.050   2.230
 1782SOL    HW1 5363   2.553   1.057   2.329
 1782SOL    HW2 5364   2.651   0.999   2.212
 1783SOL     OW 5365   2.272   0.813   3.113
 1783SOL    HW1 5366   2.358   0.825   3.163
 1783SOL    HW2 5367   2.230   0.726   3.140
 1784SOL     OW 5368   3.136   0.386   3.124
 1784SOL    HW1 5369   3.157   0.460   3.188
 1784SOL    HW2 5370   3.047   0.403   3.081
 1785SOL     OW 5371   1.926   1.564   3.193
 1785SOL    HW1 5372   1.880   1.646   3.159
 1785SOL    HW2 5373   2.024   1.583   3.202
 1786SOL     OW 5374   2.229   1.100   2.363
 1786SOL    HW1 5375   2.222   1.183   2.307
 1786SOL    HW2 5376   2.233   1.020   2.303
 1787SOL     OW 5377   2.428   0.537   2.727
 1787SOL    HW1 5378   2.440   0.603   2.653
 1787SOL    HW2 5379   2.474   0.571   2.810
 1788SOL     OW 5380   3.114   1.348   2.250
 1788SOL    HW1 5381   3.164   1.425   2.290
 1788SOL    HW2 5382   3.019   1.350   2.282
 1789SOL     OW 5383   3.134   1.445   3.004
 1789SOL    HW1 5384   3.181   1.458   3.091
 1789SOL    HW2 5385   3.068   1.371   3.013
 1790SOL     OW 5386   3.444   0.639   2.334
 1790SOL    HW1 5387   3.413   0.700   2.407
 1790SOL    HW2 5388   3.494   0.691   2.265
 1791SOL     OW 5389   2.216   1.510   3.191
 1791SOL    HW1 5390   2.195   1.466   3.104
 1791SOL    HW2 5391   2.313   1.536   3.194
 1792SOL     OW 5392   2.264   0.751   3.460
 1792SOL    HW1 5393   2.332   0.806   3.413
 1792SOL    HW2 5394   2.304   0.663   3.487
 1793SOL     OW 5395   3.449   0.779   3.532
 1793SOL    HW1 5396   3.357   0.817   3.527
 1793SOL    HW2 5397   3.509   0.826   3.467
 1794SOL     OW 5398   2.875   0.105   3.632
 1794SOL    HW1 5399   2.881   0.190   3.580
 1794SOL    HW2 5400   2.907   0.029   3.575
 1795SOL     OW 5401   2.366   0.050   3.602
 1795SOL    HW1 5402   2.324  -0.007   3.532
 1795SOL    HW2 5403   2.300   0.119   3.634
 1796SOL     OW 5404   2.435   0.870   2.891
 1796SOL    HW1 5405   2.479   0.959   2.882
 1796SOL    HW2 5406   2.372   0.870   2.968
 1797SOL     OW 5407   3.222   0.862   2.907
 1797SOL    HW1 5408   3.147   0.862   2.841
 1797SOL    HW2 5409   3.259   0.770   2.916
 1798SOL     OW 5410   3.071   0.525   2.137
 1798SOL    HW1 5411   3.084   0.441   2.191
 1798SOL    HW2 5412   3.042   0.599   2.197
 1799SOL     OW 5413   2.169   0.213   3.093
 1799SOL    HW1 5414   2.146   0.250   3.183
 1799SOL    HW2 5415   2.139   0.118   3.087
 1800SOL     OW 5416   1.899   1.310   3.144
 1800SOL    HW1 5417   1.952   1.261   3.212
 1800SOL    HW2 5418   1.921   1.408   3.149
 1801SOL     OW 5419   2.594   0.634   2.926
 1801SOL    HW1 5420   2.653   0.608   2.850
 1801SOL    HW2 5421   2.566   0.730   2.915
 1802SOL     OW 5422   3.590   0.935   3.716
 1802SOL    HW1 5423   3.544   0.928   3.627
 1802SOL    HW2 5424   3.528   0.979   3.782
 1803SOL     OW 5425   2.169   0.063   2.480
 1803SOL    HW1 5426   2.158   0.157   2.513
 1803SOL    HW2 5427   2.164   0.000   2.557
 1804SOL     OW 5428   3.484   0.367   2.236
 1804SOL    HW1 5429   3.486   0.291   2.300
 1804SOL    HW2 5430   3.436   0.444   2.276
 1805SOL     OW 5431   2.885   0.766   2.828
 1805SOL    HW1 5432   2.900   0.787   2.924
 1805SOL    HW2 5433   2.855   0.671   2.819
 1806SOL     OW 5434   2.842   1.573   3.562
 1806SOL    HW1 5435   2.822   1.617   3.474
 1806SOL    HW2 5436   2.881   1.482   3.546
 1807SOL     OW 5437   3.721   1.518   3.467
 1807SOL    HW1 5438   3.735   1.545   3.372
 1807SOL    HW2 5439   3.804   1.540   3.520
 1808SOL     OW 5440   2.212   0.898   3.666
 1808SOL    HW1 5441   2.288   0.942   3.714
 1808SOL    HW2 5442   2.247   0.851   3.584
 1809SOL     OW 5443   3.402   0.274   1.987
 1809SOL    HW1 5444   3.341   0.199   2.010
 1809SOL    HW2 5445   3.424   0.326   2.070
 1810SOL     OW 5446   3.165   0.838   1.904
 1810SOL    HW1 5447   3.199   0.745   1.919
 1810SOL    HW2 5448   3.183   0.865   1.809
 1811SOL     OW 5449   2.930   1.333   2.711
 1811SOL    HW1 5450   2.937   1.249   2.656
 1811SOL    HW2 5451   2.992   1.402   2.675
 1812SOL     OW 5452   2.181   0.810   2.811
 1812SOL    HW1 5453   2.274   0.846   2.816
 1812SOL    HW2 5454   2.175   0.725   2.863
 1813SOL     OW 5455   2.201   0.509   2.868
 1813SOL    HW1 5456   2.149   0.426   2.851
 1813SOL    HW2 5457   2.278   0.514   2.804
 1814SOL     OW 5458   3.000   0.380   3.540
 1814SOL    HW1 5459   2.955   0.443   3.604
 1814SOL    HW2 5460   3.093   0.411   3.523
 1815SOL     OW 5461   3.022   0.207   3.339
 1815SOL    HW1 5462   3.022   0.271   3.416
 1815SOL    HW2 5463   3.050   0.255   3.256
 1816SOL     OW 5464   1.870   1.326   2.062
 1816SOL    HW1 5465   1.777   1.347   2.031
 1816SOL    HW2 5466   1.880   1.227   2.075
 1817SOL     OW 5467   1.950   1.801   2.789
 1817SOL    HW1 5468   1.908   1.715   2.762
 1817SOL    HW2 5469   2.044   1.804   2.755
 1818SOL     OW 5470   2.366   1.568   2.772
 1818SOL    HW1 5471   2.432   1.642   2.781
 1818SOL    HW2 5472   2.410   1.489   2.730
 1819SOL     OW 5473   2.864   0.796   3.100
 1819SOL    HW1 5474   2.905   0.764   3.186
 1819SOL    HW2 5475   2.768   0.769   3.097
 1820SOL     OW 5476   1.902   0.544   2.976
 1820SOL    HW1 5477   1.987   0.511   2.935
 1820SOL    HW2 5478   1.915   0.559   3.074
 1821SOL     OW 5479   2.051   0.520   3.584
 1821SOL    HW1 5480   2.110   0.480   3.514
 1821SOL    HW2 5481   1.993   0.591   3.543
 1822SOL     OW 5482   3.231   0.950   3.522
 1822SOL    HW1 5483   3.270   1.039   3.542
 1822SOL    HW2 5484   3.241   0.930   3.425
 1823SOL     OW 5485   2.677   0.572   2.187
 1823SOL    HW1 5486   2.684   0.483   2.141
 1823SOL    HW2 5487   2.583   0.606   2.179
 1824SOL     OW 5488   3.519   0.604   3.068
 1824SOL    HW1 5489   3.481   0.535   3.130
 1824SOL    HW2 5490   3.601   0.568   3.024
 1825SOL     OW 5491   2.114   1.564   3.606
 1825SOL    HW1 5492   2.084   1.621   3.682
 1825SOL    HW2 5493   2.107   1.467   3.632
 1826SOL     OW 5494   2.533   0.464   3.131
 1826SOL    HW1 5495   2.499   0.375   3.101
 1826SOL    HW2 5496   2.559   0.518   3.051
 1827SOL     OW 5497   2.792   1.678   3.327
 1827SOL    HW1 5498   2.768   1.660   3.232
 1827SOL    HW2 5499   2.822   1.772   3.337
 1828SOL     OW 5500   2.335   0.500   2.053
 1828SOL    HW1 5501   2.396   0.580   2.057
 1828SOL    HW2 5502   2.240   0.531   2.060
 1829SOL     OW 5503   2.021   1.137   3.328
 1829SOL    HW1 5504   2.043   1.076   3.404
 1829SOL    HW2 5505   2.031   1.088   3.242
 1830SOL     OW 5506   3.209   1.059   3.096
 1830SOL    HW1 5507   3.233   0.996   3.022
 1830SOL    HW2 5508   3.119   1.099   3.078
 1831SOL     OW 5509   3.164   0.855   2.171
 1831SOL    HW1 5510   3.078   0.824   2.213
 1831SOL    HW2 5511   3.160   0.841   2.072
 1832SOL     OW 5512   3.621   1.747   3.016
 1832SOL    HW1 5513   3.682   1.777   2.943
 1832SOL    HW2 5514   3.583   1.658   2.994
 1833SOL     OW 5515   3.114   1.731   2.990
 1833SOL    HW1 5516   3.198   1.736   2.936
 1833SOL    HW2 5517   3.091   1.635   3.008
 1834SOL     OW 5518   1.945   1.258   2.884
 1834SOL    HW1 5519   1.940   1.257   2.984
 1834SOL    HW2 5520   1.862   1.217   2.846
 1835SOL     OW 5521   2.550   1.662   3.578
 1835SOL    HW1 5522   2.494   1.743   3.587
 1835SOL    HW2 5523   2.602   1.666   3.492
 1836SOL     OW 5524   3.588   0.135   2.385
 1836SOL    HW1 5525   3.661   0.118   2.318
 1836SOL    HW2 5526   3.557   0.048   2.423
 1837SOL     OW 5527   3.250   1.573   2.339
 1837SOL    HW1 5528   3.317   1.585   2.265
 1837SOL    HW2 5529   3.210   1.662   2.362
 1838SOL     OW 5530   1.992   1.794   3.713
 1838SOL    HW1 5531   1.951   1.720   3.766
 1838SOL    HW2 5532   2.056   1.845   3.771
 1839SOL     OW 5533   3.142   0.927   2.534
 1839SOL    HW1 5534   3.202   0.846   2.536
 1839SOL    HW2 5535   3.182   0.996   2.474
 1840SOL     OW 5536   2.692   1.273   3.284
 1840SOL    HW1 5537   2.687   1.306   3.379
 1840SOL    HW2 5538   2.606   1.292   3.238
 1841SOL     OW 5539   2.534   1.616   2.016
 1841SOL    HW1 5540   2.543   1.626   1.917
 1841SOL    HW2 5541   2.494   1.527   2.037
 1842SOL     OW 5542   3.512   1.720   3.256
 1842SOL    HW1 5543   3.565   1.730   3.172
 1842SOL    HW2 5544   3.485   1.810   3.290
 1843SOL     OW 5545   3.703   0.175   2.825
 1843SOL    HW1 5546   3.742   0.090   2.789
 1843SOL    HW2 5547   3.605   0.177   2.806
 1844SOL     OW 5548   2.125   0.326   2.582
 1844SOL    HW1 5549   2.046   0.377   2.548
 1844SOL    HW2 5550   2.116   0.311   2.680
 1845SOL     OW 5551   3.056   1.612   1.893
 1845SOL    HW1 5552   3.062   1.519   1.930
 1845SOL    HW2 5553   2.997   1.612   1.813
 1846SOL     OW 5554   2.684   1.002   3.234
 1846SOL    HW1 5555   2.724   1.001   3.142
 1846SOL    HW2 5556   2.694   1.094   3.274
 1847SOL     OW 5557   2.778   0.910   2.153
 1847SOL    HW1 5558   2.841   0.948   2.085
 1847SOL    HW2 5559   2.818   0.827   2.192
 1848SOL     OW 5560   3.366   1.607   1.906
 1848SOL    HW1 5561   3.274   1.644   1.913
 1848SOL    HW2 5562   3.404   1.627   1.816
 1849SOL     OW 5563   2.234   1.288   3.352
 1849SOL    HW1 5564   2.221   1.381   3.318
 1849SOL    HW2 5565   2.150   1.236   3.339
 1850SOL     OW 5566   3.476   1.292   3.151
 1850SOL    HW1 5567   3.536   1.295   3.231
 1850SOL    HW2 5568   3.401   1.356   3.164
 1851SOL     OW 5569   2.901   1.098   2.558
 1851SOL    HW1 5570   2.831   1.051   2.612
 1851SOL    HW2 5571   2.960   1.030   2.515
 1852SOL     OW 5572   2.876   0.236   2.833
 1852SOL    HW1 5573   2.868   0.200   2.740
 1852SOL    HW2 5574   2.874   0.160   2.898
 1853SOL     OW 5575   2.452   1.487   2.353
 1853SOL    HW1 5576   2.494   1.429   2.283
 1853SOL    HW2 5577   2.408   1.566   2.309
 1854SOL     OW 5578   3.571   0.385   3.243
 1854SOL    HW1 5579   3.644   0.454   3.247
 1854SOL    HW2 5580   3.599   0.310   3.184
 1855SOL     OW 5581   2.117   1.348   2.152
 1855SOL    HW1 5582   2.021   1.349   2.125
 1855SOL    HW2 5583   2.129   1.401   2.236
 1856SOL     OW 5584   1.967   1.013   3.588
 1856SOL    HW1 5585   1.890   0.980   3.642
 1856SOL    HW2 5586   2.052   0.983   3.630
 1857SOL     OW 5587   2.534   0.203   3.351
 1857SOL    HW1 5588   2.624   0.187   3.311
 1857SOL    HW2 5589   2.542   0.208   3.450
 1858SOL     OW 5590   1.937   0.345   1.895
 1858SOL    HW1 5591   1.845   0.317   1.866
 1858SOL    HW2 5592   1.968   0.422   1.839
 1859SOL     OW 5593   3.302   0.856   3.260
 1859SOL    HW1 5594   3.245   0.908   3.197
 1859SOL    HW2 5595   3.398   0.868   3.236
 1860SOL     OW 5596   1.934   0.166   2.180
 1860SOL    HW1 5597   1.917   0.249   2.126
 1860SOL    HW2 5598   2.024   0.129   2.158
 1861SOL     OW 5599   3.045   1.335   1.981
 1861SOL    HW1 5600   2.946   1.324   1.983
 1861SOL    HW2 5601   3.079   1.350   2.074
 1862SOL     OW 5602   2.475   0.842   3.293
 1862SOL    HW1 5603   2.531   0.923   3.276
 1862SOL    HW2 5604   2.534   0.762   3.296
 1863SOL     OW 5605   3.355   1.767   2.821
 1863SOL    HW1 5606   3.388   1.831   2.752
 1863SOL    HW2 5607   3.421   1.761   2.896
 1864SOL     OW 5608   2.578   0.565   3.570
 1864SOL    HW1 5609   2.597   0.630   3.644
 1864SOL    HW2 5610   2.638   0.485   3.579
 1865SOL     OW 5611   3.312   1.220   3.495
 1865SOL    HW1 5612   3.303   1.210   3.594
 1865SOL    HW2 5613   3.408   1.213   3.469
 1866SOL     OW 5614   2.252   1.741   3.422
 1866SOL    HW1 5615   2.161   1.782   3.420
 1866SOL    HW2 5616   2.245   1.647   3.454
 1867SOL     OW 5617   3.536   0.883   3.116
 1867SOL    HW1 5618   3.509   0.794   3.079
 1867SOL    HW2 5619   3.537   0.951   3.043
 1868SOL     OW 5620   3.087   0.325   2.311
 1868SOL    HW1 5621   3.152   0.251   2.300
 1868SOL    HW2 5622   3.107   0.375   2.395
 1869SOL     OW 5623   2.456   0.745   2.514
 1869SOL    HW1 5624   2.506   0.830   2.495
 1869SOL    HW2 5625   2.368   0.747   2.466
 1870SOL     OW 5626   3.639   0.342   3.504
 1870SOL    HW1 5627   3.622   0.373   3.410
 1870SOL    HW2 5628   3.555   0.305   3.542
 1871SOL     OW 5629   3.592   0.934   3.379
 1871SOL    HW1 5630   3.630   1.025   3.394
 1871SOL    HW2 5631   3.584   0.917   3.280
 1872SOL     OW 5632   2.721   1.374   1.878
 1872SOL    HW1 5633   2.675   1.389   1.966
 1872SOL    HW2 5634   2.765   1.459   1.848
 1873SOL     OW 5635   2.523   1.790   2.815
 1873SOL    HW1 5636   2.477   1.878   2.802
 1873SOL    HW2 5637   2.622   1.802   2.808
 1874SOL     OW 5638   2.721   0.956   2.723
 1874SOL    HW1 5639   2.775   0.887   2.771
 1874SOL    HW2 5640   2.689   1.025   2.789
 1875SOL     OW 5641   2.945   0.984   1.949
 1875SOL    HW1 5642   2.922   1.037   1.867
 1875SOL    HW2 5643   3.026   0.928   1.930
 1876SOL     OW 5644   3.723   1.569   2.713
 1876SOL    HW1 5645   3.652   1.557   2.643
 1876SOL    HW2 5646   3.724   1.490   2.773
 1877SOL     OW 5647   2.083   1.314   3.706
 1877SOL    HW1 5648   2.018   1.241   3.685
 1877SOL    HW2 5649   2.087   1.328   3.804
 1878SOL     OW 5650   1.941   1.240   2.515
 1878SOL    HW1 5651   1.940   1.193   2.603
 1878SOL    HW2 5652   2.023   1.212   2.464
 1879SOL     OW 5653   2.534   1.391   3.486
 1879SOL    HW1 5654   2.456   1.341   3.524
 1879SOL    HW2 5655   2.531   1.486   3.517
 1880SOL     OW 5656   3.686   0.192   3.089
 1880SOL    HW1 5657   3.682   0.102   3.133
 1880SOL    HW2 5658   3.689   0.181   2.990
 1881SOL     OW 5659   2.290   0.424   2.382
 1881SOL    HW1 5660   2.320   0.352   2.320
 1881SOL    HW2 5661   2.251   0.384   2.465
 1882SOL     OW 5662   3.567   1.487   2.966
 1882SOL    HW1 5663   3.474   1.462   2.939
 1882SOL    HW2 5664   3.593   1.437   3.048
 1883SOL     OW 5665   2.179   0.547   3.142
 1883SOL    HW1 5666   2.217   0.488   3.214
 1883SOL    HW2 5667   2.219   0.521   3.054
 1884SOL     OW 5668   2.674   1.586   2.549
 1884SOL    HW1 5669   2.706   1.596   2.455
 1884SOL    HW2 5670   2.595   1.524   2.551
 1885SOL     OW 5671   3.286   0.214   2.974
 1885SOL    HW1 5672   3.338   0.149   3.029
 1885SOL    HW2 5673   3.237   0.277   3.035
 1886SOL     OW 5674   2.863   0.034   3.016
 1886SOL    HW1 5675   2.800  -0.038   2.985
 1886SOL    HW2 5676   2.956  -0.002   3.016
 1887SOL     OW 5677   2.632   1.330   2.163
 1887SOL    HW1 5678   2.586   1.243   2.180
 1887SOL    HW2 5679   2.723   1.327   2.204
 1888SOL     OW 5680   2.480   1.567   3.146
 1888SOL    HW1 5681   2.475   1.649   3.203
 1888SOL    HW2 5682   2.569   1.564   3.101
 1889SOL     OW 5683   3.214   0.052   2.030
 1889SOL    HW1 5684   3.249   0.011   1.946
 1889SOL    HW2 5685   3.124   0.014   2.050
 1890SOL     OW 5686   3.162   0.453   2.553
 1890SOL    HW1 5687   3.103   0.533   2.557
 1890SOL    HW2 5688   3.177   0.418   2.646
 1891SOL     OW 5689   3.455   0.221   2.744
 1891SOL    HW1 5690   3.371   0.220   2.798
 1891SOL    HW2 5691   3.457   0.304   2.688
 1892SOL     OW 5692   1.901   1.077   2.162
 1892SOL    HW1 5693   2.000   1.066   2.153
 1892SOL    HW2 5694   1.861   0.991   2.194
 1893SOL     OW 5695   2.737   1.646   2.199
 1893SOL    HW1 5696   2.660   1.611   2.145
 1893SOL    HW2 5697   2.705   1.717   2.261
 1894SOL     OW 5698   2.092   0.628   3.837
 1894SOL    HW1 5699   1.999   0.626   3.874
 1894SOL    HW2 5700   2.093   0.589   3.745
 1895SOL     OW 5701   2.087   0.275   4.720
 1895SOL    HW1 5702   2.122   0.258   4.812
 1895SOL    HW2 5703   1.999   0.230   4.708
 1896SOL     OW 5704   1.881   0.368   4.371
 1896SOL    HW1 5705   1.799   0.411   4.410
 1896SOL    HW2 5706   1.853   0.295   4.308
 1897SOL     OW 5707   3.417   1.511   4.427
 1897SOL    HW1 5708   3.360   1.495   4.508
 1897SOL    HW2 5709   3.358   1.521   4.347
 1898SOL     OW 5710   2.997   0.703   4.441
 1898SOL    HW1 5711   3.054   0.781   4.416
 1898SOL    HW2 5712   2.937   0.729   4.517
 1899SOL     OW 5713   3.617   0.607   3.955
 1899SOL    HW1 5714   3.605   0.594   3.856
 1899SOL    HW2 5715   3.587   0.526   4.004
 1900SOL     OW 5716   2.630   1.144   4.747
 1900SOL    HW1 5717   2.552   1.161   4.807
 1900SOL    HW2 5718   2.664   1.231   4.711
 1901SOL     OW 5719   2.547   1.012   4.389
 1901SOL    HW1 5720   2.616   0.996   4.459
 1901SOL    HW2 5721   2.474   1.069   4.427
 1902SOL     OW 5722   2.197   1.435   4.785
 1902SOL    HW1 5723   2.119   1.404   4.732
 1902SOL    HW2 5724   2.255   1.493   4.728
 1903SOL     OW 5725   3.465   0.447   4.461
 1903SOL    HW1 5726   3.391   0.493   4.411
 1903SOL    HW2 5727   3.516   0.515   4.514
 1904SOL     OW 5728   2.093   1.713   4.207
 1904SOL    HW1 5729   2.127   1.790   4.261
 1904SOL    HW2 5730   2.137   1.713   4.117
 1905SOL     OW 5731   2.092   1.434   4.262
 1905SOL    HW1 5732   2.066   1.530   4.262
 1905SOL    HW2 5733   2.021   1.380   4.307
 1906SOL     OW 5734   2.102   1.091   4.610
 1906SOL    HW1 5735   2.116   1.007   4.662
 1906SOL    HW2 5736   2.047   1.155   4.665
 1907SOL     OW 5737   2.468   0.964   3.847
 1907SOL    HW1 5738   2.475   1.048   3.793
 1907SOL    HW2 5739   2.514   0.977   3.935
 1908SOL     OW 5740   1.984   0.643   4.287
 1908SOL    HW1 5741   1.939   0.555   4.304
 1908SOL    HW2 5742   1.983   0.697   4.371
 1909SOL     OW 5743   3.704   1.767   4.083
 1909SOL    HW1 5744   3.758   1.738   4.163
 1909SOL    HW2 5745   3.734   1.857   4.054
 1910SOL     OW 5746   1.889   1.596   3.841
 1910SOL    HW1 5747   1.870   1.500   3.862
 1910SOL    HW2 5748   1.856   1.654   3.916
 1911SOL     OW 5749   3.551   0.922   4.336
 1911SOL    HW1 5750   3.646   0.893   4.344
 1911SOL    HW2 5751   3.543   0.987   4.261
 1912SOL     OW 5752   3.503   1.108   4.156
 1912SOL    HW1 5753   3.589   1.110   4.104
 1912SOL    HW2 5754   3.517   1.155   4.244
 1913SOL     OW 5755   2.475   1.365   4.450
 1913SOL    HW1 5756   2.426   1.278   4.459
 1913SOL    HW2 5757   2.452   1.408   4.363
 1914SOL     OW 5758   2.671   0.004   4.226
 1914SOL    HW1 5759   2.711   0.095   4.217
 1914SOL    HW2 5760   2.571   0.012   4.232
 1915SOL     OW 5761   2.059   0.976   4.988
 1915SOL    HW1 5762   2.148   0.931   4.974
 1915SOL    HW2 5763   1.986   0.911   4.969
 1916SOL     OW 5764   3.387   0.999   3.914
 1916SOL    HW1 5765   3.324   0.923   3.927
 1916SOL    HW2 5766   3.435   1.017   4.000
 1917SOL     OW 5767   3.328   1.417   4.677
 1917SOL    HW1 5768   3.269   1.423   4.757
 1917SOL    HW2 5769   3.313   1.329   4.631
 1918SOL     OW 5770   3.529   1.714   4.296
 1918SOL    HW1 5771   3.488   1.691   4.208
 1918SOL    HW2 5772   3.511   1.640   4.361
 1919SOL     OW 5773   2.460   0.729   3.994
 1919SOL    HW1 5774   2.484   0.798   3.926
 1919SOL    HW2 5775   2.382   0.762   4.048
 1920SOL     OW 5776   3.143   0.345   4.668
 1920SOL    HW1 5777   3.057   0.295   4.655
 1920SOL    HW2 5778   3.205   0.291   4.724
 1921SOL     OW 5779   3.438   1.662   4.031
 1921SOL    HW1 5780   3.527   1.708   4.034
 1921SOL    HW2 5781   3.417   1.638   3.936
 1922SOL     OW 5782   2.903   0.701   4.153
 1922SOL    HW1 5783   2.929   0.697   4.249
 1922SOL    HW2 5784   2.818   0.650   4.139
 1923SOL     OW 5785   1.938   0.811   4.513
 1923SOL    HW1 5786   2.037   0.799   4.522
 1923SOL    HW2 5787   1.914   0.906   4.534
 1924SOL     OW 5788   2.727   0.348   3.919
 1924SOL    HW1 5789   2.786   0.411   3.870
 1924SOL    HW2 5790   2.746   0.254   3.890
 1925SOL     OW 5791   3.224   1.144   4.269
 1925SOL    HW1 5792   3.307   1.115   4.221
 1925SOL    HW2 5793   3.175   1.211   4.213
 1926SOL     OW 5794   2.412   0.196   4.609
 1926SOL    HW1 5795   2.407   0.191   4.709
 1926SOL    HW2 5796   2.414   0.292   4.580
 1927SOL     OW 5797   2.870   1.456   4.201
 1927SOL    HW1 5798   2.824   1.528   4.149
 1927SOL    HW2 5799   2.866   1.476   4.299
 1928SOL     OW 5800   2.213   1.801   4.577
 1928SOL    HW1 5801   2.263   1.715   4.583
 1928SOL    HW2 5802   2.278   1.878   4.574
 1929SOL     OW 5803   3.657   1.066   4.597
 1929SOL    HW1 5804   3.595   1.051   4.521
 1929SOL    HW2 5805   3.605   1.077   4.682
 1930SOL     OW 5806   2.183   0.943   3.966
 1930SOL    HW1 5807   2.265   0.982   3.924
 1930SOL    HW2 5808   2.156   0.861   3.917
 1931SOL     OW 5809   3.320   0.735   4.452
 1931SOL    HW1 5810   3.315   0.670   4.527
 1931SOL    HW2 5811   3.400   0.794   4.465
 1932SOL     OW 5812   2.973   1.776   3.961
 1932SOL    HW1 5813   2.913   1.714   4.011
 1932SOL    HW2 5814   3.004   1.732   3.876
 1933SOL     OW 5815   3.494   1.377   3.805
 1933SOL    HW1 5816   3.462   1.471   3.795
 1933SOL    HW2 5817   3.418   1.314   3.793
 1934SOL     OW 5818   2.326   1.743   4.047
 1934SOL    HW1 5819   2.359   1.782   4.133
 1934SOL    HW2 5820   2.402   1.736   3.982
 1935SOL     OW 5821   3.262   0.107   4.150
 1935SOL    HW1 5822   3.238   0.070   4.060
 1935SOL    HW2 5823   3.361   0.123   4.154
 1936SOL     OW 5824   2.111   1.785   4.965
 1936SOL    HW1 5825   2.168   1.720   5.015
 1936SOL    HW2 5826   2.095   1.752   4.872
 1937SOL     OW 5827   2.802   1.698   4.628
 1937SOL    HW1 5828   2.882   1.641   4.649
 1937SOL    HW2 5829   2.753   1.658   4.551
 1938SOL     OW 5830   2.244   0.700   4.204
 1938SOL    HW1 5831   2.289   0.610   4.201
 1938SOL    HW2 5832   2.150   0.689   4.237
 1939SOL     OW 5833   2.476   0.122   3.841
 1939SOL    HW1 5834   2.574   0.100   3.848
 1939SOL    HW2 5835   2.445   0.105   3.748
 1940SOL     OW 5836   2.665   1.402   4.648
 1940SOL    HW1 5837   2.755   1.416   4.606
 1940SOL    HW2 5838   2.594   1.404   4.577
 1941SOL     OW 5839   2.784   0.503   4.623
 1941SOL    HW1 5840   2.759   0.494   4.527
 1941SOL    HW2 5841   2.832   0.421   4.654
 1942SOL     OW 5842   2.401   0.064   4.236
 1942SOL    HW1 5843   2.320   0.065   4.294
 1942SOL    HW2 5844   2.404   0.147   4.181
 1943SOL     OW 5845   3.296   1.188   3.765
 1943SOL    HW1 5846   3.328   1.112   3.822
 1943SOL    HW2 5847   3.204   1.215   3.795
 1944SOL     OW 5848   2.159   0.035   3.895
 1944SOL    HW1 5849   2.208   0.119   3.874
 1944SOL    HW2 5850   2.221  -0.030   3.940
 1945SOL     OW 5851   2.797   0.236   4.204
 1945SOL    HW1 5852   2.749   0.277   4.126
 1945SOL    HW2 5853   2.896   0.234   4.185
 1946SOL     OW 5854   3.089   1.570   4.517
 1946SOL    HW1 5855   3.110   1.644   4.452
 1946SOL    HW2 5856   3.157   1.570   4.590
 1947SOL     OW 5857   2.321   1.152   4.465
 1947SOL    HW1 5858   2.250   1.125   4.530
 1947SOL    HW2 5859   2.295   1.124   4.372
 1948SOL     OW 5860   3.133   1.797   4.315
 1948SOL    HW1 5861   3.177   1.861   4.251
 1948SOL    HW2 5862   3.083   1.849   4.385
 1949SOL     OW 5863   2.894   0.549   3.740
 1949SOL    HW1 5864   2.853   0.631   3.701
 1949SOL    HW2 5865   2.958   0.575   3.813
 1950SOL     OW 5866   2.728   0.454   4.366
 1950SOL    HW1 5867   2.696   0.526   4.304
 1950SOL    HW2 5868   2.752   0.373   4.313
 1951SOL     OW 5869   2.879   0.039   4.477
 1951SOL    HW1 5870   2.807   0.044   4.408
 1951SOL    HW2 5871   2.855  -0.030   4.546
 1952SOL     OW 5872   3.291   1.173   4.591
 1952SOL    HW1 5873   3.236   1.089   4.584
 1952SOL    HW2 5874   3.317   1.202   4.499
 1953SOL     OW 5875   3.328   0.590   4.716
 1953SOL    HW1 5876   3.298   0.495   4.723
 1953SOL    HW2 5877   3.401   0.606   4.782
 1954SOL     OW 5878   3.719   0.833   4.101
 1954SOL    HW1 5879   3.761   0.769   4.165
 1954SOL    HW2 5880   3.681   0.782   4.023
 1955SOL     OW 5881   2.350   1.385   3.898
 1955SOL    HW1 5882   2.263   1.370   3.945
 1955SOL    HW2 5883   2.333   1.411   3.803
 1956SOL     OW 5884   3.526   1.280   4.381
 1956SOL    HW1 5885   3.625   1.288   4.395
 1956SOL    HW2 5886   3.481   1.364   4.412
 1957SOL     OW 5887   3.252   0.575   3.802
 1957SOL    HW1 5888   3.198   0.554   3.883
 1957SOL    HW2 5889   3.343   0.534   3.811
 1958SOL     OW 5890   2.389   0.256   4.052
 1958SOL    HW1 5891   2.416   0.197   3.977
 1958SOL    HW2 5892   2.389   0.351   4.021
 1959SOL     OW 5893   2.973   1.195   4.824
 1959SOL    HW1 5894   2.933   1.239   4.905
 1959SOL    HW2 5895   2.932   1.232   4.741
 1960SOL     OW 5896   3.500   1.099   4.803
 1960SOL    HW1 5897   3.505   1.180   4.862
 1960SOL    HW2 5898   3.414   1.101   4.752
 1961SOL     OW 5899   2.567   1.050   4.092
 1961SOL    HW1 5900   2.553   1.057   4.191
 1961SOL    HW2 5901   2.651   0.999   4.074
 1962SOL     OW 5902   2.272   0.813   4.975
 1962SOL    HW1 5903   2.358   0.825   5.025
 1962SOL    HW2 5904   2.230   0.726   5.002
 1963SOL     OW 5905   2.229   1.100   4.225
 1963SOL    HW1 5906   2.222   1.183   4.169
 1963SOL    HW2 5907   2.233   1.020   4.165
 1964SOL     OW 5908   2.428   0.537   4.589
 1964SOL    HW1 5909   2.440   0.603   4.515
 1964SOL    HW2 5910   2.474   0.571   4.672
 1965SOL     OW 5911   3.114   1.348   4.112
 1965SOL    HW1 5912   3.164   1.425   4.152
 1965SOL    HW2 5913   3.019   1.350   4.144
 1966SOL     OW 5914   3.444   0.639   4.196
 1966SOL    HW1 5915   3.413   0.700   4.269
 1966SOL    HW2 5916   3.494   0.691   4.127
 1967SOL     OW 5917   2.216   1.510   5.053
 1967SOL    HW1 5918   2.195   1.466   4.966
 1967SOL    HW2 5919   2.313   1.536   5.056
 1968SOL     OW 5920   2.435   0.870   4.753
 1968SOL    HW1 5921   2.479   0.959   4.744
 1968SOL    HW2 5922   2.372   0.870   4.830
 1969SOL     OW 5923   3.071   0.525   3.999
 1969SOL    HW1 5924   3.084   0.441   4.053
 1969SOL    HW2 5925   3.042   0.599   4.059
 1970SOL     OW 5926   2.594   0.634   4.788
 1970SOL    HW1 5927   2.653   0.608   4.712
 1970SOL    HW2 5928   2.566   0.730   4.777
 1971SOL     OW 5929   2.169   0.063   4.342
 1971SOL    HW1 5930   2.158   0.157   4.375
 1971SOL    HW2 5931   2.164   0.000   4.419
 1972SOL     OW 5932   3.484   0.367   4.098
 1972SOL    HW1 5933   3.486   0.291   4.162
 1972SOL    HW2 5934   3.436   0.444   4.138
 1973SOL     OW 5935   2.885   0.766   4.690
 1973SOL    HW1 5936   2.900   0.787   4.786
 1973SOL    HW2 5937   2.855   0.671   4.681
 1974SOL     OW 5938   3.402   0.274   3.849
 1974SOL    HW1 5939   3.341   0.199   3.872
 1974SOL    HW2 5940   3.424   0.326   3.932
 1975SOL     OW 5941   3.165   0.838   3.766
 1975SOL    HW1 5942   3.199   0.745   3.781
 1975SOL    HW2 5943   3.183   0.865   3.671
 1976SOL     OW 5944   2.930   1.333   4.573
 1976SOL    HW1 5945   2.937   1.249   4.518
 1976SOL    HW2 5946   2.992   1.402   4.537
 1977SOL     OW 5947   2.181   0.810   4.673
 1977SOL    HW1 5948   2.274   0.846   4.678
 1977SOL    HW2 5949   2.175   0.725   4.725
 1978SOL     OW 5950   2.201   0.509   4.730
 1978SOL    HW1 5951   2.149   0.426   4.713
 1978SOL    HW2 5952   2.278   0.514   4.666
 1979SOL     OW 5953   1.870   1.326   3.924
 1979SOL    HW1 5954   1.777   1.347   3.893
 1979SOL    HW2 5955   1.880   1.227   3.937
 1980SOL     OW 5956   1.950   1.801   4.651
 1980SOL    HW1 5957   1.908   1.715   4.624
 1980SOL    HW2 5958   2.044   1.804   4.617
 1981SOL     OW 5959   2.366   1.568   4.634
 1981SOL    HW1 5960   2.432   1.642   4.643
 1981SOL    HW2 5961   2.410   1.489   4.592
 1982SOL     OW 5962   2.864   0.796   4.962
 1982SOL    HW1 5963   2.905   0.764   5.048
 1982SOL    HW2 5964   2.768   0.769   4.959
 1983SOL     OW 5965   1.902   0.544   4.838
 1983SOL    HW1 5966   1.987   0.511   4.797
 1983SOL    HW2 5967   1.915   0.559   4.936
 1984SOL     OW 5968   2.677   0.572   4.049
 1984SOL    HW1 5969   2.684   0.483   4.003
 1984SOL    HW2 5970   2.583   0.606   4.041
 1985SOL     OW 5971   2.533   0.464   4.993
 1985SOL    HW1 5972   2.499   0.375   4.963
 1985SOL    HW2 5973   2.559   0.518   4.913
 1986SOL     OW 5974   2.335   0.500   3.915
 1986SOL    HW1 5975   2.396   0.580   3.919
 1986SOL    HW2 5976   2.240   0.531   3.922
 1987SOL     OW 5977   3.164   0.855   4.033
 1987SOL    HW1 5978   3.078   0.824   4.075
 1987SOL    HW2 5979   3.160   0.841   3.934
 1988SOL     OW 5980   3.621   1.747   4.878
 1988SOL    HW1 5981   3.682   1.777   4.805
 1988SOL    HW2 5982   3.583   1.658   4.856
 1989SOL     OW 5983   1.945   1.258   4.746
 1989SOL    HW1 5984   1.940   1.257   4.846
 1989SOL    HW2 5985   1.862   1.217   4.708
 1990SOL     OW 5986   3.588   0.135   4.247
 1990SOL    HW1 5987   3.661   0.118   4.180
 1990SOL    HW2 5988   3.557   0.048   4.285
 1991SOL     OW 5989   3.250   1.573   4.201
 1991SOL    HW1 5990   3.317   1.585   4.127
 1991SOL    HW2 5991   3.210   1.662   4.224
 1992SOL     OW 5992   3.142   0.927   4.396
 1992SOL    HW1 5993   3.202   0.846   4.398
 1992SOL    HW2 5994   3.182   0.996   4.336
 1993SOL     OW 5995   2.534   1.616   3.878
 1993SOL    HW1 5996   2.543   1.626   3.779
 1993SOL    HW2 5997   2.494   1.527   3.899
 1994SOL     OW 5998   3.703   0.175   4.687
 1994SOL    HW1 5999   3.742   0.090   4.651
 1994SOL    HW2 6000   3.605   0.177   4.668
 1995SOL     OW 6001   2.125   0.326   4.444
 1995SOL    HW1 6002   2.046   0.377   4.410
 1995SOL    HW2 6003   2.116   0.311   4.542
 1996SOL     OW 6004   3.056   1.612   3.755
 1996SOL    HW1 6005   3.062   1.519   3.792
 1996SOL    HW2 6006   2.997   1.612   3.675
 1997SOL     OW 6007   2.778   0.910   4.015
 1997SOL    HW1 6008   2.841   0.948   3.947
 1997SOL    HW2 6009   2.818   0.827   4.054
 1998SOL     OW 6010   3.366   1.607   3.768
 1998SOL    HW1 6011   3.274   1.644   3.775
 1998SOL    HW2 6012   3.404   1.627   3.678
 1999SOL     OW 6013   2.901   1.098   4.420
 1999SOL    HW1 6014   2.831   1.051   4.474
 1999SOL    HW2 6015   2.960   1.030   4.377
 2000SOL     OW 6016   2.876   0.236   4.695
 2000SOL    HW1 6017   2.868   0.200   4.602
 2000SOL    HW2 6018   2.874   0.160   4.760
 2001SOL     OW 6019   2.452   1.487   4.215
 2001SOL    HW1 6020   2.494   1.429   4.145
 2001SOL    HW2 6021   2.408   1.566   4.171
 2002SOL     OW 6022   2.117   1.348   4.014
 2002SOL    HW1 6023   2.021   1.349   3.987
 2002SOL    HW2 6024   2.129   1.401   4.098
 2003SOL     OW 6025   1.937   0.345   3.757
 2003SOL    HW1 6026   1.845   0.317   3.728
 2003SOL    HW2 6027   1.968   0.422   3.701
 2004SOL     OW 6028   1.934   0.166   4.042
 2004SOL    HW1 6029   1.917   0.249   3.988
 2004SOL    HW2 6030   2.024   0.129   4.020
 2005SOL     OW 6031   3.045   1.335   3.843
 2005SOL    HW1 6032   2.946   1.324   3.845
 2005SOL    HW2 6033   3.079   1.350   3.936
 2006SOL     OW 6034   3.355   1.767   4.683
 2006SOL    HW1 6035   3.388   1.831   4.614
 2006SOL    HW2 6036   3.421   1.761   4.758
 2007SOL     OW 6037   3.536   0.883   4.978
 2007SOL    HW1 6038   3.509   0.794   4.941
 2007SOL    HW2 6039   3.537   0.951   4.905
 2008SOL     OW 6040   3.087   0.325   4.173
 2008SOL    HW1 6041   3.152   0.251   4.162
 2008SOL    HW2 6042   3.107   0.375   4.257
 2009SOL     OW 6043   2.456   0.745   4.376
 2009SOL    HW1 6044   2.506   0.830   4.357
 2009SOL    HW2 6045   2.368   0.747   4.328
 2010SOL     OW 6046   2.721   1.374   3.740
 2010SOL    HW1 6047   2.675   1.389   3.828
 2010SOL    HW2 6048   2.765   1.459   3.710
 2011SOL     OW 6049   2.523   1.790   4.677
 2011SOL    HW1 6050   2.477   1.878   4.664
 2011SOL    HW2 6051   2.622   1.802   4.670
 2012SOL     OW 6052   2.721   0.956   4.585
 2012SOL    HW1 6053   2.775   0.887   4.633
 2012SOL    HW2 6054   2.689   1.025   4.651
 2013SOL     OW 6055   2.945   0.984   3.811
 2013SOL    HW1 6056   2.922   1.037   3.729
 2013SOL    HW2 6057   3.026   0.928   3.792
 2014SOL     OW 6058   3.723   1.569   4.575
 2014SOL    HW1 6059   3.652   1.557   4.505
 2014SOL    HW2 6060   3.724   1.490   4.635
 2015SOL     OW 6061   1.941   1.240   4.377
 2015SOL    HW1 6062   1.940   1.193   4.465
 2015SOL    HW2 6063   2.023   1.212   4.326
 2016SOL     OW 6064   3.686   0.192   4.951
 2016SOL    HW1 6065   3.682   0.102   4.995
 2016SOL    HW2 6066   3.689   0.181   4.852
 2017SOL     OW 6067   2.290   0.424   4.244
 2017SOL    HW1 6068   2.320   0.352   4.182
 2017SOL    HW2 6069   2.251   0.384   4.327
 2018SOL     OW 6070   2.674   1.586   4.411
 2018SOL    HW1 6071   2.706   1.596   4.317
 2018SOL    HW2 6072   2.595   1.524   4.413
 2019SOL     OW 6073   3.286   0.214   4.836
 2019SOL    HW1 6074   3.338   0.149   4.891
 2019SOL    HW2 6075   3.237   0.277   4.897
 2020SOL     OW 6076   2.632   1.330   4.025
 2020SOL    HW1 6077   2.586   1.243   4.042
 2020SOL    HW2 6078   2.723   1.327   4.066
 2021SOL     OW 6079   3.214   0.052   3.892
 2021SOL    HW1 6080   3.249   0.011   3.808
 2021SOL    HW2 6081   3.124   0.014   3.912
 2022SOL     OW 6082   3.162   0.453   4.415
 2022SOL    HW1 6083   3.103   0.533   4.419
 2022SOL    HW2 6084   3.177   0.418   4.508
 2023SOL     OW 6085   3.455   0.221   4.606
 2023SOL    HW1 6086   3.371   0.220   4.660
 2023SOL    HW2 6087   3.457   0.304   4.550
 2024SOL     OW 6088   1.901   1.077   4.024
 2024SOL    HW1 6089   2.000   1.066   4.015
 2024SOL    HW2 6090   1.861   0.991   4.056
 2025SOL     OW 6091   2.737   1.646   4.061
 2025SOL    HW1 6092   2.660   1.611   4.007
 2025SOL    HW2 6093   2.705   1.717   4.123
 2026SOL     OW 6094   2.092   2.490   0.113
 2026SOL    HW1 6095   1.999   2.488   0.150
 2026SOL    HW2 6096   2.093   2.451   0.021
 2027SOL     OW 6097   2.087   2.137   0.996
 2027SOL    HW1 6098   2.122   2.120   1.088
 2027SOL    HW2 6099   1.999   2.092   0.984
 2028SOL     OW 6100   1.881   2.230   0.647
 2028SOL    HW1 6101   1.799   2.273   0.686
 2028SOL    HW2 6102   1.853   2.157   0.584
 2029SOL     OW 6103   2.431   3.137   1.165
 2029SOL    HW1 6104   2.338   3.130   1.128
 2029SOL    HW2 6105   2.442   3.226   1.209
 2030SOL     OW 6106   3.417   3.373   0.703
 2030SOL    HW1 6107   3.360   3.357   0.784
 2030SOL    HW2 6108   3.358   3.383   0.623
 2031SOL     OW 6109   2.997   2.565   0.717
 2031SOL    HW1 6110   3.054   2.643   0.692
 2031SOL    HW2 6111   2.937   2.591   0.793
 2032SOL     OW 6112   3.617   2.469   0.231
 2032SOL    HW1 6113   3.605   2.456   0.132
 2032SOL    HW2 6114   3.587   2.388   0.280
 2033SOL     OW 6115   2.630   3.006   1.023
 2033SOL    HW1 6116   2.552   3.023   1.083
 2033SOL    HW2 6117   2.664   3.093   0.987
 2034SOL     OW 6118   2.712   2.660   1.823
 2034SOL    HW1 6119   2.708   2.736   1.888
 2034SOL    HW2 6120   2.734   2.696   1.732
 2035SOL     OW 6121   2.547   2.874   0.665
 2035SOL    HW1 6122   2.616   2.858   0.735
 2035SOL    HW2 6123   2.474   2.931   0.703
 2036SOL     OW 6124   2.548   3.023   1.803
 2036SOL    HW1 6125   2.608   3.102   1.817
 2036SOL    HW2 6126   2.462   3.054   1.762
 2037SOL     OW 6127   2.197   3.297   1.061
 2037SOL    HW1 6128   2.119   3.266   1.008
 2037SOL    HW2 6129   2.255   3.355   1.004
 2038SOL     OW 6130   3.322   3.367   1.339
 2038SOL    HW1 6131   3.346   3.461   1.365
 2038SOL    HW2 6132   3.306   3.313   1.421
 2039SOL     OW 6133   2.300   2.254   1.499
 2039SOL    HW1 6134   2.382   2.198   1.508
 2039SOL    HW2 6135   2.219   2.196   1.503
 2040SOL     OW 6136   3.465   2.309   0.737
 2040SOL    HW1 6137   3.391   2.355   0.687
 2040SOL    HW2 6138   3.516   2.377   0.790
 2041SOL     OW 6139   2.093   3.575   0.483
 2041SOL    HW1 6140   2.127   3.652   0.537
 2041SOL    HW2 6141   2.137   3.575   0.393
 2042SOL     OW 6142   2.989   3.203   1.690
 2042SOL    HW1 6143   3.036   3.203   1.778
 2042SOL    HW2 6144   2.941   3.116   1.679
 2043SOL     OW 6145   2.092   3.296   0.538
 2043SOL    HW1 6146   2.066   3.392   0.538
 2043SOL    HW2 6147   2.021   3.242   0.583
 2044SOL     OW 6148   2.102   2.953   0.886
 2044SOL    HW1 6149   2.116   2.869   0.938
 2044SOL    HW2 6150   2.047   3.017   0.941
 2045SOL     OW 6151   2.482   3.648   1.439
 2045SOL    HW1 6152   2.390   3.631   1.474
 2045SOL    HW2 6153   2.510   3.740   1.465
 2046SOL     OW 6154   2.468   2.826   0.123
 2046SOL    HW1 6155   2.475   2.910   0.069
 2046SOL    HW2 6156   2.514   2.839   0.211
 2047SOL     OW 6157   3.456   1.976   1.480
 2047SOL    HW1 6158   3.438   2.043   1.408
 2047SOL    HW2 6159   3.453   2.022   1.569
 2048SOL     OW 6160   1.984   2.505   0.563
 2048SOL    HW1 6161   1.939   2.417   0.580
 2048SOL    HW2 6162   1.983   2.559   0.647
 2049SOL     OW 6163   3.704   3.629   0.359
 2049SOL    HW1 6164   3.758   3.600   0.439
 2049SOL    HW2 6165   3.734   3.719   0.330
 2050SOL     OW 6166   1.889   3.458   0.117
 2050SOL    HW1 6167   1.870   3.362   0.138
 2050SOL    HW2 6168   1.856   3.516   0.192
 2051SOL     OW 6169   3.551   2.784   0.612
 2051SOL    HW1 6170   3.646   2.755   0.620
 2051SOL    HW2 6171   3.543   2.849   0.537
 2052SOL     OW 6172   3.503   2.970   0.432
 2052SOL    HW1 6173   3.589   2.972   0.380
 2052SOL    HW2 6174   3.517   3.017   0.520
 2053SOL     OW 6175   1.975   2.599   1.597
 2053SOL    HW1 6176   2.063   2.586   1.642
 2053SOL    HW2 6177   1.962   2.696   1.575
 2054SOL     OW 6178   2.475   3.227   0.726
 2054SOL    HW1 6179   2.426   3.140   0.735
 2054SOL    HW2 6180   2.452   3.270   0.639
 2055SOL     OW 6181   3.155   3.090   1.423
 2055SOL    HW1 6182   3.192   3.017   1.365
 2055SOL    HW2 6183   3.207   3.095   1.508
 2056SOL     OW 6184   2.671   1.866   0.502
 2056SOL    HW1 6185   2.711   1.957   0.493
 2056SOL    HW2 6186   2.571   1.874   0.508
 2057SOL     OW 6187   2.059   2.838   1.264
 2057SOL    HW1 6188   2.148   2.793   1.250
 2057SOL    HW2 6189   1.986   2.773   1.245
 2058SOL     OW 6190   3.387   2.861   0.190
 2058SOL    HW1 6191   3.324   2.785   0.203
 2058SOL    HW2 6192   3.435   2.879   0.276
 2059SOL     OW 6193   3.049   3.654   1.616
 2059SOL    HW1 6194   3.073   3.714   1.540
 2059SOL    HW2 6195   3.056   3.559   1.586
 2060SOL     OW 6196   2.179   2.113   1.801
 2060SOL    HW1 6197   2.250   2.184   1.807
 2060SOL    HW2 6198   2.091   2.152   1.829
 2061SOL     OW 6199   3.328   3.279   0.953
 2061SOL    HW1 6200   3.269   3.285   1.033
 2061SOL    HW2 6201   3.313   3.191   0.907
 2062SOL     OW 6202   3.529   3.576   0.572
 2062SOL    HW1 6203   3.488   3.553   0.484
 2062SOL    HW2 6204   3.511   3.502   0.637
 2063SOL     OW 6205   2.460   2.591   0.270
 2063SOL    HW1 6206   2.484   2.660   0.202
 2063SOL    HW2 6207   2.382   2.624   0.324
 2064SOL     OW 6208   3.143   2.207   0.944
 2064SOL    HW1 6209   3.057   2.157   0.931
 2064SOL    HW2 6210   3.205   2.153   1.000
 2065SOL     OW 6211   3.438   3.524   0.307
 2065SOL    HW1 6212   3.527   3.570   0.310
 2065SOL    HW2 6213   3.417   3.500   0.212
 2066SOL     OW 6214   2.669   2.467   1.465
 2066SOL    HW1 6215   2.622   2.464   1.554
 2066SOL    HW2 6216   2.618   2.412   1.399
 2067SOL     OW 6217   3.256   2.331   1.674
 2067SOL    HW1 6218   3.236   2.374   1.762
 2067SOL    HW2 6219   3.334   2.269   1.683
 2068SOL     OW 6220   2.835   2.752   1.572
 2068SOL    HW1 6221   2.881   2.668   1.543
 2068SOL    HW2 6222   2.779   2.786   1.497
 2069SOL     OW 6223   2.853   2.272   1.242
 2069SOL    HW1 6224   2.776   2.306   1.296
 2069SOL    HW2 6225   2.819   2.221   1.163
 2070SOL     OW 6226   2.903   2.563   0.429
 2070SOL    HW1 6227   2.929   2.559   0.525
 2070SOL    HW2 6228   2.818   2.512   0.415
 2071SOL     OW 6229   1.938   2.673   0.789
 2071SOL    HW1 6230   2.037   2.661   0.798
 2071SOL    HW2 6231   1.914   2.768   0.810
 2072SOL     OW 6232   1.992   3.683   1.571
 2072SOL    HW1 6233   1.982   3.668   1.670
 2072SOL    HW2 6234   1.906   3.719   1.535
 2073SOL     OW 6235   2.727   2.210   0.195
 2073SOL    HW1 6236   2.786   2.273   0.146
 2073SOL    HW2 6237   2.746   2.116   0.166
 2074SOL     OW 6238   3.581   2.447   1.831
 2074SOL    HW1 6239   3.555   2.536   1.795
 2074SOL    HW2 6240   3.579   2.379   1.758
 2075SOL     OW 6241   3.224   3.006   0.545
 2075SOL    HW1 6242   3.307   2.977   0.497
 2075SOL    HW2 6243   3.175   3.073   0.489
 2076SOL     OW 6244   2.412   2.058   0.885
 2076SOL    HW1 6245   2.407   2.053   0.985
 2076SOL    HW2 6246   2.414   2.154   0.856
 2077SOL     OW 6247   2.870   3.318   0.477
 2077SOL    HW1 6248   2.824   3.390   0.425
 2077SOL    HW2 6249   2.866   3.338   0.575
 2078SOL     OW 6250   2.213   3.663   0.853
 2078SOL    HW1 6251   2.263   3.577   0.859
 2078SOL    HW2 6252   2.278   3.740   0.850
 2079SOL     OW 6253   3.657   2.928   0.873
 2079SOL    HW1 6254   3.595   2.913   0.797
 2079SOL    HW2 6255   3.605   2.939   0.958
 2080SOL     OW 6256   3.089   3.412   1.506
 2080SOL    HW1 6257   3.095   3.335   1.570
 2080SOL    HW2 6258   3.037   3.386   1.426
 2081SOL     OW 6259   2.183   2.805   0.242
 2081SOL    HW1 6260   2.265   2.844   0.200
 2081SOL    HW2 6261   2.156   2.723   0.193
 2082SOL     OW 6262   3.320   2.597   0.728
 2082SOL    HW1 6263   3.315   2.532   0.803
 2082SOL    HW2 6264   3.400   2.656   0.741
 2083SOL     OW 6265   2.323   3.128   1.727
 2083SOL    HW1 6266   2.273   3.129   1.641
 2083SOL    HW2 6267   2.260   3.110   1.803
 2084SOL     OW 6268   2.973   3.638   0.237
 2084SOL    HW1 6269   2.913   3.576   0.287
 2084SOL    HW2 6270   3.004   3.594   0.152
 2085SOL     OW 6271   2.064   2.147   1.498
 2085SOL    HW1 6272   1.984   2.207   1.485
 2085SOL    HW2 6273   2.054   2.098   1.584
 2086SOL     OW 6274   3.494   3.239   0.081
 2086SOL    HW1 6275   3.462   3.333   0.071
 2086SOL    HW2 6276   3.418   3.176   0.069
 2087SOL     OW 6277   2.326   3.605   0.323
 2087SOL    HW1 6278   2.359   3.644   0.409
 2087SOL    HW2 6279   2.402   3.598   0.258
 2088SOL     OW 6280   3.262   1.969   0.426
 2088SOL    HW1 6281   3.238   1.932   0.336
 2088SOL    HW2 6282   3.361   1.985   0.430
 2089SOL     OW 6283   2.111   3.647   1.241
 2089SOL    HW1 6284   2.168   3.582   1.291
 2089SOL    HW2 6285   2.095   3.614   1.148
 2090SOL     OW 6286   2.802   3.560   0.904
 2090SOL    HW1 6287   2.882   3.503   0.925
 2090SOL    HW2 6288   2.753   3.520   0.827
 2091SOL     OW 6289   2.244   2.562   0.480
 2091SOL    HW1 6290   2.289   2.472   0.477
 2091SOL    HW2 6291   2.150   2.551   0.513
 2092SOL     OW 6292   3.409   2.084   1.729
 2092SOL    HW1 6293   3.404   2.121   1.821
 2092SOL    HW2 6294   3.337   2.015   1.717
 2093SOL     OW 6295   2.476   1.984   0.117
 2093SOL    HW1 6296   2.574   1.962   0.124
 2093SOL    HW2 6297   2.445   1.967   0.024
 2094SOL     OW 6298   2.643   2.126   1.749
 2094SOL    HW1 6299   2.710   2.065   1.792
 2094SOL    HW2 6300   2.570   2.145   1.814
 2095SOL     OW 6301   2.750   3.376   1.195
 2095SOL    HW1 6302   2.727   3.351   1.101
 2095SOL    HW2 6303   2.811   3.307   1.234
 2096SOL     OW 6304   3.213   2.452   1.433
 2096SOL    HW1 6305   3.241   2.409   1.518
 2096SOL    HW2 6306   3.238   2.548   1.434
 2097SOL     OW 6307   2.665   3.264   0.924
 2097SOL    HW1 6308   2.755   3.278   0.882
 2097SOL    HW2 6309   2.594   3.266   0.853
 2098SOL     OW 6310   2.784   2.365   0.899
 2098SOL    HW1 6311   2.759   2.356   0.803
 2098SOL    HW2 6312   2.832   2.283   0.930
 2099SOL     OW 6313   2.401   1.926   0.512
 2099SOL    HW1 6314   2.320   1.927   0.570
 2099SOL    HW2 6315   2.404   2.009   0.457
 2100SOL     OW 6316   3.296   3.050   0.041
 2100SOL    HW1 6317   3.328   2.974   0.098
 2100SOL    HW2 6318   3.204   3.077   0.071
 2101SOL     OW 6319   2.797   2.098   0.480
 2101SOL    HW1 6320   2.749   2.139   0.402
 2101SOL    HW2 6321   2.896   2.096   0.461
 2102SOL     OW 6322   2.938   2.545   1.464
 2102SOL    HW1 6323   2.858   2.484   1.467
 2102SOL    HW2 6324   3.019   2.492   1.440
 2103SOL     OW 6325   3.089   3.432   0.793
 2103SOL    HW1 6326   3.110   3.506   0.728
 2103SOL    HW2 6327   3.157   3.432   0.866
 2104SOL     OW 6328   2.321   3.014   0.741
 2104SOL    HW1 6329   2.250   2.987   0.806
 2104SOL    HW2 6330   2.295   2.986   0.648
 2105SOL     OW 6331   3.133   3.659   0.591
 2105SOL    HW1 6332   3.177   3.723   0.527
 2105SOL    HW2 6333   3.083   3.711   0.661
 2106SOL     OW 6334   2.894   2.411   0.016
 2106SOL    HW1 6335   2.853   2.493  -0.023
 2106SOL    HW2 6336   2.958   2.437   0.089
 2107SOL     OW 6337   1.940   2.418   1.386
 2107SOL    HW1 6338   2.032   2.417   1.345
 2107SOL    HW2 6339   1.934   2.492   1.453
 2108SOL     OW 6340   2.423   2.084   1.147
 2108SOL    HW1 6341   2.461   2.000   1.184
 2108SOL    HW2 6342   2.335   2.103   1.191
 2109SOL     OW 6343   2.728   2.316   0.642
 2109SOL    HW1 6344   2.696   2.388   0.580
 2109SOL    HW2 6345   2.752   2.235   0.589
 2110SOL     OW 6346   2.879   1.901   0.753
 2110SOL    HW1 6347   2.807   1.906   0.684
 2110SOL    HW2 6348   2.855   1.832   0.822
 2111SOL     OW 6349   3.291   3.035   0.867
 2111SOL    HW1 6350   3.236   2.951   0.860
 2111SOL    HW2 6351   3.317   3.064   0.775
 2112SOL     OW 6352   3.328   2.452   0.992
 2112SOL    HW1 6353   3.298   2.357   0.999
 2112SOL    HW2 6354   3.401   2.468   1.058
 2113SOL     OW 6355   3.719   2.695   0.377
 2113SOL    HW1 6356   3.761   2.631   0.441
 2113SOL    HW2 6357   3.681   2.644   0.299
 2114SOL     OW 6358   2.350   3.247   0.174
 2114SOL    HW1 6359   2.263   3.232   0.221
 2114SOL    HW2 6360   2.333   3.273   0.079
 2115SOL     OW 6361   3.526   3.142   0.657
 2115SOL    HW1 6362   3.625   3.150   0.671
 2115SOL    HW2 6363   3.481   3.226   0.688
 2116SOL     OW 6364   3.252   2.437   0.078
 2116SOL    HW1 6365   3.198   2.416   0.159
 2116SOL    HW2 6366   3.343   2.396   0.087
 2117SOL     OW 6367   2.389   2.118   0.328
 2117SOL    HW1 6368   2.416   2.059   0.253
 2117SOL    HW2 6369   2.389   2.213   0.297
 2118SOL     OW 6370   3.616   3.085   1.588
 2118SOL    HW1 6371   3.707   3.046   1.575
 2118SOL    HW2 6372   3.624   3.181   1.612
 2119SOL     OW 6373   2.926   3.209   1.340
 2119SOL    HW1 6374   2.846   3.186   1.395
 2119SOL    HW2 6375   3.009   3.183   1.389
 2120SOL     OW 6376   3.454   3.491   1.625
 2120SOL    HW1 6377   3.481   3.525   1.535
 2120SOL    HW2 6378   3.533   3.453   1.671
 2121SOL     OW 6379   2.973   3.057   1.100
 2121SOL    HW1 6380   2.933   3.101   1.181
 2121SOL    HW2 6381   2.932   3.094   1.017
 2122SOL     OW 6382   3.500   2.961   1.079
 2122SOL    HW1 6383   3.505   3.042   1.138
 2122SOL    HW2 6384   3.414   2.963   1.028
 2123SOL     OW 6385   2.777   1.951   1.402
 2123SOL    HW1 6386   2.802   1.931   1.307
 2123SOL    HW2 6387   2.849   2.007   1.444
 2124SOL     OW 6388   2.842   2.978   1.719
 2124SOL    HW1 6389   2.743   2.984   1.729
 2124SOL    HW2 6390   2.865   2.898   1.663
 2125SOL     OW 6391   2.567   2.912   0.368
 2125SOL    HW1 6392   2.553   2.919   0.467
 2125SOL    HW2 6393   2.651   2.861   0.350
 2126SOL     OW 6394   2.272   2.675   1.251
 2126SOL    HW1 6395   2.358   2.687   1.301
 2126SOL    HW2 6396   2.230   2.588   1.278
 2127SOL     OW 6397   3.136   2.248   1.262
 2127SOL    HW1 6398   3.157   2.322   1.326
 2127SOL    HW2 6399   3.047   2.265   1.219
 2128SOL     OW 6400   1.926   3.426   1.331
 2128SOL    HW1 6401   1.880   3.508   1.297
 2128SOL    HW2 6402   2.024   3.445   1.340
 2129SOL     OW 6403   2.229   2.962   0.501
 2129SOL    HW1 6404   2.222   3.045   0.445
 2129SOL    HW2 6405   2.233   2.882   0.441
 2130SOL     OW 6406   2.428   2.399   0.865
 2130SOL    HW1 6407   2.440   2.465   0.791
 2130SOL    HW2 6408   2.474   2.433   0.948
 2131SOL     OW 6409   3.114   3.210   0.388
 2131SOL    HW1 6410   3.164   3.287   0.428
 2131SOL    HW2 6411   3.019   3.212   0.420
 2132SOL     OW 6412   3.134   3.307   1.142
 2132SOL    HW1 6413   3.181   3.320   1.229
 2132SOL    HW2 6414   3.068   3.233   1.151
 2133SOL     OW 6415   3.444   2.501   0.472
 2133SOL    HW1 6416   3.413   2.562   0.545
 2133SOL    HW2 6417   3.494   2.553   0.403
 2134SOL     OW 6418   2.216   3.372   1.329
 2134SOL    HW1 6419   2.195   3.328   1.242
 2134SOL    HW2 6420   2.313   3.398   1.332
 2135SOL     OW 6421   2.264   2.613   1.598
 2135SOL    HW1 6422   2.332   2.668   1.551
 2135SOL    HW2 6423   2.304   2.525   1.625
 2136SOL     OW 6424   3.449   2.641   1.670
 2136SOL    HW1 6425   3.357   2.679   1.665
 2136SOL    HW2 6426   3.509   2.688   1.605
 2137SOL     OW 6427   2.875   1.967   1.770
 2137SOL    HW1 6428   2.881   2.052   1.718
 2137SOL    HW2 6429   2.907   1.891   1.713
 2138SOL     OW 6430   2.366   1.912   1.740
 2138SOL    HW1 6431   2.324   1.855   1.670
 2138SOL    HW2 6432   2.300   1.981   1.772
 2139SOL     OW 6433   2.435   2.732   1.029
 2139SOL    HW1 6434   2.479   2.821   1.020
 2139SOL    HW2 6435   2.372   2.732   1.106
 2140SOL     OW 6436   3.222   2.724   1.045
 2140SOL    HW1 6437   3.147   2.724   0.979
 2140SOL    HW2 6438   3.259   2.632   1.054
 2141SOL     OW 6439   3.071   2.387   0.275
 2141SOL    HW1 6440   3.084   2.303   0.329
 2141SOL    HW2 6441   3.042   2.461   0.335
 2142SOL     OW 6442   2.169   2.075   1.231
 2142SOL    HW1 6443   2.146   2.112   1.321
 2142SOL    HW2 6444   2.139   1.980   1.225
 2143SOL     OW 6445   1.899   3.172   1.282
 2143SOL    HW1 6446   1.952   3.123   1.350
 2143SOL    HW2 6447   1.921   3.270   1.287
 2144SOL     OW 6448   2.594   2.496   1.064
 2144SOL    HW1 6449   2.653   2.470   0.988
 2144SOL    HW2 6450   2.566   2.592   1.053
 2145SOL     OW 6451   3.590   2.797   1.854
 2145SOL    HW1 6452   3.544   2.790   1.765
 2145SOL    HW2 6453   3.528   2.841   1.920
 2146SOL     OW 6454   2.169   1.925   0.618
 2146SOL    HW1 6455   2.158   2.019   0.651
 2146SOL    HW2 6456   2.164   1.862   0.695
 2147SOL     OW 6457   3.484   2.229   0.374
 2147SOL    HW1 6458   3.486   2.153   0.438
 2147SOL    HW2 6459   3.436   2.306   0.414
 2148SOL     OW 6460   2.885   2.628   0.966
 2148SOL    HW1 6461   2.900   2.649   1.062
 2148SOL    HW2 6462   2.855   2.533   0.957
 2149SOL     OW 6463   2.842   3.435   1.700
 2149SOL    HW1 6464   2.822   3.479   1.612
 2149SOL    HW2 6465   2.881   3.344   1.684
 2150SOL     OW 6466   3.721   3.380   1.605
 2150SOL    HW1 6467   3.735   3.407   1.510
 2150SOL    HW2 6468   3.804   3.402   1.658
 2151SOL     OW 6469   2.212   2.760   1.804
 2151SOL    HW1 6470   2.288   2.804   1.852
 2151SOL    HW2 6471   2.247   2.713   1.722
 2152SOL     OW 6472   3.402   2.136   0.125
 2152SOL    HW1 6473   3.341   2.061   0.148
 2152SOL    HW2 6474   3.424   2.188   0.208
 2153SOL     OW 6475   3.165   2.700   0.042
 2153SOL    HW1 6476   3.199   2.607   0.057
 2153SOL    HW2 6477   3.183   2.727  -0.053
 2154SOL     OW 6478   2.930   3.195   0.849
 2154SOL    HW1 6479   2.937   3.111   0.794
 2154SOL    HW2 6480   2.992   3.264   0.813
 2155SOL     OW 6481   2.181   2.672   0.949
 2155SOL    HW1 6482   2.274   2.708   0.954
 2155SOL    HW2 6483   2.175   2.587   1.001
 2156SOL     OW 6484   2.201   2.371   1.006
 2156SOL    HW1 6485   2.149   2.288   0.989
 2156SOL    HW2 6486   2.278   2.376   0.942
 2157SOL     OW 6487   3.000   2.242   1.678
 2157SOL    HW1 6488   2.955   2.305   1.742
 2157SOL    HW2 6489   3.093   2.273   1.661
 2158SOL     OW 6490   3.022   2.069   1.477
 2158SOL    HW1 6491   3.022   2.133   1.554
 2158SOL    HW2 6492   3.050   2.117   1.394
 2159SOL     OW 6493   1.870   3.188   0.200
 2159SOL    HW1 6494   1.777   3.209   0.169
 2159SOL    HW2 6495   1.880   3.089   0.213
 2160SOL     OW 6496   1.950   3.663   0.927
 2160SOL    HW1 6497   1.908   3.577   0.900
 2160SOL    HW2 6498   2.044   3.666   0.893
 2161SOL     OW 6499   2.366   3.430   0.910
 2161SOL    HW1 6500   2.432   3.504   0.919
 2161SOL    HW2 6501   2.410   3.351   0.868
 2162SOL     OW 6502   2.864   2.658   1.238
 2162SOL    HW1 6503   2.905   2.626   1.324
 2162SOL    HW2 6504   2.768   2.631   1.235
 2163SOL     OW 6505   1.902   2.406   1.114
 2163SOL    HW1 6506   1.987   2.373   1.073
 2163SOL    HW2 6507   1.915   2.421   1.212
 2164SOL     OW 6508   2.051   2.382   1.722
 2164SOL    HW1 6509   2.110   2.342   1.652
 2164SOL    HW2 6510   1.993   2.453   1.681
 2165SOL     OW 6511   3.231   2.812   1.660
 2165SOL    HW1 6512   3.270   2.901   1.680
 2165SOL    HW2 6513   3.241   2.792   1.563
 2166SOL     OW 6514   2.677   2.434   0.325
 2166SOL    HW1 6515   2.684   2.345   0.279
 2166SOL    HW2 6516   2.583   2.468   0.317
 2167SOL     OW 6517   3.519   2.466   1.206
 2167SOL    HW1 6518   3.481   2.397   1.268
 2167SOL    HW2 6519   3.601   2.430   1.162
 2168SOL     OW 6520   2.114   3.426   1.744
 2168SOL    HW1 6521   2.084   3.483   1.820
 2168SOL    HW2 6522   2.107   3.329   1.770
 2169SOL     OW 6523   2.533   2.326   1.269
 2169SOL    HW1 6524   2.499   2.237   1.239
 2169SOL    HW2 6525   2.559   2.380   1.189
 2170SOL     OW 6526   2.792   3.540   1.465
 2170SOL    HW1 6527   2.768   3.522   1.370
 2170SOL    HW2 6528   2.822   3.634   1.475
 2171SOL     OW 6529   2.335   2.362   0.191
 2171SOL    HW1 6530   2.396   2.442   0.195
 2171SOL    HW2 6531   2.240   2.393   0.198
 2172SOL     OW 6532   2.021   2.999   1.466
 2172SOL    HW1 6533   2.043   2.938   1.542
 2172SOL    HW2 6534   2.031   2.950   1.380
 2173SOL     OW 6535   3.209   2.921   1.234
 2173SOL    HW1 6536   3.233   2.858   1.160
 2173SOL    HW2 6537   3.119   2.961   1.216
 2174SOL     OW 6538   3.164   2.717   0.309
 2174SOL    HW1 6539   3.078   2.686   0.351
 2174SOL    HW2 6540   3.160   2.703   0.210
 2175SOL     OW 6541   3.621   3.609   1.154
 2175SOL    HW1 6542   3.682   3.639   1.081
 2175SOL    HW2 6543   3.583   3.520   1.132
 2176SOL     OW 6544   3.114   3.593   1.128
 2176SOL    HW1 6545   3.198   3.598   1.074
 2176SOL    HW2 6546   3.091   3.497   1.146
 2177SOL     OW 6547   1.945   3.120   1.022
 2177SOL    HW1 6548   1.940   3.119   1.122
 2177SOL    HW2 6549   1.862   3.079   0.984
 2178SOL     OW 6550   2.550   3.524   1.716
 2178SOL    HW1 6551   2.494   3.605   1.725
 2178SOL    HW2 6552   2.602   3.528   1.630
 2179SOL     OW 6553   2.765   1.948   0.133
 2179SOL    HW1 6554   2.816   1.949   0.047
 2179SOL    HW2 6555   2.821   1.906   0.204
 2180SOL     OW 6556   3.588   1.997   0.523
 2180SOL    HW1 6557   3.661   1.980   0.456
 2180SOL    HW2 6558   3.557   1.910   0.561
 2181SOL     OW 6559   3.250   3.435   0.477
 2181SOL    HW1 6560   3.317   3.447   0.403
 2181SOL    HW2 6561   3.210   3.524   0.500
 2182SOL     OW 6562   1.992   3.656   1.851
 2182SOL    HW1 6563   1.951   3.582   1.904
 2182SOL    HW2 6564   2.056   3.707   1.909
 2183SOL     OW 6565   3.142   2.789   0.672
 2183SOL    HW1 6566   3.202   2.708   0.674
 2183SOL    HW2 6567   3.182   2.858   0.612
 2184SOL     OW 6568   2.692   3.135   1.422
 2184SOL    HW1 6569   2.687   3.168   1.517
 2184SOL    HW2 6570   2.606   3.154   1.376
 2185SOL     OW 6571   2.534   3.478   0.154
 2185SOL    HW1 6572   2.543   3.488   0.055
 2185SOL    HW2 6573   2.494   3.389   0.175
 2186SOL     OW 6574   3.512   3.582   1.394
 2186SOL    HW1 6575   3.565   3.592   1.310
 2186SOL    HW2 6576   3.485   3.672   1.428
 2187SOL     OW 6577   3.703   2.037   0.963
 2187SOL    HW1 6578   3.742   1.952   0.927
 2187SOL    HW2 6579   3.605   2.039   0.944
 2188SOL     OW 6580   2.125   2.188   0.720
 2188SOL    HW1 6581   2.046   2.239   0.686
 2188SOL    HW2 6582   2.116   2.173   0.818
 2189SOL     OW 6583   3.056   3.474   0.031
 2189SOL    HW1 6584   3.062   3.381   0.068
 2189SOL    HW2 6585   2.997   3.474  -0.049
 2190SOL     OW 6586   2.684   2.864   1.372
 2190SOL    HW1 6587   2.724   2.863   1.280
 2190SOL    HW2 6588   2.694   2.956   1.412
 2191SOL     OW 6589   2.778   2.772   0.291
 2191SOL    HW1 6590   2.841   2.810   0.223
 2191SOL    HW2 6591   2.818   2.689   0.330
 2192SOL     OW 6592   3.366   3.469   0.044
 2192SOL    HW1 6593   3.274   3.506   0.051
 2192SOL    HW2 6594   3.404   3.489  -0.046
 2193SOL     OW 6595   2.234   3.150   1.490
 2193SOL    HW1 6596   2.221   3.243   1.456
 2193SOL    HW2 6597   2.150   3.098   1.477
 2194SOL     OW 6598   3.476   3.154   1.289
 2194SOL    HW1 6599   3.536   3.157   1.369
 2194SOL    HW2 6600   3.401   3.218   1.302
 2195SOL     OW 6601   2.901   2.960   0.696
 2195SOL    HW1 6602   2.831   2.913   0.750
 2195SOL    HW2 6603   2.960   2.892   0.653
 2196SOL     OW 6604   2.876   2.098   0.971
 2196SOL    HW1 6605   2.868   2.062   0.878
 2196SOL    HW2 6606   2.874   2.022   1.036
 2197SOL     OW 6607   2.452   3.349   0.491
 2197SOL    HW1 6608   2.494   3.291   0.421
 2197SOL    HW2 6609   2.408   3.428   0.447
 2198SOL     OW 6610   3.571   2.247   1.381
 2198SOL    HW1 6611   3.644   2.316   1.385
 2198SOL    HW2 6612   3.599   2.172   1.322
 2199SOL     OW 6613   2.117   3.210   0.290
 2199SOL    HW1 6614   2.021   3.211   0.263
 2199SOL    HW2 6615   2.129   3.263   0.374
 2200SOL     OW 6616   1.967   2.875   1.726
 2200SOL    HW1 6617   1.890   2.842   1.780
 2200SOL    HW2 6618   2.052   2.845   1.768
 2201SOL     OW 6619   2.534   2.065   1.489
 2201SOL    HW1 6620   2.624   2.049   1.449
 2201SOL    HW2 6621   2.542   2.070   1.588
 2202SOL     OW 6622   3.302   2.718   1.398
 2202SOL    HW1 6623   3.245   2.770   1.335
 2202SOL    HW2 6624   3.398   2.730   1.374
 2203SOL     OW 6625   1.934   2.028   0.318
 2203SOL    HW1 6626   1.917   2.111   0.264
 2203SOL    HW2 6627   2.024   1.991   0.296
 2204SOL     OW 6628   3.045   3.197   0.119
 2204SOL    HW1 6629   2.946   3.186   0.121
 2204SOL    HW2 6630   3.079   3.212   0.212
 2205SOL     OW 6631   2.475   2.704   1.431
 2205SOL    HW1 6632   2.531   2.785   1.414
 2205SOL    HW2 6633   2.534   2.624   1.434
 2206SOL     OW 6634   3.355   3.629   0.959
 2206SOL    HW1 6635   3.388   3.693   0.890
 2206SOL    HW2 6636   3.421   3.623   1.034
 2207SOL     OW 6637   2.578   2.427   1.708
 2207SOL    HW1 6638   2.597   2.492   1.782
 2207SOL    HW2 6639   2.638   2.347   1.717
 2208SOL     OW 6640   3.312   3.082   1.633
 2208SOL    HW1 6641   3.303   3.072   1.732
 2208SOL    HW2 6642   3.408   3.075   1.607
 2209SOL     OW 6643   2.252   3.603   1.560
 2209SOL    HW1 6644   2.161   3.644   1.558
 2209SOL    HW2 6645   2.245   3.509   1.592
 2210SOL     OW 6646   3.536   2.745   1.254
 2210SOL    HW1 6647   3.509   2.656   1.217
 2210SOL    HW2 6648   3.537   2.813   1.181
 2211SOL     OW 6649   3.087   2.187   0.449
 2211SOL    HW1 6650   3.152   2.113   0.438
 2211SOL    HW2 6651   3.107   2.237   0.533
 2212SOL     OW 6652   2.456   2.607   0.652
 2212SOL    HW1 6653   2.506   2.692   0.633
 2212SOL    HW2 6654   2.368   2.609   0.604
 2213SOL     OW 6655   3.639   2.204   1.642
 2213SOL    HW1 6656   3.622   2.235   1.548
 2213SOL    HW2 6657   3.555   2.167   1.680
 2214SOL     OW 6658   3.592   2.796   1.517
 2214SOL    HW1 6659   3.630   2.887   1.532
 2214SOL    HW2 6660   3.584   2.779   1.418
 2215SOL     OW 6661   2.721   3.236   0.016
 2215SOL    HW1 6662   2.675   3.251   0.104
 2215SOL    HW2 6663   2.765   3.321  -0.014
 2216SOL     OW 6664   2.523   3.652   0.953
 2216SOL    HW1 6665   2.477   3.740   0.940
 2216SOL    HW2 6666   2.622   3.664   0.946
 2217SOL     OW 6667   2.721   2.818   0.861
 2217SOL    HW1 6668   2.775   2.749   0.909
 2217SOL    HW2 6669   2.689   2.887   0.927
 2218SOL     OW 6670   2.945   2.846   0.087
 2218SOL    HW1 6671   2.922   2.899   0.005
 2218SOL    HW2 6672   3.026   2.790   0.068
 2219SOL     OW 6673   3.723   3.431   0.851
 2219SOL    HW1 6674   3.652   3.419   0.781
 2219SOL    HW2 6675   3.724   3.352   0.911
 2220SOL     OW 6676   2.083   3.176   1.844
 2220SOL    HW1 6677   2.018   3.103   1.823
 2220SOL    HW2 6678   2.087   3.190   1.942
 2221SOL     OW 6679   1.941   3.102   0.653
 2221SOL    HW1 6680   1.940   3.055   0.741
 2221SOL    HW2 6681   2.023   3.074   0.602
 2222SOL     OW 6682   2.534   3.253   1.624
 2222SOL    HW1 6683   2.456   3.203   1.662
 2222SOL    HW2 6684   2.531   3.348   1.655
 2223SOL     OW 6685   3.686   2.054   1.227
 2223SOL    HW1 6686   3.682   1.964   1.271
 2223SOL    HW2 6687   3.689   2.043   1.128
 2224SOL     OW 6688   2.290   2.286   0.520
 2224SOL    HW1 6689   2.320   2.214   0.458
 2224SOL    HW2 6690   2.251   2.246   0.603
 2225SOL     OW 6691   3.567   3.349   1.104
 2225SOL    HW1 6692   3.474   3.324   1.077
 2225SOL    HW2 6693   3.593   3.299   1.186
 2226SOL     OW 6694   2.179   2.409   1.280
 2226SOL    HW1 6695   2.217   2.350   1.352
 2226SOL    HW2 6696   2.219   2.383   1.192
 2227SOL     OW 6697   2.674   3.448   0.687
 2227SOL    HW1 6698   2.706   3.458   0.593
 2227SOL    HW2 6699   2.595   3.386   0.689
 2228SOL     OW 6700   3.286   2.076   1.112
 2228SOL    HW1 6701   3.338   2.011   1.167
 2228SOL    HW2 6702   3.237   2.139   1.173
 2229SOL     OW 6703   2.863   1.896   1.154
 2229SOL    HW1 6704   2.800   1.824   1.123
 2229SOL    HW2 6705   2.956   1.860   1.154
 2230SOL     OW 6706   2.632   3.192   0.301
 2230SOL    HW1 6707   2.586   3.105   0.318
 2230SOL    HW2 6708   2.723   3.189   0.342
 2231SOL     OW 6709   2.480   3.429   1.284
 2231SOL    HW1 6710   2.475   3.511   1.341
 2231SOL    HW2 6711   2.569   3.426   1.239
 2232SOL     OW 6712   3.214   1.914   0.168
 2232SOL    HW1 6713   3.249   1.873   0.084
 2232SOL    HW2 6714   3.124   1.876   0.188
 2233SOL     OW 6715   3.162   2.315   0.691
 2233SOL    HW1 6716   3.103   2.395   0.695
 2233SOL    HW2 6717   3.177   2.280   0.784
 2234SOL     OW 6718   3.455   2.083   0.882
 2234SOL    HW1 6719   3.371   2.082   0.936
 2234SOL    HW2 6720   3.457   2.166   0.826
 2235SOL     OW 6721   1.901   2.939   0.300
 2235SOL    HW1 6722   2.000   2.928   0.291
 2235SOL    HW2 6723   1.861   2.853   0.332
 2236SOL     OW 6724   2.737   3.508   0.337
 2236SOL    HW1 6725   2.660   3.473   0.283
 2236SOL    HW2 6726   2.705   3.579   0.399
 2237SOL     OW 6727   2.092   2.490   1.975
 2237SOL    HW1 6728   1.999   2.488   2.012
 2237SOL    HW2 6729   2.093   2.451   1.883
 2238SOL     OW 6730   2.087   2.137   2.858
 2238SOL    HW1 6731   2.122   2.120   2.950
 2238SOL    HW2 6732   1.999   2.092   2.846
 2239SOL     OW 6733   1.881   2.230   2.509
 2239SOL    HW1 6734   1.799   2.273   2.548
 2239SOL    HW2 6735   1.853   2.157   2.446
 2240SOL     OW 6736   2.431   3.137   3.027
 2240SOL    HW1 6737   2.338   3.130   2.990
 2240SOL    HW2 6738   2.442   3.226   3.071
 2241SOL     OW 6739   3.417   3.373   2.565
 2241SOL    HW1 6740   3.360   3.357   2.646
 2241SOL    HW2 6741   3.358   3.383   2.485
 2242SOL     OW 6742   2.997   2.565   2.579
 2242SOL    HW1 6743   3.054   2.643   2.554
 2242SOL    HW2 6744   2.937   2.591   2.655
 2243SOL     OW 6745   3.617   2.469   2.093
 2243SOL    HW1 6746   3.605   2.456   1.994
 2243SOL    HW2 6747   3.587   2.388   2.142
 2244SOL     OW 6748   2.630   3.006   2.885
 2244SOL    HW1 6749   2.552   3.023   2.945
 2244SOL    HW2 6750   2.664   3.093   2.849
 2245SOL     OW 6751   2.712   2.660   3.685
 2245SOL    HW1 6752   2.708   2.736   3.750
 2245SOL    HW2 6753   2.734   2.696   3.594
 2246SOL     OW 6754   2.547   2.874   2.527
 2246SOL    HW1 6755   2.616   2.858   2.597
 2246SOL    HW2 6756   2.474   2.931   2.565
 2247SOL     OW 6757   2.548   3.023   3.665
 2247SOL    HW1 6758   2.608   3.102   3.679
 2247SOL    HW2 6759   2.462   3.054   3.624
 2248SOL     OW 6760   2.197   3.297   2.923
 2248SOL    HW1 6761   2.119   3.266   2.870
 2248SOL    HW2 6762   2.255   3.355   2.866
 2249SOL     OW 6763   3.322   3.367   3.201
 2249SOL    HW1 6764   3.346   3.461   3.227
 2249SOL    HW2 6765   3.306   3.313   3.283
 2250SOL     OW 6766   2.300   2.254   3.361
 2250SOL    HW1 6767   2.382   2.198   3.370
 2250SOL    HW2 6768   2.219   2.196   3.365
 2251SOL     OW 6769   3.465   2.309   2.599
 2251SOL    HW1 6770   3.391   2.355   2.549
 2251SOL    HW2 6771   3.516   2.377   2.652
 2252SOL     OW 6772   2.093   3.575   2.345
 2252SOL    HW1 6773   2.127   3.652   2.399
 2252SOL    HW2 6774   2.137   3.575   2.255
 2253SOL     OW 6775   2.989   3.203   3.552
 2253SOL    HW1 6776   3.036   3.203   3.640
 2253SOL    HW2 6777   2.941   3.116   3.541
 2254SOL     OW 6778   2.092   3.296   2.400
 2254SOL    HW1 6779   2.066   3.392   2.400
 2254SOL    HW2 6780   2.021   3.242   2.445
 2255SOL     OW 6781   2.102   2.953   2.748
 2255SOL    HW1 6782   2.116   2.869   2.800
 2255SOL    HW2 6783   2.047   3.017   2.803
 2256SOL     OW 6784   2.482   3.648   3.301
 2256SOL    HW1 6785   2.390   3.631   3.336
 2256SOL    HW2 6786   2.510   3.740   3.327
 2257SOL     OW 6787   2.468   2.826   1.985
 2257SOL    HW1 6788   2.475   2.910   1.931
 2257SOL    HW2 6789   2.514   2.839   2.073
 2258SOL     OW 6790   3.456   1.976   3.342
 2258SOL    HW1 6791   3.438   2.043   3.270
 2258SOL    HW2 6792   3.453   2.022   3.431
 2259SOL     OW 6793   1.984   2.505   2.425
 2259SOL    HW1 6794   1.939   2.417   2.442
 2259SOL    HW2 6795   1.983   2.559   2.509
 2260SOL     OW 6796   3.704   3.629   2.221
 2260SOL    HW1 6797   3.758   3.600   2.301
 2260SOL    HW2 6798   3.734   3.719   2.192
 2261SOL     OW 6799   1.889   3.458   1.979
 2261SOL    HW1 6800   1.870   3.362   2.000
 2261SOL    HW2 6801   1.856   3.516   2.054
 2262SOL     OW 6802   3.551   2.784   2.474
 2262SOL    HW1 6803   3.646   2.755   2.482
 2262SOL    HW2 6804   3.543   2.849   2.399
 2263SOL     OW 6805   3.503   2.970   2.294
 2263SOL    HW1 6806   3.589   2.972   2.242
 2263SOL    HW2 6807   3.517   3.017   2.382
 2264SOL     OW 6808   1.975   2.599   3.459
 2264SOL    HW1 6809   2.063   2.586   3.504
 2264SOL    HW2 6810   1.962   2.696   3.437
 2265SOL     OW 6811   2.475   3.227   2.588
 2265SOL    HW1 6812   2.426   3.140   2.597
 2265SOL    HW2 6813   2.452   3.270   2.501
 2266SOL     OW 6814   3.155   3.090   3.285
 2266SOL    HW1 6815   3.192   3.017   3.227
 2266SOL    HW2 6816   3.207   3.095   3.370
 2267SOL     OW 6817   2.671   1.866   2.364
 2267SOL    HW1 6818   2.711   1.957   2.355
 2267SOL    HW2 6819   2.571   1.874   2.370
 2268SOL     OW 6820   2.059   2.838   3.126
 2268SOL    HW1 6821   2.148   2.793   3.112
 2268SOL    HW2 6822   1.986   2.773   3.107
 2269SOL     OW 6823   3.387   2.861   2.052
 2269SOL    HW1 6824   3.324   2.785   2.065
 2269SOL    HW2 6825   3.435   2.879   2.138
 2270SOL     OW 6826   3.049   3.654   3.478
 2270SOL    HW1 6827   3.073   3.714   3.402
 2270SOL    HW2 6828   3.056   3.559   3.448
 2271SOL     OW 6829   2.179   2.113   3.663
 2271SOL    HW1 6830   2.250   2.184   3.669
 2271SOL    HW2 6831   2.091   2.152   3.691
 2272SOL     OW 6832   3.328   3.279   2.815
 2272SOL    HW1 6833   3.269   3.285   2.895
 2272SOL    HW2 6834   3.313   3.191   2.769
 2273SOL     OW 6835   3.529   3.576   2.434
 2273SOL    HW1 6836   3.488   3.553   2.346
 2273SOL    HW2 6837   3.511   3.502   2.499
 2274SOL     OW 6838   3.143   2.207   2.806
 2274SOL    HW1 6839   3.057   2.157   2.793
 2274SOL    HW2 6840   3.205   2.153   2.862
 2275SOL     OW 6841   3.438   3.524   2.169
 2275SOL    HW1 6842   3.527   3.570   2.172
 2275SOL    HW2 6843   3.417   3.500   2.074
 2276SOL     OW 6844   2.669   2.467   3.327
 2276SOL    HW1 6845   2.622   2.464   3.416
 2276SOL    HW2 6846   2.618   2.412   3.261
 2277SOL     OW 6847   3.256   2.331   3.536
 2277SOL    HW1 6848   3.236   2.374   3.624
 2277SOL    HW2 6849   3.334   2.269   3.545
 2278SOL     OW 6850   2.835   2.752   3.434
 2278SOL    HW1 6851   2.881   2.668   3.405
 2278SOL    HW2 6852   2.779   2.786   3.359
 2279SOL     OW 6853   2.853   2.272   3.104
 2279SOL    HW1 6854   2.776   2.306   3.158
 2279SOL    HW2 6855   2.819   2.221   3.025
 2280SOL     OW 6856   2.903   2.563   2.291
 2280SOL    HW1 6857   2.929   2.559   2.387
 2280SOL    HW2 6858   2.818   2.512   2.277
 2281SOL     OW 6859   1.938   2.673   2.651
 2281SOL    HW1 6860   2.037   2.661   2.660
 2281SOL    HW2 6861   1.914   2.768   2.672
 2282SOL     OW 6862   1.992   3.683   3.433
 2282SOL    HW1 6863   1.982   3.668   3.532
 2282SOL    HW2 6864   1.906   3.719   3.397
 2283SOL     OW 6865   2.727   2.210   2.057
 2283SOL    HW1 6866   2.786   2.273   2.008
 2283SOL    HW2 6867   2.746   2.116   2.028
 2284SOL     OW 6868   3.581   2.447   3.693
 2284SOL    HW1 6869   3.555   2.536   3.657
 2284SOL    HW2 6870   3.579   2.379   3.620
 2285SOL     OW 6871   3.224   3.006   2.407
 2285SOL    HW1 6872   3.307   2.977   2.359
 2285SOL    HW2 6873   3.175   3.073   2.351
 2286SOL     OW 6874   2.870   3.318   2.339
 2286SOL    HW1 6875   2.824   3.390   2.287
 2286SOL    HW2 6876   2.866   3.338   2.437
 2287SOL     OW 6877   2.213   3.663   2.715
 2287SOL    HW1 6878   2.263   3.577   2.721
 2287SOL    HW2 6879   2.278   3.740   2.712
 2288SOL     OW 6880   3.657   2.928   2.735
 2288SOL    HW1 6881   3.595   2.913   2.659
 2288SOL    HW2 6882   3.605   2.939   2.820
 2289SOL     OW 6883   3.089   3.412   3.368
 2289SOL    HW1 6884   3.095   3.335   3.432
 2289SOL    HW2 6885   3.037   3.386   3.288
 2290SOL     OW 6886   3.320   2.597   2.590
 2290SOL    HW1 6887   3.315   2.532   2.665
 2290SOL    HW2 6888   3.400   2.656   2.603
 2291SOL     OW 6889   2.323   3.128   3.589
 2291SOL    HW1 6890   2.273   3.129   3.503
 2291SOL    HW2 6891   2.260   3.110   3.665
 2292SOL     OW 6892   2.973   3.638   2.099
 2292SOL    HW1 6893   2.913   3.576   2.149
 2292SOL    HW2 6894   3.004   3.594   2.014
 2293SOL     OW 6895   2.064   2.147   3.360
 2293SOL    HW1 6896   1.984   2.207   3.347
 2293SOL    HW2 6897   2.054   2.098   3.446
 2294SOL     OW 6898   3.494   3.239   1.943
 2294SOL    HW1 6899   3.462   3.333   1.933
 2294SOL    HW2 6900   3.418   3.176   1.931
 2295SOL     OW 6901   2.326   3.605   2.185
 2295SOL    HW1 6902   2.359   3.644   2.271
 2295SOL    HW2 6903   2.402   3.598   2.120
 2296SOL     OW 6904   3.262   1.969   2.288
 2296SOL    HW1 6905   3.238   1.932   2.198
 2296SOL    HW2 6906   3.361   1.985   2.292
 2297SOL     OW 6907   2.111   3.647   3.103
 2297SOL    HW1 6908   2.168   3.582   3.153
 2297SOL    HW2 6909   2.095   3.614   3.010
 2298SOL     OW 6910   2.802   3.560   2.766
 2298SOL    HW1 6911   2.882   3.503   2.787
 2298SOL    HW2 6912   2.753   3.520   2.689
 2299SOL     OW 6913   3.409   2.084   3.591
 2299SOL    HW1 6914   3.404   2.121   3.683
 2299SOL    HW2 6915   3.337   2.015   3.579
 2300SOL     OW 6916   2.476   1.984   1.979
 2300SOL    HW1 6917   2.574   1.962   1.986
 2300SOL    HW2 6918   2.445   1.967   1.886
 2301SOL     OW 6919   2.643   2.126   3.611
 2301SOL    HW1 6920   2.710   2.065   3.654
 2301SOL    HW2 6921   2.570   2.145   3.676
 2302SOL     OW 6922   2.750   3.376   3.057
 2302SOL    HW1 6923   2.727   3.351   2.963
 2302SOL    HW2 6924   2.811   3.307   3.096
 2303SOL     OW 6925   3.213   2.452   3.295
 2303SOL    HW1 6926   3.241   2.409   3.380
 2303SOL    HW2 6927   3.238   2.548   3.296
 2304SOL     OW 6928   2.665   3.264   2.786
 2304SOL    HW1 6929   2.755   3.278   2.744
 2304SOL    HW2 6930   2.594   3.266   2.715
 2305SOL     OW 6931   2.784   2.365   2.761
 2305SOL    HW1 6932   2.759   2.356   2.665
 2305SOL    HW2 6933   2.832   2.283   2.792
 2306SOL     OW 6934   2.401   1.926   2.374
 2306SOL    HW1 6935   2.320   1.927   2.432
 2306SOL    HW2 6936   2.404   2.009   2.319
 2307SOL     OW 6937   3.296   3.050   1.903
 2307SOL    HW1 6938   3.328   2.974   1.960
 2307SOL    HW2 6939   3.204   3.077   1.933
 2308SOL     OW 6940   2.159   1.897   2.033
 2308SOL    HW1 6941   2.208   1.981   2.012
 2308SOL    HW2 6942   2.221   1.832   2.078
 2309SOL     OW 6943   2.797   2.098   2.342
 2309SOL    HW1 6944   2.749   2.139   2.264
 2309SOL    HW2 6945   2.896   2.096   2.323
 2310SOL     OW 6946   2.938   2.545   3.326
 2310SOL    HW1 6947   2.858   2.484   3.329
 2310SOL    HW2 6948   3.019   2.492   3.302
 2311SOL     OW 6949   3.089   3.432   2.655
 2311SOL    HW1 6950   3.110   3.506   2.590
 2311SOL    HW2 6951   3.157   3.432   2.728
 2312SOL     OW 6952   2.321   3.014   2.603
 2312SOL    HW1 6953   2.250   2.987   2.668
 2312SOL    HW2 6954   2.295   2.986   2.510
 2313SOL     OW 6955   3.133   3.659   2.453
 2313SOL    HW1 6956   3.177   3.723   2.389
 2313SOL    HW2 6957   3.083   3.711   2.523
 2314SOL     OW 6958   2.894   2.411   1.878
 2314SOL    HW1 6959   2.853   2.493   1.839
 2314SOL    HW2 6960   2.958   2.437   1.951
 2315SOL     OW 6961   1.940   2.418   3.248
 2315SOL    HW1 6962   2.032   2.417   3.207
 2315SOL    HW2 6963   1.934   2.492   3.315
 2316SOL     OW 6964   2.423   2.084   3.009
 2316SOL    HW1 6965   2.461   2.000   3.046
 2316SOL    HW2 6966   2.335   2.103   3.053
 2317SOL     OW 6967   2.879   1.901   2.615
 2317SOL    HW1 6968   2.807   1.906   2.546
 2317SOL    HW2 6969   2.855   1.832   2.684
 2318SOL     OW 6970   3.291   3.035   2.729
 2318SOL    HW1 6971   3.236   2.951   2.722
 2318SOL    HW2 6972   3.317   3.064   2.637
 2319SOL     OW 6973   3.328   2.452   2.854
 2319SOL    HW1 6974   3.298   2.357   2.861
 2319SOL    HW2 6975   3.401   2.468   2.920
 2320SOL     OW 6976   3.719   2.695   2.239
 2320SOL    HW1 6977   3.761   2.631   2.303
 2320SOL    HW2 6978   3.681   2.644   2.161
 2321SOL     OW 6979   2.350   3.247   2.036
 2321SOL    HW1 6980   2.263   3.232   2.083
 2321SOL    HW2 6981   2.333   3.273   1.941
 2322SOL     OW 6982   3.526   3.142   2.519
 2322SOL    HW1 6983   3.625   3.150   2.533
 2322SOL    HW2 6984   3.481   3.226   2.550
 2323SOL     OW 6985   3.252   2.437   1.940
 2323SOL    HW1 6986   3.198   2.416   2.021
 2323SOL    HW2 6987   3.343   2.396   1.949
 2324SOL     OW 6988   2.389   2.118   2.190
 2324SOL    HW1 6989   2.416   2.059   2.115
 2324SOL    HW2 6990   2.389   2.213   2.159
 2325SOL     OW 6991   3.616   3.085   3.450
 2325SOL    HW1 6992   3.707   3.046   3.437
 2325SOL    HW2 6993   3.624   3.181   3.474
 2326SOL     OW 6994   2.926   3.209   3.202
 2326SOL    HW1 6995   2.846   3.186   3.257
 2326SOL    HW2 6996   3.009   3.183   3.251
 2327SOL     OW 6997   3.454   3.491   3.487
 2327SOL    HW1 6998   3.481   3.525   3.397
 2327SOL    HW2 6999   3.533   3.453   3.533
 2328SOL     OW 7000   2.973   3.057   2.962
 2328SOL    HW1 7001   2.933   3.101   3.043
 2328SOL    HW2 7002   2.932   3.094   2.879
 2329SOL     OW 7003   3.500   2.961   2.941
 2329SOL    HW1 7004   3.505   3.042   3.000
 2329SOL    HW2 7005   3.414   2.963   2.890
 2330SOL     OW 7006   2.777   1.951   3.264
 2330SOL    HW1 7007   2.802   1.931   3.169
 2330SOL    HW2 7008   2.849   2.007   3.306
 2331SOL     OW 7009   2.842   2.978   3.581
 2331SOL    HW1 7010   2.743   2.984   3.591
 2331SOL    HW2 7011   2.865   2.898   3.525
 2332SOL     OW 7012   2.567   2.912   2.230
 2332SOL    HW1 7013   2.553   2.919   2.329
 2332SOL    HW2 7014   2.651   2.861   2.212
 2333SOL     OW 7015   2.272   2.675   3.113
 2333SOL    HW1 7016   2.358   2.687   3.163
 2333SOL    HW2 7017   2.230   2.588   3.140
 2334SOL     OW 7018   3.136   2.248   3.124
 2334SOL    HW1 7019   3.157   2.322   3.188
 2334SOL    HW2 7020   3.047   2.265   3.081
 2335SOL     OW 7021   1.926   3.426   3.193
 2335SOL    HW1 7022   1.880   3.508   3.159
 2335SOL    HW2 7023   2.024   3.445   3.202
 2336SOL     OW 7024   3.114   3.210   2.250
 2336SOL    HW1 7025   3.164   3.287   2.290
 2336SOL    HW2 7026   3.019   3.212   2.282
 2337SOL     OW 7027   3.134   3.307   3.004
 2337SOL    HW1 7028   3.181   3.320   3.091
 2337SOL    HW2 7029   3.068   3.233   3.013
 2338SOL     OW 7030   3.444   2.501   2.334
 2338SOL    HW1 7031   3.413   2.562   2.407
 2338SOL    HW2 7032   3.494   2.553   2.265
 2339SOL     OW 7033   2.216   3.372   3.191
 2339SOL    HW1 7034   2.195   3.328   3.104
 2339SOL    HW2 7035   2.313   3.398   3.194
 2340SOL     OW 7036   2.264   2.613   3.460
 2340SOL    HW1 7037   2.332   2.668   3.413
 2340SOL    HW2 7038   2.304   2.525   3.487
 2341SOL     OW 7039   3.449   2.641   3.532
 2341SOL    HW1 7040   3.357   2.679   3.527
 2341SOL    HW2 7041   3.509   2.688   3.467
 2342SOL     OW 7042   2.875   1.967   3.632
 2342SOL    HW1 7043   2.881   2.052   3.580
 2342SOL    HW2 7044   2.907   1.891   3.575
 2343SOL     OW 7045   2.366   1.912   3.602
 2343SOL    HW1 7046   2.324   1.855   3.532
 2343SOL    HW2 7047   2.300   1.981   3.634
 2344SOL     OW 7048   2.435   2.732   2.891
 2344SOL    HW1 7049   2.479   2.821   2.882
 2344SOL    HW2 7050   2.372   2.732   2.968
 2345SOL     OW 7051   3.222   2.724   2.907
 2345SOL    HW1 7052   3.147   2.724   2.841
 2345SOL    HW2 7053   3.259   2.632   2.916
 2346SOL     OW 7054   3.071   2.387   2.137
 2346SOL    HW1 7055   3.084   2.303   2.191
 2346SOL    HW2 7056   3.042   2.461   2.197
 2347SOL     OW 7057   2.169   2.075   3.093
 2347SOL    HW1 7058   2.146   2.112   3.183
 2347SOL    HW2 7059   2.139   1.980   3.087
 2348SOL     OW 7060   1.899   3.172   3.144
 2348SOL    HW1 7061   1.952   3.123   3.212
 2348SOL    HW2 7062   1.921   3.270   3.149
 2349SOL     OW 7063   2.594   2.496   2.926
 2349SOL    HW1 7064   2.653   2.470   2.850
 2349SOL    HW2 7065   2.566   2.592   2.915
 2350SOL     OW 7066   3.590   2.797   3.716
 2350SOL    HW1 7067   3.544   2.790   3.627
 2350SOL    HW2 7068   3.528   2.841   3.782
 2351SOL     OW 7069   2.169   1.925   2.480
 2351SOL    HW1 7070   2.158   2.019   2.513
 2351SOL    HW2 7071   2.164   1.862   2.557
 2352SOL     OW 7072   3.484   2.229   2.236
 2352SOL    HW1 7073   3.486   2.153   2.300
 2352SOL    HW2 7074   3.436   2.306   2.276
 2353SOL     OW 7075   2.885   2.628   2.828
 2353SOL    HW1 7076   2.900   2.649   2.924
 2353SOL    HW2 7077   2.855   2.533   2.819
 2354SOL     OW 7078   2.842   3.435   3.562
 2354SOL    HW1 7079   2.822   3.479   3.474
 2354SOL    HW2 7080   2.881   3.344   3.546
 2355SOL     OW 7081   3.721   3.380   3.467
 2355SOL    HW1 7082   3.735   3.407   3.372
 2355SOL    HW2 7083   3.804   3.402   3.520
 2356SOL     OW 7084   2.212   2.760   3.666
 2356SOL    HW1 7085   2.288   2.804   3.714
 2356SOL    HW2 7086   2.247   2.713   3.584
 2357SOL     OW 7087   3.402   2.136   1.987
 2357SOL    HW1 7088   3.341   2.061   2.010
 2357SOL    HW2 7089   3.424   2.188   2.070
 2358SOL     OW 7090   3.165   2.700   1.904
 2358SOL    HW1 7091   3.199   2.607   1.919
 2358SOL    HW2 7092   3.183   2.727   1.809
 2359SOL     OW 7093   2.930   3.195   2.711
 2359SOL    HW1 7094   2.937   3.111   2.656
 2359SOL    HW2 7095   2.992   3.264   2.675
 2360SOL     OW 7096   2.181   2.672   2.811
 2360SOL    HW1 7097   2.274   2.708   2.816
 2360SOL    HW2 7098   2.175   2.587   2.863
 2361SOL     OW 7099   2.201   2.371   2.868
 2361SOL    HW1 7100   2.149   2.288   2.851
 2361SOL    HW2 7101   2.278   2.376   2.804
 2362SOL     OW 7102   3.000   2.242   3.540
 2362SOL    HW1 7103   2.955   2.305   3.604
 2362SOL    HW2 7104   3.093   2.273   3.523
 2363SOL     OW 7105   3.022   2.069   3.339
 2363SOL    HW1 7106   3.022   2.133   3.416
 2363SOL    HW2 7107   3.050   2.117   3.256
 2364SOL     OW 7108   1.870   3.188   2.062
 2364SOL    HW1 7109   1.777   3.209   2.031
 2364SOL    HW2 7110   1.880   3.089   2.075
 2365SOL     OW 7111   1.950   3.663   2.789
 2365SOL    HW1 7112   1.908   3.577   2.762
 2365SOL    HW2 7113   2.044   3.666   2.755
 2366SOL     OW 7114   2.366   3.430   2.772
 2366SOL    HW1 7115   2.432   3.504   2.781
 2366SOL    HW2 7116   2.410   3.351   2.730
 2367SOL     OW 7117   2.864   2.658   3.100
 2367SOL    HW1 7118   2.905   2.626   3.186
 2367SOL    HW2 7119   2.768   2.631   3.097
 2368SOL     OW 7120   1.902   2.406   2.976
 2368SOL    HW1 7121   1.987   2.373   2.935
 2368SOL    HW2 7122   1.915   2.421   3.074
 2369SOL     OW 7123   2.051   2.382   3.584
 2369SOL    HW1 7124   2.110   2.342   3.514
 2369SOL    HW2 7125   1.993   2.453   3.543
 2370SOL     OW 7126   3.231   2.812   3.522
 2370SOL    HW1 7127   3.270   2.901   3.542
 2370SOL    HW2 7128   3.241   2.792   3.425
 2371SOL     OW 7129   2.677   2.434   2.187
 2371SOL    HW1 7130   2.684   2.345   2.141
 2371SOL    HW2 7131   2.583   2.468   2.179
 2372SOL     OW 7132   3.519   2.466   3.068
 2372SOL    HW1 7133   3.481   2.397   3.130
 2372SOL    HW2 7134   3.601   2.430   3.024
 2373SOL     OW 7135   2.114   3.426   3.606
 2373SOL    HW1 7136   2.084   3.483   3.682
 2373SOL    HW2 7137   2.107   3.329   3.632
 2374SOL     OW 7138   2.533   2.326   3.131
 2374SOL    HW1 7139   2.499   2.237   3.101
 2374SOL    HW2 7140   2.559   2.380   3.051
 2375SOL     OW 7141   2.792   3.540   3.327
 2375SOL    HW1 7142   2.768   3.522   3.232
 2375SOL    HW2 7143   2.822   3.634   3.337
 2376SOL     OW 7144   2.335   2.362   2.053
 2376SOL    HW1 7145   2.396   2.442   2.057
 2376SOL    HW2 7146   2.240   2.393   2.060
 2377SOL     OW 7147   2.021   2.999   3.328
 2377SOL    HW1 7148   2.043   2.938   3.404
 2377SOL    HW2 7149   2.031   2.950   3.242
 2378SOL     OW 7150   3.209   2.921   3.096
 2378SOL    HW1 7151   3.233   2.858   3.022
 2378SOL    HW2 7152   3.119   2.961   3.078
 2379SOL     OW 7153   3.164   2.717   2.171
 2379SOL    HW1 7154   3.078   2.686   2.213
 2379SOL    HW2 7155   3.160   2.703   2.072
 2380SOL     OW 7156   3.621   3.609   3.016
 2380SOL    HW1 7157   3.682   3.639   2.943
 2380SOL    HW2 7158   3.583   3.520   2.994
 2381SOL     OW 7159   3.114   3.593   2.990
 2381SOL    HW1 7160   3.198   3.598   2.936
 2381SOL    HW2 7161   3.091   3.497   3.008
 2382SOL     OW 7162   1.945   3.120   2.884
 2382SOL    HW1 7163   1.940   3.119   2.984
 2382SOL    HW2 7164   1.862   3.079   2.846
 2383SOL     OW 7165   2.550   3.524   3.578
 2383SOL    HW1 7166   2.494   3.605   3.587
 2383SOL    HW2 7167   2.602   3.528   3.492
 2384SOL     OW 7168   3.588   1.997   2.385
 2384SOL    HW1 7169   3.661   1.980   2.318
 2384SOL    HW2 7170   3.557   1.910   2.423
 2385SOL     OW 7171   3.250   3.435   2.339
 2385SOL    HW1 7172   3.317   3.447   2.265
 2385SOL    HW2 7173   3.210   3.524   2.362
 2386SOL     OW 7174   1.992   3.656   3.713
 2386SOL    HW1 7175   1.951   3.582   3.766
 2386SOL    HW2 7176   2.056   3.707   3.771
 2387SOL     OW 7177   3.142   2.789   2.534
 2387SOL    HW1 7178   3.202   2.708   2.536
 2387SOL    HW2 7179   3.182   2.858   2.474
 2388SOL     OW 7180   2.692   3.135   3.284
 2388SOL    HW1 7181   2.687   3.168   3.379
 2388SOL    HW2 7182   2.606   3.154   3.238
 2389SOL     OW 7183   2.534   3.478   2.016
 2389SOL    HW1 7184   2.543   3.488   1.917
 2389SOL    HW2 7185   2.494   3.389   2.037
 2390SOL     OW 7186   3.512   3.582   3.256
 2390SOL    HW1 7187   3.565   3.592   3.172
 2390SOL    HW2 7188   3.485   3.672   3.290
 2391SOL     OW 7189   3.703   2.037   2.825
 2391SOL    HW1 7190   3.742   1.952   2.789
 2391SOL    HW2 7191   3.605   2.039   2.806
 2392SOL     OW 7192   2.125   2.188   2.582
 2392SOL    HW1 7193   2.046   2.239   2.548
 2392SOL    HW2 7194   2.116   2.173   2.680
 2393SOL     OW 7195   3.056   3.474   1.893
 2393SOL    HW1 7196   3.062   3.381   1.930
 2393SOL    HW2 7197   2.997   3.474   1.813
 2394SOL     OW 7198   2.684   2.864   3.234
 2394SOL    HW1 7199   2.724   2.863   3.142
 2394SOL    HW2 7200   2.694   2.956   3.274
 2395SOL     OW 7201   2.778   2.772   2.153
 2395SOL    HW1 7202   2.841   2.810   2.085
 2395SOL    HW2 7203   2.818   2.689   2.192
 2396SOL     OW 7204   3.366   3.469   1.906
 2396SOL    HW1 7205   3.274   3.506   1.913
 2396SOL    HW2 7206   3.404   3.489   1.816
 2397SOL     OW 7207   2.234   3.150   3.352
 2397SOL    HW1 7208   2.221   3.243   3.318
 2397SOL    HW2 7209   2.150   3.098   3.339
 2398SOL     OW 7210   3.476   3.154   3.151
 2398SOL    HW1 7211   3.536   3.157   3.231
 2398SOL    HW2 7212   3.401   3.218   3.164
 2399SOL     OW 7213   2.901   2.960   2.558
 2399SOL    HW1 7214   2.831   2.913   2.612
 2399SOL    HW2 7215   2.960   2.892   2.515
 2400SOL     OW 7216   2.876   2.098   2.833
 2400SOL    HW1 7217   2.868   2.062   2.740
 2400SOL    HW2 7218   2.874   2.022   2.898
 2401SOL     OW 7219   2.452   3.349   2.353
 2401SOL    HW1 7220   2.494   3.291   2.283
 2401SOL    HW2 7221   2.408   3.428   2.309
 2402SOL     OW 7222   3.571   2.247   3.243
 2402SOL    HW1 7223   3.644   2.316   3.247
 2402SOL    HW2 7224   3.599   2.172   3.184
 2403SOL     OW 7225   2.117   3.210   2.152
 2403SOL    HW1 7226   2.021   3.211   2.125
 2403SOL    HW2 7227   2.129   3.263   2.236
 2404SOL     OW 7228   1.967   2.875   3.588
 2404SOL    HW1 7229   1.890   2.842   3.642
 2404SOL    HW2 7230   2.052   2.845   3.630
 2405SOL     OW 7231   2.534   2.065   3.351
 2405SOL    HW1 7232   2.624   2.049   3.311
 2405SOL    HW2 7233   2.542   2.070   3.450
 2406SOL     OW 7234   1.937   2.207   1.895
 2406SOL    HW1 7235   1.845   2.179   1.866
 2406SOL    HW2 7236   1.968   2.284   1.839
 2407SOL     OW 7237   3.302   2.718   3.260
 2407SOL    HW1 7238   3.245   2.770   3.197
 2407SOL    HW2 7239   3.398   2.730   3.236
 2408SOL     OW 7240   1.934   2.028   2.180
 2408SOL    HW1 7241   1.917   2.111   2.126
 2408SOL    HW2 7242   2.024   1.991   2.158
 2409SOL     OW 7243   3.045   3.197   1.981
 2409SOL    HW1 7244   2.946   3.186   1.983
 2409SOL    HW2 7245   3.079   3.212   2.074
 2410SOL     OW 7246   2.475   2.704   3.293
 2410SOL    HW1 7247   2.531   2.785   3.276
 2410SOL    HW2 7248   2.534   2.624   3.296
 2411SOL     OW 7249   3.355   3.629   2.821
 2411SOL    HW1 7250   3.388   3.693   2.752
 2411SOL    HW2 7251   3.421   3.623   2.896
 2412SOL     OW 7252   2.578   2.427   3.570
 2412SOL    HW1 7253   2.597   2.492   3.644
 2412SOL    HW2 7254   2.638   2.347   3.579
 2413SOL     OW 7255   3.312   3.082   3.495
 2413SOL    HW1 7256   3.303   3.072   3.594
 2413SOL    HW2 7257   3.408   3.075   3.469
 2414SOL     OW 7258   2.252   3.603   3.422
 2414SOL    HW1 7259   2.161   3.644   3.420
 2414SOL    HW2 7260   2.245   3.509   3.454
 2415SOL     OW 7261   3.536   2.745   3.116
 2415SOL    HW1 7262   3.509   2.656   3.079
 2415SOL    HW2 7263   3.537   2.813   3.043
 2416SOL     OW 7264   3.087   2.187   2.311
 2416SOL    HW1 7265   3.152   2.113   2.300
 2416SOL    HW2 7266   3.107   2.237   2.395
 2417SOL     OW 7267   3.639   2.204   3.504
 2417SOL    HW1 7268   3.622   2.235   3.410
 2417SOL    HW2 7269   3.555   2.167   3.542
 2418SOL     OW 7270   3.592   2.796   3.379
 2418SOL    HW1 7271   3.630   2.887   3.394
 2418SOL    HW2 7272   3.584   2.779   3.280
 2419SOL     OW 7273   2.721   3.236   1.878
 2419SOL    HW1 7274   2.675   3.251   1.966
 2419SOL    HW2 7275   2.765   3.321   1.848
 2420SOL     OW 7276   2.523   3.652   2.815
 2420SOL    HW1 7277   2.477   3.740   2.802
 2420SOL    HW2 7278   2.622   3.664   2.808
 2421SOL     OW 7279   2.721   2.818   2.723
 2421SOL    HW1 7280   2.775   2.749   2.771
 2421SOL    HW2 7281   2.689   2.887   2.789
 2422SOL     OW 7282   2.945   2.846   1.949
 2422SOL    HW1 7283   2.922   2.899   1.867
 2422SOL    HW2 7284   3.026   2.790   1.930
 2423SOL     OW 7285   3.723   3.431   2.713
 2423SOL    HW1 7286   3.652   3.419   2.643
 2423SOL    HW2 7287   3.724   3.352   2.773
 2424SOL     OW 7288   2.083   3.176   3.706
 2424SOL    HW1 7289   2.018   3.103   3.685
 2424SOL    HW2 7290   2.087   3.190   3.804
 2425SOL     OW 7291   1.941   3.102   2.515
 2425SOL    HW1 7292   1.940   3.055   2.603
 2425SOL    HW2 7293   2.023   3.074   2.464
 2426SOL     OW 7294   2.534   3.253   3.486
 2426SOL    HW1 7295   2.456   3.203   3.524
 2426SOL    HW2 7296   2.531   3.348   3.517
 2427SOL     OW 7297   3.686   2.054   3.089
 2427SOL    HW1 7298   3.682   1.964   3.133
 2427SOL    HW2 7299   3.689   2.043   2.990
 2428SOL     OW 7300   2.290   2.286   2.382
 2428SOL    HW1 7301   2.320   2.214   2.320
 2428SOL    HW2 7302   2.251   2.246   2.465
 2429SOL     OW 7303   3.567   3.349   2.966
 2429SOL    HW1 7304   3.474   3.324   2.939
 2429SOL    HW2 7305   3.593   3.299   3.048
 2430SOL     OW 7306   2.179   2.409   3.142
 2430SOL    HW1 7307   2.217   2.350   3.214
 2430SOL    HW2 7308   2.219   2.383   3.054
 2431SOL     OW 7309   2.674   3.448   2.549
 2431SOL    HW1 7310   2.706   3.458   2.455
 2431SOL    HW2 7311   2.595   3.386   2.551
 2432SOL     OW 7312   3.286   2.076   2.974
 2432SOL    HW1 7313   3.338   2.011   3.029
 2432SOL    HW2 7314   3.237   2.139   3.035
 2433SOL     OW 7315   2.863   1.896   3.016
 2433SOL    HW1 7316   2.800   1.824   2.985
 2433SOL    HW2 7317   2.956   1.860   3.016
 2434SOL     OW 7318   2.632   3.192   2.163
 2434SOL    HW1 7319   2.586   3.105   2.180
 2434SOL    HW2 7320   2.723   3.189   2.204
 2435SOL     OW 7321   2.480   3.429   3.146
 2435SOL    HW1 7322   2.475   3.511   3.203
 2435SOL    HW2 7323   2.569   3.426   3.101
 2436SOL     OW 7324   3.214   1.914   2.030
 2436SOL    HW1 7325   3.249   1.873   1.946
 2436SOL    HW2 7326   3.124   1.876   2.050
 2437SOL     OW 7327   3.162   2.315   2.553
 2437SOL    HW1 7328   3.103   2.395   2.557
 2437SOL    HW2 7329   3.177   2.280   2.646
 2438SOL     OW 7330   3.455   2.083   2.744
 2438SOL    HW1 7331   3.371   2.082   2.798
 2438SOL    HW2 7332   3.457   2.166   2.688
 2439SOL     OW 7333   1.901   2.939   2.162
 2439SOL    HW1 7334   2.000   2.928   2.153
 2439SOL    HW2 7335   1.861   2.853   2.194
 2440SOL     OW 7336   2.737   3.508   2.199
 2440SOL    HW1 7337   2.660   3.473   2.145
 2440SOL    HW2 7338   2.705   3.579   2.261
 2441SOL     OW 7339   2.092   2.490   3.837
 2441SOL    HW1 7340   1.999   2.488   3.874
 2441SOL    HW2 7341   2.093   2.451   3.745
 2442SOL     OW 7342   2.087   2.137   4.720
 2442SOL    HW1 7343   2.122   2.120   4.812
 2442SOL    HW2 7344   1.999   2.092   4.708
 2443SOL     OW 7345   1.881   2.230   4.371
 2443SOL    HW1 7346   1.799   2.273   4.410
 2443SOL    HW2 7347   1.853   2.157   4.308
 2444SOL     OW 7348   3.417   3.373   4.427
 2444SOL    HW1 7349   3.360   3.357   4.508
 2444SOL    HW2 7350   3.358   3.383   4.347
 2445SOL     OW 7351   2.997   2.565   4.441
 2445SOL    HW1 7352   3.054   2.643   4.416
 2445SOL    HW2 7353   2.937   2.591   4.517
 2446SOL     OW 7354   3.617   2.469   3.955
 2446SOL    HW1 7355   3.605   2.456   3.856
 2446SOL    HW2 7356   3.587   2.388   4.004
 2447SOL     OW 7357   2.630   3.006   4.747
 2447SOL    HW1 7358   2.552   3.023   4.807
 2447SOL    HW2 7359   2.664   3.093   4.711
 2448SOL     OW 7360   2.547   2.874   4.389
 2448SOL    HW1 7361   2.616   2.858   4.459
 2448SOL    HW2 7362   2.474   2.931   4.427
 2449SOL     OW 7363   2.197   3.297   4.785
 2449SOL    HW1 7364   2.119   3.266   4.732
 2449SOL    HW2 7365   2.255   3.355   4.728
 2450SOL     OW 7366   3.465   2.309   4.461
 2450SOL    HW1 7367   3.391   2.355   4.411
 2450SOL    HW2 7368   3.516   2.377   4.514
 2451SOL     OW 7369   2.093   3.575   4.207
 2451SOL    HW1 7370   2.127   3.652   4.261
 2451SOL    HW2 7371   2.137   3.575   4.117
 2452SOL     OW 7372   2.092   3.296   4.262
 2452SOL    HW1 7373   2.066   3.392   4.262
 2452SOL    HW2 7374   2.021   3.242   4.307
 2453SOL     OW 7375   2.102   2.953   4.610
 2453SOL    HW1 7376   2.116   2.869   4.662
 2453SOL    HW2 7377   2.047   3.017   4.665
 2454SOL     OW 7378   2.468   2.826   3.847
 2454SOL    HW1 7379   2.475   2.910   3.793
 2454SOL    HW2 7380   2.514   2.839   3.935
 2455SOL     OW 7381   1.984   2.505   4.287
 2455SOL    HW1 7382   1.939   2.417   4.304
 2455SOL    HW2 7383   1.983   2.559   4.371
 2456SOL     OW 7384   3.704   3.629   4.083
 2456SOL    HW1 7385   3.758   3.600   4.163
 2456SOL    HW2 7386   3.734   3.719   4.054
 2457SOL     OW 7387   1.889   3.458   3.841
 2457SOL    HW1 7388   1.870   3.362   3.862
 2457SOL    HW2 7389   1.856   3.516   3.916
 2458SOL     OW 7390   3.551   2.784   4.336
 2458SOL    HW1 7391   3.646   2.755   4.344
 2458SOL    HW2 7392   3.543   2.849   4.261
 2459SOL     OW 7393   3.503   2.970   4.156
 2459SOL    HW1 7394   3.589   2.972   4.104
 2459SOL    HW2 7395   3.517   3.017   4.244
 2460SOL     OW 7396   2.475   3.227   4.450
 2460SOL    HW1 7397   2.426   3.140   4.459
 2460SOL    HW2 7398   2.452   3.270   4.363
 2461SOL     OW 7399   2.671   1.866   4.226
 2461SOL    HW1 7400   2.711   1.957   4.217
 2461SOL    HW2 7401   2.571   1.874   4.232
 2462SOL     OW 7402   2.059   2.838   4.988
 2462SOL    HW1 7403   2.148   2.793   4.974
 2462SOL    HW2 7404   1.986   2.773   4.969
 2463SOL     OW 7405   3.387   2.861   3.914
 2463SOL    HW1 7406   3.324   2.785   3.927
 2463SOL    HW2 7407   3.435   2.879   4.000
 2464SOL     OW 7408   3.328   3.279   4.677
 2464SOL    HW1 7409   3.269   3.285   4.757
 2464SOL    HW2 7410   3.313   3.191   4.631
 2465SOL     OW 7411   3.529   3.576   4.296
 2465SOL    HW1 7412   3.488   3.553   4.208
 2465SOL    HW2 7413   3.511   3.502   4.361
 2466SOL     OW 7414   2.460   2.591   3.994
 2466SOL    HW1 7415   2.484   2.660   3.926
 2466SOL    HW2 7416   2.382   2.624   4.048
 2467SOL     OW 7417   3.143   2.207   4.668
 2467SOL    HW1 7418   3.057   2.157   4.655
 2467SOL    HW2 7419   3.205   2.153   4.724
 2468SOL     OW 7420   3.438   3.524   4.031
 2468SOL    HW1 7421   3.527   3.570   4.034
 2468SOL    HW2 7422   3.417   3.500   3.936
 2469SOL     OW 7423   2.903   2.563   4.153
 2469SOL    HW1 7424   2.929   2.559   4.249
 2469SOL    HW2 7425   2.818   2.512   4.139
 2470SOL     OW 7426   1.938   2.673   4.513
 2470SOL    HW1 7427   2.037   2.661   4.522
 2470SOL    HW2 7428   1.914   2.768   4.534
 2471SOL     OW 7429   2.727   2.210   3.919
 2471SOL    HW1 7430   2.786   2.273   3.870
 2471SOL    HW2 7431   2.746   2.116   3.890
 2472SOL     OW 7432   3.224   3.006   4.269
 2472SOL    HW1 7433   3.307   2.977   4.221
 2472SOL    HW2 7434   3.175   3.073   4.213
 2473SOL     OW 7435   2.412   2.058   4.609
 2473SOL    HW1 7436   2.407   2.053   4.709
 2473SOL    HW2 7437   2.414   2.154   4.580
 2474SOL     OW 7438   2.870   3.318   4.201
 2474SOL    HW1 7439   2.824   3.390   4.149
 2474SOL    HW2 7440   2.866   3.338   4.299
 2475SOL     OW 7441   2.213   3.663   4.577
 2475SOL    HW1 7442   2.263   3.577   4.583
 2475SOL    HW2 7443   2.278   3.740   4.574
 2476SOL     OW 7444   3.657   2.928   4.597
 2476SOL    HW1 7445   3.595   2.913   4.521
 2476SOL    HW2 7446   3.605   2.939   4.682
 2477SOL     OW 7447   2.183   2.805   3.966
 2477SOL    HW1 7448   2.265   2.844   3.924
 2477SOL    HW2 7449   2.156   2.723   3.917
 2478SOL     OW 7450   3.320   2.597   4.452
 2478SOL    HW1 7451   3.315   2.532   4.527
 2478SOL    HW2 7452   3.400   2.656   4.465
 2479SOL     OW 7453   2.973   3.638   3.961
 2479SOL    HW1 7454   2.913   3.576   4.011
 2479SOL    HW2 7455   3.004   3.594   3.876
 2480SOL     OW 7456   3.494   3.239   3.805
 2480SOL    HW1 7457   3.462   3.333   3.795
 2480SOL    HW2 7458   3.418   3.176   3.793
 2481SOL     OW 7459   2.326   3.605   4.047
 2481SOL    HW1 7460   2.359   3.644   4.133
 2481SOL    HW2 7461   2.402   3.598   3.982
 2482SOL     OW 7462   3.262   1.969   4.150
 2482SOL    HW1 7463   3.238   1.932   4.060
 2482SOL    HW2 7464   3.361   1.985   4.154
 2483SOL     OW 7465   2.111   3.647   4.965
 2483SOL    HW1 7466   2.168   3.582   5.015
 2483SOL    HW2 7467   2.095   3.614   4.872
 2484SOL     OW 7468   2.802   3.560   4.628
 2484SOL    HW1 7469   2.882   3.503   4.649
 2484SOL    HW2 7470   2.753   3.520   4.551
 2485SOL     OW 7471   2.244   2.562   4.204
 2485SOL    HW1 7472   2.289   2.472   4.201
 2485SOL    HW2 7473   2.150   2.551   4.237
 2486SOL     OW 7474   2.476   1.984   3.841
 2486SOL    HW1 7475   2.574   1.962   3.848
 2486SOL    HW2 7476   2.445   1.967   3.748
 2487SOL     OW 7477   2.665   3.264   4.648
 2487SOL    HW1 7478   2.755   3.278   4.606
 2487SOL    HW2 7479   2.594   3.266   4.577
 2488SOL     OW 7480   2.784   2.365   4.623
 2488SOL    HW1 7481   2.759   2.356   4.527
 2488SOL    HW2 7482   2.832   2.283   4.654
 2489SOL     OW 7483   2.401   1.926   4.236
 2489SOL    HW1 7484   2.320   1.927   4.294
 2489SOL    HW2 7485   2.404   2.009   4.181
 2490SOL     OW 7486   3.296   3.050   3.765
 2490SOL    HW1 7487   3.328   2.974   3.822
 2490SOL    HW2 7488   3.204   3.077   3.795
 2491SOL     OW 7489   2.159   1.897   3.895
 2491SOL    HW1 7490   2.208   1.981   3.874
 2491SOL    HW2 7491   2.221   1.832   3.940
 2492SOL     OW 7492   2.797   2.098   4.204
 2492SOL    HW1 7493   2.749   2.139   4.126
 2492SOL    HW2 7494   2.896   2.096   4.185
 2493SOL     OW 7495   3.089   3.432   4.517
 2493SOL    HW1 7496   3.110   3.506   4.452
 2493SOL    HW2 7497   3.157   3.432   4.590
 2494SOL     OW 7498   2.321   3.014   4.465
 2494SOL    HW1 7499   2.250   2.987   4.530
 2494SOL    HW2 7500   2.295   2.986   4.372
 2495SOL     OW 7501   3.133   3.659   4.315
 2495SOL    HW1 7502   3.177   3.723   4.251
 2495SOL    HW2 7503   3.083   3.711   4.385
 2496SOL     OW 7504   2.894   2.411   3.740
 2496SOL    HW1 7505   2.853   2.493   3.701
 2496SOL    HW2 7506   2.958   2.437   3.813
 2497SOL     OW 7507   2.728   2.316   4.366
 2497SOL    HW1 7508   2.696   2.388   4.304
 2497SOL    HW2 7509   2.752   2.235   4.313
 2498SOL     OW 7510   2.879   1.901   4.477
 2498SOL    HW1 7511   2.807   1.906   4.408
 2498SOL    HW2 7512   2.855   1.832   4.546
 2499SOL     OW 7513   3.291   3.035   4.591
 2499SOL    HW1 7514   3.236   2.951   4.584
 2499SOL    HW2 7515   3.317   3.064   4.499
 2500SOL     OW 7516   3.328   2.452   4.716
 2500SOL    HW1 7517   3.298   2.357   4.723
 2500SOL    HW2 7518   3.401   2.468   4.782
 2501SOL     OW 7519   3.719   2.695   4.101
 2501SOL    HW1 7520   3.761   2.631   4.165
 2501SOL    HW2 7521   3.681   2.644   4.023
 2502SOL     OW 7522   2.350   3.247   3.898
 2502SOL    HW1 7523   2.263   3.232   3.945
 2502SOL    HW2 7524   2.333   3.273   3.803
 2503SOL     OW 7525   3.526   3.142   4.381
 2503SOL    HW1 7526   3.625   3.150   4.395
 2503SOL    HW2 7527   3.481   3.226   4.412
 2504SOL     OW 7528   3.252   2.437   3.802
 2504SOL    HW1 7529   3.198   2.416   3.883
 2504SOL    HW2 7530   3.343   2.396   3.811
 2505SOL     OW 7531   2.389   2.118   4.052
 2505SOL    HW1 7532   2.416   2.059   3.977
 2505SOL    HW2 7533   2.389   2.213   4.021
 2506SOL     OW 7534   2.973   3.057   4.824
 2506SOL    HW1 7535   2.933   3.101   4.905
 2506SOL    HW2 7536   2.932   3.094   4.741
 2507SOL     OW 7537   3.500   2.961   4.803
 2507SOL    HW1 7538   3.505   3.042   4.862
 2507SOL    HW2 7539   3.414   2.963   4.752
 2508SOL     OW 7540   2.567   2.912   4.092
 2508SOL    HW1 7541   2.553   2.919   4.191
 2508SOL    HW2 7542   2.651   2.861   4.074
 2509SOL     OW 7543   2.272   2.675   4.975
 2509SOL    HW1 7544   2.358   2.687   5.025
 2509SOL    HW2 7545   2.230   2.588   5.002
 2510SOL     OW 7546   2.229   2.962   4.225
 2510SOL    HW1 7547   2.222   3.045   4.169
 2510SOL    HW2 7548   2.233   2.882   4.165
 2511SOL     OW 7549   2.428   2.399   4.589
 2511SOL    HW1 7550   2.440   2.465   4.515
 2511SOL    HW2 7551   2.474   2.433   4.672
 2512SOL     OW 7552   3.114   3.210   4.112
 2512SOL    HW1 7553   3.164   3.287   4.152
 2512SOL    HW2 7554   3.019   3.212   4.144
 2513SOL     OW 7555   3.444   2.501   4.196
 2513SOL    HW1 7556   3.413   2.562   4.269
 2513SOL    HW2 7557   3.494   2.553   4.127
 2514SOL     OW 7558   2.216   3.372   5.053
 2514SOL    HW1 7559   2.195   3.328   4.966
 2514SOL    HW2 7560   2.313   3.398   5.056
 2515SOL     OW 7561   2.435   2.732   4.753
 2515SOL    HW1 7562   2.479   2.821   4.744
 2515SOL    HW2 7563   2.372   2.732   4.830
 2516SOL     OW 7564   3.071   2.387   3.999
 2516SOL    HW1 7565   3.084   2.303   4.053
 2516SOL    HW2 7566   3.042   2.461   4.059
 2517SOL     OW 7567   2.169   2.075   4.955
 2517SOL    HW1 7568   2.146   2.112   5.045
 2517SOL    HW2 7569   2.139   1.980   4.949
 2518SOL     OW 7570   2.594   2.496   4.788
 2518SOL    HW1 7571   2.653   2.470   4.712
 2518SOL    HW2 7572   2.566   2.592   4.777
 2519SOL     OW 7573   2.169   1.925   4.342
 2519SOL    HW1 7574   2.158   2.019   4.375
 2519SOL    HW2 7575   2.164   1.862   4.419
 2520SOL     OW 7576   3.484   2.229   4.098
 2520SOL    HW1 7577   3.486   2.153   4.162
 2520SOL    HW2 7578   3.436   2.306   4.138
 2521SOL     OW 7579   2.885   2.628   4.690
 2521SOL    HW1 7580   2.900   2.649   4.786
 2521SOL    HW2 7581   2.855   2.533   4.681
 2522SOL     OW 7582   3.402   2.136   3.849
 2522SOL    HW1 7583   3.341   2.061   3.872
 2522SOL    HW2 7584   3.424   2.188   3.932
 2523SOL     OW 7585   3.165   2.700   3.766
 2523SOL    HW1 7586   3.199   2.607   3.781
 2523SOL    HW2 7587   3.183   2.727   3.671
 2524SOL     OW 7588   2.930   3.195   4.573
 2524SOL    HW1 7589   2.937   3.111   4.518
 2524SOL    HW2 7590   2.992   3.264   4.537
 2525SOL     OW 7591   2.181   2.672   4.673
 2525SOL    HW1 7592   2.274   2.708   4.678
 2525SOL    HW2 7593   2.175   2.587   4.725
 2526SOL     OW 7594   2.201   2.371   4.730
 2526SOL    HW1 7595   2.149   2.288   4.713
 2526SOL    HW2 7596   2.278   2.376   4.666
 2527SOL     OW 7597   1.870   3.188   3.924
 2527SOL    HW1 7598   1.777   3.209   3.893
 2527SOL    HW2 7599   1.880   3.089   3.937
 2528SOL     OW 7600   1.950   3.663   4.651
 2528SOL    HW1 7601   1.908   3.577   4.624
 2528SOL    HW2 7602   2.044   3.666   4.617
 2529SOL     OW 7603   2.366   3.430   4.634
 2529SOL    HW1 7604   2.432   3.504   4.643
 2529SOL    HW2 7605   2.410   3.351   4.592
 2530SOL     OW 7606   2.864   2.658   4.962
 2530SOL    HW1 7607   2.905   2.626   5.048
 2530SOL    HW2 7608   2.768   2.631   4.959
 2531SOL     OW 7609   1.902   2.406   4.838
 2531SOL    HW1 7610   1.987   2.373   4.797
 2531SOL    HW2 7611   1.915   2.421   4.936
 2532SOL     OW 7612   2.677   2.434   4.049
 2532SOL    HW1 7613   2.684   2.345   4.003
 2532SOL    HW2 7614   2.583   2.468   4.041
 2533SOL     OW 7615   2.533   2.326   4.993
 2533SOL    HW1 7616   2.499   2.237   4.963
 2533SOL    HW2 7617   2.559   2.380   4.913
 2534SOL     OW 7618   2.335   2.362   3.915
 2534SOL    HW1 7619   2.396   2.442   3.919
 2534SOL    HW2 7620   2.240   2.393   3.922
 2535SOL     OW 7621   3.164   2.717   4.033
 2535SOL    HW1 7622   3.078   2.686   4.075
 2535SOL    HW2 7623   3.160   2.703   3.934
 2536SOL     OW 7624   3.621   3.609   4.878
 2536SOL    HW1 7625   3.682   3.639   4.805
 2536SOL    HW2 7626   3.583   3.520   4.856
 2537SOL     OW 7627   1.945   3.120   4.746
 2537SOL    HW1 7628   1.940   3.119   4.846
 2537SOL    HW2 7629   1.862   3.079   4.708
 2538SOL     OW 7630   3.588   1.997   4.247
 2538SOL    HW1 7631   3.661   1.980   4.180
 2538SOL    HW2 7632   3.557   1.910   4.285
 2539SOL     OW 7633   3.250   3.435   4.201
 2539SOL    HW1 7634   3.317   3.447   4.127
 2539SOL    HW2 7635   3.210   3.524   4.224
 2540SOL     OW 7636   3.142   2.789   4.396
 2540SOL    HW1 7637   3.202   2.708   4.398
 2540SOL    HW2 7638   3.182   2.858   4.336
 2541SOL     OW 7639   2.534   3.478   3.878
 2541SOL    HW1 7640   2.543   3.488   3.779
 2541SOL    HW2 7641   2.494   3.389   3.899
 2542SOL     OW 7642   3.703   2.037   4.687
 2542SOL    HW1 7643   3.742   1.952   4.651
 2542SOL    HW2 7644   3.605   2.039   4.668
 2543SOL     OW 7645   2.125   2.188   4.444
 2543SOL    HW1 7646   2.046   2.239   4.410
 2543SOL    HW2 7647   2.116   2.173   4.542
 2544SOL     OW 7648   3.056   3.474   3.755
 2544SOL    HW1 7649   3.062   3.381   3.792
 2544SOL    HW2 7650   2.997   3.474   3.675
 2545SOL     OW 7651   2.778   2.772   4.015
 2545SOL    HW1 7652   2.841   2.810   3.947
 2545SOL    HW2 7653   2.818   2.689   4.054
 2546SOL     OW 7654   3.366   3.469   3.768
 2546SOL    HW1 7655   3.274   3.506   3.775
 2546SOL    HW2 7656   3.404   3.489   3.678
 2547SOL     OW 7657   2.901   2.960   4.420
 2547SOL    HW1 7658   2.831   2.913   4.474
 2547SOL    HW2 7659   2.960   2.892   4.377
 2548SOL     OW 7660   2.876   2.098   4.695
 2548SOL    HW1 7661   2.868   2.062   4.602
 2548SOL    HW2 7662   2.874   2.022   4.760
 2549SOL     OW 7663   2.452   3.349   4.215
 2549SOL    HW1 7664   2.494   3.291   4.145
 2549SOL    HW2 7665   2.408   3.428   4.171
 2550SOL     OW 7666   2.117   3.210   4.014
 2550SOL    HW1 7667   2.021   3.211   3.987
 2550SOL    HW2 7668   2.129   3.263   4.098
 2551SOL     OW 7669   1.937   2.207   3.757
 2551SOL    HW1 7670   1.845   2.179   3.728
 2551SOL    HW2 7671   1.968   2.284   3.701
 2552SOL     OW 7672   1.934   2.028   4.042
 2552SOL    HW1 7673   1.917   2.111   3.988
 2552SOL    HW2 7674   2.024   1.991   4.020
 2553SOL     OW 7675   3.045   3.197   3.843
 2553SOL    HW1 7676   2.946   3.186   3.845
 2553SOL    HW2 7677   3.079   3.212   3.936
 2554SOL     OW 7678   3.355   3.629   4.683
 2554SOL    HW1 7679   3.388   3.693   4.614
 2554SOL    HW2 7680   3.421   3.623   4.758
 2555SOL     OW 7681   3.536   2.745   4.978
 2555SOL    HW1 7682   3.509   2.656   4.941
 2555SOL    HW2 7683   3.537   2.813   4.905
 2556SOL     OW 7684   3.087   2.187   4.173
 2556SOL    HW1 7685   3.152   2.113   4.162
 2556SOL    HW2 7686   3.107   2.237   4.257
 2557SOL     OW 7687   2.456   2.607   4.376
 2557SOL    HW1 7688   2.506   2.692   4.357
 2557SOL    HW2 7689   2.368   2.609   4.328
 2558SOL     OW 7690   2.721   3.236   3.740
 2558SOL    HW1 7691   2.675   3.251   3.828
 2558SOL    HW2 7692   2.765   3.321   3.710
 2559SOL     OW 7693   2.523   3.652   4.677
 2559SOL    HW1 7694   2.477   3.740   4.664
 2559SOL    HW2 7695   2.622   3.664   4.670
 2560SOL     OW 7696   2.721   2.818   4.585
 2560SOL    HW1 7697   2.775   2.749   4.633
 2560SOL    HW2 7698   2.689   2.887   4.651
 2561SOL     OW 7699   2.945   2.846   3.811
 2561SOL    HW1 7700   2.922   2.899   3.729
 2561SOL    HW2 7701   3.026   2.790   3.792
 2562SOL     OW 7702   3.723   3.431   4.575
 2562SOL    HW1 7703   3.652   3.419   4.505
 2562SOL    HW2 7704   3.724   3.352   4.635
 2563SOL     OW 7705   1.941   3.102   4.377
 2563SOL    HW1 7706   1.940   3.055   4.465
 2563SOL    HW2 7707   2.023   3.074   4.326
 2564SOL     OW 7708   3.686   2.054   4.951
 2564SOL    HW1 7709   3.682   1.964   4.995
 2564SOL    HW2 7710   3.689   2.043   4.852
 2565SOL     OW 7711   2.290   2.286   4.244
 2565SOL    HW1 7712   2.320   2.214   4.182
 2565SOL    HW2 7713   2.251   2.246   4.327
 2566SOL     OW 7714   2.674   3.448   4.411
 2566SOL    HW1 7715   2.706   3.458   4.317
 2566SOL    HW2 7716   2.595   3.386   4.413
 2567SOL     OW 7717   3.286   2.076   4.836
 2567SOL    HW1 7718   3.338   2.011   4.891
 2567SOL    HW2 7719   3.237   2.139   4.897
 2568SOL     OW 7720   2.632   3.192   4.025
 2568SOL    HW1 7721   2.586   3.105   4.042
 2568SOL    HW2 7722   2.723   3.189   4.066
 2569SOL     OW 7723   3.214   1.914   3.892
 2569SOL    HW1 7724   3.249   1.873   3.808
 2569SOL    HW2 7725   3.124   1.876   3.912
 2570SOL     OW 7726   3.162   2.315   4.415
 2570SOL    HW1 7727   3.103   2.395   4.419
 2570SOL    HW2 7728   3.177   2.280   4.508
 2571SOL     OW 7729   3.455   2.083   4.606
 2571SOL    HW1 7730   3.371   2.082   4.660
 2571SOL    HW2 7731   3.457   2.166   4.550
 2572SOL     OW 7732   1.901   2.939   4.024
 2572SOL    HW1 7733   2.000   2.928   4.015
 2572SOL    HW2 7734   1.861   2.853   4.056
 2573SOL     OW 7735   2.737   3.508   4.061
 2573SOL    HW1 7736   2.660   3.473   4.007
 2573SOL    HW2 7737   2.705   3.579   4.123
 2574SOL     OW 7738   2.092   4.352   0.113
 2574SOL    HW1 7739   1.999   4.350   0.150
 2574SOL    HW2 7740   2.093   4.313   0.021
 2575SOL     OW 7741   2.087   3.999   0.996
 2575SOL    HW1 7742   2.122   3.982   1.088
 2575SOL    HW2 7743   1.999   3.954   0.984
 2576SOL     OW 7744   1.881   4.092   0.647
 2576SOL    HW1 7745   1.799   4.135   0.686
 2576SOL    HW2 7746   1.853   4.019   0.584
 2577SOL     OW 7747   2.997   4.427   0.717
 2577SOL    HW1 7748   3.054   4.505   0.692
 2577SOL    HW2 7749   2.937   4.453   0.793
 2578SOL     OW 7750   3.617   4.331   0.231
 2578SOL    HW1 7751   3.605   4.318   0.132
 2578SOL    HW2 7752   3.587   4.250   0.280
 2579SOL     OW 7753   2.630   4.868   1.023
 2579SOL    HW1 7754   2.552   4.885   1.083
 2579SOL    HW2 7755   2.664   4.955   0.987
 2580SOL     OW 7756   2.712   4.522   1.823
 2580SOL    HW1 7757   2.708   4.598   1.888
 2580SOL    HW2 7758   2.734   4.558   1.732
 2581SOL     OW 7759   2.547   4.736   0.665
 2581SOL    HW1 7760   2.616   4.720   0.735
 2581SOL    HW2 7761   2.474   4.793   0.703
 2582SOL     OW 7762   2.300   4.116   1.499
 2582SOL    HW1 7763   2.382   4.060   1.508
 2582SOL    HW2 7764   2.219   4.058   1.503
 2583SOL     OW 7765   3.465   4.171   0.737
 2583SOL    HW1 7766   3.391   4.217   0.687
 2583SOL    HW2 7767   3.516   4.239   0.790
 2584SOL     OW 7768   2.092   5.158   0.538
 2584SOL    HW1 7769   2.066   5.254   0.538
 2584SOL    HW2 7770   2.021   5.104   0.583
 2585SOL     OW 7771   2.102   4.815   0.886
 2585SOL    HW1 7772   2.116   4.731   0.938
 2585SOL    HW2 7773   2.047   4.879   0.941
 2586SOL     OW 7774   2.468   4.688   0.123
 2586SOL    HW1 7775   2.475   4.772   0.069
 2586SOL    HW2 7776   2.514   4.701   0.211
 2587SOL     OW 7777   3.456   3.838   1.480
 2587SOL    HW1 7778   3.438   3.905   1.408
 2587SOL    HW2 7779   3.453   3.884   1.569
 2588SOL     OW 7780   1.984   4.367   0.563
 2588SOL    HW1 7781   1.939   4.279   0.580
 2588SOL    HW2 7782   1.983   4.421   0.647
 2589SOL     OW 7783   3.551   4.646   0.612
 2589SOL    HW1 7784   3.646   4.617   0.620
 2589SOL    HW2 7785   3.543   4.711   0.537
 2590SOL     OW 7786   1.975   4.461   1.597
 2590SOL    HW1 7787   2.063   4.448   1.642
 2590SOL    HW2 7788   1.962   4.558   1.575
 2591SOL     OW 7789   3.155   4.952   1.423
 2591SOL    HW1 7790   3.192   4.879   1.365
 2591SOL    HW2 7791   3.207   4.957   1.508
 2592SOL     OW 7792   2.671   3.728   0.502
 2592SOL    HW1 7793   2.711   3.819   0.493
 2592SOL    HW2 7794   2.571   3.736   0.508
 2593SOL     OW 7795   2.059   4.700   1.264
 2593SOL    HW1 7796   2.148   4.655   1.250
 2593SOL    HW2 7797   1.986   4.635   1.245
 2594SOL     OW 7798   3.387   4.723   0.190
 2594SOL    HW1 7799   3.324   4.647   0.203
 2594SOL    HW2 7800   3.435   4.741   0.276
 2595SOL     OW 7801   2.179   3.975   1.801
 2595SOL    HW1 7802   2.250   4.046   1.807
 2595SOL    HW2 7803   2.091   4.014   1.829
 2596SOL     OW 7804   2.460   4.453   0.270
 2596SOL    HW1 7805   2.484   4.522   0.202
 2596SOL    HW2 7806   2.382   4.486   0.324
 2597SOL     OW 7807   3.143   4.069   0.944
 2597SOL    HW1 7808   3.057   4.019   0.931
 2597SOL    HW2 7809   3.205   4.015   1.000
 2598SOL     OW 7810   2.669   4.329   1.465
 2598SOL    HW1 7811   2.622   4.326   1.554
 2598SOL    HW2 7812   2.618   4.274   1.399
 2599SOL     OW 7813   3.256   4.193   1.674
 2599SOL    HW1 7814   3.236   4.236   1.762
 2599SOL    HW2 7815   3.334   4.131   1.683
 2600SOL     OW 7816   2.835   4.614   1.572
 2600SOL    HW1 7817   2.881   4.530   1.543
 2600SOL    HW2 7818   2.779   4.648   1.497
 2601SOL     OW 7819   2.853   4.134   1.242
 2601SOL    HW1 7820   2.776   4.168   1.296
 2601SOL    HW2 7821   2.819   4.083   1.163
 2602SOL     OW 7822   2.903   4.425   0.429
 2602SOL    HW1 7823   2.929   4.421   0.525
 2602SOL    HW2 7824   2.818   4.374   0.415
 2603SOL     OW 7825   1.938   4.535   0.789
 2603SOL    HW1 7826   2.037   4.523   0.798
 2603SOL    HW2 7827   1.914   4.630   0.810
 2604SOL     OW 7828   2.727   4.072   0.195
 2604SOL    HW1 7829   2.786   4.135   0.146
 2604SOL    HW2 7830   2.746   3.978   0.166
 2605SOL     OW 7831   3.581   4.309   1.831
 2605SOL    HW1 7832   3.555   4.398   1.795
 2605SOL    HW2 7833   3.579   4.241   1.758
 2606SOL     OW 7834   2.412   3.920   0.885
 2606SOL    HW1 7835   2.407   3.915   0.985
 2606SOL    HW2 7836   2.414   4.016   0.856
 2607SOL     OW 7837   3.657   4.790   0.873
 2607SOL    HW1 7838   3.595   4.775   0.797
 2607SOL    HW2 7839   3.605   4.801   0.958
 2608SOL     OW 7840   2.183   4.667   0.242
 2608SOL    HW1 7841   2.265   4.706   0.200
 2608SOL    HW2 7842   2.156   4.585   0.193
 2609SOL     OW 7843   3.320   4.459   0.728
 2609SOL    HW1 7844   3.315   4.394   0.803
 2609SOL    HW2 7845   3.400   4.518   0.741
 2610SOL     OW 7846   2.064   4.009   1.498
 2610SOL    HW1 7847   1.984   4.069   1.485
 2610SOL    HW2 7848   2.054   3.960   1.584
 2611SOL     OW 7849   3.262   3.831   0.426
 2611SOL    HW1 7850   3.238   3.794   0.336
 2611SOL    HW2 7851   3.361   3.847   0.430
 2612SOL     OW 7852   2.244   4.424   0.480
 2612SOL    HW1 7853   2.289   4.334   0.477
 2612SOL    HW2 7854   2.150   4.413   0.513
 2613SOL     OW 7855   3.409   3.946   1.729
 2613SOL    HW1 7856   3.404   3.983   1.821
 2613SOL    HW2 7857   3.337   3.877   1.717
 2614SOL     OW 7858   2.476   3.846   0.117
 2614SOL    HW1 7859   2.574   3.824   0.124
 2614SOL    HW2 7860   2.445   3.829   0.024
 2615SOL     OW 7861   2.643   3.988   1.749
 2615SOL    HW1 7862   2.710   3.927   1.792
 2615SOL    HW2 7863   2.570   4.007   1.814
 2616SOL     OW 7864   3.213   4.314   1.433
 2616SOL    HW1 7865   3.241   4.271   1.518
 2616SOL    HW2 7866   3.238   4.410   1.434
 2617SOL     OW 7867   2.784   4.227   0.899
 2617SOL    HW1 7868   2.759   4.218   0.803
 2617SOL    HW2 7869   2.832   4.145   0.930
 2618SOL     OW 7870   2.401   3.788   0.512
 2618SOL    HW1 7871   2.320   3.789   0.570
 2618SOL    HW2 7872   2.404   3.871   0.457
 2619SOL     OW 7873   2.797   3.960   0.480
 2619SOL    HW1 7874   2.749   4.001   0.402
 2619SOL    HW2 7875   2.896   3.958   0.461
 2620SOL     OW 7876   2.938   4.407   1.464
 2620SOL    HW1 7877   2.858   4.346   1.467
 2620SOL    HW2 7878   3.019   4.354   1.440
 2621SOL     OW 7879   2.321   4.876   0.741
 2621SOL    HW1 7880   2.250   4.849   0.806
 2621SOL    HW2 7881   2.295   4.848   0.648
 2622SOL     OW 7882   2.894   4.273   0.016
 2622SOL    HW1 7883   2.853   4.355  -0.023
 2622SOL    HW2 7884   2.958   4.299   0.089
 2623SOL     OW 7885   1.940   4.280   1.386
 2623SOL    HW1 7886   2.032   4.279   1.345
 2623SOL    HW2 7887   1.934   4.354   1.453
 2624SOL     OW 7888   2.423   3.946   1.147
 2624SOL    HW1 7889   2.461   3.862   1.184
 2624SOL    HW2 7890   2.335   3.965   1.191
 2625SOL     OW 7891   2.728   4.178   0.642
 2625SOL    HW1 7892   2.696   4.250   0.580
 2625SOL    HW2 7893   2.752   4.097   0.589
 2626SOL     OW 7894   2.879   3.763   0.753
 2626SOL    HW1 7895   2.807   3.768   0.684
 2626SOL    HW2 7896   2.855   3.694   0.822
 2627SOL     OW 7897   3.291   4.897   0.867
 2627SOL    HW1 7898   3.236   4.813   0.860
 2627SOL    HW2 7899   3.317   4.926   0.775
 2628SOL     OW 7900   3.328   4.314   0.992
 2628SOL    HW1 7901   3.298   4.219   0.999
 2628SOL    HW2 7902   3.401   4.330   1.058
 2629SOL     OW 7903   3.719   4.557   0.377
 2629SOL    HW1 7904   3.761   4.493   0.441
 2629SOL    HW2 7905   3.681   4.506   0.299
 2630SOL     OW 7906   3.252   4.299   0.078
 2630SOL    HW1 7907   3.198   4.278   0.159
 2630SOL    HW2 7908   3.343   4.258   0.087
 2631SOL     OW 7909   2.389   3.980   0.328
 2631SOL    HW1 7910   2.416   3.921   0.253
 2631SOL    HW2 7911   2.389   4.075   0.297
 2632SOL     OW 7912   3.616   4.947   1.588
 2632SOL    HW1 7913   3.707   4.908   1.575
 2632SOL    HW2 7914   3.624   5.043   1.612
 2633SOL     OW 7915   3.500   4.823   1.079
 2633SOL    HW1 7916   3.505   4.904   1.138
 2633SOL    HW2 7917   3.414   4.825   1.028
 2634SOL     OW 7918   2.777   3.813   1.402
 2634SOL    HW1 7919   2.802   3.793   1.307
 2634SOL    HW2 7920   2.849   3.869   1.444
 2635SOL     OW 7921   2.567   4.774   0.368
 2635SOL    HW1 7922   2.553   4.781   0.467
 2635SOL    HW2 7923   2.651   4.723   0.350
 2636SOL     OW 7924   2.272   4.537   1.251
 2636SOL    HW1 7925   2.358   4.549   1.301
 2636SOL    HW2 7926   2.230   4.450   1.278
 2637SOL     OW 7927   3.136   4.110   1.262
 2637SOL    HW1 7928   3.157   4.184   1.326
 2637SOL    HW2 7929   3.047   4.127   1.219
 2638SOL     OW 7930   2.229   4.824   0.501
 2638SOL    HW1 7931   2.222   4.907   0.445
 2638SOL    HW2 7932   2.233   4.744   0.441
 2639SOL     OW 7933   2.428   4.261   0.865
 2639SOL    HW1 7934   2.440   4.327   0.791
 2639SOL    HW2 7935   2.474   4.295   0.948
 2640SOL     OW 7936   3.444   4.363   0.472
 2640SOL    HW1 7937   3.413   4.424   0.545
 2640SOL    HW2 7938   3.494   4.415   0.403
 2641SOL     OW 7939   2.264   4.475   1.598
 2641SOL    HW1 7940   2.332   4.530   1.551
 2641SOL    HW2 7941   2.304   4.387   1.625
 2642SOL     OW 7942   3.449   4.503   1.670
 2642SOL    HW1 7943   3.357   4.541   1.665
 2642SOL    HW2 7944   3.509   4.550   1.605
 2643SOL     OW 7945   2.875   3.829   1.770
 2643SOL    HW1 7946   2.881   3.914   1.718
 2643SOL    HW2 7947   2.907   3.753   1.713
 2644SOL     OW 7948   2.366   3.774   1.740
 2644SOL    HW1 7949   2.324   3.717   1.670
 2644SOL    HW2 7950   2.300   3.843   1.772
 2645SOL     OW 7951   2.435   4.594   1.029
 2645SOL    HW1 7952   2.479   4.683   1.020
 2645SOL    HW2 7953   2.372   4.594   1.106
 2646SOL     OW 7954   3.222   4.586   1.045
 2646SOL    HW1 7955   3.147   4.586   0.979
 2646SOL    HW2 7956   3.259   4.494   1.054
 2647SOL     OW 7957   3.071   4.249   0.275
 2647SOL    HW1 7958   3.084   4.165   0.329
 2647SOL    HW2 7959   3.042   4.323   0.335
 2648SOL     OW 7960   2.169   3.937   1.231
 2648SOL    HW1 7961   2.146   3.974   1.321
 2648SOL    HW2 7962   2.139   3.842   1.225
 2649SOL     OW 7963   2.594   4.358   1.064
 2649SOL    HW1 7964   2.653   4.332   0.988
 2649SOL    HW2 7965   2.566   4.454   1.053
 2650SOL     OW 7966   3.590   4.659   1.854
 2650SOL    HW1 7967   3.544   4.652   1.765
 2650SOL    HW2 7968   3.528   4.703   1.920
 2651SOL     OW 7969   2.169   3.787   0.618
 2651SOL    HW1 7970   2.158   3.881   0.651
 2651SOL    HW2 7971   2.164   3.724   0.695
 2652SOL     OW 7972   3.484   4.091   0.374
 2652SOL    HW1 7973   3.486   4.015   0.438
 2652SOL    HW2 7974   3.436   4.168   0.414
 2653SOL     OW 7975   2.885   4.490   0.966
 2653SOL    HW1 7976   2.900   4.511   1.062
 2653SOL    HW2 7977   2.855   4.395   0.957
 2654SOL     OW 7978   2.212   4.622   1.804
 2654SOL    HW1 7979   2.288   4.666   1.852
 2654SOL    HW2 7980   2.247   4.575   1.722
 2655SOL     OW 7981   3.402   3.998   0.125
 2655SOL    HW1 7982   3.341   3.923   0.148
 2655SOL    HW2 7983   3.424   4.050   0.208
 2656SOL     OW 7984   3.165   4.562   0.042
 2656SOL    HW1 7985   3.199   4.469   0.057
 2656SOL    HW2 7986   3.183   4.589  -0.053
 2657SOL     OW 7987   2.181   4.534   0.949
 2657SOL    HW1 7988   2.274   4.570   0.954
 2657SOL    HW2 7989   2.175   4.449   1.001
 2658SOL     OW 7990   2.201   4.233   1.006
 2658SOL    HW1 7991   2.149   4.150   0.989
 2658SOL    HW2 7992   2.278   4.238   0.942
 2659SOL     OW 7993   3.000   4.104   1.678
 2659SOL    HW1 7994   2.955   4.167   1.742
 2659SOL    HW2 7995   3.093   4.135   1.661
 2660SOL     OW 7996   3.022   3.931   1.477
 2660SOL    HW1 7997   3.022   3.995   1.554
 2660SOL    HW2 7998   3.050   3.979   1.394
 2661SOL     OW 7999   2.864   4.520   1.238
 2661SOL    HW1 8000   2.905   4.488   1.324
 2661SOL    HW2 8001   2.768   4.493   1.235
 2662SOL     OW 8002   1.902   4.268   1.114
 2662SOL    HW1 8003   1.987   4.235   1.073
 2662SOL    HW2 8004   1.915   4.283   1.212
 2663SOL     OW 8005   2.051   4.244   1.722
 2663SOL    HW1 8006   2.110   4.204   1.652
 2663SOL    HW2 8007   1.993   4.315   1.681
 2664SOL     OW 8008   3.231   4.674   1.660
 2664SOL    HW1 8009   3.270   4.763   1.680
 2664SOL    HW2 8010   3.241   4.654   1.563
 2665SOL     OW 8011   2.677   4.296   0.325
 2665SOL    HW1 8012   2.684   4.207   0.279
 2665SOL    HW2 8013   2.583   4.330   0.317
 2666SOL     OW 8014   3.519   4.328   1.206
 2666SOL    HW1 8015   3.481   4.259   1.268
 2666SOL    HW2 8016   3.601   4.292   1.162
 2667SOL     OW 8017   2.533   4.188   1.269
 2667SOL    HW1 8018   2.499   4.099   1.239
 2667SOL    HW2 8019   2.559   4.242   1.189
 2668SOL     OW 8020   2.335   4.224   0.191
 2668SOL    HW1 8021   2.396   4.304   0.195
 2668SOL    HW2 8022   2.240   4.255   0.198
 2669SOL     OW 8023   2.021   4.861   1.466
 2669SOL    HW1 8024   2.043   4.800   1.542
 2669SOL    HW2 8025   2.031   4.812   1.380
 2670SOL     OW 8026   3.209   4.783   1.234
 2670SOL    HW1 8027   3.233   4.720   1.160
 2670SOL    HW2 8028   3.119   4.823   1.216
 2671SOL     OW 8029   3.164   4.579   0.309
 2671SOL    HW1 8030   3.078   4.548   0.351
 2671SOL    HW2 8031   3.160   4.565   0.210
 2672SOL     OW 8032   2.765   3.810   0.133
 2672SOL    HW1 8033   2.816   3.811   0.047
 2672SOL    HW2 8034   2.821   3.768   0.204
 2673SOL     OW 8035   3.588   3.859   0.523
 2673SOL    HW1 8036   3.661   3.842   0.456
 2673SOL    HW2 8037   3.557   3.772   0.561
 2674SOL     OW 8038   3.142   4.651   0.672
 2674SOL    HW1 8039   3.202   4.570   0.674
 2674SOL    HW2 8040   3.182   4.720   0.612
 2675SOL     OW 8041   3.703   3.899   0.963
 2675SOL    HW1 8042   3.742   3.814   0.927
 2675SOL    HW2 8043   3.605   3.901   0.944
 2676SOL     OW 8044   2.125   4.050   0.720
 2676SOL    HW1 8045   2.046   4.101   0.686
 2676SOL    HW2 8046   2.116   4.035   0.818
 2677SOL     OW 8047   2.684   4.726   1.372
 2677SOL    HW1 8048   2.724   4.725   1.280
 2677SOL    HW2 8049   2.694   4.818   1.412
 2678SOL     OW 8050   2.778   4.634   0.291
 2678SOL    HW1 8051   2.841   4.672   0.223
 2678SOL    HW2 8052   2.818   4.551   0.330
 2679SOL     OW 8053   2.234   5.012   1.490
 2679SOL    HW1 8054   2.221   5.105   1.456
 2679SOL    HW2 8055   2.150   4.960   1.477
 2680SOL     OW 8056   2.876   3.960   0.971
 2680SOL    HW1 8057   2.868   3.924   0.878
 2680SOL    HW2 8058   2.874   3.884   1.036
 2681SOL     OW 8059   3.571   4.109   1.381
 2681SOL    HW1 8060   3.644   4.178   1.385
 2681SOL    HW2 8061   3.599   4.034   1.322
 2682SOL     OW 8062   1.967   4.737   1.726
 2682SOL    HW1 8063   1.890   4.704   1.780
 2682SOL    HW2 8064   2.052   4.707   1.768
 2683SOL     OW 8065   2.534   3.927   1.489
 2683SOL    HW1 8066   2.624   3.911   1.449
 2683SOL    HW2 8067   2.542   3.932   1.588
 2684SOL     OW 8068   3.302   4.580   1.398
 2684SOL    HW1 8069   3.245   4.632   1.335
 2684SOL    HW2 8070   3.398   4.592   1.374
 2685SOL     OW 8071   1.934   3.890   0.318
 2685SOL    HW1 8072   1.917   3.973   0.264
 2685SOL    HW2 8073   2.024   3.853   0.296
 2686SOL     OW 8074   3.045   5.059   0.119
 2686SOL    HW1 8075   2.946   5.048   0.121
 2686SOL    HW2 8076   3.079   5.074   0.212
 2687SOL     OW 8077   2.475   4.566   1.431
 2687SOL    HW1 8078   2.531   4.647   1.414
 2687SOL    HW2 8079   2.534   4.486   1.434
 2688SOL     OW 8080   2.578   4.289   1.708
 2688SOL    HW1 8081   2.597   4.354   1.782
 2688SOL    HW2 8082   2.638   4.209   1.717
 2689SOL     OW 8083   3.536   4.607   1.254
 2689SOL    HW1 8084   3.509   4.518   1.217
 2689SOL    HW2 8085   3.537   4.675   1.181
 2690SOL     OW 8086   3.087   4.049   0.449
 2690SOL    HW1 8087   3.152   3.975   0.438
 2690SOL    HW2 8088   3.107   4.099   0.533
 2691SOL     OW 8089   2.456   4.469   0.652
 2691SOL    HW1 8090   2.506   4.554   0.633
 2691SOL    HW2 8091   2.368   4.471   0.604
 2692SOL     OW 8092   3.639   4.066   1.642
 2692SOL    HW1 8093   3.622   4.097   1.548
 2692SOL    HW2 8094   3.555   4.029   1.680
 2693SOL     OW 8095   3.592   4.658   1.517
 2693SOL    HW1 8096   3.630   4.749   1.532
 2693SOL    HW2 8097   3.584   4.641   1.418
 2694SOL     OW 8098   2.721   4.680   0.861
 2694SOL    HW1 8099   2.775   4.611   0.909
 2694SOL    HW2 8100   2.689   4.749   0.927
 2695SOL     OW 8101   2.945   4.708   0.087
 2695SOL    HW1 8102   2.922   4.761   0.005
 2695SOL    HW2 8103   3.026   4.652   0.068
 2696SOL     OW 8104   3.686   3.916   1.227
 2696SOL    HW1 8105   3.682   3.826   1.271
 2696SOL    HW2 8106   3.689   3.905   1.128
 2697SOL     OW 8107   2.290   4.148   0.520
 2697SOL    HW1 8108   2.320   4.076   0.458
 2697SOL    HW2 8109   2.251   4.108   0.603
 2698SOL     OW 8110   2.179   4.271   1.280
 2698SOL    HW1 8111   2.217   4.212   1.352
 2698SOL    HW2 8112   2.219   4.245   1.192
 2699SOL     OW 8113   3.286   3.938   1.112
 2699SOL    HW1 8114   3.338   3.873   1.167
 2699SOL    HW2 8115   3.237   4.001   1.173
 2700SOL     OW 8116   2.863   3.758   1.154
 2700SOL    HW1 8117   2.800   3.686   1.123
 2700SOL    HW2 8118   2.956   3.722   1.154
 2701SOL     OW 8119   2.632   5.054   0.301
 2701SOL    HW1 8120   2.586   4.967   0.318
 2701SOL    HW2 8121   2.723   5.051   0.342
 2702SOL     OW 8122   3.214   3.776   0.168
 2702SOL    HW1 8123   3.249   3.735   0.084
 2702SOL    HW2 8124   3.124   3.738   0.188
 2703SOL     OW 8125   3.162   4.177   0.691
 2703SOL    HW1 8126   3.103   4.257   0.695
 2703SOL    HW2 8127   3.177   4.142   0.784
 2704SOL     OW 8128   3.455   3.945   0.882
 2704SOL    HW1 8129   3.371   3.944   0.936
 2704SOL    HW2 8130   3.457   4.028   0.826
 2705SOL     OW 8131   1.901   4.801   0.300
 2705SOL    HW1 8132   2.000   4.790   0.291
 2705SOL    HW2 8133   1.861   4.715   0.332
 2706SOL     OW 8134   2.092   4.352   1.975
 2706SOL    HW1 8135   1.999   4.350   2.012
 2706SOL    HW2 8136   2.093   4.313   1.883
 2707SOL     OW 8137   2.087   3.999   2.858
 2707SOL    HW1 8138   2.122   3.982   2.950
 2707SOL    HW2 8139   1.999   3.954   2.846
 2708SOL     OW 8140   1.881   4.092   2.509
 2708SOL    HW1 8141   1.799   4.135   2.548
 2708SOL    HW2 8142   1.853   4.019   2.446
 2709SOL     OW 8143   2.997   4.427   2.579
 2709SOL    HW1 8144   3.054   4.505   2.554
 2709SOL    HW2 8145   2.937   4.453   2.655
 2710SOL     OW 8146   3.617   4.331   2.093
 2710SOL    HW1 8147   3.605   4.318   1.994
 2710SOL    HW2 8148   3.587   4.250   2.142
 2711SOL     OW 8149   2.630   4.868   2.885
 2711SOL    HW1 8150   2.552   4.885   2.945
 2711SOL    HW2 8151   2.664   4.955   2.849
 2712SOL     OW 8152   2.712   4.522   3.685
 2712SOL    HW1 8153   2.708   4.598   3.750
 2712SOL    HW2 8154   2.734   4.558   3.594
 2713SOL     OW 8155   2.547   4.736   2.527
 2713SOL    HW1 8156   2.616   4.720   2.597
 2713SOL    HW2 8157   2.474   4.793   2.565
 2714SOL     OW 8158   2.300   4.116   3.361
 2714SOL    HW1 8159   2.382   4.060   3.370
 2714SOL    HW2 8160   2.219   4.058   3.365
 2715SOL     OW 8161   3.465   4.171   2.599
 2715SOL    HW1 8162   3.391   4.217   2.549
 2715SOL    HW2 8163   3.516   4.239   2.652
 2716SOL     OW 8164   2.092   5.158   2.400
 2716SOL    HW1 8165   2.066   5.254   2.400
 2716SOL    HW2 8166   2.021   5.104   2.445
 2717SOL     OW 8167   2.102   4.815   2.748
 2717SOL    HW1 8168   2.116   4.731   2.800
 2717SOL    HW2 8169   2.047   4.879   2.803
 2718SOL     OW 8170   2.468   4.688   1.985
 2718SOL    HW1 8171   2.475   4.772   1.931
 2718SOL    HW2 8172   2.514   4.701   2.073
 2719SOL     OW 8173   3.456   3.838   3.342
 2719SOL    HW1 8174   3.438   3.905   3.270
 2719SOL    HW2 8175   3.453   3.884   3.431
 2720SOL     OW 8176   1.984   4.367   2.425
 2720SOL    HW1 8177   1.939   4.279   2.442
 2720SOL    HW2 8178   1.983   4.421   2.509
 2721SOL     OW 8179   3.551   4.646   2.474
 2721SOL    HW1 8180   3.646   4.617   2.482
 2721SOL    HW2 8181   3.543   4.711   2.399
 2722SOL     OW 8182   1.975   4.461   3.459
 2722SOL    HW1 8183   2.063   4.448   3.504
 2722SOL    HW2 8184   1.962   4.558   3.437
 2723SOL     OW 8185   3.155   4.952   3.285
 2723SOL    HW1 8186   3.192   4.879   3.227
 2723SOL    HW2 8187   3.207   4.957   3.370
 2724SOL     OW 8188   2.671   3.728   2.364
 2724SOL    HW1 8189   2.711   3.819   2.355
 2724SOL    HW2 8190   2.571   3.736   2.370
 2725SOL     OW 8191   2.059   4.700   3.126
 2725SOL    HW1 8192   2.148   4.655   3.112
 2725SOL    HW2 8193   1.986   4.635   3.107
 2726SOL     OW 8194   3.387   4.723   2.052
 2726SOL    HW1 8195   3.324   4.647   2.065
 2726SOL    HW2 8196   3.435   4.741   2.138
 2727SOL     OW 8197   2.179   3.975   3.663
 2727SOL    HW1 8198   2.250   4.046   3.669
 2727SOL    HW2 8199   2.091   4.014   3.691
 2728SOL     OW 8200   2.460   4.453   2.132
 2728SOL    HW1 8201   2.484   4.522   2.064
 2728SOL    HW2 8202   2.382   4.486   2.186
 2729SOL     OW 8203   3.143   4.069   2.806
 2729SOL    HW1 8204   3.057   4.019   2.793
 2729SOL    HW2 8205   3.205   4.015   2.862
 2730SOL     OW 8206   2.669   4.329   3.327
 2730SOL    HW1 8207   2.622   4.326   3.416
 2730SOL    HW2 8208   2.618   4.274   3.261
 2731SOL     OW 8209   3.256   4.193   3.536
 2731SOL    HW1 8210   3.236   4.236   3.624
 2731SOL    HW2 8211   3.334   4.131   3.545
 2732SOL     OW 8212   2.835   4.614   3.434
 2732SOL    HW1 8213   2.881   4.530   3.405
 2732SOL    HW2 8214   2.779   4.648   3.359
 2733SOL     OW 8215   2.853   4.134   3.104
 2733SOL    HW1 8216   2.776   4.168   3.158
 2733SOL    HW2 8217   2.819   4.083   3.025
 2734SOL     OW 8218   2.903   4.425   2.291
 2734SOL    HW1 8219   2.929   4.421   2.387
 2734SOL    HW2 8220   2.818   4.374   2.277
 2735SOL     OW 8221   1.938   4.535   2.651
 2735SOL    HW1 8222   2.037   4.523   2.660
 2735SOL    HW2 8223   1.914   4.630   2.672
 2736SOL     OW 8224   2.727   4.072   2.057
 2736SOL    HW1 8225   2.786   4.135   2.008
 2736SOL    HW2 8226   2.746   3.978   2.028
 2737SOL     OW 8227   3.581   4.309   3.693
 2737SOL    HW1 8228   3.555   4.398   3.657
 2737SOL    HW2 8229   3.579   4.241   3.620
 2738SOL     OW 8230   2.412   3.920   2.747
 2738SOL    HW1 8231   2.407   3.915   2.847
 2738SOL    HW2 8232   2.414   4.016   2.718
 2739SOL     OW 8233   3.657   4.790   2.735
 2739SOL    HW1 8234   3.595   4.775   2.659
 2739SOL    HW2 8235   3.605   4.801   2.820
 2740SOL     OW 8236   2.183   4.667   2.104
 2740SOL    HW1 8237   2.265   4.706   2.062
 2740SOL    HW2 8238   2.156   4.585   2.055
 2741SOL     OW 8239   3.320   4.459   2.590
 2741SOL    HW1 8240   3.315   4.394   2.665
 2741SOL    HW2 8241   3.400   4.518   2.603
 2742SOL     OW 8242   2.064   4.009   3.360
 2742SOL    HW1 8243   1.984   4.069   3.347
 2742SOL    HW2 8244   2.054   3.960   3.446
 2743SOL     OW 8245   3.262   3.831   2.288
 2743SOL    HW1 8246   3.238   3.794   2.198
 2743SOL    HW2 8247   3.361   3.847   2.292
 2744SOL     OW 8248   2.244   4.424   2.342
 2744SOL    HW1 8249   2.289   4.334   2.339
 2744SOL    HW2 8250   2.150   4.413   2.375
 2745SOL     OW 8251   3.409   3.946   3.591
 2745SOL    HW1 8252   3.404   3.983   3.683
 2745SOL    HW2 8253   3.337   3.877   3.579
 2746SOL     OW 8254   2.476   3.846   1.979
 2746SOL    HW1 8255   2.574   3.824   1.986
 2746SOL    HW2 8256   2.445   3.829   1.886
 2747SOL     OW 8257   2.643   3.988   3.611
 2747SOL    HW1 8258   2.710   3.927   3.654
 2747SOL    HW2 8259   2.570   4.007   3.676
 2748SOL     OW 8260   3.213   4.314   3.295
 2748SOL    HW1 8261   3.241   4.271   3.380
 2748SOL    HW2 8262   3.238   4.410   3.296
 2749SOL     OW 8263   2.784   4.227   2.761
 2749SOL    HW1 8264   2.759   4.218   2.665
 2749SOL    HW2 8265   2.832   4.145   2.792
 2750SOL     OW 8266   2.401   3.788   2.374
 2750SOL    HW1 8267   2.320   3.789   2.432
 2750SOL    HW2 8268   2.404   3.871   2.319
 2751SOL     OW 8269   2.159   3.759   2.033
 2751SOL    HW1 8270   2.208   3.843   2.012
 2751SOL    HW2 8271   2.221   3.694   2.078
 2752SOL     OW 8272   2.797   3.960   2.342
 2752SOL    HW1 8273   2.749   4.001   2.264
 2752SOL    HW2 8274   2.896   3.958   2.323
 2753SOL     OW 8275   2.938   4.407   3.326
 2753SOL    HW1 8276   2.858   4.346   3.329
 2753SOL    HW2 8277   3.019   4.354   3.302
 2754SOL     OW 8278   2.321   4.876   2.603
 2754SOL    HW1 8279   2.250   4.849   2.668
 2754SOL    HW2 8280   2.295   4.848   2.510
 2755SOL     OW 8281   2.894   4.273   1.878
 2755SOL    HW1 8282   2.853   4.355   1.839
 2755SOL    HW2 8283   2.958   4.299   1.951
 2756SOL     OW 8284   1.940   4.280   3.248
 2756SOL    HW1 8285   2.032   4.279   3.207
 2756SOL    HW2 8286   1.934   4.354   3.315
 2757SOL     OW 8287   2.423   3.946   3.009
 2757SOL    HW1 8288   2.461   3.862   3.046
 2757SOL    HW2 8289   2.335   3.965   3.053
 2758SOL     OW 8290   2.728   4.178   2.504
 2758SOL    HW1 8291   2.696   4.250   2.442
 2758SOL    HW2 8292   2.752   4.097   2.451
 2759SOL     OW 8293   2.879   3.763   2.615
 2759SOL    HW1 8294   2.807   3.768   2.546
 2759SOL    HW2 8295   2.855   3.694   2.684
 2760SOL     OW 8296   3.291   4.897   2.729
 2760SOL    HW1 8297   3.236   4.813   2.722
 2760SOL    HW2 8298   3.317   4.926   2.637
 2761SOL     OW 8299   3.328   4.314   2.854
 2761SOL    HW1 8300   3.298   4.219   2.861
 2761SOL    HW2 8301   3.401   4.330   2.920
 2762SOL     OW 8302   3.719   4.557   2.239
 2762SOL    HW1 8303   3.761   4.493   2.303
 2762SOL    HW2 8304   3.681   4.506   2.161
 2763SOL     OW 8305   3.252   4.299   1.940
 2763SOL    HW1 8306   3.198   4.278   2.021
 2763SOL    HW2 8307   3.343   4.258   1.949
 2764SOL     OW 8308   2.389   3.980   2.190
 2764SOL    HW1 8309   2.416   3.921   2.115
 2764SOL    HW2 8310   2.389   4.075   2.159
 2765SOL     OW 8311   3.616   4.947   3.450
 2765SOL    HW1 8312   3.707   4.908   3.437
 2765SOL    HW2 8313   3.624   5.043   3.474
 2766SOL     OW 8314   3.500   4.823   2.941
 2766SOL    HW1 8315   3.505   4.904   3.000
 2766SOL    HW2 8316   3.414   4.825   2.890
 2767SOL     OW 8317   2.777   3.813   3.264
 2767SOL    HW1 8318   2.802   3.793   3.169
 2767SOL    HW2 8319   2.849   3.869   3.306
 2768SOL     OW 8320   2.567   4.774   2.230
 2768SOL    HW1 8321   2.553   4.781   2.329
 2768SOL    HW2 8322   2.651   4.723   2.212
 2769SOL     OW 8323   2.272   4.537   3.113
 2769SOL    HW1 8324   2.358   4.549   3.163
 2769SOL    HW2 8325   2.230   4.450   3.140
 2770SOL     OW 8326   3.136   4.110   3.124
 2770SOL    HW1 8327   3.157   4.184   3.188
 2770SOL    HW2 8328   3.047   4.127   3.081
 2771SOL     OW 8329   2.229   4.824   2.363
 2771SOL    HW1 8330   2.222   4.907   2.307
 2771SOL    HW2 8331   2.233   4.744   2.303
 2772SOL     OW 8332   2.428   4.261   2.727
 2772SOL    HW1 8333   2.440   4.327   2.653
 2772SOL    HW2 8334   2.474   4.295   2.810
 2773SOL     OW 8335   3.444   4.363   2.334
 2773SOL    HW1 8336   3.413   4.424   2.407
 2773SOL    HW2 8337   3.494   4.415   2.265
 2774SOL     OW 8338   2.264   4.475   3.460
 2774SOL    HW1 8339   2.332   4.530   3.413
 2774SOL    HW2 8340   2.304   4.387   3.487
 2775SOL     OW 8341   3.449   4.503   3.532
 2775SOL    HW1 8342   3.357   4.541   3.527
 2775SOL    HW2 8343   3.509   4.550   3.467
 2776SOL     OW 8344   2.875   3.829   3.632
 2776SOL    HW1 8345   2.881   3.914   3.580
 2776SOL    HW2 8346   2.907   3.753   3.575
 2777SOL     OW 8347   2.366   3.774   3.602
 2777SOL    HW1 8348   2.324   3.717   3.532
 2777SOL    HW2 8349   2.300   3.843   3.634
 2778SOL     OW 8350   2.435   4.594   2.891
 2778SOL    HW1 8351   2.479   4.683   2.882
 2778SOL    HW2 8352   2.372   4.594   2.968
 2779SOL     OW 8353   3.222   4.586   2.907
 2779SOL    HW1 8354   3.147   4.586   2.841
 2779SOL    HW2 8355   3.259   4.494   2.916
 2780SOL     OW 8356   3.071   4.249   2.137
 2780SOL    HW1 8357   3.084   4.165   2.191
 2780SOL    HW2 8358   3.042   4.323   2.197
 2781SOL     OW 8359   2.169   3.937   3.093
 2781SOL    HW1 8360   2.146   3.974   3.183
 2781SOL    HW2 8361   2.139   3.842   3.087
 2782SOL     OW 8362   2.594   4.358   2.926
 2782SOL    HW1 8363   2.653   4.332   2.850
 2782SOL    HW2 8364   2.566   4.454   2.915
 2783SOL     OW 8365   3.590   4.659   3.716
 2783SOL    HW1 8366   3.544   4.652   3.627
 2783SOL    HW2 8367   3.528   4.703   3.782
 2784SOL     OW 8368   2.169   3.787   2.480
 2784SOL    HW1 8369   2.158   3.881   2.513
 2784SOL    HW2 8370   2.164   3.724   2.557
 2785SOL     OW 8371   3.484   4.091   2.236
 2785SOL    HW1 8372   3.486   4.015   2.300
 2785SOL    HW2 8373   3.436   4.168   2.276
 2786SOL     OW 8374   2.885   4.490   2.828
 2786SOL    HW1 8375   2.900   4.511   2.924
 2786SOL    HW2 8376   2.855   4.395   2.819
 2787SOL     OW 8377   2.212   4.622   3.666
 2787SOL    HW1 8378   2.288   4.666   3.714
 2787SOL    HW2 8379   2.247   4.575   3.584
 2788SOL     OW 8380   3.402   3.998   1.987
 2788SOL    HW1 8381   3.341   3.923   2.010
 2788SOL    HW2 8382   3.424   4.050   2.070
 2789SOL     OW 8383   3.165   4.562   1.904
 2789SOL    HW1 8384   3.199   4.469   1.919
 2789SOL    HW2 8385   3.183   4.589   1.809
 2790SOL     OW 8386   2.181   4.534   2.811
 2790SOL    HW1 8387   2.274   4.570   2.816
 2790SOL    HW2 8388   2.175   4.449   2.863
 2791SOL     OW 8389   2.201   4.233   2.868
 2791SOL    HW1 8390   2.149   4.150   2.851
 2791SOL    HW2 8391   2.278   4.238   2.804
 2792SOL     OW 8392   3.000   4.104   3.540
 2792SOL    HW1 8393   2.955   4.167   3.604
 2792SOL    HW2 8394   3.093   4.135   3.523
 2793SOL     OW 8395   3.022   3.931   3.339
 2793SOL    HW1 8396   3.022   3.995   3.416
 2793SOL    HW2 8397   3.050   3.979   3.256
 2794SOL     OW 8398   2.864   4.520   3.100
 2794SOL    HW1 8399   2.905   4.488   3.186
 2794SOL    HW2 8400   2.768   4.493   3.097
 2795SOL     OW 8401   1.902   4.268   2.976
 2795SOL    HW1 8402   1.987   4.235   2.935
 2795SOL    HW2 8403   1.915   4.283   3.074
 2796SOL     OW 8404   2.051   4.244   3.584
 2796SOL    HW1 8405   2.110   4.204   3.514
 2796SOL    HW2 8406   1.993   4.315   3.543
 2797SOL     OW 8407   3.231   4.674   3.522
 2797SOL    HW1 8408   3.270   4.763   3.542
 2797SOL    HW2 8409   3.241   4.654   3.425
 2798SOL     OW 8410   2.677   4.296   2.187
 2798SOL    HW1 8411   2.684   4.207   2.141
 2798SOL    HW2 8412   2.583   4.330   2.179
 2799SOL     OW 8413   3.519   4.328   3.068
 2799SOL    HW1 8414   3.481   4.259   3.130
 2799SOL    HW2 8415   3.601   4.292   3.024
 2800SOL     OW 8416   2.533   4.188   3.131
 2800SOL    HW1 8417   2.499   4.099   3.101
 2800SOL    HW2 8418   2.559   4.242   3.051
 2801SOL     OW 8419   2.335   4.224   2.053
 2801SOL    HW1 8420   2.396   4.304   2.057
 2801SOL    HW2 8421   2.240   4.255   2.060
 2802SOL     OW 8422   2.021   4.861   3.328
 2802SOL    HW1 8423   2.043   4.800   3.404
 2802SOL    HW2 8424   2.031   4.812   3.242
 2803SOL     OW 8425   3.209   4.783   3.096
 2803SOL    HW1 8426   3.233   4.720   3.022
 2803SOL    HW2 8427   3.119   4.823   3.078
 2804SOL     OW 8428   3.164   4.579   2.171
 2804SOL    HW1 8429   3.078   4.548   2.213
 2804SOL    HW2 8430   3.160   4.565   2.072
 2805SOL     OW 8431   3.588   3.859   2.385
 2805SOL    HW1 8432   3.661   3.842   2.318
 2805SOL    HW2 8433   3.557   3.772   2.423
 2806SOL     OW 8434   3.142   4.651   2.534
 2806SOL    HW1 8435   3.202   4.570   2.536
 2806SOL    HW2 8436   3.182   4.720   2.474
 2807SOL     OW 8437   3.703   3.899   2.825
 2807SOL    HW1 8438   3.742   3.814   2.789
 2807SOL    HW2 8439   3.605   3.901   2.806
 2808SOL     OW 8440   2.125   4.050   2.582
 2808SOL    HW1 8441   2.046   4.101   2.548
 2808SOL    HW2 8442   2.116   4.035   2.680
 2809SOL     OW 8443   2.684   4.726   3.234
 2809SOL    HW1 8444   2.724   4.725   3.142
 2809SOL    HW2 8445   2.694   4.818   3.274
 2810SOL     OW 8446   2.778   4.634   2.153
 2810SOL    HW1 8447   2.841   4.672   2.085
 2810SOL    HW2 8448   2.818   4.551   2.192
 2811SOL     OW 8449   2.234   5.012   3.352
 2811SOL    HW1 8450   2.221   5.105   3.318
 2811SOL    HW2 8451   2.150   4.960   3.339
 2812SOL     OW 8452   2.876   3.960   2.833
 2812SOL    HW1 8453   2.868   3.924   2.740
 2812SOL    HW2 8454   2.874   3.884   2.898
 2813SOL     OW 8455   3.571   4.109   3.243
 2813SOL    HW1 8456   3.644   4.178   3.247
 2813SOL    HW2 8457   3.599   4.034   3.184
 2814SOL     OW 8458   1.967   4.737   3.588
 2814SOL    HW1 8459   1.890   4.704   3.642
 2814SOL    HW2 8460   2.052   4.707   3.630
 2815SOL     OW 8461   2.534   3.927   3.351
 2815SOL    HW1 8462   2.624   3.911   3.311
 2815SOL    HW2 8463   2.542   3.932   3.450
 2816SOL     OW 8464   1.937   4.069   1.895
 2816SOL    HW1 8465   1.845   4.041   1.866
 2816SOL    HW2 8466   1.968   4.146   1.839
 2817SOL     OW 8467   3.302   4.580   3.260
 2817SOL    HW1 8468   3.245   4.632   3.197
 2817SOL    HW2 8469   3.398   4.592   3.236
 2818SOL     OW 8470   1.934   3.890   2.180
 2818SOL    HW1 8471   1.917   3.973   2.126
 2818SOL    HW2 8472   2.024   3.853   2.158
 2819SOL     OW 8473   3.045   5.059   1.981
 2819SOL    HW1 8474   2.946   5.048   1.983
 2819SOL    HW2 8475   3.079   5.074   2.074
 2820SOL     OW 8476   2.475   4.566   3.293
 2820SOL    HW1 8477   2.531   4.647   3.276
 2820SOL    HW2 8478   2.534   4.486   3.296
 2821SOL     OW 8479   2.578   4.289   3.570
 2821SOL    HW1 8480   2.597   4.354   3.644
 2821SOL    HW2 8481   2.638   4.209   3.579
 2822SOL     OW 8482   3.536   4.607   3.116
 2822SOL    HW1 8483   3.509   4.518   3.079
 2822SOL    HW2 8484   3.537   4.675   3.043
 2823SOL     OW 8485   3.087   4.049   2.311
 2823SOL    HW1 8486   3.152   3.975   2.300
 2823SOL    HW2 8487   3.107   4.099   2.395
 2824SOL     OW 8488   2.456   4.469   2.514
 2824SOL    HW1 8489   2.506   4.554   2.495
 2824SOL    HW2 8490   2.368   4.471   2.466
 2825SOL     OW 8491   3.639   4.066   3.504
 2825SOL    HW1 8492   3.622   4.097   3.410
 2825SOL    HW2 8493   3.555   4.029   3.542
 2826SOL     OW 8494   3.592   4.658   3.379
 2826SOL    HW1 8495   3.630   4.749   3.394
 2826SOL    HW2 8496   3.584   4.641   3.280
 2827SOL     OW 8497   2.721   4.680   2.723
 2827SOL    HW1 8498   2.775   4.611   2.771
 2827SOL    HW2 8499   2.689   4.749   2.789
 2828SOL     OW 8500   2.945   4.708   1.949
 2828SOL    HW1 8501   2.922   4.761   1.867
 2828SOL    HW2 8502   3.026   4.652   1.930
 2829SOL     OW 8503   3.686   3.916   3.089
 2829SOL    HW1 8504   3.682   3.826   3.133
 2829SOL    HW2 8505   3.689   3.905   2.990
 2830SOL     OW 8506   2.290   4.148   2.382
 2830SOL    HW1 8507   2.320   4.076   2.320
 2830SOL    HW2 8508   2.251   4.108   2.465
 2831SOL     OW 8509   2.179   4.271   3.142
 2831SOL    HW1 8510   2.217   4.212   3.214
 2831SOL    HW2 8511   2.219   4.245   3.054
 2832SOL     OW 8512   3.286   3.938   2.974
 2832SOL    HW1 8513   3.338   3.873   3.029
 2832SOL    HW2 8514   3.237   4.001   3.035
 2833SOL     OW 8515   2.863   3.758   3.016
 2833SOL    HW1 8516   2.800   3.686   2.985
 2833SOL    HW2 8517   2.956   3.722   3.016
 2834SOL     OW 8518   2.632   5.054   2.163
 2834SOL    HW1 8519   2.586   4.967   2.180
 2834SOL    HW2 8520   2.723   5.051   2.204
 2835SOL     OW 8521   3.214   3.776   2.030
 2835SOL    HW1 8522   3.249   3.735   1.946
 2835SOL    HW2 8523   3.124   3.738   2.050
 2836SOL     OW 8524   3.162   4.177   2.553
 2836SOL    HW1 8525   3.103   4.257   2.557
 2836SOL    HW2 8526   3.177   4.142   2.646
 2837SOL     OW 8527   3.455   3.945   2.744
 2837SOL    HW1 8528   3.371   3.944   2.798
 2837SOL    HW2 8529   3.457   4.028   2.688
 2838SOL     OW 8530   1.901   4.801   2.162
 2838SOL    HW1 8531   2.000   4.790   2.153
 2838SOL    HW2 8532   1.861   4.715   2.194
 2839SOL     OW 8533   2.092   4.352   3.837
 2839SOL    HW1 8534   1.999   4.350   3.874
 2839SOL    HW2 8535   2.093   4.313   3.745
 2840SOL     OW 8536   2.087   3.999   4.720
 2840SOL    HW1 8537   2.122   3.982   4.812
 2840SOL    HW2 8538   1.999   3.954   4.708
 2841SOL     OW 8539   1.881   4.092   4.371
 2841SOL    HW1 8540   1.799   4.135   4.410
 2841SOL    HW2 8541   1.853   4.019   4.308
 2842SOL     OW 8542   2.997   4.427   4.441
 2842SOL    HW1 8543   3.054   4.505   4.416
 2842SOL    HW2 8544   2.937   4.453   4.517
 2843SOL     OW 8545   3.617   4.331   3.955
 2843SOL    HW1 8546   3.605   4.318   3.856
 2843SOL    HW2 8547   3.587   4.250   4.004
 2844SOL     OW 8548   2.630   4.868   4.747
 2844SOL    HW1 8549   2.552   4.885   4.807
 2844SOL    HW2 8550   2.664   4.955   4.711
 2845SOL     OW 8551   2.547   4.736   4.389
 2845SOL    HW1 8552   2.616   4.720   4.459
 2845SOL    HW2 8553   2.474   4.793   4.427
 2846SOL     OW 8554   3.465   4.171   4.461
 2846SOL    HW1 8555   3.391   4.217   4.411
 2846SOL    HW2 8556   3.516   4.239   4.514
 2847SOL     OW 8557   2.092   5.158   4.262
 2847SOL    HW1 8558   2.066   5.254   4.262
 2847SOL    HW2 8559   2.021   5.104   4.307
 2848SOL     OW 8560   2.102   4.815   4.610
 2848SOL    HW1 8561   2.116   4.731   4.662
 2848SOL    HW2 8562   2.047   4.879   4.665
 2849SOL     OW 8563   2.468   4.688   3.847
 2849SOL    HW1 8564   2.475   4.772   3.793
 2849SOL    HW2 8565   2.514   4.701   3.935
 2850SOL     OW 8566   1.984   4.367   4.287
 2850SOL    HW1 8567   1.939   4.279   4.304
 2850SOL    HW2 8568   1.983   4.421   4.371
 2851SOL     OW 8569   3.551   4.646   4.336
 2851SOL    HW1 8570   3.646   4.617   4.344
 2851SOL    HW2 8571   3.543   4.711   4.261
 2852SOL     OW 8572   2.671   3.728   4.226
 2852SOL    HW1 8573   2.711   3.819   4.217
 2852SOL    HW2 8574   2.571   3.736   4.232
 2853SOL     OW 8575   2.059   4.700   4.988
 2853SOL    HW1 8576   2.148   4.655   4.974
 2853SOL    HW2 8577   1.986   4.635   4.969
 2854SOL     OW 8578   3.387   4.723   3.914
 2854SOL    HW1 8579   3.324   4.647   3.927
 2854SOL    HW2 8580   3.435   4.741   4.000
 2855SOL     OW 8581   2.460   4.453   3.994
 2855SOL    HW1 8582   2.484   4.522   3.926
 2855SOL    HW2 8583   2.382   4.486   4.048
 2856SOL     OW 8584   3.143   4.069   4.668
 2856SOL    HW1 8585   3.057   4.019   4.655
 2856SOL    HW2 8586   3.205   4.015   4.724
 2857SOL     OW 8587   2.903   4.425   4.153
 2857SOL    HW1 8588   2.929   4.421   4.249
 2857SOL    HW2 8589   2.818   4.374   4.139
 2858SOL     OW 8590   1.938   4.535   4.513
 2858SOL    HW1 8591   2.037   4.523   4.522
 2858SOL    HW2 8592   1.914   4.630   4.534
 2859SOL     OW 8593   2.727   4.072   3.919
 2859SOL    HW1 8594   2.786   4.135   3.870
 2859SOL    HW2 8595   2.746   3.978   3.890
 2860SOL     OW 8596   2.412   3.920   4.609
 2860SOL    HW1 8597   2.407   3.915   4.709
 2860SOL    HW2 8598   2.414   4.016   4.580
 2861SOL     OW 8599   3.657   4.790   4.597
 2861SOL    HW1 8600   3.595   4.775   4.521
 2861SOL    HW2 8601   3.605   4.801   4.682
 2862SOL     OW 8602   2.183   4.667   3.966
 2862SOL    HW1 8603   2.265   4.706   3.924
 2862SOL    HW2 8604   2.156   4.585   3.917
 2863SOL     OW 8605   3.320   4.459   4.452
 2863SOL    HW1 8606   3.315   4.394   4.527
 2863SOL    HW2 8607   3.400   4.518   4.465
 2864SOL     OW 8608   3.262   3.831   4.150
 2864SOL    HW1 8609   3.238   3.794   4.060
 2864SOL    HW2 8610   3.361   3.847   4.154
 2865SOL     OW 8611   2.244   4.424   4.204
 2865SOL    HW1 8612   2.289   4.334   4.201
 2865SOL    HW2 8613   2.150   4.413   4.237
 2866SOL     OW 8614   2.476   3.846   3.841
 2866SOL    HW1 8615   2.574   3.824   3.848
 2866SOL    HW2 8616   2.445   3.829   3.748
 2867SOL     OW 8617   2.784   4.227   4.623
 2867SOL    HW1 8618   2.759   4.218   4.527
 2867SOL    HW2 8619   2.832   4.145   4.654
 2868SOL     OW 8620   2.401   3.788   4.236
 2868SOL    HW1 8621   2.320   3.789   4.294
 2868SOL    HW2 8622   2.404   3.871   4.181
 2869SOL     OW 8623   2.159   3.759   3.895
 2869SOL    HW1 8624   2.208   3.843   3.874
 2869SOL    HW2 8625   2.221   3.694   3.940
 2870SOL     OW 8626   2.797   3.960   4.204
 2870SOL    HW1 8627   2.749   4.001   4.126
 2870SOL    HW2 8628   2.896   3.958   4.185
 2871SOL     OW 8629   2.321   4.876   4.465
 2871SOL    HW1 8630   2.250   4.849   4.530
 2871SOL    HW2 8631   2.295   4.848   4.372
 2872SOL     OW 8632   2.894   4.273   3.740
 2872SOL    HW1 8633   2.853   4.355   3.701
 2872SOL    HW2 8634   2.958   4.299   3.813
 2873SOL     OW 8635   2.728   4.178   4.366
 2873SOL    HW1 8636   2.696   4.250   4.304
 2873SOL    HW2 8637   2.752   4.097   4.313
 2874SOL     OW 8638   2.879   3.763   4.477
 2874SOL    HW1 8639   2.807   3.768   4.408
 2874SOL    HW2 8640   2.855   3.694   4.546
 2875SOL     OW 8641   3.291   4.897   4.591
 2875SOL    HW1 8642   3.236   4.813   4.584
 2875SOL    HW2 8643   3.317   4.926   4.499
 2876SOL     OW 8644   3.328   4.314   4.716
 2876SOL    HW1 8645   3.298   4.219   4.723
 2876SOL    HW2 8646   3.401   4.330   4.782
 2877SOL     OW 8647   3.719   4.557   4.101
 2877SOL    HW1 8648   3.761   4.493   4.165
 2877SOL    HW2 8649   3.681   4.506   4.023
 2878SOL     OW 8650   3.252   4.299   3.802
 2878SOL    HW1 8651   3.198   4.278   3.883
 2878SOL    HW2 8652   3.343   4.258   3.811
 2879SOL     OW 8653   2.389   3.980   4.052
 2879SOL    HW1 8654   2.416   3.921   3.977
 2879SOL    HW2 8655   2.389   4.075   4.021
 2880SOL     OW 8656   3.500   4.823   4.803
 2880SOL    HW1 8657   3.505   4.904   4.862
 2880SOL    HW2 8658   3.414   4.825   4.752
 2881SOL     OW 8659   2.567   4.774   4.092
 2881SOL    HW1 8660   2.553   4.781   4.191
 2881SOL    HW2 8661   2.651   4.723   4.074
 2882SOL     OW 8662   2.272   4.537   4.975
 2882SOL    HW1 8663   2.358   4.549   5.025
 2882SOL    HW2 8664   2.230   4.450   5.002
 2883SOL     OW 8665   2.229   4.824   4.225
 2883SOL    HW1 8666   2.222   4.907   4.169
 2883SOL    HW2 8667   2.233   4.744   4.165
 2884SOL     OW 8668   2.428   4.261   4.589
 2884SOL    HW1 8669   2.440   4.327   4.515
 2884SOL    HW2 8670   2.474   4.295   4.672
 2885SOL     OW 8671   3.444   4.363   4.196
 2885SOL    HW1 8672   3.413   4.424   4.269
 2885SOL    HW2 8673   3.494   4.415   4.127
 2886SOL     OW 8674   2.435   4.594   4.753
 2886SOL    HW1 8675   2.479   4.683   4.744
 2886SOL    HW2 8676   2.372   4.594   4.830
 2887SOL     OW 8677   3.071   4.249   3.999
 2887SOL    HW1 8678   3.084   4.165   4.053
 2887SOL    HW2 8679   3.042   4.323   4.059
 2888SOL     OW 8680   2.169   3.937   4.955
 2888SOL    HW1 8681   2.146   3.974   5.045
 2888SOL    HW2 8682   2.139   3.842   4.949
 2889SOL     OW 8683   2.594   4.358   4.788
 2889SOL    HW1 8684   2.653   4.332   4.712
 2889SOL    HW2 8685   2.566   4.454   4.777
 2890SOL     OW 8686   2.169   3.787   4.342
 2890SOL    HW1 8687   2.158   3.881   4.375
 2890SOL    HW2 8688   2.164   3.724   4.419
 2891SOL     OW 8689   3.484   4.091   4.098
 2891SOL    HW1 8690   3.486   4.015   4.162
 2891SOL    HW2 8691   3.436   4.168   4.138
 2892SOL     OW 8692   2.885   4.490   4.690
 2892SOL    HW1 8693   2.900   4.511   4.786
 2892SOL    HW2 8694   2.855   4.395   4.681
 2893SOL     OW 8695   3.402   3.998   3.849
 2893SOL    HW1 8696   3.341   3.923   3.872
 2893SOL    HW2 8697   3.424   4.050   3.932
 2894SOL     OW 8698   3.165   4.562   3.766
 2894SOL    HW1 8699   3.199   4.469   3.781
 2894SOL    HW2 8700   3.183   4.589   3.671
 2895SOL     OW 8701   2.181   4.534   4.673
 2895SOL    HW1 8702   2.274   4.570   4.678
 2895SOL    HW2 8703   2.175   4.449   4.725
 2896SOL     OW 8704   2.201   4.233   4.730
 2896SOL    HW1 8705   2.149   4.150   4.713
 2896SOL    HW2 8706   2.278   4.238   4.666
 2897SOL     OW 8707   2.864   4.520   4.962
 2897SOL    HW1 8708   2.905   4.488   5.048
 2897SOL    HW2 8709   2.768   4.493   4.959
 2898SOL     OW 8710   1.902   4.268   4.838
 2898SOL    HW1 8711   1.987   4.235   4.797
 2898SOL    HW2 8712   1.915   4.283   4.936
 2899SOL     OW 8713   2.677   4.296   4.049
 2899SOL    HW1 8714   2.684   4.207   4.003
 2899SOL    HW2 8715   2.583   4.330   4.041
 2900SOL     OW 8716   2.533   4.188   4.993
 2900SOL    HW1 8717   2.499   4.099   4.963
 2900SOL    HW2 8718   2.559   4.242   4.913
 2901SOL     OW 8719   2.335   4.224   3.915
 2901SOL    HW1 8720   2.396   4.304   3.919
 2901SOL    HW2 8721   2.240   4.255   3.922
 2902SOL     OW 8722   3.164   4.579   4.033
 2902SOL    HW1 8723   3.078   4.548   4.075
 2902SOL    HW2 8724   3.160   4.565   3.934
 2903SOL     OW 8725   3.588   3.859   4.247
 2903SOL    HW1 8726   3.661   3.842   4.180
 2903SOL    HW2 8727   3.557   3.772   4.285
 2904SOL     OW 8728   3.142   4.651   4.396
 2904SOL    HW1 8729   3.202   4.570   4.398
 2904SOL    HW2 8730   3.182   4.720   4.336
 2905SOL     OW 8731   3.703   3.899   4.687
 2905SOL    HW1 8732   3.742   3.814   4.651
 2905SOL    HW2 8733   3.605   3.901   4.668
 2906SOL     OW 8734   2.125   4.050   4.444
 2906SOL    HW1 8735   2.046   4.101   4.410
 2906SOL    HW2 8736   2.116   4.035   4.542
 2907SOL     OW 8737   2.778   4.634   4.015
 2907SOL    HW1 8738   2.841   4.672   3.947
 2907SOL    HW2 8739   2.818   4.551   4.054
 2908SOL     OW 8740   2.876   3.960   4.695
 2908SOL    HW1 8741   2.868   3.924   4.602
 2908SOL    HW2 8742   2.874   3.884   4.760
 2909SOL     OW 8743   1.937   4.069   3.757
 2909SOL    HW1 8744   1.845   4.041   3.728
 2909SOL    HW2 8745   1.968   4.146   3.701
 2910SOL     OW 8746   1.934   3.890   4.042
 2910SOL    HW1 8747   1.917   3.973   3.988
 2910SOL    HW2 8748   2.024   3.853   4.020
 2911SOL     OW 8749   3.045   5.059   3.843
 2911SOL    HW1 8750   2.946   5.048   3.845
 2911SOL    HW2 8751   3.079   5.074   3.936
 2912SOL     OW 8752   3.536   4.607   4.978
 2912SOL    HW1 8753   3.509   4.518   4.941
 2912SOL    HW2 8754   3.537   4.675   4.905
 2913SOL     OW 8755   3.087   4.049   4.173
 2913SOL    HW1 8756   3.152   3.975   4.162
 2913SOL    HW2 8757   3.107   4.099   4.257
 2914SOL     OW 8758   2.456   4.469   4.376
 2914SOL    HW1 8759   2.506   4.554   4.357
 2914SOL    HW2 8760   2.368   4.471   4.328
 2915SOL     OW 8761   2.721   4.680   4.585
 2915SOL    HW1 8762   2.775   4.611   4.633
 2915SOL    HW2 8763   2.689   4.749   4.651
 2916SOL     OW 8764   2.945   4.708   3.811
 2916SOL    HW1 8765   2.922   4.761   3.729
 2916SOL    HW2 8766   3.026   4.652   3.792
 2917SOL     OW 8767   3.686   3.916   4.951
 2917SOL    HW1 8768   3.682   3.826   4.995
 2917SOL    HW2 8769   3.689   3.905   4.852
 2918SOL     OW 8770   2.290   4.148   4.244
 2918SOL    HW1 8771   2.320   4.076   4.182
 2918SOL    HW2 8772   2.251   4.108   4.327
 2919SOL     OW 8773   3.286   3.938   4.836
 2919SOL    HW1 8774   3.338   3.873   4.891
 2919SOL    HW2 8775   3.237   4.001   4.897
 2920SOL     OW 8776   2.632   5.054   4.025
 2920SOL    HW1 8777   2.586   4.967   4.042
 2920SOL    HW2 8778   2.723   5.051   4.066
 2921SOL     OW 8779   3.214   3.776   3.892
 2921SOL    HW1 8780   3.249   3.735   3.808
 2921SOL    HW2 8781   3.124   3.738   3.912
 2922SOL     OW 8782   3.162   4.177   4.415
 2922SOL    HW1 8783   3.103   4.257   4.419
 2922SOL    HW2 8784   3.177   4.142   4.508
 2923SOL     OW 8785   3.455   3.945   4.606
 2923SOL    HW1 8786   3.371   3.944   4.660
 2923SOL    HW2 8787   3.457   4.028   4.550
 2924SOL     OW 8788   1.901   4.801   4.024
 2924SOL    HW1 8789   2.000   4.790   4.015
 2924SOL    HW2 8790   1.861   4.715   4.056
 2925SOL     OW 8791   3.954   0.628   0.113
 2925SOL    HW1 8792   3.861   0.626   0.150
 2925SOL    HW2 8793   3.955   0.589   0.021
 2926SOL     OW 8794   3.949   0.275   0.996
 2926SOL    HW1 8795   3.984   0.258   1.088
 2926SOL    HW2 8796   3.861   0.230   0.984
 2927SOL     OW 8797   3.743   0.368   0.647
 2927SOL    HW1 8798   3.661   0.411   0.686
 2927SOL    HW2 8799   3.715   0.295   0.584
 2928SOL     OW 8800   4.293   1.275   1.165
 2928SOL    HW1 8801   4.200   1.268   1.128
 2928SOL    HW2 8802   4.304   1.364   1.209
 2929SOL     OW 8803   4.492   1.144   1.023
 2929SOL    HW1 8804   4.414   1.161   1.083
 2929SOL    HW2 8805   4.526   1.231   0.987
 2930SOL     OW 8806   4.574   0.798   1.823
 2930SOL    HW1 8807   4.570   0.874   1.888
 2930SOL    HW2 8808   4.596   0.834   1.732
 2931SOL     OW 8809   4.409   1.012   0.665
 2931SOL    HW1 8810   4.478   0.996   0.735
 2931SOL    HW2 8811   4.336   1.069   0.703
 2932SOL     OW 8812   4.410   1.161   1.803
 2932SOL    HW1 8813   4.470   1.240   1.817
 2932SOL    HW2 8814   4.324   1.192   1.762
 2933SOL     OW 8815   4.059   1.435   1.061
 2933SOL    HW1 8816   3.981   1.404   1.008
 2933SOL    HW2 8817   4.117   1.493   1.004
 2934SOL     OW 8818   4.162   0.392   1.499
 2934SOL    HW1 8819   4.244   0.336   1.508
 2934SOL    HW2 8820   4.081   0.334   1.503
 2935SOL     OW 8821   3.955   1.713   0.483
 2935SOL    HW1 8822   3.989   1.790   0.537
 2935SOL    HW2 8823   3.999   1.713   0.393
 2936SOL     OW 8824   4.851   1.341   1.690
 2936SOL    HW1 8825   4.898   1.341   1.778
 2936SOL    HW2 8826   4.803   1.254   1.679
 2937SOL     OW 8827   3.954   1.434   0.538
 2937SOL    HW1 8828   3.928   1.530   0.538
 2937SOL    HW2 8829   3.883   1.380   0.583
 2938SOL     OW 8830   3.964   1.091   0.886
 2938SOL    HW1 8831   3.978   1.007   0.938
 2938SOL    HW2 8832   3.909   1.155   0.941
 2939SOL     OW 8833   4.344   1.786   1.439
 2939SOL    HW1 8834   4.252   1.769   1.474
 2939SOL    HW2 8835   4.372   1.878   1.465
 2940SOL     OW 8836   4.330   0.964   0.123
 2940SOL    HW1 8837   4.337   1.048   0.069
 2940SOL    HW2 8838   4.376   0.977   0.211
 2941SOL     OW 8839   3.846   0.643   0.563
 2941SOL    HW1 8840   3.801   0.555   0.580
 2941SOL    HW2 8841   3.845   0.697   0.647
 2942SOL     OW 8842   3.751   1.596   0.117
 2942SOL    HW1 8843   3.732   1.500   0.138
 2942SOL    HW2 8844   3.718   1.654   0.192
 2943SOL     OW 8845   3.837   0.737   1.597
 2943SOL    HW1 8846   3.925   0.724   1.642
 2943SOL    HW2 8847   3.824   0.834   1.575
 2944SOL     OW 8848   4.337   1.365   0.726
 2944SOL    HW1 8849   4.288   1.278   0.735
 2944SOL    HW2 8850   4.314   1.408   0.639
 2945SOL     OW 8851   4.533   0.004   0.502
 2945SOL    HW1 8852   4.573   0.095   0.493
 2945SOL    HW2 8853   4.433   0.012   0.508
 2946SOL     OW 8854   3.921   0.976   1.264
 2946SOL    HW1 8855   4.010   0.931   1.250
 2946SOL    HW2 8856   3.848   0.911   1.245
 2947SOL     OW 8857   4.041   0.251   1.801
 2947SOL    HW1 8858   4.112   0.322   1.807
 2947SOL    HW2 8859   3.953   0.290   1.829
 2948SOL     OW 8860   4.322   0.729   0.270
 2948SOL    HW1 8861   4.346   0.798   0.202
 2948SOL    HW2 8862   4.244   0.762   0.324
 2949SOL     OW 8863   4.531   0.605   1.465
 2949SOL    HW1 8864   4.484   0.602   1.554
 2949SOL    HW2 8865   4.480   0.550   1.399
 2950SOL     OW 8866   4.697   0.890   1.572
 2950SOL    HW1 8867   4.743   0.806   1.543
 2950SOL    HW2 8868   4.641   0.924   1.497
 2951SOL     OW 8869   4.715   0.410   1.242
 2951SOL    HW1 8870   4.638   0.444   1.296
 2951SOL    HW2 8871   4.681   0.359   1.163
 2952SOL     OW 8872   4.765   0.701   0.429
 2952SOL    HW1 8873   4.791   0.697   0.525
 2952SOL    HW2 8874   4.680   0.650   0.415
 2953SOL     OW 8875   3.800   0.811   0.789
 2953SOL    HW1 8876   3.899   0.799   0.798
 2953SOL    HW2 8877   3.776   0.906   0.810
 2954SOL     OW 8878   3.854   1.821   1.571
 2954SOL    HW1 8879   3.844   1.806   1.670
 2954SOL    HW2 8880   3.768   1.857   1.535
 2955SOL     OW 8881   4.589   0.348   0.195
 2955SOL    HW1 8882   4.648   0.411   0.146
 2955SOL    HW2 8883   4.608   0.254   0.166
 2956SOL     OW 8884   4.274   0.196   0.885
 2956SOL    HW1 8885   4.269   0.191   0.985
 2956SOL    HW2 8886   4.276   0.292   0.856
 2957SOL     OW 8887   4.732   1.456   0.477
 2957SOL    HW1 8888   4.686   1.528   0.425
 2957SOL    HW2 8889   4.728   1.476   0.575
 2958SOL     OW 8890   4.075   1.801   0.853
 2958SOL    HW1 8891   4.125   1.715   0.859
 2958SOL    HW2 8892   4.140   1.878   0.850
 2959SOL     OW 8893   4.045   0.943   0.242
 2959SOL    HW1 8894   4.127   0.982   0.200
 2959SOL    HW2 8895   4.018   0.861   0.193
 2960SOL     OW 8896   4.185   1.266   1.727
 2960SOL    HW1 8897   4.135   1.267   1.641
 2960SOL    HW2 8898   4.122   1.248   1.803
 2961SOL     OW 8899   3.926   0.285   1.498
 2961SOL    HW1 8900   3.846   0.345   1.485
 2961SOL    HW2 8901   3.916   0.236   1.584
 2962SOL     OW 8902   4.188   1.743   0.323
 2962SOL    HW1 8903   4.221   1.782   0.409
 2962SOL    HW2 8904   4.264   1.736   0.258
 2963SOL     OW 8905   3.973   1.785   1.241
 2963SOL    HW1 8906   4.030   1.720   1.291
 2963SOL    HW2 8907   3.957   1.752   1.148
 2964SOL     OW 8908   4.664   1.698   0.904
 2964SOL    HW1 8909   4.744   1.641   0.925
 2964SOL    HW2 8910   4.615   1.658   0.827
 2965SOL     OW 8911   4.106   0.700   0.480
 2965SOL    HW1 8912   4.151   0.610   0.477
 2965SOL    HW2 8913   4.012   0.689   0.513
 2966SOL     OW 8914   4.338   0.122   0.117
 2966SOL    HW1 8915   4.436   0.100   0.124
 2966SOL    HW2 8916   4.307   0.105   0.024
 2967SOL     OW 8917   4.505   0.264   1.749
 2967SOL    HW1 8918   4.572   0.203   1.792
 2967SOL    HW2 8919   4.432   0.283   1.814
 2968SOL     OW 8920   4.612   1.514   1.195
 2968SOL    HW1 8921   4.589   1.489   1.101
 2968SOL    HW2 8922   4.673   1.445   1.234
 2969SOL     OW 8923   4.527   1.402   0.924
 2969SOL    HW1 8924   4.617   1.416   0.882
 2969SOL    HW2 8925   4.456   1.404   0.853
 2970SOL     OW 8926   4.646   0.503   0.899
 2970SOL    HW1 8927   4.621   0.494   0.803
 2970SOL    HW2 8928   4.694   0.421   0.930
 2971SOL     OW 8929   4.263   0.064   0.512
 2971SOL    HW1 8930   4.182   0.065   0.570
 2971SOL    HW2 8931   4.266   0.147   0.457
 2972SOL     OW 8932   5.158   1.188   0.041
 2972SOL    HW1 8933   5.190   1.112   0.098
 2972SOL    HW2 8934   5.066   1.215   0.071
 2973SOL     OW 8935   4.021   0.035   0.171
 2973SOL    HW1 8936   4.070   0.119   0.150
 2973SOL    HW2 8937   4.083  -0.030   0.216
 2974SOL     OW 8938   4.659   0.236   0.480
 2974SOL    HW1 8939   4.611   0.277   0.402
 2974SOL    HW2 8940   4.758   0.234   0.461
 2975SOL     OW 8941   4.951   1.570   0.793
 2975SOL    HW1 8942   4.972   1.644   0.728
 2975SOL    HW2 8943   5.019   1.570   0.866
 2976SOL     OW 8944   4.183   1.152   0.741
 2976SOL    HW1 8945   4.112   1.125   0.806
 2976SOL    HW2 8946   4.157   1.124   0.648
 2977SOL     OW 8947   4.995   1.797   0.591
 2977SOL    HW1 8948   5.039   1.861   0.527
 2977SOL    HW2 8949   4.945   1.849   0.661
 2978SOL     OW 8950   4.756   0.549   0.016
 2978SOL    HW1 8951   4.715   0.631  -0.023
 2978SOL    HW2 8952   4.820   0.575   0.089
 2979SOL     OW 8953   3.802   0.556   1.386
 2979SOL    HW1 8954   3.894   0.555   1.345
 2979SOL    HW2 8955   3.796   0.630   1.453
 2980SOL     OW 8956   4.285   0.222   1.147
 2980SOL    HW1 8957   4.323   0.138   1.184
 2980SOL    HW2 8958   4.197   0.241   1.191
 2981SOL     OW 8959   4.590   0.454   0.642
 2981SOL    HW1 8960   4.558   0.526   0.580
 2981SOL    HW2 8961   4.614   0.373   0.589
 2982SOL     OW 8962   4.741   0.039   0.753
 2982SOL    HW1 8963   4.669   0.044   0.684
 2982SOL    HW2 8964   4.717  -0.030   0.822
 2983SOL     OW 8965   4.212   1.385   0.174
 2983SOL    HW1 8966   4.125   1.370   0.221
 2983SOL    HW2 8967   4.195   1.411   0.079
 2984SOL     OW 8968   4.251   0.256   0.328
 2984SOL    HW1 8969   4.278   0.197   0.253
 2984SOL    HW2 8970   4.251   0.351   0.297
 2985SOL     OW 8971   4.639   0.089   1.402
 2985SOL    HW1 8972   4.664   0.069   1.307
 2985SOL    HW2 8973   4.711   0.145   1.444
 2986SOL     OW 8974   4.704   1.116   1.719
 2986SOL    HW1 8975   4.605   1.122   1.729
 2986SOL    HW2 8976   4.727   1.036   1.663
 2987SOL     OW 8977   4.429   1.050   0.368
 2987SOL    HW1 8978   4.415   1.057   0.467
 2987SOL    HW2 8979   4.513   0.999   0.350
 2988SOL     OW 8980   4.134   0.813   1.251
 2988SOL    HW1 8981   4.220   0.825   1.301
 2988SOL    HW2 8982   4.092   0.726   1.278
 2989SOL     OW 8983   3.788   1.564   1.331
 2989SOL    HW1 8984   3.742   1.646   1.297
 2989SOL    HW2 8985   3.886   1.583   1.340
 2990SOL     OW 8986   4.091   1.100   0.501
 2990SOL    HW1 8987   4.084   1.183   0.445
 2990SOL    HW2 8988   4.095   1.020   0.441
 2991SOL     OW 8989   4.290   0.537   0.865
 2991SOL    HW1 8990   4.302   0.603   0.791
 2991SOL    HW2 8991   4.336   0.571   0.948
 2992SOL     OW 8992   4.078   1.510   1.329
 2992SOL    HW1 8993   4.057   1.466   1.242
 2992SOL    HW2 8994   4.175   1.536   1.332
 2993SOL     OW 8995   4.126   0.751   1.598
 2993SOL    HW1 8996   4.194   0.806   1.551
 2993SOL    HW2 8997   4.166   0.663   1.625
 2994SOL     OW 8998   4.737   0.105   1.770
 2994SOL    HW1 8999   4.743   0.190   1.718
 2994SOL    HW2 9000   4.769   0.029   1.713
 2995SOL     OW 9001   4.228   0.050   1.740
 2995SOL    HW1 9002   4.186  -0.007   1.670
 2995SOL    HW2 9003   4.162   0.119   1.772
 2996SOL     OW 9004   4.297   0.870   1.029
 2996SOL    HW1 9005   4.341   0.959   1.020
 2996SOL    HW2 9006   4.234   0.870   1.106
 2997SOL     OW 9007   4.933   0.525   0.275
 2997SOL    HW1 9008   4.946   0.441   0.329
 2997SOL    HW2 9009   4.904   0.599   0.335
 2998SOL     OW 9010   4.031   0.213   1.231
 2998SOL    HW1 9011   4.008   0.250   1.321
 2998SOL    HW2 9012   4.001   0.118   1.225
 2999SOL     OW 9013   3.761   1.310   1.282
 2999SOL    HW1 9014   3.814   1.261   1.350
 2999SOL    HW2 9015   3.783   1.408   1.287
 3000SOL     OW 9016   4.456   0.634   1.064
 3000SOL    HW1 9017   4.515   0.608   0.988
 3000SOL    HW2 9018   4.428   0.730   1.053
 3001SOL     OW 9019   4.031   0.063   0.618
 3001SOL    HW1 9020   4.020   0.157   0.651
 3001SOL    HW2 9021   4.026   0.000   0.695
 3002SOL     OW 9022   4.747   0.766   0.966
 3002SOL    HW1 9023   4.762   0.787   1.062
 3002SOL    HW2 9024   4.717   0.671   0.957
 3003SOL     OW 9025   4.704   1.573   1.700
 3003SOL    HW1 9026   4.684   1.617   1.612
 3003SOL    HW2 9027   4.743   1.482   1.684
 3004SOL     OW 9028   4.074   0.898   1.804
 3004SOL    HW1 9029   4.150   0.942   1.852
 3004SOL    HW2 9030   4.109   0.851   1.722
 3005SOL     OW 9031   4.792   1.333   0.849
 3005SOL    HW1 9032   4.799   1.249   0.794
 3005SOL    HW2 9033   4.854   1.402   0.813
 3006SOL     OW 9034   4.043   0.810   0.949
 3006SOL    HW1 9035   4.136   0.846   0.954
 3006SOL    HW2 9036   4.037   0.725   1.001
 3007SOL     OW 9037   4.063   0.509   1.006
 3007SOL    HW1 9038   4.011   0.426   0.989
 3007SOL    HW2 9039   4.140   0.514   0.942
 3008SOL     OW 9040   4.862   0.380   1.678
 3008SOL    HW1 9041   4.817   0.443   1.742
 3008SOL    HW2 9042   4.955   0.411   1.661
 3009SOL     OW 9043   3.732   1.326   0.200
 3009SOL    HW1 9044   3.639   1.347   0.169
 3009SOL    HW2 9045   3.742   1.227   0.213
 3010SOL     OW 9046   3.812   1.801   0.927
 3010SOL    HW1 9047   3.770   1.715   0.900
 3010SOL    HW2 9048   3.906   1.804   0.893
 3011SOL     OW 9049   4.228   1.568   0.910
 3011SOL    HW1 9050   4.294   1.642   0.919
 3011SOL    HW2 9051   4.272   1.489   0.868
 3012SOL     OW 9052   4.726   0.796   1.238
 3012SOL    HW1 9053   4.767   0.764   1.324
 3012SOL    HW2 9054   4.630   0.769   1.235
 3013SOL     OW 9055   3.764   0.544   1.114
 3013SOL    HW1 9056   3.849   0.511   1.073
 3013SOL    HW2 9057   3.777   0.559   1.212
 3014SOL     OW 9058   3.913   0.520   1.722
 3014SOL    HW1 9059   3.972   0.480   1.652
 3014SOL    HW2 9060   3.855   0.591   1.681
 3015SOL     OW 9061   4.539   0.572   0.325
 3015SOL    HW1 9062   4.546   0.483   0.279
 3015SOL    HW2 9063   4.445   0.606   0.317
 3016SOL     OW 9064   3.976   1.564   1.744
 3016SOL    HW1 9065   3.946   1.621   1.820
 3016SOL    HW2 9066   3.969   1.467   1.770
 3017SOL     OW 9067   4.395   0.464   1.269
 3017SOL    HW1 9068   4.361   0.375   1.239
 3017SOL    HW2 9069   4.421   0.518   1.189
 3018SOL     OW 9070   4.654   1.678   1.465
 3018SOL    HW1 9071   4.630   1.660   1.370
 3018SOL    HW2 9072   4.684   1.772   1.475
 3019SOL     OW 9073   4.197   0.500   0.191
 3019SOL    HW1 9074   4.258   0.580   0.195
 3019SOL    HW2 9075   4.102   0.531   0.198
 3020SOL     OW 9076   3.883   1.137   1.466
 3020SOL    HW1 9077   3.905   1.076   1.542
 3020SOL    HW2 9078   3.893   1.088   1.380
 3021SOL     OW 9079   5.026   0.855   0.309
 3021SOL    HW1 9080   4.940   0.824   0.351
 3021SOL    HW2 9081   5.022   0.841   0.210
 3022SOL     OW 9082   3.807   1.258   1.022
 3022SOL    HW1 9083   3.802   1.257   1.122
 3022SOL    HW2 9084   3.724   1.217   0.984
 3023SOL     OW 9085   4.412   1.662   1.716
 3023SOL    HW1 9086   4.356   1.743   1.725
 3023SOL    HW2 9087   4.464   1.666   1.630
 3024SOL     OW 9088   4.627   0.086   0.133
 3024SOL    HW1 9089   4.678   0.087   0.047
 3024SOL    HW2 9090   4.683   0.044   0.204
 3025SOL     OW 9091   3.854   1.794   1.851
 3025SOL    HW1 9092   3.813   1.720   1.904
 3025SOL    HW2 9093   3.918   1.845   1.909
 3026SOL     OW 9094   4.554   1.273   1.422
 3026SOL    HW1 9095   4.549   1.306   1.517
 3026SOL    HW2 9096   4.468   1.292   1.376
 3027SOL     OW 9097   4.396   1.616   0.154
 3027SOL    HW1 9098   4.405   1.626   0.055
 3027SOL    HW2 9099   4.356   1.527   0.175
 3028SOL     OW 9100   3.987   0.326   0.720
 3028SOL    HW1 9101   3.908   0.377   0.686
 3028SOL    HW2 9102   3.978   0.311   0.818
 3029SOL     OW 9103   4.546   1.002   1.372
 3029SOL    HW1 9104   4.586   1.001   1.280
 3029SOL    HW2 9105   4.556   1.094   1.412
 3030SOL     OW 9106   4.640   0.910   0.291
 3030SOL    HW1 9107   4.703   0.948   0.223
 3030SOL    HW2 9108   4.680   0.827   0.330
 3031SOL     OW 9109   4.096   1.288   1.490
 3031SOL    HW1 9110   4.083   1.381   1.456
 3031SOL    HW2 9111   4.012   1.236   1.477
 3032SOL     OW 9112   4.763   1.098   0.696
 3032SOL    HW1 9113   4.693   1.051   0.750
 3032SOL    HW2 9114   4.822   1.030   0.653
 3033SOL     OW 9115   4.738   0.236   0.971
 3033SOL    HW1 9116   4.730   0.200   0.878
 3033SOL    HW2 9117   4.736   0.160   1.036
 3034SOL     OW 9118   4.314   1.487   0.491
 3034SOL    HW1 9119   4.356   1.429   0.421
 3034SOL    HW2 9120   4.270   1.566   0.447
 3035SOL     OW 9121   3.979   1.348   0.290
 3035SOL    HW1 9122   3.883   1.349   0.263
 3035SOL    HW2 9123   3.991   1.401   0.374
 3036SOL     OW 9124   3.829   1.013   1.726
 3036SOL    HW1 9125   3.752   0.980   1.780
 3036SOL    HW2 9126   3.914   0.983   1.768
 3037SOL     OW 9127   4.396   0.203   1.489
 3037SOL    HW1 9128   4.486   0.187   1.449
 3037SOL    HW2 9129   4.404   0.208   1.588
 3038SOL     OW 9130   3.796   0.166   0.318
 3038SOL    HW1 9131   3.779   0.249   0.264
 3038SOL    HW2 9132   3.886   0.129   0.296
 3039SOL     OW 9133   4.337   0.842   1.431
 3039SOL    HW1 9134   4.393   0.923   1.414
 3039SOL    HW2 9135   4.396   0.762   1.434
 3040SOL     OW 9136   4.440   0.565   1.708
 3040SOL    HW1 9137   4.459   0.630   1.782
 3040SOL    HW2 9138   4.500   0.485   1.717
 3041SOL     OW 9139   4.114   1.741   1.560
 3041SOL    HW1 9140   4.023   1.782   1.558
 3041SOL    HW2 9141   4.107   1.647   1.592
 3042SOL     OW 9142   4.318   0.745   0.652
 3042SOL    HW1 9143   4.368   0.830   0.633
 3042SOL    HW2 9144   4.230   0.747   0.604
 3043SOL     OW 9145   4.583   1.374   0.016
 3043SOL    HW1 9146   4.537   1.389   0.104
 3043SOL    HW2 9147   4.627   1.459  -0.014
 3044SOL     OW 9148   4.385   1.790   0.953
 3044SOL    HW1 9149   4.339   1.878   0.940
 3044SOL    HW2 9150   4.484   1.802   0.946
 3045SOL     OW 9151   4.583   0.956   0.861
 3045SOL    HW1 9152   4.637   0.887   0.909
 3045SOL    HW2 9153   4.551   1.025   0.927
 3046SOL     OW 9154   4.807   0.984   0.087
 3046SOL    HW1 9155   4.784   1.037   0.005
 3046SOL    HW2 9156   4.888   0.928   0.068
 3047SOL     OW 9157   3.945   1.314   1.844
 3047SOL    HW1 9158   3.880   1.241   1.823
 3047SOL    HW2 9159   3.949   1.328   1.942
 3048SOL     OW 9160   3.803   1.240   0.653
 3048SOL    HW1 9161   3.802   1.193   0.741
 3048SOL    HW2 9162   3.885   1.212   0.602
 3049SOL     OW 9163   4.396   1.391   1.624
 3049SOL    HW1 9164   4.318   1.341   1.662
 3049SOL    HW2 9165   4.393   1.486   1.655
 3050SOL     OW 9166   4.152   0.424   0.520
 3050SOL    HW1 9167   4.182   0.352   0.458
 3050SOL    HW2 9168   4.113   0.384   0.603
 3051SOL     OW 9169   4.041   0.547   1.280
 3051SOL    HW1 9170   4.079   0.488   1.352
 3051SOL    HW2 9171   4.081   0.521   1.192
 3052SOL     OW 9172   4.536   1.586   0.687
 3052SOL    HW1 9173   4.568   1.596   0.593
 3052SOL    HW2 9174   4.457   1.524   0.689
 3053SOL     OW 9175   4.725   0.034   1.154
 3053SOL    HW1 9176   4.662  -0.038   1.123
 3053SOL    HW2 9177   4.818  -0.002   1.154
 3054SOL     OW 9178   4.494   1.330   0.301
 3054SOL    HW1 9179   4.448   1.243   0.318
 3054SOL    HW2 9180   4.585   1.327   0.342
 3055SOL     OW 9181   4.342   1.567   1.284
 3055SOL    HW1 9182   4.337   1.649   1.341
 3055SOL    HW2 9183   4.431   1.564   1.239
 3056SOL     OW 9184   3.763   1.077   0.300
 3056SOL    HW1 9185   3.862   1.066   0.291
 3056SOL    HW2 9186   3.723   0.991   0.332
 3057SOL     OW 9187   4.599   1.646   0.337
 3057SOL    HW1 9188   4.522   1.611   0.283
 3057SOL    HW2 9189   4.567   1.717   0.399
 3058SOL     OW 9190   3.954   0.628   1.975
 3058SOL    HW1 9191   3.861   0.626   2.012
 3058SOL    HW2 9192   3.955   0.589   1.883
 3059SOL     OW 9193   3.949   0.275   2.858
 3059SOL    HW1 9194   3.984   0.258   2.950
 3059SOL    HW2 9195   3.861   0.230   2.846
 3060SOL     OW 9196   3.743   0.368   2.509
 3060SOL    HW1 9197   3.661   0.411   2.548
 3060SOL    HW2 9198   3.715   0.295   2.446
 3061SOL     OW 9199   4.293   1.275   3.027
 3061SOL    HW1 9200   4.200   1.268   2.990
 3061SOL    HW2 9201   4.304   1.364   3.071
 3062SOL     OW 9202   4.492   1.144   2.885
 3062SOL    HW1 9203   4.414   1.161   2.945
 3062SOL    HW2 9204   4.526   1.231   2.849
 3063SOL     OW 9205   4.574   0.798   3.685
 3063SOL    HW1 9206   4.570   0.874   3.750
 3063SOL    HW2 9207   4.596   0.834   3.594
 3064SOL     OW 9208   4.409   1.012   2.527
 3064SOL    HW1 9209   4.478   0.996   2.597
 3064SOL    HW2 9210   4.336   1.069   2.565
 3065SOL     OW 9211   4.410   1.161   3.665
 3065SOL    HW1 9212   4.470   1.240   3.679
 3065SOL    HW2 9213   4.324   1.192   3.624
 3066SOL     OW 9214   4.059   1.435   2.923
 3066SOL    HW1 9215   3.981   1.404   2.870
 3066SOL    HW2 9216   4.117   1.493   2.866
 3067SOL     OW 9217   4.162   0.392   3.361
 3067SOL    HW1 9218   4.244   0.336   3.370
 3067SOL    HW2 9219   4.081   0.334   3.365
 3068SOL     OW 9220   3.955   1.713   2.345
 3068SOL    HW1 9221   3.989   1.790   2.399
 3068SOL    HW2 9222   3.999   1.713   2.255
 3069SOL     OW 9223   4.851   1.341   3.552
 3069SOL    HW1 9224   4.898   1.341   3.640
 3069SOL    HW2 9225   4.803   1.254   3.541
 3070SOL     OW 9226   3.954   1.434   2.400
 3070SOL    HW1 9227   3.928   1.530   2.400
 3070SOL    HW2 9228   3.883   1.380   2.445
 3071SOL     OW 9229   3.964   1.091   2.748
 3071SOL    HW1 9230   3.978   1.007   2.800
 3071SOL    HW2 9231   3.909   1.155   2.803
 3072SOL     OW 9232   4.344   1.786   3.301
 3072SOL    HW1 9233   4.252   1.769   3.336
 3072SOL    HW2 9234   4.372   1.878   3.327
 3073SOL     OW 9235   4.330   0.964   1.985
 3073SOL    HW1 9236   4.337   1.048   1.931
 3073SOL    HW2 9237   4.376   0.977   2.073
 3074SOL     OW 9238   3.846   0.643   2.425
 3074SOL    HW1 9239   3.801   0.555   2.442
 3074SOL    HW2 9240   3.845   0.697   2.509
 3075SOL     OW 9241   3.751   1.596   1.979
 3075SOL    HW1 9242   3.732   1.500   2.000
 3075SOL    HW2 9243   3.718   1.654   2.054
 3076SOL     OW 9244   3.837   0.737   3.459
 3076SOL    HW1 9245   3.925   0.724   3.504
 3076SOL    HW2 9246   3.824   0.834   3.437
 3077SOL     OW 9247   4.337   1.365   2.588
 3077SOL    HW1 9248   4.288   1.278   2.597
 3077SOL    HW2 9249   4.314   1.408   2.501
 3078SOL     OW 9250   4.533   0.004   2.364
 3078SOL    HW1 9251   4.573   0.095   2.355
 3078SOL    HW2 9252   4.433   0.012   2.370
 3079SOL     OW 9253   3.921   0.976   3.126
 3079SOL    HW1 9254   4.010   0.931   3.112
 3079SOL    HW2 9255   3.848   0.911   3.107
 3080SOL     OW 9256   4.041   0.251   3.663
 3080SOL    HW1 9257   4.112   0.322   3.669
 3080SOL    HW2 9258   3.953   0.290   3.691
 3081SOL     OW 9259   4.322   0.729   2.132
 3081SOL    HW1 9260   4.346   0.798   2.064
 3081SOL    HW2 9261   4.244   0.762   2.186
 3082SOL     OW 9262   4.531   0.605   3.327
 3082SOL    HW1 9263   4.484   0.602   3.416
 3082SOL    HW2 9264   4.480   0.550   3.261
 3083SOL     OW 9265   4.697   0.890   3.434
 3083SOL    HW1 9266   4.743   0.806   3.405
 3083SOL    HW2 9267   4.641   0.924   3.359
 3084SOL     OW 9268   4.715   0.410   3.104
 3084SOL    HW1 9269   4.638   0.444   3.158
 3084SOL    HW2 9270   4.681   0.359   3.025
 3085SOL     OW 9271   4.765   0.701   2.291
 3085SOL    HW1 9272   4.791   0.697   2.387
 3085SOL    HW2 9273   4.680   0.650   2.277
 3086SOL     OW 9274   3.800   0.811   2.651
 3086SOL    HW1 9275   3.899   0.799   2.660
 3086SOL    HW2 9276   3.776   0.906   2.672
 3087SOL     OW 9277   3.854   1.821   3.433
 3087SOL    HW1 9278   3.844   1.806   3.532
 3087SOL    HW2 9279   3.768   1.857   3.397
 3088SOL     OW 9280   4.589   0.348   2.057
 3088SOL    HW1 9281   4.648   0.411   2.008
 3088SOL    HW2 9282   4.608   0.254   2.028
 3089SOL     OW 9283   4.274   0.196   2.747
 3089SOL    HW1 9284   4.269   0.191   2.847
 3089SOL    HW2 9285   4.276   0.292   2.718
 3090SOL     OW 9286   4.732   1.456   2.339
 3090SOL    HW1 9287   4.686   1.528   2.287
 3090SOL    HW2 9288   4.728   1.476   2.437
 3091SOL     OW 9289   4.075   1.801   2.715
 3091SOL    HW1 9290   4.125   1.715   2.721
 3091SOL    HW2 9291   4.140   1.878   2.712
 3092SOL     OW 9292   4.045   0.943   2.104
 3092SOL    HW1 9293   4.127   0.982   2.062
 3092SOL    HW2 9294   4.018   0.861   2.055
 3093SOL     OW 9295   4.185   1.266   3.589
 3093SOL    HW1 9296   4.135   1.267   3.503
 3093SOL    HW2 9297   4.122   1.248   3.665
 3094SOL     OW 9298   3.926   0.285   3.360
 3094SOL    HW1 9299   3.846   0.345   3.347
 3094SOL    HW2 9300   3.916   0.236   3.446
 3095SOL     OW 9301   4.188   1.743   2.185
 3095SOL    HW1 9302   4.221   1.782   2.271
 3095SOL    HW2 9303   4.264   1.736   2.120
 3096SOL     OW 9304   3.973   1.785   3.103
 3096SOL    HW1 9305   4.030   1.720   3.153
 3096SOL    HW2 9306   3.957   1.752   3.010
 3097SOL     OW 9307   4.664   1.698   2.766
 3097SOL    HW1 9308   4.744   1.641   2.787
 3097SOL    HW2 9309   4.615   1.658   2.689
 3098SOL     OW 9310   4.106   0.700   2.342
 3098SOL    HW1 9311   4.151   0.610   2.339
 3098SOL    HW2 9312   4.012   0.689   2.375
 3099SOL     OW 9313   4.338   0.122   1.979
 3099SOL    HW1 9314   4.436   0.100   1.986
 3099SOL    HW2 9315   4.307   0.105   1.886
 3100SOL     OW 9316   4.505   0.264   3.611
 3100SOL    HW1 9317   4.572   0.203   3.654
 3100SOL    HW2 9318   4.432   0.283   3.676
 3101SOL     OW 9319   4.612   1.514   3.057
 3101SOL    HW1 9320   4.589   1.489   2.963
 3101SOL    HW2 9321   4.673   1.445   3.096
 3102SOL     OW 9322   4.527   1.402   2.786
 3102SOL    HW1 9323   4.617   1.416   2.744
 3102SOL    HW2 9324   4.456   1.404   2.715
 3103SOL     OW 9325   4.646   0.503   2.761
 3103SOL    HW1 9326   4.621   0.494   2.665
 3103SOL    HW2 9327   4.694   0.421   2.792
 3104SOL     OW 9328   4.263   0.064   2.374
 3104SOL    HW1 9329   4.182   0.065   2.432
 3104SOL    HW2 9330   4.266   0.147   2.319
 3105SOL     OW 9331   4.021   0.035   2.033
 3105SOL    HW1 9332   4.070   0.119   2.012
 3105SOL    HW2 9333   4.083  -0.030   2.078
 3106SOL     OW 9334   4.659   0.236   2.342
 3106SOL    HW1 9335   4.611   0.277   2.264
 3106SOL    HW2 9336   4.758   0.234   2.323
 3107SOL     OW 9337   4.951   1.570   2.655
 3107SOL    HW1 9338   4.972   1.644   2.590
 3107SOL    HW2 9339   5.019   1.570   2.728
 3108SOL     OW 9340   4.183   1.152   2.603
 3108SOL    HW1 9341   4.112   1.125   2.668
 3108SOL    HW2 9342   4.157   1.124   2.510
 3109SOL     OW 9343   4.995   1.797   2.453
 3109SOL    HW1 9344   5.039   1.861   2.389
 3109SOL    HW2 9345   4.945   1.849   2.523
 3110SOL     OW 9346   4.756   0.549   1.878
 3110SOL    HW1 9347   4.715   0.631   1.839
 3110SOL    HW2 9348   4.820   0.575   1.951
 3111SOL     OW 9349   3.802   0.556   3.248
 3111SOL    HW1 9350   3.894   0.555   3.207
 3111SOL    HW2 9351   3.796   0.630   3.315
 3112SOL     OW 9352   4.285   0.222   3.009
 3112SOL    HW1 9353   4.323   0.138   3.046
 3112SOL    HW2 9354   4.197   0.241   3.053
 3113SOL     OW 9355   4.590   0.454   2.504
 3113SOL    HW1 9356   4.558   0.526   2.442
 3113SOL    HW2 9357   4.614   0.373   2.451
 3114SOL     OW 9358   4.741   0.039   2.615
 3114SOL    HW1 9359   4.669   0.044   2.546
 3114SOL    HW2 9360   4.717  -0.030   2.684
 3115SOL     OW 9361   4.212   1.385   2.036
 3115SOL    HW1 9362   4.125   1.370   2.083
 3115SOL    HW2 9363   4.195   1.411   1.941
 3116SOL     OW 9364   4.251   0.256   2.190
 3116SOL    HW1 9365   4.278   0.197   2.115
 3116SOL    HW2 9366   4.251   0.351   2.159
 3117SOL     OW 9367   4.639   0.089   3.264
 3117SOL    HW1 9368   4.664   0.069   3.169
 3117SOL    HW2 9369   4.711   0.145   3.306
 3118SOL     OW 9370   4.704   1.116   3.581
 3118SOL    HW1 9371   4.605   1.122   3.591
 3118SOL    HW2 9372   4.727   1.036   3.525
 3119SOL     OW 9373   4.429   1.050   2.230
 3119SOL    HW1 9374   4.415   1.057   2.329
 3119SOL    HW2 9375   4.513   0.999   2.212
 3120SOL     OW 9376   4.134   0.813   3.113
 3120SOL    HW1 9377   4.220   0.825   3.163
 3120SOL    HW2 9378   4.092   0.726   3.140
 3121SOL     OW 9379   3.788   1.564   3.193
 3121SOL    HW1 9380   3.742   1.646   3.159
 3121SOL    HW2 9381   3.886   1.583   3.202
 3122SOL     OW 9382   4.091   1.100   2.363
 3122SOL    HW1 9383   4.084   1.183   2.307
 3122SOL    HW2 9384   4.095   1.020   2.303
 3123SOL     OW 9385   4.290   0.537   2.727
 3123SOL    HW1 9386   4.302   0.603   2.653
 3123SOL    HW2 9387   4.336   0.571   2.810
 3124SOL     OW 9388   4.078   1.510   3.191
 3124SOL    HW1 9389   4.057   1.466   3.104
 3124SOL    HW2 9390   4.175   1.536   3.194
 3125SOL     OW 9391   4.126   0.751   3.460
 3125SOL    HW1 9392   4.194   0.806   3.413
 3125SOL    HW2 9393   4.166   0.663   3.487
 3126SOL     OW 9394   4.737   0.105   3.632
 3126SOL    HW1 9395   4.743   0.190   3.580
 3126SOL    HW2 9396   4.769   0.029   3.575
 3127SOL     OW 9397   4.228   0.050   3.602
 3127SOL    HW1 9398   4.186  -0.007   3.532
 3127SOL    HW2 9399   4.162   0.119   3.634
 3128SOL     OW 9400   4.297   0.870   2.891
 3128SOL    HW1 9401   4.341   0.959   2.882
 3128SOL    HW2 9402   4.234   0.870   2.968
 3129SOL     OW 9403   4.933   0.525   2.137
 3129SOL    HW1 9404   4.946   0.441   2.191
 3129SOL    HW2 9405   4.904   0.599   2.197
 3130SOL     OW 9406   4.031   0.213   3.093
 3130SOL    HW1 9407   4.008   0.250   3.183
 3130SOL    HW2 9408   4.001   0.118   3.087
 3131SOL     OW 9409   3.761   1.310   3.144
 3131SOL    HW1 9410   3.814   1.261   3.212
 3131SOL    HW2 9411   3.783   1.408   3.149
 3132SOL     OW 9412   4.456   0.634   2.926
 3132SOL    HW1 9413   4.515   0.608   2.850
 3132SOL    HW2 9414   4.428   0.730   2.915
 3133SOL     OW 9415   4.031   0.063   2.480
 3133SOL    HW1 9416   4.020   0.157   2.513
 3133SOL    HW2 9417   4.026   0.000   2.557
 3134SOL     OW 9418   4.747   0.766   2.828
 3134SOL    HW1 9419   4.762   0.787   2.924
 3134SOL    HW2 9420   4.717   0.671   2.819
 3135SOL     OW 9421   4.704   1.573   3.562
 3135SOL    HW1 9422   4.684   1.617   3.474
 3135SOL    HW2 9423   4.743   1.482   3.546
 3136SOL     OW 9424   4.074   0.898   3.666
 3136SOL    HW1 9425   4.150   0.942   3.714
 3136SOL    HW2 9426   4.109   0.851   3.584
 3137SOL     OW 9427   4.792   1.333   2.711
 3137SOL    HW1 9428   4.799   1.249   2.656
 3137SOL    HW2 9429   4.854   1.402   2.675
 3138SOL     OW 9430   4.043   0.810   2.811
 3138SOL    HW1 9431   4.136   0.846   2.816
 3138SOL    HW2 9432   4.037   0.725   2.863
 3139SOL     OW 9433   4.063   0.509   2.868
 3139SOL    HW1 9434   4.011   0.426   2.851
 3139SOL    HW2 9435   4.140   0.514   2.804
 3140SOL     OW 9436   4.862   0.380   3.540
 3140SOL    HW1 9437   4.817   0.443   3.604
 3140SOL    HW2 9438   4.955   0.411   3.523
 3141SOL     OW 9439   3.732   1.326   2.062
 3141SOL    HW1 9440   3.639   1.347   2.031
 3141SOL    HW2 9441   3.742   1.227   2.075
 3142SOL     OW 9442   3.812   1.801   2.789
 3142SOL    HW1 9443   3.770   1.715   2.762
 3142SOL    HW2 9444   3.906   1.804   2.755
 3143SOL     OW 9445   4.228   1.568   2.772
 3143SOL    HW1 9446   4.294   1.642   2.781
 3143SOL    HW2 9447   4.272   1.489   2.730
 3144SOL     OW 9448   4.726   0.796   3.100
 3144SOL    HW1 9449   4.767   0.764   3.186
 3144SOL    HW2 9450   4.630   0.769   3.097
 3145SOL     OW 9451   3.764   0.544   2.976
 3145SOL    HW1 9452   3.849   0.511   2.935
 3145SOL    HW2 9453   3.777   0.559   3.074
 3146SOL     OW 9454   3.913   0.520   3.584
 3146SOL    HW1 9455   3.972   0.480   3.514
 3146SOL    HW2 9456   3.855   0.591   3.543
 3147SOL     OW 9457   4.539   0.572   2.187
 3147SOL    HW1 9458   4.546   0.483   2.141
 3147SOL    HW2 9459   4.445   0.606   2.179
 3148SOL     OW 9460   3.976   1.564   3.606
 3148SOL    HW1 9461   3.946   1.621   3.682
 3148SOL    HW2 9462   3.969   1.467   3.632
 3149SOL     OW 9463   4.395   0.464   3.131
 3149SOL    HW1 9464   4.361   0.375   3.101
 3149SOL    HW2 9465   4.421   0.518   3.051
 3150SOL     OW 9466   4.654   1.678   3.327
 3150SOL    HW1 9467   4.630   1.660   3.232
 3150SOL    HW2 9468   4.684   1.772   3.337
 3151SOL     OW 9469   4.197   0.500   2.053
 3151SOL    HW1 9470   4.258   0.580   2.057
 3151SOL    HW2 9471   4.102   0.531   2.060
 3152SOL     OW 9472   3.883   1.137   3.328
 3152SOL    HW1 9473   3.905   1.076   3.404
 3152SOL    HW2 9474   3.893   1.088   3.242
 3153SOL     OW 9475   5.026   0.855   2.171
 3153SOL    HW1 9476   4.940   0.824   2.213
 3153SOL    HW2 9477   5.022   0.841   2.072
 3154SOL     OW 9478   3.807   1.258   2.884
 3154SOL    HW1 9479   3.802   1.257   2.984
 3154SOL    HW2 9480   3.724   1.217   2.846
 3155SOL     OW 9481   4.412   1.662   3.578
 3155SOL    HW1 9482   4.356   1.743   3.587
 3155SOL    HW2 9483   4.464   1.666   3.492
 3156SOL     OW 9484   3.854   1.794   3.713
 3156SOL    HW1 9485   3.813   1.720   3.766
 3156SOL    HW2 9486   3.918   1.845   3.771
 3157SOL     OW 9487   4.554   1.273   3.284
 3157SOL    HW1 9488   4.549   1.306   3.379
 3157SOL    HW2 9489   4.468   1.292   3.238
 3158SOL     OW 9490   4.396   1.616   2.016
 3158SOL    HW1 9491   4.405   1.626   1.917
 3158SOL    HW2 9492   4.356   1.527   2.037
 3159SOL     OW 9493   3.987   0.326   2.582
 3159SOL    HW1 9494   3.908   0.377   2.548
 3159SOL    HW2 9495   3.978   0.311   2.680
 3160SOL     OW 9496   4.546   1.002   3.234
 3160SOL    HW1 9497   4.586   1.001   3.142
 3160SOL    HW2 9498   4.556   1.094   3.274
 3161SOL     OW 9499   4.640   0.910   2.153
 3161SOL    HW1 9500   4.703   0.948   2.085
 3161SOL    HW2 9501   4.680   0.827   2.192
 3162SOL     OW 9502   4.096   1.288   3.352
 3162SOL    HW1 9503   4.083   1.381   3.318
 3162SOL    HW2 9504   4.012   1.236   3.339
 3163SOL     OW 9505   4.763   1.098   2.558
 3163SOL    HW1 9506   4.693   1.051   2.612
 3163SOL    HW2 9507   4.822   1.030   2.515
 3164SOL     OW 9508   4.738   0.236   2.833
 3164SOL    HW1 9509   4.730   0.200   2.740
 3164SOL    HW2 9510   4.736   0.160   2.898
 3165SOL     OW 9511   4.314   1.487   2.353
 3165SOL    HW1 9512   4.356   1.429   2.283
 3165SOL    HW2 9513   4.270   1.566   2.309
 3166SOL     OW 9514   3.979   1.348   2.152
 3166SOL    HW1 9515   3.883   1.349   2.125
 3166SOL    HW2 9516   3.991   1.401   2.236
 3167SOL     OW 9517   3.829   1.013   3.588
 3167SOL    HW1 9518   3.752   0.980   3.642
 3167SOL    HW2 9519   3.914   0.983   3.630
 3168SOL     OW 9520   4.396   0.203   3.351
 3168SOL    HW1 9521   4.486   0.187   3.311
 3168SOL    HW2 9522   4.404   0.208   3.450
 3169SOL     OW 9523   3.799   0.345   1.895
 3169SOL    HW1 9524   3.707   0.317   1.866
 3169SOL    HW2 9525   3.830   0.422   1.839
 3170SOL     OW 9526   3.796   0.166   2.180
 3170SOL    HW1 9527   3.779   0.249   2.126
 3170SOL    HW2 9528   3.886   0.129   2.158
 3171SOL     OW 9529   4.337   0.842   3.293
 3171SOL    HW1 9530   4.393   0.923   3.276
 3171SOL    HW2 9531   4.396   0.762   3.296
 3172SOL     OW 9532   4.440   0.565   3.570
 3172SOL    HW1 9533   4.459   0.630   3.644
 3172SOL    HW2 9534   4.500   0.485   3.579
 3173SOL     OW 9535   4.114   1.741   3.422
 3173SOL    HW1 9536   4.023   1.782   3.420
 3173SOL    HW2 9537   4.107   1.647   3.454
 3174SOL     OW 9538   4.318   0.745   2.514
 3174SOL    HW1 9539   4.368   0.830   2.495
 3174SOL    HW2 9540   4.230   0.747   2.466
 3175SOL     OW 9541   4.583   1.374   1.878
 3175SOL    HW1 9542   4.537   1.389   1.966
 3175SOL    HW2 9543   4.627   1.459   1.848
 3176SOL     OW 9544   4.385   1.790   2.815
 3176SOL    HW1 9545   4.339   1.878   2.802
 3176SOL    HW2 9546   4.484   1.802   2.808
 3177SOL     OW 9547   4.583   0.956   2.723
 3177SOL    HW1 9548   4.637   0.887   2.771
 3177SOL    HW2 9549   4.551   1.025   2.789
 3178SOL     OW 9550   4.807   0.984   1.949
 3178SOL    HW1 9551   4.784   1.037   1.867
 3178SOL    HW2 9552   4.888   0.928   1.930
 3179SOL     OW 9553   3.945   1.314   3.706
 3179SOL    HW1 9554   3.880   1.241   3.685
 3179SOL    HW2 9555   3.949   1.328   3.804
 3180SOL     OW 9556   3.803   1.240   2.515
 3180SOL    HW1 9557   3.802   1.193   2.603
 3180SOL    HW2 9558   3.885   1.212   2.464
 3181SOL     OW 9559   4.396   1.391   3.486
 3181SOL    HW1 9560   4.318   1.341   3.524
 3181SOL    HW2 9561   4.393   1.486   3.517
 3182SOL     OW 9562   4.152   0.424   2.382
 3182SOL    HW1 9563   4.182   0.352   2.320
 3182SOL    HW2 9564   4.113   0.384   2.465
 3183SOL     OW 9565   4.041   0.547   3.142
 3183SOL    HW1 9566   4.079   0.488   3.214
 3183SOL    HW2 9567   4.081   0.521   3.054
 3184SOL     OW 9568   4.536   1.586   2.549
 3184SOL    HW1 9569   4.568   1.596   2.455
 3184SOL    HW2 9570   4.457   1.524   2.551
 3185SOL     OW 9571   4.725   0.034   3.016
 3185SOL    HW1 9572   4.662  -0.038   2.985
 3185SOL    HW2 9573   4.818  -0.002   3.016
 3186SOL     OW 9574   4.494   1.330   2.163
 3186SOL    HW1 9575   4.448   1.243   2.180
 3186SOL    HW2 9576   4.585   1.327   2.204
 3187SOL     OW 9577   4.342   1.567   3.146
 3187SOL    HW1 9578   4.337   1.649   3.203
 3187SOL    HW2 9579   4.431   1.564   3.101
 3188SOL     OW 9580   3.763   1.077   2.162
 3188SOL    HW1 9581   3.862   1.066   2.153
 3188SOL    HW2 9582   3.723   0.991   2.194
 3189SOL     OW 9583   4.599   1.646   2.199
 3189SOL    HW1 9584   4.522   1.611   2.145
 3189SOL    HW2 9585   4.567   1.717   2.261
 3190SOL     OW 9586   3.954   0.628   3.837
 3190SOL    HW1 9587   3.861   0.626   3.874
 3190SOL    HW2 9588   3.955   0.589   3.745
 3191SOL     OW 9589   3.949   0.275   4.720
 3191SOL    HW1 9590   3.984   0.258   4.812
 3191SOL    HW2 9591   3.861   0.230   4.708
 3192SOL     OW 9592   3.743   0.368   4.371
 3192SOL    HW1 9593   3.661   0.411   4.410
 3192SOL    HW2 9594   3.715   0.295   4.308
 3193SOL     OW 9595   4.492   1.144   4.747
 3193SOL    HW1 9596   4.414   1.161   4.807
 3193SOL    HW2 9597   4.526   1.231   4.711
 3194SOL     OW 9598   4.409   1.012   4.389
 3194SOL    HW1 9599   4.478   0.996   4.459
 3194SOL    HW2 9600   4.336   1.069   4.427
 3195SOL     OW 9601   4.059   1.435   4.785
 3195SOL    HW1 9602   3.981   1.404   4.732
 3195SOL    HW2 9603   4.117   1.493   4.728
 3196SOL     OW 9604   3.955   1.713   4.207
 3196SOL    HW1 9605   3.989   1.790   4.261
 3196SOL    HW2 9606   3.999   1.713   4.117
 3197SOL     OW 9607   3.954   1.434   4.262
 3197SOL    HW1 9608   3.928   1.530   4.262
 3197SOL    HW2 9609   3.883   1.380   4.307
 3198SOL     OW 9610   3.964   1.091   4.610
 3198SOL    HW1 9611   3.978   1.007   4.662
 3198SOL    HW2 9612   3.909   1.155   4.665
 3199SOL     OW 9613   4.330   0.964   3.847
 3199SOL    HW1 9614   4.337   1.048   3.793
 3199SOL    HW2 9615   4.376   0.977   3.935
 3200SOL     OW 9616   3.846   0.643   4.287
 3200SOL    HW1 9617   3.801   0.555   4.304
 3200SOL    HW2 9618   3.845   0.697   4.371
 3201SOL     OW 9619   3.751   1.596   3.841
 3201SOL    HW1 9620   3.732   1.500   3.862
 3201SOL    HW2 9621   3.718   1.654   3.916
 3202SOL     OW 9622   4.337   1.365   4.450
 3202SOL    HW1 9623   4.288   1.278   4.459
 3202SOL    HW2 9624   4.314   1.408   4.363
 3203SOL     OW 9625   4.533   0.004   4.226
 3203SOL    HW1 9626   4.573   0.095   4.217
 3203SOL    HW2 9627   4.433   0.012   4.232
 3204SOL     OW 9628   3.921   0.976   4.988
 3204SOL    HW1 9629   4.010   0.931   4.974
 3204SOL    HW2 9630   3.848   0.911   4.969
 3205SOL     OW 9631   4.322   0.729   3.994
 3205SOL    HW1 9632   4.346   0.798   3.926
 3205SOL    HW2 9633   4.244   0.762   4.048
 3206SOL     OW 9634   4.765   0.701   4.153
 3206SOL    HW1 9635   4.791   0.697   4.249
 3206SOL    HW2 9636   4.680   0.650   4.139
 3207SOL     OW 9637   3.800   0.811   4.513
 3207SOL    HW1 9638   3.899   0.799   4.522
 3207SOL    HW2 9639   3.776   0.906   4.534
 3208SOL     OW 9640   4.589   0.348   3.919
 3208SOL    HW1 9641   4.648   0.411   3.870
 3208SOL    HW2 9642   4.608   0.254   3.890
 3209SOL     OW 9643   4.274   0.196   4.609
 3209SOL    HW1 9644   4.269   0.191   4.709
 3209SOL    HW2 9645   4.276   0.292   4.580
 3210SOL     OW 9646   4.732   1.456   4.201
 3210SOL    HW1 9647   4.686   1.528   4.149
 3210SOL    HW2 9648   4.728   1.476   4.299
 3211SOL     OW 9649   4.075   1.801   4.577
 3211SOL    HW1 9650   4.125   1.715   4.583
 3211SOL    HW2 9651   4.140   1.878   4.574
 3212SOL     OW 9652   4.045   0.943   3.966
 3212SOL    HW1 9653   4.127   0.982   3.924
 3212SOL    HW2 9654   4.018   0.861   3.917
 3213SOL     OW 9655   4.188   1.743   4.047
 3213SOL    HW1 9656   4.221   1.782   4.133
 3213SOL    HW2 9657   4.264   1.736   3.982
 3214SOL     OW 9658   3.973   1.785   4.965
 3214SOL    HW1 9659   4.030   1.720   5.015
 3214SOL    HW2 9660   3.957   1.752   4.872
 3215SOL     OW 9661   4.664   1.698   4.628
 3215SOL    HW1 9662   4.744   1.641   4.649
 3215SOL    HW2 9663   4.615   1.658   4.551
 3216SOL     OW 9664   4.106   0.700   4.204
 3216SOL    HW1 9665   4.151   0.610   4.201
 3216SOL    HW2 9666   4.012   0.689   4.237
 3217SOL     OW 9667   4.338   0.122   3.841
 3217SOL    HW1 9668   4.436   0.100   3.848
 3217SOL    HW2 9669   4.307   0.105   3.748
 3218SOL     OW 9670   4.527   1.402   4.648
 3218SOL    HW1 9671   4.617   1.416   4.606
 3218SOL    HW2 9672   4.456   1.404   4.577
 3219SOL     OW 9673   4.646   0.503   4.623
 3219SOL    HW1 9674   4.621   0.494   4.527
 3219SOL    HW2 9675   4.694   0.421   4.654
 3220SOL     OW 9676   4.263   0.064   4.236
 3220SOL    HW1 9677   4.182   0.065   4.294
 3220SOL    HW2 9678   4.266   0.147   4.181
 3221SOL     OW 9679   4.021   0.035   3.895
 3221SOL    HW1 9680   4.070   0.119   3.874
 3221SOL    HW2 9681   4.083  -0.030   3.940
 3222SOL     OW 9682   4.659   0.236   4.204
 3222SOL    HW1 9683   4.611   0.277   4.126
 3222SOL    HW2 9684   4.758   0.234   4.185
 3223SOL     OW 9685   4.951   1.570   4.517
 3223SOL    HW1 9686   4.972   1.644   4.452
 3223SOL    HW2 9687   5.019   1.570   4.590
 3224SOL     OW 9688   4.183   1.152   4.465
 3224SOL    HW1 9689   4.112   1.125   4.530
 3224SOL    HW2 9690   4.157   1.124   4.372
 3225SOL     OW 9691   4.995   1.797   4.315
 3225SOL    HW1 9692   5.039   1.861   4.251
 3225SOL    HW2 9693   4.945   1.849   4.385
 3226SOL     OW 9694   4.756   0.549   3.740
 3226SOL    HW1 9695   4.715   0.631   3.701
 3226SOL    HW2 9696   4.820   0.575   3.813
 3227SOL     OW 9697   4.590   0.454   4.366
 3227SOL    HW1 9698   4.558   0.526   4.304
 3227SOL    HW2 9699   4.614   0.373   4.313
 3228SOL     OW 9700   4.741   0.039   4.477
 3228SOL    HW1 9701   4.669   0.044   4.408
 3228SOL    HW2 9702   4.717  -0.030   4.546
 3229SOL     OW 9703   4.212   1.385   3.898
 3229SOL    HW1 9704   4.125   1.370   3.945
 3229SOL    HW2 9705   4.195   1.411   3.803
 3230SOL     OW 9706   4.251   0.256   4.052
 3230SOL    HW1 9707   4.278   0.197   3.977
 3230SOL    HW2 9708   4.251   0.351   4.021
 3231SOL     OW 9709   4.429   1.050   4.092
 3231SOL    HW1 9710   4.415   1.057   4.191
 3231SOL    HW2 9711   4.513   0.999   4.074
 3232SOL     OW 9712   4.134   0.813   4.975
 3232SOL    HW1 9713   4.220   0.825   5.025
 3232SOL    HW2 9714   4.092   0.726   5.002
 3233SOL     OW 9715   4.091   1.100   4.225
 3233SOL    HW1 9716   4.084   1.183   4.169
 3233SOL    HW2 9717   4.095   1.020   4.165
 3234SOL     OW 9718   4.290   0.537   4.589
 3234SOL    HW1 9719   4.302   0.603   4.515
 3234SOL    HW2 9720   4.336   0.571   4.672
 3235SOL     OW 9721   4.078   1.510   5.053
 3235SOL    HW1 9722   4.057   1.466   4.966
 3235SOL    HW2 9723   4.175   1.536   5.056
 3236SOL     OW 9724   4.297   0.870   4.753
 3236SOL    HW1 9725   4.341   0.959   4.744
 3236SOL    HW2 9726   4.234   0.870   4.830
 3237SOL     OW 9727   4.933   0.525   3.999
 3237SOL    HW1 9728   4.946   0.441   4.053
 3237SOL    HW2 9729   4.904   0.599   4.059
 3238SOL     OW 9730   4.456   0.634   4.788
 3238SOL    HW1 9731   4.515   0.608   4.712
 3238SOL    HW2 9732   4.428   0.730   4.777
 3239SOL     OW 9733   4.031   0.063   4.342
 3239SOL    HW1 9734   4.020   0.157   4.375
 3239SOL    HW2 9735   4.026   0.000   4.419
 3240SOL     OW 9736   4.747   0.766   4.690
 3240SOL    HW1 9737   4.762   0.787   4.786
 3240SOL    HW2 9738   4.717   0.671   4.681
 3241SOL     OW 9739   4.792   1.333   4.573
 3241SOL    HW1 9740   4.799   1.249   4.518
 3241SOL    HW2 9741   4.854   1.402   4.537
 3242SOL     OW 9742   4.043   0.810   4.673
 3242SOL    HW1 9743   4.136   0.846   4.678
 3242SOL    HW2 9744   4.037   0.725   4.725
 3243SOL     OW 9745   4.063   0.509   4.730
 3243SOL    HW1 9746   4.011   0.426   4.713
 3243SOL    HW2 9747   4.140   0.514   4.666
 3244SOL     OW 9748   3.732   1.326   3.924
 3244SOL    HW1 9749   3.639   1.347   3.893
 3244SOL    HW2 9750   3.742   1.227   3.937
 3245SOL     OW 9751   3.812   1.801   4.651
 3245SOL    HW1 9752   3.770   1.715   4.624
 3245SOL    HW2 9753   3.906   1.804   4.617
 3246SOL     OW 9754   4.228   1.568   4.634
 3246SOL    HW1 9755   4.294   1.642   4.643
 3246SOL    HW2 9756   4.272   1.489   4.592
 3247SOL     OW 9757   4.726   0.796   4.962
 3247SOL    HW1 9758   4.767   0.764   5.048
 3247SOL    HW2 9759   4.630   0.769   4.959
 3248SOL     OW 9760   3.764   0.544   4.838
 3248SOL    HW1 9761   3.849   0.511   4.797
 3248SOL    HW2 9762   3.777   0.559   4.936
 3249SOL     OW 9763   4.539   0.572   4.049
 3249SOL    HW1 9764   4.546   0.483   4.003
 3249SOL    HW2 9765   4.445   0.606   4.041
 3250SOL     OW 9766   4.395   0.464   4.993
 3250SOL    HW1 9767   4.361   0.375   4.963
 3250SOL    HW2 9768   4.421   0.518   4.913
 3251SOL     OW 9769   4.197   0.500   3.915
 3251SOL    HW1 9770   4.258   0.580   3.919
 3251SOL    HW2 9771   4.102   0.531   3.922
 3252SOL     OW 9772   5.026   0.855   4.033
 3252SOL    HW1 9773   4.940   0.824   4.075
 3252SOL    HW2 9774   5.022   0.841   3.934
 3253SOL     OW 9775   3.807   1.258   4.746
 3253SOL    HW1 9776   3.802   1.257   4.846
 3253SOL    HW2 9777   3.724   1.217   4.708
 3254SOL     OW 9778   4.396   1.616   3.878
 3254SOL    HW1 9779   4.405   1.626   3.779
 3254SOL    HW2 9780   4.356   1.527   3.899
 3255SOL     OW 9781   3.987   0.326   4.444
 3255SOL    HW1 9782   3.908   0.377   4.410
 3255SOL    HW2 9783   3.978   0.311   4.542
 3256SOL     OW 9784   4.640   0.910   4.015
 3256SOL    HW1 9785   4.703   0.948   3.947
 3256SOL    HW2 9786   4.680   0.827   4.054
 3257SOL     OW 9787   4.763   1.098   4.420
 3257SOL    HW1 9788   4.693   1.051   4.474
 3257SOL    HW2 9789   4.822   1.030   4.377
 3258SOL     OW 9790   4.738   0.236   4.695
 3258SOL    HW1 9791   4.730   0.200   4.602
 3258SOL    HW2 9792   4.736   0.160   4.760
 3259SOL     OW 9793   4.314   1.487   4.215
 3259SOL    HW1 9794   4.356   1.429   4.145
 3259SOL    HW2 9795   4.270   1.566   4.171
 3260SOL     OW 9796   3.979   1.348   4.014
 3260SOL    HW1 9797   3.883   1.349   3.987
 3260SOL    HW2 9798   3.991   1.401   4.098
 3261SOL     OW 9799   3.799   0.345   3.757
 3261SOL    HW1 9800   3.707   0.317   3.728
 3261SOL    HW2 9801   3.830   0.422   3.701
 3262SOL     OW 9802   3.796   0.166   4.042
 3262SOL    HW1 9803   3.779   0.249   3.988
 3262SOL    HW2 9804   3.886   0.129   4.020
 3263SOL     OW 9805   4.318   0.745   4.376
 3263SOL    HW1 9806   4.368   0.830   4.357
 3263SOL    HW2 9807   4.230   0.747   4.328
 3264SOL     OW 9808   4.583   1.374   3.740
 3264SOL    HW1 9809   4.537   1.389   3.828
 3264SOL    HW2 9810   4.627   1.459   3.710
 3265SOL     OW 9811   4.385   1.790   4.677
 3265SOL    HW1 9812   4.339   1.878   4.664
 3265SOL    HW2 9813   4.484   1.802   4.670
 3266SOL     OW 9814   4.583   0.956   4.585
 3266SOL    HW1 9815   4.637   0.887   4.633
 3266SOL    HW2 9816   4.551   1.025   4.651
 3267SOL     OW 9817   4.807   0.984   3.811
 3267SOL    HW1 9818   4.784   1.037   3.729
 3267SOL    HW2 9819   4.888   0.928   3.792
 3268SOL     OW 9820   3.803   1.240   4.377
 3268SOL    HW1 9821   3.802   1.193   4.465
 3268SOL    HW2 9822   3.885   1.212   4.326
 3269SOL     OW 9823   4.152   0.424   4.244
 3269SOL    HW1 9824   4.182   0.352   4.182
 3269SOL    HW2 9825   4.113   0.384   4.327
 3270SOL     OW 9826   4.536   1.586   4.411
 3270SOL    HW1 9827   4.568   1.596   4.317
 3270SOL    HW2 9828   4.457   1.524   4.413
 3271SOL     OW 9829   4.494   1.330   4.025
 3271SOL    HW1 9830   4.448   1.243   4.042
 3271SOL    HW2 9831   4.585   1.327   4.066
 3272SOL     OW 9832   3.763   1.077   4.024
 3272SOL    HW1 9833   3.862   1.066   4.015
 3272SOL    HW2 9834   3.723   0.991   4.056
 3273SOL     OW 9835   4.599   1.646   4.061
 3273SOL    HW1 9836   4.522   1.611   4.007
 3273SOL    HW2 9837   4.567   1.717   4.123
 3274SOL     OW 9838   3.954   2.490   0.113
 3274SOL    HW1 9839   3.861   2.488   0.150
 3274SOL    HW2 9840   3.955   2.451   0.021
 3275SOL     OW 9841   3.949   2.137   0.996
 3275SOL    HW1 9842   3.984   2.120   1.088
 3275SOL    HW2 9843   3.861   2.092   0.984
 3276SOL     OW 9844   3.743   2.230   0.647
 3276SOL    HW1 9845   3.661   2.273   0.686
 3276SOL    HW2 9846   3.715   2.157   0.584
 3277SOL     OW 9847   4.293   3.137   1.165
 3277SOL    HW1 9848   4.200   3.130   1.128
 3277SOL    HW2 9849   4.304   3.226   1.209
 3278SOL     OW 9850   4.492   3.006   1.023
 3278SOL    HW1 9851   4.414   3.023   1.083
 3278SOL    HW2 9852   4.526   3.093   0.987
 3279SOL     OW 9853   4.574   2.660   1.823
 3279SOL    HW1 9854   4.570   2.736   1.888
 3279SOL    HW2 9855   4.596   2.696   1.732
 3280SOL     OW 9856   4.409   2.874   0.665
 3280SOL    HW1 9857   4.478   2.858   0.735
 3280SOL    HW2 9858   4.336   2.931   0.703
 3281SOL     OW 9859   4.410   3.023   1.803
 3281SOL    HW1 9860   4.470   3.102   1.817
 3281SOL    HW2 9861   4.324   3.054   1.762
 3282SOL     OW 9862   4.059   3.297   1.061
 3282SOL    HW1 9863   3.981   3.266   1.008
 3282SOL    HW2 9864   4.117   3.355   1.004
 3283SOL     OW 9865   4.162   2.254   1.499
 3283SOL    HW1 9866   4.244   2.198   1.508
 3283SOL    HW2 9867   4.081   2.196   1.503
 3284SOL     OW 9868   3.955   3.575   0.483
 3284SOL    HW1 9869   3.989   3.652   0.537
 3284SOL    HW2 9870   3.999   3.575   0.393
 3285SOL     OW 9871   4.851   3.203   1.690
 3285SOL    HW1 9872   4.898   3.203   1.778
 3285SOL    HW2 9873   4.803   3.116   1.679
 3286SOL     OW 9874   3.954   3.296   0.538
 3286SOL    HW1 9875   3.928   3.392   0.538
 3286SOL    HW2 9876   3.883   3.242   0.583
 3287SOL     OW 9877   3.964   2.953   0.886
 3287SOL    HW1 9878   3.978   2.869   0.938
 3287SOL    HW2 9879   3.909   3.017   0.941
 3288SOL     OW 9880   4.344   3.648   1.439
 3288SOL    HW1 9881   4.252   3.631   1.474
 3288SOL    HW2 9882   4.372   3.740   1.465
 3289SOL     OW 9883   4.330   2.826   0.123
 3289SOL    HW1 9884   4.337   2.910   0.069
 3289SOL    HW2 9885   4.376   2.839   0.211
 3290SOL     OW 9886   3.846   2.505   0.563
 3290SOL    HW1 9887   3.801   2.417   0.580
 3290SOL    HW2 9888   3.845   2.559   0.647
 3291SOL     OW 9889   3.751   3.458   0.117
 3291SOL    HW1 9890   3.732   3.362   0.138
 3291SOL    HW2 9891   3.718   3.516   0.192
 3292SOL     OW 9892   3.837   2.599   1.597
 3292SOL    HW1 9893   3.925   2.586   1.642
 3292SOL    HW2 9894   3.824   2.696   1.575
 3293SOL     OW 9895   4.337   3.227   0.726
 3293SOL    HW1 9896   4.288   3.140   0.735
 3293SOL    HW2 9897   4.314   3.270   0.639
 3294SOL     OW 9898   4.533   1.866   0.502
 3294SOL    HW1 9899   4.573   1.957   0.493
 3294SOL    HW2 9900   4.433   1.874   0.508
 3295SOL     OW 9901   3.921   2.838   1.264
 3295SOL    HW1 9902   4.010   2.793   1.250
 3295SOL    HW2 9903   3.848   2.773   1.245
 3296SOL     OW 9904   4.041   2.113   1.801
 3296SOL    HW1 9905   4.112   2.184   1.807
 3296SOL    HW2 9906   3.953   2.152   1.829
 3297SOL     OW 9907   4.322   2.591   0.270
 3297SOL    HW1 9908   4.346   2.660   0.202
 3297SOL    HW2 9909   4.244   2.624   0.324
 3298SOL     OW 9910   4.531   2.467   1.465
 3298SOL    HW1 9911   4.484   2.464   1.554
 3298SOL    HW2 9912   4.480   2.412   1.399
 3299SOL     OW 9913   4.697   2.752   1.572
 3299SOL    HW1 9914   4.743   2.668   1.543
 3299SOL    HW2 9915   4.641   2.786   1.497
 3300SOL     OW 9916   4.715   2.272   1.242
 3300SOL    HW1 9917   4.638   2.306   1.296
 3300SOL    HW2 9918   4.681   2.221   1.163
 3301SOL     OW 9919   4.765   2.563   0.429
 3301SOL    HW1 9920   4.791   2.559   0.525
 3301SOL    HW2 9921   4.680   2.512   0.415
 3302SOL     OW 9922   3.800   2.673   0.789
 3302SOL    HW1 9923   3.899   2.661   0.798
 3302SOL    HW2 9924   3.776   2.768   0.810
 3303SOL     OW 9925   3.854   3.683   1.571
 3303SOL    HW1 9926   3.844   3.668   1.670
 3303SOL    HW2 9927   3.768   3.719   1.535
 3304SOL     OW 9928   4.589   2.210   0.195
 3304SOL    HW1 9929   4.648   2.273   0.146
 3304SOL    HW2 9930   4.608   2.116   0.166
 3305SOL     OW 9931   4.274   2.058   0.885
 3305SOL    HW1 9932   4.269   2.053   0.985
 3305SOL    HW2 9933   4.276   2.154   0.856
 3306SOL     OW 9934   4.732   3.318   0.477
 3306SOL    HW1 9935   4.686   3.390   0.425
 3306SOL    HW2 9936   4.728   3.338   0.575
 3307SOL     OW 9937   4.075   3.663   0.853
 3307SOL    HW1 9938   4.125   3.577   0.859
 3307SOL    HW2 9939   4.140   3.740   0.850
 3308SOL     OW 9940   4.045   2.805   0.242
 3308SOL    HW1 9941   4.127   2.844   0.200
 3308SOL    HW2 9942   4.018   2.723   0.193
 3309SOL     OW 9943   4.185   3.128   1.727
 3309SOL    HW1 9944   4.135   3.129   1.641
 3309SOL    HW2 9945   4.122   3.110   1.803
 3310SOL     OW 9946   3.926   2.147   1.498
 3310SOL    HW1 9947   3.846   2.207   1.485
 3310SOL    HW2 9948   3.916   2.098   1.584
 3311SOL     OW 9949   4.188   3.605   0.323
 3311SOL    HW1 9950   4.221   3.644   0.409
 3311SOL    HW2 9951   4.264   3.598   0.258
 3312SOL     OW 9952   3.973   3.647   1.241
 3312SOL    HW1 9953   4.030   3.582   1.291
 3312SOL    HW2 9954   3.957   3.614   1.148
 3313SOL     OW 9955   4.664   3.560   0.904
 3313SOL    HW1 9956   4.744   3.503   0.925
 3313SOL    HW2 9957   4.615   3.520   0.827
 3314SOL     OW 9958   4.106   2.562   0.480
 3314SOL    HW1 9959   4.151   2.472   0.477
 3314SOL    HW2 9960   4.012   2.551   0.513
 3315SOL     OW 9961   4.338   1.984   0.117
 3315SOL    HW1 9962   4.436   1.962   0.124
 3315SOL    HW2 9963   4.307   1.967   0.024
 3316SOL     OW 9964   4.505   2.126   1.749
 3316SOL    HW1 9965   4.572   2.065   1.792
 3316SOL    HW2 9966   4.432   2.145   1.814
 3317SOL     OW 9967   4.612   3.376   1.195
 3317SOL    HW1 9968   4.589   3.351   1.101
 3317SOL    HW2 9969   4.673   3.307   1.234
 3318SOL     OW 9970   4.527   3.264   0.924
 3318SOL    HW1 9971   4.617   3.278   0.882
 3318SOL    HW2 9972   4.456   3.266   0.853
 3319SOL     OW 9973   4.646   2.365   0.899
 3319SOL    HW1 9974   4.621   2.356   0.803
 3319SOL    HW2 9975   4.694   2.283   0.930
 3320SOL     OW 9976   4.263   1.926   0.512
 3320SOL    HW1 9977   4.182   1.927   0.570
 3320SOL    HW2 9978   4.266   2.009   0.457
 3321SOL     OW 9979   5.158   3.050   0.041
 3321SOL    HW1 9980   5.190   2.974   0.098
 3321SOL    HW2 9981   5.066   3.077   0.071
 3322SOL     OW 9982   4.659   2.098   0.480
 3322SOL    HW1 9983   4.611   2.139   0.402
 3322SOL    HW2 9984   4.758   2.096   0.461
 3323SOL     OW 9985   4.951   3.432   0.793
 3323SOL    HW1 9986   4.972   3.506   0.728
 3323SOL    HW2 9987   5.019   3.432   0.866
 3324SOL     OW 9988   4.183   3.014   0.741
 3324SOL    HW1 9989   4.112   2.987   0.806
 3324SOL    HW2 9990   4.157   2.986   0.648
 3325SOL     OW 9991   4.995   3.659   0.591
 3325SOL    HW1 9992   5.039   3.723   0.527
 3325SOL    HW2 9993   4.945   3.711   0.661
 3326SOL     OW 9994   4.756   2.411   0.016
 3326SOL    HW1 9995   4.715   2.493  -0.023
 3326SOL    HW2 9996   4.820   2.437   0.089
 3327SOL     OW 9997   3.802   2.418   1.386
 3327SOL    HW1 9998   3.894   2.417   1.345
 3327SOL    HW2 9999   3.796   2.492   1.453
 3328SOL     OW10000   4.285   2.084   1.147
 3328SOL    HW110001   4.323   2.000   1.184
 3328SOL    HW210002   4.197   2.103   1.191
 3329SOL     OW10003   4.590   2.316   0.642
 3329SOL    HW110004   4.558   2.388   0.580
 3329SOL    HW210005   4.614   2.235   0.589
 3330SOL     OW10006   4.741   1.901   0.753
 3330SOL    HW110007   4.669   1.906   0.684
 3330SOL    HW210008   4.717   1.832   0.822
 3331SOL     OW10009   4.212   3.247   0.174
 3331SOL    HW110010   4.125   3.232   0.221
 3331SOL    HW210011   4.195   3.273   0.079
 3332SOL     OW10012   4.251   2.118   0.328
 3332SOL    HW110013   4.278   2.059   0.253
 3332SOL    HW210014   4.251   2.213   0.297
 3333SOL     OW10015   4.639   1.951   1.402
 3333SOL    HW110016   4.664   1.931   1.307
 3333SOL    HW210017   4.711   2.007   1.444
 3334SOL     OW10018   4.704   2.978   1.719
 3334SOL    HW110019   4.605   2.984   1.729
 3334SOL    HW210020   4.727   2.898   1.663
 3335SOL     OW10021   4.429   2.912   0.368
 3335SOL    HW110022   4.415   2.919   0.467
 3335SOL    HW210023   4.513   2.861   0.350
 3336SOL     OW10024   4.134   2.675   1.251
 3336SOL    HW110025   4.220   2.687   1.301
 3336SOL    HW210026   4.092   2.588   1.278
 3337SOL     OW10027   3.788   3.426   1.331
 3337SOL    HW110028   3.742   3.508   1.297
 3337SOL    HW210029   3.886   3.445   1.340
 3338SOL     OW10030   4.091   2.962   0.501
 3338SOL    HW110031   4.084   3.045   0.445
 3338SOL    HW210032   4.095   2.882   0.441
 3339SOL     OW10033   4.290   2.399   0.865
 3339SOL    HW110034   4.302   2.465   0.791
 3339SOL    HW210035   4.336   2.433   0.948
 3340SOL     OW10036   4.078   3.372   1.329
 3340SOL    HW110037   4.057   3.328   1.242
 3340SOL    HW210038   4.175   3.398   1.332
 3341SOL     OW10039   4.126   2.613   1.598
 3341SOL    HW110040   4.194   2.668   1.551
 3341SOL    HW210041   4.166   2.525   1.625
 3342SOL     OW10042   4.737   1.967   1.770
 3342SOL    HW110043   4.743   2.052   1.718
 3342SOL    HW210044   4.769   1.891   1.713
 3343SOL     OW10045   4.228   1.912   1.740
 3343SOL    HW110046   4.186   1.855   1.670
 3343SOL    HW210047   4.162   1.981   1.772
 3344SOL     OW10048   4.297   2.732   1.029
 3344SOL    HW110049   4.341   2.821   1.020
 3344SOL    HW210050   4.234   2.732   1.106
 3345SOL     OW10051   4.933   2.387   0.275
 3345SOL    HW110052   4.946   2.303   0.329
 3345SOL    HW210053   4.904   2.461   0.335
 3346SOL     OW10054   4.031   2.075   1.231
 3346SOL    HW110055   4.008   2.112   1.321
 3346SOL    HW210056   4.001   1.980   1.225
 3347SOL     OW10057   3.761   3.172   1.282
 3347SOL    HW110058   3.814   3.123   1.350
 3347SOL    HW210059   3.783   3.270   1.287
 3348SOL     OW10060   4.456   2.496   1.064
 3348SOL    HW110061   4.515   2.470   0.988
 3348SOL    HW210062   4.428   2.592   1.053
 3349SOL     OW10063   4.031   1.925   0.618
 3349SOL    HW110064   4.020   2.019   0.651
 3349SOL    HW210065   4.026   1.862   0.695
 3350SOL     OW10066   4.747   2.628   0.966
 3350SOL    HW110067   4.762   2.649   1.062
 3350SOL    HW210068   4.717   2.533   0.957
 3351SOL     OW10069   4.704   3.435   1.700
 3351SOL    HW110070   4.684   3.479   1.612
 3351SOL    HW210071   4.743   3.344   1.684
 3352SOL     OW10072   4.074   2.760   1.804
 3352SOL    HW110073   4.150   2.804   1.852
 3352SOL    HW210074   4.109   2.713   1.722
 3353SOL     OW10075   4.792   3.195   0.849
 3353SOL    HW110076   4.799   3.111   0.794
 3353SOL    HW210077   4.854   3.264   0.813
 3354SOL     OW10078   4.043   2.672   0.949
 3354SOL    HW110079   4.136   2.708   0.954
 3354SOL    HW210080   4.037   2.587   1.001
 3355SOL     OW10081   4.063   2.371   1.006
 3355SOL    HW110082   4.011   2.288   0.989
 3355SOL    HW210083   4.140   2.376   0.942
 3356SOL     OW10084   4.862   2.242   1.678
 3356SOL    HW110085   4.817   2.305   1.742
 3356SOL    HW210086   4.955   2.273   1.661
 3357SOL     OW10087   4.884   2.069   1.477
 3357SOL    HW110088   4.884   2.133   1.554
 3357SOL    HW210089   4.912   2.117   1.394
 3358SOL     OW10090   3.732   3.188   0.200
 3358SOL    HW110091   3.639   3.209   0.169
 3358SOL    HW210092   3.742   3.089   0.213
 3359SOL     OW10093   3.812   3.663   0.927
 3359SOL    HW110094   3.770   3.577   0.900
 3359SOL    HW210095   3.906   3.666   0.893
 3360SOL     OW10096   4.228   3.430   0.910
 3360SOL    HW110097   4.294   3.504   0.919
 3360SOL    HW210098   4.272   3.351   0.868
 3361SOL     OW10099   4.726   2.658   1.238
 3361SOL    HW110100   4.767   2.626   1.324
 3361SOL    HW210101   4.630   2.631   1.235
 3362SOL     OW10102   3.764   2.406   1.114
 3362SOL    HW110103   3.849   2.373   1.073
 3362SOL    HW210104   3.777   2.421   1.212
 3363SOL     OW10105   3.913   2.382   1.722
 3363SOL    HW110106   3.972   2.342   1.652
 3363SOL    HW210107   3.855   2.453   1.681
 3364SOL     OW10108   4.539   2.434   0.325
 3364SOL    HW110109   4.546   2.345   0.279
 3364SOL    HW210110   4.445   2.468   0.317
 3365SOL     OW10111   3.976   3.426   1.744
 3365SOL    HW110112   3.946   3.483   1.820
 3365SOL    HW210113   3.969   3.329   1.770
 3366SOL     OW10114   4.395   2.326   1.269
 3366SOL    HW110115   4.361   2.237   1.239
 3366SOL    HW210116   4.421   2.380   1.189
 3367SOL     OW10117   4.654   3.540   1.465
 3367SOL    HW110118   4.630   3.522   1.370
 3367SOL    HW210119   4.684   3.634   1.475
 3368SOL     OW10120   4.197   2.362   0.191
 3368SOL    HW110121   4.258   2.442   0.195
 3368SOL    HW210122   4.102   2.393   0.198
 3369SOL     OW10123   3.883   2.999   1.466
 3369SOL    HW110124   3.905   2.938   1.542
 3369SOL    HW210125   3.893   2.950   1.380
 3370SOL     OW10126   5.026   2.717   0.309
 3370SOL    HW110127   4.940   2.686   0.351
 3370SOL    HW210128   5.022   2.703   0.210
 3371SOL     OW10129   3.807   3.120   1.022
 3371SOL    HW110130   3.802   3.119   1.122
 3371SOL    HW210131   3.724   3.079   0.984
 3372SOL     OW10132   4.412   3.524   1.716
 3372SOL    HW110133   4.356   3.605   1.725
 3372SOL    HW210134   4.464   3.528   1.630
 3373SOL     OW10135   4.627   1.948   0.133
 3373SOL    HW110136   4.678   1.949   0.047
 3373SOL    HW210137   4.683   1.906   0.204
 3374SOL     OW10138   3.854   3.656   1.851
 3374SOL    HW110139   3.813   3.582   1.904
 3374SOL    HW210140   3.918   3.707   1.909
 3375SOL     OW10141   4.554   3.135   1.422
 3375SOL    HW110142   4.549   3.168   1.517
 3375SOL    HW210143   4.468   3.154   1.376
 3376SOL     OW10144   4.396   3.478   0.154
 3376SOL    HW110145   4.405   3.488   0.055
 3376SOL    HW210146   4.356   3.389   0.175
 3377SOL     OW10147   3.987   2.188   0.720
 3377SOL    HW110148   3.908   2.239   0.686
 3377SOL    HW210149   3.978   2.173   0.818
 3378SOL     OW10150   4.546   2.864   1.372
 3378SOL    HW110151   4.586   2.863   1.280
 3378SOL    HW210152   4.556   2.956   1.412
 3379SOL     OW10153   4.640   2.772   0.291
 3379SOL    HW110154   4.703   2.810   0.223
 3379SOL    HW210155   4.680   2.689   0.330
 3380SOL     OW10156   4.096   3.150   1.490
 3380SOL    HW110157   4.083   3.243   1.456
 3380SOL    HW210158   4.012   3.098   1.477
 3381SOL     OW10159   4.763   2.960   0.696
 3381SOL    HW110160   4.693   2.913   0.750
 3381SOL    HW210161   4.822   2.892   0.653
 3382SOL     OW10162   4.738   2.098   0.971
 3382SOL    HW110163   4.730   2.062   0.878
 3382SOL    HW210164   4.736   2.022   1.036
 3383SOL     OW10165   4.314   3.349   0.491
 3383SOL    HW110166   4.356   3.291   0.421
 3383SOL    HW210167   4.270   3.428   0.447
 3384SOL     OW10168   3.979   3.210   0.290
 3384SOL    HW110169   3.883   3.211   0.263
 3384SOL    HW210170   3.991   3.263   0.374
 3385SOL     OW10171   3.829   2.875   1.726
 3385SOL    HW110172   3.752   2.842   1.780
 3385SOL    HW210173   3.914   2.845   1.768
 3386SOL     OW10174   4.396   2.065   1.489
 3386SOL    HW110175   4.486   2.049   1.449
 3386SOL    HW210176   4.404   2.070   1.588
 3387SOL     OW10177   3.796   2.028   0.318
 3387SOL    HW110178   3.779   2.111   0.264
 3387SOL    HW210179   3.886   1.991   0.296
 3388SOL     OW10180   4.337   2.704   1.431
 3388SOL    HW110181   4.393   2.785   1.414
 3388SOL    HW210182   4.396   2.624   1.434
 3389SOL     OW10183   4.440   2.427   1.708
 3389SOL    HW110184   4.459   2.492   1.782
 3389SOL    HW210185   4.500   2.347   1.717
 3390SOL     OW10186   4.114   3.603   1.560
 3390SOL    HW110187   4.023   3.644   1.558
 3390SOL    HW210188   4.107   3.509   1.592
 3391SOL     OW10189   4.318   2.607   0.652
 3391SOL    HW110190   4.368   2.692   0.633
 3391SOL    HW210191   4.230   2.609   0.604
 3392SOL     OW10192   4.583   3.236   0.016
 3392SOL    HW110193   4.537   3.251   0.104
 3392SOL    HW210194   4.627   3.321  -0.014
 3393SOL     OW10195   4.385   3.652   0.953
 3393SOL    HW110196   4.339   3.740   0.940
 3393SOL    HW210197   4.484   3.664   0.946
 3394SOL     OW10198   4.583   2.818   0.861
 3394SOL    HW110199   4.637   2.749   0.909
 3394SOL    HW210200   4.551   2.887   0.927
 3395SOL     OW10201   4.807   2.846   0.087
 3395SOL    HW110202   4.784   2.899   0.005
 3395SOL    HW210203   4.888   2.790   0.068
 3396SOL     OW10204   3.945   3.176   1.844
 3396SOL    HW110205   3.880   3.103   1.823
 3396SOL    HW210206   3.949   3.190   1.942
 3397SOL     OW10207   3.803   3.102   0.653
 3397SOL    HW110208   3.802   3.055   0.741
 3397SOL    HW210209   3.885   3.074   0.602
 3398SOL     OW10210   4.396   3.253   1.624
 3398SOL    HW110211   4.318   3.203   1.662
 3398SOL    HW210212   4.393   3.348   1.655
 3399SOL     OW10213   4.152   2.286   0.520
 3399SOL    HW110214   4.182   2.214   0.458
 3399SOL    HW210215   4.113   2.246   0.603
 3400SOL     OW10216   4.041   2.409   1.280
 3400SOL    HW110217   4.079   2.350   1.352
 3400SOL    HW210218   4.081   2.383   1.192
 3401SOL     OW10219   4.536   3.448   0.687
 3401SOL    HW110220   4.568   3.458   0.593
 3401SOL    HW210221   4.457   3.386   0.689
 3402SOL     OW10222   4.725   1.896   1.154
 3402SOL    HW110223   4.662   1.824   1.123
 3402SOL    HW210224   4.818   1.860   1.154
 3403SOL     OW10225   4.494   3.192   0.301
 3403SOL    HW110226   4.448   3.105   0.318
 3403SOL    HW210227   4.585   3.189   0.342
 3404SOL     OW10228   4.342   3.429   1.284
 3404SOL    HW110229   4.337   3.511   1.341
 3404SOL    HW210230   4.431   3.426   1.239
 3405SOL     OW10231   3.763   2.939   0.300
 3405SOL    HW110232   3.862   2.928   0.291
 3405SOL    HW210233   3.723   2.853   0.332
 3406SOL     OW10234   4.599   3.508   0.337
 3406SOL    HW110235   4.522   3.473   0.283
 3406SOL    HW210236   4.567   3.579   0.399
 3407SOL     OW10237   3.954   2.490   1.975
 3407SOL    HW110238   3.861   2.488   2.012
 3407SOL    HW210239   3.955   2.451   1.883
 3408SOL     OW10240   3.949   2.137   2.858
 3408SOL    HW110241   3.984   2.120   2.950
 3408SOL    HW210242   3.861   2.092   2.846
 3409SOL     OW10243   3.743   2.230   2.509
 3409SOL    HW110244   3.661   2.273   2.548
 3409SOL    HW210245   3.715   2.157   2.446
 3410SOL     OW10246   4.293   3.137   3.027
 3410SOL    HW110247   4.200   3.130   2.990
 3410SOL    HW210248   4.304   3.226   3.071
 3411SOL     OW10249   4.492   3.006   2.885
 3411SOL    HW110250   4.414   3.023   2.945
 3411SOL    HW210251   4.526   3.093   2.849
 3412SOL     OW10252   4.574   2.660   3.685
 3412SOL    HW110253   4.570   2.736   3.750
 3412SOL    HW210254   4.596   2.696   3.594
 3413SOL     OW10255   4.409   2.874   2.527
 3413SOL    HW110256   4.478   2.858   2.597
 3413SOL    HW210257   4.336   2.931   2.565
 3414SOL     OW10258   4.410   3.023   3.665
 3414SOL    HW110259   4.470   3.102   3.679
 3414SOL    HW210260   4.324   3.054   3.624
 3415SOL     OW10261   4.059   3.297   2.923
 3415SOL    HW110262   3.981   3.266   2.870
 3415SOL    HW210263   4.117   3.355   2.866
 3416SOL     OW10264   4.162   2.254   3.361
 3416SOL    HW110265   4.244   2.198   3.370
 3416SOL    HW210266   4.081   2.196   3.365
 3417SOL     OW10267   3.955   3.575   2.345
 3417SOL    HW110268   3.989   3.652   2.399
 3417SOL    HW210269   3.999   3.575   2.255
 3418SOL     OW10270   4.851   3.203   3.552
 3418SOL    HW110271   4.898   3.203   3.640
 3418SOL    HW210272   4.803   3.116   3.541
 3419SOL     OW10273   3.954   3.296   2.400
 3419SOL    HW110274   3.928   3.392   2.400
 3419SOL    HW210275   3.883   3.242   2.445
 3420SOL     OW10276   3.964   2.953   2.748
 3420SOL    HW110277   3.978   2.869   2.800
 3420SOL    HW210278   3.909   3.017   2.803
 3421SOL     OW10279   4.344   3.648   3.301
 3421SOL    HW110280   4.252   3.631   3.336
 3421SOL    HW210281   4.372   3.740   3.327
 3422SOL     OW10282   4.330   2.826   1.985
 3422SOL    HW110283   4.337   2.910   1.931
 3422SOL    HW210284   4.376   2.839   2.073
 3423SOL     OW10285   3.846   2.505   2.425
 3423SOL    HW110286   3.801   2.417   2.442
 3423SOL    HW210287   3.845   2.559   2.509
 3424SOL     OW10288   3.751   3.458   1.979
 3424SOL    HW110289   3.732   3.362   2.000
 3424SOL    HW210290   3.718   3.516   2.054
 3425SOL     OW10291   3.837   2.599   3.459
 3425SOL    HW110292   3.925   2.586   3.504
 3425SOL    HW210293   3.824   2.696   3.437
 3426SOL     OW10294   4.337   3.227   2.588
 3426SOL    HW110295   4.288   3.140   2.597
 3426SOL    HW210296   4.314   3.270   2.501
 3427SOL     OW10297   4.533   1.866   2.364
 3427SOL    HW110298   4.573   1.957   2.355
 3427SOL    HW210299   4.433   1.874   2.370
 3428SOL     OW10300   3.921   2.838   3.126
 3428SOL    HW110301   4.010   2.793   3.112
 3428SOL    HW210302   3.848   2.773   3.107
 3429SOL     OW10303   4.041   2.113   3.663
 3429SOL    HW110304   4.112   2.184   3.669
 3429SOL    HW210305   3.953   2.152   3.691
 3430SOL     OW10306   4.322   2.591   2.132
 3430SOL    HW110307   4.346   2.660   2.064
 3430SOL    HW210308   4.244   2.624   2.186
 3431SOL     OW10309   4.531   2.467   3.327
 3431SOL    HW110310   4.484   2.464   3.416
 3431SOL    HW210311   4.480   2.412   3.261
 3432SOL     OW10312   4.697   2.752   3.434
 3432SOL    HW110313   4.743   2.668   3.405
 3432SOL    HW210314   4.641   2.786   3.359
 3433SOL     OW10315   4.715   2.272   3.104
 3433SOL    HW110316   4.638   2.306   3.158
 3433SOL    HW210317   4.681   2.221   3.025
 3434SOL     OW10318   4.765   2.563   2.291
 3434SOL    HW110319   4.791   2.559   2.387
 3434SOL    HW210320   4.680   2.512   2.277
 3435SOL     OW10321   3.800   2.673   2.651
 3435SOL    HW110322   3.899   2.661   2.660
 3435SOL    HW210323   3.776   2.768   2.672
 3436SOL     OW10324   3.854   3.683   3.433
 3436SOL    HW110325   3.844   3.668   3.532
 3436SOL    HW210326   3.768   3.719   3.397
 3437SOL     OW10327   4.589   2.210   2.057
 3437SOL    HW110328   4.648   2.273   2.008
 3437SOL    HW210329   4.608   2.116   2.028
 3438SOL     OW10330   4.274   2.058   2.747
 3438SOL    HW110331   4.269   2.053   2.847
 3438SOL    HW210332   4.276   2.154   2.718
 3439SOL     OW10333   4.732   3.318   2.339
 3439SOL    HW110334   4.686   3.390   2.287
 3439SOL    HW210335   4.728   3.338   2.437
 3440SOL     OW10336   4.075   3.663   2.715
 3440SOL    HW110337   4.125   3.577   2.721
 3440SOL    HW210338   4.140   3.740   2.712
 3441SOL     OW10339   4.045   2.805   2.104
 3441SOL    HW110340   4.127   2.844   2.062
 3441SOL    HW210341   4.018   2.723   2.055
 3442SOL     OW10342   4.185   3.128   3.589
 3442SOL    HW110343   4.135   3.129   3.503
 3442SOL    HW210344   4.122   3.110   3.665
 3443SOL     OW10345   3.926   2.147   3.360
 3443SOL    HW110346   3.846   2.207   3.347
 3443SOL    HW210347   3.916   2.098   3.446
 3444SOL     OW10348   4.188   3.605   2.185
 3444SOL    HW110349   4.221   3.644   2.271
 3444SOL    HW210350   4.264   3.598   2.120
 3445SOL     OW10351   3.973   3.647   3.103
 3445SOL    HW110352   4.030   3.582   3.153
 3445SOL    HW210353   3.957   3.614   3.010
 3446SOL     OW10354   4.664   3.560   2.766
 3446SOL    HW110355   4.744   3.503   2.787
 3446SOL    HW210356   4.615   3.520   2.689
 3447SOL     OW10357   4.106   2.562   2.342
 3447SOL    HW110358   4.151   2.472   2.339
 3447SOL    HW210359   4.012   2.551   2.375
 3448SOL     OW10360   4.338   1.984   1.979
 3448SOL    HW110361   4.436   1.962   1.986
 3448SOL    HW210362   4.307   1.967   1.886
 3449SOL     OW10363   4.505   2.126   3.611
 3449SOL    HW110364   4.572   2.065   3.654
 3449SOL    HW210365   4.432   2.145   3.676
 3450SOL     OW10366   4.612   3.376   3.057
 3450SOL    HW110367   4.589   3.351   2.963
 3450SOL    HW210368   4.673   3.307   3.096
 3451SOL     OW10369   4.527   3.264   2.786
 3451SOL    HW110370   4.617   3.278   2.744
 3451SOL    HW210371   4.456   3.266   2.715
 3452SOL     OW10372   4.646   2.365   2.761
 3452SOL    HW110373   4.621   2.356   2.665
 3452SOL    HW210374   4.694   2.283   2.792
 3453SOL     OW10375   4.263   1.926   2.374
 3453SOL    HW110376   4.182   1.927   2.432
 3453SOL    HW210377   4.266   2.009   2.319
 3454SOL     OW10378   4.021   1.897   2.033
 3454SOL    HW110379   4.070   1.981   2.012
 3454SOL    HW210380   4.083   1.832   2.078
 3455SOL     OW10381   4.659   2.098   2.342
 3455SOL    HW110382   4.611   2.139   2.264
 3455SOL    HW210383   4.758   2.096   2.323
 3456SOL     OW10384   4.951   3.432   2.655
 3456SOL    HW110385   4.972   3.506   2.590
 3456SOL    HW210386   5.019   3.432   2.728
 3457SOL     OW10387   4.183   3.014   2.603
 3457SOL    HW110388   4.112   2.987   2.668
 3457SOL    HW210389   4.157   2.986   2.510
 3458SOL     OW10390   4.995   3.659   2.453
 3458SOL    HW110391   5.039   3.723   2.389
 3458SOL    HW210392   4.945   3.711   2.523
 3459SOL     OW10393   4.756   2.411   1.878
 3459SOL    HW110394   4.715   2.493   1.839
 3459SOL    HW210395   4.820   2.437   1.951
 3460SOL     OW10396   3.802   2.418   3.248
 3460SOL    HW110397   3.894   2.417   3.207
 3460SOL    HW210398   3.796   2.492   3.315
 3461SOL     OW10399   4.285   2.084   3.009
 3461SOL    HW110400   4.323   2.000   3.046
 3461SOL    HW210401   4.197   2.103   3.053
 3462SOL     OW10402   4.590   2.316   2.504
 3462SOL    HW110403   4.558   2.388   2.442
 3462SOL    HW210404   4.614   2.235   2.451
 3463SOL     OW10405   4.741   1.901   2.615
 3463SOL    HW110406   4.669   1.906   2.546
 3463SOL    HW210407   4.717   1.832   2.684
 3464SOL     OW10408   4.212   3.247   2.036
 3464SOL    HW110409   4.125   3.232   2.083
 3464SOL    HW210410   4.195   3.273   1.941
 3465SOL     OW10411   4.251   2.118   2.190
 3465SOL    HW110412   4.278   2.059   2.115
 3465SOL    HW210413   4.251   2.213   2.159
 3466SOL     OW10414   4.639   1.951   3.264
 3466SOL    HW110415   4.664   1.931   3.169
 3466SOL    HW210416   4.711   2.007   3.306
 3467SOL     OW10417   4.704   2.978   3.581
 3467SOL    HW110418   4.605   2.984   3.591
 3467SOL    HW210419   4.727   2.898   3.525
 3468SOL     OW10420   4.429   2.912   2.230
 3468SOL    HW110421   4.415   2.919   2.329
 3468SOL    HW210422   4.513   2.861   2.212
 3469SOL     OW10423   4.134   2.675   3.113
 3469SOL    HW110424   4.220   2.687   3.163
 3469SOL    HW210425   4.092   2.588   3.140
 3470SOL     OW10426   3.788   3.426   3.193
 3470SOL    HW110427   3.742   3.508   3.159
 3470SOL    HW210428   3.886   3.445   3.202
 3471SOL     OW10429   4.091   2.962   2.363
 3471SOL    HW110430   4.084   3.045   2.307
 3471SOL    HW210431   4.095   2.882   2.303
 3472SOL     OW10432   4.290   2.399   2.727
 3472SOL    HW110433   4.302   2.465   2.653
 3472SOL    HW210434   4.336   2.433   2.810
 3473SOL     OW10435   4.078   3.372   3.191
 3473SOL    HW110436   4.057   3.328   3.104
 3473SOL    HW210437   4.175   3.398   3.194
 3474SOL     OW10438   4.126   2.613   3.460
 3474SOL    HW110439   4.194   2.668   3.413
 3474SOL    HW210440   4.166   2.525   3.487
 3475SOL     OW10441   4.737   1.967   3.632
 3475SOL    HW110442   4.743   2.052   3.580
 3475SOL    HW210443   4.769   1.891   3.575
 3476SOL     OW10444   4.228   1.912   3.602
 3476SOL    HW110445   4.186   1.855   3.532
 3476SOL    HW210446   4.162   1.981   3.634
 3477SOL     OW10447   4.297   2.732   2.891
 3477SOL    HW110448   4.341   2.821   2.882
 3477SOL    HW210449   4.234   2.732   2.968
 3478SOL     OW10450   4.933   2.387   2.137
 3478SOL    HW110451   4.946   2.303   2.191
 3478SOL    HW210452   4.904   2.461   2.197
 3479SOL     OW10453   4.031   2.075   3.093
 3479SOL    HW110454   4.008   2.112   3.183
 3479SOL    HW210455   4.001   1.980   3.087
 3480SOL     OW10456   3.761   3.172   3.144
 3480SOL    HW110457   3.814   3.123   3.212
 3480SOL    HW210458   3.783   3.270   3.149
 3481SOL     OW10459   4.456   2.496   2.926
 3481SOL    HW110460   4.515   2.470   2.850
 3481SOL    HW210461   4.428   2.592   2.915
 3482SOL     OW10462   4.031   1.925   2.480
 3482SOL    HW110463   4.020   2.019   2.513
 3482SOL    HW210464   4.026   1.862   2.557
 3483SOL     OW10465   4.747   2.628   2.828
 3483SOL    HW110466   4.762   2.649   2.924
 3483SOL    HW210467   4.717   2.533   2.819
 3484SOL     OW10468   4.704   3.435   3.562
 3484SOL    HW110469   4.684   3.479   3.474
 3484SOL    HW210470   4.743   3.344   3.546
 3485SOL     OW10471   4.074   2.760   3.666
 3485SOL    HW110472   4.150   2.804   3.714
 3485SOL    HW210473   4.109   2.713   3.584
 3486SOL     OW10474   4.792   3.195   2.711
 3486SOL    HW110475   4.799   3.111   2.656
 3486SOL    HW210476   4.854   3.264   2.675
 3487SOL     OW10477   4.043   2.672   2.811
 3487SOL    HW110478   4.136   2.708   2.816
 3487SOL    HW210479   4.037   2.587   2.863
 3488SOL     OW10480   4.063   2.371   2.868
 3488SOL    HW110481   4.011   2.288   2.851
 3488SOL    HW210482   4.140   2.376   2.804
 3489SOL     OW10483   4.862   2.242   3.540
 3489SOL    HW110484   4.817   2.305   3.604
 3489SOL    HW210485   4.955   2.273   3.523
 3490SOL     OW10486   4.884   2.069   3.339
 3490SOL    HW110487   4.884   2.133   3.416
 3490SOL    HW210488   4.912   2.117   3.256
 3491SOL     OW10489   3.732   3.188   2.062
 3491SOL    HW110490   3.639   3.209   2.031
 3491SOL    HW210491   3.742   3.089   2.075
 3492SOL     OW10492   3.812   3.663   2.789
 3492SOL    HW110493   3.770   3.577   2.762
 3492SOL    HW210494   3.906   3.666   2.755
 3493SOL     OW10495   4.228   3.430   2.772
 3493SOL    HW110496   4.294   3.504   2.781
 3493SOL    HW210497   4.272   3.351   2.730
 3494SOL     OW10498   4.726   2.658   3.100
 3494SOL    HW110499   4.767   2.626   3.186
 3494SOL    HW210500   4.630   2.631   3.097
 3495SOL     OW10501   3.764   2.406   2.976
 3495SOL    HW110502   3.849   2.373   2.935
 3495SOL    HW210503   3.777   2.421   3.074
 3496SOL     OW10504   3.913   2.382   3.584
 3496SOL    HW110505   3.972   2.342   3.514
 3496SOL    HW210506   3.855   2.453   3.543
 3497SOL     OW10507   4.539   2.434   2.187
 3497SOL    HW110508   4.546   2.345   2.141
 3497SOL    HW210509   4.445   2.468   2.179
 3498SOL     OW10510   3.976   3.426   3.606
 3498SOL    HW110511   3.946   3.483   3.682
 3498SOL    HW210512   3.969   3.329   3.632
 3499SOL     OW10513   4.395   2.326   3.131
 3499SOL    HW110514   4.361   2.237   3.101
 3499SOL    HW210515   4.421   2.380   3.051
 3500SOL     OW10516   4.654   3.540   3.327
 3500SOL    HW110517   4.630   3.522   3.232
 3500SOL    HW210518   4.684   3.634   3.337
 3501SOL     OW10519   4.197   2.362   2.053
 3501SOL    HW110520   4.258   2.442   2.057
 3501SOL    HW210521   4.102   2.393   2.060
 3502SOL     OW10522   3.883   2.999   3.328
 3502SOL    HW110523   3.905   2.938   3.404
 3502SOL    HW210524   3.893   2.950   3.242
 3503SOL     OW10525   5.026   2.717   2.171
 3503SOL    HW110526   4.940   2.686   2.213
 3503SOL    HW210527   5.022   2.703   2.072
 3504SOL     OW10528   3.807   3.120   2.884
 3504SOL    HW110529   3.802   3.119   2.984
 3504SOL    HW210530   3.724   3.079   2.846
 3505SOL     OW10531   4.412   3.524   3.578
 3505SOL    HW110532   4.356   3.605   3.587
 3505SOL    HW210533   4.464   3.528   3.492
 3506SOL     OW10534   3.854   3.656   3.713
 3506SOL    HW110535   3.813   3.582   3.766
 3506SOL    HW210536   3.918   3.707   3.771
 3507SOL     OW10537   4.554   3.135   3.284
 3507SOL    HW110538   4.549   3.168   3.379
 3507SOL    HW210539   4.468   3.154   3.238
 3508SOL     OW10540   4.396   3.478   2.016
 3508SOL    HW110541   4.405   3.488   1.917
 3508SOL    HW210542   4.356   3.389   2.037
 3509SOL     OW10543   3.987   2.188   2.582
 3509SOL    HW110544   3.908   2.239   2.548
 3509SOL    HW210545   3.978   2.173   2.680
 3510SOL     OW10546   4.546   2.864   3.234
 3510SOL    HW110547   4.586   2.863   3.142
 3510SOL    HW210548   4.556   2.956   3.274
 3511SOL     OW10549   4.640   2.772   2.153
 3511SOL    HW110550   4.703   2.810   2.085
 3511SOL    HW210551   4.680   2.689   2.192
 3512SOL     OW10552   4.096   3.150   3.352
 3512SOL    HW110553   4.083   3.243   3.318
 3512SOL    HW210554   4.012   3.098   3.339
 3513SOL     OW10555   4.763   2.960   2.558
 3513SOL    HW110556   4.693   2.913   2.612
 3513SOL    HW210557   4.822   2.892   2.515
 3514SOL     OW10558   4.738   2.098   2.833
 3514SOL    HW110559   4.730   2.062   2.740
 3514SOL    HW210560   4.736   2.022   2.898
 3515SOL     OW10561   4.314   3.349   2.353
 3515SOL    HW110562   4.356   3.291   2.283
 3515SOL    HW210563   4.270   3.428   2.309
 3516SOL     OW10564   3.979   3.210   2.152
 3516SOL    HW110565   3.883   3.211   2.125
 3516SOL    HW210566   3.991   3.263   2.236
 3517SOL     OW10567   3.829   2.875   3.588
 3517SOL    HW110568   3.752   2.842   3.642
 3517SOL    HW210569   3.914   2.845   3.630
 3518SOL     OW10570   4.396   2.065   3.351
 3518SOL    HW110571   4.486   2.049   3.311
 3518SOL    HW210572   4.404   2.070   3.450
 3519SOL     OW10573   3.799   2.207   1.895
 3519SOL    HW110574   3.707   2.179   1.866
 3519SOL    HW210575   3.830   2.284   1.839
 3520SOL     OW10576   3.796   2.028   2.180
 3520SOL    HW110577   3.779   2.111   2.126
 3520SOL    HW210578   3.886   1.991   2.158
 3521SOL     OW10579   4.337   2.704   3.293
 3521SOL    HW110580   4.393   2.785   3.276
 3521SOL    HW210581   4.396   2.624   3.296
 3522SOL     OW10582   4.440   2.427   3.570
 3522SOL    HW110583   4.459   2.492   3.644
 3522SOL    HW210584   4.500   2.347   3.579
 3523SOL     OW10585   4.114   3.603   3.422
 3523SOL    HW110586   4.023   3.644   3.420
 3523SOL    HW210587   4.107   3.509   3.454
 3524SOL     OW10588   4.318   2.607   2.514
 3524SOL    HW110589   4.368   2.692   2.495
 3524SOL    HW210590   4.230   2.609   2.466
 3525SOL     OW10591   4.583   3.236   1.878
 3525SOL    HW110592   4.537   3.251   1.966
 3525SOL    HW210593   4.627   3.321   1.848
 3526SOL     OW10594   4.385   3.652   2.815
 3526SOL    HW110595   4.339   3.740   2.802
 3526SOL    HW210596   4.484   3.664   2.808
 3527SOL     OW10597   4.583   2.818   2.723
 3527SOL    HW110598   4.637   2.749   2.771
 3527SOL    HW210599   4.551   2.887   2.789
 3528SOL     OW10600   4.807   2.846   1.949
 3528SOL    HW110601   4.784   2.899   1.867
 3528SOL    HW210602   4.888   2.790   1.930
 3529SOL     OW10603   3.945   3.176   3.706
 3529SOL    HW110604   3.880   3.103   3.685
 3529SOL    HW210605   3.949   3.190   3.804
 3530SOL     OW10606   3.803   3.102   2.515
 3530SOL    HW110607   3.802   3.055   2.603
 3530SOL    HW210608   3.885   3.074   2.464
 3531SOL     OW10609   4.396   3.253   3.486
 3531SOL    HW110610   4.318   3.203   3.524
 3531SOL    HW210611   4.393   3.348   3.517
 3532SOL     OW10612   4.152   2.286   2.382
 3532SOL    HW110613   4.182   2.214   2.320
 3532SOL    HW210614   4.113   2.246   2.465
 3533SOL     OW10615   4.041   2.409   3.142
 3533SOL    HW110616   4.079   2.350   3.214
 3533SOL    HW210617   4.081   2.383   3.054
 3534SOL     OW10618   4.536   3.448   2.549
 3534SOL    HW110619   4.568   3.458   2.455
 3534SOL    HW210620   4.457   3.386   2.551
 3535SOL     OW10621   4.725   1.896   3.016
 3535SOL    HW110622   4.662   1.824   2.985
 3535SOL    HW210623   4.818   1.860   3.016
 3536SOL     OW10624   4.494   3.192   2.163
 3536SOL    HW110625   4.448   3.105   2.180
 3536SOL    HW210626   4.585   3.189   2.204
 3537SOL     OW10627   4.342   3.429   3.146
 3537SOL    HW110628   4.337   3.511   3.203
 3537SOL    HW210629   4.431   3.426   3.101
 3538SOL     OW10630   3.763   2.939   2.162
 3538SOL    HW110631   3.862   2.928   2.153
 3538SOL    HW210632   3.723   2.853   2.194
 3539SOL     OW10633   4.599   3.508   2.199
 3539SOL    HW110634   4.522   3.473   2.145
 3539SOL    HW210635   4.567   3.579   2.261
 3540SOL     OW10636   3.954   2.490   3.837
 3540SOL    HW110637   3.861   2.488   3.874
 3540SOL    HW210638   3.955   2.451   3.745
 3541SOL     OW10639   3.949   2.137   4.720
 3541SOL    HW110640   3.984   2.120   4.812
 3541SOL    HW210641   3.861   2.092   4.708
 3542SOL     OW10642   3.743   2.230   4.371
 3542SOL    HW110643   3.661   2.273   4.410
 3542SOL    HW210644   3.715   2.157   4.308
 3543SOL     OW10645   4.492   3.006   4.747
 3543SOL    HW110646   4.414   3.023   4.807
 3543SOL    HW210647   4.526   3.093   4.711
 3544SOL     OW10648   4.409   2.874   4.389
 3544SOL    HW110649   4.478   2.858   4.459
 3544SOL    HW210650   4.336   2.931   4.427
 3545SOL     OW10651   4.059   3.297   4.785
 3545SOL    HW110652   3.981   3.266   4.732
 3545SOL    HW210653   4.117   3.355   4.728
 3546SOL     OW10654   3.955   3.575   4.207
 3546SOL    HW110655   3.989   3.652   4.261
 3546SOL    HW210656   3.999   3.575   4.117
 3547SOL     OW10657   3.954   3.296   4.262
 3547SOL    HW110658   3.928   3.392   4.262
 3547SOL    HW210659   3.883   3.242   4.307
 3548SOL     OW10660   3.964   2.953   4.610
 3548SOL    HW110661   3.978   2.869   4.662
 3548SOL    HW210662   3.909   3.017   4.665
 3549SOL     OW10663   4.330   2.826   3.847
 3549SOL    HW110664   4.337   2.910   3.793
 3549SOL    HW210665   4.376   2.839   3.935
 3550SOL     OW10666   3.846   2.505   4.287
 3550SOL    HW110667   3.801   2.417   4.304
 3550SOL    HW210668   3.845   2.559   4.371
 3551SOL     OW10669   3.751   3.458   3.841
 3551SOL    HW110670   3.732   3.362   3.862
 3551SOL    HW210671   3.718   3.516   3.916
 3552SOL     OW10672   4.337   3.227   4.450
 3552SOL    HW110673   4.288   3.140   4.459
 3552SOL    HW210674   4.314   3.270   4.363
 3553SOL     OW10675   4.533   1.866   4.226
 3553SOL    HW110676   4.573   1.957   4.217
 3553SOL    HW210677   4.433   1.874   4.232
 3554SOL     OW10678   3.921   2.838   4.988
 3554SOL    HW110679   4.010   2.793   4.974
 3554SOL    HW210680   3.848   2.773   4.969
 3555SOL     OW10681   4.322   2.591   3.994
 3555SOL    HW110682   4.346   2.660   3.926
 3555SOL    HW210683   4.244   2.624   4.048
 3556SOL     OW10684   4.765   2.563   4.153
 3556SOL    HW110685   4.791   2.559   4.249
 3556SOL    HW210686   4.680   2.512   4.139
 3557SOL     OW10687   3.800   2.673   4.513
 3557SOL    HW110688   3.899   2.661   4.522
 3557SOL    HW210689   3.776   2.768   4.534
 3558SOL     OW10690   4.589   2.210   3.919
 3558SOL    HW110691   4.648   2.273   3.870
 3558SOL    HW210692   4.608   2.116   3.890
 3559SOL     OW10693   4.274   2.058   4.609
 3559SOL    HW110694   4.269   2.053   4.709
 3559SOL    HW210695   4.276   2.154   4.580
 3560SOL     OW10696   4.732   3.318   4.201
 3560SOL    HW110697   4.686   3.390   4.149
 3560SOL    HW210698   4.728   3.338   4.299
 3561SOL     OW10699   4.075   3.663   4.577
 3561SOL    HW110700   4.125   3.577   4.583
 3561SOL    HW210701   4.140   3.740   4.574
 3562SOL     OW10702   4.045   2.805   3.966
 3562SOL    HW110703   4.127   2.844   3.924
 3562SOL    HW210704   4.018   2.723   3.917
 3563SOL     OW10705   4.188   3.605   4.047
 3563SOL    HW110706   4.221   3.644   4.133
 3563SOL    HW210707   4.264   3.598   3.982
 3564SOL     OW10708   3.973   3.647   4.965
 3564SOL    HW110709   4.030   3.582   5.015
 3564SOL    HW210710   3.957   3.614   4.872
 3565SOL     OW10711   4.664   3.560   4.628
 3565SOL    HW110712   4.744   3.503   4.649
 3565SOL    HW210713   4.615   3.520   4.551
 3566SOL     OW10714   4.106   2.562   4.204
 3566SOL    HW110715   4.151   2.472   4.201
 3566SOL    HW210716   4.012   2.551   4.237
 3567SOL     OW10717   4.338   1.984   3.841
 3567SOL    HW110718   4.436   1.962   3.848
 3567SOL    HW210719   4.307   1.967   3.748
 3568SOL     OW10720   4.527   3.264   4.648
 3568SOL    HW110721   4.617   3.278   4.606
 3568SOL    HW210722   4.456   3.266   4.577
 3569SOL     OW10723   4.646   2.365   4.623
 3569SOL    HW110724   4.621   2.356   4.527
 3569SOL    HW210725   4.694   2.283   4.654
 3570SOL     OW10726   4.263   1.926   4.236
 3570SOL    HW110727   4.182   1.927   4.294
 3570SOL    HW210728   4.266   2.009   4.181
 3571SOL     OW10729   4.021   1.897   3.895
 3571SOL    HW110730   4.070   1.981   3.874
 3571SOL    HW210731   4.083   1.832   3.940
 3572SOL     OW10732   4.659   2.098   4.204
 3572SOL    HW110733   4.611   2.139   4.126
 3572SOL    HW210734   4.758   2.096   4.185
 3573SOL     OW10735   4.951   3.432   4.517
 3573SOL    HW110736   4.972   3.506   4.452
 3573SOL    HW210737   5.019   3.432   4.590
 3574SOL     OW10738   4.183   3.014   4.465
 3574SOL    HW110739   4.112   2.987   4.530
 3574SOL    HW210740   4.157   2.986   4.372
 3575SOL     OW10741   4.995   3.659   4.315
 3575SOL    HW110742   5.039   3.723   4.251
 3575SOL    HW210743   4.945   3.711   4.385
 3576SOL     OW10744   4.756   2.411   3.740
 3576SOL    HW110745   4.715   2.493   3.701
 3576SOL    HW210746   4.820   2.437   3.813
 3577SOL     OW10747   4.590   2.316   4.366
 3577SOL    HW110748   4.558   2.388   4.304
 3577SOL    HW210749   4.614   2.235   4.313
 3578SOL     OW10750   4.741   1.901   4.477
 3578SOL    HW110751   4.669   1.906   4.408
 3578SOL    HW210752   4.717   1.832   4.546
 3579SOL     OW10753   4.212   3.247   3.898
 3579SOL    HW110754   4.125   3.232   3.945
 3579SOL    HW210755   4.195   3.273   3.803
 3580SOL     OW10756   4.251   2.118   4.052
 3580SOL    HW110757   4.278   2.059   3.977
 3580SOL    HW210758   4.251   2.213   4.021
 3581SOL     OW10759   4.429   2.912   4.092
 3581SOL    HW110760   4.415   2.919   4.191
 3581SOL    HW210761   4.513   2.861   4.074
 3582SOL     OW10762   4.134   2.675   4.975
 3582SOL    HW110763   4.220   2.687   5.025
 3582SOL    HW210764   4.092   2.588   5.002
 3583SOL     OW10765   4.091   2.962   4.225
 3583SOL    HW110766   4.084   3.045   4.169
 3583SOL    HW210767   4.095   2.882   4.165
 3584SOL     OW10768   4.290   2.399   4.589
 3584SOL    HW110769   4.302   2.465   4.515
 3584SOL    HW210770   4.336   2.433   4.672
 3585SOL     OW10771   4.078   3.372   5.053
 3585SOL    HW110772   4.057   3.328   4.966
 3585SOL    HW210773   4.175   3.398   5.056
 3586SOL     OW10774   4.297   2.732   4.753
 3586SOL    HW110775   4.341   2.821   4.744
 3586SOL    HW210776   4.234   2.732   4.830
 3587SOL     OW10777   4.933   2.387   3.999
 3587SOL    HW110778   4.946   2.303   4.053
 3587SOL    HW210779   4.904   2.461   4.059
 3588SOL     OW10780   4.031   2.075   4.955
 3588SOL    HW110781   4.008   2.112   5.045
 3588SOL    HW210782   4.001   1.980   4.949
 3589SOL     OW10783   4.456   2.496   4.788
 3589SOL    HW110784   4.515   2.470   4.712
 3589SOL    HW210785   4.428   2.592   4.777
 3590SOL     OW10786   4.031   1.925   4.342
 3590SOL    HW110787   4.020   2.019   4.375
 3590SOL    HW210788   4.026   1.862   4.419
 3591SOL     OW10789   4.747   2.628   4.690
 3591SOL    HW110790   4.762   2.649   4.786
 3591SOL    HW210791   4.717   2.533   4.681
 3592SOL     OW10792   4.792   3.195   4.573
 3592SOL    HW110793   4.799   3.111   4.518
 3592SOL    HW210794   4.854   3.264   4.537
 3593SOL     OW10795   4.043   2.672   4.673
 3593SOL    HW110796   4.136   2.708   4.678
 3593SOL    HW210797   4.037   2.587   4.725
 3594SOL     OW10798   4.063   2.371   4.730
 3594SOL    HW110799   4.011   2.288   4.713
 3594SOL    HW210800   4.140   2.376   4.666
 3595SOL     OW10801   3.732   3.188   3.924
 3595SOL    HW110802   3.639   3.209   3.893
 3595SOL    HW210803   3.742   3.089   3.937
 3596SOL     OW10804   3.812   3.663   4.651
 3596SOL    HW110805   3.770   3.577   4.624
 3596SOL    HW210806   3.906   3.666   4.617
 3597SOL     OW10807   4.228   3.430   4.634
 3597SOL    HW110808   4.294   3.504   4.643
 3597SOL    HW210809   4.272   3.351   4.592
 3598SOL     OW10810   4.726   2.658   4.962
 3598SOL    HW110811   4.767   2.626   5.048
 3598SOL    HW210812   4.630   2.631   4.959
 3599SOL     OW10813   3.764   2.406   4.838
 3599SOL    HW110814   3.849   2.373   4.797
 3599SOL    HW210815   3.777   2.421   4.936
 3600SOL     OW10816   4.539   2.434   4.049
 3600SOL    HW110817   4.546   2.345   4.003
 3600SOL    HW210818   4.445   2.468   4.041
 3601SOL     OW10819   4.395   2.326   4.993
 3601SOL    HW110820   4.361   2.237   4.963
 3601SOL    HW210821   4.421   2.380   4.913
 3602SOL     OW10822   4.197   2.362   3.915
 3602SOL    HW110823   4.258   2.442   3.919
 3602SOL    HW210824   4.102   2.393   3.922
 3603SOL     OW10825   5.026   2.717   4.033
 3603SOL    HW110826   4.940   2.686   4.075
 3603SOL    HW210827   5.022   2.703   3.934
 3604SOL     OW10828   3.807   3.120   4.746
 3604SOL    HW110829   3.802   3.119   4.846
 3604SOL    HW210830   3.724   3.079   4.708
 3605SOL     OW10831   4.396   3.478   3.878
 3605SOL    HW110832   4.405   3.488   3.779
 3605SOL    HW210833   4.356   3.389   3.899
 3606SOL     OW10834   3.987   2.188   4.444
 3606SOL    HW110835   3.908   2.239   4.410
 3606SOL    HW210836   3.978   2.173   4.542
 3607SOL     OW10837   4.640   2.772   4.015
 3607SOL    HW110838   4.703   2.810   3.947
 3607SOL    HW210839   4.680   2.689   4.054
 3608SOL     OW10840   4.763   2.960   4.420
 3608SOL    HW110841   4.693   2.913   4.474
 3608SOL    HW210842   4.822   2.892   4.377
 3609SOL     OW10843   4.738   2.098   4.695
 3609SOL    HW110844   4.730   2.062   4.602
 3609SOL    HW210845   4.736   2.022   4.760
 3610SOL     OW10846   4.314   3.349   4.215
 3610SOL    HW110847   4.356   3.291   4.145
 3610SOL    HW210848   4.270   3.428   4.171
 3611SOL     OW10849   3.979   3.210   4.014
 3611SOL    HW110850   3.883   3.211   3.987
 3611SOL    HW210851   3.991   3.263   4.098
 3612SOL     OW10852   3.799   2.207   3.757
 3612SOL    HW110853   3.707   2.179   3.728
 3612SOL    HW210854   3.830   2.284   3.701
 3613SOL     OW10855   3.796   2.028   4.042
 3613SOL    HW110856   3.779   2.111   3.988
 3613SOL    HW210857   3.886   1.991   4.020
 3614SOL     OW10858   4.318   2.607   4.376
 3614SOL    HW110859   4.368   2.692   4.357
 3614SOL    HW210860   4.230   2.609   4.328
 3615SOL     OW10861   4.583   3.236   3.740
 3615SOL    HW110862   4.537   3.251   3.828
 3615SOL    HW210863   4.627   3.321   3.710
 3616SOL     OW10864   4.385   3.652   4.677
 3616SOL    HW110865   4.339   3.740   4.664
 3616SOL    HW210866   4.484   3.664   4.670
 3617SOL     OW10867   4.583   2.818   4.585
 3617SOL    HW110868   4.637   2.749   4.633
 3617SOL    HW210869   4.551   2.887   4.651
 3618SOL     OW10870   4.807   2.846   3.811
 3618SOL    HW110871   4.784   2.899   3.729
 3618SOL    HW210872   4.888   2.790   3.792
 3619SOL     OW10873   3.803   3.102   4.377
 3619SOL    HW110874   3.802   3.055   4.465
 3619SOL    HW210875   3.885   3.074   4.326
 3620SOL     OW10876   4.152   2.286   4.244
 3620SOL    HW110877   4.182   2.214   4.182
 3620SOL    HW210878   4.113   2.246   4.327
 3621SOL     OW10879   4.536   3.448   4.411
 3621SOL    HW110880   4.568   3.458   4.317
 3621SOL    HW210881   4.457   3.386   4.413
 3622SOL     OW10882   4.494   3.192   4.025
 3622SOL    HW110883   4.448   3.105   4.042
 3622SOL    HW210884   4.585   3.189   4.066
 3623SOL     OW10885   3.763   2.939   4.024
 3623SOL    HW110886   3.862   2.928   4.015
 3623SOL    HW210887   3.723   2.853   4.056
 3624SOL     OW10888   4.599   3.508   4.061
 3624SOL    HW110889   4.522   3.473   4.007
 3624SOL    HW210890   4.567   3.579   4.123
 3625SOL     OW10891   3.954   4.352   0.113
 3625SOL    HW110892   3.861   4.350   0.150
 3625SOL    HW210893   3.955   4.313   0.021
 3626SOL     OW10894   3.949   3.999   0.996
 3626SOL    HW110895   3.984   3.982   1.088
 3626SOL    HW210896   3.861   3.954   0.984
 3627SOL     OW10897   3.743   4.092   0.647
 3627SOL    HW110898   3.661   4.135   0.686
 3627SOL    HW210899   3.715   4.019   0.584
 3628SOL     OW10900   4.492   4.868   1.023
 3628SOL    HW110901   4.414   4.885   1.083
 3628SOL    HW210902   4.526   4.955   0.987
 3629SOL     OW10903   4.574   4.522   1.823
 3629SOL    HW110904   4.570   4.598   1.888
 3629SOL    HW210905   4.596   4.558   1.732
 3630SOL     OW10906   4.409   4.736   0.665
 3630SOL    HW110907   4.478   4.720   0.735
 3630SOL    HW210908   4.336   4.793   0.703
 3631SOL     OW10909   4.162   4.116   1.499
 3631SOL    HW110910   4.244   4.060   1.508
 3631SOL    HW210911   4.081   4.058   1.503
 3632SOL     OW10912   3.954   5.158   0.538
 3632SOL    HW110913   3.928   5.254   0.538
 3632SOL    HW210914   3.883   5.104   0.583
 3633SOL     OW10915   3.964   4.815   0.886
 3633SOL    HW110916   3.978   4.731   0.938
 3633SOL    HW210917   3.909   4.879   0.941
 3634SOL     OW10918   4.330   4.688   0.123
 3634SOL    HW110919   4.337   4.772   0.069
 3634SOL    HW210920   4.376   4.701   0.211
 3635SOL     OW10921   3.846   4.367   0.563
 3635SOL    HW110922   3.801   4.279   0.580
 3635SOL    HW210923   3.845   4.421   0.647
 3636SOL     OW10924   3.837   4.461   1.597
 3636SOL    HW110925   3.925   4.448   1.642
 3636SOL    HW210926   3.824   4.558   1.575
 3637SOL     OW10927   4.533   3.728   0.502
 3637SOL    HW110928   4.573   3.819   0.493
 3637SOL    HW210929   4.433   3.736   0.508
 3638SOL     OW10930   3.921   4.700   1.264
 3638SOL    HW110931   4.010   4.655   1.250
 3638SOL    HW210932   3.848   4.635   1.245
 3639SOL     OW10933   4.041   3.975   1.801
 3639SOL    HW110934   4.112   4.046   1.807
 3639SOL    HW210935   3.953   4.014   1.829
 3640SOL     OW10936   4.322   4.453   0.270
 3640SOL    HW110937   4.346   4.522   0.202
 3640SOL    HW210938   4.244   4.486   0.324
 3641SOL     OW10939   4.531   4.329   1.465
 3641SOL    HW110940   4.484   4.326   1.554
 3641SOL    HW210941   4.480   4.274   1.399
 3642SOL     OW10942   4.697   4.614   1.572
 3642SOL    HW110943   4.743   4.530   1.543
 3642SOL    HW210944   4.641   4.648   1.497
 3643SOL     OW10945   4.715   4.134   1.242
 3643SOL    HW110946   4.638   4.168   1.296
 3643SOL    HW210947   4.681   4.083   1.163
 3644SOL     OW10948   4.765   4.425   0.429
 3644SOL    HW110949   4.791   4.421   0.525
 3644SOL    HW210950   4.680   4.374   0.415
 3645SOL     OW10951   3.800   4.535   0.789
 3645SOL    HW110952   3.899   4.523   0.798
 3645SOL    HW210953   3.776   4.630   0.810
 3646SOL     OW10954   4.589   4.072   0.195
 3646SOL    HW110955   4.648   4.135   0.146
 3646SOL    HW210956   4.608   3.978   0.166
 3647SOL     OW10957   4.274   3.920   0.885
 3647SOL    HW110958   4.269   3.915   0.985
 3647SOL    HW210959   4.276   4.016   0.856
 3648SOL     OW10960   4.045   4.667   0.242
 3648SOL    HW110961   4.127   4.706   0.200
 3648SOL    HW210962   4.018   4.585   0.193
 3649SOL     OW10963   3.926   4.009   1.498
 3649SOL    HW110964   3.846   4.069   1.485
 3649SOL    HW210965   3.916   3.960   1.584
 3650SOL     OW10966   4.106   4.424   0.480
 3650SOL    HW110967   4.151   4.334   0.477
 3650SOL    HW210968   4.012   4.413   0.513
 3651SOL     OW10969   4.338   3.846   0.117
 3651SOL    HW110970   4.436   3.824   0.124
 3651SOL    HW210971   4.307   3.829   0.024
 3652SOL     OW10972   4.505   3.988   1.749
 3652SOL    HW110973   4.572   3.927   1.792
 3652SOL    HW210974   4.432   4.007   1.814
 3653SOL     OW10975   4.646   4.227   0.899
 3653SOL    HW110976   4.621   4.218   0.803
 3653SOL    HW210977   4.694   4.145   0.930
 3654SOL     OW10978   4.263   3.788   0.512
 3654SOL    HW110979   4.182   3.789   0.570
 3654SOL    HW210980   4.266   3.871   0.457
 3655SOL     OW10981   4.659   3.960   0.480
 3655SOL    HW110982   4.611   4.001   0.402
 3655SOL    HW210983   4.758   3.958   0.461
 3656SOL     OW10984   4.183   4.876   0.741
 3656SOL    HW110985   4.112   4.849   0.806
 3656SOL    HW210986   4.157   4.848   0.648
 3657SOL     OW10987   4.756   4.273   0.016
 3657SOL    HW110988   4.715   4.355  -0.023
 3657SOL    HW210989   4.820   4.299   0.089
 3658SOL     OW10990   3.802   4.280   1.386
 3658SOL    HW110991   3.894   4.279   1.345
 3658SOL    HW210992   3.796   4.354   1.453
 3659SOL     OW10993   4.285   3.946   1.147
 3659SOL    HW110994   4.323   3.862   1.184
 3659SOL    HW210995   4.197   3.965   1.191
 3660SOL     OW10996   4.590   4.178   0.642
 3660SOL    HW110997   4.558   4.250   0.580
 3660SOL    HW210998   4.614   4.097   0.589
 3661SOL     OW10999   4.741   3.763   0.753
 3661SOL    HW111000   4.669   3.768   0.684
 3661SOL    HW211001   4.717   3.694   0.822
 3662SOL     OW11002   4.251   3.980   0.328
 3662SOL    HW111003   4.278   3.921   0.253
 3662SOL    HW211004   4.251   4.075   0.297
 3663SOL     OW11005   4.639   3.813   1.402
 3663SOL    HW111006   4.664   3.793   1.307
 3663SOL    HW211007   4.711   3.869   1.444
 3664SOL     OW11008   4.429   4.774   0.368
 3664SOL    HW111009   4.415   4.781   0.467
 3664SOL    HW211010   4.513   4.723   0.350
 3665SOL     OW11011   4.134   4.537   1.251
 3665SOL    HW111012   4.220   4.549   1.301
 3665SOL    HW211013   4.092   4.450   1.278
 3666SOL     OW11014   4.091   4.824   0.501
 3666SOL    HW111015   4.084   4.907   0.445
 3666SOL    HW211016   4.095   4.744   0.441
 3667SOL     OW11017   4.290   4.261   0.865
 3667SOL    HW111018   4.302   4.327   0.791
 3667SOL    HW211019   4.336   4.295   0.948
 3668SOL     OW11020   4.126   4.475   1.598
 3668SOL    HW111021   4.194   4.530   1.551
 3668SOL    HW211022   4.166   4.387   1.625
 3669SOL     OW11023   4.737   3.829   1.770
 3669SOL    HW111024   4.743   3.914   1.718
 3669SOL    HW211025   4.769   3.753   1.713
 3670SOL     OW11026   4.228   3.774   1.740
 3670SOL    HW111027   4.186   3.717   1.670
 3670SOL    HW211028   4.162   3.843   1.772
 3671SOL     OW11029   4.297   4.594   1.029
 3671SOL    HW111030   4.341   4.683   1.020
 3671SOL    HW211031   4.234   4.594   1.106
 3672SOL     OW11032   4.933   4.249   0.275
 3672SOL    HW111033   4.946   4.165   0.329
 3672SOL    HW211034   4.904   4.323   0.335
 3673SOL     OW11035   4.031   3.937   1.231
 3673SOL    HW111036   4.008   3.974   1.321
 3673SOL    HW211037   4.001   3.842   1.225
 3674SOL     OW11038   4.456   4.358   1.064
 3674SOL    HW111039   4.515   4.332   0.988
 3674SOL    HW211040   4.428   4.454   1.053
 3675SOL     OW11041   4.031   3.787   0.618
 3675SOL    HW111042   4.020   3.881   0.651
 3675SOL    HW211043   4.026   3.724   0.695
 3676SOL     OW11044   4.747   4.490   0.966
 3676SOL    HW111045   4.762   4.511   1.062
 3676SOL    HW211046   4.717   4.395   0.957
 3677SOL     OW11047   4.074   4.622   1.804
 3677SOL    HW111048   4.150   4.666   1.852
 3677SOL    HW211049   4.109   4.575   1.722
 3678SOL     OW11050   4.043   4.534   0.949
 3678SOL    HW111051   4.136   4.570   0.954
 3678SOL    HW211052   4.037   4.449   1.001
 3679SOL     OW11053   4.063   4.233   1.006
 3679SOL    HW111054   4.011   4.150   0.989
 3679SOL    HW211055   4.140   4.238   0.942
 3680SOL     OW11056   4.862   4.104   1.678
 3680SOL    HW111057   4.817   4.167   1.742
 3680SOL    HW211058   4.955   4.135   1.661
 3681SOL     OW11059   4.884   3.931   1.477
 3681SOL    HW111060   4.884   3.995   1.554
 3681SOL    HW211061   4.912   3.979   1.394
 3682SOL     OW11062   4.726   4.520   1.238
 3682SOL    HW111063   4.767   4.488   1.324
 3682SOL    HW211064   4.630   4.493   1.235
 3683SOL     OW11065   3.764   4.268   1.114
 3683SOL    HW111066   3.849   4.235   1.073
 3683SOL    HW211067   3.777   4.283   1.212
 3684SOL     OW11068   3.913   4.244   1.722
 3684SOL    HW111069   3.972   4.204   1.652
 3684SOL    HW211070   3.855   4.315   1.681
 3685SOL     OW11071   4.539   4.296   0.325
 3685SOL    HW111072   4.546   4.207   0.279
 3685SOL    HW211073   4.445   4.330   0.317
 3686SOL     OW11074   4.395   4.188   1.269
 3686SOL    HW111075   4.361   4.099   1.239
 3686SOL    HW211076   4.421   4.242   1.189
 3687SOL     OW11077   4.197   4.224   0.191
 3687SOL    HW111078   4.258   4.304   0.195
 3687SOL    HW211079   4.102   4.255   0.198
 3688SOL     OW11080   3.883   4.861   1.466
 3688SOL    HW111081   3.905   4.800   1.542
 3688SOL    HW211082   3.893   4.812   1.380
 3689SOL     OW11083   5.026   4.579   0.309
 3689SOL    HW111084   4.940   4.548   0.351
 3689SOL    HW211085   5.022   4.565   0.210
 3690SOL     OW11086   4.627   3.810   0.133
 3690SOL    HW111087   4.678   3.811   0.047
 3690SOL    HW211088   4.683   3.768   0.204
 3691SOL     OW11089   3.987   4.050   0.720
 3691SOL    HW111090   3.908   4.101   0.686
 3691SOL    HW211091   3.978   4.035   0.818
 3692SOL     OW11092   4.546   4.726   1.372
 3692SOL    HW111093   4.586   4.725   1.280
 3692SOL    HW211094   4.556   4.818   1.412
 3693SOL     OW11095   4.640   4.634   0.291
 3693SOL    HW111096   4.703   4.672   0.223
 3693SOL    HW211097   4.680   4.551   0.330
 3694SOL     OW11098   4.096   5.012   1.490
 3694SOL    HW111099   4.083   5.105   1.456
 3694SOL    HW211100   4.012   4.960   1.477
 3695SOL     OW11101   4.738   3.960   0.971
 3695SOL    HW111102   4.730   3.924   0.878
 3695SOL    HW211103   4.736   3.884   1.036
 3696SOL     OW11104   3.829   4.737   1.726
 3696SOL    HW111105   3.752   4.704   1.780
 3696SOL    HW211106   3.914   4.707   1.768
 3697SOL     OW11107   4.396   3.927   1.489
 3697SOL    HW111108   4.486   3.911   1.449
 3697SOL    HW211109   4.404   3.932   1.588
 3698SOL     OW11110   3.796   3.890   0.318
 3698SOL    HW111111   3.779   3.973   0.264
 3698SOL    HW211112   3.886   3.853   0.296
 3699SOL     OW11113   4.337   4.566   1.431
 3699SOL    HW111114   4.393   4.647   1.414
 3699SOL    HW211115   4.396   4.486   1.434
 3700SOL     OW11116   4.440   4.289   1.708
 3700SOL    HW111117   4.459   4.354   1.782
 3700SOL    HW211118   4.500   4.209   1.717
 3701SOL     OW11119   4.318   4.469   0.652
 3701SOL    HW111120   4.368   4.554   0.633
 3701SOL    HW211121   4.230   4.471   0.604
 3702SOL     OW11122   4.583   4.680   0.861
 3702SOL    HW111123   4.637   4.611   0.909
 3702SOL    HW211124   4.551   4.749   0.927
 3703SOL     OW11125   4.807   4.708   0.087
 3703SOL    HW111126   4.784   4.761   0.005
 3703SOL    HW211127   4.888   4.652   0.068
 3704SOL     OW11128   4.152   4.148   0.520
 3704SOL    HW111129   4.182   4.076   0.458
 3704SOL    HW211130   4.113   4.108   0.603
 3705SOL     OW11131   4.041   4.271   1.280
 3705SOL    HW111132   4.079   4.212   1.352
 3705SOL    HW211133   4.081   4.245   1.192
 3706SOL     OW11134   4.725   3.758   1.154
 3706SOL    HW111135   4.662   3.686   1.123
 3706SOL    HW211136   4.818   3.722   1.154
 3707SOL     OW11137   4.494   5.054   0.301
 3707SOL    HW111138   4.448   4.967   0.318
 3707SOL    HW211139   4.585   5.051   0.342
 3708SOL     OW11140   3.763   4.801   0.300
 3708SOL    HW111141   3.862   4.790   0.291
 3708SOL    HW211142   3.723   4.715   0.332
 3709SOL     OW11143   3.954   4.352   1.975
 3709SOL    HW111144   3.861   4.350   2.012
 3709SOL    HW211145   3.955   4.313   1.883
 3710SOL     OW11146   3.949   3.999   2.858
 3710SOL    HW111147   3.984   3.982   2.950
 3710SOL    HW211148   3.861   3.954   2.846
 3711SOL     OW11149   3.743   4.092   2.509
 3711SOL    HW111150   3.661   4.135   2.548
 3711SOL    HW211151   3.715   4.019   2.446
 3712SOL     OW11152   4.492   4.868   2.885
 3712SOL    HW111153   4.414   4.885   2.945
 3712SOL    HW211154   4.526   4.955   2.849
 3713SOL     OW11155   4.574   4.522   3.685
 3713SOL    HW111156   4.570   4.598   3.750
 3713SOL    HW211157   4.596   4.558   3.594
 3714SOL     OW11158   4.409   4.736   2.527
 3714SOL    HW111159   4.478   4.720   2.597
 3714SOL    HW211160   4.336   4.793   2.565
 3715SOL     OW11161   4.162   4.116   3.361
 3715SOL    HW111162   4.244   4.060   3.370
 3715SOL    HW211163   4.081   4.058   3.365
 3716SOL     OW11164   3.954   5.158   2.400
 3716SOL    HW111165   3.928   5.254   2.400
 3716SOL    HW211166   3.883   5.104   2.445
 3717SOL     OW11167   3.964   4.815   2.748
 3717SOL    HW111168   3.978   4.731   2.800
 3717SOL    HW211169   3.909   4.879   2.803
 3718SOL     OW11170   4.330   4.688   1.985
 3718SOL    HW111171   4.337   4.772   1.931
 3718SOL    HW211172   4.376   4.701   2.073
 3719SOL     OW11173   3.846   4.367   2.425
 3719SOL    HW111174   3.801   4.279   2.442
 3719SOL    HW211175   3.845   4.421   2.509
 3720SOL     OW11176   3.837   4.461   3.459
 3720SOL    HW111177   3.925   4.448   3.504
 3720SOL    HW211178   3.824   4.558   3.437
 3721SOL     OW11179   4.533   3.728   2.364
 3721SOL    HW111180   4.573   3.819   2.355
 3721SOL    HW211181   4.433   3.736   2.370
 3722SOL     OW11182   3.921   4.700   3.126
 3722SOL    HW111183   4.010   4.655   3.112
 3722SOL    HW211184   3.848   4.635   3.107
 3723SOL     OW11185   4.041   3.975   3.663
 3723SOL    HW111186   4.112   4.046   3.669
 3723SOL    HW211187   3.953   4.014   3.691
 3724SOL     OW11188   4.322   4.453   2.132
 3724SOL    HW111189   4.346   4.522   2.064
 3724SOL    HW211190   4.244   4.486   2.186
 3725SOL     OW11191   4.531   4.329   3.327
 3725SOL    HW111192   4.484   4.326   3.416
 3725SOL    HW211193   4.480   4.274   3.261
 3726SOL     OW11194   4.697   4.614   3.434
 3726SOL    HW111195   4.743   4.530   3.405
 3726SOL    HW211196   4.641   4.648   3.359
 3727SOL     OW11197   4.715   4.134   3.104
 3727SOL    HW111198   4.638   4.168   3.158
 3727SOL    HW211199   4.681   4.083   3.025
 3728SOL     OW11200   4.765   4.425   2.291
 3728SOL    HW111201   4.791   4.421   2.387
 3728SOL    HW211202   4.680   4.374   2.277
 3729SOL     OW11203   3.800   4.535   2.651
 3729SOL    HW111204   3.899   4.523   2.660
 3729SOL    HW211205   3.776   4.630   2.672
 3730SOL     OW11206   4.589   4.072   2.057
 3730SOL    HW111207   4.648   4.135   2.008
 3730SOL    HW211208   4.608   3.978   2.028
 3731SOL     OW11209   4.274   3.920   2.747
 3731SOL    HW111210   4.269   3.915   2.847
 3731SOL    HW211211   4.276   4.016   2.718
 3732SOL     OW11212   4.045   4.667   2.104
 3732SOL    HW111213   4.127   4.706   2.062
 3732SOL    HW211214   4.018   4.585   2.055
 3733SOL     OW11215   3.926   4.009   3.360
 3733SOL    HW111216   3.846   4.069   3.347
 3733SOL    HW211217   3.916   3.960   3.446
 3734SOL     OW11218   4.106   4.424   2.342
 3734SOL    HW111219   4.151   4.334   2.339
 3734SOL    HW211220   4.012   4.413   2.375
 3735SOL     OW11221   4.338   3.846   1.979
 3735SOL    HW111222   4.436   3.824   1.986
 3735SOL    HW211223   4.307   3.829   1.886
 3736SOL     OW11224   4.505   3.988   3.611
 3736SOL    HW111225   4.572   3.927   3.654
 3736SOL    HW211226   4.432   4.007   3.676
 3737SOL     OW11227   4.646   4.227   2.761
 3737SOL    HW111228   4.621   4.218   2.665
 3737SOL    HW211229   4.694   4.145   2.792
 3738SOL     OW11230   4.263   3.788   2.374
 3738SOL    HW111231   4.182   3.789   2.432
 3738SOL    HW211232   4.266   3.871   2.319
 3739SOL     OW11233   4.021   3.759   2.033
 3739SOL    HW111234   4.070   3.843   2.012
 3739SOL    HW211235   4.083   3.694   2.078
 3740SOL     OW11236   4.659   3.960   2.342
 3740SOL    HW111237   4.611   4.001   2.264
 3740SOL    HW211238   4.758   3.958   2.323
 3741SOL     OW11239   4.183   4.876   2.603
 3741SOL    HW111240   4.112   4.849   2.668
 3741SOL    HW211241   4.157   4.848   2.510
 3742SOL     OW11242   4.756   4.273   1.878
 3742SOL    HW111243   4.715   4.355   1.839
 3742SOL    HW211244   4.820   4.299   1.951
 3743SOL     OW11245   3.802   4.280   3.248
 3743SOL    HW111246   3.894   4.279   3.207
 3743SOL    HW211247   3.796   4.354   3.315
 3744SOL     OW11248   4.285   3.946   3.009
 3744SOL    HW111249   4.323   3.862   3.046
 3744SOL    HW211250   4.197   3.965   3.053
 3745SOL     OW11251   4.590   4.178   2.504
 3745SOL    HW111252   4.558   4.250   2.442
 3745SOL    HW211253   4.614   4.097   2.451
 3746SOL     OW11254   4.741   3.763   2.615
 3746SOL    HW111255   4.669   3.768   2.546
 3746SOL    HW211256   4.717   3.694   2.684
 3747SOL     OW11257   4.251   3.980   2.190
 3747SOL    HW111258   4.278   3.921   2.115
 3747SOL    HW211259   4.251   4.075   2.159
 3748SOL     OW11260   4.639   3.813   3.264
 3748SOL    HW111261   4.664   3.793   3.169
 3748SOL    HW211262   4.711   3.869   3.306
 3749SOL     OW11263   4.429   4.774   2.230
 3749SOL    HW111264   4.415   4.781   2.329
 3749SOL    HW211265   4.513   4.723   2.212
 3750SOL     OW11266   4.134   4.537   3.113
 3750SOL    HW111267   4.220   4.549   3.163
 3750SOL    HW211268   4.092   4.450   3.140
 3751SOL     OW11269   4.091   4.824   2.363
 3751SOL    HW111270   4.084   4.907   2.307
 3751SOL    HW211271   4.095   4.744   2.303
 3752SOL     OW11272   4.290   4.261   2.727
 3752SOL    HW111273   4.302   4.327   2.653
 3752SOL    HW211274   4.336   4.295   2.810
 3753SOL     OW11275   4.126   4.475   3.460
 3753SOL    HW111276   4.194   4.530   3.413
 3753SOL    HW211277   4.166   4.387   3.487
 3754SOL     OW11278   4.737   3.829   3.632
 3754SOL    HW111279   4.743   3.914   3.580
 3754SOL    HW211280   4.769   3.753   3.575
 3755SOL     OW11281   4.228   3.774   3.602
 3755SOL    HW111282   4.186   3.717   3.532
 3755SOL    HW211283   4.162   3.843   3.634
 3756SOL     OW11284   4.297   4.594   2.891
 3756SOL    HW111285   4.341   4.683   2.882
 3756SOL    HW211286   4.234   4.594   2.968
 3757SOL     OW11287   4.933   4.249   2.137
 3757SOL    HW111288   4.946   4.165   2.191
 3757SOL    HW211289   4.904   4.323   2.197
 3758SOL     OW11290   4.031   3.937   3.093
 3758SOL    HW111291   4.008   3.974   3.183
 3758SOL    HW211292   4.001   3.842   3.087
 3759SOL     OW11293   4.456   4.358   2.926
 3759SOL    HW111294   4.515   4.332   2.850
 3759SOL    HW211295   4.428   4.454   2.915
 3760SOL     OW11296   4.031   3.787   2.480
 3760SOL    HW111297   4.020   3.881   2.513
 3760SOL    HW211298   4.026   3.724   2.557
 3761SOL     OW11299   4.747   4.490   2.828
 3761SOL    HW111300   4.762   4.511   2.924
 3761SOL    HW211301   4.717   4.395   2.819
 3762SOL     OW11302   4.074   4.622   3.666
 3762SOL    HW111303   4.150   4.666   3.714
 3762SOL    HW211304   4.109   4.575   3.584
 3763SOL     OW11305   4.043   4.534   2.811
 3763SOL    HW111306   4.136   4.570   2.816
 3763SOL    HW211307   4.037   4.449   2.863
 3764SOL     OW11308   4.063   4.233   2.868
 3764SOL    HW111309   4.011   4.150   2.851
 3764SOL    HW211310   4.140   4.238   2.804
 3765SOL     OW11311   4.862   4.104   3.540
 3765SOL    HW111312   4.817   4.167   3.604
 3765SOL    HW211313   4.955   4.135   3.523
 3766SOL     OW11314   4.884   3.931   3.339
 3766SOL    HW111315   4.884   3.995   3.416
 3766SOL    HW211316   4.912   3.979   3.256
 3767SOL     OW11317   4.726   4.520   3.100
 3767SOL    HW111318   4.767   4.488   3.186
 3767SOL    HW211319   4.630   4.493   3.097
 3768SOL     OW11320   3.764   4.268   2.976
 3768SOL    HW111321   3.849   4.235   2.935
 3768SOL    HW211322   3.777   4.283   3.074
 3769SOL     OW11323   3.913   4.244   3.584
 3769SOL    HW111324   3.972   4.204   3.514
 3769SOL    HW211325   3.855   4.315   3.543
 3770SOL     OW11326   4.539   4.296   2.187
 3770SOL    HW111327   4.546   4.207   2.141
 3770SOL    HW211328   4.445   4.330   2.179
 3771SOL     OW11329   4.395   4.188   3.131
 3771SOL    HW111330   4.361   4.099   3.101
 3771SOL    HW211331   4.421   4.242   3.051
 3772SOL     OW11332   4.197   4.224   2.053
 3772SOL    HW111333   4.258   4.304   2.057
 3772SOL    HW211334   4.102   4.255   2.060
 3773SOL     OW11335   3.883   4.861   3.328
 3773SOL    HW111336   3.905   4.800   3.404
 3773SOL    HW211337   3.893   4.812   3.242
 3774SOL     OW11338   5.026   4.579   2.171
 3774SOL    HW111339   4.940   4.548   2.213
 3774SOL    HW211340   5.022   4.565   2.072
 3775SOL     OW11341   3.987   4.050   2.582
 3775SOL    HW111342   3.908   4.101   2.548
 3775SOL    HW211343   3.978   4.035   2.680
 3776SOL     OW11344   4.546   4.726   3.234
 3776SOL    HW111345   4.586   4.725   3.142
 3776SOL    HW211346   4.556   4.818   3.274
 3777SOL     OW11347   4.640   4.634   2.153
 3777SOL    HW111348   4.703   4.672   2.085
 3777SOL    HW211349   4.680   4.551   2.192
 3778SOL     OW11350   4.096   5.012   3.352
 3778SOL    HW111351   4.083   5.105   3.318
 3778SOL    HW211352   4.012   4.960   3.339
 3779SOL     OW11353   4.738   3.960   2.833
 3779SOL    HW111354   4.730   3.924   2.740
 3779SOL    HW211355   4.736   3.884   2.898
 3780SOL     OW11356   3.829   4.737   3.588
 3780SOL    HW111357   3.752   4.704   3.642
 3780SOL    HW211358   3.914   4.707   3.630
 3781SOL     OW11359   4.396   3.927   3.351
 3781SOL    HW111360   4.486   3.911   3.311
 3781SOL    HW211361   4.404   3.932   3.450
 3782SOL     OW11362   3.799   4.069   1.895
 3782SOL    HW111363   3.707   4.041   1.866
 3782SOL    HW211364   3.830   4.146   1.839
 3783SOL     OW11365   3.796   3.890   2.180
 3783SOL    HW111366   3.779   3.973   2.126
 3783SOL    HW211367   3.886   3.853   2.158
 3784SOL     OW11368   4.337   4.566   3.293
 3784SOL    HW111369   4.393   4.647   3.276
 3784SOL    HW211370   4.396   4.486   3.296
 3785SOL     OW11371   4.440   4.289   3.570
 3785SOL    HW111372   4.459   4.354   3.644
 3785SOL    HW211373   4.500   4.209   3.579
 3786SOL     OW11374   4.318   4.469   2.514
 3786SOL    HW111375   4.368   4.554   2.495
 3786SOL    HW211376   4.230   4.471   2.466
 3787SOL     OW11377   4.583   4.680   2.723
 3787SOL    HW111378   4.637   4.611   2.771
 3787SOL    HW211379   4.551   4.749   2.789
 3788SOL     OW11380   4.807   4.708   1.949
 3788SOL    HW111381   4.784   4.761   1.867
 3788SOL    HW211382   4.888   4.652   1.930
 3789SOL     OW11383   4.152   4.148   2.382
 3789SOL    HW111384   4.182   4.076   2.320
 3789SOL    HW211385   4.113   4.108   2.465
 3790SOL     OW11386   4.041   4.271   3.142
 3790SOL    HW111387   4.079   4.212   3.214
 3790SOL    HW211388   4.081   4.245   3.054
 3791SOL     OW11389   4.725   3.758   3.016
 3791SOL    HW111390   4.662   3.686   2.985
 3791SOL    HW211391   4.818   3.722   3.016
 3792SOL     OW11392   4.494   5.054   2.163
 3792SOL    HW111393   4.448   4.967   2.180
 3792SOL    HW211394   4.585   5.051   2.204
 3793SOL     OW11395   3.763   4.801   2.162
 3793SOL    HW111396   3.862   4.790   2.153
 3793SOL    HW211397   3.723   4.715   2.194
 3794SOL     OW11398   3.954   4.352   3.837
 3794SOL    HW111399   3.861   4.350   3.874
 3794SOL    HW211400   3.955   4.313   3.745
 3795SOL     OW11401   3.949   3.999   4.720
 3795SOL    HW111402   3.984   3.982   4.812
 3795SOL    HW211403   3.861   3.954   4.708
 3796SOL     OW11404   3.743   4.092   4.371
 3796SOL    HW111405   3.661   4.135   4.410
 3796SOL    HW211406   3.715   4.019   4.308
 3797SOL     OW11407   4.492   4.868   4.747
 3797SOL    HW111408   4.414   4.885   4.807
 3797SOL    HW211409   4.526   4.955   4.711
 3798SOL     OW11410   4.409   4.736   4.389
 3798SOL    HW111411   4.478   4.720   4.459
 3798SOL    HW211412   4.336   4.793   4.427
 3799SOL     OW11413   3.954   5.158   4.262
 3799SOL    HW111414   3.928   5.254   4.262
 3799SOL    HW211415   3.883   5.104   4.307
 3800SOL     OW11416   3.964   4.815   4.610
 3800SOL    HW111417   3.978   4.731   4.662
 3800SOL    HW211418   3.909   4.879   4.665
 3801SOL     OW11419   4.330   4.688   3.847
 3801SOL    HW111420   4.337   4.772   3.793
 3801SOL    HW211421   4.376   4.701   3.935
 3802SOL     OW11422   3.846   4.367   4.287
 3802SOL    HW111423   3.801   4.279   4.304
 3802SOL    HW211424   3.845   4.421   4.371
 3803SOL     OW11425   4.533   3.728   4.226
 3803SOL    HW111426   4.573   3.819   4.217
 3803SOL    HW211427   4.433   3.736   4.232
 3804SOL     OW11428   3.921   4.700   4.988
 3804SOL    HW111429   4.010   4.655   4.974
 3804SOL    HW211430   3.848   4.635   4.969
 3805SOL     OW11431   4.322   4.453   3.994
 3805SOL    HW111432   4.346   4.522   3.926
 3805SOL    HW211433   4.244   4.486   4.048
 3806SOL     OW11434   4.765   4.425   4.153
 3806SOL    HW111435   4.791   4.421   4.249
 3806SOL    HW211436   4.680   4.374   4.139
 3807SOL     OW11437   3.800   4.535   4.513
 3807SOL    HW111438   3.899   4.523   4.522
 3807SOL    HW211439   3.776   4.630   4.534
 3808SOL     OW11440   4.589   4.072   3.919
 3808SOL    HW111441   4.648   4.135   3.870
 3808SOL    HW211442   4.608   3.978   3.890
 3809SOL     OW11443   4.274   3.920   4.609
 3809SOL    HW111444   4.269   3.915   4.709
 3809SOL    HW211445   4.276   4.016   4.580
 3810SOL     OW11446   4.045   4.667   3.966
 3810SOL    HW111447   4.127   4.706   3.924
 3810SOL    HW211448   4.018   4.585   3.917
 3811SOL     OW11449   4.106   4.424   4.204
 3811SOL    HW111450   4.151   4.334   4.201
 3811SOL    HW211451   4.012   4.413   4.237
 3812SOL     OW11452   4.338   3.846   3.841
 3812SOL    HW111453   4.436   3.824   3.848
 3812SOL    HW211454   4.307   3.829   3.748
 3813SOL     OW11455   4.646   4.227   4.623
 3813SOL    HW111456   4.621   4.218   4.527
 3813SOL    HW211457   4.694   4.145   4.654
 3814SOL     OW11458   4.263   3.788   4.236
 3814SOL    HW111459   4.182   3.789   4.294
 3814SOL    HW211460   4.266   3.871   4.181
 3815SOL     OW11461   4.021   3.759   3.895
 3815SOL    HW111462   4.070   3.843   3.874
 3815SOL    HW211463   4.083   3.694   3.940
 3816SOL     OW11464   4.659   3.960   4.204
 3816SOL    HW111465   4.611   4.001   4.126
 3816SOL    HW211466   4.758   3.958   4.185
 3817SOL     OW11467   4.183   4.876   4.465
 3817SOL    HW111468   4.112   4.849   4.530
 3817SOL    HW211469   4.157   4.848   4.372
 3818SOL     OW11470   4.756   4.273   3.740
 3818SOL    HW111471   4.715   4.355   3.701
 3818SOL    HW211472   4.820   4.299   3.813
 3819SOL     OW11473   4.590   4.178   4.366
 3819SOL    HW111474   4.558   4.250   4.304
 3819SOL    HW211475   4.614   4.097   4.313
 3820SOL     OW11476   4.741   3.763   4.477
 3820SOL    HW111477   4.669   3.768   4.408
 3820SOL    HW211478   4.717   3.694   4.546
 3821SOL     OW11479   4.251   3.980   4.052
 3821SOL    HW111480   4.278   3.921   3.977
 3821SOL    HW211481   4.251   4.075   4.021
 3822SOL     OW11482   4.429   4.774   4.092
 3822SOL    HW111483   4.415   4.781   4.191
 3822SOL    HW211484   4.513   4.723   4.074
 3823SOL     OW11485   4.134   4.537   4.975
 3823SOL    HW111486   4.220   4.549   5.025
 3823SOL    HW211487   4.092   4.450   5.002
 3824SOL     OW11488   4.091   4.824   4.225
 3824SOL    HW111489   4.084   4.907   4.169
 3824SOL    HW211490   4.095   4.744   4.165
 3825SOL     OW11491   4.290   4.261   4.589
 3825SOL    HW111492   4.302   4.327   4.515
 3825SOL    HW211493   4.336   4.295   4.672
 3826SOL     OW11494   4.297   4.594   4.753
 3826SOL    HW111495   4.341   4.683   4.744
 3826SOL    HW211496   4.234   4.594   4.830
 3827SOL     OW11497   4.933   4.249   3.999
 3827SOL    HW111498   4.946   4.165   4.053
 3827SOL    HW211499   4.904   4.323   4.059
 3828SOL     OW11500   4.031   3.937   4.955
 3828SOL    HW111501   4.008   3.974   5.045
 3828SOL    HW211502   4.001   3.842   4.949
 3829SOL     OW11503   4.456   4.358   4.788
 3829SOL    HW111504   4.515   4.332   4.712
 3829SOL    HW211505   4.428   4.454   4.777
 3830SOL     OW11506   4.031   3.787   4.342
 3830SOL    HW111507   4.020   3.881   4.375
 3830SOL    HW211508   4.026   3.724   4.419
 3831SOL     OW11509   4.747   4.490   4.690
 3831SOL    HW111510   4.762   4.511   4.786
 3831SOL    HW211511   4.717   4.395   4.681
 3832SOL     OW11512   4.043   4.534   4.673
 3832SOL    HW111513   4.136   4.570   4.678
 3832SOL    HW211514   4.037   4.449   4.725
 3833SOL     OW11515   4.063   4.233   4.730
 3833SOL    HW111516   4.011   4.150   4.713
 3833SOL    HW211517   4.140   4.238   4.666
 3834SOL     OW11518   4.726   4.520   4.962
 3834SOL    HW111519   4.767   4.488   5.048
 3834SOL    HW211520   4.630   4.493   4.959
 3835SOL     OW11521   3.764   4.268   4.838
 3835SOL    HW111522   3.849   4.235   4.797
 3835SOL    HW211523   3.777   4.283   4.936
 3836SOL     OW11524   4.539   4.296   4.049
 3836SOL    HW111525   4.546   4.207   4.003
 3836SOL    HW211526   4.445   4.330   4.041
 3837SOL     OW11527   4.395   4.188   4.993
 3837SOL    HW111528   4.361   4.099   4.963
 3837SOL    HW211529   4.421   4.242   4.913
 3838SOL     OW11530   4.197   4.224   3.915
 3838SOL    HW111531   4.258   4.304   3.919
 3838SOL    HW211532   4.102   4.255   3.922
 3839SOL     OW11533   5.026   4.579   4.033
 3839SOL    HW111534   4.940   4.548   4.075
 3839SOL    HW211535   5.022   4.565   3.934
 3840SOL     OW11536   3.987   4.050   4.444
 3840SOL    HW111537   3.908   4.101   4.410
 3840SOL    HW211538   3.978   4.035   4.542
 3841SOL     OW11539   4.640   4.634   4.015
 3841SOL    HW111540   4.703   4.672   3.947
 3841SOL    HW211541   4.680   4.551   4.054
 3842SOL     OW11542   4.738   3.960   4.695
 3842SOL    HW111543   4.730   3.924   4.602
 3842SOL    HW211544   4.736   3.884   4.760
 3843SOL     OW11545   3.799   4.069   3.757
 3843SOL    HW111546   3.707   4.041   3.728
 3843SOL    HW211547   3.830   4.146   3.701
 3844SOL     OW11548   3.796   3.890   4.042
 3844SOL    HW111549   3.779   3.973   3.988
 3844SOL    HW211550   3.886   3.853   4.020
 3845SOL     OW11551   4.318   4.469   4.376
 3845SOL    HW111552   4.368   4.554   4.357
 3845SOL    HW211553   4.230   4.471   4.328
 3846SOL     OW11554   4.583   4.680   4.585
 3846SOL    HW111555   4.637   4.611   4.633
 3846SOL    HW211556   4.551   4.749   4.651
 3847SOL     OW11557   4.807   4.708   3.811
 3847SOL    HW111558   4.784   4.761   3.729
 3847SOL    HW211559   4.888   4.652   3.792
 3848SOL     OW11560   4.152   4.148   4.244
 3848SOL    HW111561   4.182   4.076   4.182
 3848SOL    HW211562   4.113   4.108   4.327
 3849SOL     OW11563   4.494   5.054   4.025
 3849SOL    HW111564   4.448   4.967   4.042
 3849SOL    HW211565   4.585   5.051   4.066
 3850SOL     OW11566   3.763   4.801   4.024
 3850SOL    HW111567   3.862   4.790   4.015
 3850SOL    HW211568   3.723   4.715   4.056
   4.90791   4.90791   4.90791
