; mobley_1929982_GMX_OPLS.top created by acpype (v: 2023.10.27) on Wed May 20 23:51:35 2026

; Include forcefield parameters
#include "ffoplsaa.itp"

; Include mobley_1929982_GMX.itp topology
#include "mobley_1929982_GMX.itp"

; Ligand position restraints
#ifdef POSRES_LIG
#include "posre_mobley_1929982.itp"
#endif

[ system ]
 mobley_1929982

[ molecules ]
; Compound        nmols
 mobley_1929982   1     
