; mobley_4483973_GMX_OPLS.itp created by acpype (v: 2023.10.27) on Wed May 20 23:50:54 2026

; For OPLS atomtypes manual fine tuning
; AC_at:OPLS_at:OPLScode: Possible_Alternatives (see ffoplsaa.atp and ffoplsaanb.itp)
; ca:CA:opls_145: ['166', '501', '502']
; f:x:opls_x: []
; ha:HA:opls_146: []

[ moleculetype ]
;name            nrexcl
 mobley_4483973   3

[ atoms ]
;   nr  type  resi  res  atom  cgnr     charge      mass       ; qtot   bond_type
     1 opls_145     1   MOL    C1    1    -0.145000     12.01100 ; qtot -0.145  CA  
     2 opls_145     1   MOL    C2    2    -0.105000     12.01100 ; qtot -0.250  CA  
     3 opls_145     1   MOL    C3    3    -0.105000     12.01100 ; qtot -0.355  CA  
     4 opls_145     1   MOL    C4    4    -0.166500     12.01100 ; qtot -0.521  CA  
     5 opls_145     1   MOL    C5    5    -0.166500     12.01100 ; qtot -0.688  CA  
     6 opls_145     1   MOL    C6    6     0.123900     12.01100 ; qtot -0.564  CA  
     7 opls_x     1   MOL    F1    7    -0.141900      0.00000 ; qtot -0.706  x   
     8 opls_146     1   MOL    H1    8     0.136000      1.00800 ; qtot -0.570  HA  
     9 opls_146     1   MOL    H2    9     0.137000      1.00800 ; qtot -0.433  HA  
    10 opls_146     1   MOL    H3   10     0.137000      1.00800 ; qtot -0.296  HA  
    11 opls_146     1   MOL    H4   11     0.148000      1.00800 ; qtot -0.148  HA  
    12 opls_146     1   MOL    H5   12     0.148000      1.00800 ; qtot  0.000  HA  

[ bonds ]
;   ai     aj funct   r             k
     1      2   1 ;    1.3986e-01    2.9644e+05 ;     C1 - C2         CA - CA    
     1      3   1 ;    1.3986e-01    2.9644e+05 ;     C1 - C3         CA - CA    
     1      8   1 ;    1.0860e-01    3.0183e+05 ;     C1 - H1         CA - HA    
     2      4   1 ;    1.3986e-01    2.9644e+05 ;     C2 - C4         CA - CA    
     2      9   1 ;    1.0860e-01    3.0183e+05 ;     C2 - H2         CA - HA    
     3      5   1 ;    1.3986e-01    2.9644e+05 ;     C3 - C5         CA - CA    
     3     10   1 ;    1.0860e-01    3.0183e+05 ;     C3 - H3         CA - HA    
     4      6   1 ;    1.3986e-01    2.9644e+05 ;     C4 - C6         CA - CA    
     4     11   1 ;    1.0860e-01    3.0183e+05 ;     C4 - H4         CA - HA    
     5      6   1 ;    1.3986e-01    2.9644e+05 ;     C5 - C6         CA - CA    
     5     12   1 ;    1.0860e-01    3.0183e+05 ;     C5 - H5         CA - HA    
     6      7   1 ;    1.3502e-01    2.8070e+05 ;     C6 - F1         CA - x     

[ pairs ]
;   ai     aj    funct
     1      6      1 ;     C1 - C6    
     1     11      1 ;     C1 - H4    
     1     12      1 ;     C1 - H5    
     2      5      1 ;     C2 - C5    
     2      7      1 ;     C2 - F1    
     2     10      1 ;     C2 - H3    
     3      4      1 ;     C3 - C4    
     3      7      1 ;     C3 - F1    
     3      9      1 ;     C3 - H2    
     4     12      1 ;     C4 - H5    
     5     11      1 ;     C5 - H4    
     6      9      1 ;     C6 - H2    
     6     10      1 ;     C6 - H3    
     7     11      1 ;     F1 - H4    
     7     12      1 ;     F1 - H5    
     8      4      1 ;     H1 - C4    
     8      5      1 ;     H1 - C5    
     8      9      1 ;     H1 - H2    
     8     10      1 ;     H1 - H3    
     9     11      1 ;     H2 - H4    
    10     12      1 ;     H3 - H5    

[ angles ]
;   ai     aj     ak    funct   theta         cth
     1      2      4      1 ;    1.2002e+02    5.3279e+02 ;     C1 - C2   - C4       CA -   CA - CA  
     1      2      9      1 ;    1.1988e+02    3.7572e+02 ;     C1 - C2   - H2       CA -   CA - HA  
     1      3      5      1 ;    1.2002e+02    5.3279e+02 ;     C1 - C3   - C5       CA -   CA - CA  
     1      3     10      1 ;    1.1988e+02    3.7572e+02 ;     C1 - C3   - H3       CA -   CA - HA  
     2      1      3      1 ;    1.2002e+02    5.3279e+02 ;     C2 - C1   - C3       CA -   CA - CA  
     2      1      8      1 ;    1.1988e+02    3.7572e+02 ;     C2 - C1   - H1       CA -   CA - HA  
     2      4      6      1 ;    1.2002e+02    5.3279e+02 ;     C2 - C4   - C6       CA -   CA - CA  
     2      4     11      1 ;    1.1988e+02    3.7572e+02 ;     C2 - C4   - H4       CA -   CA - HA  
     3      1      8      1 ;    1.1988e+02    3.7572e+02 ;     C3 - C1   - H1       CA -   CA - HA  
     3      5      6      1 ;    1.2002e+02    5.3279e+02 ;     C3 - C5   - C6       CA -   CA - CA  
     3      5     12      1 ;    1.1988e+02    3.7572e+02 ;     C3 - C5   - H5       CA -   CA - HA  
     4      2      9      1 ;    1.1988e+02    3.7572e+02 ;     C4 - C2   - H2       CA -   CA - HA  
     4      6      5      1 ;    1.2002e+02    5.3279e+02 ;     C4 - C6   - C5       CA -   CA - CA  
     4      6      7      1 ;    1.1896e+02    6.7404e+02 ;     C4 - C6   - F1       CA -   CA - x   
     5      3     10      1 ;    1.1988e+02    3.7572e+02 ;     C5 - C3   - H3       CA -   CA - HA  
     5      6      7      1 ;    1.1896e+02    6.7404e+02 ;     C5 - C6   - F1       CA -   CA - x   
     6      4     11      1 ;    1.1988e+02    3.7572e+02 ;     C6 - C4   - H4       CA -   CA - HA  
     6      5     12      1 ;    1.1988e+02    3.7572e+02 ;     C6 - C5   - H5       CA -   CA - HA  

[ dihedrals ] ; propers
; for gromacs 4.5 or higher, using funct 9
;    i      j      k      l   func   phase     kd      pn
     1      2      4      6      9 ;   180.00  15.16700   2 ;     C1-    C2-    C4-    C6
     1      2      4     11      9 ;   180.00  15.16700   2 ;     C1-    C2-    C4-    H4
     1      3      5      6      9 ;   180.00  15.16700   2 ;     C1-    C3-    C5-    C6
     1      3      5     12      9 ;   180.00  15.16700   2 ;     C1-    C3-    C5-    H5
     2      1      3      5      9 ;   180.00  15.16700   2 ;     C2-    C1-    C3-    C5
     2      1      3     10      9 ;   180.00  15.16700   2 ;     C2-    C1-    C3-    H3
     2      4      6      5      9 ;   180.00  15.16700   2 ;     C2-    C4-    C6-    C5
     2      4      6      7      9 ;   180.00  15.16700   2 ;     C2-    C4-    C6-    F1
     3      1      2      4      9 ;   180.00  15.16700   2 ;     C3-    C1-    C2-    C4
     3      1      2      9      9 ;   180.00  15.16700   2 ;     C3-    C1-    C2-    H2
     3      5      6      4      9 ;   180.00  15.16700   2 ;     C3-    C5-    C6-    C4
     3      5      6      7      9 ;   180.00  15.16700   2 ;     C3-    C5-    C6-    F1
     4      6      5     12      9 ;   180.00  15.16700   2 ;     C4-    C6-    C5-    H5
     5      6      4     11      9 ;   180.00  15.16700   2 ;     C5-    C6-    C4-    H4
     6      4      2      9      9 ;   180.00  15.16700   2 ;     C6-    C4-    C2-    H2
     6      5      3     10      9 ;   180.00  15.16700   2 ;     C6-    C5-    C3-    H3
     7      6      4     11      9 ;   180.00  15.16700   2 ;     F1-    C6-    C4-    H4
     7      6      5     12      9 ;   180.00  15.16700   2 ;     F1-    C6-    C5-    H5
     8      1      2      4      9 ;   180.00  15.16700   2 ;     H1-    C1-    C2-    C4
     8      1      2      9      9 ;   180.00  15.16700   2 ;     H1-    C1-    C2-    H2
     8      1      3      5      9 ;   180.00  15.16700   2 ;     H1-    C1-    C3-    C5
     8      1      3     10      9 ;   180.00  15.16700   2 ;     H1-    C1-    C3-    H3
     9      2      4     11      9 ;   180.00  15.16700   2 ;     H2-    C2-    C4-    H4
    10      3      5     12      9 ;   180.00  15.16700   2 ;     H3-    C3-    C5-    H5

[ dihedrals ] ; impropers
; treated as propers in GROMACS to use correct AMBER analytical function
;    i      j      k      l   func   phase     kd      pn
     1      4      2      9      4 ;   180.00   4.60240   2 ;     C1-    C4-    C2-    H2
     1      5      3     10      4 ;   180.00   4.60240   2 ;     C1-    C5-    C3-    H3
     2      6      4     11      4 ;   180.00   4.60240   2 ;     C2-    C6-    C4-    H4
     3      6      5     12      4 ;   180.00   4.60240   2 ;     C3-    C6-    C5-    H5
     4      5      6      7      4 ;   180.00   4.60240   2 ;     C4-    C5-    C6-    F1
     8      1      3      2      4 ;   180.00   4.60240   2 ;     H1-    C1-    C3-    C2
