mobley_4483973_GMX.gro created by acpype (v: 2023.10.27) on Wed May 20 23:50:54 2026
 12
    1  MOL   C1    1   0.189  -0.104  -0.011
    1  MOL   C2    2   0.082  -0.044   0.056
    1  MOL   C3    3   0.294  -0.160   0.061
    1  MOL   C4    4   0.080  -0.041   0.196
    1  MOL   C5    5   0.292  -0.157   0.201
    1  MOL   C6    6   0.185  -0.098   0.268
    1  MOL   F1    7   0.183  -0.095   0.402
    1  MOL   H1    8   0.190  -0.106  -0.120
    1  MOL   H2    9   0.000   0.000  -0.000
    1  MOL   H3   10   0.377  -0.207   0.009
    1  MOL   H4   11  -0.003   0.005   0.248
    1  MOL   H5   12   0.374  -0.201   0.257
    7.59200     4.24400    10.42800
