mobley_6235784_GMX.gro created by acpype (v: 2023.10.27) on Wed May 20 23:45:14 2026
 14
    1  MOL   C1    1  -0.170  -0.211  -0.134
    1  MOL   C2    2  -0.098   0.123  -0.321
    1  MOL   C3    3  -0.102  -0.110  -0.226
    1  MOL   C4    4  -0.172   0.026  -0.229
    1  MOL  CL1    5  -0.181   0.097  -0.066
    1  MOL   H1    6  -0.111  -0.303  -0.129
    1  MOL   H2    7  -0.270  -0.237  -0.170
    1  MOL   H3    8  -0.179  -0.171  -0.032
    1  MOL   H4    9  -0.099   0.088  -0.425
    1  MOL   H5   10  -0.145   0.222  -0.319
    1  MOL   H6   11   0.007   0.136  -0.290
    1  MOL   H7   12  -0.095  -0.153  -0.327
    1  MOL   H8   13   0.001  -0.097  -0.190
    1  MOL   H9   14  -0.275   0.014  -0.265
    5.62400    10.49600     7.84800
