2_chlorobutane
    14
  -1.7010000  -2.1100000  -1.3390000  -0.9780000   1.2310000  -3.2090000
  -1.0180000  -1.1040000  -2.2560000  -1.7160000   0.2610000  -2.2930000
  -1.8140000   0.9740000  -0.6550000  -1.1120000  -3.0310000  -1.2900000
  -2.6990000  -2.3740000  -1.6980000  -1.7920000  -1.7130000  -0.3220000
  -0.9910000   0.8790000  -4.2460000  -1.4540000   2.2170000  -3.1890000
   0.0670000   1.3550000  -2.9050000  -0.9500000  -1.5260000  -3.2670000
   0.0120000  -0.9690000  -1.9040000  -2.7450000   0.1440000  -2.6490000
