; mobley_6235784_GMX_OPLS.itp created by acpype (v: 2023.10.27) on Wed May 20 23:45:14 2026

; For OPLS atomtypes manual fine tuning
; AC_at:OPLS_at:OPLScode: Possible_Alternatives (see ffoplsaa.atp and ffoplsaanb.itp)
; c3:CT:opls_135: ['136', '137', '149', '157', '158', '206', '209', '210', '223B', '224B', '245', '246', '274', '283', '284', '285', '292', '292B', '293B', '296', '307', '308', '505']
; cl:x:opls_x: []
; hc:HC:opls_140: []
; h1:HC:opls_140: []

[ moleculetype ]
;name            nrexcl
 mobley_6235784   3

[ atoms ]
;   nr  type  resi  res  atom  cgnr     charge      mass       ; qtot   bond_type
     1 opls_135     1   MOL    C1    1    -0.097100     12.01100 ; qtot -0.097  CT  
     2 opls_135     1   MOL    C2    2    -0.104100     12.01100 ; qtot -0.201  CT  
     3 opls_135     1   MOL    C3    3    -0.086400     12.01100 ; qtot -0.288  CT  
     4 opls_135     1   MOL    C4    4     0.060700     12.01100 ; qtot -0.227  CT  
     5 opls_x     1   MOL   CL1    5    -0.211398      0.00000 ; qtot -0.438  x   
     6 opls_140     1   MOL    H1    6     0.040033      1.00800 ; qtot -0.398  HC  
     7 opls_140     1   MOL    H2    7     0.040033      1.00800 ; qtot -0.358  HC  
     8 opls_140     1   MOL    H3    8     0.040033      1.00800 ; qtot -0.318  HC  
     9 opls_140     1   MOL    H4    9     0.048033      1.00800 ; qtot -0.270  HC  
    10 opls_140     1   MOL    H5   10     0.048033      1.00800 ; qtot -0.222  HC  
    11 opls_140     1   MOL    H6   11     0.048033      1.00800 ; qtot -0.174  HC  
    12 opls_140     1   MOL    H7   12     0.052200      1.00800 ; qtot -0.122  HC  
    13 opls_140     1   MOL    H8   13     0.052200      1.00800 ; qtot -0.070  HC  
    14 opls_140     1   MOL    H9   14     0.069700      1.00800 ; qtot -0.000  HC  

[ bonds ]
;   ai     aj funct   r             k
     1      3   1 ;    1.5354e-01    1.9154e+05 ;     C1 - C3         CT - CT    
     1      6   1 ;    1.0962e-01    2.8891e+05 ;     C1 - H1         CT - HC    
     1      7   1 ;    1.0962e-01    2.8891e+05 ;     C1 - H2         CT - HC    
     1      8   1 ;    1.0962e-01    2.8891e+05 ;     C1 - H3         CT - HC    
     2      4   1 ;    1.5354e-01    1.9154e+05 ;     C2 - C4         CT - CT    
     2      9   1 ;    1.0962e-01    2.8891e+05 ;     C2 - H4         CT - HC    
     2     10   1 ;    1.0962e-01    2.8891e+05 ;     C2 - H5         CT - HC    
     2     11   1 ;    1.0962e-01    2.8891e+05 ;     C2 - H6         CT - HC    
     3      4   1 ;    1.5354e-01    1.9154e+05 ;     C3 - C4         CT - CT    
     3     12   1 ;    1.0962e-01    2.8891e+05 ;     C3 - H7         CT - HC    
     3     13   1 ;    1.0962e-01    2.8891e+05 ;     C3 - H8         CT - HC    
     4      5   1 ;    1.8092e-01    1.3724e+05 ;     C4 - CL1        CT - x     
     4     14   1 ;    1.0969e-01    2.8804e+05 ;     C4 - H9         CT - HC    

[ pairs ]
;   ai     aj    funct
     1      2      1 ;     C1 - C2    
     1      5      1 ;     C1 - CL1   
     1     14      1 ;     C1 - H9    
     2     12      1 ;     C2 - H7    
     2     13      1 ;     C2 - H8    
     3      9      1 ;     C3 - H4    
     3     10      1 ;     C3 - H5    
     3     11      1 ;     C3 - H6    
     5      9      1 ;    CL1 - H4    
     5     10      1 ;    CL1 - H5    
     5     11      1 ;    CL1 - H6    
     5     12      1 ;    CL1 - H7    
     5     13      1 ;    CL1 - H8    
     6      4      1 ;     H1 - C4    
     6     12      1 ;     H1 - H7    
     6     13      1 ;     H1 - H8    
     7      4      1 ;     H2 - C4    
     7     12      1 ;     H2 - H7    
     7     13      1 ;     H2 - H8    
     8      4      1 ;     H3 - C4    
     8     12      1 ;     H3 - H7    
     8     13      1 ;     H3 - H8    
     9     14      1 ;     H4 - H9    
    10     14      1 ;     H5 - H9    
    11     14      1 ;     H6 - H9    
    12     14      1 ;     H7 - H9    
    13     14      1 ;     H8 - H9    

[ angles ]
;   ai     aj     ak    funct   theta         cth
     1      3      4      1 ;    1.1263e+02    5.0099e+02 ;     C1 - C3   - C4       CT -   CT - CT  
     1      3     12      1 ;    1.0968e+02    3.6208e+02 ;     C1 - C3   - H7       CT -   CT - HC  
     1      3     13      1 ;    1.0968e+02    3.6208e+02 ;     C1 - C3   - H8       CT -   CT - HC  
     2      4      3      1 ;    1.1263e+02    5.0099e+02 ;     C2 - C4   - C3       CT -   CT - CT  
     2      4      5      1 ;    1.1039e+02    5.3254e+02 ;     C2 - C4   - CL1      CT -   CT - x   
     2      4     14      1 ;    1.0959e+02    3.6217e+02 ;     C2 - C4   - H9       CT -   CT - HC  
     3      1      6      1 ;    1.0968e+02    3.6208e+02 ;     C3 - C1   - H1       CT -   CT - HC  
     3      1      7      1 ;    1.0968e+02    3.6208e+02 ;     C3 - C1   - H2       CT -   CT - HC  
     3      1      8      1 ;    1.0968e+02    3.6208e+02 ;     C3 - C1   - H3       CT -   CT - HC  
     3      4      5      1 ;    1.1039e+02    5.3254e+02 ;     C3 - C4   - CL1      CT -   CT - x   
     3      4     14      1 ;    1.0959e+02    3.6217e+02 ;     C3 - C4   - H9       CT -   CT - HC  
     4      2      9      1 ;    1.0968e+02    3.6208e+02 ;     C4 - C2   - H4       CT -   CT - HC  
     4      2     10      1 ;    1.0968e+02    3.6208e+02 ;     C4 - C2   - H5       CT -   CT - HC  
     4      2     11      1 ;    1.0968e+02    3.6208e+02 ;     C4 - C2   - H6       CT -   CT - HC  
     4      3     12      1 ;    1.0968e+02    3.6208e+02 ;     C4 - C3   - H7       CT -   CT - HC  
     4      3     13      1 ;    1.0968e+02    3.6208e+02 ;     C4 - C3   - H8       CT -   CT - HC  
     5      4     14      1 ;    1.0682e+02    3.6183e+02 ;    CL1 - C4   - H9        x -   CT - HC  
     6      1      7      1 ;    1.0773e+02    2.9957e+02 ;     H1 - C1   - H2       HC -   CT - HC  
     6      1      8      1 ;    1.0773e+02    2.9957e+02 ;     H1 - C1   - H3       HC -   CT - HC  
     7      1      8      1 ;    1.0773e+02    2.9957e+02 ;     H2 - C1   - H3       HC -   CT - HC  
     9      2     10      1 ;    1.0773e+02    2.9957e+02 ;     H4 - C2   - H5       HC -   CT - HC  
     9      2     11      1 ;    1.0773e+02    2.9957e+02 ;     H4 - C2   - H6       HC -   CT - HC  
    10      2     11      1 ;    1.0773e+02    2.9957e+02 ;     H5 - C2   - H6       HC -   CT - HC  
    12      3     13      1 ;    1.0773e+02    2.9957e+02 ;     H7 - C3   - H8       HC -   CT - HC  

[ dihedrals ] ; propers
; for gromacs 4.5 or higher, using funct 9
;    i      j      k      l   func   phase     kd      pn
     1      3      4      2      9 ;     0.00   2.17568   3 ;     C1-    C3-    C4-    C2
     1      3      4      5      9 ;     0.00   0.65084   3 ;     C1-    C3-    C4-   CL1
     1      3      4     14      9 ;     0.00   0.65084   3 ;     C1-    C3-    C4-    H9
     2      4      3     12      9 ;     0.00   0.54392   3 ;     C2-    C4-    C3-    H7
     2      4      3     13      9 ;     0.00   0.54392   3 ;     C2-    C4-    C3-    H8
     3      4      2      9      9 ;     0.00   0.54392   3 ;     C3-    C4-    C2-    H4
     3      4      2     10      9 ;     0.00   0.54392   3 ;     C3-    C4-    C2-    H5
     3      4      2     11      9 ;     0.00   0.54392   3 ;     C3-    C4-    C2-    H6
     5      4      2      9      9 ;     0.00   0.75312   3 ;    CL1-    C4-    C2-    H4
     5      4      2     10      9 ;     0.00   0.75312   3 ;    CL1-    C4-    C2-    H5
     5      4      2     11      9 ;     0.00   0.75312   3 ;    CL1-    C4-    C2-    H6
     5      4      3     12      9 ;     0.00   0.75312   3 ;    CL1-    C4-    C3-    H7
     5      4      3     13      9 ;     0.00   0.75312   3 ;    CL1-    C4-    C3-    H8
     6      1      3      4      9 ;     0.00   0.54392   3 ;     H1-    C1-    C3-    C4
     6      1      3     12      9 ;     0.00   0.50208   3 ;     H1-    C1-    C3-    H7
     6      1      3     13      9 ;     0.00   0.50208   3 ;     H1-    C1-    C3-    H8
     7      1      3      4      9 ;     0.00   0.54392   3 ;     H2-    C1-    C3-    C4
     7      1      3     12      9 ;     0.00   0.50208   3 ;     H2-    C1-    C3-    H7
     7      1      3     13      9 ;     0.00   0.50208   3 ;     H2-    C1-    C3-    H8
     8      1      3      4      9 ;     0.00   0.54392   3 ;     H3-    C1-    C3-    C4
     8      1      3     12      9 ;     0.00   0.50208   3 ;     H3-    C1-    C3-    H7
     8      1      3     13      9 ;     0.00   0.50208   3 ;     H3-    C1-    C3-    H8
     9      2      4     14      9 ;     0.00   0.65084   3 ;     H4-    C2-    C4-    H9
    10      2      4     14      9 ;     0.00   0.65084   3 ;     H5-    C2-    C4-    H9
    11      2      4     14      9 ;     0.00   0.65084   3 ;     H6-    C2-    C4-    H9
    12      3      4     14      9 ;     0.00   0.65084   3 ;     H7-    C3-    C4-    H9
    13      3      4     14      9 ;     0.00   0.65084   3 ;     H8-    C3-    C4-    H9
