; mobley_6239320_GMX_OPLS.top created by acpype (v: 2023.10.27) on Wed May 20 23:41:57 2026

; Include forcefield parameters
#include "ffoplsaa.itp"

; Include mobley_6239320_GMX.itp topology
#include "mobley_6239320_GMX.itp"

; Ligand position restraints
#ifdef POSRES_LIG
#include "posre_mobley_6239320.itp"
#endif

[ system ]
 mobley_6239320

[ molecules ]
; Compound        nmols
 mobley_6239320   1     
