%VERSION  VERSION_STAMP = V0001.000  DATE = 05/20/26  23:41:58                  
%FLAG TITLE                                                                     
%FORMAT(20a4)                                                                   
cyanuric                                                                        
%FLAG POINTERS                                                                  
%FORMAT(10I8)                                                                   
      12       4       3       9       6      12      21      15       0       0
      54       1       9      12      15       3       4       4       4       0
       0       0       0       0       0       0       0       0      12       0
       0
%FLAG ATOM_NAME                                                                 
%FORMAT(20a4)                                                                   
C1  C2  C3  N1  N2  N3  O1  O2  O3  H1  H2  H3  
%FLAG CHARGE                                                                    
%FORMAT(5E16.8)                                                                 
  1.49696195E+01  1.49696195E+01  1.49696195E+01 -1.07784905E+01 -1.07784905E+01
 -1.07784905E+01 -1.10336027E+01 -1.10336027E+01 -1.10336027E+01  6.84247365E+00
  6.84247365E+00  6.84247365E+00
%FLAG ATOMIC_NUMBER                                                             
%FORMAT(10I8)                                                                   
       6       6       6       7       7       7       8       8       8       1
       1       1
%FLAG MASS                                                                      
%FORMAT(5E16.8)                                                                 
  1.20100000E+01  1.20100000E+01  1.20100000E+01  1.40100000E+01  1.40100000E+01
  1.40100000E+01  1.60000000E+01  1.60000000E+01  1.60000000E+01  1.00800000E+00
  1.00800000E+00  1.00800000E+00
%FLAG ATOM_TYPE_INDEX                                                           
%FORMAT(10I8)                                                                   
       1       1       1       2       2       2       3       3       3       4
       4       4
%FLAG NUMBER_EXCLUDED_ATOMS                                                     
%FORMAT(10I8)                                                                   
      10       9       8       7       6       5       2       2       2       1
       1       1
%FLAG NONBONDED_PARM_INDEX                                                      
%FORMAT(10I8)                                                                   
       1       2       4       7       2       3       5       8       4       5
       6       9       7       8       9      10
%FLAG RESIDUE_LABEL                                                             
%FORMAT(20a4)                                                                   
MOL 
%FLAG RESIDUE_POINTER                                                           
%FORMAT(10I8)                                                                   
       1
%FLAG BOND_FORCE_CONSTANT                                                       
%FORMAT(5E16.8)                                                                 
  3.36070000E+02  5.90600000E+02  4.73590000E+02
%FLAG BOND_EQUIL_VALUE                                                          
%FORMAT(5E16.8)                                                                 
  1.37980000E+00  1.21900000E+00  1.01320000E+00
%FLAG ANGLE_FORCE_CONSTANT                                                      
%FORMAT(5E16.8)                                                                 
  7.72200000E+01  5.73700000E+01  7.49900000E+01  8.72100000E+01
%FLAG ANGLE_EQUIL_VALUE                                                         
%FORMAT(5E16.8)                                                                 
  2.23489507E+00  2.04657396E+00  1.97030304E+00  2.14762857E+00
%FLAG DIHEDRAL_FORCE_CONSTANT                                                   
%FORMAT(5E16.8)                                                                 
  2.50000000E+00  2.00000000E+00  1.05000000E+01  1.10000000E+00
%FLAG DIHEDRAL_PERIODICITY                                                      
%FORMAT(5E16.8)                                                                 
  2.00000000E+00  1.00000000E+00  2.00000000E+00  2.00000000E+00
%FLAG DIHEDRAL_PHASE                                                            
%FORMAT(5E16.8)                                                                 
  3.14159400E+00  0.00000000E+00  3.14159400E+00  3.14159400E+00
%FLAG SCEE_SCALE_FACTOR                                                         
%FORMAT(5E16.8)                                                                 
  1.20000000E+00  1.20000000E+00  0.00000000E+00  0.00000000E+00
%FLAG SCNB_SCALE_FACTOR                                                         
%FORMAT(5E16.8)                                                                 
  2.00000000E+00  2.00000000E+00  0.00000000E+00  0.00000000E+00
%FLAG SOLTY                                                                     
%FORMAT(5E16.8)                                                                 
  0.00000000E+00  0.00000000E+00  0.00000000E+00  0.00000000E+00
%FLAG LENNARD_JONES_ACOEF                                                       
%FORMAT(5E16.8)                                                                 
  6.96551276E+05  6.99381362E+05  7.01825028E+05  5.17507491E+05  5.17814271E+05
  3.76435470E+05  1.71458823E+03  1.65195713E+03  9.87857350E+02  1.34728399E-01
%FLAG LENNARD_JONES_BCOEF                                                       
%FORMAT(5E16.8)                                                                 
  5.24668528E+02  5.48900066E+02  5.74088001E+02  4.98871431E+02  5.21008860E+02
  4.69350655E+02  1.46824710E+01  1.50468782E+01  1.22938581E+01  7.34107347E-02
%FLAG BONDS_INC_HYDROGEN                                                        
%FORMAT(10I8)                                                                   
       9      27       3      12      30       3      15      33       3
%FLAG BONDS_WITHOUT_HYDROGEN                                                    
%FORMAT(10I8)                                                                   
       0       9       1       0      12       1       0      18       2       3
       9       1       3      15       1       3      21       2       6      12
       1       6      15       1       6      24       2
%FLAG ANGLES_INC_HYDROGEN                                                       
%FORMAT(10I8)                                                                   
       0       9      27       2       0      12      30       2       3       9
      27       2       3      15      33       2       6      12      30       2
       6      15      33       2
%FLAG ANGLES_WITHOUT_HYDROGEN                                                   
%FORMAT(10I8)                                                                   
       0       9       3       1       0      12       6       1       3      15
       6       1       9       0      12       3       9       0      18       4
       9       3      15       3       9       3      21       4      12       0
      18       4      12       6      15       3      12       6      24       4
      15       3      21       4      15       6      24       4
%FLAG DIHEDRALS_INC_HYDROGEN                                                    
%FORMAT(10I8)                                                                   
       9       0      12      30       1       9       3      15      33       1
      12       0       9      27       1      12       6      15      33       1
      15       3       9      27       1      15       6      12      30       1
      18       0       9      27       2      18       0      -9      27       1
      18       0      12      30       2      18       0     -12      30       1
      21       3       9      27       2      21       3      -9      27       1
      21       3      15      33       2      21       3     -15      33       1
      24       6      12      30       2      24       6     -12      30       1
      24       6      15      33       2      24       6     -15      33       1
       0       3      -9     -27       4       0       6     -12     -30       4
       3       6     -15     -33       4
%FLAG DIHEDRALS_WITHOUT_HYDROGEN                                                
%FORMAT(10I8)                                                                   
       0       9       3      15       1       0       9       3      21       1
       0      12      -6      15       1       0      12       6      24       1
      12       0       9       3       1      18       0       9       3       1
       3      15      -6      12       1       3      15       6      24       1
       9       0      12       6       1      18       0      12       6       1
       6      15      -3       9       1       6      15       3      21       1
      18       0     -12      -9       3       9      15      -3     -21       3
      12      15      -6     -24       3
%FLAG EXCLUDED_ATOMS_LIST                                                       
%FORMAT(10I8)                                                                   
       2       3       4       5       6       7       8       9      10      11
       3       4       5       6       7       8       9      10      12       4
       5       6       7       8       9      11      12       5       6       7
       8      10      11      12       6       7       9      10      11      12
       8       9      10      11      12      10      11      10      12      11
      12       0       0       0
%FLAG HBOND_ACOEF                                                               
%FORMAT(5E16.8)                                                                 

%FLAG HBOND_BCOEF                                                               
%FORMAT(5E16.8)                                                                 

%FLAG HBCUT                                                                     
%FORMAT(5E16.8)                                                                 

%FLAG AMBER_ATOM_TYPE                                                           
%FORMAT(20a4)                                                                   
c   c   c   ns  ns  ns  o   o   o   hn  hn  hn  
%FLAG TREE_CHAIN_CLASSIFICATION                                                 
%FORMAT(20a4)                                                                   
BLA BLA BLA BLA BLA BLA BLA BLA BLA BLA BLA BLA 
%FLAG JOIN_ARRAY                                                                
%FORMAT(10I8)                                                                   
       0       0       0       0       0       0       0       0       0       0
       0       0
%FLAG IROTAT                                                                    
%FORMAT(10I8)                                                                   
       0       0       0       0       0       0       0       0       0       0
       0       0
%FLAG RADIUS_SET                                                                
%FORMAT(1a80)                                                                   
modified Bondi radii (mbondi)                                                   
%FLAG RADII                                                                     
%FORMAT(5E16.8)                                                                 
  1.70000000E+00  1.70000000E+00  1.70000000E+00  1.55000000E+00  1.55000000E+00
  1.55000000E+00  1.50000000E+00  1.50000000E+00  1.50000000E+00  1.30000000E+00
  1.30000000E+00  1.30000000E+00
%FLAG SCREEN                                                                    
%FORMAT(5E16.8)                                                                 
  7.20000000E-01  7.20000000E-01  7.20000000E-01  7.90000000E-01  7.90000000E-01
  7.90000000E-01  8.50000000E-01  8.50000000E-01  8.50000000E-01  8.50000000E-01
  8.50000000E-01  8.50000000E-01
%FLAG IPOL                                                                      
%FORMAT(1I8)                                                                    
       0
