; mobley_6239320_GMX_OPLS.itp created by acpype (v: 2023.10.27) on Wed May 20 23:41:57 2026

; For OPLS atomtypes manual fine tuning
; AC_at:OPLS_at:OPLScode: Possible_Alternatives (see ffoplsaa.atp and ffoplsaanb.itp)
; c:C:opls_235: ['271']
; ns:x:opls_x: []
; o:O:opls_236: ['272']
; hn:H:opls_240: ['241', '290', '301', '304', '310', '504', '513']

[ moleculetype ]
;name            nrexcl
 mobley_6239320   3

[ atoms ]
;   nr  type  resi  res  atom  cgnr     charge      mass       ; qtot   bond_type
     1 opls_235     1   MOL    C1    1     0.821500     12.01100 ; qtot  0.822  C   
     2 opls_235     1   MOL    C2    2     0.821500     12.01100 ; qtot  1.643  C   
     3 opls_235     1   MOL    C3    3     0.821500     12.01100 ; qtot  2.465  C   
     4 opls_x     1   MOL    N1    4    -0.591500      0.00000 ; qtot  1.873  x   
     5 opls_x     1   MOL    N2    5    -0.591500      0.00000 ; qtot  1.282  x   
     6 opls_x     1   MOL    N3    6    -0.591500      0.00000 ; qtot  0.690  x   
     7 opls_236     1   MOL    O1    7    -0.605500     15.99940 ; qtot  0.085  O   
     8 opls_236     1   MOL    O2    8    -0.605500     15.99940 ; qtot -0.521  O   
     9 opls_236     1   MOL    O3    9    -0.605500     15.99940 ; qtot -1.127  O   
    10 opls_240     1   MOL    H1   10     0.375500      1.00800 ; qtot -0.751  H   
    11 opls_240     1   MOL    H2   11     0.375500      1.00800 ; qtot -0.376  H   
    12 opls_240     1   MOL    H3   12     0.375500      1.00800 ; qtot -0.000  H   

[ bonds ]
;   ai     aj funct   r             k
     1      4   1 ;    1.3798e-01    2.8122e+05 ;     C1 - N1          C - x     
     1      5   1 ;    1.3798e-01    2.8122e+05 ;     C1 - N2          C - x     
     1      7   1 ;    1.2190e-01    4.9421e+05 ;     C1 - O1          C - O     
     2      4   1 ;    1.3798e-01    2.8122e+05 ;     C2 - N1          C - x     
     2      6   1 ;    1.3798e-01    2.8122e+05 ;     C2 - N3          C - x     
     2      8   1 ;    1.2190e-01    4.9421e+05 ;     C2 - O2          C - O     
     3      5   1 ;    1.3798e-01    2.8122e+05 ;     C3 - N2          C - x     
     3      6   1 ;    1.3798e-01    2.8122e+05 ;     C3 - N3          C - x     
     3      9   1 ;    1.2190e-01    4.9421e+05 ;     C3 - O3          C - O     
     4     10   1 ;    1.0132e-01    3.9630e+05 ;     N1 - H1          x - H     
     5     11   1 ;    1.0132e-01    3.9630e+05 ;     N2 - H2          x - H     
     6     12   1 ;    1.0132e-01    3.9630e+05 ;     N3 - H3          x - H     

[ pairs ]
;   ai     aj    funct
     1      6      1 ;     C1 - N3    
     1      8      1 ;     C1 - O2    
     1      9      1 ;     C1 - O3    
     2      9      1 ;     C2 - O3    
     3      8      1 ;     C3 - O2    
     4      3      1 ;     N1 - C3    
     4     11      1 ;     N1 - H2    
     4     12      1 ;     N1 - H3    
     5      2      1 ;     N2 - C2    
     5     10      1 ;     N2 - H1    
     5     12      1 ;     N2 - H3    
     6     10      1 ;     N3 - H1    
     6     11      1 ;     N3 - H2    
     7      2      1 ;     O1 - C2    
     7      3      1 ;     O1 - C3    
     7     10      1 ;     O1 - H1    
     7     11      1 ;     O1 - H2    
     8     10      1 ;     O2 - H1    
     8     12      1 ;     O2 - H3    
     9     11      1 ;     O3 - H2    
     9     12      1 ;     O3 - H3    

[ angles ]
;   ai     aj     ak    funct   theta         cth
     1      4      2      1 ;    1.2805e+02    6.4618e+02 ;     C1 - N1   - C2        C -    x - C   
     1      4     10      1 ;    1.1726e+02    4.8007e+02 ;     C1 - N1   - H1        C -    x - H   
     1      5      3      1 ;    1.2805e+02    6.4618e+02 ;     C1 - N2   - C3        C -    x - C   
     1      5     11      1 ;    1.1726e+02    4.8007e+02 ;     C1 - N2   - H2        C -    x - H   
     2      4     10      1 ;    1.1726e+02    4.8007e+02 ;     C2 - N1   - H1        C -    x - H   
     2      6      3      1 ;    1.2805e+02    6.4618e+02 ;     C2 - N3   - C3        C -    x - C   
     2      6     12      1 ;    1.1726e+02    4.8007e+02 ;     C2 - N3   - H3        C -    x - H   
     3      5     11      1 ;    1.1726e+02    4.8007e+02 ;     C3 - N2   - H2        C -    x - H   
     3      6     12      1 ;    1.1726e+02    4.8007e+02 ;     C3 - N3   - H3        C -    x - H   
     4      1      5      1 ;    1.1289e+02    6.2752e+02 ;     N1 - C1   - N2        x -    C - x   
     4      1      7      1 ;    1.2305e+02    7.2977e+02 ;     N1 - C1   - O1        x -    C - O   
     4      2      6      1 ;    1.1289e+02    6.2752e+02 ;     N1 - C2   - N3        x -    C - x   
     4      2      8      1 ;    1.2305e+02    7.2977e+02 ;     N1 - C2   - O2        x -    C - O   
     5      1      7      1 ;    1.2305e+02    7.2977e+02 ;     N2 - C1   - O1        x -    C - O   
     5      3      6      1 ;    1.1289e+02    6.2752e+02 ;     N2 - C3   - N3        x -    C - x   
     5      3      9      1 ;    1.2305e+02    7.2977e+02 ;     N2 - C3   - O3        x -    C - O   
     6      2      8      1 ;    1.2305e+02    7.2977e+02 ;     N3 - C2   - O2        x -    C - O   
     6      3      9      1 ;    1.2305e+02    7.2977e+02 ;     N3 - C3   - O3        x -    C - O   

[ dihedrals ] ; propers
; for gromacs 4.5 or higher, using funct 9
;    i      j      k      l   func   phase     kd      pn
     1      4      2      6      9 ;   180.00  10.46000   2 ;     C1-    N1-    C2-    N3
     1      4      2      8      9 ;   180.00  10.46000   2 ;     C1-    N1-    C2-    O2
     1      5      3      6      9 ;   180.00  10.46000   2 ;     C1-    N2-    C3-    N3
     1      5      3      9      9 ;   180.00  10.46000   2 ;     C1-    N2-    C3-    O3
     2      6      3      5      9 ;   180.00  10.46000   2 ;     C2-    N3-    C3-    N2
     2      6      3      9      9 ;   180.00  10.46000   2 ;     C2-    N3-    C3-    O3
     3      6      2      4      9 ;   180.00  10.46000   2 ;     C3-    N3-    C2-    N1
     3      6      2      8      9 ;   180.00  10.46000   2 ;     C3-    N3-    C2-    O2
     4      1      5      3      9 ;   180.00  10.46000   2 ;     N1-    C1-    N2-    C3
     4      1      5     11      9 ;   180.00  10.46000   2 ;     N1-    C1-    N2-    H2
     4      2      6     12      9 ;   180.00  10.46000   2 ;     N1-    C2-    N3-    H3
     5      1      4      2      9 ;   180.00  10.46000   2 ;     N2-    C1-    N1-    C2
     5      1      4     10      9 ;   180.00  10.46000   2 ;     N2-    C1-    N1-    H1
     5      3      6     12      9 ;   180.00  10.46000   2 ;     N2-    C3-    N3-    H3
     6      2      4     10      9 ;   180.00  10.46000   2 ;     N3-    C2-    N1-    H1
     6      3      5     11      9 ;   180.00  10.46000   2 ;     N3-    C3-    N2-    H2
     7      1      4      2      9 ;   180.00  10.46000   2 ;     O1-    C1-    N1-    C2
     7      1      4     10      9 ;     0.00   8.36800   1 ;     O1-    C1-    N1-    H1
     7      1      4     10      9 ;   180.00  10.46000   2 ;     O1-    C1-    N1-    H1
     7      1      5      3      9 ;   180.00  10.46000   2 ;     O1-    C1-    N2-    C3
     7      1      5     11      9 ;     0.00   8.36800   1 ;     O1-    C1-    N2-    H2
     7      1      5     11      9 ;   180.00  10.46000   2 ;     O1-    C1-    N2-    H2
     8      2      4     10      9 ;     0.00   8.36800   1 ;     O2-    C2-    N1-    H1
     8      2      4     10      9 ;   180.00  10.46000   2 ;     O2-    C2-    N1-    H1
     8      2      6     12      9 ;     0.00   8.36800   1 ;     O2-    C2-    N3-    H3
     8      2      6     12      9 ;   180.00  10.46000   2 ;     O2-    C2-    N3-    H3
     9      3      5     11      9 ;     0.00   8.36800   1 ;     O3-    C3-    N2-    H2
     9      3      5     11      9 ;   180.00  10.46000   2 ;     O3-    C3-    N2-    H2
     9      3      6     12      9 ;     0.00   8.36800   1 ;     O3-    C3-    N3-    H3
     9      3      6     12      9 ;   180.00  10.46000   2 ;     O3-    C3-    N3-    H3

[ dihedrals ] ; impropers
; treated as propers in GROMACS to use correct AMBER analytical function
;    i      j      k      l   func   phase     kd      pn
     1      2      4     10      4 ;   180.00   4.60240   2 ;     C1-    C2-    N1-    H1
     1      3      5     11      4 ;   180.00   4.60240   2 ;     C1-    C3-    N2-    H2
     2      3      6     12      4 ;   180.00   4.60240   2 ;     C2-    C3-    N3-    H3
     4      6      2      8      4 ;   180.00  43.93200   2 ;     N1-    N3-    C2-    O2
     5      6      3      9      4 ;   180.00  43.93200   2 ;     N2-    N3-    C3-    O3
     7      1      5      4      4 ;   180.00  43.93200   2 ;     O1-    C1-    N2-    N1
