cyanuric
    12
  -0.4150000  -0.7480000   1.8790000   0.3980000  -3.0670000   2.2040000
   0.7610000  -1.9190000   0.0380000  -0.2360000  -1.9040000   2.6350000
   0.1070000  -0.8200000   0.5900000   0.8740000  -3.0090000   0.8970000
  -0.9860000   0.2530000   2.3130000   0.5270000  -4.0610000   2.9190000
   1.2020000  -1.9250000  -1.1120000  -0.5990000  -1.8980000   3.5830000
   0.0000000   0.0000000   0.0000000   1.3440000  -3.8350000   0.5380000
