alpha_methylstyrene
    19
   1.8850000  -1.0380000  -0.1090000   0.8180000  -0.4410000   0.5630000
   2.9350000  -1.6040000   0.6140000   0.8010000  -0.4100000   1.9570000
   2.9180000  -1.5730000   2.0080000   1.8510000  -0.9770000   2.6800000
   1.2300000   0.0520000   4.8340000   1.8330000  -0.9450000   4.1340000
   2.5270000  -2.0550000   4.9040000   1.8980000  -1.0610000  -1.1950000
  -0.0000000  -0.0000000  -0.0000000   3.7650000  -2.0680000   0.0900000
  -0.0380000   0.0580000   2.4660000   3.7440000  -2.0190000   2.5580000
   1.2260000   0.0720000   5.9200000   0.7390000   0.8810000   4.3350000
   3.6150000  -1.9660000   4.8160000   2.2190000  -3.0320000   4.5150000
   2.2850000  -2.0440000   5.9720000
