2_methylhexane
    23
  -0.5130000   0.6360000  -0.8560000  -5.4960000  -0.0480000   0.9780000
  -4.2260000   0.2000000   3.1200000  -1.5840000   1.5480000  -0.2790000
  -2.6300000   0.7570000   0.5080000  -3.6830000   1.6860000   1.1180000
  -4.7800000   0.9410000   1.9020000   0.2230000   1.2220000  -1.4150000
   0.0140000   0.0980000  -0.0610000  -0.9500000  -0.1010000  -1.5380000
  -4.8060000  -0.8080000   0.5980000  -6.3060000  -0.5600000   1.5090000
  -5.9370000   0.4710000   0.1200000  -3.4290000  -0.4950000   2.8340000
  -5.0150000  -0.3770000   3.6150000  -3.8230000   0.8960000   3.8610000
  -2.0680000   2.0950000  -1.0960000  -1.1090000   2.2910000   0.3730000
  -3.1070000   0.0340000  -0.1620000  -2.1360000   0.1880000   1.3050000
  -3.1820000   2.3890000   1.7950000  -4.1410000   2.2890000   0.3230000
  -5.5210000   1.6710000   2.2520000
