mobley_4043987_GMX.gro created by acpype (v: 2023.10.27) on Wed May 20 23:44:11 2026
 23
    1  MOL   C1    1  -0.051   0.064  -0.086
    1  MOL   C2    2  -0.550  -0.005   0.098
    1  MOL   C3    3  -0.423   0.020   0.312
    1  MOL   C4    4  -0.158   0.155  -0.028
    1  MOL   C5    5  -0.263   0.076   0.051
    1  MOL   C6    6  -0.368   0.169   0.112
    1  MOL   C7    7  -0.478   0.094   0.190
    1  MOL   H1    8   0.022   0.122  -0.142
    1  MOL   H2    9   0.001   0.010  -0.006
    1  MOL   H3   10  -0.095  -0.010  -0.154
    1  MOL   H4   11  -0.481  -0.081   0.060
    1  MOL   H5   12  -0.631  -0.056   0.151
    1  MOL   H6   13  -0.594   0.047   0.012
    1  MOL   H7   14  -0.343  -0.050   0.283
    1  MOL   H8   15  -0.501  -0.038   0.362
    1  MOL   H9   16  -0.382   0.090   0.386
    1  MOL  H10   17  -0.207   0.210  -0.110
    1  MOL  H11   18  -0.111   0.229   0.037
    1  MOL  H12   19  -0.311   0.003  -0.016
    1  MOL  H13   20  -0.214   0.019   0.131
    1  MOL  H14   21  -0.318   0.239   0.179
    1  MOL  H15   22  -0.414   0.229   0.032
    1  MOL  H16   23  -0.552   0.167   0.225
   13.05800     6.39400    10.79800
