; mobley_4043987_GMX.itp created by acpype (v: 2023.10.27) on Wed May 20 23:44:11 2026

[ atomtypes ]
;name   bond_type     mass     charge   ptype   sigma         epsilon       Amb
 c3       c3          0.00000  0.00000   A     3.39771e-01   4.51035e-01 ; 1.91  0.1078
 hc       hc          0.00000  0.00000   A     2.60018e-01   8.70272e-02 ; 1.46  0.0208

[ moleculetype ]
;name            nrexcl
 mobley_4043987   3

[ atoms ]
;   nr  type  resi  res  atom  cgnr     charge      mass       ; qtot   bond_type
     1   c3     1   MOL    C1    1    -0.093101     12.01000 ; qtot -0.093
     2   c3     1   MOL    C2    2    -0.089100     12.01000 ; qtot -0.182
     3   c3     1   MOL    C3    3    -0.089100     12.01000 ; qtot -0.271
     4   c3     1   MOL    C4    4    -0.080400     12.01000 ; qtot -0.352
     5   c3     1   MOL    C5    5    -0.079400     12.01000 ; qtot -0.431
     6   c3     1   MOL    C6    6    -0.073400     12.01000 ; qtot -0.505
     7   c3     1   MOL    C7    7    -0.065700     12.01000 ; qtot -0.570
     8   hc     1   MOL    H1    8     0.032367      1.00800 ; qtot -0.538
     9   hc     1   MOL    H2    9     0.032367      1.00800 ; qtot -0.505
    10   hc     1   MOL    H3   10     0.032367      1.00800 ; qtot -0.473
    11   hc     1   MOL    H4   11     0.033200      1.00800 ; qtot -0.440
    12   hc     1   MOL    H5   12     0.033200      1.00800 ; qtot -0.407
    13   hc     1   MOL    H6   13     0.033200      1.00800 ; qtot -0.374
    14   hc     1   MOL    H7   14     0.033200      1.00800 ; qtot -0.340
    15   hc     1   MOL    H8   15     0.033200      1.00800 ; qtot -0.307
    16   hc     1   MOL    H9   16     0.033200      1.00800 ; qtot -0.274
    17   hc     1   MOL   H10   17     0.037700      1.00800 ; qtot -0.236
    18   hc     1   MOL   H11   18     0.037700      1.00800 ; qtot -0.199
    19   hc     1   MOL   H12   19     0.040700      1.00800 ; qtot -0.158
    20   hc     1   MOL   H13   20     0.040700      1.00800 ; qtot -0.117
    21   hc     1   MOL   H14   21     0.037700      1.00800 ; qtot -0.079
    22   hc     1   MOL   H15   22     0.037700      1.00800 ; qtot -0.042
    23   hc     1   MOL   H16   23     0.041700      1.00800 ; qtot 0.000

[ bonds ]
;   ai     aj funct   r             k
     1      4   1    1.5354e-01    1.9154e+05 ;     C1 - C4    
     1      8   1    1.0962e-01    2.8891e+05 ;     C1 - H1    
     1      9   1    1.0962e-01    2.8891e+05 ;     C1 - H2    
     1     10   1    1.0962e-01    2.8891e+05 ;     C1 - H3    
     2      7   1    1.5354e-01    1.9154e+05 ;     C2 - C7    
     2     11   1    1.0962e-01    2.8891e+05 ;     C2 - H4    
     2     12   1    1.0962e-01    2.8891e+05 ;     C2 - H5    
     2     13   1    1.0962e-01    2.8891e+05 ;     C2 - H6    
     3      7   1    1.5354e-01    1.9154e+05 ;     C3 - C7    
     3     14   1    1.0962e-01    2.8891e+05 ;     C3 - H7    
     3     15   1    1.0962e-01    2.8891e+05 ;     C3 - H8    
     3     16   1    1.0962e-01    2.8891e+05 ;     C3 - H9    
     4      5   1    1.5354e-01    1.9154e+05 ;     C4 - C5    
     4     17   1    1.0962e-01    2.8891e+05 ;     C4 - H10   
     4     18   1    1.0962e-01    2.8891e+05 ;     C4 - H11   
     5      6   1    1.5354e-01    1.9154e+05 ;     C5 - C6    
     5     19   1    1.0962e-01    2.8891e+05 ;     C5 - H12   
     5     20   1    1.0962e-01    2.8891e+05 ;     C5 - H13   
     6      7   1    1.5354e-01    1.9154e+05 ;     C6 - C7    
     6     21   1    1.0962e-01    2.8891e+05 ;     C6 - H14   
     6     22   1    1.0962e-01    2.8891e+05 ;     C6 - H15   
     7     23   1    1.0962e-01    2.8891e+05 ;     C7 - H16   

[ pairs ]
;   ai     aj    funct
     1      6      1 ;     C1 - C6    
     1     19      1 ;     C1 - H12   
     1     20      1 ;     C1 - H13   
     2      5      1 ;     C2 - C5    
     2     14      1 ;     C2 - H7    
     2     15      1 ;     C2 - H8    
     2     16      1 ;     C2 - H9    
     2     21      1 ;     C2 - H14   
     2     22      1 ;     C2 - H15   
     3      5      1 ;     C3 - C5    
     3     11      1 ;     C3 - H4    
     3     12      1 ;     C3 - H5    
     3     13      1 ;     C3 - H6    
     3     21      1 ;     C3 - H14   
     3     22      1 ;     C3 - H15   
     4      7      1 ;     C4 - C7    
     4     21      1 ;     C4 - H14   
     4     22      1 ;     C4 - H15   
     5     23      1 ;     C5 - H16   
     6     11      1 ;     C6 - H4    
     6     12      1 ;     C6 - H5    
     6     13      1 ;     C6 - H6    
     6     14      1 ;     C6 - H7    
     6     15      1 ;     C6 - H8    
     6     16      1 ;     C6 - H9    
     6     17      1 ;     C6 - H10   
     6     18      1 ;     C6 - H11   
     7     19      1 ;     C7 - H12   
     7     20      1 ;     C7 - H13   
     8      5      1 ;     H1 - C5    
     8     17      1 ;     H1 - H10   
     8     18      1 ;     H1 - H11   
     9      5      1 ;     H2 - C5    
     9     17      1 ;     H2 - H10   
     9     18      1 ;     H2 - H11   
    10      5      1 ;     H3 - C5    
    10     17      1 ;     H3 - H10   
    10     18      1 ;     H3 - H11   
    11     23      1 ;     H4 - H16   
    12     23      1 ;     H5 - H16   
    13     23      1 ;     H6 - H16   
    14     23      1 ;     H7 - H16   
    15     23      1 ;     H8 - H16   
    16     23      1 ;     H9 - H16   
    17     19      1 ;    H10 - H12   
    17     20      1 ;    H10 - H13   
    18     19      1 ;    H11 - H12   
    18     20      1 ;    H11 - H13   
    19     21      1 ;    H12 - H14   
    19     22      1 ;    H12 - H15   
    20     21      1 ;    H13 - H14   
    20     22      1 ;    H13 - H15   
    21     23      1 ;    H14 - H16   
    22     23      1 ;    H15 - H16   

[ angles ]
;   ai     aj     ak    funct   theta         cth
     1      4      5      1    1.1263e+02    5.0099e+02 ;     C1 - C4     - C5    
     1      4     17      1    1.0968e+02    3.6208e+02 ;     C1 - C4     - H10   
     1      4     18      1    1.0968e+02    3.6208e+02 ;     C1 - C4     - H11   
     2      7      3      1    1.1263e+02    5.0099e+02 ;     C2 - C7     - C3    
     2      7      6      1    1.1263e+02    5.0099e+02 ;     C2 - C7     - C6    
     2      7     23      1    1.0968e+02    3.6208e+02 ;     C2 - C7     - H16   
     3      7      6      1    1.1263e+02    5.0099e+02 ;     C3 - C7     - C6    
     3      7     23      1    1.0968e+02    3.6208e+02 ;     C3 - C7     - H16   
     4      1      8      1    1.0968e+02    3.6208e+02 ;     C4 - C1     - H1    
     4      1      9      1    1.0968e+02    3.6208e+02 ;     C4 - C1     - H2    
     4      1     10      1    1.0968e+02    3.6208e+02 ;     C4 - C1     - H3    
     4      5      6      1    1.1263e+02    5.0099e+02 ;     C4 - C5     - C6    
     4      5     19      1    1.0968e+02    3.6208e+02 ;     C4 - C5     - H12   
     4      5     20      1    1.0968e+02    3.6208e+02 ;     C4 - C5     - H13   
     5      4     17      1    1.0968e+02    3.6208e+02 ;     C5 - C4     - H10   
     5      4     18      1    1.0968e+02    3.6208e+02 ;     C5 - C4     - H11   
     5      6      7      1    1.1263e+02    5.0099e+02 ;     C5 - C6     - C7    
     5      6     21      1    1.0968e+02    3.6208e+02 ;     C5 - C6     - H14   
     5      6     22      1    1.0968e+02    3.6208e+02 ;     C5 - C6     - H15   
     6      5     19      1    1.0968e+02    3.6208e+02 ;     C6 - C5     - H12   
     6      5     20      1    1.0968e+02    3.6208e+02 ;     C6 - C5     - H13   
     6      7     23      1    1.0968e+02    3.6208e+02 ;     C6 - C7     - H16   
     7      2     11      1    1.0968e+02    3.6208e+02 ;     C7 - C2     - H4    
     7      2     12      1    1.0968e+02    3.6208e+02 ;     C7 - C2     - H5    
     7      2     13      1    1.0968e+02    3.6208e+02 ;     C7 - C2     - H6    
     7      3     14      1    1.0968e+02    3.6208e+02 ;     C7 - C3     - H7    
     7      3     15      1    1.0968e+02    3.6208e+02 ;     C7 - C3     - H8    
     7      3     16      1    1.0968e+02    3.6208e+02 ;     C7 - C3     - H9    
     7      6     21      1    1.0968e+02    3.6208e+02 ;     C7 - C6     - H14   
     7      6     22      1    1.0968e+02    3.6208e+02 ;     C7 - C6     - H15   
     8      1      9      1    1.0773e+02    2.9957e+02 ;     H1 - C1     - H2    
     8      1     10      1    1.0773e+02    2.9957e+02 ;     H1 - C1     - H3    
     9      1     10      1    1.0773e+02    2.9957e+02 ;     H2 - C1     - H3    
    11      2     12      1    1.0773e+02    2.9957e+02 ;     H4 - C2     - H5    
    11      2     13      1    1.0773e+02    2.9957e+02 ;     H4 - C2     - H6    
    12      2     13      1    1.0773e+02    2.9957e+02 ;     H5 - C2     - H6    
    14      3     15      1    1.0773e+02    2.9957e+02 ;     H7 - C3     - H8    
    14      3     16      1    1.0773e+02    2.9957e+02 ;     H7 - C3     - H9    
    15      3     16      1    1.0773e+02    2.9957e+02 ;     H8 - C3     - H9    
    17      4     18      1    1.0773e+02    2.9957e+02 ;    H10 - C4     - H11   
    19      5     20      1    1.0773e+02    2.9957e+02 ;    H12 - C5     - H13   
    21      6     22      1    1.0773e+02    2.9957e+02 ;    H14 - C6     - H15   

[ dihedrals ] ; propers
; for gromacs 4.5 or higher, using funct 9
;    i      j      k      l   func   phase     kd      pn
     1      4      5      6      9     0.00   2.17568   3 ;     C1-    C4-    C5-    C6
     1      4      5     19      9     0.00   0.54392   3 ;     C1-    C4-    C5-   H12
     1      4      5     20      9     0.00   0.54392   3 ;     C1-    C4-    C5-   H13
     2      7      3     14      9     0.00   0.54392   3 ;     C2-    C7-    C3-    H7
     2      7      3     15      9     0.00   0.54392   3 ;     C2-    C7-    C3-    H8
     2      7      3     16      9     0.00   0.54392   3 ;     C2-    C7-    C3-    H9
     2      7      6      5      9     0.00   2.17568   3 ;     C2-    C7-    C6-    C5
     2      7      6     21      9     0.00   0.54392   3 ;     C2-    C7-    C6-   H14
     2      7      6     22      9     0.00   0.54392   3 ;     C2-    C7-    C6-   H15
     3      7      2     11      9     0.00   0.54392   3 ;     C3-    C7-    C2-    H4
     3      7      2     12      9     0.00   0.54392   3 ;     C3-    C7-    C2-    H5
     3      7      2     13      9     0.00   0.54392   3 ;     C3-    C7-    C2-    H6
     3      7      6      5      9     0.00   2.17568   3 ;     C3-    C7-    C6-    C5
     3      7      6     21      9     0.00   0.54392   3 ;     C3-    C7-    C6-   H14
     3      7      6     22      9     0.00   0.54392   3 ;     C3-    C7-    C6-   H15
     4      5      6      7      9     0.00   2.17568   3 ;     C4-    C5-    C6-    C7
     4      5      6     21      9     0.00   0.54392   3 ;     C4-    C5-    C6-   H14
     4      5      6     22      9     0.00   0.54392   3 ;     C4-    C5-    C6-   H15
     5      6      7     23      9     0.00   0.54392   3 ;     C5-    C6-    C7-   H16
     6      5      4     17      9     0.00   0.54392   3 ;     C6-    C5-    C4-   H10
     6      5      4     18      9     0.00   0.54392   3 ;     C6-    C5-    C4-   H11
     6      7      2     11      9     0.00   0.54392   3 ;     C6-    C7-    C2-    H4
     6      7      2     12      9     0.00   0.54392   3 ;     C6-    C7-    C2-    H5
     6      7      2     13      9     0.00   0.54392   3 ;     C6-    C7-    C2-    H6
     6      7      3     14      9     0.00   0.54392   3 ;     C6-    C7-    C3-    H7
     6      7      3     15      9     0.00   0.54392   3 ;     C6-    C7-    C3-    H8
     6      7      3     16      9     0.00   0.54392   3 ;     C6-    C7-    C3-    H9
     7      6      5     19      9     0.00   0.54392   3 ;     C7-    C6-    C5-   H12
     7      6      5     20      9     0.00   0.54392   3 ;     C7-    C6-    C5-   H13
     8      1      4      5      9     0.00   0.54392   3 ;     H1-    C1-    C4-    C5
     8      1      4     17      9     0.00   0.50208   3 ;     H1-    C1-    C4-   H10
     8      1      4     18      9     0.00   0.50208   3 ;     H1-    C1-    C4-   H11
     9      1      4      5      9     0.00   0.54392   3 ;     H2-    C1-    C4-    C5
     9      1      4     17      9     0.00   0.50208   3 ;     H2-    C1-    C4-   H10
     9      1      4     18      9     0.00   0.50208   3 ;     H2-    C1-    C4-   H11
    10      1      4      5      9     0.00   0.54392   3 ;     H3-    C1-    C4-    C5
    10      1      4     17      9     0.00   0.50208   3 ;     H3-    C1-    C4-   H10
    10      1      4     18      9     0.00   0.50208   3 ;     H3-    C1-    C4-   H11
    11      2      7     23      9     0.00   0.50208   3 ;     H4-    C2-    C7-   H16
    12      2      7     23      9     0.00   0.50208   3 ;     H5-    C2-    C7-   H16
    13      2      7     23      9     0.00   0.50208   3 ;     H6-    C2-    C7-   H16
    14      3      7     23      9     0.00   0.50208   3 ;     H7-    C3-    C7-   H16
    15      3      7     23      9     0.00   0.50208   3 ;     H8-    C3-    C7-   H16
    16      3      7     23      9     0.00   0.50208   3 ;     H9-    C3-    C7-   H16
    17      4      5     19      9     0.00   0.50208   3 ;    H10-    C4-    C5-   H12
    17      4      5     20      9     0.00   0.50208   3 ;    H10-    C4-    C5-   H13
    18      4      5     19      9     0.00   0.50208   3 ;    H11-    C4-    C5-   H12
    18      4      5     20      9     0.00   0.50208   3 ;    H11-    C4-    C5-   H13
    19      5      6     21      9     0.00   0.50208   3 ;    H12-    C5-    C6-   H14
    19      5      6     22      9     0.00   0.50208   3 ;    H12-    C5-    C6-   H15
    20      5      6     21      9     0.00   0.50208   3 ;    H13-    C5-    C6-   H14
    20      5      6     22      9     0.00   0.50208   3 ;    H13-    C5-    C6-   H15
    21      6      7     23      9     0.00   0.50208   3 ;    H14-    C6-    C7-   H16
    22      6      7     23      9     0.00   0.50208   3 ;    H15-    C6-    C7-   H16
