; mobley_4043987_GMX_OPLS.itp created by acpype (v: 2023.10.27) on Wed May 20 23:44:11 2026

; For OPLS atomtypes manual fine tuning
; AC_at:OPLS_at:OPLScode: Possible_Alternatives (see ffoplsaa.atp and ffoplsaanb.itp)
; c3:CT:opls_135: ['136', '137', '149', '157', '158', '206', '209', '210', '223B', '224B', '245', '246', '274', '283', '284', '285', '292', '292B', '293B', '296', '307', '308', '505']
; hc:HC:opls_140: []

[ moleculetype ]
;name            nrexcl
 mobley_4043987   3

[ atoms ]
;   nr  type  resi  res  atom  cgnr     charge      mass       ; qtot   bond_type
     1 opls_135     1   MOL    C1    1    -0.093101     12.01100 ; qtot -0.093  CT  
     2 opls_135     1   MOL    C2    2    -0.089100     12.01100 ; qtot -0.182  CT  
     3 opls_135     1   MOL    C3    3    -0.089100     12.01100 ; qtot -0.271  CT  
     4 opls_135     1   MOL    C4    4    -0.080400     12.01100 ; qtot -0.352  CT  
     5 opls_135     1   MOL    C5    5    -0.079400     12.01100 ; qtot -0.431  CT  
     6 opls_135     1   MOL    C6    6    -0.073400     12.01100 ; qtot -0.505  CT  
     7 opls_135     1   MOL    C7    7    -0.065700     12.01100 ; qtot -0.570  CT  
     8 opls_140     1   MOL    H1    8     0.032367      1.00800 ; qtot -0.538  HC  
     9 opls_140     1   MOL    H2    9     0.032367      1.00800 ; qtot -0.505  HC  
    10 opls_140     1   MOL    H3   10     0.032367      1.00800 ; qtot -0.473  HC  
    11 opls_140     1   MOL    H4   11     0.033200      1.00800 ; qtot -0.440  HC  
    12 opls_140     1   MOL    H5   12     0.033200      1.00800 ; qtot -0.407  HC  
    13 opls_140     1   MOL    H6   13     0.033200      1.00800 ; qtot -0.374  HC  
    14 opls_140     1   MOL    H7   14     0.033200      1.00800 ; qtot -0.340  HC  
    15 opls_140     1   MOL    H8   15     0.033200      1.00800 ; qtot -0.307  HC  
    16 opls_140     1   MOL    H9   16     0.033200      1.00800 ; qtot -0.274  HC  
    17 opls_140     1   MOL   H10   17     0.037700      1.00800 ; qtot -0.236  HC  
    18 opls_140     1   MOL   H11   18     0.037700      1.00800 ; qtot -0.199  HC  
    19 opls_140     1   MOL   H12   19     0.040700      1.00800 ; qtot -0.158  HC  
    20 opls_140     1   MOL   H13   20     0.040700      1.00800 ; qtot -0.117  HC  
    21 opls_140     1   MOL   H14   21     0.037700      1.00800 ; qtot -0.079  HC  
    22 opls_140     1   MOL   H15   22     0.037700      1.00800 ; qtot -0.042  HC  
    23 opls_140     1   MOL   H16   23     0.041700      1.00800 ; qtot  0.000  HC  

[ bonds ]
;   ai     aj funct   r             k
     1      4   1 ;    1.5354e-01    1.9154e+05 ;     C1 - C4         CT - CT    
     1      8   1 ;    1.0962e-01    2.8891e+05 ;     C1 - H1         CT - HC    
     1      9   1 ;    1.0962e-01    2.8891e+05 ;     C1 - H2         CT - HC    
     1     10   1 ;    1.0962e-01    2.8891e+05 ;     C1 - H3         CT - HC    
     2      7   1 ;    1.5354e-01    1.9154e+05 ;     C2 - C7         CT - CT    
     2     11   1 ;    1.0962e-01    2.8891e+05 ;     C2 - H4         CT - HC    
     2     12   1 ;    1.0962e-01    2.8891e+05 ;     C2 - H5         CT - HC    
     2     13   1 ;    1.0962e-01    2.8891e+05 ;     C2 - H6         CT - HC    
     3      7   1 ;    1.5354e-01    1.9154e+05 ;     C3 - C7         CT - CT    
     3     14   1 ;    1.0962e-01    2.8891e+05 ;     C3 - H7         CT - HC    
     3     15   1 ;    1.0962e-01    2.8891e+05 ;     C3 - H8         CT - HC    
     3     16   1 ;    1.0962e-01    2.8891e+05 ;     C3 - H9         CT - HC    
     4      5   1 ;    1.5354e-01    1.9154e+05 ;     C4 - C5         CT - CT    
     4     17   1 ;    1.0962e-01    2.8891e+05 ;     C4 - H10        CT - HC    
     4     18   1 ;    1.0962e-01    2.8891e+05 ;     C4 - H11        CT - HC    
     5      6   1 ;    1.5354e-01    1.9154e+05 ;     C5 - C6         CT - CT    
     5     19   1 ;    1.0962e-01    2.8891e+05 ;     C5 - H12        CT - HC    
     5     20   1 ;    1.0962e-01    2.8891e+05 ;     C5 - H13        CT - HC    
     6      7   1 ;    1.5354e-01    1.9154e+05 ;     C6 - C7         CT - CT    
     6     21   1 ;    1.0962e-01    2.8891e+05 ;     C6 - H14        CT - HC    
     6     22   1 ;    1.0962e-01    2.8891e+05 ;     C6 - H15        CT - HC    
     7     23   1 ;    1.0962e-01    2.8891e+05 ;     C7 - H16        CT - HC    

[ pairs ]
;   ai     aj    funct
     1      6      1 ;     C1 - C6    
     1     19      1 ;     C1 - H12   
     1     20      1 ;     C1 - H13   
     2      5      1 ;     C2 - C5    
     2     14      1 ;     C2 - H7    
     2     15      1 ;     C2 - H8    
     2     16      1 ;     C2 - H9    
     2     21      1 ;     C2 - H14   
     2     22      1 ;     C2 - H15   
     3      5      1 ;     C3 - C5    
     3     11      1 ;     C3 - H4    
     3     12      1 ;     C3 - H5    
     3     13      1 ;     C3 - H6    
     3     21      1 ;     C3 - H14   
     3     22      1 ;     C3 - H15   
     4      7      1 ;     C4 - C7    
     4     21      1 ;     C4 - H14   
     4     22      1 ;     C4 - H15   
     5     23      1 ;     C5 - H16   
     6     11      1 ;     C6 - H4    
     6     12      1 ;     C6 - H5    
     6     13      1 ;     C6 - H6    
     6     14      1 ;     C6 - H7    
     6     15      1 ;     C6 - H8    
     6     16      1 ;     C6 - H9    
     6     17      1 ;     C6 - H10   
     6     18      1 ;     C6 - H11   
     7     19      1 ;     C7 - H12   
     7     20      1 ;     C7 - H13   
     8      5      1 ;     H1 - C5    
     8     17      1 ;     H1 - H10   
     8     18      1 ;     H1 - H11   
     9      5      1 ;     H2 - C5    
     9     17      1 ;     H2 - H10   
     9     18      1 ;     H2 - H11   
    10      5      1 ;     H3 - C5    
    10     17      1 ;     H3 - H10   
    10     18      1 ;     H3 - H11   
    11     23      1 ;     H4 - H16   
    12     23      1 ;     H5 - H16   
    13     23      1 ;     H6 - H16   
    14     23      1 ;     H7 - H16   
    15     23      1 ;     H8 - H16   
    16     23      1 ;     H9 - H16   
    17     19      1 ;    H10 - H12   
    17     20      1 ;    H10 - H13   
    18     19      1 ;    H11 - H12   
    18     20      1 ;    H11 - H13   
    19     21      1 ;    H12 - H14   
    19     22      1 ;    H12 - H15   
    20     21      1 ;    H13 - H14   
    20     22      1 ;    H13 - H15   
    21     23      1 ;    H14 - H16   
    22     23      1 ;    H15 - H16   

[ angles ]
;   ai     aj     ak    funct   theta         cth
     1      4      5      1 ;    1.1263e+02    5.0099e+02 ;     C1 - C4   - C5       CT -   CT - CT  
     1      4     17      1 ;    1.0968e+02    3.6208e+02 ;     C1 - C4   - H10      CT -   CT - HC  
     1      4     18      1 ;    1.0968e+02    3.6208e+02 ;     C1 - C4   - H11      CT -   CT - HC  
     2      7      3      1 ;    1.1263e+02    5.0099e+02 ;     C2 - C7   - C3       CT -   CT - CT  
     2      7      6      1 ;    1.1263e+02    5.0099e+02 ;     C2 - C7   - C6       CT -   CT - CT  
     2      7     23      1 ;    1.0968e+02    3.6208e+02 ;     C2 - C7   - H16      CT -   CT - HC  
     3      7      6      1 ;    1.1263e+02    5.0099e+02 ;     C3 - C7   - C6       CT -   CT - CT  
     3      7     23      1 ;    1.0968e+02    3.6208e+02 ;     C3 - C7   - H16      CT -   CT - HC  
     4      1      8      1 ;    1.0968e+02    3.6208e+02 ;     C4 - C1   - H1       CT -   CT - HC  
     4      1      9      1 ;    1.0968e+02    3.6208e+02 ;     C4 - C1   - H2       CT -   CT - HC  
     4      1     10      1 ;    1.0968e+02    3.6208e+02 ;     C4 - C1   - H3       CT -   CT - HC  
     4      5      6      1 ;    1.1263e+02    5.0099e+02 ;     C4 - C5   - C6       CT -   CT - CT  
     4      5     19      1 ;    1.0968e+02    3.6208e+02 ;     C4 - C5   - H12      CT -   CT - HC  
     4      5     20      1 ;    1.0968e+02    3.6208e+02 ;     C4 - C5   - H13      CT -   CT - HC  
     5      4     17      1 ;    1.0968e+02    3.6208e+02 ;     C5 - C4   - H10      CT -   CT - HC  
     5      4     18      1 ;    1.0968e+02    3.6208e+02 ;     C5 - C4   - H11      CT -   CT - HC  
     5      6      7      1 ;    1.1263e+02    5.0099e+02 ;     C5 - C6   - C7       CT -   CT - CT  
     5      6     21      1 ;    1.0968e+02    3.6208e+02 ;     C5 - C6   - H14      CT -   CT - HC  
     5      6     22      1 ;    1.0968e+02    3.6208e+02 ;     C5 - C6   - H15      CT -   CT - HC  
     6      5     19      1 ;    1.0968e+02    3.6208e+02 ;     C6 - C5   - H12      CT -   CT - HC  
     6      5     20      1 ;    1.0968e+02    3.6208e+02 ;     C6 - C5   - H13      CT -   CT - HC  
     6      7     23      1 ;    1.0968e+02    3.6208e+02 ;     C6 - C7   - H16      CT -   CT - HC  
     7      2     11      1 ;    1.0968e+02    3.6208e+02 ;     C7 - C2   - H4       CT -   CT - HC  
     7      2     12      1 ;    1.0968e+02    3.6208e+02 ;     C7 - C2   - H5       CT -   CT - HC  
     7      2     13      1 ;    1.0968e+02    3.6208e+02 ;     C7 - C2   - H6       CT -   CT - HC  
     7      3     14      1 ;    1.0968e+02    3.6208e+02 ;     C7 - C3   - H7       CT -   CT - HC  
     7      3     15      1 ;    1.0968e+02    3.6208e+02 ;     C7 - C3   - H8       CT -   CT - HC  
     7      3     16      1 ;    1.0968e+02    3.6208e+02 ;     C7 - C3   - H9       CT -   CT - HC  
     7      6     21      1 ;    1.0968e+02    3.6208e+02 ;     C7 - C6   - H14      CT -   CT - HC  
     7      6     22      1 ;    1.0968e+02    3.6208e+02 ;     C7 - C6   - H15      CT -   CT - HC  
     8      1      9      1 ;    1.0773e+02    2.9957e+02 ;     H1 - C1   - H2       HC -   CT - HC  
     8      1     10      1 ;    1.0773e+02    2.9957e+02 ;     H1 - C1   - H3       HC -   CT - HC  
     9      1     10      1 ;    1.0773e+02    2.9957e+02 ;     H2 - C1   - H3       HC -   CT - HC  
    11      2     12      1 ;    1.0773e+02    2.9957e+02 ;     H4 - C2   - H5       HC -   CT - HC  
    11      2     13      1 ;    1.0773e+02    2.9957e+02 ;     H4 - C2   - H6       HC -   CT - HC  
    12      2     13      1 ;    1.0773e+02    2.9957e+02 ;     H5 - C2   - H6       HC -   CT - HC  
    14      3     15      1 ;    1.0773e+02    2.9957e+02 ;     H7 - C3   - H8       HC -   CT - HC  
    14      3     16      1 ;    1.0773e+02    2.9957e+02 ;     H7 - C3   - H9       HC -   CT - HC  
    15      3     16      1 ;    1.0773e+02    2.9957e+02 ;     H8 - C3   - H9       HC -   CT - HC  
    17      4     18      1 ;    1.0773e+02    2.9957e+02 ;    H10 - C4   - H11      HC -   CT - HC  
    19      5     20      1 ;    1.0773e+02    2.9957e+02 ;    H12 - C5   - H13      HC -   CT - HC  
    21      6     22      1 ;    1.0773e+02    2.9957e+02 ;    H14 - C6   - H15      HC -   CT - HC  

[ dihedrals ] ; propers
; for gromacs 4.5 or higher, using funct 9
;    i      j      k      l   func   phase     kd      pn
     1      4      5      6      9 ;     0.00   2.17568   3 ;     C1-    C4-    C5-    C6
     1      4      5     19      9 ;     0.00   0.54392   3 ;     C1-    C4-    C5-   H12
     1      4      5     20      9 ;     0.00   0.54392   3 ;     C1-    C4-    C5-   H13
     2      7      3     14      9 ;     0.00   0.54392   3 ;     C2-    C7-    C3-    H7
     2      7      3     15      9 ;     0.00   0.54392   3 ;     C2-    C7-    C3-    H8
     2      7      3     16      9 ;     0.00   0.54392   3 ;     C2-    C7-    C3-    H9
     2      7      6      5      9 ;     0.00   2.17568   3 ;     C2-    C7-    C6-    C5
     2      7      6     21      9 ;     0.00   0.54392   3 ;     C2-    C7-    C6-   H14
     2      7      6     22      9 ;     0.00   0.54392   3 ;     C2-    C7-    C6-   H15
     3      7      2     11      9 ;     0.00   0.54392   3 ;     C3-    C7-    C2-    H4
     3      7      2     12      9 ;     0.00   0.54392   3 ;     C3-    C7-    C2-    H5
     3      7      2     13      9 ;     0.00   0.54392   3 ;     C3-    C7-    C2-    H6
     3      7      6      5      9 ;     0.00   2.17568   3 ;     C3-    C7-    C6-    C5
     3      7      6     21      9 ;     0.00   0.54392   3 ;     C3-    C7-    C6-   H14
     3      7      6     22      9 ;     0.00   0.54392   3 ;     C3-    C7-    C6-   H15
     4      5      6      7      9 ;     0.00   2.17568   3 ;     C4-    C5-    C6-    C7
     4      5      6     21      9 ;     0.00   0.54392   3 ;     C4-    C5-    C6-   H14
     4      5      6     22      9 ;     0.00   0.54392   3 ;     C4-    C5-    C6-   H15
     5      6      7     23      9 ;     0.00   0.54392   3 ;     C5-    C6-    C7-   H16
     6      5      4     17      9 ;     0.00   0.54392   3 ;     C6-    C5-    C4-   H10
     6      5      4     18      9 ;     0.00   0.54392   3 ;     C6-    C5-    C4-   H11
     6      7      2     11      9 ;     0.00   0.54392   3 ;     C6-    C7-    C2-    H4
     6      7      2     12      9 ;     0.00   0.54392   3 ;     C6-    C7-    C2-    H5
     6      7      2     13      9 ;     0.00   0.54392   3 ;     C6-    C7-    C2-    H6
     6      7      3     14      9 ;     0.00   0.54392   3 ;     C6-    C7-    C3-    H7
     6      7      3     15      9 ;     0.00   0.54392   3 ;     C6-    C7-    C3-    H8
     6      7      3     16      9 ;     0.00   0.54392   3 ;     C6-    C7-    C3-    H9
     7      6      5     19      9 ;     0.00   0.54392   3 ;     C7-    C6-    C5-   H12
     7      6      5     20      9 ;     0.00   0.54392   3 ;     C7-    C6-    C5-   H13
     8      1      4      5      9 ;     0.00   0.54392   3 ;     H1-    C1-    C4-    C5
     8      1      4     17      9 ;     0.00   0.50208   3 ;     H1-    C1-    C4-   H10
     8      1      4     18      9 ;     0.00   0.50208   3 ;     H1-    C1-    C4-   H11
     9      1      4      5      9 ;     0.00   0.54392   3 ;     H2-    C1-    C4-    C5
     9      1      4     17      9 ;     0.00   0.50208   3 ;     H2-    C1-    C4-   H10
     9      1      4     18      9 ;     0.00   0.50208   3 ;     H2-    C1-    C4-   H11
    10      1      4      5      9 ;     0.00   0.54392   3 ;     H3-    C1-    C4-    C5
    10      1      4     17      9 ;     0.00   0.50208   3 ;     H3-    C1-    C4-   H10
    10      1      4     18      9 ;     0.00   0.50208   3 ;     H3-    C1-    C4-   H11
    11      2      7     23      9 ;     0.00   0.50208   3 ;     H4-    C2-    C7-   H16
    12      2      7     23      9 ;     0.00   0.50208   3 ;     H5-    C2-    C7-   H16
    13      2      7     23      9 ;     0.00   0.50208   3 ;     H6-    C2-    C7-   H16
    14      3      7     23      9 ;     0.00   0.50208   3 ;     H7-    C3-    C7-   H16
    15      3      7     23      9 ;     0.00   0.50208   3 ;     H8-    C3-    C7-   H16
    16      3      7     23      9 ;     0.00   0.50208   3 ;     H9-    C3-    C7-   H16
    17      4      5     19      9 ;     0.00   0.50208   3 ;    H10-    C4-    C5-   H12
    17      4      5     20      9 ;     0.00   0.50208   3 ;    H10-    C4-    C5-   H13
    18      4      5     19      9 ;     0.00   0.50208   3 ;    H11-    C4-    C5-   H12
    18      4      5     20      9 ;     0.00   0.50208   3 ;    H11-    C4-    C5-   H13
    19      5      6     21      9 ;     0.00   0.50208   3 ;    H12-    C5-    C6-   H14
    19      5      6     22      9 ;     0.00   0.50208   3 ;    H12-    C5-    C6-   H15
    20      5      6     21      9 ;     0.00   0.50208   3 ;    H13-    C5-    C6-   H14
    20      5      6     22      9 ;     0.00   0.50208   3 ;    H13-    C5-    C6-   H15
    21      6      7     23      9 ;     0.00   0.50208   3 ;    H14-    C6-    C7-   H16
    22      6      7     23      9 ;     0.00   0.50208   3 ;    H15-    C6-    C7-   H16
