; mobley_2845466_GMX.itp created by acpype (v: 2023.10.27) on Wed May 20 23:44:54 2026

[ atomtypes ]
;name   bond_type     mass     charge   ptype   sigma         epsilon       Amb
 ca       ca          0.00000  0.00000   A     3.31521e-01   4.13379e-01 ; 1.86  0.0988
 os       os          0.00000  0.00000   A     3.15610e-01   3.03758e-01 ; 1.77  0.0726
 cl       cl          0.00000  0.00000   A     3.46595e-01   1.10374e+00 ; 1.95  0.2638
 ha       ha          0.00000  0.00000   A     2.62548e-01   6.73624e-02 ; 1.47  0.0161

[ moleculetype ]
;name            nrexcl
 mobley_2845466   3

[ atoms ]
;   nr  type  resi  res  atom  cgnr     charge      mass       ; qtot   bond_type
     1   ca     1   MOL    C1    1    -0.170300     12.01000 ; qtot -0.170
     2   ca     1   MOL    C2    2    -0.170300     12.01000 ; qtot -0.341
     3   ca     1   MOL    C3    3    -0.170300     12.01000 ; qtot -0.511
     4   ca     1   MOL    C4    4    -0.170300     12.01000 ; qtot -0.681
     5   ca     1   MOL    C5    5     0.220700     12.01000 ; qtot -0.460
     6   ca     1   MOL    C6    6     0.220700     12.01000 ; qtot -0.240
     7   ca     1   MOL    C7    7     0.220700     12.01000 ; qtot -0.019
     8   ca     1   MOL    C8    8     0.220700     12.01000 ; qtot 0.202
     9   ca     1   MOL    C9    9     0.019400     12.01000 ; qtot 0.221
    10   ca     1   MOL   C10   10     0.019400     12.01000 ; qtot 0.240
    11   ca     1   MOL   C11   11     0.019400     12.01000 ; qtot 0.260
    12   ca     1   MOL   C12   12     0.019400     12.01000 ; qtot 0.279
    13   os     1   MOL    O1   13    -0.382800     16.00000 ; qtot -0.104
    14   os     1   MOL    O2   14    -0.382800     16.00000 ; qtot -0.486
    15   cl     1   MOL   CL1   15    -0.053400     35.45000 ; qtot -0.540
    16   cl     1   MOL   CL2   16    -0.053400     35.45000 ; qtot -0.593
    17   cl     1   MOL   CL3   17    -0.053400     35.45000 ; qtot -0.647
    18   cl     1   MOL   CL4   18    -0.053400     35.45000 ; qtot -0.700
    19   ha     1   MOL    H1   19     0.175000      1.00800 ; qtot -0.525
    20   ha     1   MOL    H2   20     0.175000      1.00800 ; qtot -0.350
    21   ha     1   MOL    H3   21     0.175000      1.00800 ; qtot -0.175
    22   ha     1   MOL    H4   22     0.175000      1.00800 ; qtot 0.000

[ bonds ]
;   ai     aj funct   r             k
     1      5   1    1.3986e-01    2.9644e+05 ;     C1 - C5    
     1      9   1    1.3986e-01    2.9644e+05 ;     C1 - C9    
     1     19   1    1.0860e-01    3.0183e+05 ;     C1 - H1    
     2      6   1    1.3986e-01    2.9644e+05 ;     C2 - C6    
     2     10   1    1.3986e-01    2.9644e+05 ;     C2 - C10   
     2     20   1    1.0860e-01    3.0183e+05 ;     C2 - H2    
     3      7   1    1.3986e-01    2.9644e+05 ;     C3 - C7    
     3     11   1    1.3986e-01    2.9644e+05 ;     C3 - C11   
     3     21   1    1.0860e-01    3.0183e+05 ;     C3 - H3    
     4      8   1    1.3986e-01    2.9644e+05 ;     C4 - C8    
     4     12   1    1.3986e-01    2.9644e+05 ;     C4 - C12   
     4     22   1    1.0860e-01    3.0183e+05 ;     C4 - H4    
     5      6   1    1.3986e-01    2.9644e+05 ;     C5 - C6    
     5     13   1    1.3688e-01    2.8731e+05 ;     C5 - O1    
     6     14   1    1.3688e-01    2.8731e+05 ;     C6 - O2    
     7      8   1    1.3986e-01    2.9644e+05 ;     C7 - C8    
     7     13   1    1.3688e-01    2.8731e+05 ;     C7 - O1    
     8     14   1    1.3688e-01    2.8731e+05 ;     C8 - O2    
     9     10   1    1.3986e-01    2.9644e+05 ;     C9 - C10   
     9     15   1    1.7572e-01    1.5730e+05 ;     C9 - CL1   
    10     16   1    1.7572e-01    1.5730e+05 ;    C10 - CL2   
    11     12   1    1.3986e-01    2.9644e+05 ;    C11 - C12   
    11     17   1    1.7572e-01    1.5730e+05 ;    C11 - CL3   
    12     18   1    1.7572e-01    1.5730e+05 ;    C12 - CL4   

[ pairs ]
;   ai     aj    funct
     1      2      1 ;     C1 - C2    
     1      7      1 ;     C1 - C7    
     1     14      1 ;     C1 - O2    
     1     16      1 ;     C1 - CL2   
     2      8      1 ;     C2 - C8    
     2     13      1 ;     C2 - O1    
     2     15      1 ;     C2 - CL1   
     3      4      1 ;     C3 - C4    
     3      5      1 ;     C3 - C5    
     3     14      1 ;     C3 - O2    
     3     18      1 ;     C3 - CL4   
     4      6      1 ;     C4 - C6    
     4     13      1 ;     C4 - O1    
     4     17      1 ;     C4 - CL3   
     5      8      1 ;     C5 - C8    
     5     10      1 ;     C5 - C10   
     5     15      1 ;     C5 - CL1   
     5     20      1 ;     C5 - H2    
     6      7      1 ;     C6 - C7    
     6      9      1 ;     C6 - C9    
     6     16      1 ;     C6 - CL2   
     7     12      1 ;     C7 - C12   
     7     17      1 ;     C7 - CL3   
     7     22      1 ;     C7 - H4    
     8     11      1 ;     C8 - C11   
     8     18      1 ;     C8 - CL4   
     8     21      1 ;     C8 - H3    
     9     13      1 ;     C9 - O1    
     9     20      1 ;     C9 - H2    
    10     14      1 ;    C10 - O2    
    11     13      1 ;    C11 - O1    
    11     22      1 ;    C11 - H4    
    12     14      1 ;    C12 - O2    
    12     21      1 ;    C12 - H3    
    13     14      1 ;     O1 - O2    
    13     21      1 ;     O1 - H3    
    14     20      1 ;     O2 - H2    
    14     22      1 ;     O2 - H4    
    15     16      1 ;    CL1 - CL2   
    16     20      1 ;    CL2 - H2    
    17     18      1 ;    CL3 - CL4   
    17     21      1 ;    CL3 - H3    
    18     22      1 ;    CL4 - H4    
    19      6      1 ;     H1 - C6    
    19     10      1 ;     H1 - C10   
    19     13      1 ;     H1 - O1    
    19     15      1 ;     H1 - CL1   

[ angles ]
;   ai     aj     ak    funct   theta         cth
     1      5      6      1    1.2002e+02    5.3279e+02 ;     C1 - C5     - C6    
     1      5     13      1    1.1911e+02    6.6107e+02 ;     C1 - C5     - O1    
     1      9     10      1    1.2002e+02    5.3279e+02 ;     C1 - C9     - C10   
     1      9     15      1    1.1938e+02    5.3605e+02 ;     C1 - C9     - CL1   
     2      6      5      1    1.2002e+02    5.3279e+02 ;     C2 - C6     - C5    
     2      6     14      1    1.1911e+02    6.6107e+02 ;     C2 - C6     - O2    
     2     10      9      1    1.2002e+02    5.3279e+02 ;     C2 - C10    - C9    
     2     10     16      1    1.1938e+02    5.3605e+02 ;     C2 - C10    - CL2   
     3      7      8      1    1.2002e+02    5.3279e+02 ;     C3 - C7     - C8    
     3      7     13      1    1.1911e+02    6.6107e+02 ;     C3 - C7     - O1    
     3     11     12      1    1.2002e+02    5.3279e+02 ;     C3 - C11    - C12   
     3     11     17      1    1.1938e+02    5.3605e+02 ;     C3 - C11    - CL3   
     4      8      7      1    1.2002e+02    5.3279e+02 ;     C4 - C8     - C7    
     4      8     14      1    1.1911e+02    6.6107e+02 ;     C4 - C8     - O2    
     4     12     11      1    1.2002e+02    5.3279e+02 ;     C4 - C12    - C11   
     4     12     18      1    1.1938e+02    5.3605e+02 ;     C4 - C12    - CL4   
     5      1      9      1    1.2002e+02    5.3279e+02 ;     C5 - C1     - C9    
     5      1     19      1    1.1988e+02    3.7572e+02 ;     C5 - C1     - H1    
     5      6     14      1    1.1911e+02    6.6107e+02 ;     C5 - C6     - O2    
     5     13      7      1    1.1987e+02    7.5036e+02 ;     C5 - O1     - C7    
     6      2     10      1    1.2002e+02    5.3279e+02 ;     C6 - C2     - C10   
     6      2     20      1    1.1988e+02    3.7572e+02 ;     C6 - C2     - H2    
     6      5     13      1    1.1911e+02    6.6107e+02 ;     C6 - C5     - O1    
     6     14      8      1    1.1987e+02    7.5036e+02 ;     C6 - O2     - C8    
     7      3     11      1    1.2002e+02    5.3279e+02 ;     C7 - C3     - C11   
     7      3     21      1    1.1988e+02    3.7572e+02 ;     C7 - C3     - H3    
     7      8     14      1    1.1911e+02    6.6107e+02 ;     C7 - C8     - O2    
     8      4     12      1    1.2002e+02    5.3279e+02 ;     C8 - C4     - C12   
     8      4     22      1    1.1988e+02    3.7572e+02 ;     C8 - C4     - H4    
     8      7     13      1    1.1911e+02    6.6107e+02 ;     C8 - C7     - O1    
     9      1     19      1    1.1988e+02    3.7572e+02 ;     C9 - C1     - H1    
     9     10     16      1    1.1938e+02    5.3605e+02 ;     C9 - C10    - CL2   
    10      2     20      1    1.1988e+02    3.7572e+02 ;    C10 - C2     - H2    
    10      9     15      1    1.1938e+02    5.3605e+02 ;    C10 - C9     - CL1   
    11      3     21      1    1.1988e+02    3.7572e+02 ;    C11 - C3     - H3    
    11     12     18      1    1.1938e+02    5.3605e+02 ;    C11 - C12    - CL4   
    12      4     22      1    1.1988e+02    3.7572e+02 ;    C12 - C4     - H4    
    12     11     17      1    1.1938e+02    5.3605e+02 ;    C12 - C11    - CL3   

[ dihedrals ] ; propers
; for gromacs 4.5 or higher, using funct 9
;    i      j      k      l   func   phase     kd      pn
     1      5      6      2      9   180.00  15.16700   2 ;     C1-    C5-    C6-    C2
     1      5      6     14      9   180.00  15.16700   2 ;     C1-    C5-    C6-    O2
     1      5     13      7      9   180.00   3.76560   2 ;     C1-    C5-    O1-    C7
     1      9     10      2      9   180.00  15.16700   2 ;     C1-    C9-   C10-    C2
     1      9     10     16      9   180.00  15.16700   2 ;     C1-    C9-   C10-   CL2
     2      6      5     13      9   180.00  15.16700   2 ;     C2-    C6-    C5-    O1
     2      6     14      8      9   180.00   3.76560   2 ;     C2-    C6-    O2-    C8
     2     10      9     15      9   180.00  15.16700   2 ;     C2-   C10-    C9-   CL1
     3      7      8      4      9   180.00  15.16700   2 ;     C3-    C7-    C8-    C4
     3      7      8     14      9   180.00  15.16700   2 ;     C3-    C7-    C8-    O2
     3      7     13      5      9   180.00   3.76560   2 ;     C3-    C7-    O1-    C5
     3     11     12      4      9   180.00  15.16700   2 ;     C3-   C11-   C12-    C4
     3     11     12     18      9   180.00  15.16700   2 ;     C3-   C11-   C12-   CL4
     4      8      7     13      9   180.00  15.16700   2 ;     C4-    C8-    C7-    O1
     4      8     14      6      9   180.00   3.76560   2 ;     C4-    C8-    O2-    C6
     4     12     11     17      9   180.00  15.16700   2 ;     C4-   C12-   C11-   CL3
     5      1      9     10      9   180.00  15.16700   2 ;     C5-    C1-    C9-   C10
     5      1      9     15      9   180.00  15.16700   2 ;     C5-    C1-    C9-   CL1
     5      6      2     10      9   180.00  15.16700   2 ;     C5-    C6-    C2-   C10
     5      6      2     20      9   180.00  15.16700   2 ;     C5-    C6-    C2-    H2
     5      6     14      8      9   180.00   3.76560   2 ;     C5-    C6-    O2-    C8
     5     13      7      8      9   180.00   3.76560   2 ;     C5-    O1-    C7-    C8
     6      2     10      9      9   180.00  15.16700   2 ;     C6-    C2-   C10-    C9
     6      2     10     16      9   180.00  15.16700   2 ;     C6-    C2-   C10-   CL2
     6      5     13      7      9   180.00   3.76560   2 ;     C6-    C5-    O1-    C7
     6     14      8      7      9   180.00   3.76560   2 ;     C6-    O2-    C8-    C7
     7      3     11     12      9   180.00  15.16700   2 ;     C7-    C3-   C11-   C12
     7      3     11     17      9   180.00  15.16700   2 ;     C7-    C3-   C11-   CL3
     7      8      4     12      9   180.00  15.16700   2 ;     C7-    C8-    C4-   C12
     7      8      4     22      9   180.00  15.16700   2 ;     C7-    C8-    C4-    H4
     8      4     12     11      9   180.00  15.16700   2 ;     C8-    C4-   C12-   C11
     8      4     12     18      9   180.00  15.16700   2 ;     C8-    C4-   C12-   CL4
     8      7      3     11      9   180.00  15.16700   2 ;     C8-    C7-    C3-   C11
     8      7      3     21      9   180.00  15.16700   2 ;     C8-    C7-    C3-    H3
     9      1      5      6      9   180.00  15.16700   2 ;     C9-    C1-    C5-    C6
     9      1      5     13      9   180.00  15.16700   2 ;     C9-    C1-    C5-    O1
     9     10      2     20      9   180.00  15.16700   2 ;     C9-   C10-    C2-    H2
    10      2      6     14      9   180.00  15.16700   2 ;    C10-    C2-    C6-    O2
    11      3      7     13      9   180.00  15.16700   2 ;    C11-    C3-    C7-    O1
    11     12      4     22      9   180.00  15.16700   2 ;    C11-   C12-    C4-    H4
    12      4      8     14      9   180.00  15.16700   2 ;    C12-    C4-    C8-    O2
    12     11      3     21      9   180.00  15.16700   2 ;    C12-   C11-    C3-    H3
    13      5      6     14      9   180.00  15.16700   2 ;     O1-    C5-    C6-    O2
    13      7      3     21      9   180.00  15.16700   2 ;     O1-    C7-    C3-    H3
    13      7      8     14      9   180.00  15.16700   2 ;     O1-    C7-    C8-    O2
    14      6      2     20      9   180.00  15.16700   2 ;     O2-    C6-    C2-    H2
    14      8      4     22      9   180.00  15.16700   2 ;     O2-    C8-    C4-    H4
    15      9     10     16      9   180.00  15.16700   2 ;    CL1-    C9-   C10-   CL2
    16     10      2     20      9   180.00  15.16700   2 ;    CL2-   C10-    C2-    H2
    17     11      3     21      9   180.00  15.16700   2 ;    CL3-   C11-    C3-    H3
    17     11     12     18      9   180.00  15.16700   2 ;    CL3-   C11-   C12-   CL4
    18     12      4     22      9   180.00  15.16700   2 ;    CL4-   C12-    C4-    H4
    19      1      5      6      9   180.00  15.16700   2 ;     H1-    C1-    C5-    C6
    19      1      5     13      9   180.00  15.16700   2 ;     H1-    C1-    C5-    O1
    19      1      9     10      9   180.00  15.16700   2 ;     H1-    C1-    C9-   C10
    19      1      9     15      9   180.00  15.16700   2 ;     H1-    C1-    C9-   CL1

[ dihedrals ] ; impropers
; treated as propers in GROMACS to use correct AMBER analytical function
;    i      j      k      l   func   phase     kd      pn
     1      6      5     13      4   180.00   4.60240   2 ;     C1-    C6-    C5-    O1
     1     10      9     15      4   180.00   4.60240   2 ;     C1-   C10-    C9-   CL1
     2      5      6     14      4   180.00   4.60240   2 ;     C2-    C5-    C6-    O2
     2      9     10     16      4   180.00   4.60240   2 ;     C2-    C9-   C10-   CL2
     3      8      7     13      4   180.00   4.60240   2 ;     C3-    C8-    C7-    O1
     3     12     11     17      4   180.00   4.60240   2 ;     C3-   C12-   C11-   CL3
     4      7      8     14      4   180.00   4.60240   2 ;     C4-    C7-    C8-    O2
     4     11     12     18      4   180.00   4.60240   2 ;     C4-   C11-   C12-   CL4
     6     10      2     20      4   180.00   4.60240   2 ;     C6-   C10-    C2-    H2
     7     11      3     21      4   180.00   4.60240   2 ;     C7-   C11-    C3-    H3
     8     12      4     22      4   180.00   4.60240   2 ;     C8-   C12-    C4-    H4
    19      1      9      5      4   180.00   4.60240   2 ;     H1-    C1-    C9-    C5
