; mobley_2845466_GMX.top created by acpype (v: 2023.10.27) on Wed May 20 23:44:54 2026

[ defaults ]
; nbfunc        comb-rule       gen-pairs       fudgeLJ fudgeQQ
1               2               yes             0.5     0.8333333333

; Include mobley_2845466_GMX.itp topology
#include "mobley_2845466_GMX.itp"

; Ligand position restraints
#ifdef POSRES_LIG
#include "posre_mobley_2845466.itp"
#endif

[ system ]
mobley_2845466 in water

[ molecules ]
; Compound        nmols
 mobley_2845466   1     
SOL              4193
