; mobley_2845466_GMX_OPLS.top created by acpype (v: 2023.10.27) on Wed May 20 23:44:54 2026

; Include forcefield parameters
#include "ffoplsaa.itp"

; Include mobley_2845466_GMX.itp topology
#include "mobley_2845466_GMX.itp"

; Ligand position restraints
#ifdef POSRES_LIG
#include "posre_mobley_2845466.itp"
#endif

[ system ]
 mobley_2845466

[ molecules ]
; Compound        nmols
 mobley_2845466   1     
