cf32ben.xyz
    18
   1.4010000   2.3970000  -0.0000000   2.0920000   1.1900000   0.0000000
   0.0220000   2.4050000  -0.0000000   0.0000000   0.0000000   0.0000000
   1.3920000   0.0000000   0.0000000  -0.6780000   1.2010000   0.0000000
   2.1070000  -1.3250000  -0.0000000  -2.1830000   1.2400000  -0.0000000
   1.7880000  -2.0520000   1.0620000   3.4220000  -1.1840000   0.0020000
   1.7910000  -2.0500000  -1.0640000  -2.7170000   0.0310000   0.0000000
  -2.6530000   1.8790000   1.0630000  -2.6530000   1.8780000  -1.0630000
   1.9450000   3.3240000   0.0000000   3.1660000   1.1850000   0.0000000
  -0.5130000   3.3370000   0.0000000  -0.5400000  -0.9280000   0.0000000
