; mobley_4678740_GMX_OPLS.top created by acpype (v: 2023.10.27) on Wed May 20 23:42:21 2026

; Include forcefield parameters
#include "ffoplsaa.itp"

; Include mobley_4678740_GMX.itp topology
#include "mobley_4678740_GMX.itp"

; Ligand position restraints
#ifdef POSRES_LIG
#include "posre_mobley_4678740.itp"
#endif

[ system ]
 mobley_4678740

[ molecules ]
; Compound        nmols
 mobley_4678740   1     
