; mobley_7943327_GMX_OPLS.top created by acpype (v: 2023.10.27) on Wed May 20 23:45:55 2026

; Include forcefield parameters
#include "ffoplsaa.itp"

; Include mobley_7943327_GMX.itp topology
#include "mobley_7943327_GMX.itp"

; Ligand position restraints
#ifdef POSRES_LIG
#include "posre_mobley_7943327.itp"
#endif

[ system ]
 mobley_7943327

[ molecules ]
; Compound        nmols
 mobley_7943327   1     
