; mobley_7943327_GMX.top created by acpype (v: 2023.10.27) on Wed May 20 23:45:55 2026

[ defaults ]
; nbfunc        comb-rule       gen-pairs       fudgeLJ fudgeQQ
1               2               yes             0.5     0.8333333333

; Include mobley_7943327_GMX.itp topology
#include "mobley_7943327_GMX.itp"

; Ligand position restraints
#ifdef POSRES_LIG
#include "posre_mobley_7943327.itp"
#endif

[ system ]
mobley_7943327 in water

[ molecules ]
; Compound        nmols
 mobley_7943327   1     
SOL              3582
