mobley_7943327_GMX.gro created by acpype (v: 2023.10.27) on Wed May 20 23:45:55 2026
 17
    1  MOL   C1    1  -0.207   0.130   0.245
    1  MOL   C2    2  -0.088   0.053   0.037
    1  MOL   C3    3  -0.288   0.180   0.599
    1  MOL   C4    4  -0.088   0.055   0.189
    1  MOL   C5    5  -0.308   0.193   0.449
    1  MOL   O1    6  -0.294   0.184   0.178
    1  MOL   O2    7  -0.202   0.126   0.381
    1  MOL   H1    8  -0.085   0.155  -0.003
    1  MOL   H2    9  -0.001  -0.002   0.000
    1  MOL   H3   10  -0.178   0.004  -0.001
    1  MOL   H4   11  -0.368   0.230   0.654
    1  MOL   H5   12  -0.285   0.075   0.628
    1  MOL   H6   13  -0.192   0.224   0.628
    1  MOL   H7   14   0.003   0.104   0.225
    1  MOL   H8   15  -0.091  -0.048   0.227
    1  MOL   H9   16  -0.308   0.298   0.420
    1  MOL  H10   17  -0.403   0.148   0.419
    8.12600     6.92400    13.14000
