ethyl_propanoate
    17
  -2.0710000   1.2980000   2.4500000  -0.8820000   0.5300000   0.3730000
  -2.8770000   1.8000000   5.9870000  -0.8820000   0.5510000   1.8920000
  -3.0830000   1.9320000   4.4930000  -2.9380000   1.8440000   1.7810000
  -2.0160000   1.2610000   3.8140000  -0.8510000   1.5460000  -0.0340000
  -0.0090000  -0.0150000   0.0000000  -1.7820000   0.0420000  -0.0130000
  -3.6770000   2.3040000   6.5360000  -2.8540000   0.7460000   6.2820000
  -1.9170000   2.2360000   6.2830000   0.0310000   1.0390000   2.2480000
  -0.9100000  -0.4770000   2.2680000  -3.0830000   2.9850000   4.1960000
  -4.0320000   1.4760000   4.1940000
