mobley_2261979_GMX.gro created by acpype (v: 2023.10.27) on Wed May 20 23:46:14 2026
10210
    1MOL     C1    1   2.601   2.474   2.308
    1MOL     C2    2   2.115   2.478   2.307
    1MOL     C3    3   2.485   2.548   2.279
    1MOL     C4    4   2.232   2.550   2.278
    1MOL     C5    5   2.594   2.344   2.361
    1MOL     C6    6   2.120   2.348   2.360
    1MOL     C7    7   2.358   2.491   2.302
    1MOL     C8    8   2.357   2.362   2.354
    1MOL     C9    9   2.469   2.289   2.384
    1MOL    C10   10   2.244   2.290   2.383
    1MOL    C11   11   2.433   2.154   2.438
    1MOL    C12   12   2.278   2.155   2.438
    1MOL     H1   13   2.699   2.519   2.290
    1MOL     H2   14   2.018   2.524   2.289
    1MOL     H3   15   2.494   2.648   2.238
    1MOL     H4   16   2.225   2.650   2.237
    1MOL     H5   17   2.685   2.289   2.383
    1MOL     H6   18   2.029   2.294   2.382
    1MOL     H7   19   2.472   2.074   2.374
    1MOL     H8   20   2.472   2.141   2.540
    1MOL     H9   21   2.239   2.143   2.540
    1MOL    H10   22   2.239   2.075   2.374
    2SOL     OW   23   0.230   0.628   0.113
    2SOL    HW1   24   0.137   0.626   0.150
    2SOL    HW2   25   0.231   0.589   0.021
    3SOL     OW   26   0.225   0.275   0.996
    3SOL    HW1   27   0.260   0.258   1.088
    3SOL    HW2   28   0.137   0.230   0.984
    4SOL     OW   29   0.019   0.368   0.647
    4SOL    HW1   30  -0.063   0.411   0.686
    4SOL    HW2   31  -0.009   0.295   0.584
    5SOL     OW   32   0.569   1.275   1.165
    5SOL    HW1   33   0.476   1.268   1.128
    5SOL    HW2   34   0.580   1.364   1.209
    6SOL     OW   35   1.555   1.511   0.703
    6SOL    HW1   36   1.498   1.495   0.784
    6SOL    HW2   37   1.496   1.521   0.623
    7SOL     OW   38   1.135   0.703   0.717
    7SOL    HW1   39   1.192   0.781   0.692
    7SOL    HW2   40   1.075   0.729   0.793
    8SOL     OW   41   1.755   0.607   0.231
    8SOL    HW1   42   1.743   0.594   0.132
    8SOL    HW2   43   1.725   0.526   0.280
    9SOL     OW   44   0.768   1.144   1.023
    9SOL    HW1   45   0.690   1.161   1.083
    9SOL    HW2   46   0.802   1.231   0.987
   10SOL     OW   47   0.850   0.798   1.823
   10SOL    HW1   48   0.846   0.874   1.888
   10SOL    HW2   49   0.872   0.834   1.732
   11SOL     OW   50   0.685   1.012   0.665
   11SOL    HW1   51   0.754   0.996   0.735
   11SOL    HW2   52   0.612   1.069   0.703
   12SOL     OW   53   0.686   1.161   1.803
   12SOL    HW1   54   0.746   1.240   1.817
   12SOL    HW2   55   0.600   1.192   1.762
   13SOL     OW   56   0.335   1.435   1.061
   13SOL    HW1   57   0.257   1.404   1.008
   13SOL    HW2   58   0.393   1.493   1.004
   14SOL     OW   59   1.460   1.505   1.339
   14SOL    HW1   60   1.484   1.599   1.365
   14SOL    HW2   61   1.444   1.451   1.421
   15SOL     OW   62   0.438   0.392   1.499
   15SOL    HW1   63   0.520   0.336   1.508
   15SOL    HW2   64   0.357   0.334   1.503
   16SOL     OW   65   1.603   0.447   0.737
   16SOL    HW1   66   1.529   0.493   0.687
   16SOL    HW2   67   1.654   0.515   0.790
   17SOL     OW   68   0.231   1.713   0.483
   17SOL    HW1   69   0.265   1.790   0.537
   17SOL    HW2   70   0.275   1.713   0.393
   18SOL     OW   71   1.127   1.341   1.690
   18SOL    HW1   72   1.174   1.341   1.778
   18SOL    HW2   73   1.079   1.254   1.679
   19SOL     OW   74   0.230   1.434   0.538
   19SOL    HW1   75   0.204   1.530   0.538
   19SOL    HW2   76   0.159   1.380   0.583
   20SOL     OW   77   0.240   1.091   0.886
   20SOL    HW1   78   0.254   1.007   0.938
   20SOL    HW2   79   0.185   1.155   0.941
   21SOL     OW   80   0.620   1.786   1.439
   21SOL    HW1   81   0.528   1.769   1.474
   21SOL    HW2   82   0.648   1.878   1.465
   22SOL     OW   83   0.606   0.964   0.123
   22SOL    HW1   84   0.613   1.048   0.069
   22SOL    HW2   85   0.652   0.977   0.211
   23SOL     OW   86   1.594   0.114   1.480
   23SOL    HW1   87   1.576   0.181   1.408
   23SOL    HW2   88   1.591   0.160   1.569
   24SOL     OW   89   0.122   0.643   0.563
   24SOL    HW1   90   0.077   0.555   0.580
   24SOL    HW2   91   0.121   0.697   0.647
   25SOL     OW   92   1.842   1.767   0.359
   25SOL    HW1   93   1.896   1.738   0.439
   25SOL    HW2   94   1.872   1.857   0.330
   26SOL     OW   95   0.027   1.596   0.117
   26SOL    HW1   96   0.008   1.500   0.138
   26SOL    HW2   97  -0.006   1.654   0.192
   27SOL     OW   98   1.689   0.922   0.612
   27SOL    HW1   99   1.784   0.893   0.620
   27SOL    HW2  100   1.681   0.987   0.537
   28SOL     OW  101   1.641   1.108   0.432
   28SOL    HW1  102   1.727   1.110   0.380
   28SOL    HW2  103   1.655   1.155   0.520
   29SOL     OW  104   0.113   0.737   1.597
   29SOL    HW1  105   0.201   0.724   1.642
   29SOL    HW2  106   0.100   0.834   1.575
   30SOL     OW  107   0.613   1.365   0.726
   30SOL    HW1  108   0.564   1.278   0.735
   30SOL    HW2  109   0.590   1.408   0.639
   31SOL     OW  110   1.293   1.228   1.423
   31SOL    HW1  111   1.330   1.155   1.365
   31SOL    HW2  112   1.345   1.233   1.508
   32SOL     OW  113   0.809   0.004   0.502
   32SOL    HW1  114   0.849   0.095   0.493
   32SOL    HW2  115   0.709   0.012   0.508
   33SOL     OW  116   0.197   0.976   1.264
   33SOL    HW1  117   0.286   0.931   1.250
   33SOL    HW2  118   0.124   0.911   1.245
   34SOL     OW  119   1.525   0.999   0.190
   34SOL    HW1  120   1.462   0.923   0.203
   34SOL    HW2  121   1.573   1.017   0.276
   35SOL     OW  122   1.187   1.792   1.616
   35SOL    HW1  123   1.211   1.852   1.540
   35SOL    HW2  124   1.194   1.697   1.586
   36SOL     OW  125   0.317   0.251   1.801
   36SOL    HW1  126   0.388   0.322   1.807
   36SOL    HW2  127   0.229   0.290   1.829
   37SOL     OW  128   1.466   1.417   0.953
   37SOL    HW1  129   1.407   1.423   1.033
   37SOL    HW2  130   1.451   1.329   0.907
   38SOL     OW  131   1.667   1.714   0.572
   38SOL    HW1  132   1.626   1.691   0.484
   38SOL    HW2  133   1.649   1.640   0.637
   39SOL     OW  134   0.598   0.729   0.270
   39SOL    HW1  135   0.622   0.798   0.202
   39SOL    HW2  136   0.520   0.762   0.324
   40SOL     OW  137   1.281   0.345   0.944
   40SOL    HW1  138   1.195   0.295   0.931
   40SOL    HW2  139   1.343   0.291   1.000
   41SOL     OW  140   1.576   1.662   0.307
   41SOL    HW1  141   1.665   1.708   0.310
   41SOL    HW2  142   1.555   1.638   0.212
   42SOL     OW  143   0.807   0.605   1.465
   42SOL    HW1  144   0.760   0.602   1.554
   42SOL    HW2  145   0.756   0.550   1.399
   43SOL     OW  146   1.394   0.469   1.674
   43SOL    HW1  147   1.374   0.512   1.762
   43SOL    HW2  148   1.472   0.407   1.683
   44SOL     OW  149   0.973   0.890   1.572
   44SOL    HW1  150   1.019   0.806   1.543
   44SOL    HW2  151   0.917   0.924   1.497
   45SOL     OW  152   0.991   0.410   1.242
   45SOL    HW1  153   0.914   0.444   1.296
   45SOL    HW2  154   0.957   0.359   1.163
   46SOL     OW  155   1.041   0.701   0.429
   46SOL    HW1  156   1.067   0.697   0.525
   46SOL    HW2  157   0.956   0.650   0.415
   47SOL     OW  158   0.076   0.811   0.789
   47SOL    HW1  159   0.175   0.799   0.798
   47SOL    HW2  160   0.052   0.906   0.810
   48SOL     OW  161   0.130   1.821   1.571
   48SOL    HW1  162   0.120   1.806   1.670
   48SOL    HW2  163   0.044   1.857   1.535
   49SOL     OW  164   0.865   0.348   0.195
   49SOL    HW1  165   0.924   0.411   0.146
   49SOL    HW2  166   0.884   0.254   0.166
   50SOL     OW  167   1.719   0.585   1.831
   50SOL    HW1  168   1.693   0.674   1.795
   50SOL    HW2  169   1.717   0.517   1.758
   51SOL     OW  170   1.362   1.144   0.545
   51SOL    HW1  171   1.445   1.115   0.497
   51SOL    HW2  172   1.313   1.211   0.489
   52SOL     OW  173   0.550   0.196   0.885
   52SOL    HW1  174   0.545   0.191   0.985
   52SOL    HW2  175   0.552   0.292   0.856
   53SOL     OW  176   1.008   1.456   0.477
   53SOL    HW1  177   0.962   1.528   0.425
   53SOL    HW2  178   1.004   1.476   0.575
   54SOL     OW  179   0.351   1.801   0.853
   54SOL    HW1  180   0.401   1.715   0.859
   54SOL    HW2  181   0.416   1.878   0.850
   55SOL     OW  182   1.795   1.066   0.873
   55SOL    HW1  183   1.733   1.051   0.797
   55SOL    HW2  184   1.743   1.077   0.958
   56SOL     OW  185   1.227   1.550   1.506
   56SOL    HW1  186   1.233   1.473   1.570
   56SOL    HW2  187   1.175   1.524   1.426
   57SOL     OW  188   0.321   0.943   0.242
   57SOL    HW1  189   0.403   0.982   0.200
   57SOL    HW2  190   0.294   0.861   0.193
   58SOL     OW  191   1.458   0.735   0.728
   58SOL    HW1  192   1.453   0.670   0.803
   58SOL    HW2  193   1.538   0.794   0.741
   59SOL     OW  194   0.461   1.266   1.727
   59SOL    HW1  195   0.411   1.267   1.641
   59SOL    HW2  196   0.398   1.248   1.803
   60SOL     OW  197   1.111   1.776   0.237
   60SOL    HW1  198   1.051   1.714   0.287
   60SOL    HW2  199   1.142   1.732   0.152
   61SOL     OW  200   0.202   0.285   1.498
   61SOL    HW1  201   0.122   0.345   1.485
   61SOL    HW2  202   0.192   0.236   1.584
   62SOL     OW  203   1.632   1.377   0.081
   62SOL    HW1  204   1.600   1.471   0.071
   62SOL    HW2  205   1.556   1.314   0.069
   63SOL     OW  206   0.464   1.743   0.323
   63SOL    HW1  207   0.497   1.782   0.409
   63SOL    HW2  208   0.540   1.736   0.258
   64SOL     OW  209   1.400   0.107   0.426
   64SOL    HW1  210   1.376   0.070   0.336
   64SOL    HW2  211   1.499   0.123   0.430
   65SOL     OW  212   0.249   1.785   1.241
   65SOL    HW1  213   0.306   1.720   1.291
   65SOL    HW2  214   0.233   1.752   1.148
   66SOL     OW  215   0.940   1.698   0.904
   66SOL    HW1  216   1.020   1.641   0.925
   66SOL    HW2  217   0.891   1.658   0.827
   67SOL     OW  218   0.382   0.700   0.480
   67SOL    HW1  219   0.427   0.610   0.477
   67SOL    HW2  220   0.288   0.689   0.513
   68SOL     OW  221   1.547   0.222   1.729
   68SOL    HW1  222   1.542   0.259   1.821
   68SOL    HW2  223   1.475   0.153   1.717
   69SOL     OW  224   0.614   0.122   0.117
   69SOL    HW1  225   0.712   0.100   0.124
   69SOL    HW2  226   0.583   0.105   0.024
   70SOL     OW  227   0.781   0.264   1.749
   70SOL    HW1  228   0.848   0.203   1.792
   70SOL    HW2  229   0.708   0.283   1.814
   71SOL     OW  230   0.888   1.514   1.195
   71SOL    HW1  231   0.865   1.489   1.101
   71SOL    HW2  232   0.949   1.445   1.234
   72SOL     OW  233   1.351   0.590   1.433
   72SOL    HW1  234   1.379   0.547   1.518
   72SOL    HW2  235   1.376   0.686   1.434
   73SOL     OW  236   0.803   1.402   0.924
   73SOL    HW1  237   0.893   1.416   0.882
   73SOL    HW2  238   0.732   1.404   0.853
   74SOL     OW  239   0.922   0.503   0.899
   74SOL    HW1  240   0.897   0.494   0.803
   74SOL    HW2  241   0.970   0.421   0.930
   75SOL     OW  242   0.539   0.064   0.512
   75SOL    HW1  243   0.458   0.065   0.570
   75SOL    HW2  244   0.542   0.147   0.457
   76SOL     OW  245   1.434   1.188   0.041
   76SOL    HW1  246   1.466   1.112   0.098
   76SOL    HW2  247   1.342   1.215   0.071
   77SOL     OW  248   0.297   0.035   0.171
   77SOL    HW1  249   0.346   0.119   0.150
   77SOL    HW2  250   0.359  -0.030   0.216
   78SOL     OW  251   0.935   0.236   0.480
   78SOL    HW1  252   0.887   0.277   0.402
   78SOL    HW2  253   1.034   0.234   0.461
   79SOL     OW  254   1.076   0.683   1.464
   79SOL    HW1  255   0.996   0.622   1.467
   79SOL    HW2  256   1.157   0.630   1.440
   80SOL     OW  257   1.227   1.570   0.793
   80SOL    HW1  258   1.248   1.644   0.728
   80SOL    HW2  259   1.295   1.570   0.866
   81SOL     OW  260   0.459   1.152   0.741
   81SOL    HW1  261   0.388   1.125   0.806
   81SOL    HW2  262   0.433   1.124   0.648
   82SOL     OW  263   1.271   1.797   0.591
   82SOL    HW1  264   1.315   1.861   0.527
   82SOL    HW2  265   1.221   1.849   0.661
   83SOL     OW  266   1.032   0.549   0.016
   83SOL    HW1  267   0.991   0.631  -0.023
   83SOL    HW2  268   1.096   0.575   0.089
   84SOL     OW  269   0.078   0.556   1.386
   84SOL    HW1  270   0.170   0.555   1.345
   84SOL    HW2  271   0.072   0.630   1.453
   85SOL     OW  272   0.561   0.222   1.147
   85SOL    HW1  273   0.599   0.138   1.184
   85SOL    HW2  274   0.473   0.241   1.191
   86SOL     OW  275   0.866   0.454   0.642
   86SOL    HW1  276   0.834   0.526   0.580
   86SOL    HW2  277   0.890   0.373   0.589
   87SOL     OW  278   1.017   0.039   0.753
   87SOL    HW1  279   0.945   0.044   0.684
   87SOL    HW2  280   0.993  -0.030   0.822
   88SOL     OW  281   1.429   1.173   0.867
   88SOL    HW1  282   1.374   1.089   0.860
   88SOL    HW2  283   1.455   1.202   0.775
   89SOL     OW  284   1.466   0.590   0.992
   89SOL    HW1  285   1.436   0.495   0.999
   89SOL    HW2  286   1.539   0.606   1.058
   90SOL     OW  287   1.857   0.833   0.377
   90SOL    HW1  288   1.899   0.769   0.441
   90SOL    HW2  289   1.819   0.782   0.299
   91SOL     OW  290   0.488   1.385   0.174
   91SOL    HW1  291   0.401   1.370   0.221
   91SOL    HW2  292   0.471   1.411   0.079
   92SOL     OW  293   1.664   1.280   0.657
   92SOL    HW1  294   1.763   1.288   0.671
   92SOL    HW2  295   1.619   1.364   0.688
   93SOL     OW  296   1.390   0.575   0.078
   93SOL    HW1  297   1.336   0.554   0.159
   93SOL    HW2  298   1.481   0.534   0.087
   94SOL     OW  299   0.527   0.256   0.328
   94SOL    HW1  300   0.554   0.197   0.253
   94SOL    HW2  301   0.527   0.351   0.297
   95SOL     OW  302   1.754   1.223   1.588
   95SOL    HW1  303   1.845   1.184   1.575
   95SOL    HW2  304   1.762   1.319   1.612
   96SOL     OW  305   1.064   1.347   1.340
   96SOL    HW1  306   0.984   1.324   1.395
   96SOL    HW2  307   1.147   1.321   1.389
   97SOL     OW  308   1.592   1.629   1.625
   97SOL    HW1  309   1.619   1.663   1.535
   97SOL    HW2  310   1.671   1.591   1.671
   98SOL     OW  311   1.111   1.195   1.100
   98SOL    HW1  312   1.071   1.239   1.181
   98SOL    HW2  313   1.070   1.232   1.017
   99SOL     OW  314   1.638   1.099   1.079
   99SOL    HW1  315   1.643   1.180   1.138
   99SOL    HW2  316   1.552   1.101   1.028
  100SOL     OW  317   0.915   0.089   1.402
  100SOL    HW1  318   0.940   0.069   1.307
  100SOL    HW2  319   0.987   0.145   1.444
  101SOL     OW  320   0.980   1.116   1.719
  101SOL    HW1  321   0.881   1.122   1.729
  101SOL    HW2  322   1.003   1.036   1.663
  102SOL     OW  323   0.705   1.050   0.368
  102SOL    HW1  324   0.691   1.057   0.467
  102SOL    HW2  325   0.789   0.999   0.350
  103SOL     OW  326   0.410   0.813   1.251
  103SOL    HW1  327   0.496   0.825   1.301
  103SOL    HW2  328   0.368   0.726   1.278
  104SOL     OW  329   1.274   0.386   1.262
  104SOL    HW1  330   1.295   0.460   1.326
  104SOL    HW2  331   1.185   0.403   1.219
  105SOL     OW  332   0.064   1.564   1.331
  105SOL    HW1  333   0.018   1.646   1.297
  105SOL    HW2  334   0.162   1.583   1.340
  106SOL     OW  335   0.367   1.100   0.501
  106SOL    HW1  336   0.360   1.183   0.445
  106SOL    HW2  337   0.371   1.020   0.441
  107SOL     OW  338   0.566   0.537   0.865
  107SOL    HW1  339   0.578   0.603   0.791
  107SOL    HW2  340   0.612   0.571   0.948
  108SOL     OW  341   1.252   1.348   0.388
  108SOL    HW1  342   1.302   1.425   0.428
  108SOL    HW2  343   1.157   1.350   0.420
  109SOL     OW  344   1.272   1.445   1.142
  109SOL    HW1  345   1.319   1.458   1.229
  109SOL    HW2  346   1.206   1.371   1.151
  110SOL     OW  347   1.582   0.639   0.472
  110SOL    HW1  348   1.551   0.700   0.545
  110SOL    HW2  349   1.632   0.691   0.403
  111SOL     OW  350   0.354   1.510   1.329
  111SOL    HW1  351   0.333   1.466   1.242
  111SOL    HW2  352   0.451   1.536   1.332
  112SOL     OW  353   0.402   0.751   1.598
  112SOL    HW1  354   0.470   0.806   1.551
  112SOL    HW2  355   0.442   0.663   1.625
  113SOL     OW  356   1.587   0.779   1.670
  113SOL    HW1  357   1.495   0.817   1.665
  113SOL    HW2  358   1.647   0.826   1.605
  114SOL     OW  359   1.013   0.105   1.770
  114SOL    HW1  360   1.019   0.190   1.718
  114SOL    HW2  361   1.045   0.029   1.713
  115SOL     OW  362   0.504   0.050   1.740
  115SOL    HW1  363   0.462  -0.007   1.670
  115SOL    HW2  364   0.438   0.119   1.772
  116SOL     OW  365   0.573   0.870   1.029
  116SOL    HW1  366   0.617   0.959   1.020
  116SOL    HW2  367   0.510   0.870   1.106
  117SOL     OW  368   1.360   0.862   1.045
  117SOL    HW1  369   1.285   0.862   0.979
  117SOL    HW2  370   1.397   0.770   1.054
  118SOL     OW  371   1.209   0.525   0.275
  118SOL    HW1  372   1.222   0.441   0.329
  118SOL    HW2  373   1.180   0.599   0.335
  119SOL     OW  374   0.307   0.213   1.231
  119SOL    HW1  375   0.284   0.250   1.321
  119SOL    HW2  376   0.277   0.118   1.225
  120SOL     OW  377   0.037   1.310   1.282
  120SOL    HW1  378   0.090   1.261   1.350
  120SOL    HW2  379   0.059   1.408   1.287
  121SOL     OW  380   0.732   0.634   1.064
  121SOL    HW1  381   0.791   0.608   0.988
  121SOL    HW2  382   0.704   0.730   1.053
  122SOL     OW  383   1.728   0.935   1.854
  122SOL    HW1  384   1.682   0.928   1.765
  122SOL    HW2  385   1.666   0.979   1.920
  123SOL     OW  386   0.307   0.063   0.618
  123SOL    HW1  387   0.296   0.157   0.651
  123SOL    HW2  388   0.302   0.000   0.695
  124SOL     OW  389   1.622   0.367   0.374
  124SOL    HW1  390   1.624   0.291   0.438
  124SOL    HW2  391   1.574   0.444   0.414
  125SOL     OW  392   1.023   0.766   0.966
  125SOL    HW1  393   1.038   0.787   1.062
  125SOL    HW2  394   0.993   0.671   0.957
  126SOL     OW  395   0.980   1.573   1.700
  126SOL    HW1  396   0.960   1.617   1.612
  126SOL    HW2  397   1.019   1.482   1.684
  127SOL     OW  398   1.859   1.518   1.605
  127SOL    HW1  399   1.873   1.545   1.510
  127SOL    HW2  400   1.942   1.540   1.658
  128SOL     OW  401   0.350   0.898   1.804
  128SOL    HW1  402   0.426   0.942   1.852
  128SOL    HW2  403   0.385   0.851   1.722
  129SOL     OW  404   1.540   0.274   0.125
  129SOL    HW1  405   1.479   0.199   0.148
  129SOL    HW2  406   1.562   0.326   0.208
  130SOL     OW  407   1.303   0.838   0.042
  130SOL    HW1  408   1.337   0.745   0.057
  130SOL    HW2  409   1.321   0.865  -0.053
  131SOL     OW  410   1.068   1.333   0.849
  131SOL    HW1  411   1.075   1.249   0.794
  131SOL    HW2  412   1.130   1.402   0.813
  132SOL     OW  413   0.319   0.810   0.949
  132SOL    HW1  414   0.412   0.846   0.954
  132SOL    HW2  415   0.313   0.725   1.001
  133SOL     OW  416   0.339   0.509   1.006
  133SOL    HW1  417   0.287   0.426   0.989
  133SOL    HW2  418   0.416   0.514   0.942
  134SOL     OW  419   1.138   0.380   1.678
  134SOL    HW1  420   1.093   0.443   1.742
  134SOL    HW2  421   1.231   0.411   1.661
  135SOL     OW  422   1.160   0.207   1.477
  135SOL    HW1  423   1.160   0.271   1.554
  135SOL    HW2  424   1.188   0.255   1.394
  136SOL     OW  425   0.008   1.326   0.200
  136SOL    HW1  426  -0.085   1.347   0.169
  136SOL    HW2  427   0.018   1.227   0.213
  137SOL     OW  428   0.088   1.801   0.927
  137SOL    HW1  429   0.046   1.715   0.900
  137SOL    HW2  430   0.182   1.804   0.893
  138SOL     OW  431   0.504   1.568   0.910
  138SOL    HW1  432   0.570   1.642   0.919
  138SOL    HW2  433   0.548   1.489   0.868
  139SOL     OW  434   1.002   0.796   1.238
  139SOL    HW1  435   1.043   0.764   1.324
  139SOL    HW2  436   0.906   0.769   1.235
  140SOL     OW  437   0.040   0.544   1.114
  140SOL    HW1  438   0.125   0.511   1.073
  140SOL    HW2  439   0.053   0.559   1.212
  141SOL     OW  440   0.189   0.520   1.722
  141SOL    HW1  441   0.248   0.480   1.652
  141SOL    HW2  442   0.131   0.591   1.681
  142SOL     OW  443   1.369   0.950   1.660
  142SOL    HW1  444   1.408   1.039   1.680
  142SOL    HW2  445   1.379   0.930   1.563
  143SOL     OW  446   0.815   0.572   0.325
  143SOL    HW1  447   0.822   0.483   0.279
  143SOL    HW2  448   0.721   0.606   0.317
  144SOL     OW  449   1.657   0.604   1.206
  144SOL    HW1  450   1.619   0.535   1.268
  144SOL    HW2  451   1.739   0.568   1.162
  145SOL     OW  452   0.252   1.564   1.744
  145SOL    HW1  453   0.222   1.621   1.820
  145SOL    HW2  454   0.245   1.467   1.770
  146SOL     OW  455   0.671   0.464   1.269
  146SOL    HW1  456   0.637   0.375   1.239
  146SOL    HW2  457   0.697   0.518   1.189
  147SOL     OW  458   0.930   1.678   1.465
  147SOL    HW1  459   0.906   1.660   1.370
  147SOL    HW2  460   0.960   1.772   1.475
  148SOL     OW  461   0.473   0.500   0.191
  148SOL    HW1  462   0.534   0.580   0.195
  148SOL    HW2  463   0.378   0.531   0.198
  149SOL     OW  464   0.159   1.137   1.466
  149SOL    HW1  465   0.181   1.076   1.542
  149SOL    HW2  466   0.169   1.088   1.380
  150SOL     OW  467   1.347   1.059   1.234
  150SOL    HW1  468   1.371   0.996   1.160
  150SOL    HW2  469   1.257   1.099   1.216
  151SOL     OW  470   1.302   0.855   0.309
  151SOL    HW1  471   1.216   0.824   0.351
  151SOL    HW2  472   1.298   0.841   0.210
  152SOL     OW  473   1.759   1.747   1.154
  152SOL    HW1  474   1.820   1.777   1.081
  152SOL    HW2  475   1.721   1.658   1.132
  153SOL     OW  476   1.252   1.731   1.128
  153SOL    HW1  477   1.336   1.736   1.074
  153SOL    HW2  478   1.229   1.635   1.146
  154SOL     OW  479   0.083   1.258   1.022
  154SOL    HW1  480   0.078   1.257   1.122
  154SOL    HW2  481   0.000   1.217   0.984
  155SOL     OW  482   0.688   1.662   1.716
  155SOL    HW1  483   0.632   1.743   1.725
  155SOL    HW2  484   0.740   1.666   1.630
  156SOL     OW  485   0.903   0.086   0.133
  156SOL    HW1  486   0.954   0.087   0.047
  156SOL    HW2  487   0.959   0.044   0.204
  157SOL     OW  488   1.726   0.135   0.523
  157SOL    HW1  489   1.799   0.118   0.456
  157SOL    HW2  490   1.695   0.048   0.561
  158SOL     OW  491   1.388   1.573   0.477
  158SOL    HW1  492   1.455   1.585   0.403
  158SOL    HW2  493   1.348   1.662   0.500
  159SOL     OW  494   0.130   1.794   1.851
  159SOL    HW1  495   0.089   1.720   1.904
  159SOL    HW2  496   0.194   1.845   1.909
  160SOL     OW  497   1.280   0.927   0.672
  160SOL    HW1  498   1.340   0.846   0.674
  160SOL    HW2  499   1.320   0.996   0.612
  161SOL     OW  500   0.830   1.273   1.422
  161SOL    HW1  501   0.825   1.306   1.517
  161SOL    HW2  502   0.744   1.292   1.376
  162SOL     OW  503   0.672   1.616   0.154
  162SOL    HW1  504   0.681   1.626   0.055
  162SOL    HW2  505   0.632   1.527   0.175
  163SOL     OW  506   1.650   1.720   1.394
  163SOL    HW1  507   1.703   1.730   1.310
  163SOL    HW2  508   1.623   1.810   1.428
  164SOL     OW  509   1.841   0.175   0.963
  164SOL    HW1  510   1.880   0.090   0.927
  164SOL    HW2  511   1.743   0.177   0.944
  165SOL     OW  512   0.263   0.326   0.720
  165SOL    HW1  513   0.184   0.377   0.686
  165SOL    HW2  514   0.254   0.311   0.818
  166SOL     OW  515   1.194   1.612   0.031
  166SOL    HW1  516   1.200   1.519   0.068
  166SOL    HW2  517   1.135   1.612  -0.049
  167SOL     OW  518   0.822   1.002   1.372
  167SOL    HW1  519   0.862   1.001   1.280
  167SOL    HW2  520   0.832   1.094   1.412
  168SOL     OW  521   0.916   0.910   0.291
  168SOL    HW1  522   0.979   0.948   0.223
  168SOL    HW2  523   0.956   0.827   0.330
  169SOL     OW  524   1.504   1.607   0.044
  169SOL    HW1  525   1.412   1.644   0.051
  169SOL    HW2  526   1.542   1.627  -0.046
  170SOL     OW  527   0.372   1.288   1.490
  170SOL    HW1  528   0.359   1.381   1.456
  170SOL    HW2  529   0.288   1.236   1.477
  171SOL     OW  530   1.614   1.292   1.289
  171SOL    HW1  531   1.674   1.295   1.369
  171SOL    HW2  532   1.539   1.356   1.302
  172SOL     OW  533   1.039   1.098   0.696
  172SOL    HW1  534   0.969   1.051   0.750
  172SOL    HW2  535   1.098   1.030   0.653
  173SOL     OW  536   1.014   0.236   0.971
  173SOL    HW1  537   1.006   0.200   0.878
  173SOL    HW2  538   1.012   0.160   1.036
  174SOL     OW  539   0.590   1.487   0.491
  174SOL    HW1  540   0.632   1.429   0.421
  174SOL    HW2  541   0.546   1.566   0.447
  175SOL     OW  542   1.709   0.385   1.381
  175SOL    HW1  543   1.782   0.454   1.385
  175SOL    HW2  544   1.737   0.310   1.322
  176SOL     OW  545   0.255   1.348   0.290
  176SOL    HW1  546   0.159   1.349   0.263
  176SOL    HW2  547   0.267   1.401   0.374
  177SOL     OW  548   0.105   1.013   1.726
  177SOL    HW1  549   0.028   0.980   1.780
  177SOL    HW2  550   0.190   0.983   1.768
  178SOL     OW  551   0.672   0.203   1.489
  178SOL    HW1  552   0.762   0.187   1.449
  178SOL    HW2  553   0.680   0.208   1.588
  179SOL     OW  554   0.075   0.345   0.033
  179SOL    HW1  555  -0.017   0.317   0.004
  179SOL    HW2  556   0.106   0.422  -0.023
  180SOL     OW  557   1.440   0.856   1.398
  180SOL    HW1  558   1.383   0.908   1.335
  180SOL    HW2  559   1.536   0.868   1.374
  181SOL     OW  560   0.072   0.166   0.318
  181SOL    HW1  561   0.055   0.249   0.264
  181SOL    HW2  562   0.162   0.129   0.296
  182SOL     OW  563   1.183   1.335   0.119
  182SOL    HW1  564   1.084   1.324   0.121
  182SOL    HW2  565   1.217   1.350   0.212
  183SOL     OW  566   0.613   0.842   1.431
  183SOL    HW1  567   0.669   0.923   1.414
  183SOL    HW2  568   0.672   0.762   1.434
  184SOL     OW  569   1.493   1.767   0.959
  184SOL    HW1  570   1.526   1.831   0.890
  184SOL    HW2  571   1.559   1.761   1.034
  185SOL     OW  572   0.716   0.565   1.708
  185SOL    HW1  573   0.735   0.630   1.782
  185SOL    HW2  574   0.776   0.485   1.717
  186SOL     OW  575   1.450   1.220   1.633
  186SOL    HW1  576   1.441   1.210   1.732
  186SOL    HW2  577   1.546   1.213   1.607
  187SOL     OW  578   0.390   1.741   1.560
  187SOL    HW1  579   0.299   1.782   1.558
  187SOL    HW2  580   0.383   1.647   1.592
  188SOL     OW  581   1.674   0.883   1.254
  188SOL    HW1  582   1.647   0.794   1.217
  188SOL    HW2  583   1.675   0.951   1.181
  189SOL     OW  584   1.225   0.325   0.449
  189SOL    HW1  585   1.290   0.251   0.438
  189SOL    HW2  586   1.245   0.375   0.533
  190SOL     OW  587   0.594   0.745   0.652
  190SOL    HW1  588   0.644   0.830   0.633
  190SOL    HW2  589   0.506   0.747   0.604
  191SOL     OW  590   1.777   0.342   1.642
  191SOL    HW1  591   1.760   0.373   1.548
  191SOL    HW2  592   1.693   0.305   1.680
  192SOL     OW  593   1.730   0.934   1.517
  192SOL    HW1  594   1.768   1.025   1.532
  192SOL    HW2  595   1.722   0.917   1.418
  193SOL     OW  596   0.859   1.374   0.016
  193SOL    HW1  597   0.813   1.389   0.104
  193SOL    HW2  598   0.903   1.459  -0.014
  194SOL     OW  599   0.661   1.790   0.953
  194SOL    HW1  600   0.615   1.878   0.940
  194SOL    HW2  601   0.760   1.802   0.946
  195SOL     OW  602   0.859   0.956   0.861
  195SOL    HW1  603   0.913   0.887   0.909
  195SOL    HW2  604   0.827   1.025   0.927
  196SOL     OW  605   1.083   0.984   0.087
  196SOL    HW1  606   1.060   1.037   0.005
  196SOL    HW2  607   1.164   0.928   0.068
  197SOL     OW  608   1.861   1.569   0.851
  197SOL    HW1  609   1.790   1.557   0.781
  197SOL    HW2  610   1.862   1.490   0.911
  198SOL     OW  611   0.221   1.314   1.844
  198SOL    HW1  612   0.156   1.241   1.823
  198SOL    HW2  613   0.225   1.328   1.942
  199SOL     OW  614   0.079   1.240   0.653
  199SOL    HW1  615   0.078   1.193   0.741
  199SOL    HW2  616   0.161   1.212   0.602
  200SOL     OW  617   0.672   1.391   1.624
  200SOL    HW1  618   0.594   1.341   1.662
  200SOL    HW2  619   0.669   1.486   1.655
  201SOL     OW  620   1.824   0.192   1.227
  201SOL    HW1  621   1.820   0.102   1.271
  201SOL    HW2  622   1.827   0.181   1.128
  202SOL     OW  623   0.428   0.424   0.520
  202SOL    HW1  624   0.458   0.352   0.458
  202SOL    HW2  625   0.389   0.384   0.603
  203SOL     OW  626   1.705   1.487   1.104
  203SOL    HW1  627   1.612   1.462   1.077
  203SOL    HW2  628   1.731   1.437   1.186
  204SOL     OW  629   0.317   0.547   1.280
  204SOL    HW1  630   0.355   0.488   1.352
  204SOL    HW2  631   0.357   0.521   1.192
  205SOL     OW  632   0.812   1.586   0.687
  205SOL    HW1  633   0.844   1.596   0.593
  205SOL    HW2  634   0.733   1.524   0.689
  206SOL     OW  635   1.424   0.214   1.112
  206SOL    HW1  636   1.476   0.149   1.167
  206SOL    HW2  637   1.375   0.277   1.173
  207SOL     OW  638   1.001   0.034   1.154
  207SOL    HW1  639   0.938  -0.038   1.123
  207SOL    HW2  640   1.094  -0.002   1.154
  208SOL     OW  641   0.770   1.330   0.301
  208SOL    HW1  642   0.724   1.243   0.318
  208SOL    HW2  643   0.861   1.327   0.342
  209SOL     OW  644   0.618   1.567   1.284
  209SOL    HW1  645   0.613   1.649   1.341
  209SOL    HW2  646   0.707   1.564   1.239
  210SOL     OW  647   1.352   0.052   0.168
  210SOL    HW1  648   1.387   0.011   0.084
  210SOL    HW2  649   1.262   0.014   0.188
  211SOL     OW  650   1.300   0.453   0.691
  211SOL    HW1  651   1.241   0.533   0.695
  211SOL    HW2  652   1.315   0.418   0.784
  212SOL     OW  653   1.593   0.221   0.882
  212SOL    HW1  654   1.509   0.220   0.936
  212SOL    HW2  655   1.595   0.304   0.826
  213SOL     OW  656   0.039   1.077   0.300
  213SOL    HW1  657   0.138   1.066   0.291
  213SOL    HW2  658  -0.001   0.991   0.332
  214SOL     OW  659   0.875   1.646   0.337
  214SOL    HW1  660   0.798   1.611   0.283
  214SOL    HW2  661   0.843   1.717   0.399
  215SOL     OW  662   0.230   0.628   1.975
  215SOL    HW1  663   0.137   0.626   2.012
  215SOL    HW2  664   0.231   0.589   1.883
  216SOL     OW  665   0.225   0.275   2.858
  216SOL    HW1  666   0.260   0.258   2.950
  216SOL    HW2  667   0.137   0.230   2.846
  217SOL     OW  668   0.019   0.368   2.509
  217SOL    HW1  669  -0.063   0.411   2.548
  217SOL    HW2  670  -0.009   0.295   2.446
  218SOL     OW  671   0.569   1.275   3.027
  218SOL    HW1  672   0.476   1.268   2.990
  218SOL    HW2  673   0.580   1.364   3.071
  219SOL     OW  674   1.555   1.511   2.565
  219SOL    HW1  675   1.498   1.495   2.646
  219SOL    HW2  676   1.496   1.521   2.485
  220SOL     OW  677   1.135   0.703   2.579
  220SOL    HW1  678   1.192   0.781   2.554
  220SOL    HW2  679   1.075   0.729   2.655
  221SOL     OW  680   1.755   0.607   2.093
  221SOL    HW1  681   1.743   0.594   1.994
  221SOL    HW2  682   1.725   0.526   2.142
  222SOL     OW  683   0.768   1.144   2.885
  222SOL    HW1  684   0.690   1.161   2.945
  222SOL    HW2  685   0.802   1.231   2.849
  223SOL     OW  686   0.850   0.798   3.685
  223SOL    HW1  687   0.846   0.874   3.750
  223SOL    HW2  688   0.872   0.834   3.594
  224SOL     OW  689   0.685   1.012   2.527
  224SOL    HW1  690   0.754   0.996   2.597
  224SOL    HW2  691   0.612   1.069   2.565
  225SOL     OW  692   0.686   1.161   3.665
  225SOL    HW1  693   0.746   1.240   3.679
  225SOL    HW2  694   0.600   1.192   3.624
  226SOL     OW  695   0.335   1.435   2.923
  226SOL    HW1  696   0.257   1.404   2.870
  226SOL    HW2  697   0.393   1.493   2.866
  227SOL     OW  698   1.460   1.505   3.201
  227SOL    HW1  699   1.484   1.599   3.227
  227SOL    HW2  700   1.444   1.451   3.283
  228SOL     OW  701   0.438   0.392   3.361
  228SOL    HW1  702   0.520   0.336   3.370
  228SOL    HW2  703   0.357   0.334   3.365
  229SOL     OW  704   1.603   0.447   2.599
  229SOL    HW1  705   1.529   0.493   2.549
  229SOL    HW2  706   1.654   0.515   2.652
  230SOL     OW  707   0.231   1.713   2.345
  230SOL    HW1  708   0.265   1.790   2.399
  230SOL    HW2  709   0.275   1.713   2.255
  231SOL     OW  710   1.127   1.341   3.552
  231SOL    HW1  711   1.174   1.341   3.640
  231SOL    HW2  712   1.079   1.254   3.541
  232SOL     OW  713   0.230   1.434   2.400
  232SOL    HW1  714   0.204   1.530   2.400
  232SOL    HW2  715   0.159   1.380   2.445
  233SOL     OW  716   0.240   1.091   2.748
  233SOL    HW1  717   0.254   1.007   2.800
  233SOL    HW2  718   0.185   1.155   2.803
  234SOL     OW  719   0.620   1.786   3.301
  234SOL    HW1  720   0.528   1.769   3.336
  234SOL    HW2  721   0.648   1.878   3.327
  235SOL     OW  722   0.606   0.964   1.985
  235SOL    HW1  723   0.613   1.048   1.931
  235SOL    HW2  724   0.652   0.977   2.073
  236SOL     OW  725   1.594   0.114   3.342
  236SOL    HW1  726   1.576   0.181   3.270
  236SOL    HW2  727   1.591   0.160   3.431
  237SOL     OW  728   0.122   0.643   2.425
  237SOL    HW1  729   0.077   0.555   2.442
  237SOL    HW2  730   0.121   0.697   2.509
  238SOL     OW  731   1.842   1.767   2.221
  238SOL    HW1  732   1.896   1.738   2.301
  238SOL    HW2  733   1.872   1.857   2.192
  239SOL     OW  734   0.027   1.596   1.979
  239SOL    HW1  735   0.008   1.500   2.000
  239SOL    HW2  736  -0.006   1.654   2.054
  240SOL     OW  737   1.689   0.922   2.474
  240SOL    HW1  738   1.784   0.893   2.482
  240SOL    HW2  739   1.681   0.987   2.399
  241SOL     OW  740   1.641   1.108   2.294
  241SOL    HW1  741   1.727   1.110   2.242
  241SOL    HW2  742   1.655   1.155   2.382
  242SOL     OW  743   0.113   0.737   3.459
  242SOL    HW1  744   0.201   0.724   3.504
  242SOL    HW2  745   0.100   0.834   3.437
  243SOL     OW  746   0.613   1.365   2.588
  243SOL    HW1  747   0.564   1.278   2.597
  243SOL    HW2  748   0.590   1.408   2.501
  244SOL     OW  749   1.293   1.228   3.285
  244SOL    HW1  750   1.330   1.155   3.227
  244SOL    HW2  751   1.345   1.233   3.370
  245SOL     OW  752   0.809   0.004   2.364
  245SOL    HW1  753   0.849   0.095   2.355
  245SOL    HW2  754   0.709   0.012   2.370
  246SOL     OW  755   0.197   0.976   3.126
  246SOL    HW1  756   0.286   0.931   3.112
  246SOL    HW2  757   0.124   0.911   3.107
  247SOL     OW  758   1.525   0.999   2.052
  247SOL    HW1  759   1.462   0.923   2.065
  247SOL    HW2  760   1.573   1.017   2.138
  248SOL     OW  761   1.187   1.792   3.478
  248SOL    HW1  762   1.211   1.852   3.402
  248SOL    HW2  763   1.194   1.697   3.448
  249SOL     OW  764   0.317   0.251   3.663
  249SOL    HW1  765   0.388   0.322   3.669
  249SOL    HW2  766   0.229   0.290   3.691
  250SOL     OW  767   1.466   1.417   2.815
  250SOL    HW1  768   1.407   1.423   2.895
  250SOL    HW2  769   1.451   1.329   2.769
  251SOL     OW  770   1.667   1.714   2.434
  251SOL    HW1  771   1.626   1.691   2.346
  251SOL    HW2  772   1.649   1.640   2.499
  252SOL     OW  773   0.598   0.729   2.132
  252SOL    HW1  774   0.622   0.798   2.064
  252SOL    HW2  775   0.520   0.762   2.186
  253SOL     OW  776   1.281   0.345   2.806
  253SOL    HW1  777   1.195   0.295   2.793
  253SOL    HW2  778   1.343   0.291   2.862
  254SOL     OW  779   1.576   1.662   2.169
  254SOL    HW1  780   1.665   1.708   2.172
  254SOL    HW2  781   1.555   1.638   2.074
  255SOL     OW  782   0.807   0.605   3.327
  255SOL    HW1  783   0.760   0.602   3.416
  255SOL    HW2  784   0.756   0.550   3.261
  256SOL     OW  785   1.394   0.469   3.536
  256SOL    HW1  786   1.374   0.512   3.624
  256SOL    HW2  787   1.472   0.407   3.545
  257SOL     OW  788   0.973   0.890   3.434
  257SOL    HW1  789   1.019   0.806   3.405
  257SOL    HW2  790   0.917   0.924   3.359
  258SOL     OW  791   0.991   0.410   3.104
  258SOL    HW1  792   0.914   0.444   3.158
  258SOL    HW2  793   0.957   0.359   3.025
  259SOL     OW  794   1.041   0.701   2.291
  259SOL    HW1  795   1.067   0.697   2.387
  259SOL    HW2  796   0.956   0.650   2.277
  260SOL     OW  797   0.076   0.811   2.651
  260SOL    HW1  798   0.175   0.799   2.660
  260SOL    HW2  799   0.052   0.906   2.672
  261SOL     OW  800   0.130   1.821   3.433
  261SOL    HW1  801   0.120   1.806   3.532
  261SOL    HW2  802   0.044   1.857   3.397
  262SOL     OW  803   0.865   0.348   2.057
  262SOL    HW1  804   0.924   0.411   2.008
  262SOL    HW2  805   0.884   0.254   2.028
  263SOL     OW  806   1.719   0.585   3.693
  263SOL    HW1  807   1.693   0.674   3.657
  263SOL    HW2  808   1.717   0.517   3.620
  264SOL     OW  809   1.362   1.144   2.407
  264SOL    HW1  810   1.445   1.115   2.359
  264SOL    HW2  811   1.313   1.211   2.351
  265SOL     OW  812   0.550   0.196   2.747
  265SOL    HW1  813   0.545   0.191   2.847
  265SOL    HW2  814   0.552   0.292   2.718
  266SOL     OW  815   1.008   1.456   2.339
  266SOL    HW1  816   0.962   1.528   2.287
  266SOL    HW2  817   1.004   1.476   2.437
  267SOL     OW  818   0.351   1.801   2.715
  267SOL    HW1  819   0.401   1.715   2.721
  267SOL    HW2  820   0.416   1.878   2.712
  268SOL     OW  821   1.795   1.066   2.735
  268SOL    HW1  822   1.733   1.051   2.659
  268SOL    HW2  823   1.743   1.077   2.820
  269SOL     OW  824   1.227   1.550   3.368
  269SOL    HW1  825   1.233   1.473   3.432
  269SOL    HW2  826   1.175   1.524   3.288
  270SOL     OW  827   0.321   0.943   2.104
  270SOL    HW1  828   0.403   0.982   2.062
  270SOL    HW2  829   0.294   0.861   2.055
  271SOL     OW  830   1.458   0.735   2.590
  271SOL    HW1  831   1.453   0.670   2.665
  271SOL    HW2  832   1.538   0.794   2.603
  272SOL     OW  833   0.461   1.266   3.589
  272SOL    HW1  834   0.411   1.267   3.503
  272SOL    HW2  835   0.398   1.248   3.665
  273SOL     OW  836   1.111   1.776   2.099
  273SOL    HW1  837   1.051   1.714   2.149
  273SOL    HW2  838   1.142   1.732   2.014
  274SOL     OW  839   0.202   0.285   3.360
  274SOL    HW1  840   0.122   0.345   3.347
  274SOL    HW2  841   0.192   0.236   3.446
  275SOL     OW  842   1.632   1.377   1.943
  275SOL    HW1  843   1.600   1.471   1.933
  275SOL    HW2  844   1.556   1.314   1.931
  276SOL     OW  845   0.464   1.743   2.185
  276SOL    HW1  846   0.497   1.782   2.271
  276SOL    HW2  847   0.540   1.736   2.120
  277SOL     OW  848   1.400   0.107   2.288
  277SOL    HW1  849   1.376   0.070   2.198
  277SOL    HW2  850   1.499   0.123   2.292
  278SOL     OW  851   0.249   1.785   3.103
  278SOL    HW1  852   0.306   1.720   3.153
  278SOL    HW2  853   0.233   1.752   3.010
  279SOL     OW  854   0.940   1.698   2.766
  279SOL    HW1  855   1.020   1.641   2.787
  279SOL    HW2  856   0.891   1.658   2.689
  280SOL     OW  857   0.382   0.700   2.342
  280SOL    HW1  858   0.427   0.610   2.339
  280SOL    HW2  859   0.288   0.689   2.375
  281SOL     OW  860   1.547   0.222   3.591
  281SOL    HW1  861   1.542   0.259   3.683
  281SOL    HW2  862   1.475   0.153   3.579
  282SOL     OW  863   0.614   0.122   1.979
  282SOL    HW1  864   0.712   0.100   1.986
  282SOL    HW2  865   0.583   0.105   1.886
  283SOL     OW  866   0.781   0.264   3.611
  283SOL    HW1  867   0.848   0.203   3.654
  283SOL    HW2  868   0.708   0.283   3.676
  284SOL     OW  869   0.888   1.514   3.057
  284SOL    HW1  870   0.865   1.489   2.963
  284SOL    HW2  871   0.949   1.445   3.096
  285SOL     OW  872   1.351   0.590   3.295
  285SOL    HW1  873   1.379   0.547   3.380
  285SOL    HW2  874   1.376   0.686   3.296
  286SOL     OW  875   0.803   1.402   2.786
  286SOL    HW1  876   0.893   1.416   2.744
  286SOL    HW2  877   0.732   1.404   2.715
  287SOL     OW  878   0.922   0.503   2.761
  287SOL    HW1  879   0.897   0.494   2.665
  287SOL    HW2  880   0.970   0.421   2.792
  288SOL     OW  881   0.539   0.064   2.374
  288SOL    HW1  882   0.458   0.065   2.432
  288SOL    HW2  883   0.542   0.147   2.319
  289SOL     OW  884   1.434   1.188   1.903
  289SOL    HW1  885   1.466   1.112   1.960
  289SOL    HW2  886   1.342   1.215   1.933
  290SOL     OW  887   0.297   0.035   2.033
  290SOL    HW1  888   0.346   0.119   2.012
  290SOL    HW2  889   0.359  -0.030   2.078
  291SOL     OW  890   0.935   0.236   2.342
  291SOL    HW1  891   0.887   0.277   2.264
  291SOL    HW2  892   1.034   0.234   2.323
  292SOL     OW  893   1.076   0.683   3.326
  292SOL    HW1  894   0.996   0.622   3.329
  292SOL    HW2  895   1.157   0.630   3.302
  293SOL     OW  896   1.227   1.570   2.655
  293SOL    HW1  897   1.248   1.644   2.590
  293SOL    HW2  898   1.295   1.570   2.728
  294SOL     OW  899   0.459   1.152   2.603
  294SOL    HW1  900   0.388   1.125   2.668
  294SOL    HW2  901   0.433   1.124   2.510
  295SOL     OW  902   1.271   1.797   2.453
  295SOL    HW1  903   1.315   1.861   2.389
  295SOL    HW2  904   1.221   1.849   2.523
  296SOL     OW  905   1.032   0.549   1.878
  296SOL    HW1  906   0.991   0.631   1.839
  296SOL    HW2  907   1.096   0.575   1.951
  297SOL     OW  908   0.078   0.556   3.248
  297SOL    HW1  909   0.170   0.555   3.207
  297SOL    HW2  910   0.072   0.630   3.315
  298SOL     OW  911   0.561   0.222   3.009
  298SOL    HW1  912   0.599   0.138   3.046
  298SOL    HW2  913   0.473   0.241   3.053
  299SOL     OW  914   0.866   0.454   2.504
  299SOL    HW1  915   0.834   0.526   2.442
  299SOL    HW2  916   0.890   0.373   2.451
  300SOL     OW  917   1.017   0.039   2.615
  300SOL    HW1  918   0.945   0.044   2.546
  300SOL    HW2  919   0.993  -0.030   2.684
  301SOL     OW  920   1.429   1.173   2.729
  301SOL    HW1  921   1.374   1.089   2.722
  301SOL    HW2  922   1.455   1.202   2.637
  302SOL     OW  923   1.466   0.590   2.854
  302SOL    HW1  924   1.436   0.495   2.861
  302SOL    HW2  925   1.539   0.606   2.920
  303SOL     OW  926   1.857   0.833   2.239
  303SOL    HW1  927   1.899   0.769   2.303
  303SOL    HW2  928   1.819   0.782   2.161
  304SOL     OW  929   0.488   1.385   2.036
  304SOL    HW1  930   0.401   1.370   2.083
  304SOL    HW2  931   0.471   1.411   1.941
  305SOL     OW  932   1.664   1.280   2.519
  305SOL    HW1  933   1.763   1.288   2.533
  305SOL    HW2  934   1.619   1.364   2.550
  306SOL     OW  935   1.390   0.575   1.940
  306SOL    HW1  936   1.336   0.554   2.021
  306SOL    HW2  937   1.481   0.534   1.949
  307SOL     OW  938   0.527   0.256   2.190
  307SOL    HW1  939   0.554   0.197   2.115
  307SOL    HW2  940   0.527   0.351   2.159
  308SOL     OW  941   1.754   1.223   3.450
  308SOL    HW1  942   1.845   1.184   3.437
  308SOL    HW2  943   1.762   1.319   3.474
  309SOL     OW  944   1.064   1.347   3.202
  309SOL    HW1  945   0.984   1.324   3.257
  309SOL    HW2  946   1.147   1.321   3.251
  310SOL     OW  947   1.592   1.629   3.487
  310SOL    HW1  948   1.619   1.663   3.397
  310SOL    HW2  949   1.671   1.591   3.533
  311SOL     OW  950   1.111   1.195   2.962
  311SOL    HW1  951   1.071   1.239   3.043
  311SOL    HW2  952   1.070   1.232   2.879
  312SOL     OW  953   1.638   1.099   2.941
  312SOL    HW1  954   1.643   1.180   3.000
  312SOL    HW2  955   1.552   1.101   2.890
  313SOL     OW  956   0.915   0.089   3.264
  313SOL    HW1  957   0.940   0.069   3.169
  313SOL    HW2  958   0.987   0.145   3.306
  314SOL     OW  959   0.980   1.116   3.581
  314SOL    HW1  960   0.881   1.122   3.591
  314SOL    HW2  961   1.003   1.036   3.525
  315SOL     OW  962   0.705   1.050   2.230
  315SOL    HW1  963   0.691   1.057   2.329
  315SOL    HW2  964   0.789   0.999   2.212
  316SOL     OW  965   0.410   0.813   3.113
  316SOL    HW1  966   0.496   0.825   3.163
  316SOL    HW2  967   0.368   0.726   3.140
  317SOL     OW  968   1.274   0.386   3.124
  317SOL    HW1  969   1.295   0.460   3.188
  317SOL    HW2  970   1.185   0.403   3.081
  318SOL     OW  971   0.064   1.564   3.193
  318SOL    HW1  972   0.018   1.646   3.159
  318SOL    HW2  973   0.162   1.583   3.202
  319SOL     OW  974   0.367   1.100   2.363
  319SOL    HW1  975   0.360   1.183   2.307
  319SOL    HW2  976   0.371   1.020   2.303
  320SOL     OW  977   0.566   0.537   2.727
  320SOL    HW1  978   0.578   0.603   2.653
  320SOL    HW2  979   0.612   0.571   2.810
  321SOL     OW  980   1.252   1.348   2.250
  321SOL    HW1  981   1.302   1.425   2.290
  321SOL    HW2  982   1.157   1.350   2.282
  322SOL     OW  983   1.272   1.445   3.004
  322SOL    HW1  984   1.319   1.458   3.091
  322SOL    HW2  985   1.206   1.371   3.013
  323SOL     OW  986   1.582   0.639   2.334
  323SOL    HW1  987   1.551   0.700   2.407
  323SOL    HW2  988   1.632   0.691   2.265
  324SOL     OW  989   0.354   1.510   3.191
  324SOL    HW1  990   0.333   1.466   3.104
  324SOL    HW2  991   0.451   1.536   3.194
  325SOL     OW  992   0.402   0.751   3.460
  325SOL    HW1  993   0.470   0.806   3.413
  325SOL    HW2  994   0.442   0.663   3.487
  326SOL     OW  995   1.587   0.779   3.532
  326SOL    HW1  996   1.495   0.817   3.527
  326SOL    HW2  997   1.647   0.826   3.467
  327SOL     OW  998   1.013   0.105   3.632
  327SOL    HW1  999   1.019   0.190   3.580
  327SOL    HW2 1000   1.045   0.029   3.575
  328SOL     OW 1001   0.504   0.050   3.602
  328SOL    HW1 1002   0.462  -0.007   3.532
  328SOL    HW2 1003   0.438   0.119   3.634
  329SOL     OW 1004   0.573   0.870   2.891
  329SOL    HW1 1005   0.617   0.959   2.882
  329SOL    HW2 1006   0.510   0.870   2.968
  330SOL     OW 1007   1.360   0.862   2.907
  330SOL    HW1 1008   1.285   0.862   2.841
  330SOL    HW2 1009   1.397   0.770   2.916
  331SOL     OW 1010   1.209   0.525   2.137
  331SOL    HW1 1011   1.222   0.441   2.191
  331SOL    HW2 1012   1.180   0.599   2.197
  332SOL     OW 1013   0.307   0.213   3.093
  332SOL    HW1 1014   0.284   0.250   3.183
  332SOL    HW2 1015   0.277   0.118   3.087
  333SOL     OW 1016   0.037   1.310   3.144
  333SOL    HW1 1017   0.090   1.261   3.212
  333SOL    HW2 1018   0.059   1.408   3.149
  334SOL     OW 1019   0.732   0.634   2.926
  334SOL    HW1 1020   0.791   0.608   2.850
  334SOL    HW2 1021   0.704   0.730   2.915
  335SOL     OW 1022   1.728   0.935   3.716
  335SOL    HW1 1023   1.682   0.928   3.627
  335SOL    HW2 1024   1.666   0.979   3.782
  336SOL     OW 1025   0.307   0.063   2.480
  336SOL    HW1 1026   0.296   0.157   2.513
  336SOL    HW2 1027   0.302   0.000   2.557
  337SOL     OW 1028   1.622   0.367   2.236
  337SOL    HW1 1029   1.624   0.291   2.300
  337SOL    HW2 1030   1.574   0.444   2.276
  338SOL     OW 1031   1.023   0.766   2.828
  338SOL    HW1 1032   1.038   0.787   2.924
  338SOL    HW2 1033   0.993   0.671   2.819
  339SOL     OW 1034   0.980   1.573   3.562
  339SOL    HW1 1035   0.960   1.617   3.474
  339SOL    HW2 1036   1.019   1.482   3.546
  340SOL     OW 1037   1.859   1.518   3.467
  340SOL    HW1 1038   1.873   1.545   3.372
  340SOL    HW2 1039   1.942   1.540   3.520
  341SOL     OW 1040   0.350   0.898   3.666
  341SOL    HW1 1041   0.426   0.942   3.714
  341SOL    HW2 1042   0.385   0.851   3.584
  342SOL     OW 1043   1.540   0.274   1.987
  342SOL    HW1 1044   1.479   0.199   2.010
  342SOL    HW2 1045   1.562   0.326   2.070
  343SOL     OW 1046   1.303   0.838   1.904
  343SOL    HW1 1047   1.337   0.745   1.919
  343SOL    HW2 1048   1.321   0.865   1.809
  344SOL     OW 1049   1.068   1.333   2.711
  344SOL    HW1 1050   1.075   1.249   2.656
  344SOL    HW2 1051   1.130   1.402   2.675
  345SOL     OW 1052   0.319   0.810   2.811
  345SOL    HW1 1053   0.412   0.846   2.816
  345SOL    HW2 1054   0.313   0.725   2.863
  346SOL     OW 1055   0.339   0.509   2.868
  346SOL    HW1 1056   0.287   0.426   2.851
  346SOL    HW2 1057   0.416   0.514   2.804
  347SOL     OW 1058   1.138   0.380   3.540
  347SOL    HW1 1059   1.093   0.443   3.604
  347SOL    HW2 1060   1.231   0.411   3.523
  348SOL     OW 1061   1.160   0.207   3.339
  348SOL    HW1 1062   1.160   0.271   3.416
  348SOL    HW2 1063   1.188   0.255   3.256
  349SOL     OW 1064   0.008   1.326   2.062
  349SOL    HW1 1065  -0.085   1.347   2.031
  349SOL    HW2 1066   0.018   1.227   2.075
  350SOL     OW 1067   0.088   1.801   2.789
  350SOL    HW1 1068   0.046   1.715   2.762
  350SOL    HW2 1069   0.182   1.804   2.755
  351SOL     OW 1070   0.504   1.568   2.772
  351SOL    HW1 1071   0.570   1.642   2.781
  351SOL    HW2 1072   0.548   1.489   2.730
  352SOL     OW 1073   1.002   0.796   3.100
  352SOL    HW1 1074   1.043   0.764   3.186
  352SOL    HW2 1075   0.906   0.769   3.097
  353SOL     OW 1076   0.040   0.544   2.976
  353SOL    HW1 1077   0.125   0.511   2.935
  353SOL    HW2 1078   0.053   0.559   3.074
  354SOL     OW 1079   0.189   0.520   3.584
  354SOL    HW1 1080   0.248   0.480   3.514
  354SOL    HW2 1081   0.131   0.591   3.543
  355SOL     OW 1082   1.369   0.950   3.522
  355SOL    HW1 1083   1.408   1.039   3.542
  355SOL    HW2 1084   1.379   0.930   3.425
  356SOL     OW 1085   0.815   0.572   2.187
  356SOL    HW1 1086   0.822   0.483   2.141
  356SOL    HW2 1087   0.721   0.606   2.179
  357SOL     OW 1088   1.657   0.604   3.068
  357SOL    HW1 1089   1.619   0.535   3.130
  357SOL    HW2 1090   1.739   0.568   3.024
  358SOL     OW 1091   0.252   1.564   3.606
  358SOL    HW1 1092   0.222   1.621   3.682
  358SOL    HW2 1093   0.245   1.467   3.632
  359SOL     OW 1094   0.671   0.464   3.131
  359SOL    HW1 1095   0.637   0.375   3.101
  359SOL    HW2 1096   0.697   0.518   3.051
  360SOL     OW 1097   0.930   1.678   3.327
  360SOL    HW1 1098   0.906   1.660   3.232
  360SOL    HW2 1099   0.960   1.772   3.337
  361SOL     OW 1100   0.473   0.500   2.053
  361SOL    HW1 1101   0.534   0.580   2.057
  361SOL    HW2 1102   0.378   0.531   2.060
  362SOL     OW 1103   0.159   1.137   3.328
  362SOL    HW1 1104   0.181   1.076   3.404
  362SOL    HW2 1105   0.169   1.088   3.242
  363SOL     OW 1106   1.347   1.059   3.096
  363SOL    HW1 1107   1.371   0.996   3.022
  363SOL    HW2 1108   1.257   1.099   3.078
  364SOL     OW 1109   1.302   0.855   2.171
  364SOL    HW1 1110   1.216   0.824   2.213
  364SOL    HW2 1111   1.298   0.841   2.072
  365SOL     OW 1112   1.759   1.747   3.016
  365SOL    HW1 1113   1.820   1.777   2.943
  365SOL    HW2 1114   1.721   1.658   2.994
  366SOL     OW 1115   1.252   1.731   2.990
  366SOL    HW1 1116   1.336   1.736   2.936
  366SOL    HW2 1117   1.229   1.635   3.008
  367SOL     OW 1118   0.083   1.258   2.884
  367SOL    HW1 1119   0.078   1.257   2.984
  367SOL    HW2 1120   0.000   1.217   2.846
  368SOL     OW 1121   0.688   1.662   3.578
  368SOL    HW1 1122   0.632   1.743   3.587
  368SOL    HW2 1123   0.740   1.666   3.492
  369SOL     OW 1124   1.726   0.135   2.385
  369SOL    HW1 1125   1.799   0.118   2.318
  369SOL    HW2 1126   1.695   0.048   2.423
  370SOL     OW 1127   1.388   1.573   2.339
  370SOL    HW1 1128   1.455   1.585   2.265
  370SOL    HW2 1129   1.348   1.662   2.362
  371SOL     OW 1130   0.130   1.794   3.713
  371SOL    HW1 1131   0.089   1.720   3.766
  371SOL    HW2 1132   0.194   1.845   3.771
  372SOL     OW 1133   1.280   0.927   2.534
  372SOL    HW1 1134   1.340   0.846   2.536
  372SOL    HW2 1135   1.320   0.996   2.474
  373SOL     OW 1136   0.830   1.273   3.284
  373SOL    HW1 1137   0.825   1.306   3.379
  373SOL    HW2 1138   0.744   1.292   3.238
  374SOL     OW 1139   0.672   1.616   2.016
  374SOL    HW1 1140   0.681   1.626   1.917
  374SOL    HW2 1141   0.632   1.527   2.037
  375SOL     OW 1142   1.650   1.720   3.256
  375SOL    HW1 1143   1.703   1.730   3.172
  375SOL    HW2 1144   1.623   1.810   3.290
  376SOL     OW 1145   1.841   0.175   2.825
  376SOL    HW1 1146   1.880   0.090   2.789
  376SOL    HW2 1147   1.743   0.177   2.806
  377SOL     OW 1148   0.263   0.326   2.582
  377SOL    HW1 1149   0.184   0.377   2.548
  377SOL    HW2 1150   0.254   0.311   2.680
  378SOL     OW 1151   1.194   1.612   1.893
  378SOL    HW1 1152   1.200   1.519   1.930
  378SOL    HW2 1153   1.135   1.612   1.813
  379SOL     OW 1154   0.822   1.002   3.234
  379SOL    HW1 1155   0.862   1.001   3.142
  379SOL    HW2 1156   0.832   1.094   3.274
  380SOL     OW 1157   0.916   0.910   2.153
  380SOL    HW1 1158   0.979   0.948   2.085
  380SOL    HW2 1159   0.956   0.827   2.192
  381SOL     OW 1160   1.504   1.607   1.906
  381SOL    HW1 1161   1.412   1.644   1.913
  381SOL    HW2 1162   1.542   1.627   1.816
  382SOL     OW 1163   0.372   1.288   3.352
  382SOL    HW1 1164   0.359   1.381   3.318
  382SOL    HW2 1165   0.288   1.236   3.339
  383SOL     OW 1166   1.614   1.292   3.151
  383SOL    HW1 1167   1.674   1.295   3.231
  383SOL    HW2 1168   1.539   1.356   3.164
  384SOL     OW 1169   1.039   1.098   2.558
  384SOL    HW1 1170   0.969   1.051   2.612
  384SOL    HW2 1171   1.098   1.030   2.515
  385SOL     OW 1172   1.014   0.236   2.833
  385SOL    HW1 1173   1.006   0.200   2.740
  385SOL    HW2 1174   1.012   0.160   2.898
  386SOL     OW 1175   0.590   1.487   2.353
  386SOL    HW1 1176   0.632   1.429   2.283
  386SOL    HW2 1177   0.546   1.566   2.309
  387SOL     OW 1178   1.709   0.385   3.243
  387SOL    HW1 1179   1.782   0.454   3.247
  387SOL    HW2 1180   1.737   0.310   3.184
  388SOL     OW 1181   0.255   1.348   2.152
  388SOL    HW1 1182   0.159   1.349   2.125
  388SOL    HW2 1183   0.267   1.401   2.236
  389SOL     OW 1184   0.105   1.013   3.588
  389SOL    HW1 1185   0.028   0.980   3.642
  389SOL    HW2 1186   0.190   0.983   3.630
  390SOL     OW 1187   0.672   0.203   3.351
  390SOL    HW1 1188   0.762   0.187   3.311
  390SOL    HW2 1189   0.680   0.208   3.450
  391SOL     OW 1190   0.075   0.345   1.895
  391SOL    HW1 1191  -0.017   0.317   1.866
  391SOL    HW2 1192   0.106   0.422   1.839
  392SOL     OW 1193   1.440   0.856   3.260
  392SOL    HW1 1194   1.383   0.908   3.197
  392SOL    HW2 1195   1.536   0.868   3.236
  393SOL     OW 1196   0.072   0.166   2.180
  393SOL    HW1 1197   0.055   0.249   2.126
  393SOL    HW2 1198   0.162   0.129   2.158
  394SOL     OW 1199   1.183   1.335   1.981
  394SOL    HW1 1200   1.084   1.324   1.983
  394SOL    HW2 1201   1.217   1.350   2.074
  395SOL     OW 1202   0.613   0.842   3.293
  395SOL    HW1 1203   0.669   0.923   3.276
  395SOL    HW2 1204   0.672   0.762   3.296
  396SOL     OW 1205   1.493   1.767   2.821
  396SOL    HW1 1206   1.526   1.831   2.752
  396SOL    HW2 1207   1.559   1.761   2.896
  397SOL     OW 1208   0.716   0.565   3.570
  397SOL    HW1 1209   0.735   0.630   3.644
  397SOL    HW2 1210   0.776   0.485   3.579
  398SOL     OW 1211   1.450   1.220   3.495
  398SOL    HW1 1212   1.441   1.210   3.594
  398SOL    HW2 1213   1.546   1.213   3.469
  399SOL     OW 1214   0.390   1.741   3.422
  399SOL    HW1 1215   0.299   1.782   3.420
  399SOL    HW2 1216   0.383   1.647   3.454
  400SOL     OW 1217   1.674   0.883   3.116
  400SOL    HW1 1218   1.647   0.794   3.079
  400SOL    HW2 1219   1.675   0.951   3.043
  401SOL     OW 1220   1.225   0.325   2.311
  401SOL    HW1 1221   1.290   0.251   2.300
  401SOL    HW2 1222   1.245   0.375   2.395
  402SOL     OW 1223   0.594   0.745   2.514
  402SOL    HW1 1224   0.644   0.830   2.495
  402SOL    HW2 1225   0.506   0.747   2.466
  403SOL     OW 1226   1.777   0.342   3.504
  403SOL    HW1 1227   1.760   0.373   3.410
  403SOL    HW2 1228   1.693   0.305   3.542
  404SOL     OW 1229   1.730   0.934   3.379
  404SOL    HW1 1230   1.768   1.025   3.394
  404SOL    HW2 1231   1.722   0.917   3.280
  405SOL     OW 1232   0.859   1.374   1.878
  405SOL    HW1 1233   0.813   1.389   1.966
  405SOL    HW2 1234   0.903   1.459   1.848
  406SOL     OW 1235   0.661   1.790   2.815
  406SOL    HW1 1236   0.615   1.878   2.802
  406SOL    HW2 1237   0.760   1.802   2.808
  407SOL     OW 1238   0.859   0.956   2.723
  407SOL    HW1 1239   0.913   0.887   2.771
  407SOL    HW2 1240   0.827   1.025   2.789
  408SOL     OW 1241   1.083   0.984   1.949
  408SOL    HW1 1242   1.060   1.037   1.867
  408SOL    HW2 1243   1.164   0.928   1.930
  409SOL     OW 1244   1.861   1.569   2.713
  409SOL    HW1 1245   1.790   1.557   2.643
  409SOL    HW2 1246   1.862   1.490   2.773
  410SOL     OW 1247   0.221   1.314   3.706
  410SOL    HW1 1248   0.156   1.241   3.685
  410SOL    HW2 1249   0.225   1.328   3.804
  411SOL     OW 1250   0.079   1.240   2.515
  411SOL    HW1 1251   0.078   1.193   2.603
  411SOL    HW2 1252   0.161   1.212   2.464
  412SOL     OW 1253   0.672   1.391   3.486
  412SOL    HW1 1254   0.594   1.341   3.524
  412SOL    HW2 1255   0.669   1.486   3.517
  413SOL     OW 1256   1.824   0.192   3.089
  413SOL    HW1 1257   1.820   0.102   3.133
  413SOL    HW2 1258   1.827   0.181   2.990
  414SOL     OW 1259   0.428   0.424   2.382
  414SOL    HW1 1260   0.458   0.352   2.320
  414SOL    HW2 1261   0.389   0.384   2.465
  415SOL     OW 1262   1.705   1.487   2.966
  415SOL    HW1 1263   1.612   1.462   2.939
  415SOL    HW2 1264   1.731   1.437   3.048
  416SOL     OW 1265   0.317   0.547   3.142
  416SOL    HW1 1266   0.355   0.488   3.214
  416SOL    HW2 1267   0.357   0.521   3.054
  417SOL     OW 1268   0.812   1.586   2.549
  417SOL    HW1 1269   0.844   1.596   2.455
  417SOL    HW2 1270   0.733   1.524   2.551
  418SOL     OW 1271   1.424   0.214   2.974
  418SOL    HW1 1272   1.476   0.149   3.029
  418SOL    HW2 1273   1.375   0.277   3.035
  419SOL     OW 1274   1.001   0.034   3.016
  419SOL    HW1 1275   0.938  -0.038   2.985
  419SOL    HW2 1276   1.094  -0.002   3.016
  420SOL     OW 1277   0.770   1.330   2.163
  420SOL    HW1 1278   0.724   1.243   2.180
  420SOL    HW2 1279   0.861   1.327   2.204
  421SOL     OW 1280   0.618   1.567   3.146
  421SOL    HW1 1281   0.613   1.649   3.203
  421SOL    HW2 1282   0.707   1.564   3.101
  422SOL     OW 1283   1.352   0.052   2.030
  422SOL    HW1 1284   1.387   0.011   1.946
  422SOL    HW2 1285   1.262   0.014   2.050
  423SOL     OW 1286   1.300   0.453   2.553
  423SOL    HW1 1287   1.241   0.533   2.557
  423SOL    HW2 1288   1.315   0.418   2.646
  424SOL     OW 1289   1.593   0.221   2.744
  424SOL    HW1 1290   1.509   0.220   2.798
  424SOL    HW2 1291   1.595   0.304   2.688
  425SOL     OW 1292   0.039   1.077   2.162
  425SOL    HW1 1293   0.138   1.066   2.153
  425SOL    HW2 1294  -0.001   0.991   2.194
  426SOL     OW 1295   0.875   1.646   2.199
  426SOL    HW1 1296   0.798   1.611   2.145
  426SOL    HW2 1297   0.843   1.717   2.261
  427SOL     OW 1298   0.230   0.628   3.837
  427SOL    HW1 1299   0.137   0.626   3.874
  427SOL    HW2 1300   0.231   0.589   3.745
  428SOL     OW 1301   0.019   0.368   4.371
  428SOL    HW1 1302  -0.063   0.411   4.410
  428SOL    HW2 1303  -0.009   0.295   4.308
  429SOL     OW 1304   1.555   1.511   4.427
  429SOL    HW1 1305   1.498   1.495   4.508
  429SOL    HW2 1306   1.496   1.521   4.347
  430SOL     OW 1307   1.135   0.703   4.441
  430SOL    HW1 1308   1.192   0.781   4.416
  430SOL    HW2 1309   1.075   0.729   4.517
  431SOL     OW 1310   1.755   0.607   3.955
  431SOL    HW1 1311   1.743   0.594   3.856
  431SOL    HW2 1312   1.725   0.526   4.004
  432SOL     OW 1313   0.685   1.012   4.389
  432SOL    HW1 1314   0.754   0.996   4.459
  432SOL    HW2 1315   0.612   1.069   4.427
  433SOL     OW 1316   1.603   0.447   4.461
  433SOL    HW1 1317   1.529   0.493   4.411
  433SOL    HW2 1318   1.654   0.515   4.514
  434SOL     OW 1319   0.231   1.713   4.207
  434SOL    HW1 1320   0.265   1.790   4.261
  434SOL    HW2 1321   0.275   1.713   4.117
  435SOL     OW 1322   0.230   1.434   4.262
  435SOL    HW1 1323   0.204   1.530   4.262
  435SOL    HW2 1324   0.159   1.380   4.307
  436SOL     OW 1325   0.240   1.091   4.610
  436SOL    HW1 1326   0.254   1.007   4.662
  436SOL    HW2 1327   0.185   1.155   4.665
  437SOL     OW 1328   0.606   0.964   3.847
  437SOL    HW1 1329   0.613   1.048   3.793
  437SOL    HW2 1330   0.652   0.977   3.935
  438SOL     OW 1331   0.122   0.643   4.287
  438SOL    HW1 1332   0.077   0.555   4.304
  438SOL    HW2 1333   0.121   0.697   4.371
  439SOL     OW 1334   1.842   1.767   4.083
  439SOL    HW1 1335   1.896   1.738   4.163
  439SOL    HW2 1336   1.872   1.857   4.054
  440SOL     OW 1337   0.027   1.596   3.841
  440SOL    HW1 1338   0.008   1.500   3.862
  440SOL    HW2 1339  -0.006   1.654   3.916
  441SOL     OW 1340   1.689   0.922   4.336
  441SOL    HW1 1341   1.784   0.893   4.344
  441SOL    HW2 1342   1.681   0.987   4.261
  442SOL     OW 1343   1.641   1.108   4.156
  442SOL    HW1 1344   1.727   1.110   4.104
  442SOL    HW2 1345   1.655   1.155   4.244
  443SOL     OW 1346   0.613   1.365   4.450
  443SOL    HW1 1347   0.564   1.278   4.459
  443SOL    HW2 1348   0.590   1.408   4.363
  444SOL     OW 1349   0.809   0.004   4.226
  444SOL    HW1 1350   0.849   0.095   4.217
  444SOL    HW2 1351   0.709   0.012   4.232
  445SOL     OW 1352   1.525   0.999   3.914
  445SOL    HW1 1353   1.462   0.923   3.927
  445SOL    HW2 1354   1.573   1.017   4.000
  446SOL     OW 1355   1.466   1.417   4.677
  446SOL    HW1 1356   1.407   1.423   4.757
  446SOL    HW2 1357   1.451   1.329   4.631
  447SOL     OW 1358   1.667   1.714   4.296
  447SOL    HW1 1359   1.626   1.691   4.208
  447SOL    HW2 1360   1.649   1.640   4.361
  448SOL     OW 1361   0.598   0.729   3.994
  448SOL    HW1 1362   0.622   0.798   3.926
  448SOL    HW2 1363   0.520   0.762   4.048
  449SOL     OW 1364   1.281   0.345   4.668
  449SOL    HW1 1365   1.195   0.295   4.655
  449SOL    HW2 1366   1.343   0.291   4.724
  450SOL     OW 1367   1.576   1.662   4.031
  450SOL    HW1 1368   1.665   1.708   4.034
  450SOL    HW2 1369   1.555   1.638   3.936
  451SOL     OW 1370   1.041   0.701   4.153
  451SOL    HW1 1371   1.067   0.697   4.249
  451SOL    HW2 1372   0.956   0.650   4.139
  452SOL     OW 1373   0.076   0.811   4.513
  452SOL    HW1 1374   0.175   0.799   4.522
  452SOL    HW2 1375   0.052   0.906   4.534
  453SOL     OW 1376   0.865   0.348   3.919
  453SOL    HW1 1377   0.924   0.411   3.870
  453SOL    HW2 1378   0.884   0.254   3.890
  454SOL     OW 1379   1.362   1.144   4.269
  454SOL    HW1 1380   1.445   1.115   4.221
  454SOL    HW2 1381   1.313   1.211   4.213
  455SOL     OW 1382   1.008   1.456   4.201
  455SOL    HW1 1383   0.962   1.528   4.149
  455SOL    HW2 1384   1.004   1.476   4.299
  456SOL     OW 1385   0.351   1.801   4.577
  456SOL    HW1 1386   0.401   1.715   4.583
  456SOL    HW2 1387   0.416   1.878   4.574
  457SOL     OW 1388   1.795   1.066   4.597
  457SOL    HW1 1389   1.733   1.051   4.521
  457SOL    HW2 1390   1.743   1.077   4.682
  458SOL     OW 1391   0.321   0.943   3.966
  458SOL    HW1 1392   0.403   0.982   3.924
  458SOL    HW2 1393   0.294   0.861   3.917
  459SOL     OW 1394   1.458   0.735   4.452
  459SOL    HW1 1395   1.453   0.670   4.527
  459SOL    HW2 1396   1.538   0.794   4.465
  460SOL     OW 1397   1.111   1.776   3.961
  460SOL    HW1 1398   1.051   1.714   4.011
  460SOL    HW2 1399   1.142   1.732   3.876
  461SOL     OW 1400   1.632   1.377   3.805
  461SOL    HW1 1401   1.600   1.471   3.795
  461SOL    HW2 1402   1.556   1.314   3.793
  462SOL     OW 1403   0.464   1.743   4.047
  462SOL    HW1 1404   0.497   1.782   4.133
  462SOL    HW2 1405   0.540   1.736   3.982
  463SOL     OW 1406   1.400   0.107   4.150
  463SOL    HW1 1407   1.376   0.070   4.060
  463SOL    HW2 1408   1.499   0.123   4.154
  464SOL     OW 1409   0.382   0.700   4.204
  464SOL    HW1 1410   0.427   0.610   4.201
  464SOL    HW2 1411   0.288   0.689   4.237
  465SOL     OW 1412   0.614   0.122   3.841
  465SOL    HW1 1413   0.712   0.100   3.848
  465SOL    HW2 1414   0.583   0.105   3.748
  466SOL     OW 1415   0.539   0.064   4.236
  466SOL    HW1 1416   0.458   0.065   4.294
  466SOL    HW2 1417   0.542   0.147   4.181
  467SOL     OW 1418   1.434   1.188   3.765
  467SOL    HW1 1419   1.466   1.112   3.822
  467SOL    HW2 1420   1.342   1.215   3.795
  468SOL     OW 1421   0.297   0.035   3.895
  468SOL    HW1 1422   0.346   0.119   3.874
  468SOL    HW2 1423   0.359  -0.030   3.940
  469SOL     OW 1424   0.935   0.236   4.204
  469SOL    HW1 1425   0.887   0.277   4.126
  469SOL    HW2 1426   1.034   0.234   4.185
  470SOL     OW 1427   1.227   1.570   4.517
  470SOL    HW1 1428   1.248   1.644   4.452
  470SOL    HW2 1429   1.295   1.570   4.590
  471SOL     OW 1430   0.459   1.152   4.465
  471SOL    HW1 1431   0.388   1.125   4.530
  471SOL    HW2 1432   0.433   1.124   4.372
  472SOL     OW 1433   1.271   1.797   4.315
  472SOL    HW1 1434   1.315   1.861   4.251
  472SOL    HW2 1435   1.221   1.849   4.385
  473SOL     OW 1436   1.032   0.549   3.740
  473SOL    HW1 1437   0.991   0.631   3.701
  473SOL    HW2 1438   1.096   0.575   3.813
  474SOL     OW 1439   0.866   0.454   4.366
  474SOL    HW1 1440   0.834   0.526   4.304
  474SOL    HW2 1441   0.890   0.373   4.313
  475SOL     OW 1442   1.017   0.039   4.477
  475SOL    HW1 1443   0.945   0.044   4.408
  475SOL    HW2 1444   0.993  -0.030   4.546
  476SOL     OW 1445   1.857   0.833   4.101
  476SOL    HW1 1446   1.899   0.769   4.165
  476SOL    HW2 1447   1.819   0.782   4.023
  477SOL     OW 1448   0.488   1.385   3.898
  477SOL    HW1 1449   0.401   1.370   3.945
  477SOL    HW2 1450   0.471   1.411   3.803
  478SOL     OW 1451   1.664   1.280   4.381
  478SOL    HW1 1452   1.763   1.288   4.395
  478SOL    HW2 1453   1.619   1.364   4.412
  479SOL     OW 1454   1.390   0.575   3.802
  479SOL    HW1 1455   1.336   0.554   3.883
  479SOL    HW2 1456   1.481   0.534   3.811
  480SOL     OW 1457   0.527   0.256   4.052
  480SOL    HW1 1458   0.554   0.197   3.977
  480SOL    HW2 1459   0.527   0.351   4.021
  481SOL     OW 1460   0.705   1.050   4.092
  481SOL    HW1 1461   0.691   1.057   4.191
  481SOL    HW2 1462   0.789   0.999   4.074
  482SOL     OW 1463   0.367   1.100   4.225
  482SOL    HW1 1464   0.360   1.183   4.169
  482SOL    HW2 1465   0.371   1.020   4.165
  483SOL     OW 1466   0.566   0.537   4.589
  483SOL    HW1 1467   0.578   0.603   4.515
  483SOL    HW2 1468   0.612   0.571   4.672
  484SOL     OW 1469   1.252   1.348   4.112
  484SOL    HW1 1470   1.302   1.425   4.152
  484SOL    HW2 1471   1.157   1.350   4.144
  485SOL     OW 1472   1.582   0.639   4.196
  485SOL    HW1 1473   1.551   0.700   4.269
  485SOL    HW2 1474   1.632   0.691   4.127
  486SOL     OW 1475   1.209   0.525   3.999
  486SOL    HW1 1476   1.222   0.441   4.053
  486SOL    HW2 1477   1.180   0.599   4.059
  487SOL     OW 1478   0.732   0.634   4.788
  487SOL    HW1 1479   0.791   0.608   4.712
  487SOL    HW2 1480   0.704   0.730   4.777
  488SOL     OW 1481   0.307   0.063   4.342
  488SOL    HW1 1482   0.296   0.157   4.375
  488SOL    HW2 1483   0.302   0.000   4.419
  489SOL     OW 1484   1.622   0.367   4.098
  489SOL    HW1 1485   1.624   0.291   4.162
  489SOL    HW2 1486   1.574   0.444   4.138
  490SOL     OW 1487   1.540   0.274   3.849
  490SOL    HW1 1488   1.479   0.199   3.872
  490SOL    HW2 1489   1.562   0.326   3.932
  491SOL     OW 1490   1.303   0.838   3.766
  491SOL    HW1 1491   1.337   0.745   3.781
  491SOL    HW2 1492   1.321   0.865   3.671
  492SOL     OW 1493   1.068   1.333   4.573
  492SOL    HW1 1494   1.075   1.249   4.518
  492SOL    HW2 1495   1.130   1.402   4.537
  493SOL     OW 1496   0.319   0.810   4.673
  493SOL    HW1 1497   0.412   0.846   4.678
  493SOL    HW2 1498   0.313   0.725   4.725
  494SOL     OW 1499   0.008   1.326   3.924
  494SOL    HW1 1500  -0.085   1.347   3.893
  494SOL    HW2 1501   0.018   1.227   3.937
  495SOL     OW 1502   0.088   1.801   4.651
  495SOL    HW1 1503   0.046   1.715   4.624
  495SOL    HW2 1504   0.182   1.804   4.617
  496SOL     OW 1505   0.504   1.568   4.634
  496SOL    HW1 1506   0.570   1.642   4.643
  496SOL    HW2 1507   0.548   1.489   4.592
  497SOL     OW 1508   0.815   0.572   4.049
  497SOL    HW1 1509   0.822   0.483   4.003
  497SOL    HW2 1510   0.721   0.606   4.041
  498SOL     OW 1511   0.473   0.500   3.915
  498SOL    HW1 1512   0.534   0.580   3.919
  498SOL    HW2 1513   0.378   0.531   3.922
  499SOL     OW 1514   1.302   0.855   4.033
  499SOL    HW1 1515   1.216   0.824   4.075
  499SOL    HW2 1516   1.298   0.841   3.934
  500SOL     OW 1517   1.759   1.747   4.878
  500SOL    HW1 1518   1.820   1.777   4.805
  500SOL    HW2 1519   1.721   1.658   4.856
  501SOL     OW 1520   1.726   0.135   4.247
  501SOL    HW1 1521   1.799   0.118   4.180
  501SOL    HW2 1522   1.695   0.048   4.285
  502SOL     OW 1523   1.388   1.573   4.201
  502SOL    HW1 1524   1.455   1.585   4.127
  502SOL    HW2 1525   1.348   1.662   4.224
  503SOL     OW 1526   1.280   0.927   4.396
  503SOL    HW1 1527   1.340   0.846   4.398
  503SOL    HW2 1528   1.320   0.996   4.336
  504SOL     OW 1529   0.672   1.616   3.878
  504SOL    HW1 1530   0.681   1.626   3.779
  504SOL    HW2 1531   0.632   1.527   3.899
  505SOL     OW 1532   1.841   0.175   4.687
  505SOL    HW1 1533   1.880   0.090   4.651
  505SOL    HW2 1534   1.743   0.177   4.668
  506SOL     OW 1535   0.263   0.326   4.444
  506SOL    HW1 1536   0.184   0.377   4.410
  506SOL    HW2 1537   0.254   0.311   4.542
  507SOL     OW 1538   1.194   1.612   3.755
  507SOL    HW1 1539   1.200   1.519   3.792
  507SOL    HW2 1540   1.135   1.612   3.675
  508SOL     OW 1541   0.916   0.910   4.015
  508SOL    HW1 1542   0.979   0.948   3.947
  508SOL    HW2 1543   0.956   0.827   4.054
  509SOL     OW 1544   1.504   1.607   3.768
  509SOL    HW1 1545   1.412   1.644   3.775
  509SOL    HW2 1546   1.542   1.627   3.678
  510SOL     OW 1547   1.039   1.098   4.420
  510SOL    HW1 1548   0.969   1.051   4.474
  510SOL    HW2 1549   1.098   1.030   4.377
  511SOL     OW 1550   0.590   1.487   4.215
  511SOL    HW1 1551   0.632   1.429   4.145
  511SOL    HW2 1552   0.546   1.566   4.171
  512SOL     OW 1553   0.255   1.348   4.014
  512SOL    HW1 1554   0.159   1.349   3.987
  512SOL    HW2 1555   0.267   1.401   4.098
  513SOL     OW 1556   0.075   0.345   3.757
  513SOL    HW1 1557  -0.017   0.317   3.728
  513SOL    HW2 1558   0.106   0.422   3.701
  514SOL     OW 1559   0.072   0.166   4.042
  514SOL    HW1 1560   0.055   0.249   3.988
  514SOL    HW2 1561   0.162   0.129   4.020
  515SOL     OW 1562   1.183   1.335   3.843
  515SOL    HW1 1563   1.084   1.324   3.845
  515SOL    HW2 1564   1.217   1.350   3.936
  516SOL     OW 1565   1.674   0.883   4.978
  516SOL    HW1 1566   1.647   0.794   4.941
  516SOL    HW2 1567   1.675   0.951   4.905
  517SOL     OW 1568   1.225   0.325   4.173
  517SOL    HW1 1569   1.290   0.251   4.162
  517SOL    HW2 1570   1.245   0.375   4.257
  518SOL     OW 1571   0.594   0.745   4.376
  518SOL    HW1 1572   0.644   0.830   4.357
  518SOL    HW2 1573   0.506   0.747   4.328
  519SOL     OW 1574   0.859   1.374   3.740
  519SOL    HW1 1575   0.813   1.389   3.828
  519SOL    HW2 1576   0.903   1.459   3.710
  520SOL     OW 1577   0.661   1.790   4.677
  520SOL    HW1 1578   0.615   1.878   4.664
  520SOL    HW2 1579   0.760   1.802   4.670
  521SOL     OW 1580   0.859   0.956   4.585
  521SOL    HW1 1581   0.913   0.887   4.633
  521SOL    HW2 1582   0.827   1.025   4.651
  522SOL     OW 1583   1.083   0.984   3.811
  522SOL    HW1 1584   1.060   1.037   3.729
  522SOL    HW2 1585   1.164   0.928   3.792
  523SOL     OW 1586   1.861   1.569   4.575
  523SOL    HW1 1587   1.790   1.557   4.505
  523SOL    HW2 1588   1.862   1.490   4.635
  524SOL     OW 1589   0.079   1.240   4.377
  524SOL    HW1 1590   0.078   1.193   4.465
  524SOL    HW2 1591   0.161   1.212   4.326
  525SOL     OW 1592   1.824   0.192   4.951
  525SOL    HW1 1593   1.820   0.102   4.995
  525SOL    HW2 1594   1.827   0.181   4.852
  526SOL     OW 1595   0.428   0.424   4.244
  526SOL    HW1 1596   0.458   0.352   4.182
  526SOL    HW2 1597   0.389   0.384   4.327
  527SOL     OW 1598   0.812   1.586   4.411
  527SOL    HW1 1599   0.844   1.596   4.317
  527SOL    HW2 1600   0.733   1.524   4.413
  528SOL     OW 1601   0.770   1.330   4.025
  528SOL    HW1 1602   0.724   1.243   4.042
  528SOL    HW2 1603   0.861   1.327   4.066
  529SOL     OW 1604   1.352   0.052   3.892
  529SOL    HW1 1605   1.387   0.011   3.808
  529SOL    HW2 1606   1.262   0.014   3.912
  530SOL     OW 1607   1.300   0.453   4.415
  530SOL    HW1 1608   1.241   0.533   4.419
  530SOL    HW2 1609   1.315   0.418   4.508
  531SOL     OW 1610   1.593   0.221   4.606
  531SOL    HW1 1611   1.509   0.220   4.660
  531SOL    HW2 1612   1.595   0.304   4.550
  532SOL     OW 1613   0.039   1.077   4.024
  532SOL    HW1 1614   0.138   1.066   4.015
  532SOL    HW2 1615  -0.001   0.991   4.056
  533SOL     OW 1616   0.875   1.646   4.061
  533SOL    HW1 1617   0.798   1.611   4.007
  533SOL    HW2 1618   0.843   1.717   4.123
  534SOL     OW 1619   0.230   2.490   0.113
  534SOL    HW1 1620   0.137   2.488   0.150
  534SOL    HW2 1621   0.231   2.451   0.021
  535SOL     OW 1622   0.225   2.137   0.996
  535SOL    HW1 1623   0.260   2.120   1.088
  535SOL    HW2 1624   0.137   2.092   0.984
  536SOL     OW 1625   0.019   2.230   0.647
  536SOL    HW1 1626  -0.063   2.273   0.686
  536SOL    HW2 1627  -0.009   2.157   0.584
  537SOL     OW 1628   0.569   3.137   1.165
  537SOL    HW1 1629   0.476   3.130   1.128
  537SOL    HW2 1630   0.580   3.226   1.209
  538SOL     OW 1631   1.555   3.373   0.703
  538SOL    HW1 1632   1.498   3.357   0.784
  538SOL    HW2 1633   1.496   3.383   0.623
  539SOL     OW 1634   1.135   2.565   0.717
  539SOL    HW1 1635   1.192   2.643   0.692
  539SOL    HW2 1636   1.075   2.591   0.793
  540SOL     OW 1637   1.755   2.469   0.231
  540SOL    HW1 1638   1.743   2.456   0.132
  540SOL    HW2 1639   1.725   2.388   0.280
  541SOL     OW 1640   0.768   3.006   1.023
  541SOL    HW1 1641   0.690   3.023   1.083
  541SOL    HW2 1642   0.802   3.093   0.987
  542SOL     OW 1643   0.850   2.660   1.823
  542SOL    HW1 1644   0.846   2.736   1.888
  542SOL    HW2 1645   0.872   2.696   1.732
  543SOL     OW 1646   0.685   2.874   0.665
  543SOL    HW1 1647   0.754   2.858   0.735
  543SOL    HW2 1648   0.612   2.931   0.703
  544SOL     OW 1649   0.686   3.023   1.803
  544SOL    HW1 1650   0.746   3.102   1.817
  544SOL    HW2 1651   0.600   3.054   1.762
  545SOL     OW 1652   0.335   3.297   1.061
  545SOL    HW1 1653   0.257   3.266   1.008
  545SOL    HW2 1654   0.393   3.355   1.004
  546SOL     OW 1655   1.460   3.367   1.339
  546SOL    HW1 1656   1.484   3.461   1.365
  546SOL    HW2 1657   1.444   3.313   1.421
  547SOL     OW 1658   0.438   2.254   1.499
  547SOL    HW1 1659   0.520   2.198   1.508
  547SOL    HW2 1660   0.357   2.196   1.503
  548SOL     OW 1661   1.603   2.309   0.737
  548SOL    HW1 1662   1.529   2.355   0.687
  548SOL    HW2 1663   1.654   2.377   0.790
  549SOL     OW 1664   0.231   3.575   0.483
  549SOL    HW1 1665   0.265   3.652   0.537
  549SOL    HW2 1666   0.275   3.575   0.393
  550SOL     OW 1667   1.127   3.203   1.690
  550SOL    HW1 1668   1.174   3.203   1.778
  550SOL    HW2 1669   1.079   3.116   1.679
  551SOL     OW 1670   0.230   3.296   0.538
  551SOL    HW1 1671   0.204   3.392   0.538
  551SOL    HW2 1672   0.159   3.242   0.583
  552SOL     OW 1673   0.240   2.953   0.886
  552SOL    HW1 1674   0.254   2.869   0.938
  552SOL    HW2 1675   0.185   3.017   0.941
  553SOL     OW 1676   0.620   3.648   1.439
  553SOL    HW1 1677   0.528   3.631   1.474
  553SOL    HW2 1678   0.648   3.740   1.465
  554SOL     OW 1679   0.606   2.826   0.123
  554SOL    HW1 1680   0.613   2.910   0.069
  554SOL    HW2 1681   0.652   2.839   0.211
  555SOL     OW 1682   1.594   1.976   1.480
  555SOL    HW1 1683   1.576   2.043   1.408
  555SOL    HW2 1684   1.591   2.022   1.569
  556SOL     OW 1685   0.122   2.505   0.563
  556SOL    HW1 1686   0.077   2.417   0.580
  556SOL    HW2 1687   0.121   2.559   0.647
  557SOL     OW 1688   1.842   3.629   0.359
  557SOL    HW1 1689   1.896   3.600   0.439
  557SOL    HW2 1690   1.872   3.719   0.330
  558SOL     OW 1691   0.027   3.458   0.117
  558SOL    HW1 1692   0.008   3.362   0.138
  558SOL    HW2 1693  -0.006   3.516   0.192
  559SOL     OW 1694   1.689   2.784   0.612
  559SOL    HW1 1695   1.784   2.755   0.620
  559SOL    HW2 1696   1.681   2.849   0.537
  560SOL     OW 1697   1.641   2.970   0.432
  560SOL    HW1 1698   1.727   2.972   0.380
  560SOL    HW2 1699   1.655   3.017   0.520
  561SOL     OW 1700   0.113   2.599   1.597
  561SOL    HW1 1701   0.201   2.586   1.642
  561SOL    HW2 1702   0.100   2.696   1.575
  562SOL     OW 1703   0.613   3.227   0.726
  562SOL    HW1 1704   0.564   3.140   0.735
  562SOL    HW2 1705   0.590   3.270   0.639
  563SOL     OW 1706   1.293   3.090   1.423
  563SOL    HW1 1707   1.330   3.017   1.365
  563SOL    HW2 1708   1.345   3.095   1.508
  564SOL     OW 1709   0.809   1.866   0.502
  564SOL    HW1 1710   0.849   1.957   0.493
  564SOL    HW2 1711   0.709   1.874   0.508
  565SOL     OW 1712   0.197   2.838   1.264
  565SOL    HW1 1713   0.286   2.793   1.250
  565SOL    HW2 1714   0.124   2.773   1.245
  566SOL     OW 1715   1.525   2.861   0.190
  566SOL    HW1 1716   1.462   2.785   0.203
  566SOL    HW2 1717   1.573   2.879   0.276
  567SOL     OW 1718   1.187   3.654   1.616
  567SOL    HW1 1719   1.211   3.714   1.540
  567SOL    HW2 1720   1.194   3.559   1.586
  568SOL     OW 1721   0.317   2.113   1.801
  568SOL    HW1 1722   0.388   2.184   1.807
  568SOL    HW2 1723   0.229   2.152   1.829
  569SOL     OW 1724   1.466   3.279   0.953
  569SOL    HW1 1725   1.407   3.285   1.033
  569SOL    HW2 1726   1.451   3.191   0.907
  570SOL     OW 1727   1.667   3.576   0.572
  570SOL    HW1 1728   1.626   3.553   0.484
  570SOL    HW2 1729   1.649   3.502   0.637
  571SOL     OW 1730   0.598   2.591   0.270
  571SOL    HW1 1731   0.622   2.660   0.202
  571SOL    HW2 1732   0.520   2.624   0.324
  572SOL     OW 1733   1.281   2.207   0.944
  572SOL    HW1 1734   1.195   2.157   0.931
  572SOL    HW2 1735   1.343   2.153   1.000
  573SOL     OW 1736   1.576   3.524   0.307
  573SOL    HW1 1737   1.665   3.570   0.310
  573SOL    HW2 1738   1.555   3.500   0.212
  574SOL     OW 1739   0.807   2.467   1.465
  574SOL    HW1 1740   0.760   2.464   1.554
  574SOL    HW2 1741   0.756   2.412   1.399
  575SOL     OW 1742   1.394   2.331   1.674
  575SOL    HW1 1743   1.374   2.374   1.762
  575SOL    HW2 1744   1.472   2.269   1.683
  576SOL     OW 1745   0.973   2.752   1.572
  576SOL    HW1 1746   1.019   2.668   1.543
  576SOL    HW2 1747   0.917   2.786   1.497
  577SOL     OW 1748   0.991   2.272   1.242
  577SOL    HW1 1749   0.914   2.306   1.296
  577SOL    HW2 1750   0.957   2.221   1.163
  578SOL     OW 1751   1.041   2.563   0.429
  578SOL    HW1 1752   1.067   2.559   0.525
  578SOL    HW2 1753   0.956   2.512   0.415
  579SOL     OW 1754   0.076   2.673   0.789
  579SOL    HW1 1755   0.175   2.661   0.798
  579SOL    HW2 1756   0.052   2.768   0.810
  580SOL     OW 1757   0.130   3.683   1.571
  580SOL    HW1 1758   0.120   3.668   1.670
  580SOL    HW2 1759   0.044   3.719   1.535
  581SOL     OW 1760   0.865   2.210   0.195
  581SOL    HW1 1761   0.924   2.273   0.146
  581SOL    HW2 1762   0.884   2.116   0.166
  582SOL     OW 1763   1.719   2.447   1.831
  582SOL    HW1 1764   1.693   2.536   1.795
  582SOL    HW2 1765   1.717   2.379   1.758
  583SOL     OW 1766   1.362   3.006   0.545
  583SOL    HW1 1767   1.445   2.977   0.497
  583SOL    HW2 1768   1.313   3.073   0.489
  584SOL     OW 1769   0.550   2.058   0.885
  584SOL    HW1 1770   0.545   2.053   0.985
  584SOL    HW2 1771   0.552   2.154   0.856
  585SOL     OW 1772   1.008   3.318   0.477
  585SOL    HW1 1773   0.962   3.390   0.425
  585SOL    HW2 1774   1.004   3.338   0.575
  586SOL     OW 1775   0.351   3.663   0.853
  586SOL    HW1 1776   0.401   3.577   0.859
  586SOL    HW2 1777   0.416   3.740   0.850
  587SOL     OW 1778   1.795   2.928   0.873
  587SOL    HW1 1779   1.733   2.913   0.797
  587SOL    HW2 1780   1.743   2.939   0.958
  588SOL     OW 1781   1.227   3.412   1.506
  588SOL    HW1 1782   1.233   3.335   1.570
  588SOL    HW2 1783   1.175   3.386   1.426
  589SOL     OW 1784   0.321   2.805   0.242
  589SOL    HW1 1785   0.403   2.844   0.200
  589SOL    HW2 1786   0.294   2.723   0.193
  590SOL     OW 1787   1.458   2.597   0.728
  590SOL    HW1 1788   1.453   2.532   0.803
  590SOL    HW2 1789   1.538   2.656   0.741
  591SOL     OW 1790   0.461   3.128   1.727
  591SOL    HW1 1791   0.411   3.129   1.641
  591SOL    HW2 1792   0.398   3.110   1.803
  592SOL     OW 1793   1.111   3.638   0.237
  592SOL    HW1 1794   1.051   3.576   0.287
  592SOL    HW2 1795   1.142   3.594   0.152
  593SOL     OW 1796   0.202   2.147   1.498
  593SOL    HW1 1797   0.122   2.207   1.485
  593SOL    HW2 1798   0.192   2.098   1.584
  594SOL     OW 1799   1.632   3.239   0.081
  594SOL    HW1 1800   1.600   3.333   0.071
  594SOL    HW2 1801   1.556   3.176   0.069
  595SOL     OW 1802   0.464   3.605   0.323
  595SOL    HW1 1803   0.497   3.644   0.409
  595SOL    HW2 1804   0.540   3.598   0.258
  596SOL     OW 1805   1.400   1.969   0.426
  596SOL    HW1 1806   1.376   1.932   0.336
  596SOL    HW2 1807   1.499   1.985   0.430
  597SOL     OW 1808   0.249   3.647   1.241
  597SOL    HW1 1809   0.306   3.582   1.291
  597SOL    HW2 1810   0.233   3.614   1.148
  598SOL     OW 1811   0.940   3.560   0.904
  598SOL    HW1 1812   1.020   3.503   0.925
  598SOL    HW2 1813   0.891   3.520   0.827
  599SOL     OW 1814   0.382   2.562   0.480
  599SOL    HW1 1815   0.427   2.472   0.477
  599SOL    HW2 1816   0.288   2.551   0.513
  600SOL     OW 1817   1.547   2.084   1.729
  600SOL    HW1 1818   1.542   2.121   1.821
  600SOL    HW2 1819   1.475   2.015   1.717
  601SOL     OW 1820   0.781   2.126   1.749
  601SOL    HW1 1821   0.848   2.065   1.792
  601SOL    HW2 1822   0.708   2.145   1.814
  602SOL     OW 1823   0.888   3.376   1.195
  602SOL    HW1 1824   0.865   3.351   1.101
  602SOL    HW2 1825   0.949   3.307   1.234
  603SOL     OW 1826   1.351   2.452   1.433
  603SOL    HW1 1827   1.379   2.409   1.518
  603SOL    HW2 1828   1.376   2.548   1.434
  604SOL     OW 1829   0.803   3.264   0.924
  604SOL    HW1 1830   0.893   3.278   0.882
  604SOL    HW2 1831   0.732   3.266   0.853
  605SOL     OW 1832   0.922   2.365   0.899
  605SOL    HW1 1833   0.897   2.356   0.803
  605SOL    HW2 1834   0.970   2.283   0.930
  606SOL     OW 1835   0.539   1.926   0.512
  606SOL    HW1 1836   0.458   1.927   0.570
  606SOL    HW2 1837   0.542   2.009   0.457
  607SOL     OW 1838   1.434   3.050   0.041
  607SOL    HW1 1839   1.466   2.974   0.098
  607SOL    HW2 1840   1.342   3.077   0.071
  608SOL     OW 1841   0.297   1.897   0.171
  608SOL    HW1 1842   0.346   1.981   0.150
  608SOL    HW2 1843   0.359   1.832   0.216
  609SOL     OW 1844   0.935   2.098   0.480
  609SOL    HW1 1845   0.887   2.139   0.402
  609SOL    HW2 1846   1.034   2.096   0.461
  610SOL     OW 1847   1.076   2.545   1.464
  610SOL    HW1 1848   0.996   2.484   1.467
  610SOL    HW2 1849   1.157   2.492   1.440
  611SOL     OW 1850   1.227   3.432   0.793
  611SOL    HW1 1851   1.248   3.506   0.728
  611SOL    HW2 1852   1.295   3.432   0.866
  612SOL     OW 1853   0.459   3.014   0.741
  612SOL    HW1 1854   0.388   2.987   0.806
  612SOL    HW2 1855   0.433   2.986   0.648
  613SOL     OW 1856   1.271   3.659   0.591
  613SOL    HW1 1857   1.315   3.723   0.527
  613SOL    HW2 1858   1.221   3.711   0.661
  614SOL     OW 1859   1.032   2.411   0.016
  614SOL    HW1 1860   0.991   2.493  -0.023
  614SOL    HW2 1861   1.096   2.437   0.089
  615SOL     OW 1862   0.078   2.418   1.386
  615SOL    HW1 1863   0.170   2.417   1.345
  615SOL    HW2 1864   0.072   2.492   1.453
  616SOL     OW 1865   0.561   2.084   1.147
  616SOL    HW1 1866   0.599   2.000   1.184
  616SOL    HW2 1867   0.473   2.103   1.191
  617SOL     OW 1868   0.866   2.316   0.642
  617SOL    HW1 1869   0.834   2.388   0.580
  617SOL    HW2 1870   0.890   2.235   0.589
  618SOL     OW 1871   1.017   1.901   0.753
  618SOL    HW1 1872   0.945   1.906   0.684
  618SOL    HW2 1873   0.993   1.832   0.822
  619SOL     OW 1874   1.429   3.035   0.867
  619SOL    HW1 1875   1.374   2.951   0.860
  619SOL    HW2 1876   1.455   3.064   0.775
  620SOL     OW 1877   1.466   2.452   0.992
  620SOL    HW1 1878   1.436   2.357   0.999
  620SOL    HW2 1879   1.539   2.468   1.058
  621SOL     OW 1880   1.857   2.695   0.377
  621SOL    HW1 1881   1.899   2.631   0.441
  621SOL    HW2 1882   1.819   2.644   0.299
  622SOL     OW 1883   0.488   3.247   0.174
  622SOL    HW1 1884   0.401   3.232   0.221
  622SOL    HW2 1885   0.471   3.273   0.079
  623SOL     OW 1886   1.664   3.142   0.657
  623SOL    HW1 1887   1.763   3.150   0.671
  623SOL    HW2 1888   1.619   3.226   0.688
  624SOL     OW 1889   1.390   2.437   0.078
  624SOL    HW1 1890   1.336   2.416   0.159
  624SOL    HW2 1891   1.481   2.396   0.087
  625SOL     OW 1892   0.527   2.118   0.328
  625SOL    HW1 1893   0.554   2.059   0.253
  625SOL    HW2 1894   0.527   2.213   0.297
  626SOL     OW 1895   1.754   3.085   1.588
  626SOL    HW1 1896   1.845   3.046   1.575
  626SOL    HW2 1897   1.762   3.181   1.612
  627SOL     OW 1898   1.064   3.209   1.340
  627SOL    HW1 1899   0.984   3.186   1.395
  627SOL    HW2 1900   1.147   3.183   1.389
  628SOL     OW 1901   1.592   3.491   1.625
  628SOL    HW1 1902   1.619   3.525   1.535
  628SOL    HW2 1903   1.671   3.453   1.671
  629SOL     OW 1904   1.111   3.057   1.100
  629SOL    HW1 1905   1.071   3.101   1.181
  629SOL    HW2 1906   1.070   3.094   1.017
  630SOL     OW 1907   1.638   2.961   1.079
  630SOL    HW1 1908   1.643   3.042   1.138
  630SOL    HW2 1909   1.552   2.963   1.028
  631SOL     OW 1910   0.915   1.951   1.402
  631SOL    HW1 1911   0.940   1.931   1.307
  631SOL    HW2 1912   0.987   2.007   1.444
  632SOL     OW 1913   0.980   2.978   1.719
  632SOL    HW1 1914   0.881   2.984   1.729
  632SOL    HW2 1915   1.003   2.898   1.663
  633SOL     OW 1916   0.705   2.912   0.368
  633SOL    HW1 1917   0.691   2.919   0.467
  633SOL    HW2 1918   0.789   2.861   0.350
  634SOL     OW 1919   0.410   2.675   1.251
  634SOL    HW1 1920   0.496   2.687   1.301
  634SOL    HW2 1921   0.368   2.588   1.278
  635SOL     OW 1922   1.274   2.248   1.262
  635SOL    HW1 1923   1.295   2.322   1.326
  635SOL    HW2 1924   1.185   2.265   1.219
  636SOL     OW 1925   0.064   3.426   1.331
  636SOL    HW1 1926   0.018   3.508   1.297
  636SOL    HW2 1927   0.162   3.445   1.340
  637SOL     OW 1928   0.367   2.962   0.501
  637SOL    HW1 1929   0.360   3.045   0.445
  637SOL    HW2 1930   0.371   2.882   0.441
  638SOL     OW 1931   0.566   2.399   0.865
  638SOL    HW1 1932   0.578   2.465   0.791
  638SOL    HW2 1933   0.612   2.433   0.948
  639SOL     OW 1934   1.252   3.210   0.388
  639SOL    HW1 1935   1.302   3.287   0.428
  639SOL    HW2 1936   1.157   3.212   0.420
  640SOL     OW 1937   1.272   3.307   1.142
  640SOL    HW1 1938   1.319   3.320   1.229
  640SOL    HW2 1939   1.206   3.233   1.151
  641SOL     OW 1940   1.582   2.501   0.472
  641SOL    HW1 1941   1.551   2.562   0.545
  641SOL    HW2 1942   1.632   2.553   0.403
  642SOL     OW 1943   0.354   3.372   1.329
  642SOL    HW1 1944   0.333   3.328   1.242
  642SOL    HW2 1945   0.451   3.398   1.332
  643SOL     OW 1946   0.402   2.613   1.598
  643SOL    HW1 1947   0.470   2.668   1.551
  643SOL    HW2 1948   0.442   2.525   1.625
  644SOL     OW 1949   1.587   2.641   1.670
  644SOL    HW1 1950   1.495   2.679   1.665
  644SOL    HW2 1951   1.647   2.688   1.605
  645SOL     OW 1952   1.013   1.967   1.770
  645SOL    HW1 1953   1.019   2.052   1.718
  645SOL    HW2 1954   1.045   1.891   1.713
  646SOL     OW 1955   0.504   1.912   1.740
  646SOL    HW1 1956   0.462   1.855   1.670
  646SOL    HW2 1957   0.438   1.981   1.772
  647SOL     OW 1958   0.573   2.732   1.029
  647SOL    HW1 1959   0.617   2.821   1.020
  647SOL    HW2 1960   0.510   2.732   1.106
  648SOL     OW 1961   1.360   2.724   1.045
  648SOL    HW1 1962   1.285   2.724   0.979
  648SOL    HW2 1963   1.397   2.632   1.054
  649SOL     OW 1964   1.209   2.387   0.275
  649SOL    HW1 1965   1.222   2.303   0.329
  649SOL    HW2 1966   1.180   2.461   0.335
  650SOL     OW 1967   0.307   2.075   1.231
  650SOL    HW1 1968   0.284   2.112   1.321
  650SOL    HW2 1969   0.277   1.980   1.225
  651SOL     OW 1970   0.037   3.172   1.282
  651SOL    HW1 1971   0.090   3.123   1.350
  651SOL    HW2 1972   0.059   3.270   1.287
  652SOL     OW 1973   0.732   2.496   1.064
  652SOL    HW1 1974   0.791   2.470   0.988
  652SOL    HW2 1975   0.704   2.592   1.053
  653SOL     OW 1976   1.728   2.797   1.854
  653SOL    HW1 1977   1.682   2.790   1.765
  653SOL    HW2 1978   1.666   2.841   1.920
  654SOL     OW 1979   0.307   1.925   0.618
  654SOL    HW1 1980   0.296   2.019   0.651
  654SOL    HW2 1981   0.302   1.862   0.695
  655SOL     OW 1982   1.622   2.229   0.374
  655SOL    HW1 1983   1.624   2.153   0.438
  655SOL    HW2 1984   1.574   2.306   0.414
  656SOL     OW 1985   1.023   2.628   0.966
  656SOL    HW1 1986   1.038   2.649   1.062
  656SOL    HW2 1987   0.993   2.533   0.957
  657SOL     OW 1988   0.980   3.435   1.700
  657SOL    HW1 1989   0.960   3.479   1.612
  657SOL    HW2 1990   1.019   3.344   1.684
  658SOL     OW 1991   1.859   3.380   1.605
  658SOL    HW1 1992   1.873   3.407   1.510
  658SOL    HW2 1993   1.942   3.402   1.658
  659SOL     OW 1994   0.350   2.760   1.804
  659SOL    HW1 1995   0.426   2.804   1.852
  659SOL    HW2 1996   0.385   2.713   1.722
  660SOL     OW 1997   1.540   2.136   0.125
  660SOL    HW1 1998   1.479   2.061   0.148
  660SOL    HW2 1999   1.562   2.188   0.208
  661SOL     OW 2000   1.303   2.700   0.042
  661SOL    HW1 2001   1.337   2.607   0.057
  661SOL    HW2 2002   1.321   2.727  -0.053
  662SOL     OW 2003   1.068   3.195   0.849
  662SOL    HW1 2004   1.075   3.111   0.794
  662SOL    HW2 2005   1.130   3.264   0.813
  663SOL     OW 2006   0.319   2.672   0.949
  663SOL    HW1 2007   0.412   2.708   0.954
  663SOL    HW2 2008   0.313   2.587   1.001
  664SOL     OW 2009   0.339   2.371   1.006
  664SOL    HW1 2010   0.287   2.288   0.989
  664SOL    HW2 2011   0.416   2.376   0.942
  665SOL     OW 2012   1.138   2.242   1.678
  665SOL    HW1 2013   1.093   2.305   1.742
  665SOL    HW2 2014   1.231   2.273   1.661
  666SOL     OW 2015   1.160   2.069   1.477
  666SOL    HW1 2016   1.160   2.133   1.554
  666SOL    HW2 2017   1.188   2.117   1.394
  667SOL     OW 2018   0.008   3.188   0.200
  667SOL    HW1 2019  -0.085   3.209   0.169
  667SOL    HW2 2020   0.018   3.089   0.213
  668SOL     OW 2021   0.088   3.663   0.927
  668SOL    HW1 2022   0.046   3.577   0.900
  668SOL    HW2 2023   0.182   3.666   0.893
  669SOL     OW 2024   0.504   3.430   0.910
  669SOL    HW1 2025   0.570   3.504   0.919
  669SOL    HW2 2026   0.548   3.351   0.868
  670SOL     OW 2027   1.002   2.658   1.238
  670SOL    HW1 2028   1.043   2.626   1.324
  670SOL    HW2 2029   0.906   2.631   1.235
  671SOL     OW 2030   0.040   2.406   1.114
  671SOL    HW1 2031   0.125   2.373   1.073
  671SOL    HW2 2032   0.053   2.421   1.212
  672SOL     OW 2033   0.189   2.382   1.722
  672SOL    HW1 2034   0.248   2.342   1.652
  672SOL    HW2 2035   0.131   2.453   1.681
  673SOL     OW 2036   1.369   2.812   1.660
  673SOL    HW1 2037   1.408   2.901   1.680
  673SOL    HW2 2038   1.379   2.792   1.563
  674SOL     OW 2039   0.815   2.434   0.325
  674SOL    HW1 2040   0.822   2.345   0.279
  674SOL    HW2 2041   0.721   2.468   0.317
  675SOL     OW 2042   1.657   2.466   1.206
  675SOL    HW1 2043   1.619   2.397   1.268
  675SOL    HW2 2044   1.739   2.430   1.162
  676SOL     OW 2045   0.252   3.426   1.744
  676SOL    HW1 2046   0.222   3.483   1.820
  676SOL    HW2 2047   0.245   3.329   1.770
  677SOL     OW 2048   0.671   2.326   1.269
  677SOL    HW1 2049   0.637   2.237   1.239
  677SOL    HW2 2050   0.697   2.380   1.189
  678SOL     OW 2051   0.930   3.540   1.465
  678SOL    HW1 2052   0.906   3.522   1.370
  678SOL    HW2 2053   0.960   3.634   1.475
  679SOL     OW 2054   0.473   2.362   0.191
  679SOL    HW1 2055   0.534   2.442   0.195
  679SOL    HW2 2056   0.378   2.393   0.198
  680SOL     OW 2057   0.159   2.999   1.466
  680SOL    HW1 2058   0.181   2.938   1.542
  680SOL    HW2 2059   0.169   2.950   1.380
  681SOL     OW 2060   1.347   2.921   1.234
  681SOL    HW1 2061   1.371   2.858   1.160
  681SOL    HW2 2062   1.257   2.961   1.216
  682SOL     OW 2063   1.302   2.717   0.309
  682SOL    HW1 2064   1.216   2.686   0.351
  682SOL    HW2 2065   1.298   2.703   0.210
  683SOL     OW 2066   1.759   3.609   1.154
  683SOL    HW1 2067   1.820   3.639   1.081
  683SOL    HW2 2068   1.721   3.520   1.132
  684SOL     OW 2069   1.252   3.593   1.128
  684SOL    HW1 2070   1.336   3.598   1.074
  684SOL    HW2 2071   1.229   3.497   1.146
  685SOL     OW 2072   0.083   3.120   1.022
  685SOL    HW1 2073   0.078   3.119   1.122
  685SOL    HW2 2074   0.000   3.079   0.984
  686SOL     OW 2075   0.688   3.524   1.716
  686SOL    HW1 2076   0.632   3.605   1.725
  686SOL    HW2 2077   0.740   3.528   1.630
  687SOL     OW 2078   0.903   1.948   0.133
  687SOL    HW1 2079   0.954   1.949   0.047
  687SOL    HW2 2080   0.959   1.906   0.204
  688SOL     OW 2081   1.726   1.997   0.523
  688SOL    HW1 2082   1.799   1.980   0.456
  688SOL    HW2 2083   1.695   1.910   0.561
  689SOL     OW 2084   1.388   3.435   0.477
  689SOL    HW1 2085   1.455   3.447   0.403
  689SOL    HW2 2086   1.348   3.524   0.500
  690SOL     OW 2087   0.130   3.656   1.851
  690SOL    HW1 2088   0.089   3.582   1.904
  690SOL    HW2 2089   0.194   3.707   1.909
  691SOL     OW 2090   1.280   2.789   0.672
  691SOL    HW1 2091   1.340   2.708   0.674
  691SOL    HW2 2092   1.320   2.858   0.612
  692SOL     OW 2093   0.830   3.135   1.422
  692SOL    HW1 2094   0.825   3.168   1.517
  692SOL    HW2 2095   0.744   3.154   1.376
  693SOL     OW 2096   0.672   3.478   0.154
  693SOL    HW1 2097   0.681   3.488   0.055
  693SOL    HW2 2098   0.632   3.389   0.175
  694SOL     OW 2099   1.650   3.582   1.394
  694SOL    HW1 2100   1.703   3.592   1.310
  694SOL    HW2 2101   1.623   3.672   1.428
  695SOL     OW 2102   1.841   2.037   0.963
  695SOL    HW1 2103   1.880   1.952   0.927
  695SOL    HW2 2104   1.743   2.039   0.944
  696SOL     OW 2105   0.263   2.188   0.720
  696SOL    HW1 2106   0.184   2.239   0.686
  696SOL    HW2 2107   0.254   2.173   0.818
  697SOL     OW 2108   1.194   3.474   0.031
  697SOL    HW1 2109   1.200   3.381   0.068
  697SOL    HW2 2110   1.135   3.474  -0.049
  698SOL     OW 2111   0.822   2.864   1.372
  698SOL    HW1 2112   0.862   2.863   1.280
  698SOL    HW2 2113   0.832   2.956   1.412
  699SOL     OW 2114   0.916   2.772   0.291
  699SOL    HW1 2115   0.979   2.810   0.223
  699SOL    HW2 2116   0.956   2.689   0.330
  700SOL     OW 2117   1.504   3.469   0.044
  700SOL    HW1 2118   1.412   3.506   0.051
  700SOL    HW2 2119   1.542   3.489  -0.046
  701SOL     OW 2120   0.372   3.150   1.490
  701SOL    HW1 2121   0.359   3.243   1.456
  701SOL    HW2 2122   0.288   3.098   1.477
  702SOL     OW 2123   1.614   3.154   1.289
  702SOL    HW1 2124   1.674   3.157   1.369
  702SOL    HW2 2125   1.539   3.218   1.302
  703SOL     OW 2126   1.039   2.960   0.696
  703SOL    HW1 2127   0.969   2.913   0.750
  703SOL    HW2 2128   1.098   2.892   0.653
  704SOL     OW 2129   1.014   2.098   0.971
  704SOL    HW1 2130   1.006   2.062   0.878
  704SOL    HW2 2131   1.012   2.022   1.036
  705SOL     OW 2132   0.590   3.349   0.491
  705SOL    HW1 2133   0.632   3.291   0.421
  705SOL    HW2 2134   0.546   3.428   0.447
  706SOL     OW 2135   1.709   2.247   1.381
  706SOL    HW1 2136   1.782   2.316   1.385
  706SOL    HW2 2137   1.737   2.172   1.322
  707SOL     OW 2138   0.255   3.210   0.290
  707SOL    HW1 2139   0.159   3.211   0.263
  707SOL    HW2 2140   0.267   3.263   0.374
  708SOL     OW 2141   0.105   2.875   1.726
  708SOL    HW1 2142   0.028   2.842   1.780
  708SOL    HW2 2143   0.190   2.845   1.768
  709SOL     OW 2144   0.672   2.065   1.489
  709SOL    HW1 2145   0.762   2.049   1.449
  709SOL    HW2 2146   0.680   2.070   1.588
  710SOL     OW 2147   0.075   2.207   0.033
  710SOL    HW1 2148  -0.017   2.179   0.004
  710SOL    HW2 2149   0.106   2.284  -0.023
  711SOL     OW 2150   1.440   2.718   1.398
  711SOL    HW1 2151   1.383   2.770   1.335
  711SOL    HW2 2152   1.536   2.730   1.374
  712SOL     OW 2153   0.072   2.028   0.318
  712SOL    HW1 2154   0.055   2.111   0.264
  712SOL    HW2 2155   0.162   1.991   0.296
  713SOL     OW 2156   1.183   3.197   0.119
  713SOL    HW1 2157   1.084   3.186   0.121
  713SOL    HW2 2158   1.217   3.212   0.212
  714SOL     OW 2159   0.613   2.704   1.431
  714SOL    HW1 2160   0.669   2.785   1.414
  714SOL    HW2 2161   0.672   2.624   1.434
  715SOL     OW 2162   1.493   3.629   0.959
  715SOL    HW1 2163   1.526   3.693   0.890
  715SOL    HW2 2164   1.559   3.623   1.034
  716SOL     OW 2165   0.716   2.427   1.708
  716SOL    HW1 2166   0.735   2.492   1.782
  716SOL    HW2 2167   0.776   2.347   1.717
  717SOL     OW 2168   1.450   3.082   1.633
  717SOL    HW1 2169   1.441   3.072   1.732
  717SOL    HW2 2170   1.546   3.075   1.607
  718SOL     OW 2171   0.390   3.603   1.560
  718SOL    HW1 2172   0.299   3.644   1.558
  718SOL    HW2 2173   0.383   3.509   1.592
  719SOL     OW 2174   1.674   2.745   1.254
  719SOL    HW1 2175   1.647   2.656   1.217
  719SOL    HW2 2176   1.675   2.813   1.181
  720SOL     OW 2177   1.225   2.187   0.449
  720SOL    HW1 2178   1.290   2.113   0.438
  720SOL    HW2 2179   1.245   2.237   0.533
  721SOL     OW 2180   0.594   2.607   0.652
  721SOL    HW1 2181   0.644   2.692   0.633
  721SOL    HW2 2182   0.506   2.609   0.604
  722SOL     OW 2183   1.777   2.204   1.642
  722SOL    HW1 2184   1.760   2.235   1.548
  722SOL    HW2 2185   1.693   2.167   1.680
  723SOL     OW 2186   1.730   2.796   1.517
  723SOL    HW1 2187   1.768   2.887   1.532
  723SOL    HW2 2188   1.722   2.779   1.418
  724SOL     OW 2189   0.859   3.236   0.016
  724SOL    HW1 2190   0.813   3.251   0.104
  724SOL    HW2 2191   0.903   3.321  -0.014
  725SOL     OW 2192   0.661   3.652   0.953
  725SOL    HW1 2193   0.615   3.740   0.940
  725SOL    HW2 2194   0.760   3.664   0.946
  726SOL     OW 2195   0.859   2.818   0.861
  726SOL    HW1 2196   0.913   2.749   0.909
  726SOL    HW2 2197   0.827   2.887   0.927
  727SOL     OW 2198   1.083   2.846   0.087
  727SOL    HW1 2199   1.060   2.899   0.005
  727SOL    HW2 2200   1.164   2.790   0.068
  728SOL     OW 2201   1.861   3.431   0.851
  728SOL    HW1 2202   1.790   3.419   0.781
  728SOL    HW2 2203   1.862   3.352   0.911
  729SOL     OW 2204   0.221   3.176   1.844
  729SOL    HW1 2205   0.156   3.103   1.823
  729SOL    HW2 2206   0.225   3.190   1.942
  730SOL     OW 2207   0.079   3.102   0.653
  730SOL    HW1 2208   0.078   3.055   0.741
  730SOL    HW2 2209   0.161   3.074   0.602
  731SOL     OW 2210   0.672   3.253   1.624
  731SOL    HW1 2211   0.594   3.203   1.662
  731SOL    HW2 2212   0.669   3.348   1.655
  732SOL     OW 2213   1.824   2.054   1.227
  732SOL    HW1 2214   1.820   1.964   1.271
  732SOL    HW2 2215   1.827   2.043   1.128
  733SOL     OW 2216   0.428   2.286   0.520
  733SOL    HW1 2217   0.458   2.214   0.458
  733SOL    HW2 2218   0.389   2.246   0.603
  734SOL     OW 2219   1.705   3.349   1.104
  734SOL    HW1 2220   1.612   3.324   1.077
  734SOL    HW2 2221   1.731   3.299   1.186
  735SOL     OW 2222   0.317   2.409   1.280
  735SOL    HW1 2223   0.355   2.350   1.352
  735SOL    HW2 2224   0.357   2.383   1.192
  736SOL     OW 2225   0.812   3.448   0.687
  736SOL    HW1 2226   0.844   3.458   0.593
  736SOL    HW2 2227   0.733   3.386   0.689
  737SOL     OW 2228   1.424   2.076   1.112
  737SOL    HW1 2229   1.476   2.011   1.167
  737SOL    HW2 2230   1.375   2.139   1.173
  738SOL     OW 2231   1.001   1.896   1.154
  738SOL    HW1 2232   0.938   1.824   1.123
  738SOL    HW2 2233   1.094   1.860   1.154
  739SOL     OW 2234   0.770   3.192   0.301
  739SOL    HW1 2235   0.724   3.105   0.318
  739SOL    HW2 2236   0.861   3.189   0.342
  740SOL     OW 2237   0.618   3.429   1.284
  740SOL    HW1 2238   0.613   3.511   1.341
  740SOL    HW2 2239   0.707   3.426   1.239
  741SOL     OW 2240   1.352   1.914   0.168
  741SOL    HW1 2241   1.387   1.873   0.084
  741SOL    HW2 2242   1.262   1.876   0.188
  742SOL     OW 2243   1.300   2.315   0.691
  742SOL    HW1 2244   1.241   2.395   0.695
  742SOL    HW2 2245   1.315   2.280   0.784
  743SOL     OW 2246   1.593   2.083   0.882
  743SOL    HW1 2247   1.509   2.082   0.936
  743SOL    HW2 2248   1.595   2.166   0.826
  744SOL     OW 2249   0.039   2.939   0.300
  744SOL    HW1 2250   0.138   2.928   0.291
  744SOL    HW2 2251  -0.001   2.853   0.332
  745SOL     OW 2252   0.875   3.508   0.337
  745SOL    HW1 2253   0.798   3.473   0.283
  745SOL    HW2 2254   0.843   3.579   0.399
  746SOL     OW 2255   0.230   2.490   1.975
  746SOL    HW1 2256   0.137   2.488   2.012
  746SOL    HW2 2257   0.231   2.451   1.883
  747SOL     OW 2258   0.225   2.137   2.858
  747SOL    HW1 2259   0.260   2.120   2.950
  747SOL    HW2 2260   0.137   2.092   2.846
  748SOL     OW 2261   0.019   2.230   2.509
  748SOL    HW1 2262  -0.063   2.273   2.548
  748SOL    HW2 2263  -0.009   2.157   2.446
  749SOL     OW 2264   0.569   3.137   3.027
  749SOL    HW1 2265   0.476   3.130   2.990
  749SOL    HW2 2266   0.580   3.226   3.071
  750SOL     OW 2267   1.555   3.373   2.565
  750SOL    HW1 2268   1.498   3.357   2.646
  750SOL    HW2 2269   1.496   3.383   2.485
  751SOL     OW 2270   1.135   2.565   2.579
  751SOL    HW1 2271   1.192   2.643   2.554
  751SOL    HW2 2272   1.075   2.591   2.655
  752SOL     OW 2273   1.755   2.469   2.093
  752SOL    HW1 2274   1.743   2.456   1.994
  752SOL    HW2 2275   1.725   2.388   2.142
  753SOL     OW 2276   0.768   3.006   2.885
  753SOL    HW1 2277   0.690   3.023   2.945
  753SOL    HW2 2278   0.802   3.093   2.849
  754SOL     OW 2279   0.850   2.660   3.685
  754SOL    HW1 2280   0.846   2.736   3.750
  754SOL    HW2 2281   0.872   2.696   3.594
  755SOL     OW 2282   0.685   2.874   2.527
  755SOL    HW1 2283   0.754   2.858   2.597
  755SOL    HW2 2284   0.612   2.931   2.565
  756SOL     OW 2285   0.686   3.023   3.665
  756SOL    HW1 2286   0.746   3.102   3.679
  756SOL    HW2 2287   0.600   3.054   3.624
  757SOL     OW 2288   0.335   3.297   2.923
  757SOL    HW1 2289   0.257   3.266   2.870
  757SOL    HW2 2290   0.393   3.355   2.866
  758SOL     OW 2291   1.460   3.367   3.201
  758SOL    HW1 2292   1.484   3.461   3.227
  758SOL    HW2 2293   1.444   3.313   3.283
  759SOL     OW 2294   0.438   2.254   3.361
  759SOL    HW1 2295   0.520   2.198   3.370
  759SOL    HW2 2296   0.357   2.196   3.365
  760SOL     OW 2297   1.603   2.309   2.599
  760SOL    HW1 2298   1.529   2.355   2.549
  760SOL    HW2 2299   1.654   2.377   2.652
  761SOL     OW 2300   0.231   3.575   2.345
  761SOL    HW1 2301   0.265   3.652   2.399
  761SOL    HW2 2302   0.275   3.575   2.255
  762SOL     OW 2303   1.127   3.203   3.552
  762SOL    HW1 2304   1.174   3.203   3.640
  762SOL    HW2 2305   1.079   3.116   3.541
  763SOL     OW 2306   0.230   3.296   2.400
  763SOL    HW1 2307   0.204   3.392   2.400
  763SOL    HW2 2308   0.159   3.242   2.445
  764SOL     OW 2309   0.240   2.953   2.748
  764SOL    HW1 2310   0.254   2.869   2.800
  764SOL    HW2 2311   0.185   3.017   2.803
  765SOL     OW 2312   0.620   3.648   3.301
  765SOL    HW1 2313   0.528   3.631   3.336
  765SOL    HW2 2314   0.648   3.740   3.327
  766SOL     OW 2315   0.606   2.826   1.985
  766SOL    HW1 2316   0.613   2.910   1.931
  766SOL    HW2 2317   0.652   2.839   2.073
  767SOL     OW 2318   1.594   1.976   3.342
  767SOL    HW1 2319   1.576   2.043   3.270
  767SOL    HW2 2320   1.591   2.022   3.431
  768SOL     OW 2321   0.122   2.505   2.425
  768SOL    HW1 2322   0.077   2.417   2.442
  768SOL    HW2 2323   0.121   2.559   2.509
  769SOL     OW 2324   1.842   3.629   2.221
  769SOL    HW1 2325   1.896   3.600   2.301
  769SOL    HW2 2326   1.872   3.719   2.192
  770SOL     OW 2327   0.027   3.458   1.979
  770SOL    HW1 2328   0.008   3.362   2.000
  770SOL    HW2 2329  -0.006   3.516   2.054
  771SOL     OW 2330   1.689   2.784   2.474
  771SOL    HW1 2331   1.784   2.755   2.482
  771SOL    HW2 2332   1.681   2.849   2.399
  772SOL     OW 2333   1.641   2.970   2.294
  772SOL    HW1 2334   1.727   2.972   2.242
  772SOL    HW2 2335   1.655   3.017   2.382
  773SOL     OW 2336   0.113   2.599   3.459
  773SOL    HW1 2337   0.201   2.586   3.504
  773SOL    HW2 2338   0.100   2.696   3.437
  774SOL     OW 2339   0.613   3.227   2.588
  774SOL    HW1 2340   0.564   3.140   2.597
  774SOL    HW2 2341   0.590   3.270   2.501
  775SOL     OW 2342   1.293   3.090   3.285
  775SOL    HW1 2343   1.330   3.017   3.227
  775SOL    HW2 2344   1.345   3.095   3.370
  776SOL     OW 2345   0.809   1.866   2.364
  776SOL    HW1 2346   0.849   1.957   2.355
  776SOL    HW2 2347   0.709   1.874   2.370
  777SOL     OW 2348   0.197   2.838   3.126
  777SOL    HW1 2349   0.286   2.793   3.112
  777SOL    HW2 2350   0.124   2.773   3.107
  778SOL     OW 2351   1.525   2.861   2.052
  778SOL    HW1 2352   1.462   2.785   2.065
  778SOL    HW2 2353   1.573   2.879   2.138
  779SOL     OW 2354   1.187   3.654   3.478
  779SOL    HW1 2355   1.211   3.714   3.402
  779SOL    HW2 2356   1.194   3.559   3.448
  780SOL     OW 2357   0.317   2.113   3.663
  780SOL    HW1 2358   0.388   2.184   3.669
  780SOL    HW2 2359   0.229   2.152   3.691
  781SOL     OW 2360   1.466   3.279   2.815
  781SOL    HW1 2361   1.407   3.285   2.895
  781SOL    HW2 2362   1.451   3.191   2.769
  782SOL     OW 2363   1.667   3.576   2.434
  782SOL    HW1 2364   1.626   3.553   2.346
  782SOL    HW2 2365   1.649   3.502   2.499
  783SOL     OW 2366   0.598   2.591   2.132
  783SOL    HW1 2367   0.622   2.660   2.064
  783SOL    HW2 2368   0.520   2.624   2.186
  784SOL     OW 2369   1.281   2.207   2.806
  784SOL    HW1 2370   1.195   2.157   2.793
  784SOL    HW2 2371   1.343   2.153   2.862
  785SOL     OW 2372   1.576   3.524   2.169
  785SOL    HW1 2373   1.665   3.570   2.172
  785SOL    HW2 2374   1.555   3.500   2.074
  786SOL     OW 2375   0.807   2.467   3.327
  786SOL    HW1 2376   0.760   2.464   3.416
  786SOL    HW2 2377   0.756   2.412   3.261
  787SOL     OW 2378   1.394   2.331   3.536
  787SOL    HW1 2379   1.374   2.374   3.624
  787SOL    HW2 2380   1.472   2.269   3.545
  788SOL     OW 2381   0.973   2.752   3.434
  788SOL    HW1 2382   1.019   2.668   3.405
  788SOL    HW2 2383   0.917   2.786   3.359
  789SOL     OW 2384   0.991   2.272   3.104
  789SOL    HW1 2385   0.914   2.306   3.158
  789SOL    HW2 2386   0.957   2.221   3.025
  790SOL     OW 2387   1.041   2.563   2.291
  790SOL    HW1 2388   1.067   2.559   2.387
  790SOL    HW2 2389   0.956   2.512   2.277
  791SOL     OW 2390   0.076   2.673   2.651
  791SOL    HW1 2391   0.175   2.661   2.660
  791SOL    HW2 2392   0.052   2.768   2.672
  792SOL     OW 2393   0.130   3.683   3.433
  792SOL    HW1 2394   0.120   3.668   3.532
  792SOL    HW2 2395   0.044   3.719   3.397
  793SOL     OW 2396   0.865   2.210   2.057
  793SOL    HW1 2397   0.924   2.273   2.008
  793SOL    HW2 2398   0.884   2.116   2.028
  794SOL     OW 2399   1.719   2.447   3.693
  794SOL    HW1 2400   1.693   2.536   3.657
  794SOL    HW2 2401   1.717   2.379   3.620
  795SOL     OW 2402   1.362   3.006   2.407
  795SOL    HW1 2403   1.445   2.977   2.359
  795SOL    HW2 2404   1.313   3.073   2.351
  796SOL     OW 2405   0.550   2.058   2.747
  796SOL    HW1 2406   0.545   2.053   2.847
  796SOL    HW2 2407   0.552   2.154   2.718
  797SOL     OW 2408   1.008   3.318   2.339
  797SOL    HW1 2409   0.962   3.390   2.287
  797SOL    HW2 2410   1.004   3.338   2.437
  798SOL     OW 2411   0.351   3.663   2.715
  798SOL    HW1 2412   0.401   3.577   2.721
  798SOL    HW2 2413   0.416   3.740   2.712
  799SOL     OW 2414   1.795   2.928   2.735
  799SOL    HW1 2415   1.733   2.913   2.659
  799SOL    HW2 2416   1.743   2.939   2.820
  800SOL     OW 2417   1.227   3.412   3.368
  800SOL    HW1 2418   1.233   3.335   3.432
  800SOL    HW2 2419   1.175   3.386   3.288
  801SOL     OW 2420   0.321   2.805   2.104
  801SOL    HW1 2421   0.403   2.844   2.062
  801SOL    HW2 2422   0.294   2.723   2.055
  802SOL     OW 2423   1.458   2.597   2.590
  802SOL    HW1 2424   1.453   2.532   2.665
  802SOL    HW2 2425   1.538   2.656   2.603
  803SOL     OW 2426   0.461   3.128   3.589
  803SOL    HW1 2427   0.411   3.129   3.503
  803SOL    HW2 2428   0.398   3.110   3.665
  804SOL     OW 2429   1.111   3.638   2.099
  804SOL    HW1 2430   1.051   3.576   2.149
  804SOL    HW2 2431   1.142   3.594   2.014
  805SOL     OW 2432   0.202   2.147   3.360
  805SOL    HW1 2433   0.122   2.207   3.347
  805SOL    HW2 2434   0.192   2.098   3.446
  806SOL     OW 2435   1.632   3.239   1.943
  806SOL    HW1 2436   1.600   3.333   1.933
  806SOL    HW2 2437   1.556   3.176   1.931
  807SOL     OW 2438   0.464   3.605   2.185
  807SOL    HW1 2439   0.497   3.644   2.271
  807SOL    HW2 2440   0.540   3.598   2.120
  808SOL     OW 2441   1.400   1.969   2.288
  808SOL    HW1 2442   1.376   1.932   2.198
  808SOL    HW2 2443   1.499   1.985   2.292
  809SOL     OW 2444   0.249   3.647   3.103
  809SOL    HW1 2445   0.306   3.582   3.153
  809SOL    HW2 2446   0.233   3.614   3.010
  810SOL     OW 2447   0.940   3.560   2.766
  810SOL    HW1 2448   1.020   3.503   2.787
  810SOL    HW2 2449   0.891   3.520   2.689
  811SOL     OW 2450   0.382   2.562   2.342
  811SOL    HW1 2451   0.427   2.472   2.339
  811SOL    HW2 2452   0.288   2.551   2.375
  812SOL     OW 2453   1.547   2.084   3.591
  812SOL    HW1 2454   1.542   2.121   3.683
  812SOL    HW2 2455   1.475   2.015   3.579
  813SOL     OW 2456   0.614   1.984   1.979
  813SOL    HW1 2457   0.712   1.962   1.986
  813SOL    HW2 2458   0.583   1.967   1.886
  814SOL     OW 2459   0.781   2.126   3.611
  814SOL    HW1 2460   0.848   2.065   3.654
  814SOL    HW2 2461   0.708   2.145   3.676
  815SOL     OW 2462   0.888   3.376   3.057
  815SOL    HW1 2463   0.865   3.351   2.963
  815SOL    HW2 2464   0.949   3.307   3.096
  816SOL     OW 2465   1.351   2.452   3.295
  816SOL    HW1 2466   1.379   2.409   3.380
  816SOL    HW2 2467   1.376   2.548   3.296
  817SOL     OW 2468   0.803   3.264   2.786
  817SOL    HW1 2469   0.893   3.278   2.744
  817SOL    HW2 2470   0.732   3.266   2.715
  818SOL     OW 2471   0.922   2.365   2.761
  818SOL    HW1 2472   0.897   2.356   2.665
  818SOL    HW2 2473   0.970   2.283   2.792
  819SOL     OW 2474   0.539   1.926   2.374
  819SOL    HW1 2475   0.458   1.927   2.432
  819SOL    HW2 2476   0.542   2.009   2.319
  820SOL     OW 2477   1.434   3.050   1.903
  820SOL    HW1 2478   1.466   2.974   1.960
  820SOL    HW2 2479   1.342   3.077   1.933
  821SOL     OW 2480   0.297   1.897   2.033
  821SOL    HW1 2481   0.346   1.981   2.012
  821SOL    HW2 2482   0.359   1.832   2.078
  822SOL     OW 2483   0.935   2.098   2.342
  822SOL    HW1 2484   0.887   2.139   2.264
  822SOL    HW2 2485   1.034   2.096   2.323
  823SOL     OW 2486   1.076   2.545   3.326
  823SOL    HW1 2487   0.996   2.484   3.329
  823SOL    HW2 2488   1.157   2.492   3.302
  824SOL     OW 2489   1.227   3.432   2.655
  824SOL    HW1 2490   1.248   3.506   2.590
  824SOL    HW2 2491   1.295   3.432   2.728
  825SOL     OW 2492   0.459   3.014   2.603
  825SOL    HW1 2493   0.388   2.987   2.668
  825SOL    HW2 2494   0.433   2.986   2.510
  826SOL     OW 2495   1.271   3.659   2.453
  826SOL    HW1 2496   1.315   3.723   2.389
  826SOL    HW2 2497   1.221   3.711   2.523
  827SOL     OW 2498   1.032   2.411   1.878
  827SOL    HW1 2499   0.991   2.493   1.839
  827SOL    HW2 2500   1.096   2.437   1.951
  828SOL     OW 2501   0.078   2.418   3.248
  828SOL    HW1 2502   0.170   2.417   3.207
  828SOL    HW2 2503   0.072   2.492   3.315
  829SOL     OW 2504   0.561   2.084   3.009
  829SOL    HW1 2505   0.599   2.000   3.046
  829SOL    HW2 2506   0.473   2.103   3.053
  830SOL     OW 2507   0.866   2.316   2.504
  830SOL    HW1 2508   0.834   2.388   2.442
  830SOL    HW2 2509   0.890   2.235   2.451
  831SOL     OW 2510   1.017   1.901   2.615
  831SOL    HW1 2511   0.945   1.906   2.546
  831SOL    HW2 2512   0.993   1.832   2.684
  832SOL     OW 2513   1.429   3.035   2.729
  832SOL    HW1 2514   1.374   2.951   2.722
  832SOL    HW2 2515   1.455   3.064   2.637
  833SOL     OW 2516   1.466   2.452   2.854
  833SOL    HW1 2517   1.436   2.357   2.861
  833SOL    HW2 2518   1.539   2.468   2.920
  834SOL     OW 2519   1.857   2.695   2.239
  834SOL    HW1 2520   1.899   2.631   2.303
  834SOL    HW2 2521   1.819   2.644   2.161
  835SOL     OW 2522   0.488   3.247   2.036
  835SOL    HW1 2523   0.401   3.232   2.083
  835SOL    HW2 2524   0.471   3.273   1.941
  836SOL     OW 2525   1.664   3.142   2.519
  836SOL    HW1 2526   1.763   3.150   2.533
  836SOL    HW2 2527   1.619   3.226   2.550
  837SOL     OW 2528   1.390   2.437   1.940
  837SOL    HW1 2529   1.336   2.416   2.021
  837SOL    HW2 2530   1.481   2.396   1.949
  838SOL     OW 2531   0.527   2.118   2.190
  838SOL    HW1 2532   0.554   2.059   2.115
  838SOL    HW2 2533   0.527   2.213   2.159
  839SOL     OW 2534   1.754   3.085   3.450
  839SOL    HW1 2535   1.845   3.046   3.437
  839SOL    HW2 2536   1.762   3.181   3.474
  840SOL     OW 2537   1.064   3.209   3.202
  840SOL    HW1 2538   0.984   3.186   3.257
  840SOL    HW2 2539   1.147   3.183   3.251
  841SOL     OW 2540   1.592   3.491   3.487
  841SOL    HW1 2541   1.619   3.525   3.397
  841SOL    HW2 2542   1.671   3.453   3.533
  842SOL     OW 2543   1.111   3.057   2.962
  842SOL    HW1 2544   1.071   3.101   3.043
  842SOL    HW2 2545   1.070   3.094   2.879
  843SOL     OW 2546   1.638   2.961   2.941
  843SOL    HW1 2547   1.643   3.042   3.000
  843SOL    HW2 2548   1.552   2.963   2.890
  844SOL     OW 2549   0.915   1.951   3.264
  844SOL    HW1 2550   0.940   1.931   3.169
  844SOL    HW2 2551   0.987   2.007   3.306
  845SOL     OW 2552   0.980   2.978   3.581
  845SOL    HW1 2553   0.881   2.984   3.591
  845SOL    HW2 2554   1.003   2.898   3.525
  846SOL     OW 2555   0.705   2.912   2.230
  846SOL    HW1 2556   0.691   2.919   2.329
  846SOL    HW2 2557   0.789   2.861   2.212
  847SOL     OW 2558   0.410   2.675   3.113
  847SOL    HW1 2559   0.496   2.687   3.163
  847SOL    HW2 2560   0.368   2.588   3.140
  848SOL     OW 2561   1.274   2.248   3.124
  848SOL    HW1 2562   1.295   2.322   3.188
  848SOL    HW2 2563   1.185   2.265   3.081
  849SOL     OW 2564   0.064   3.426   3.193
  849SOL    HW1 2565   0.018   3.508   3.159
  849SOL    HW2 2566   0.162   3.445   3.202
  850SOL     OW 2567   0.367   2.962   2.363
  850SOL    HW1 2568   0.360   3.045   2.307
  850SOL    HW2 2569   0.371   2.882   2.303
  851SOL     OW 2570   0.566   2.399   2.727
  851SOL    HW1 2571   0.578   2.465   2.653
  851SOL    HW2 2572   0.612   2.433   2.810
  852SOL     OW 2573   1.252   3.210   2.250
  852SOL    HW1 2574   1.302   3.287   2.290
  852SOL    HW2 2575   1.157   3.212   2.282
  853SOL     OW 2576   1.272   3.307   3.004
  853SOL    HW1 2577   1.319   3.320   3.091
  853SOL    HW2 2578   1.206   3.233   3.013
  854SOL     OW 2579   1.582   2.501   2.334
  854SOL    HW1 2580   1.551   2.562   2.407
  854SOL    HW2 2581   1.632   2.553   2.265
  855SOL     OW 2582   0.354   3.372   3.191
  855SOL    HW1 2583   0.333   3.328   3.104
  855SOL    HW2 2584   0.451   3.398   3.194
  856SOL     OW 2585   0.402   2.613   3.460
  856SOL    HW1 2586   0.470   2.668   3.413
  856SOL    HW2 2587   0.442   2.525   3.487
  857SOL     OW 2588   1.587   2.641   3.532
  857SOL    HW1 2589   1.495   2.679   3.527
  857SOL    HW2 2590   1.647   2.688   3.467
  858SOL     OW 2591   1.013   1.967   3.632
  858SOL    HW1 2592   1.019   2.052   3.580
  858SOL    HW2 2593   1.045   1.891   3.575
  859SOL     OW 2594   0.504   1.912   3.602
  859SOL    HW1 2595   0.462   1.855   3.532
  859SOL    HW2 2596   0.438   1.981   3.634
  860SOL     OW 2597   0.573   2.732   2.891
  860SOL    HW1 2598   0.617   2.821   2.882
  860SOL    HW2 2599   0.510   2.732   2.968
  861SOL     OW 2600   1.360   2.724   2.907
  861SOL    HW1 2601   1.285   2.724   2.841
  861SOL    HW2 2602   1.397   2.632   2.916
  862SOL     OW 2603   1.209   2.387   2.137
  862SOL    HW1 2604   1.222   2.303   2.191
  862SOL    HW2 2605   1.180   2.461   2.197
  863SOL     OW 2606   0.307   2.075   3.093
  863SOL    HW1 2607   0.284   2.112   3.183
  863SOL    HW2 2608   0.277   1.980   3.087
  864SOL     OW 2609   0.037   3.172   3.144
  864SOL    HW1 2610   0.090   3.123   3.212
  864SOL    HW2 2611   0.059   3.270   3.149
  865SOL     OW 2612   0.732   2.496   2.926
  865SOL    HW1 2613   0.791   2.470   2.850
  865SOL    HW2 2614   0.704   2.592   2.915
  866SOL     OW 2615   1.728   2.797   3.716
  866SOL    HW1 2616   1.682   2.790   3.627
  866SOL    HW2 2617   1.666   2.841   3.782
  867SOL     OW 2618   0.307   1.925   2.480
  867SOL    HW1 2619   0.296   2.019   2.513
  867SOL    HW2 2620   0.302   1.862   2.557
  868SOL     OW 2621   1.622   2.229   2.236
  868SOL    HW1 2622   1.624   2.153   2.300
  868SOL    HW2 2623   1.574   2.306   2.276
  869SOL     OW 2624   1.023   2.628   2.828
  869SOL    HW1 2625   1.038   2.649   2.924
  869SOL    HW2 2626   0.993   2.533   2.819
  870SOL     OW 2627   0.980   3.435   3.562
  870SOL    HW1 2628   0.960   3.479   3.474
  870SOL    HW2 2629   1.019   3.344   3.546
  871SOL     OW 2630   1.859   3.380   3.467
  871SOL    HW1 2631   1.873   3.407   3.372
  871SOL    HW2 2632   1.942   3.402   3.520
  872SOL     OW 2633   0.350   2.760   3.666
  872SOL    HW1 2634   0.426   2.804   3.714
  872SOL    HW2 2635   0.385   2.713   3.584
  873SOL     OW 2636   1.540   2.136   1.987
  873SOL    HW1 2637   1.479   2.061   2.010
  873SOL    HW2 2638   1.562   2.188   2.070
  874SOL     OW 2639   1.303   2.700   1.904
  874SOL    HW1 2640   1.337   2.607   1.919
  874SOL    HW2 2641   1.321   2.727   1.809
  875SOL     OW 2642   1.068   3.195   2.711
  875SOL    HW1 2643   1.075   3.111   2.656
  875SOL    HW2 2644   1.130   3.264   2.675
  876SOL     OW 2645   0.319   2.672   2.811
  876SOL    HW1 2646   0.412   2.708   2.816
  876SOL    HW2 2647   0.313   2.587   2.863
  877SOL     OW 2648   0.339   2.371   2.868
  877SOL    HW1 2649   0.287   2.288   2.851
  877SOL    HW2 2650   0.416   2.376   2.804
  878SOL     OW 2651   1.138   2.242   3.540
  878SOL    HW1 2652   1.093   2.305   3.604
  878SOL    HW2 2653   1.231   2.273   3.523
  879SOL     OW 2654   1.160   2.069   3.339
  879SOL    HW1 2655   1.160   2.133   3.416
  879SOL    HW2 2656   1.188   2.117   3.256
  880SOL     OW 2657   0.008   3.188   2.062
  880SOL    HW1 2658  -0.085   3.209   2.031
  880SOL    HW2 2659   0.018   3.089   2.075
  881SOL     OW 2660   0.088   3.663   2.789
  881SOL    HW1 2661   0.046   3.577   2.762
  881SOL    HW2 2662   0.182   3.666   2.755
  882SOL     OW 2663   0.504   3.430   2.772
  882SOL    HW1 2664   0.570   3.504   2.781
  882SOL    HW2 2665   0.548   3.351   2.730
  883SOL     OW 2666   1.002   2.658   3.100
  883SOL    HW1 2667   1.043   2.626   3.186
  883SOL    HW2 2668   0.906   2.631   3.097
  884SOL     OW 2669   0.040   2.406   2.976
  884SOL    HW1 2670   0.125   2.373   2.935
  884SOL    HW2 2671   0.053   2.421   3.074
  885SOL     OW 2672   0.189   2.382   3.584
  885SOL    HW1 2673   0.248   2.342   3.514
  885SOL    HW2 2674   0.131   2.453   3.543
  886SOL     OW 2675   1.369   2.812   3.522
  886SOL    HW1 2676   1.408   2.901   3.542
  886SOL    HW2 2677   1.379   2.792   3.425
  887SOL     OW 2678   0.815   2.434   2.187
  887SOL    HW1 2679   0.822   2.345   2.141
  887SOL    HW2 2680   0.721   2.468   2.179
  888SOL     OW 2681   1.657   2.466   3.068
  888SOL    HW1 2682   1.619   2.397   3.130
  888SOL    HW2 2683   1.739   2.430   3.024
  889SOL     OW 2684   0.252   3.426   3.606
  889SOL    HW1 2685   0.222   3.483   3.682
  889SOL    HW2 2686   0.245   3.329   3.632
  890SOL     OW 2687   0.671   2.326   3.131
  890SOL    HW1 2688   0.637   2.237   3.101
  890SOL    HW2 2689   0.697   2.380   3.051
  891SOL     OW 2690   0.930   3.540   3.327
  891SOL    HW1 2691   0.906   3.522   3.232
  891SOL    HW2 2692   0.960   3.634   3.337
  892SOL     OW 2693   0.473   2.362   2.053
  892SOL    HW1 2694   0.534   2.442   2.057
  892SOL    HW2 2695   0.378   2.393   2.060
  893SOL     OW 2696   0.159   2.999   3.328
  893SOL    HW1 2697   0.181   2.938   3.404
  893SOL    HW2 2698   0.169   2.950   3.242
  894SOL     OW 2699   1.347   2.921   3.096
  894SOL    HW1 2700   1.371   2.858   3.022
  894SOL    HW2 2701   1.257   2.961   3.078
  895SOL     OW 2702   1.302   2.717   2.171
  895SOL    HW1 2703   1.216   2.686   2.213
  895SOL    HW2 2704   1.298   2.703   2.072
  896SOL     OW 2705   1.759   3.609   3.016
  896SOL    HW1 2706   1.820   3.639   2.943
  896SOL    HW2 2707   1.721   3.520   2.994
  897SOL     OW 2708   1.252   3.593   2.990
  897SOL    HW1 2709   1.336   3.598   2.936
  897SOL    HW2 2710   1.229   3.497   3.008
  898SOL     OW 2711   0.083   3.120   2.884
  898SOL    HW1 2712   0.078   3.119   2.984
  898SOL    HW2 2713   0.000   3.079   2.846
  899SOL     OW 2714   0.688   3.524   3.578
  899SOL    HW1 2715   0.632   3.605   3.587
  899SOL    HW2 2716   0.740   3.528   3.492
  900SOL     OW 2717   1.726   1.997   2.385
  900SOL    HW1 2718   1.799   1.980   2.318
  900SOL    HW2 2719   1.695   1.910   2.423
  901SOL     OW 2720   1.388   3.435   2.339
  901SOL    HW1 2721   1.455   3.447   2.265
  901SOL    HW2 2722   1.348   3.524   2.362
  902SOL     OW 2723   0.130   3.656   3.713
  902SOL    HW1 2724   0.089   3.582   3.766
  902SOL    HW2 2725   0.194   3.707   3.771
  903SOL     OW 2726   1.280   2.789   2.534
  903SOL    HW1 2727   1.340   2.708   2.536
  903SOL    HW2 2728   1.320   2.858   2.474
  904SOL     OW 2729   0.830   3.135   3.284
  904SOL    HW1 2730   0.825   3.168   3.379
  904SOL    HW2 2731   0.744   3.154   3.238
  905SOL     OW 2732   0.672   3.478   2.016
  905SOL    HW1 2733   0.681   3.488   1.917
  905SOL    HW2 2734   0.632   3.389   2.037
  906SOL     OW 2735   1.650   3.582   3.256
  906SOL    HW1 2736   1.703   3.592   3.172
  906SOL    HW2 2737   1.623   3.672   3.290
  907SOL     OW 2738   1.841   2.037   2.825
  907SOL    HW1 2739   1.880   1.952   2.789
  907SOL    HW2 2740   1.743   2.039   2.806
  908SOL     OW 2741   0.263   2.188   2.582
  908SOL    HW1 2742   0.184   2.239   2.548
  908SOL    HW2 2743   0.254   2.173   2.680
  909SOL     OW 2744   1.194   3.474   1.893
  909SOL    HW1 2745   1.200   3.381   1.930
  909SOL    HW2 2746   1.135   3.474   1.813
  910SOL     OW 2747   0.822   2.864   3.234
  910SOL    HW1 2748   0.862   2.863   3.142
  910SOL    HW2 2749   0.832   2.956   3.274
  911SOL     OW 2750   0.916   2.772   2.153
  911SOL    HW1 2751   0.979   2.810   2.085
  911SOL    HW2 2752   0.956   2.689   2.192
  912SOL     OW 2753   1.504   3.469   1.906
  912SOL    HW1 2754   1.412   3.506   1.913
  912SOL    HW2 2755   1.542   3.489   1.816
  913SOL     OW 2756   0.372   3.150   3.352
  913SOL    HW1 2757   0.359   3.243   3.318
  913SOL    HW2 2758   0.288   3.098   3.339
  914SOL     OW 2759   1.614   3.154   3.151
  914SOL    HW1 2760   1.674   3.157   3.231
  914SOL    HW2 2761   1.539   3.218   3.164
  915SOL     OW 2762   1.039   2.960   2.558
  915SOL    HW1 2763   0.969   2.913   2.612
  915SOL    HW2 2764   1.098   2.892   2.515
  916SOL     OW 2765   1.014   2.098   2.833
  916SOL    HW1 2766   1.006   2.062   2.740
  916SOL    HW2 2767   1.012   2.022   2.898
  917SOL     OW 2768   0.590   3.349   2.353
  917SOL    HW1 2769   0.632   3.291   2.283
  917SOL    HW2 2770   0.546   3.428   2.309
  918SOL     OW 2771   1.709   2.247   3.243
  918SOL    HW1 2772   1.782   2.316   3.247
  918SOL    HW2 2773   1.737   2.172   3.184
  919SOL     OW 2774   0.255   3.210   2.152
  919SOL    HW1 2775   0.159   3.211   2.125
  919SOL    HW2 2776   0.267   3.263   2.236
  920SOL     OW 2777   0.105   2.875   3.588
  920SOL    HW1 2778   0.028   2.842   3.642
  920SOL    HW2 2779   0.190   2.845   3.630
  921SOL     OW 2780   0.672   2.065   3.351
  921SOL    HW1 2781   0.762   2.049   3.311
  921SOL    HW2 2782   0.680   2.070   3.450
  922SOL     OW 2783   0.075   2.207   1.895
  922SOL    HW1 2784  -0.017   2.179   1.866
  922SOL    HW2 2785   0.106   2.284   1.839
  923SOL     OW 2786   1.440   2.718   3.260
  923SOL    HW1 2787   1.383   2.770   3.197
  923SOL    HW2 2788   1.536   2.730   3.236
  924SOL     OW 2789   0.072   2.028   2.180
  924SOL    HW1 2790   0.055   2.111   2.126
  924SOL    HW2 2791   0.162   1.991   2.158
  925SOL     OW 2792   1.183   3.197   1.981
  925SOL    HW1 2793   1.084   3.186   1.983
  925SOL    HW2 2794   1.217   3.212   2.074
  926SOL     OW 2795   0.613   2.704   3.293
  926SOL    HW1 2796   0.669   2.785   3.276
  926SOL    HW2 2797   0.672   2.624   3.296
  927SOL     OW 2798   1.493   3.629   2.821
  927SOL    HW1 2799   1.526   3.693   2.752
  927SOL    HW2 2800   1.559   3.623   2.896
  928SOL     OW 2801   0.716   2.427   3.570
  928SOL    HW1 2802   0.735   2.492   3.644
  928SOL    HW2 2803   0.776   2.347   3.579
  929SOL     OW 2804   1.450   3.082   3.495
  929SOL    HW1 2805   1.441   3.072   3.594
  929SOL    HW2 2806   1.546   3.075   3.469
  930SOL     OW 2807   0.390   3.603   3.422
  930SOL    HW1 2808   0.299   3.644   3.420
  930SOL    HW2 2809   0.383   3.509   3.454
  931SOL     OW 2810   1.674   2.745   3.116
  931SOL    HW1 2811   1.647   2.656   3.079
  931SOL    HW2 2812   1.675   2.813   3.043
  932SOL     OW 2813   1.225   2.187   2.311
  932SOL    HW1 2814   1.290   2.113   2.300
  932SOL    HW2 2815   1.245   2.237   2.395
  933SOL     OW 2816   0.594   2.607   2.514
  933SOL    HW1 2817   0.644   2.692   2.495
  933SOL    HW2 2818   0.506   2.609   2.466
  934SOL     OW 2819   1.777   2.204   3.504
  934SOL    HW1 2820   1.760   2.235   3.410
  934SOL    HW2 2821   1.693   2.167   3.542
  935SOL     OW 2822   1.730   2.796   3.379
  935SOL    HW1 2823   1.768   2.887   3.394
  935SOL    HW2 2824   1.722   2.779   3.280
  936SOL     OW 2825   0.859   3.236   1.878
  936SOL    HW1 2826   0.813   3.251   1.966
  936SOL    HW2 2827   0.903   3.321   1.848
  937SOL     OW 2828   0.661   3.652   2.815
  937SOL    HW1 2829   0.615   3.740   2.802
  937SOL    HW2 2830   0.760   3.664   2.808
  938SOL     OW 2831   0.859   2.818   2.723
  938SOL    HW1 2832   0.913   2.749   2.771
  938SOL    HW2 2833   0.827   2.887   2.789
  939SOL     OW 2834   1.083   2.846   1.949
  939SOL    HW1 2835   1.060   2.899   1.867
  939SOL    HW2 2836   1.164   2.790   1.930
  940SOL     OW 2837   1.861   3.431   2.713
  940SOL    HW1 2838   1.790   3.419   2.643
  940SOL    HW2 2839   1.862   3.352   2.773
  941SOL     OW 2840   0.221   3.176   3.706
  941SOL    HW1 2841   0.156   3.103   3.685
  941SOL    HW2 2842   0.225   3.190   3.804
  942SOL     OW 2843   0.079   3.102   2.515
  942SOL    HW1 2844   0.078   3.055   2.603
  942SOL    HW2 2845   0.161   3.074   2.464
  943SOL     OW 2846   0.672   3.253   3.486
  943SOL    HW1 2847   0.594   3.203   3.524
  943SOL    HW2 2848   0.669   3.348   3.517
  944SOL     OW 2849   1.824   2.054   3.089
  944SOL    HW1 2850   1.820   1.964   3.133
  944SOL    HW2 2851   1.827   2.043   2.990
  945SOL     OW 2852   0.428   2.286   2.382
  945SOL    HW1 2853   0.458   2.214   2.320
  945SOL    HW2 2854   0.389   2.246   2.465
  946SOL     OW 2855   1.705   3.349   2.966
  946SOL    HW1 2856   1.612   3.324   2.939
  946SOL    HW2 2857   1.731   3.299   3.048
  947SOL     OW 2858   0.317   2.409   3.142
  947SOL    HW1 2859   0.355   2.350   3.214
  947SOL    HW2 2860   0.357   2.383   3.054
  948SOL     OW 2861   0.812   3.448   2.549
  948SOL    HW1 2862   0.844   3.458   2.455
  948SOL    HW2 2863   0.733   3.386   2.551
  949SOL     OW 2864   1.424   2.076   2.974
  949SOL    HW1 2865   1.476   2.011   3.029
  949SOL    HW2 2866   1.375   2.139   3.035
  950SOL     OW 2867   1.001   1.896   3.016
  950SOL    HW1 2868   0.938   1.824   2.985
  950SOL    HW2 2869   1.094   1.860   3.016
  951SOL     OW 2870   0.770   3.192   2.163
  951SOL    HW1 2871   0.724   3.105   2.180
  951SOL    HW2 2872   0.861   3.189   2.204
  952SOL     OW 2873   0.618   3.429   3.146
  952SOL    HW1 2874   0.613   3.511   3.203
  952SOL    HW2 2875   0.707   3.426   3.101
  953SOL     OW 2876   1.352   1.914   2.030
  953SOL    HW1 2877   1.387   1.873   1.946
  953SOL    HW2 2878   1.262   1.876   2.050
  954SOL     OW 2879   1.300   2.315   2.553
  954SOL    HW1 2880   1.241   2.395   2.557
  954SOL    HW2 2881   1.315   2.280   2.646
  955SOL     OW 2882   1.593   2.083   2.744
  955SOL    HW1 2883   1.509   2.082   2.798
  955SOL    HW2 2884   1.595   2.166   2.688
  956SOL     OW 2885   0.039   2.939   2.162
  956SOL    HW1 2886   0.138   2.928   2.153
  956SOL    HW2 2887  -0.001   2.853   2.194
  957SOL     OW 2888   0.875   3.508   2.199
  957SOL    HW1 2889   0.798   3.473   2.145
  957SOL    HW2 2890   0.843   3.579   2.261
  958SOL     OW 2891   0.230   2.490   3.837
  958SOL    HW1 2892   0.137   2.488   3.874
  958SOL    HW2 2893   0.231   2.451   3.745
  959SOL     OW 2894   0.019   2.230   4.371
  959SOL    HW1 2895  -0.063   2.273   4.410
  959SOL    HW2 2896  -0.009   2.157   4.308
  960SOL     OW 2897   1.555   3.373   4.427
  960SOL    HW1 2898   1.498   3.357   4.508
  960SOL    HW2 2899   1.496   3.383   4.347
  961SOL     OW 2900   1.135   2.565   4.441
  961SOL    HW1 2901   1.192   2.643   4.416
  961SOL    HW2 2902   1.075   2.591   4.517
  962SOL     OW 2903   1.755   2.469   3.955
  962SOL    HW1 2904   1.743   2.456   3.856
  962SOL    HW2 2905   1.725   2.388   4.004
  963SOL     OW 2906   0.685   2.874   4.389
  963SOL    HW1 2907   0.754   2.858   4.459
  963SOL    HW2 2908   0.612   2.931   4.427
  964SOL     OW 2909   1.603   2.309   4.461
  964SOL    HW1 2910   1.529   2.355   4.411
  964SOL    HW2 2911   1.654   2.377   4.514
  965SOL     OW 2912   0.231   3.575   4.207
  965SOL    HW1 2913   0.265   3.652   4.261
  965SOL    HW2 2914   0.275   3.575   4.117
  966SOL     OW 2915   0.230   3.296   4.262
  966SOL    HW1 2916   0.204   3.392   4.262
  966SOL    HW2 2917   0.159   3.242   4.307
  967SOL     OW 2918   0.240   2.953   4.610
  967SOL    HW1 2919   0.254   2.869   4.662
  967SOL    HW2 2920   0.185   3.017   4.665
  968SOL     OW 2921   0.606   2.826   3.847
  968SOL    HW1 2922   0.613   2.910   3.793
  968SOL    HW2 2923   0.652   2.839   3.935
  969SOL     OW 2924   0.122   2.505   4.287
  969SOL    HW1 2925   0.077   2.417   4.304
  969SOL    HW2 2926   0.121   2.559   4.371
  970SOL     OW 2927   1.842   3.629   4.083
  970SOL    HW1 2928   1.896   3.600   4.163
  970SOL    HW2 2929   1.872   3.719   4.054
  971SOL     OW 2930   0.027   3.458   3.841
  971SOL    HW1 2931   0.008   3.362   3.862
  971SOL    HW2 2932  -0.006   3.516   3.916
  972SOL     OW 2933   1.689   2.784   4.336
  972SOL    HW1 2934   1.784   2.755   4.344
  972SOL    HW2 2935   1.681   2.849   4.261
  973SOL     OW 2936   1.641   2.970   4.156
  973SOL    HW1 2937   1.727   2.972   4.104
  973SOL    HW2 2938   1.655   3.017   4.244
  974SOL     OW 2939   0.613   3.227   4.450
  974SOL    HW1 2940   0.564   3.140   4.459
  974SOL    HW2 2941   0.590   3.270   4.363
  975SOL     OW 2942   0.809   1.866   4.226
  975SOL    HW1 2943   0.849   1.957   4.217
  975SOL    HW2 2944   0.709   1.874   4.232
  976SOL     OW 2945   1.525   2.861   3.914
  976SOL    HW1 2946   1.462   2.785   3.927
  976SOL    HW2 2947   1.573   2.879   4.000
  977SOL     OW 2948   1.466   3.279   4.677
  977SOL    HW1 2949   1.407   3.285   4.757
  977SOL    HW2 2950   1.451   3.191   4.631
  978SOL     OW 2951   1.667   3.576   4.296
  978SOL    HW1 2952   1.626   3.553   4.208
  978SOL    HW2 2953   1.649   3.502   4.361
  979SOL     OW 2954   0.598   2.591   3.994
  979SOL    HW1 2955   0.622   2.660   3.926
  979SOL    HW2 2956   0.520   2.624   4.048
  980SOL     OW 2957   1.281   2.207   4.668
  980SOL    HW1 2958   1.195   2.157   4.655
  980SOL    HW2 2959   1.343   2.153   4.724
  981SOL     OW 2960   1.576   3.524   4.031
  981SOL    HW1 2961   1.665   3.570   4.034
  981SOL    HW2 2962   1.555   3.500   3.936
  982SOL     OW 2963   1.041   2.563   4.153
  982SOL    HW1 2964   1.067   2.559   4.249
  982SOL    HW2 2965   0.956   2.512   4.139
  983SOL     OW 2966   0.076   2.673   4.513
  983SOL    HW1 2967   0.175   2.661   4.522
  983SOL    HW2 2968   0.052   2.768   4.534
  984SOL     OW 2969   0.865   2.210   3.919
  984SOL    HW1 2970   0.924   2.273   3.870
  984SOL    HW2 2971   0.884   2.116   3.890
  985SOL     OW 2972   1.362   3.006   4.269
  985SOL    HW1 2973   1.445   2.977   4.221
  985SOL    HW2 2974   1.313   3.073   4.213
  986SOL     OW 2975   0.550   2.058   4.609
  986SOL    HW1 2976   0.545   2.053   4.709
  986SOL    HW2 2977   0.552   2.154   4.580
  987SOL     OW 2978   1.008   3.318   4.201
  987SOL    HW1 2979   0.962   3.390   4.149
  987SOL    HW2 2980   1.004   3.338   4.299
  988SOL     OW 2981   0.351   3.663   4.577
  988SOL    HW1 2982   0.401   3.577   4.583
  988SOL    HW2 2983   0.416   3.740   4.574
  989SOL     OW 2984   1.795   2.928   4.597
  989SOL    HW1 2985   1.733   2.913   4.521
  989SOL    HW2 2986   1.743   2.939   4.682
  990SOL     OW 2987   0.321   2.805   3.966
  990SOL    HW1 2988   0.403   2.844   3.924
  990SOL    HW2 2989   0.294   2.723   3.917
  991SOL     OW 2990   1.458   2.597   4.452
  991SOL    HW1 2991   1.453   2.532   4.527
  991SOL    HW2 2992   1.538   2.656   4.465
  992SOL     OW 2993   1.111   3.638   3.961
  992SOL    HW1 2994   1.051   3.576   4.011
  992SOL    HW2 2995   1.142   3.594   3.876
  993SOL     OW 2996   1.632   3.239   3.805
  993SOL    HW1 2997   1.600   3.333   3.795
  993SOL    HW2 2998   1.556   3.176   3.793
  994SOL     OW 2999   0.464   3.605   4.047
  994SOL    HW1 3000   0.497   3.644   4.133
  994SOL    HW2 3001   0.540   3.598   3.982
  995SOL     OW 3002   1.400   1.969   4.150
  995SOL    HW1 3003   1.376   1.932   4.060
  995SOL    HW2 3004   1.499   1.985   4.154
  996SOL     OW 3005   0.382   2.562   4.204
  996SOL    HW1 3006   0.427   2.472   4.201
  996SOL    HW2 3007   0.288   2.551   4.237
  997SOL     OW 3008   0.614   1.984   3.841
  997SOL    HW1 3009   0.712   1.962   3.848
  997SOL    HW2 3010   0.583   1.967   3.748
  998SOL     OW 3011   0.539   1.926   4.236
  998SOL    HW1 3012   0.458   1.927   4.294
  998SOL    HW2 3013   0.542   2.009   4.181
  999SOL     OW 3014   1.434   3.050   3.765
  999SOL    HW1 3015   1.466   2.974   3.822
  999SOL    HW2 3016   1.342   3.077   3.795
 1000SOL     OW 3017   0.297   1.897   3.895
 1000SOL    HW1 3018   0.346   1.981   3.874
 1000SOL    HW2 3019   0.359   1.832   3.940
 1001SOL     OW 3020   0.935   2.098   4.204
 1001SOL    HW1 3021   0.887   2.139   4.126
 1001SOL    HW2 3022   1.034   2.096   4.185
 1002SOL     OW 3023   1.227   3.432   4.517
 1002SOL    HW1 3024   1.248   3.506   4.452
 1002SOL    HW2 3025   1.295   3.432   4.590
 1003SOL     OW 3026   0.459   3.014   4.465
 1003SOL    HW1 3027   0.388   2.987   4.530
 1003SOL    HW2 3028   0.433   2.986   4.372
 1004SOL     OW 3029   1.271   3.659   4.315
 1004SOL    HW1 3030   1.315   3.723   4.251
 1004SOL    HW2 3031   1.221   3.711   4.385
 1005SOL     OW 3032   1.032   2.411   3.740
 1005SOL    HW1 3033   0.991   2.493   3.701
 1005SOL    HW2 3034   1.096   2.437   3.813
 1006SOL     OW 3035   0.866   2.316   4.366
 1006SOL    HW1 3036   0.834   2.388   4.304
 1006SOL    HW2 3037   0.890   2.235   4.313
 1007SOL     OW 3038   1.017   1.901   4.477
 1007SOL    HW1 3039   0.945   1.906   4.408
 1007SOL    HW2 3040   0.993   1.832   4.546
 1008SOL     OW 3041   1.857   2.695   4.101
 1008SOL    HW1 3042   1.899   2.631   4.165
 1008SOL    HW2 3043   1.819   2.644   4.023
 1009SOL     OW 3044   0.488   3.247   3.898
 1009SOL    HW1 3045   0.401   3.232   3.945
 1009SOL    HW2 3046   0.471   3.273   3.803
 1010SOL     OW 3047   1.664   3.142   4.381
 1010SOL    HW1 3048   1.763   3.150   4.395
 1010SOL    HW2 3049   1.619   3.226   4.412
 1011SOL     OW 3050   1.390   2.437   3.802
 1011SOL    HW1 3051   1.336   2.416   3.883
 1011SOL    HW2 3052   1.481   2.396   3.811
 1012SOL     OW 3053   0.527   2.118   4.052
 1012SOL    HW1 3054   0.554   2.059   3.977
 1012SOL    HW2 3055   0.527   2.213   4.021
 1013SOL     OW 3056   0.705   2.912   4.092
 1013SOL    HW1 3057   0.691   2.919   4.191
 1013SOL    HW2 3058   0.789   2.861   4.074
 1014SOL     OW 3059   0.367   2.962   4.225
 1014SOL    HW1 3060   0.360   3.045   4.169
 1014SOL    HW2 3061   0.371   2.882   4.165
 1015SOL     OW 3062   0.566   2.399   4.589
 1015SOL    HW1 3063   0.578   2.465   4.515
 1015SOL    HW2 3064   0.612   2.433   4.672
 1016SOL     OW 3065   1.252   3.210   4.112
 1016SOL    HW1 3066   1.302   3.287   4.152
 1016SOL    HW2 3067   1.157   3.212   4.144
 1017SOL     OW 3068   1.582   2.501   4.196
 1017SOL    HW1 3069   1.551   2.562   4.269
 1017SOL    HW2 3070   1.632   2.553   4.127
 1018SOL     OW 3071   1.209   2.387   3.999
 1018SOL    HW1 3072   1.222   2.303   4.053
 1018SOL    HW2 3073   1.180   2.461   4.059
 1019SOL     OW 3074   0.732   2.496   4.788
 1019SOL    HW1 3075   0.791   2.470   4.712
 1019SOL    HW2 3076   0.704   2.592   4.777
 1020SOL     OW 3077   0.307   1.925   4.342
 1020SOL    HW1 3078   0.296   2.019   4.375
 1020SOL    HW2 3079   0.302   1.862   4.419
 1021SOL     OW 3080   1.622   2.229   4.098
 1021SOL    HW1 3081   1.624   2.153   4.162
 1021SOL    HW2 3082   1.574   2.306   4.138
 1022SOL     OW 3083   1.540   2.136   3.849
 1022SOL    HW1 3084   1.479   2.061   3.872
 1022SOL    HW2 3085   1.562   2.188   3.932
 1023SOL     OW 3086   1.303   2.700   3.766
 1023SOL    HW1 3087   1.337   2.607   3.781
 1023SOL    HW2 3088   1.321   2.727   3.671
 1024SOL     OW 3089   1.068   3.195   4.573
 1024SOL    HW1 3090   1.075   3.111   4.518
 1024SOL    HW2 3091   1.130   3.264   4.537
 1025SOL     OW 3092   0.319   2.672   4.673
 1025SOL    HW1 3093   0.412   2.708   4.678
 1025SOL    HW2 3094   0.313   2.587   4.725
 1026SOL     OW 3095   0.008   3.188   3.924
 1026SOL    HW1 3096  -0.085   3.209   3.893
 1026SOL    HW2 3097   0.018   3.089   3.937
 1027SOL     OW 3098   0.088   3.663   4.651
 1027SOL    HW1 3099   0.046   3.577   4.624
 1027SOL    HW2 3100   0.182   3.666   4.617
 1028SOL     OW 3101   0.504   3.430   4.634
 1028SOL    HW1 3102   0.570   3.504   4.643
 1028SOL    HW2 3103   0.548   3.351   4.592
 1029SOL     OW 3104   0.815   2.434   4.049
 1029SOL    HW1 3105   0.822   2.345   4.003
 1029SOL    HW2 3106   0.721   2.468   4.041
 1030SOL     OW 3107   0.473   2.362   3.915
 1030SOL    HW1 3108   0.534   2.442   3.919
 1030SOL    HW2 3109   0.378   2.393   3.922
 1031SOL     OW 3110   1.302   2.717   4.033
 1031SOL    HW1 3111   1.216   2.686   4.075
 1031SOL    HW2 3112   1.298   2.703   3.934
 1032SOL     OW 3113   1.759   3.609   4.878
 1032SOL    HW1 3114   1.820   3.639   4.805
 1032SOL    HW2 3115   1.721   3.520   4.856
 1033SOL     OW 3116   1.726   1.997   4.247
 1033SOL    HW1 3117   1.799   1.980   4.180
 1033SOL    HW2 3118   1.695   1.910   4.285
 1034SOL     OW 3119   1.388   3.435   4.201
 1034SOL    HW1 3120   1.455   3.447   4.127
 1034SOL    HW2 3121   1.348   3.524   4.224
 1035SOL     OW 3122   1.280   2.789   4.396
 1035SOL    HW1 3123   1.340   2.708   4.398
 1035SOL    HW2 3124   1.320   2.858   4.336
 1036SOL     OW 3125   0.672   3.478   3.878
 1036SOL    HW1 3126   0.681   3.488   3.779
 1036SOL    HW2 3127   0.632   3.389   3.899
 1037SOL     OW 3128   1.841   2.037   4.687
 1037SOL    HW1 3129   1.880   1.952   4.651
 1037SOL    HW2 3130   1.743   2.039   4.668
 1038SOL     OW 3131   0.263   2.188   4.444
 1038SOL    HW1 3132   0.184   2.239   4.410
 1038SOL    HW2 3133   0.254   2.173   4.542
 1039SOL     OW 3134   1.194   3.474   3.755
 1039SOL    HW1 3135   1.200   3.381   3.792
 1039SOL    HW2 3136   1.135   3.474   3.675
 1040SOL     OW 3137   0.916   2.772   4.015
 1040SOL    HW1 3138   0.979   2.810   3.947
 1040SOL    HW2 3139   0.956   2.689   4.054
 1041SOL     OW 3140   1.504   3.469   3.768
 1041SOL    HW1 3141   1.412   3.506   3.775
 1041SOL    HW2 3142   1.542   3.489   3.678
 1042SOL     OW 3143   1.039   2.960   4.420
 1042SOL    HW1 3144   0.969   2.913   4.474
 1042SOL    HW2 3145   1.098   2.892   4.377
 1043SOL     OW 3146   0.590   3.349   4.215
 1043SOL    HW1 3147   0.632   3.291   4.145
 1043SOL    HW2 3148   0.546   3.428   4.171
 1044SOL     OW 3149   0.255   3.210   4.014
 1044SOL    HW1 3150   0.159   3.211   3.987
 1044SOL    HW2 3151   0.267   3.263   4.098
 1045SOL     OW 3152   0.075   2.207   3.757
 1045SOL    HW1 3153  -0.017   2.179   3.728
 1045SOL    HW2 3154   0.106   2.284   3.701
 1046SOL     OW 3155   0.072   2.028   4.042
 1046SOL    HW1 3156   0.055   2.111   3.988
 1046SOL    HW2 3157   0.162   1.991   4.020
 1047SOL     OW 3158   1.183   3.197   3.843
 1047SOL    HW1 3159   1.084   3.186   3.845
 1047SOL    HW2 3160   1.217   3.212   3.936
 1048SOL     OW 3161   1.674   2.745   4.978
 1048SOL    HW1 3162   1.647   2.656   4.941
 1048SOL    HW2 3163   1.675   2.813   4.905
 1049SOL     OW 3164   1.225   2.187   4.173
 1049SOL    HW1 3165   1.290   2.113   4.162
 1049SOL    HW2 3166   1.245   2.237   4.257
 1050SOL     OW 3167   0.594   2.607   4.376
 1050SOL    HW1 3168   0.644   2.692   4.357
 1050SOL    HW2 3169   0.506   2.609   4.328
 1051SOL     OW 3170   0.859   3.236   3.740
 1051SOL    HW1 3171   0.813   3.251   3.828
 1051SOL    HW2 3172   0.903   3.321   3.710
 1052SOL     OW 3173   0.661   3.652   4.677
 1052SOL    HW1 3174   0.615   3.740   4.664
 1052SOL    HW2 3175   0.760   3.664   4.670
 1053SOL     OW 3176   0.859   2.818   4.585
 1053SOL    HW1 3177   0.913   2.749   4.633
 1053SOL    HW2 3178   0.827   2.887   4.651
 1054SOL     OW 3179   1.083   2.846   3.811
 1054SOL    HW1 3180   1.060   2.899   3.729
 1054SOL    HW2 3181   1.164   2.790   3.792
 1055SOL     OW 3182   1.861   3.431   4.575
 1055SOL    HW1 3183   1.790   3.419   4.505
 1055SOL    HW2 3184   1.862   3.352   4.635
 1056SOL     OW 3185   0.079   3.102   4.377
 1056SOL    HW1 3186   0.078   3.055   4.465
 1056SOL    HW2 3187   0.161   3.074   4.326
 1057SOL     OW 3188   0.428   2.286   4.244
 1057SOL    HW1 3189   0.458   2.214   4.182
 1057SOL    HW2 3190   0.389   2.246   4.327
 1058SOL     OW 3191   0.812   3.448   4.411
 1058SOL    HW1 3192   0.844   3.458   4.317
 1058SOL    HW2 3193   0.733   3.386   4.413
 1059SOL     OW 3194   0.770   3.192   4.025
 1059SOL    HW1 3195   0.724   3.105   4.042
 1059SOL    HW2 3196   0.861   3.189   4.066
 1060SOL     OW 3197   1.352   1.914   3.892
 1060SOL    HW1 3198   1.387   1.873   3.808
 1060SOL    HW2 3199   1.262   1.876   3.912
 1061SOL     OW 3200   1.300   2.315   4.415
 1061SOL    HW1 3201   1.241   2.395   4.419
 1061SOL    HW2 3202   1.315   2.280   4.508
 1062SOL     OW 3203   1.593   2.083   4.606
 1062SOL    HW1 3204   1.509   2.082   4.660
 1062SOL    HW2 3205   1.595   2.166   4.550
 1063SOL     OW 3206   0.039   2.939   4.024
 1063SOL    HW1 3207   0.138   2.928   4.015
 1063SOL    HW2 3208  -0.001   2.853   4.056
 1064SOL     OW 3209   0.875   3.508   4.061
 1064SOL    HW1 3210   0.798   3.473   4.007
 1064SOL    HW2 3211   0.843   3.579   4.123
 1065SOL     OW 3212   0.230   4.352   0.113
 1065SOL    HW1 3213   0.137   4.350   0.150
 1065SOL    HW2 3214   0.231   4.313   0.021
 1066SOL     OW 3215   0.225   3.999   0.996
 1066SOL    HW1 3216   0.260   3.982   1.088
 1066SOL    HW2 3217   0.137   3.954   0.984
 1067SOL     OW 3218   0.019   4.092   0.647
 1067SOL    HW1 3219  -0.063   4.135   0.686
 1067SOL    HW2 3220  -0.009   4.019   0.584
 1068SOL     OW 3221   1.135   4.427   0.717
 1068SOL    HW1 3222   1.192   4.505   0.692
 1068SOL    HW2 3223   1.075   4.453   0.793
 1069SOL     OW 3224   1.755   4.331   0.231
 1069SOL    HW1 3225   1.743   4.318   0.132
 1069SOL    HW2 3226   1.725   4.250   0.280
 1070SOL     OW 3227   0.850   4.522   1.823
 1070SOL    HW1 3228   0.846   4.598   1.888
 1070SOL    HW2 3229   0.872   4.558   1.732
 1071SOL     OW 3230   0.685   4.736   0.665
 1071SOL    HW1 3231   0.754   4.720   0.735
 1071SOL    HW2 3232   0.612   4.793   0.703
 1072SOL     OW 3233   0.438   4.116   1.499
 1072SOL    HW1 3234   0.520   4.060   1.508
 1072SOL    HW2 3235   0.357   4.058   1.503
 1073SOL     OW 3236   1.603   4.171   0.737
 1073SOL    HW1 3237   1.529   4.217   0.687
 1073SOL    HW2 3238   1.654   4.239   0.790
 1074SOL     OW 3239   1.594   3.838   1.480
 1074SOL    HW1 3240   1.576   3.905   1.408
 1074SOL    HW2 3241   1.591   3.884   1.569
 1075SOL     OW 3242   0.122   4.367   0.563
 1075SOL    HW1 3243   0.077   4.279   0.580
 1075SOL    HW2 3244   0.121   4.421   0.647
 1076SOL     OW 3245   0.113   4.461   1.597
 1076SOL    HW1 3246   0.201   4.448   1.642
 1076SOL    HW2 3247   0.100   4.558   1.575
 1077SOL     OW 3248   0.809   3.728   0.502
 1077SOL    HW1 3249   0.849   3.819   0.493
 1077SOL    HW2 3250   0.709   3.736   0.508
 1078SOL     OW 3251   0.197   4.700   1.264
 1078SOL    HW1 3252   0.286   4.655   1.250
 1078SOL    HW2 3253   0.124   4.635   1.245
 1079SOL     OW 3254   1.525   4.723   0.190
 1079SOL    HW1 3255   1.462   4.647   0.203
 1079SOL    HW2 3256   1.573   4.741   0.276
 1080SOL     OW 3257   0.317   3.975   1.801
 1080SOL    HW1 3258   0.388   4.046   1.807
 1080SOL    HW2 3259   0.229   4.014   1.829
 1081SOL     OW 3260   0.598   4.453   0.270
 1081SOL    HW1 3261   0.622   4.522   0.202
 1081SOL    HW2 3262   0.520   4.486   0.324
 1082SOL     OW 3263   1.281   4.069   0.944
 1082SOL    HW1 3264   1.195   4.019   0.931
 1082SOL    HW2 3265   1.343   4.015   1.000
 1083SOL     OW 3266   0.807   4.329   1.465
 1083SOL    HW1 3267   0.760   4.326   1.554
 1083SOL    HW2 3268   0.756   4.274   1.399
 1084SOL     OW 3269   1.394   4.193   1.674
 1084SOL    HW1 3270   1.374   4.236   1.762
 1084SOL    HW2 3271   1.472   4.131   1.683
 1085SOL     OW 3272   0.973   4.614   1.572
 1085SOL    HW1 3273   1.019   4.530   1.543
 1085SOL    HW2 3274   0.917   4.648   1.497
 1086SOL     OW 3275   0.991   4.134   1.242
 1086SOL    HW1 3276   0.914   4.168   1.296
 1086SOL    HW2 3277   0.957   4.083   1.163
 1087SOL     OW 3278   1.041   4.425   0.429
 1087SOL    HW1 3279   1.067   4.421   0.525
 1087SOL    HW2 3280   0.956   4.374   0.415
 1088SOL     OW 3281   0.076   4.535   0.789
 1088SOL    HW1 3282   0.175   4.523   0.798
 1088SOL    HW2 3283   0.052   4.630   0.810
 1089SOL     OW 3284   0.865   4.072   0.195
 1089SOL    HW1 3285   0.924   4.135   0.146
 1089SOL    HW2 3286   0.884   3.978   0.166
 1090SOL     OW 3287   1.719   4.309   1.831
 1090SOL    HW1 3288   1.693   4.398   1.795
 1090SOL    HW2 3289   1.717   4.241   1.758
 1091SOL     OW 3290   0.550   3.920   0.885
 1091SOL    HW1 3291   0.545   3.915   0.985
 1091SOL    HW2 3292   0.552   4.016   0.856
 1092SOL     OW 3293   1.458   4.459   0.728
 1092SOL    HW1 3294   1.453   4.394   0.803
 1092SOL    HW2 3295   1.538   4.518   0.741
 1093SOL     OW 3296   0.202   4.009   1.498
 1093SOL    HW1 3297   0.122   4.069   1.485
 1093SOL    HW2 3298   0.192   3.960   1.584
 1094SOL     OW 3299   1.400   3.831   0.426
 1094SOL    HW1 3300   1.376   3.794   0.336
 1094SOL    HW2 3301   1.499   3.847   0.430
 1095SOL     OW 3302   0.382   4.424   0.480
 1095SOL    HW1 3303   0.427   4.334   0.477
 1095SOL    HW2 3304   0.288   4.413   0.513
 1096SOL     OW 3305   1.547   3.946   1.729
 1096SOL    HW1 3306   1.542   3.983   1.821
 1096SOL    HW2 3307   1.475   3.877   1.717
 1097SOL     OW 3308   0.781   3.988   1.749
 1097SOL    HW1 3309   0.848   3.927   1.792
 1097SOL    HW2 3310   0.708   4.007   1.814
 1098SOL     OW 3311   1.351   4.314   1.433
 1098SOL    HW1 3312   1.379   4.271   1.518
 1098SOL    HW2 3313   1.376   4.410   1.434
 1099SOL     OW 3314   0.922   4.227   0.899
 1099SOL    HW1 3315   0.897   4.218   0.803
 1099SOL    HW2 3316   0.970   4.145   0.930
 1100SOL     OW 3317   0.539   3.788   0.512
 1100SOL    HW1 3318   0.458   3.789   0.570
 1100SOL    HW2 3319   0.542   3.871   0.457
 1101SOL     OW 3320   0.297   3.759   0.171
 1101SOL    HW1 3321   0.346   3.843   0.150
 1101SOL    HW2 3322   0.359   3.694   0.216
 1102SOL     OW 3323   0.935   3.960   0.480
 1102SOL    HW1 3324   0.887   4.001   0.402
 1102SOL    HW2 3325   1.034   3.958   0.461
 1103SOL     OW 3326   1.076   4.407   1.464
 1103SOL    HW1 3327   0.996   4.346   1.467
 1103SOL    HW2 3328   1.157   4.354   1.440
 1104SOL     OW 3329   1.032   4.273   0.016
 1104SOL    HW1 3330   0.991   4.355  -0.023
 1104SOL    HW2 3331   1.096   4.299   0.089
 1105SOL     OW 3332   0.078   4.280   1.386
 1105SOL    HW1 3333   0.170   4.279   1.345
 1105SOL    HW2 3334   0.072   4.354   1.453
 1106SOL     OW 3335   0.561   3.946   1.147
 1106SOL    HW1 3336   0.599   3.862   1.184
 1106SOL    HW2 3337   0.473   3.965   1.191
 1107SOL     OW 3338   0.866   4.178   0.642
 1107SOL    HW1 3339   0.834   4.250   0.580
 1107SOL    HW2 3340   0.890   4.097   0.589
 1108SOL     OW 3341   1.017   3.763   0.753
 1108SOL    HW1 3342   0.945   3.768   0.684
 1108SOL    HW2 3343   0.993   3.694   0.822
 1109SOL     OW 3344   1.466   4.314   0.992
 1109SOL    HW1 3345   1.436   4.219   0.999
 1109SOL    HW2 3346   1.539   4.330   1.058
 1110SOL     OW 3347   1.857   4.557   0.377
 1110SOL    HW1 3348   1.899   4.493   0.441
 1110SOL    HW2 3349   1.819   4.506   0.299
 1111SOL     OW 3350   1.390   4.299   0.078
 1111SOL    HW1 3351   1.336   4.278   0.159
 1111SOL    HW2 3352   1.481   4.258   0.087
 1112SOL     OW 3353   0.527   3.980   0.328
 1112SOL    HW1 3354   0.554   3.921   0.253
 1112SOL    HW2 3355   0.527   4.075   0.297
 1113SOL     OW 3356   1.638   4.823   1.079
 1113SOL    HW1 3357   1.643   4.904   1.138
 1113SOL    HW2 3358   1.552   4.825   1.028
 1114SOL     OW 3359   0.915   3.813   1.402
 1114SOL    HW1 3360   0.940   3.793   1.307
 1114SOL    HW2 3361   0.987   3.869   1.444
 1115SOL     OW 3362   0.410   4.537   1.251
 1115SOL    HW1 3363   0.496   4.549   1.301
 1115SOL    HW2 3364   0.368   4.450   1.278
 1116SOL     OW 3365   1.274   4.110   1.262
 1116SOL    HW1 3366   1.295   4.184   1.326
 1116SOL    HW2 3367   1.185   4.127   1.219
 1117SOL     OW 3368   0.566   4.261   0.865
 1117SOL    HW1 3369   0.578   4.327   0.791
 1117SOL    HW2 3370   0.612   4.295   0.948
 1118SOL     OW 3371   1.582   4.363   0.472
 1118SOL    HW1 3372   1.551   4.424   0.545
 1118SOL    HW2 3373   1.632   4.415   0.403
 1119SOL     OW 3374   0.402   4.475   1.598
 1119SOL    HW1 3375   0.470   4.530   1.551
 1119SOL    HW2 3376   0.442   4.387   1.625
 1120SOL     OW 3377   1.587   4.503   1.670
 1120SOL    HW1 3378   1.495   4.541   1.665
 1120SOL    HW2 3379   1.647   4.550   1.605
 1121SOL     OW 3380   1.013   3.829   1.770
 1121SOL    HW1 3381   1.019   3.914   1.718
 1121SOL    HW2 3382   1.045   3.753   1.713
 1122SOL     OW 3383   0.504   3.774   1.740
 1122SOL    HW1 3384   0.462   3.717   1.670
 1122SOL    HW2 3385   0.438   3.843   1.772
 1123SOL     OW 3386   0.573   4.594   1.029
 1123SOL    HW1 3387   0.617   4.683   1.020
 1123SOL    HW2 3388   0.510   4.594   1.106
 1124SOL     OW 3389   1.360   4.586   1.045
 1124SOL    HW1 3390   1.285   4.586   0.979
 1124SOL    HW2 3391   1.397   4.494   1.054
 1125SOL     OW 3392   1.209   4.249   0.275
 1125SOL    HW1 3393   1.222   4.165   0.329
 1125SOL    HW2 3394   1.180   4.323   0.335
 1126SOL     OW 3395   0.307   3.937   1.231
 1126SOL    HW1 3396   0.284   3.974   1.321
 1126SOL    HW2 3397   0.277   3.842   1.225
 1127SOL     OW 3398   0.732   4.358   1.064
 1127SOL    HW1 3399   0.791   4.332   0.988
 1127SOL    HW2 3400   0.704   4.454   1.053
 1128SOL     OW 3401   1.728   4.659   1.854
 1128SOL    HW1 3402   1.682   4.652   1.765
 1128SOL    HW2 3403   1.666   4.703   1.920
 1129SOL     OW 3404   0.307   3.787   0.618
 1129SOL    HW1 3405   0.296   3.881   0.651
 1129SOL    HW2 3406   0.302   3.724   0.695
 1130SOL     OW 3407   1.622   4.091   0.374
 1130SOL    HW1 3408   1.624   4.015   0.438
 1130SOL    HW2 3409   1.574   4.168   0.414
 1131SOL     OW 3410   1.023   4.490   0.966
 1131SOL    HW1 3411   1.038   4.511   1.062
 1131SOL    HW2 3412   0.993   4.395   0.957
 1132SOL     OW 3413   0.350   4.622   1.804
 1132SOL    HW1 3414   0.426   4.666   1.852
 1132SOL    HW2 3415   0.385   4.575   1.722
 1133SOL     OW 3416   1.540   3.998   0.125
 1133SOL    HW1 3417   1.479   3.923   0.148
 1133SOL    HW2 3418   1.562   4.050   0.208
 1134SOL     OW 3419   1.303   4.562   0.042
 1134SOL    HW1 3420   1.337   4.469   0.057
 1134SOL    HW2 3421   1.321   4.589  -0.053
 1135SOL     OW 3422   0.319   4.534   0.949
 1135SOL    HW1 3423   0.412   4.570   0.954
 1135SOL    HW2 3424   0.313   4.449   1.001
 1136SOL     OW 3425   0.339   4.233   1.006
 1136SOL    HW1 3426   0.287   4.150   0.989
 1136SOL    HW2 3427   0.416   4.238   0.942
 1137SOL     OW 3428   1.138   4.104   1.678
 1137SOL    HW1 3429   1.093   4.167   1.742
 1137SOL    HW2 3430   1.231   4.135   1.661
 1138SOL     OW 3431   1.160   3.931   1.477
 1138SOL    HW1 3432   1.160   3.995   1.554
 1138SOL    HW2 3433   1.188   3.979   1.394
 1139SOL     OW 3434   1.002   4.520   1.238
 1139SOL    HW1 3435   1.043   4.488   1.324
 1139SOL    HW2 3436   0.906   4.493   1.235
 1140SOL     OW 3437   0.040   4.268   1.114
 1140SOL    HW1 3438   0.125   4.235   1.073
 1140SOL    HW2 3439   0.053   4.283   1.212
 1141SOL     OW 3440   0.189   4.244   1.722
 1141SOL    HW1 3441   0.248   4.204   1.652
 1141SOL    HW2 3442   0.131   4.315   1.681
 1142SOL     OW 3443   0.815   4.296   0.325
 1142SOL    HW1 3444   0.822   4.207   0.279
 1142SOL    HW2 3445   0.721   4.330   0.317
 1143SOL     OW 3446   1.657   4.328   1.206
 1143SOL    HW1 3447   1.619   4.259   1.268
 1143SOL    HW2 3448   1.739   4.292   1.162
 1144SOL     OW 3449   0.671   4.188   1.269
 1144SOL    HW1 3450   0.637   4.099   1.239
 1144SOL    HW2 3451   0.697   4.242   1.189
 1145SOL     OW 3452   0.473   4.224   0.191
 1145SOL    HW1 3453   0.534   4.304   0.195
 1145SOL    HW2 3454   0.378   4.255   0.198
 1146SOL     OW 3455   1.347   4.783   1.234
 1146SOL    HW1 3456   1.371   4.720   1.160
 1146SOL    HW2 3457   1.257   4.823   1.216
 1147SOL     OW 3458   1.302   4.579   0.309
 1147SOL    HW1 3459   1.216   4.548   0.351
 1147SOL    HW2 3460   1.298   4.565   0.210
 1148SOL     OW 3461   0.903   3.810   0.133
 1148SOL    HW1 3462   0.954   3.811   0.047
 1148SOL    HW2 3463   0.959   3.768   0.204
 1149SOL     OW 3464   1.726   3.859   0.523
 1149SOL    HW1 3465   1.799   3.842   0.456
 1149SOL    HW2 3466   1.695   3.772   0.561
 1150SOL     OW 3467   1.280   4.651   0.672
 1150SOL    HW1 3468   1.340   4.570   0.674
 1150SOL    HW2 3469   1.320   4.720   0.612
 1151SOL     OW 3470   1.841   3.899   0.963
 1151SOL    HW1 3471   1.880   3.814   0.927
 1151SOL    HW2 3472   1.743   3.901   0.944
 1152SOL     OW 3473   0.263   4.050   0.720
 1152SOL    HW1 3474   0.184   4.101   0.686
 1152SOL    HW2 3475   0.254   4.035   0.818
 1153SOL     OW 3476   1.014   3.960   0.971
 1153SOL    HW1 3477   1.006   3.924   0.878
 1153SOL    HW2 3478   1.012   3.884   1.036
 1154SOL     OW 3479   1.709   4.109   1.381
 1154SOL    HW1 3480   1.782   4.178   1.385
 1154SOL    HW2 3481   1.737   4.034   1.322
 1155SOL     OW 3482   0.105   4.737   1.726
 1155SOL    HW1 3483   0.028   4.704   1.780
 1155SOL    HW2 3484   0.190   4.707   1.768
 1156SOL     OW 3485   0.672   3.927   1.489
 1156SOL    HW1 3486   0.762   3.911   1.449
 1156SOL    HW2 3487   0.680   3.932   1.588
 1157SOL     OW 3488   0.075   4.069   0.033
 1157SOL    HW1 3489  -0.017   4.041   0.004
 1157SOL    HW2 3490   0.106   4.146  -0.023
 1158SOL     OW 3491   1.440   4.580   1.398
 1158SOL    HW1 3492   1.383   4.632   1.335
 1158SOL    HW2 3493   1.536   4.592   1.374
 1159SOL     OW 3494   0.072   3.890   0.318
 1159SOL    HW1 3495   0.055   3.973   0.264
 1159SOL    HW2 3496   0.162   3.853   0.296
 1160SOL     OW 3497   0.613   4.566   1.431
 1160SOL    HW1 3498   0.669   4.647   1.414
 1160SOL    HW2 3499   0.672   4.486   1.434
 1161SOL     OW 3500   0.716   4.289   1.708
 1161SOL    HW1 3501   0.735   4.354   1.782
 1161SOL    HW2 3502   0.776   4.209   1.717
 1162SOL     OW 3503   1.674   4.607   1.254
 1162SOL    HW1 3504   1.647   4.518   1.217
 1162SOL    HW2 3505   1.675   4.675   1.181
 1163SOL     OW 3506   1.225   4.049   0.449
 1163SOL    HW1 3507   1.290   3.975   0.438
 1163SOL    HW2 3508   1.245   4.099   0.533
 1164SOL     OW 3509   0.594   4.469   0.652
 1164SOL    HW1 3510   0.644   4.554   0.633
 1164SOL    HW2 3511   0.506   4.471   0.604
 1165SOL     OW 3512   1.777   4.066   1.642
 1165SOL    HW1 3513   1.760   4.097   1.548
 1165SOL    HW2 3514   1.693   4.029   1.680
 1166SOL     OW 3515   1.730   4.658   1.517
 1166SOL    HW1 3516   1.768   4.749   1.532
 1166SOL    HW2 3517   1.722   4.641   1.418
 1167SOL     OW 3518   1.824   3.916   1.227
 1167SOL    HW1 3519   1.820   3.826   1.271
 1167SOL    HW2 3520   1.827   3.905   1.128
 1168SOL     OW 3521   0.428   4.148   0.520
 1168SOL    HW1 3522   0.458   4.076   0.458
 1168SOL    HW2 3523   0.389   4.108   0.603
 1169SOL     OW 3524   0.317   4.271   1.280
 1169SOL    HW1 3525   0.355   4.212   1.352
 1169SOL    HW2 3526   0.357   4.245   1.192
 1170SOL     OW 3527   1.424   3.938   1.112
 1170SOL    HW1 3528   1.476   3.873   1.167
 1170SOL    HW2 3529   1.375   4.001   1.173
 1171SOL     OW 3530   1.001   3.758   1.154
 1171SOL    HW1 3531   0.938   3.686   1.123
 1171SOL    HW2 3532   1.094   3.722   1.154
 1172SOL     OW 3533   1.352   3.776   0.168
 1172SOL    HW1 3534   1.387   3.735   0.084
 1172SOL    HW2 3535   1.262   3.738   0.188
 1173SOL     OW 3536   1.300   4.177   0.691
 1173SOL    HW1 3537   1.241   4.257   0.695
 1173SOL    HW2 3538   1.315   4.142   0.784
 1174SOL     OW 3539   1.593   3.945   0.882
 1174SOL    HW1 3540   1.509   3.944   0.936
 1174SOL    HW2 3541   1.595   4.028   0.826
 1175SOL     OW 3542   0.230   4.352   1.975
 1175SOL    HW1 3543   0.137   4.350   2.012
 1175SOL    HW2 3544   0.231   4.313   1.883
 1176SOL     OW 3545   0.225   3.999   2.858
 1176SOL    HW1 3546   0.260   3.982   2.950
 1176SOL    HW2 3547   0.137   3.954   2.846
 1177SOL     OW 3548   0.019   4.092   2.509
 1177SOL    HW1 3549  -0.063   4.135   2.548
 1177SOL    HW2 3550  -0.009   4.019   2.446
 1178SOL     OW 3551   1.135   4.427   2.579
 1178SOL    HW1 3552   1.192   4.505   2.554
 1178SOL    HW2 3553   1.075   4.453   2.655
 1179SOL     OW 3554   1.755   4.331   2.093
 1179SOL    HW1 3555   1.743   4.318   1.994
 1179SOL    HW2 3556   1.725   4.250   2.142
 1180SOL     OW 3557   0.850   4.522   3.685
 1180SOL    HW1 3558   0.846   4.598   3.750
 1180SOL    HW2 3559   0.872   4.558   3.594
 1181SOL     OW 3560   0.685   4.736   2.527
 1181SOL    HW1 3561   0.754   4.720   2.597
 1181SOL    HW2 3562   0.612   4.793   2.565
 1182SOL     OW 3563   0.438   4.116   3.361
 1182SOL    HW1 3564   0.520   4.060   3.370
 1182SOL    HW2 3565   0.357   4.058   3.365
 1183SOL     OW 3566   1.603   4.171   2.599
 1183SOL    HW1 3567   1.529   4.217   2.549
 1183SOL    HW2 3568   1.654   4.239   2.652
 1184SOL     OW 3569   1.594   3.838   3.342
 1184SOL    HW1 3570   1.576   3.905   3.270
 1184SOL    HW2 3571   1.591   3.884   3.431
 1185SOL     OW 3572   0.122   4.367   2.425
 1185SOL    HW1 3573   0.077   4.279   2.442
 1185SOL    HW2 3574   0.121   4.421   2.509
 1186SOL     OW 3575   0.113   4.461   3.459
 1186SOL    HW1 3576   0.201   4.448   3.504
 1186SOL    HW2 3577   0.100   4.558   3.437
 1187SOL     OW 3578   0.809   3.728   2.364
 1187SOL    HW1 3579   0.849   3.819   2.355
 1187SOL    HW2 3580   0.709   3.736   2.370
 1188SOL     OW 3581   0.197   4.700   3.126
 1188SOL    HW1 3582   0.286   4.655   3.112
 1188SOL    HW2 3583   0.124   4.635   3.107
 1189SOL     OW 3584   1.525   4.723   2.052
 1189SOL    HW1 3585   1.462   4.647   2.065
 1189SOL    HW2 3586   1.573   4.741   2.138
 1190SOL     OW 3587   0.317   3.975   3.663
 1190SOL    HW1 3588   0.388   4.046   3.669
 1190SOL    HW2 3589   0.229   4.014   3.691
 1191SOL     OW 3590   0.598   4.453   2.132
 1191SOL    HW1 3591   0.622   4.522   2.064
 1191SOL    HW2 3592   0.520   4.486   2.186
 1192SOL     OW 3593   1.281   4.069   2.806
 1192SOL    HW1 3594   1.195   4.019   2.793
 1192SOL    HW2 3595   1.343   4.015   2.862
 1193SOL     OW 3596   0.807   4.329   3.327
 1193SOL    HW1 3597   0.760   4.326   3.416
 1193SOL    HW2 3598   0.756   4.274   3.261
 1194SOL     OW 3599   1.394   4.193   3.536
 1194SOL    HW1 3600   1.374   4.236   3.624
 1194SOL    HW2 3601   1.472   4.131   3.545
 1195SOL     OW 3602   0.973   4.614   3.434
 1195SOL    HW1 3603   1.019   4.530   3.405
 1195SOL    HW2 3604   0.917   4.648   3.359
 1196SOL     OW 3605   0.991   4.134   3.104
 1196SOL    HW1 3606   0.914   4.168   3.158
 1196SOL    HW2 3607   0.957   4.083   3.025
 1197SOL     OW 3608   1.041   4.425   2.291
 1197SOL    HW1 3609   1.067   4.421   2.387
 1197SOL    HW2 3610   0.956   4.374   2.277
 1198SOL     OW 3611   0.076   4.535   2.651
 1198SOL    HW1 3612   0.175   4.523   2.660
 1198SOL    HW2 3613   0.052   4.630   2.672
 1199SOL     OW 3614   0.865   4.072   2.057
 1199SOL    HW1 3615   0.924   4.135   2.008
 1199SOL    HW2 3616   0.884   3.978   2.028
 1200SOL     OW 3617   1.719   4.309   3.693
 1200SOL    HW1 3618   1.693   4.398   3.657
 1200SOL    HW2 3619   1.717   4.241   3.620
 1201SOL     OW 3620   0.550   3.920   2.747
 1201SOL    HW1 3621   0.545   3.915   2.847
 1201SOL    HW2 3622   0.552   4.016   2.718
 1202SOL     OW 3623   1.458   4.459   2.590
 1202SOL    HW1 3624   1.453   4.394   2.665
 1202SOL    HW2 3625   1.538   4.518   2.603
 1203SOL     OW 3626   0.202   4.009   3.360
 1203SOL    HW1 3627   0.122   4.069   3.347
 1203SOL    HW2 3628   0.192   3.960   3.446
 1204SOL     OW 3629   1.400   3.831   2.288
 1204SOL    HW1 3630   1.376   3.794   2.198
 1204SOL    HW2 3631   1.499   3.847   2.292
 1205SOL     OW 3632   0.382   4.424   2.342
 1205SOL    HW1 3633   0.427   4.334   2.339
 1205SOL    HW2 3634   0.288   4.413   2.375
 1206SOL     OW 3635   1.547   3.946   3.591
 1206SOL    HW1 3636   1.542   3.983   3.683
 1206SOL    HW2 3637   1.475   3.877   3.579
 1207SOL     OW 3638   0.614   3.846   1.979
 1207SOL    HW1 3639   0.712   3.824   1.986
 1207SOL    HW2 3640   0.583   3.829   1.886
 1208SOL     OW 3641   0.781   3.988   3.611
 1208SOL    HW1 3642   0.848   3.927   3.654
 1208SOL    HW2 3643   0.708   4.007   3.676
 1209SOL     OW 3644   1.351   4.314   3.295
 1209SOL    HW1 3645   1.379   4.271   3.380
 1209SOL    HW2 3646   1.376   4.410   3.296
 1210SOL     OW 3647   0.922   4.227   2.761
 1210SOL    HW1 3648   0.897   4.218   2.665
 1210SOL    HW2 3649   0.970   4.145   2.792
 1211SOL     OW 3650   0.539   3.788   2.374
 1211SOL    HW1 3651   0.458   3.789   2.432
 1211SOL    HW2 3652   0.542   3.871   2.319
 1212SOL     OW 3653   0.297   3.759   2.033
 1212SOL    HW1 3654   0.346   3.843   2.012
 1212SOL    HW2 3655   0.359   3.694   2.078
 1213SOL     OW 3656   0.935   3.960   2.342
 1213SOL    HW1 3657   0.887   4.001   2.264
 1213SOL    HW2 3658   1.034   3.958   2.323
 1214SOL     OW 3659   1.076   4.407   3.326
 1214SOL    HW1 3660   0.996   4.346   3.329
 1214SOL    HW2 3661   1.157   4.354   3.302
 1215SOL     OW 3662   1.032   4.273   1.878
 1215SOL    HW1 3663   0.991   4.355   1.839
 1215SOL    HW2 3664   1.096   4.299   1.951
 1216SOL     OW 3665   0.078   4.280   3.248
 1216SOL    HW1 3666   0.170   4.279   3.207
 1216SOL    HW2 3667   0.072   4.354   3.315
 1217SOL     OW 3668   0.561   3.946   3.009
 1217SOL    HW1 3669   0.599   3.862   3.046
 1217SOL    HW2 3670   0.473   3.965   3.053
 1218SOL     OW 3671   0.866   4.178   2.504
 1218SOL    HW1 3672   0.834   4.250   2.442
 1218SOL    HW2 3673   0.890   4.097   2.451
 1219SOL     OW 3674   1.017   3.763   2.615
 1219SOL    HW1 3675   0.945   3.768   2.546
 1219SOL    HW2 3676   0.993   3.694   2.684
 1220SOL     OW 3677   1.466   4.314   2.854
 1220SOL    HW1 3678   1.436   4.219   2.861
 1220SOL    HW2 3679   1.539   4.330   2.920
 1221SOL     OW 3680   1.857   4.557   2.239
 1221SOL    HW1 3681   1.899   4.493   2.303
 1221SOL    HW2 3682   1.819   4.506   2.161
 1222SOL     OW 3683   1.390   4.299   1.940
 1222SOL    HW1 3684   1.336   4.278   2.021
 1222SOL    HW2 3685   1.481   4.258   1.949
 1223SOL     OW 3686   0.527   3.980   2.190
 1223SOL    HW1 3687   0.554   3.921   2.115
 1223SOL    HW2 3688   0.527   4.075   2.159
 1224SOL     OW 3689   1.638   4.823   2.941
 1224SOL    HW1 3690   1.643   4.904   3.000
 1224SOL    HW2 3691   1.552   4.825   2.890
 1225SOL     OW 3692   0.915   3.813   3.264
 1225SOL    HW1 3693   0.940   3.793   3.169
 1225SOL    HW2 3694   0.987   3.869   3.306
 1226SOL     OW 3695   0.410   4.537   3.113
 1226SOL    HW1 3696   0.496   4.549   3.163
 1226SOL    HW2 3697   0.368   4.450   3.140
 1227SOL     OW 3698   1.274   4.110   3.124
 1227SOL    HW1 3699   1.295   4.184   3.188
 1227SOL    HW2 3700   1.185   4.127   3.081
 1228SOL     OW 3701   0.566   4.261   2.727
 1228SOL    HW1 3702   0.578   4.327   2.653
 1228SOL    HW2 3703   0.612   4.295   2.810
 1229SOL     OW 3704   1.582   4.363   2.334
 1229SOL    HW1 3705   1.551   4.424   2.407
 1229SOL    HW2 3706   1.632   4.415   2.265
 1230SOL     OW 3707   0.402   4.475   3.460
 1230SOL    HW1 3708   0.470   4.530   3.413
 1230SOL    HW2 3709   0.442   4.387   3.487
 1231SOL     OW 3710   1.587   4.503   3.532
 1231SOL    HW1 3711   1.495   4.541   3.527
 1231SOL    HW2 3712   1.647   4.550   3.467
 1232SOL     OW 3713   1.013   3.829   3.632
 1232SOL    HW1 3714   1.019   3.914   3.580
 1232SOL    HW2 3715   1.045   3.753   3.575
 1233SOL     OW 3716   0.504   3.774   3.602
 1233SOL    HW1 3717   0.462   3.717   3.532
 1233SOL    HW2 3718   0.438   3.843   3.634
 1234SOL     OW 3719   0.573   4.594   2.891
 1234SOL    HW1 3720   0.617   4.683   2.882
 1234SOL    HW2 3721   0.510   4.594   2.968
 1235SOL     OW 3722   1.360   4.586   2.907
 1235SOL    HW1 3723   1.285   4.586   2.841
 1235SOL    HW2 3724   1.397   4.494   2.916
 1236SOL     OW 3725   1.209   4.249   2.137
 1236SOL    HW1 3726   1.222   4.165   2.191
 1236SOL    HW2 3727   1.180   4.323   2.197
 1237SOL     OW 3728   0.307   3.937   3.093
 1237SOL    HW1 3729   0.284   3.974   3.183
 1237SOL    HW2 3730   0.277   3.842   3.087
 1238SOL     OW 3731   0.732   4.358   2.926
 1238SOL    HW1 3732   0.791   4.332   2.850
 1238SOL    HW2 3733   0.704   4.454   2.915
 1239SOL     OW 3734   1.728   4.659   3.716
 1239SOL    HW1 3735   1.682   4.652   3.627
 1239SOL    HW2 3736   1.666   4.703   3.782
 1240SOL     OW 3737   0.307   3.787   2.480
 1240SOL    HW1 3738   0.296   3.881   2.513
 1240SOL    HW2 3739   0.302   3.724   2.557
 1241SOL     OW 3740   1.622   4.091   2.236
 1241SOL    HW1 3741   1.624   4.015   2.300
 1241SOL    HW2 3742   1.574   4.168   2.276
 1242SOL     OW 3743   1.023   4.490   2.828
 1242SOL    HW1 3744   1.038   4.511   2.924
 1242SOL    HW2 3745   0.993   4.395   2.819
 1243SOL     OW 3746   0.350   4.622   3.666
 1243SOL    HW1 3747   0.426   4.666   3.714
 1243SOL    HW2 3748   0.385   4.575   3.584
 1244SOL     OW 3749   1.540   3.998   1.987
 1244SOL    HW1 3750   1.479   3.923   2.010
 1244SOL    HW2 3751   1.562   4.050   2.070
 1245SOL     OW 3752   1.303   4.562   1.904
 1245SOL    HW1 3753   1.337   4.469   1.919
 1245SOL    HW2 3754   1.321   4.589   1.809
 1246SOL     OW 3755   0.319   4.534   2.811
 1246SOL    HW1 3756   0.412   4.570   2.816
 1246SOL    HW2 3757   0.313   4.449   2.863
 1247SOL     OW 3758   0.339   4.233   2.868
 1247SOL    HW1 3759   0.287   4.150   2.851
 1247SOL    HW2 3760   0.416   4.238   2.804
 1248SOL     OW 3761   1.138   4.104   3.540
 1248SOL    HW1 3762   1.093   4.167   3.604
 1248SOL    HW2 3763   1.231   4.135   3.523
 1249SOL     OW 3764   1.160   3.931   3.339
 1249SOL    HW1 3765   1.160   3.995   3.416
 1249SOL    HW2 3766   1.188   3.979   3.256
 1250SOL     OW 3767   1.002   4.520   3.100
 1250SOL    HW1 3768   1.043   4.488   3.186
 1250SOL    HW2 3769   0.906   4.493   3.097
 1251SOL     OW 3770   0.040   4.268   2.976
 1251SOL    HW1 3771   0.125   4.235   2.935
 1251SOL    HW2 3772   0.053   4.283   3.074
 1252SOL     OW 3773   0.189   4.244   3.584
 1252SOL    HW1 3774   0.248   4.204   3.514
 1252SOL    HW2 3775   0.131   4.315   3.543
 1253SOL     OW 3776   0.815   4.296   2.187
 1253SOL    HW1 3777   0.822   4.207   2.141
 1253SOL    HW2 3778   0.721   4.330   2.179
 1254SOL     OW 3779   1.657   4.328   3.068
 1254SOL    HW1 3780   1.619   4.259   3.130
 1254SOL    HW2 3781   1.739   4.292   3.024
 1255SOL     OW 3782   0.671   4.188   3.131
 1255SOL    HW1 3783   0.637   4.099   3.101
 1255SOL    HW2 3784   0.697   4.242   3.051
 1256SOL     OW 3785   0.473   4.224   2.053
 1256SOL    HW1 3786   0.534   4.304   2.057
 1256SOL    HW2 3787   0.378   4.255   2.060
 1257SOL     OW 3788   1.347   4.783   3.096
 1257SOL    HW1 3789   1.371   4.720   3.022
 1257SOL    HW2 3790   1.257   4.823   3.078
 1258SOL     OW 3791   1.302   4.579   2.171
 1258SOL    HW1 3792   1.216   4.548   2.213
 1258SOL    HW2 3793   1.298   4.565   2.072
 1259SOL     OW 3794   1.726   3.859   2.385
 1259SOL    HW1 3795   1.799   3.842   2.318
 1259SOL    HW2 3796   1.695   3.772   2.423
 1260SOL     OW 3797   1.280   4.651   2.534
 1260SOL    HW1 3798   1.340   4.570   2.536
 1260SOL    HW2 3799   1.320   4.720   2.474
 1261SOL     OW 3800   1.841   3.899   2.825
 1261SOL    HW1 3801   1.880   3.814   2.789
 1261SOL    HW2 3802   1.743   3.901   2.806
 1262SOL     OW 3803   0.263   4.050   2.582
 1262SOL    HW1 3804   0.184   4.101   2.548
 1262SOL    HW2 3805   0.254   4.035   2.680
 1263SOL     OW 3806   0.916   4.634   2.153
 1263SOL    HW1 3807   0.979   4.672   2.085
 1263SOL    HW2 3808   0.956   4.551   2.192
 1264SOL     OW 3809   1.014   3.960   2.833
 1264SOL    HW1 3810   1.006   3.924   2.740
 1264SOL    HW2 3811   1.012   3.884   2.898
 1265SOL     OW 3812   1.709   4.109   3.243
 1265SOL    HW1 3813   1.782   4.178   3.247
 1265SOL    HW2 3814   1.737   4.034   3.184
 1266SOL     OW 3815   0.105   4.737   3.588
 1266SOL    HW1 3816   0.028   4.704   3.642
 1266SOL    HW2 3817   0.190   4.707   3.630
 1267SOL     OW 3818   0.672   3.927   3.351
 1267SOL    HW1 3819   0.762   3.911   3.311
 1267SOL    HW2 3820   0.680   3.932   3.450
 1268SOL     OW 3821   0.075   4.069   1.895
 1268SOL    HW1 3822  -0.017   4.041   1.866
 1268SOL    HW2 3823   0.106   4.146   1.839
 1269SOL     OW 3824   1.440   4.580   3.260
 1269SOL    HW1 3825   1.383   4.632   3.197
 1269SOL    HW2 3826   1.536   4.592   3.236
 1270SOL     OW 3827   0.072   3.890   2.180
 1270SOL    HW1 3828   0.055   3.973   2.126
 1270SOL    HW2 3829   0.162   3.853   2.158
 1271SOL     OW 3830   0.613   4.566   3.293
 1271SOL    HW1 3831   0.669   4.647   3.276
 1271SOL    HW2 3832   0.672   4.486   3.296
 1272SOL     OW 3833   0.716   4.289   3.570
 1272SOL    HW1 3834   0.735   4.354   3.644
 1272SOL    HW2 3835   0.776   4.209   3.579
 1273SOL     OW 3836   1.674   4.607   3.116
 1273SOL    HW1 3837   1.647   4.518   3.079
 1273SOL    HW2 3838   1.675   4.675   3.043
 1274SOL     OW 3839   1.225   4.049   2.311
 1274SOL    HW1 3840   1.290   3.975   2.300
 1274SOL    HW2 3841   1.245   4.099   2.395
 1275SOL     OW 3842   0.594   4.469   2.514
 1275SOL    HW1 3843   0.644   4.554   2.495
 1275SOL    HW2 3844   0.506   4.471   2.466
 1276SOL     OW 3845   1.777   4.066   3.504
 1276SOL    HW1 3846   1.760   4.097   3.410
 1276SOL    HW2 3847   1.693   4.029   3.542
 1277SOL     OW 3848   1.730   4.658   3.379
 1277SOL    HW1 3849   1.768   4.749   3.394
 1277SOL    HW2 3850   1.722   4.641   3.280
 1278SOL     OW 3851   1.824   3.916   3.089
 1278SOL    HW1 3852   1.820   3.826   3.133
 1278SOL    HW2 3853   1.827   3.905   2.990
 1279SOL     OW 3854   0.428   4.148   2.382
 1279SOL    HW1 3855   0.458   4.076   2.320
 1279SOL    HW2 3856   0.389   4.108   2.465
 1280SOL     OW 3857   0.317   4.271   3.142
 1280SOL    HW1 3858   0.355   4.212   3.214
 1280SOL    HW2 3859   0.357   4.245   3.054
 1281SOL     OW 3860   1.424   3.938   2.974
 1281SOL    HW1 3861   1.476   3.873   3.029
 1281SOL    HW2 3862   1.375   4.001   3.035
 1282SOL     OW 3863   1.001   3.758   3.016
 1282SOL    HW1 3864   0.938   3.686   2.985
 1282SOL    HW2 3865   1.094   3.722   3.016
 1283SOL     OW 3866   1.352   3.776   2.030
 1283SOL    HW1 3867   1.387   3.735   1.946
 1283SOL    HW2 3868   1.262   3.738   2.050
 1284SOL     OW 3869   1.300   4.177   2.553
 1284SOL    HW1 3870   1.241   4.257   2.557
 1284SOL    HW2 3871   1.315   4.142   2.646
 1285SOL     OW 3872   1.593   3.945   2.744
 1285SOL    HW1 3873   1.509   3.944   2.798
 1285SOL    HW2 3874   1.595   4.028   2.688
 1286SOL     OW 3875   0.230   4.352   3.837
 1286SOL    HW1 3876   0.137   4.350   3.874
 1286SOL    HW2 3877   0.231   4.313   3.745
 1287SOL     OW 3878   0.019   4.092   4.371
 1287SOL    HW1 3879  -0.063   4.135   4.410
 1287SOL    HW2 3880  -0.009   4.019   4.308
 1288SOL     OW 3881   1.135   4.427   4.441
 1288SOL    HW1 3882   1.192   4.505   4.416
 1288SOL    HW2 3883   1.075   4.453   4.517
 1289SOL     OW 3884   1.755   4.331   3.955
 1289SOL    HW1 3885   1.743   4.318   3.856
 1289SOL    HW2 3886   1.725   4.250   4.004
 1290SOL     OW 3887   0.685   4.736   4.389
 1290SOL    HW1 3888   0.754   4.720   4.459
 1290SOL    HW2 3889   0.612   4.793   4.427
 1291SOL     OW 3890   1.603   4.171   4.461
 1291SOL    HW1 3891   1.529   4.217   4.411
 1291SOL    HW2 3892   1.654   4.239   4.514
 1292SOL     OW 3893   0.240   4.815   4.610
 1292SOL    HW1 3894   0.254   4.731   4.662
 1292SOL    HW2 3895   0.185   4.879   4.665
 1293SOL     OW 3896   0.122   4.367   4.287
 1293SOL    HW1 3897   0.077   4.279   4.304
 1293SOL    HW2 3898   0.121   4.421   4.371
 1294SOL     OW 3899   0.809   3.728   4.226
 1294SOL    HW1 3900   0.849   3.819   4.217
 1294SOL    HW2 3901   0.709   3.736   4.232
 1295SOL     OW 3902   1.525   4.723   3.914
 1295SOL    HW1 3903   1.462   4.647   3.927
 1295SOL    HW2 3904   1.573   4.741   4.000
 1296SOL     OW 3905   0.598   4.453   3.994
 1296SOL    HW1 3906   0.622   4.522   3.926
 1296SOL    HW2 3907   0.520   4.486   4.048
 1297SOL     OW 3908   1.281   4.069   4.668
 1297SOL    HW1 3909   1.195   4.019   4.655
 1297SOL    HW2 3910   1.343   4.015   4.724
 1298SOL     OW 3911   1.041   4.425   4.153
 1298SOL    HW1 3912   1.067   4.421   4.249
 1298SOL    HW2 3913   0.956   4.374   4.139
 1299SOL     OW 3914   0.076   4.535   4.513
 1299SOL    HW1 3915   0.175   4.523   4.522
 1299SOL    HW2 3916   0.052   4.630   4.534
 1300SOL     OW 3917   0.865   4.072   3.919
 1300SOL    HW1 3918   0.924   4.135   3.870
 1300SOL    HW2 3919   0.884   3.978   3.890
 1301SOL     OW 3920   0.550   3.920   4.609
 1301SOL    HW1 3921   0.545   3.915   4.709
 1301SOL    HW2 3922   0.552   4.016   4.580
 1302SOL     OW 3923   1.458   4.459   4.452
 1302SOL    HW1 3924   1.453   4.394   4.527
 1302SOL    HW2 3925   1.538   4.518   4.465
 1303SOL     OW 3926   1.400   3.831   4.150
 1303SOL    HW1 3927   1.376   3.794   4.060
 1303SOL    HW2 3928   1.499   3.847   4.154
 1304SOL     OW 3929   0.382   4.424   4.204
 1304SOL    HW1 3930   0.427   4.334   4.201
 1304SOL    HW2 3931   0.288   4.413   4.237
 1305SOL     OW 3932   0.614   3.846   3.841
 1305SOL    HW1 3933   0.712   3.824   3.848
 1305SOL    HW2 3934   0.583   3.829   3.748
 1306SOL     OW 3935   0.539   3.788   4.236
 1306SOL    HW1 3936   0.458   3.789   4.294
 1306SOL    HW2 3937   0.542   3.871   4.181
 1307SOL     OW 3938   0.297   3.759   3.895
 1307SOL    HW1 3939   0.346   3.843   3.874
 1307SOL    HW2 3940   0.359   3.694   3.940
 1308SOL     OW 3941   0.935   3.960   4.204
 1308SOL    HW1 3942   0.887   4.001   4.126
 1308SOL    HW2 3943   1.034   3.958   4.185
 1309SOL     OW 3944   1.032   4.273   3.740
 1309SOL    HW1 3945   0.991   4.355   3.701
 1309SOL    HW2 3946   1.096   4.299   3.813
 1310SOL     OW 3947   0.866   4.178   4.366
 1310SOL    HW1 3948   0.834   4.250   4.304
 1310SOL    HW2 3949   0.890   4.097   4.313
 1311SOL     OW 3950   1.017   3.763   4.477
 1311SOL    HW1 3951   0.945   3.768   4.408
 1311SOL    HW2 3952   0.993   3.694   4.546
 1312SOL     OW 3953   1.857   4.557   4.101
 1312SOL    HW1 3954   1.899   4.493   4.165
 1312SOL    HW2 3955   1.819   4.506   4.023
 1313SOL     OW 3956   1.390   4.299   3.802
 1313SOL    HW1 3957   1.336   4.278   3.883
 1313SOL    HW2 3958   1.481   4.258   3.811
 1314SOL     OW 3959   0.527   3.980   4.052
 1314SOL    HW1 3960   0.554   3.921   3.977
 1314SOL    HW2 3961   0.527   4.075   4.021
 1315SOL     OW 3962   1.111   4.919   4.824
 1315SOL    HW1 3963   1.071   4.963   4.905
 1315SOL    HW2 3964   1.070   4.956   4.741
 1316SOL     OW 3965   0.566   4.261   4.589
 1316SOL    HW1 3966   0.578   4.327   4.515
 1316SOL    HW2 3967   0.612   4.295   4.672
 1317SOL     OW 3968   1.582   4.363   4.196
 1317SOL    HW1 3969   1.551   4.424   4.269
 1317SOL    HW2 3970   1.632   4.415   4.127
 1318SOL     OW 3971   0.573   4.594   4.753
 1318SOL    HW1 3972   0.617   4.683   4.744
 1318SOL    HW2 3973   0.510   4.594   4.830
 1319SOL     OW 3974   1.209   4.249   3.999
 1319SOL    HW1 3975   1.222   4.165   4.053
 1319SOL    HW2 3976   1.180   4.323   4.059
 1320SOL     OW 3977   0.732   4.358   4.788
 1320SOL    HW1 3978   0.791   4.332   4.712
 1320SOL    HW2 3979   0.704   4.454   4.777
 1321SOL     OW 3980   0.307   3.787   4.342
 1321SOL    HW1 3981   0.296   3.881   4.375
 1321SOL    HW2 3982   0.302   3.724   4.419
 1322SOL     OW 3983   1.622   4.091   4.098
 1322SOL    HW1 3984   1.624   4.015   4.162
 1322SOL    HW2 3985   1.574   4.168   4.138
 1323SOL     OW 3986   1.540   3.998   3.849
 1323SOL    HW1 3987   1.479   3.923   3.872
 1323SOL    HW2 3988   1.562   4.050   3.932
 1324SOL     OW 3989   1.303   4.562   3.766
 1324SOL    HW1 3990   1.337   4.469   3.781
 1324SOL    HW2 3991   1.321   4.589   3.671
 1325SOL     OW 3992   1.068   5.057   4.573
 1325SOL    HW1 3993   1.075   4.973   4.518
 1325SOL    HW2 3994   1.130   5.126   4.537
 1326SOL     OW 3995   0.319   4.534   4.673
 1326SOL    HW1 3996   0.412   4.570   4.678
 1326SOL    HW2 3997   0.313   4.449   4.725
 1327SOL     OW 3998   0.815   4.296   4.049
 1327SOL    HW1 3999   0.822   4.207   4.003
 1327SOL    HW2 4000   0.721   4.330   4.041
 1328SOL     OW 4001   0.473   4.224   3.915
 1328SOL    HW1 4002   0.534   4.304   3.919
 1328SOL    HW2 4003   0.378   4.255   3.922
 1329SOL     OW 4004   1.302   4.579   4.033
 1329SOL    HW1 4005   1.216   4.548   4.075
 1329SOL    HW2 4006   1.298   4.565   3.934
 1330SOL     OW 4007   1.726   3.859   4.247
 1330SOL    HW1 4008   1.799   3.842   4.180
 1330SOL    HW2 4009   1.695   3.772   4.285
 1331SOL     OW 4010   1.280   4.651   4.396
 1331SOL    HW1 4011   1.340   4.570   4.398
 1331SOL    HW2 4012   1.320   4.720   4.336
 1332SOL     OW 4013   1.841   3.899   4.687
 1332SOL    HW1 4014   1.880   3.814   4.651
 1332SOL    HW2 4015   1.743   3.901   4.668
 1333SOL     OW 4016   0.263   4.050   4.444
 1333SOL    HW1 4017   0.184   4.101   4.410
 1333SOL    HW2 4018   0.254   4.035   4.542
 1334SOL     OW 4019   0.916   4.634   4.015
 1334SOL    HW1 4020   0.979   4.672   3.947
 1334SOL    HW2 4021   0.956   4.551   4.054
 1335SOL     OW 4022   0.075   4.069   3.757
 1335SOL    HW1 4023  -0.017   4.041   3.728
 1335SOL    HW2 4024   0.106   4.146   3.701
 1336SOL     OW 4025   0.072   3.890   4.042
 1336SOL    HW1 4026   0.055   3.973   3.988
 1336SOL    HW2 4027   0.162   3.853   4.020
 1337SOL     OW 4028   1.674   4.607   4.978
 1337SOL    HW1 4029   1.647   4.518   4.941
 1337SOL    HW2 4030   1.675   4.675   4.905
 1338SOL     OW 4031   1.225   4.049   4.173
 1338SOL    HW1 4032   1.290   3.975   4.162
 1338SOL    HW2 4033   1.245   4.099   4.257
 1339SOL     OW 4034   0.594   4.469   4.376
 1339SOL    HW1 4035   0.644   4.554   4.357
 1339SOL    HW2 4036   0.506   4.471   4.328
 1340SOL     OW 4037   0.428   4.148   4.244
 1340SOL    HW1 4038   0.458   4.076   4.182
 1340SOL    HW2 4039   0.389   4.108   4.327
 1341SOL     OW 4040   1.352   3.776   3.892
 1341SOL    HW1 4041   1.387   3.735   3.808
 1341SOL    HW2 4042   1.262   3.738   3.912
 1342SOL     OW 4043   1.300   4.177   4.415
 1342SOL    HW1 4044   1.241   4.257   4.419
 1342SOL    HW2 4045   1.315   4.142   4.508
 1343SOL     OW 4046   1.593   3.945   4.606
 1343SOL    HW1 4047   1.509   3.944   4.660
 1343SOL    HW2 4048   1.595   4.028   4.550
 1344SOL     OW 4049   2.092   0.628   0.113
 1344SOL    HW1 4050   1.999   0.626   0.150
 1344SOL    HW2 4051   2.093   0.589   0.021
 1345SOL     OW 4052   2.087   0.275   0.996
 1345SOL    HW1 4053   2.122   0.258   1.088
 1345SOL    HW2 4054   1.999   0.230   0.984
 1346SOL     OW 4055   1.881   0.368   0.647
 1346SOL    HW1 4056   1.799   0.411   0.686
 1346SOL    HW2 4057   1.853   0.295   0.584
 1347SOL     OW 4058   2.431   1.275   1.165
 1347SOL    HW1 4059   2.338   1.268   1.128
 1347SOL    HW2 4060   2.442   1.364   1.209
 1348SOL     OW 4061   3.417   1.511   0.703
 1348SOL    HW1 4062   3.360   1.495   0.784
 1348SOL    HW2 4063   3.358   1.521   0.623
 1349SOL     OW 4064   2.997   0.703   0.717
 1349SOL    HW1 4065   3.054   0.781   0.692
 1349SOL    HW2 4066   2.937   0.729   0.793
 1350SOL     OW 4067   3.617   0.607   0.231
 1350SOL    HW1 4068   3.605   0.594   0.132
 1350SOL    HW2 4069   3.587   0.526   0.280
 1351SOL     OW 4070   2.630   1.144   1.023
 1351SOL    HW1 4071   2.552   1.161   1.083
 1351SOL    HW2 4072   2.664   1.231   0.987
 1352SOL     OW 4073   2.712   0.798   1.823
 1352SOL    HW1 4074   2.708   0.874   1.888
 1352SOL    HW2 4075   2.734   0.834   1.732
 1353SOL     OW 4076   2.547   1.012   0.665
 1353SOL    HW1 4077   2.616   0.996   0.735
 1353SOL    HW2 4078   2.474   1.069   0.703
 1354SOL     OW 4079   2.548   1.161   1.803
 1354SOL    HW1 4080   2.608   1.240   1.817
 1354SOL    HW2 4081   2.462   1.192   1.762
 1355SOL     OW 4082   2.197   1.435   1.061
 1355SOL    HW1 4083   2.119   1.404   1.008
 1355SOL    HW2 4084   2.255   1.493   1.004
 1356SOL     OW 4085   3.322   1.505   1.339
 1356SOL    HW1 4086   3.346   1.599   1.365
 1356SOL    HW2 4087   3.306   1.451   1.421
 1357SOL     OW 4088   2.300   0.392   1.499
 1357SOL    HW1 4089   2.382   0.336   1.508
 1357SOL    HW2 4090   2.219   0.334   1.503
 1358SOL     OW 4091   3.465   0.447   0.737
 1358SOL    HW1 4092   3.391   0.493   0.687
 1358SOL    HW2 4093   3.516   0.515   0.790
 1359SOL     OW 4094   2.093   1.713   0.483
 1359SOL    HW1 4095   2.127   1.790   0.537
 1359SOL    HW2 4096   2.137   1.713   0.393
 1360SOL     OW 4097   2.989   1.341   1.690
 1360SOL    HW1 4098   3.036   1.341   1.778
 1360SOL    HW2 4099   2.941   1.254   1.679
 1361SOL     OW 4100   2.092   1.434   0.538
 1361SOL    HW1 4101   2.066   1.530   0.538
 1361SOL    HW2 4102   2.021   1.380   0.583
 1362SOL     OW 4103   2.102   1.091   0.886
 1362SOL    HW1 4104   2.116   1.007   0.938
 1362SOL    HW2 4105   2.047   1.155   0.941
 1363SOL     OW 4106   2.482   1.786   1.439
 1363SOL    HW1 4107   2.390   1.769   1.474
 1363SOL    HW2 4108   2.510   1.878   1.465
 1364SOL     OW 4109   2.468   0.964   0.123
 1364SOL    HW1 4110   2.475   1.048   0.069
 1364SOL    HW2 4111   2.514   0.977   0.211
 1365SOL     OW 4112   3.456   0.114   1.480
 1365SOL    HW1 4113   3.438   0.181   1.408
 1365SOL    HW2 4114   3.453   0.160   1.569
 1366SOL     OW 4115   1.984   0.643   0.563
 1366SOL    HW1 4116   1.939   0.555   0.580
 1366SOL    HW2 4117   1.983   0.697   0.647
 1367SOL     OW 4118   3.704   1.767   0.359
 1367SOL    HW1 4119   3.758   1.738   0.439
 1367SOL    HW2 4120   3.734   1.857   0.330
 1368SOL     OW 4121   3.551   0.922   0.612
 1368SOL    HW1 4122   3.646   0.893   0.620
 1368SOL    HW2 4123   3.543   0.987   0.537
 1369SOL     OW 4124   3.503   1.108   0.432
 1369SOL    HW1 4125   3.589   1.110   0.380
 1369SOL    HW2 4126   3.517   1.155   0.520
 1370SOL     OW 4127   1.975   0.737   1.597
 1370SOL    HW1 4128   2.063   0.724   1.642
 1370SOL    HW2 4129   1.962   0.834   1.575
 1371SOL     OW 4130   2.475   1.365   0.726
 1371SOL    HW1 4131   2.426   1.278   0.735
 1371SOL    HW2 4132   2.452   1.408   0.639
 1372SOL     OW 4133   3.155   1.228   1.423
 1372SOL    HW1 4134   3.192   1.155   1.365
 1372SOL    HW2 4135   3.207   1.233   1.508
 1373SOL     OW 4136   2.671   0.004   0.502
 1373SOL    HW1 4137   2.711   0.095   0.493
 1373SOL    HW2 4138   2.571   0.012   0.508
 1374SOL     OW 4139   2.059   0.976   1.264
 1374SOL    HW1 4140   2.148   0.931   1.250
 1374SOL    HW2 4141   1.986   0.911   1.245
 1375SOL     OW 4142   3.387   0.999   0.190
 1375SOL    HW1 4143   3.324   0.923   0.203
 1375SOL    HW2 4144   3.435   1.017   0.276
 1376SOL     OW 4145   3.049   1.792   1.616
 1376SOL    HW1 4146   3.073   1.852   1.540
 1376SOL    HW2 4147   3.056   1.697   1.586
 1377SOL     OW 4148   2.179   0.251   1.801
 1377SOL    HW1 4149   2.250   0.322   1.807
 1377SOL    HW2 4150   2.091   0.290   1.829
 1378SOL     OW 4151   3.328   1.417   0.953
 1378SOL    HW1 4152   3.269   1.423   1.033
 1378SOL    HW2 4153   3.313   1.329   0.907
 1379SOL     OW 4154   3.529   1.714   0.572
 1379SOL    HW1 4155   3.488   1.691   0.484
 1379SOL    HW2 4156   3.511   1.640   0.637
 1380SOL     OW 4157   2.460   0.729   0.270
 1380SOL    HW1 4158   2.484   0.798   0.202
 1380SOL    HW2 4159   2.382   0.762   0.324
 1381SOL     OW 4160   3.143   0.345   0.944
 1381SOL    HW1 4161   3.057   0.295   0.931
 1381SOL    HW2 4162   3.205   0.291   1.000
 1382SOL     OW 4163   3.438   1.662   0.307
 1382SOL    HW1 4164   3.527   1.708   0.310
 1382SOL    HW2 4165   3.417   1.638   0.212
 1383SOL     OW 4166   2.669   0.605   1.465
 1383SOL    HW1 4167   2.622   0.602   1.554
 1383SOL    HW2 4168   2.618   0.550   1.399
 1384SOL     OW 4169   3.256   0.469   1.674
 1384SOL    HW1 4170   3.236   0.512   1.762
 1384SOL    HW2 4171   3.334   0.407   1.683
 1385SOL     OW 4172   2.835   0.890   1.572
 1385SOL    HW1 4173   2.881   0.806   1.543
 1385SOL    HW2 4174   2.779   0.924   1.497
 1386SOL     OW 4175   2.853   0.410   1.242
 1386SOL    HW1 4176   2.776   0.444   1.296
 1386SOL    HW2 4177   2.819   0.359   1.163
 1387SOL     OW 4178   2.903   0.701   0.429
 1387SOL    HW1 4179   2.929   0.697   0.525
 1387SOL    HW2 4180   2.818   0.650   0.415
 1388SOL     OW 4181   1.938   0.811   0.789
 1388SOL    HW1 4182   2.037   0.799   0.798
 1388SOL    HW2 4183   1.914   0.906   0.810
 1389SOL     OW 4184   1.992   1.821   1.571
 1389SOL    HW1 4185   1.982   1.806   1.670
 1389SOL    HW2 4186   1.906   1.857   1.535
 1390SOL     OW 4187   2.727   0.348   0.195
 1390SOL    HW1 4188   2.786   0.411   0.146
 1390SOL    HW2 4189   2.746   0.254   0.166
 1391SOL     OW 4190   3.581   0.585   1.831
 1391SOL    HW1 4191   3.555   0.674   1.795
 1391SOL    HW2 4192   3.579   0.517   1.758
 1392SOL     OW 4193   3.224   1.144   0.545
 1392SOL    HW1 4194   3.307   1.115   0.497
 1392SOL    HW2 4195   3.175   1.211   0.489
 1393SOL     OW 4196   2.412   0.196   0.885
 1393SOL    HW1 4197   2.407   0.191   0.985
 1393SOL    HW2 4198   2.414   0.292   0.856
 1394SOL     OW 4199   2.870   1.456   0.477
 1394SOL    HW1 4200   2.824   1.528   0.425
 1394SOL    HW2 4201   2.866   1.476   0.575
 1395SOL     OW 4202   2.213   1.801   0.853
 1395SOL    HW1 4203   2.263   1.715   0.859
 1395SOL    HW2 4204   2.278   1.878   0.850
 1396SOL     OW 4205   3.657   1.066   0.873
 1396SOL    HW1 4206   3.595   1.051   0.797
 1396SOL    HW2 4207   3.605   1.077   0.958
 1397SOL     OW 4208   3.089   1.550   1.506
 1397SOL    HW1 4209   3.095   1.473   1.570
 1397SOL    HW2 4210   3.037   1.524   1.426
 1398SOL     OW 4211   2.183   0.943   0.242
 1398SOL    HW1 4212   2.265   0.982   0.200
 1398SOL    HW2 4213   2.156   0.861   0.193
 1399SOL     OW 4214   3.320   0.735   0.728
 1399SOL    HW1 4215   3.315   0.670   0.803
 1399SOL    HW2 4216   3.400   0.794   0.741
 1400SOL     OW 4217   2.323   1.266   1.727
 1400SOL    HW1 4218   2.273   1.267   1.641
 1400SOL    HW2 4219   2.260   1.248   1.803
 1401SOL     OW 4220   2.973   1.776   0.237
 1401SOL    HW1 4221   2.913   1.714   0.287
 1401SOL    HW2 4222   3.004   1.732   0.152
 1402SOL     OW 4223   2.064   0.285   1.498
 1402SOL    HW1 4224   1.984   0.345   1.485
 1402SOL    HW2 4225   2.054   0.236   1.584
 1403SOL     OW 4226   3.494   1.377   0.081
 1403SOL    HW1 4227   3.462   1.471   0.071
 1403SOL    HW2 4228   3.418   1.314   0.069
 1404SOL     OW 4229   2.326   1.743   0.323
 1404SOL    HW1 4230   2.359   1.782   0.409
 1404SOL    HW2 4231   2.402   1.736   0.258
 1405SOL     OW 4232   3.262   0.107   0.426
 1405SOL    HW1 4233   3.238   0.070   0.336
 1405SOL    HW2 4234   3.361   0.123   0.430
 1406SOL     OW 4235   2.111   1.785   1.241
 1406SOL    HW1 4236   2.168   1.720   1.291
 1406SOL    HW2 4237   2.095   1.752   1.148
 1407SOL     OW 4238   2.802   1.698   0.904
 1407SOL    HW1 4239   2.882   1.641   0.925
 1407SOL    HW2 4240   2.753   1.658   0.827
 1408SOL     OW 4241   2.244   0.700   0.480
 1408SOL    HW1 4242   2.289   0.610   0.477
 1408SOL    HW2 4243   2.150   0.689   0.513
 1409SOL     OW 4244   3.409   0.222   1.729
 1409SOL    HW1 4245   3.404   0.259   1.821
 1409SOL    HW2 4246   3.337   0.153   1.717
 1410SOL     OW 4247   2.476   0.122   0.117
 1410SOL    HW1 4248   2.574   0.100   0.124
 1410SOL    HW2 4249   2.445   0.105   0.024
 1411SOL     OW 4250   2.643   0.264   1.749
 1411SOL    HW1 4251   2.710   0.203   1.792
 1411SOL    HW2 4252   2.570   0.283   1.814
 1412SOL     OW 4253   2.750   1.514   1.195
 1412SOL    HW1 4254   2.727   1.489   1.101
 1412SOL    HW2 4255   2.811   1.445   1.234
 1413SOL     OW 4256   3.213   0.590   1.433
 1413SOL    HW1 4257   3.241   0.547   1.518
 1413SOL    HW2 4258   3.238   0.686   1.434
 1414SOL     OW 4259   2.665   1.402   0.924
 1414SOL    HW1 4260   2.755   1.416   0.882
 1414SOL    HW2 4261   2.594   1.404   0.853
 1415SOL     OW 4262   2.784   0.503   0.899
 1415SOL    HW1 4263   2.759   0.494   0.803
 1415SOL    HW2 4264   2.832   0.421   0.930
 1416SOL     OW 4265   2.401   0.064   0.512
 1416SOL    HW1 4266   2.320   0.065   0.570
 1416SOL    HW2 4267   2.404   0.147   0.457
 1417SOL     OW 4268   3.296   1.188   0.041
 1417SOL    HW1 4269   3.328   1.112   0.098
 1417SOL    HW2 4270   3.204   1.215   0.071
 1418SOL     OW 4271   2.159   0.035   0.171
 1418SOL    HW1 4272   2.208   0.119   0.150
 1418SOL    HW2 4273   2.221  -0.030   0.216
 1419SOL     OW 4274   2.797   0.236   0.480
 1419SOL    HW1 4275   2.749   0.277   0.402
 1419SOL    HW2 4276   2.896   0.234   0.461
 1420SOL     OW 4277   2.938   0.683   1.464
 1420SOL    HW1 4278   2.858   0.622   1.467
 1420SOL    HW2 4279   3.019   0.630   1.440
 1421SOL     OW 4280   3.089   1.570   0.793
 1421SOL    HW1 4281   3.110   1.644   0.728
 1421SOL    HW2 4282   3.157   1.570   0.866
 1422SOL     OW 4283   2.321   1.152   0.741
 1422SOL    HW1 4284   2.250   1.125   0.806
 1422SOL    HW2 4285   2.295   1.124   0.648
 1423SOL     OW 4286   3.133   1.797   0.591
 1423SOL    HW1 4287   3.177   1.861   0.527
 1423SOL    HW2 4288   3.083   1.849   0.661
 1424SOL     OW 4289   2.894   0.549   0.016
 1424SOL    HW1 4290   2.853   0.631  -0.023
 1424SOL    HW2 4291   2.958   0.575   0.089
 1425SOL     OW 4292   1.940   0.556   1.386
 1425SOL    HW1 4293   2.032   0.555   1.345
 1425SOL    HW2 4294   1.934   0.630   1.453
 1426SOL     OW 4295   2.423   0.222   1.147
 1426SOL    HW1 4296   2.461   0.138   1.184
 1426SOL    HW2 4297   2.335   0.241   1.191
 1427SOL     OW 4298   2.728   0.454   0.642
 1427SOL    HW1 4299   2.696   0.526   0.580
 1427SOL    HW2 4300   2.752   0.373   0.589
 1428SOL     OW 4301   2.879   0.039   0.753
 1428SOL    HW1 4302   2.807   0.044   0.684
 1428SOL    HW2 4303   2.855  -0.030   0.822
 1429SOL     OW 4304   3.291   1.173   0.867
 1429SOL    HW1 4305   3.236   1.089   0.860
 1429SOL    HW2 4306   3.317   1.202   0.775
 1430SOL     OW 4307   3.328   0.590   0.992
 1430SOL    HW1 4308   3.298   0.495   0.999
 1430SOL    HW2 4309   3.401   0.606   1.058
 1431SOL     OW 4310   3.719   0.833   0.377
 1431SOL    HW1 4311   3.761   0.769   0.441
 1431SOL    HW2 4312   3.681   0.782   0.299
 1432SOL     OW 4313   2.350   1.385   0.174
 1432SOL    HW1 4314   2.263   1.370   0.221
 1432SOL    HW2 4315   2.333   1.411   0.079
 1433SOL     OW 4316   3.526   1.280   0.657
 1433SOL    HW1 4317   3.625   1.288   0.671
 1433SOL    HW2 4318   3.481   1.364   0.688
 1434SOL     OW 4319   3.252   0.575   0.078
 1434SOL    HW1 4320   3.198   0.554   0.159
 1434SOL    HW2 4321   3.343   0.534   0.087
 1435SOL     OW 4322   2.389   0.256   0.328
 1435SOL    HW1 4323   2.416   0.197   0.253
 1435SOL    HW2 4324   2.389   0.351   0.297
 1436SOL     OW 4325   3.616   1.223   1.588
 1436SOL    HW1 4326   3.707   1.184   1.575
 1436SOL    HW2 4327   3.624   1.319   1.612
 1437SOL     OW 4328   2.926   1.347   1.340
 1437SOL    HW1 4329   2.846   1.324   1.395
 1437SOL    HW2 4330   3.009   1.321   1.389
 1438SOL     OW 4331   3.454   1.629   1.625
 1438SOL    HW1 4332   3.481   1.663   1.535
 1438SOL    HW2 4333   3.533   1.591   1.671
 1439SOL     OW 4334   2.973   1.195   1.100
 1439SOL    HW1 4335   2.933   1.239   1.181
 1439SOL    HW2 4336   2.932   1.232   1.017
 1440SOL     OW 4337   3.500   1.099   1.079
 1440SOL    HW1 4338   3.505   1.180   1.138
 1440SOL    HW2 4339   3.414   1.101   1.028
 1441SOL     OW 4340   2.777   0.089   1.402
 1441SOL    HW1 4341   2.802   0.069   1.307
 1441SOL    HW2 4342   2.849   0.145   1.444
 1442SOL     OW 4343   2.842   1.116   1.719
 1442SOL    HW1 4344   2.743   1.122   1.729
 1442SOL    HW2 4345   2.865   1.036   1.663
 1443SOL     OW 4346   2.567   1.050   0.368
 1443SOL    HW1 4347   2.553   1.057   0.467
 1443SOL    HW2 4348   2.651   0.999   0.350
 1444SOL     OW 4349   2.272   0.813   1.251
 1444SOL    HW1 4350   2.358   0.825   1.301
 1444SOL    HW2 4351   2.230   0.726   1.278
 1445SOL     OW 4352   3.136   0.386   1.262
 1445SOL    HW1 4353   3.157   0.460   1.326
 1445SOL    HW2 4354   3.047   0.403   1.219
 1446SOL     OW 4355   1.926   1.564   1.331
 1446SOL    HW1 4356   1.880   1.646   1.297
 1446SOL    HW2 4357   2.024   1.583   1.340
 1447SOL     OW 4358   2.229   1.100   0.501
 1447SOL    HW1 4359   2.222   1.183   0.445
 1447SOL    HW2 4360   2.233   1.020   0.441
 1448SOL     OW 4361   2.428   0.537   0.865
 1448SOL    HW1 4362   2.440   0.603   0.791
 1448SOL    HW2 4363   2.474   0.571   0.948
 1449SOL     OW 4364   3.114   1.348   0.388
 1449SOL    HW1 4365   3.164   1.425   0.428
 1449SOL    HW2 4366   3.019   1.350   0.420
 1450SOL     OW 4367   3.134   1.445   1.142
 1450SOL    HW1 4368   3.181   1.458   1.229
 1450SOL    HW2 4369   3.068   1.371   1.151
 1451SOL     OW 4370   3.444   0.639   0.472
 1451SOL    HW1 4371   3.413   0.700   0.545
 1451SOL    HW2 4372   3.494   0.691   0.403
 1452SOL     OW 4373   2.216   1.510   1.329
 1452SOL    HW1 4374   2.195   1.466   1.242
 1452SOL    HW2 4375   2.313   1.536   1.332
 1453SOL     OW 4376   2.264   0.751   1.598
 1453SOL    HW1 4377   2.332   0.806   1.551
 1453SOL    HW2 4378   2.304   0.663   1.625
 1454SOL     OW 4379   3.449   0.779   1.670
 1454SOL    HW1 4380   3.357   0.817   1.665
 1454SOL    HW2 4381   3.509   0.826   1.605
 1455SOL     OW 4382   2.875   0.105   1.770
 1455SOL    HW1 4383   2.881   0.190   1.718
 1455SOL    HW2 4384   2.907   0.029   1.713
 1456SOL     OW 4385   2.366   0.050   1.740
 1456SOL    HW1 4386   2.324  -0.007   1.670
 1456SOL    HW2 4387   2.300   0.119   1.772
 1457SOL     OW 4388   2.435   0.870   1.029
 1457SOL    HW1 4389   2.479   0.959   1.020
 1457SOL    HW2 4390   2.372   0.870   1.106
 1458SOL     OW 4391   3.222   0.862   1.045
 1458SOL    HW1 4392   3.147   0.862   0.979
 1458SOL    HW2 4393   3.259   0.770   1.054
 1459SOL     OW 4394   3.071   0.525   0.275
 1459SOL    HW1 4395   3.084   0.441   0.329
 1459SOL    HW2 4396   3.042   0.599   0.335
 1460SOL     OW 4397   2.169   0.213   1.231
 1460SOL    HW1 4398   2.146   0.250   1.321
 1460SOL    HW2 4399   2.139   0.118   1.225
 1461SOL     OW 4400   1.899   1.310   1.282
 1461SOL    HW1 4401   1.952   1.261   1.350
 1461SOL    HW2 4402   1.921   1.408   1.287
 1462SOL     OW 4403   2.594   0.634   1.064
 1462SOL    HW1 4404   2.653   0.608   0.988
 1462SOL    HW2 4405   2.566   0.730   1.053
 1463SOL     OW 4406   3.590   0.935   1.854
 1463SOL    HW1 4407   3.544   0.928   1.765
 1463SOL    HW2 4408   3.528   0.979   1.920
 1464SOL     OW 4409   2.169   0.063   0.618
 1464SOL    HW1 4410   2.158   0.157   0.651
 1464SOL    HW2 4411   2.164   0.000   0.695
 1465SOL     OW 4412   3.484   0.367   0.374
 1465SOL    HW1 4413   3.486   0.291   0.438
 1465SOL    HW2 4414   3.436   0.444   0.414
 1466SOL     OW 4415   2.885   0.766   0.966
 1466SOL    HW1 4416   2.900   0.787   1.062
 1466SOL    HW2 4417   2.855   0.671   0.957
 1467SOL     OW 4418   2.842   1.573   1.700
 1467SOL    HW1 4419   2.822   1.617   1.612
 1467SOL    HW2 4420   2.881   1.482   1.684
 1468SOL     OW 4421   3.721   1.518   1.605
 1468SOL    HW1 4422   3.735   1.545   1.510
 1468SOL    HW2 4423   3.804   1.540   1.658
 1469SOL     OW 4424   2.212   0.898   1.804
 1469SOL    HW1 4425   2.288   0.942   1.852
 1469SOL    HW2 4426   2.247   0.851   1.722
 1470SOL     OW 4427   3.402   0.274   0.125
 1470SOL    HW1 4428   3.341   0.199   0.148
 1470SOL    HW2 4429   3.424   0.326   0.208
 1471SOL     OW 4430   3.165   0.838   0.042
 1471SOL    HW1 4431   3.199   0.745   0.057
 1471SOL    HW2 4432   3.183   0.865  -0.053
 1472SOL     OW 4433   2.930   1.333   0.849
 1472SOL    HW1 4434   2.937   1.249   0.794
 1472SOL    HW2 4435   2.992   1.402   0.813
 1473SOL     OW 4436   2.181   0.810   0.949
 1473SOL    HW1 4437   2.274   0.846   0.954
 1473SOL    HW2 4438   2.175   0.725   1.001
 1474SOL     OW 4439   2.201   0.509   1.006
 1474SOL    HW1 4440   2.149   0.426   0.989
 1474SOL    HW2 4441   2.278   0.514   0.942
 1475SOL     OW 4442   3.000   0.380   1.678
 1475SOL    HW1 4443   2.955   0.443   1.742
 1475SOL    HW2 4444   3.093   0.411   1.661
 1476SOL     OW 4445   3.022   0.207   1.477
 1476SOL    HW1 4446   3.022   0.271   1.554
 1476SOL    HW2 4447   3.050   0.255   1.394
 1477SOL     OW 4448   1.870   1.326   0.200
 1477SOL    HW1 4449   1.777   1.347   0.169
 1477SOL    HW2 4450   1.880   1.227   0.213
 1478SOL     OW 4451   1.950   1.801   0.927
 1478SOL    HW1 4452   1.908   1.715   0.900
 1478SOL    HW2 4453   2.044   1.804   0.893
 1479SOL     OW 4454   2.366   1.568   0.910
 1479SOL    HW1 4455   2.432   1.642   0.919
 1479SOL    HW2 4456   2.410   1.489   0.868
 1480SOL     OW 4457   2.864   0.796   1.238
 1480SOL    HW1 4458   2.905   0.764   1.324
 1480SOL    HW2 4459   2.768   0.769   1.235
 1481SOL     OW 4460   1.902   0.544   1.114
 1481SOL    HW1 4461   1.987   0.511   1.073
 1481SOL    HW2 4462   1.915   0.559   1.212
 1482SOL     OW 4463   2.051   0.520   1.722
 1482SOL    HW1 4464   2.110   0.480   1.652
 1482SOL    HW2 4465   1.993   0.591   1.681
 1483SOL     OW 4466   3.231   0.950   1.660
 1483SOL    HW1 4467   3.270   1.039   1.680
 1483SOL    HW2 4468   3.241   0.930   1.563
 1484SOL     OW 4469   2.677   0.572   0.325
 1484SOL    HW1 4470   2.684   0.483   0.279
 1484SOL    HW2 4471   2.583   0.606   0.317
 1485SOL     OW 4472   3.519   0.604   1.206
 1485SOL    HW1 4473   3.481   0.535   1.268
 1485SOL    HW2 4474   3.601   0.568   1.162
 1486SOL     OW 4475   2.114   1.564   1.744
 1486SOL    HW1 4476   2.084   1.621   1.820
 1486SOL    HW2 4477   2.107   1.467   1.770
 1487SOL     OW 4478   2.533   0.464   1.269
 1487SOL    HW1 4479   2.499   0.375   1.239
 1487SOL    HW2 4480   2.559   0.518   1.189
 1488SOL     OW 4481   2.792   1.678   1.465
 1488SOL    HW1 4482   2.768   1.660   1.370
 1488SOL    HW2 4483   2.822   1.772   1.475
 1489SOL     OW 4484   2.335   0.500   0.191
 1489SOL    HW1 4485   2.396   0.580   0.195
 1489SOL    HW2 4486   2.240   0.531   0.198
 1490SOL     OW 4487   2.021   1.137   1.466
 1490SOL    HW1 4488   2.043   1.076   1.542
 1490SOL    HW2 4489   2.031   1.088   1.380
 1491SOL     OW 4490   3.209   1.059   1.234
 1491SOL    HW1 4491   3.233   0.996   1.160
 1491SOL    HW2 4492   3.119   1.099   1.216
 1492SOL     OW 4493   3.164   0.855   0.309
 1492SOL    HW1 4494   3.078   0.824   0.351
 1492SOL    HW2 4495   3.160   0.841   0.210
 1493SOL     OW 4496   3.621   1.747   1.154
 1493SOL    HW1 4497   3.682   1.777   1.081
 1493SOL    HW2 4498   3.583   1.658   1.132
 1494SOL     OW 4499   3.114   1.731   1.128
 1494SOL    HW1 4500   3.198   1.736   1.074
 1494SOL    HW2 4501   3.091   1.635   1.146
 1495SOL     OW 4502   1.945   1.258   1.022
 1495SOL    HW1 4503   1.940   1.257   1.122
 1495SOL    HW2 4504   1.862   1.217   0.984
 1496SOL     OW 4505   2.550   1.662   1.716
 1496SOL    HW1 4506   2.494   1.743   1.725
 1496SOL    HW2 4507   2.602   1.666   1.630
 1497SOL     OW 4508   2.765   0.086   0.133
 1497SOL    HW1 4509   2.816   0.087   0.047
 1497SOL    HW2 4510   2.821   0.044   0.204
 1498SOL     OW 4511   3.588   0.135   0.523
 1498SOL    HW1 4512   3.661   0.118   0.456
 1498SOL    HW2 4513   3.557   0.048   0.561
 1499SOL     OW 4514   3.250   1.573   0.477
 1499SOL    HW1 4515   3.317   1.585   0.403
 1499SOL    HW2 4516   3.210   1.662   0.500
 1500SOL     OW 4517   1.992   1.794   1.851
 1500SOL    HW1 4518   1.951   1.720   1.904
 1500SOL    HW2 4519   2.056   1.845   1.909
 1501SOL     OW 4520   3.142   0.927   0.672
 1501SOL    HW1 4521   3.202   0.846   0.674
 1501SOL    HW2 4522   3.182   0.996   0.612
 1502SOL     OW 4523   2.692   1.273   1.422
 1502SOL    HW1 4524   2.687   1.306   1.517
 1502SOL    HW2 4525   2.606   1.292   1.376
 1503SOL     OW 4526   2.534   1.616   0.154
 1503SOL    HW1 4527   2.543   1.626   0.055
 1503SOL    HW2 4528   2.494   1.527   0.175
 1504SOL     OW 4529   3.512   1.720   1.394
 1504SOL    HW1 4530   3.565   1.730   1.310
 1504SOL    HW2 4531   3.485   1.810   1.428
 1505SOL     OW 4532   3.703   0.175   0.963
 1505SOL    HW1 4533   3.742   0.090   0.927
 1505SOL    HW2 4534   3.605   0.177   0.944
 1506SOL     OW 4535   2.125   0.326   0.720
 1506SOL    HW1 4536   2.046   0.377   0.686
 1506SOL    HW2 4537   2.116   0.311   0.818
 1507SOL     OW 4538   3.056   1.612   0.031
 1507SOL    HW1 4539   3.062   1.519   0.068
 1507SOL    HW2 4540   2.997   1.612  -0.049
 1508SOL     OW 4541   2.684   1.002   1.372
 1508SOL    HW1 4542   2.724   1.001   1.280
 1508SOL    HW2 4543   2.694   1.094   1.412
 1509SOL     OW 4544   2.778   0.910   0.291
 1509SOL    HW1 4545   2.841   0.948   0.223
 1509SOL    HW2 4546   2.818   0.827   0.330
 1510SOL     OW 4547   3.366   1.607   0.044
 1510SOL    HW1 4548   3.274   1.644   0.051
 1510SOL    HW2 4549   3.404   1.627  -0.046
 1511SOL     OW 4550   2.234   1.288   1.490
 1511SOL    HW1 4551   2.221   1.381   1.456
 1511SOL    HW2 4552   2.150   1.236   1.477
 1512SOL     OW 4553   3.476   1.292   1.289
 1512SOL    HW1 4554   3.536   1.295   1.369
 1512SOL    HW2 4555   3.401   1.356   1.302
 1513SOL     OW 4556   2.901   1.098   0.696
 1513SOL    HW1 4557   2.831   1.051   0.750
 1513SOL    HW2 4558   2.960   1.030   0.653
 1514SOL     OW 4559   2.876   0.236   0.971
 1514SOL    HW1 4560   2.868   0.200   0.878
 1514SOL    HW2 4561   2.874   0.160   1.036
 1515SOL     OW 4562   2.452   1.487   0.491
 1515SOL    HW1 4563   2.494   1.429   0.421
 1515SOL    HW2 4564   2.408   1.566   0.447
 1516SOL     OW 4565   3.571   0.385   1.381
 1516SOL    HW1 4566   3.644   0.454   1.385
 1516SOL    HW2 4567   3.599   0.310   1.322
 1517SOL     OW 4568   2.117   1.348   0.290
 1517SOL    HW1 4569   2.021   1.349   0.263
 1517SOL    HW2 4570   2.129   1.401   0.374
 1518SOL     OW 4571   1.967   1.013   1.726
 1518SOL    HW1 4572   1.890   0.980   1.780
 1518SOL    HW2 4573   2.052   0.983   1.768
 1519SOL     OW 4574   2.534   0.203   1.489
 1519SOL    HW1 4575   2.624   0.187   1.449
 1519SOL    HW2 4576   2.542   0.208   1.588
 1520SOL     OW 4577   3.302   0.856   1.398
 1520SOL    HW1 4578   3.245   0.908   1.335
 1520SOL    HW2 4579   3.398   0.868   1.374
 1521SOL     OW 4580   3.045   1.335   0.119
 1521SOL    HW1 4581   2.946   1.324   0.121
 1521SOL    HW2 4582   3.079   1.350   0.212
 1522SOL     OW 4583   2.475   0.842   1.431
 1522SOL    HW1 4584   2.531   0.923   1.414
 1522SOL    HW2 4585   2.534   0.762   1.434
 1523SOL     OW 4586   3.355   1.767   0.959
 1523SOL    HW1 4587   3.388   1.831   0.890
 1523SOL    HW2 4588   3.421   1.761   1.034
 1524SOL     OW 4589   2.578   0.565   1.708
 1524SOL    HW1 4590   2.597   0.630   1.782
 1524SOL    HW2 4591   2.638   0.485   1.717
 1525SOL     OW 4592   3.312   1.220   1.633
 1525SOL    HW1 4593   3.303   1.210   1.732
 1525SOL    HW2 4594   3.408   1.213   1.607
 1526SOL     OW 4595   2.252   1.741   1.560
 1526SOL    HW1 4596   2.161   1.782   1.558
 1526SOL    HW2 4597   2.245   1.647   1.592
 1527SOL     OW 4598   3.536   0.883   1.254
 1527SOL    HW1 4599   3.509   0.794   1.217
 1527SOL    HW2 4600   3.537   0.951   1.181
 1528SOL     OW 4601   3.087   0.325   0.449
 1528SOL    HW1 4602   3.152   0.251   0.438
 1528SOL    HW2 4603   3.107   0.375   0.533
 1529SOL     OW 4604   2.456   0.745   0.652
 1529SOL    HW1 4605   2.506   0.830   0.633
 1529SOL    HW2 4606   2.368   0.747   0.604
 1530SOL     OW 4607   3.639   0.342   1.642
 1530SOL    HW1 4608   3.622   0.373   1.548
 1530SOL    HW2 4609   3.555   0.305   1.680
 1531SOL     OW 4610   3.592   0.934   1.517
 1531SOL    HW1 4611   3.630   1.025   1.532
 1531SOL    HW2 4612   3.584   0.917   1.418
 1532SOL     OW 4613   2.721   1.374   0.016
 1532SOL    HW1 4614   2.675   1.389   0.104
 1532SOL    HW2 4615   2.765   1.459  -0.014
 1533SOL     OW 4616   2.523   1.790   0.953
 1533SOL    HW1 4617   2.477   1.878   0.940
 1533SOL    HW2 4618   2.622   1.802   0.946
 1534SOL     OW 4619   2.721   0.956   0.861
 1534SOL    HW1 4620   2.775   0.887   0.909
 1534SOL    HW2 4621   2.689   1.025   0.927
 1535SOL     OW 4622   2.945   0.984   0.087
 1535SOL    HW1 4623   2.922   1.037   0.005
 1535SOL    HW2 4624   3.026   0.928   0.068
 1536SOL     OW 4625   3.723   1.569   0.851
 1536SOL    HW1 4626   3.652   1.557   0.781
 1536SOL    HW2 4627   3.724   1.490   0.911
 1537SOL     OW 4628   2.083   1.314   1.844
 1537SOL    HW1 4629   2.018   1.241   1.823
 1537SOL    HW2 4630   2.087   1.328   1.942
 1538SOL     OW 4631   1.941   1.240   0.653
 1538SOL    HW1 4632   1.940   1.193   0.741
 1538SOL    HW2 4633   2.023   1.212   0.602
 1539SOL     OW 4634   2.534   1.391   1.624
 1539SOL    HW1 4635   2.456   1.341   1.662
 1539SOL    HW2 4636   2.531   1.486   1.655
 1540SOL     OW 4637   3.686   0.192   1.227
 1540SOL    HW1 4638   3.682   0.102   1.271
 1540SOL    HW2 4639   3.689   0.181   1.128
 1541SOL     OW 4640   2.290   0.424   0.520
 1541SOL    HW1 4641   2.320   0.352   0.458
 1541SOL    HW2 4642   2.251   0.384   0.603
 1542SOL     OW 4643   3.567   1.487   1.104
 1542SOL    HW1 4644   3.474   1.462   1.077
 1542SOL    HW2 4645   3.593   1.437   1.186
 1543SOL     OW 4646   2.179   0.547   1.280
 1543SOL    HW1 4647   2.217   0.488   1.352
 1543SOL    HW2 4648   2.219   0.521   1.192
 1544SOL     OW 4649   2.674   1.586   0.687
 1544SOL    HW1 4650   2.706   1.596   0.593
 1544SOL    HW2 4651   2.595   1.524   0.689
 1545SOL     OW 4652   3.286   0.214   1.112
 1545SOL    HW1 4653   3.338   0.149   1.167
 1545SOL    HW2 4654   3.237   0.277   1.173
 1546SOL     OW 4655   2.863   0.034   1.154
 1546SOL    HW1 4656   2.800  -0.038   1.123
 1546SOL    HW2 4657   2.956  -0.002   1.154
 1547SOL     OW 4658   2.632   1.330   0.301
 1547SOL    HW1 4659   2.586   1.243   0.318
 1547SOL    HW2 4660   2.723   1.327   0.342
 1548SOL     OW 4661   2.480   1.567   1.284
 1548SOL    HW1 4662   2.475   1.649   1.341
 1548SOL    HW2 4663   2.569   1.564   1.239
 1549SOL     OW 4664   3.214   0.052   0.168
 1549SOL    HW1 4665   3.249   0.011   0.084
 1549SOL    HW2 4666   3.124   0.014   0.188
 1550SOL     OW 4667   3.162   0.453   0.691
 1550SOL    HW1 4668   3.103   0.533   0.695
 1550SOL    HW2 4669   3.177   0.418   0.784
 1551SOL     OW 4670   3.455   0.221   0.882
 1551SOL    HW1 4671   3.371   0.220   0.936
 1551SOL    HW2 4672   3.457   0.304   0.826
 1552SOL     OW 4673   1.901   1.077   0.300
 1552SOL    HW1 4674   2.000   1.066   0.291
 1552SOL    HW2 4675   1.861   0.991   0.332
 1553SOL     OW 4676   2.737   1.646   0.337
 1553SOL    HW1 4677   2.660   1.611   0.283
 1553SOL    HW2 4678   2.705   1.717   0.399
 1554SOL     OW 4679   2.092   0.628   1.975
 1554SOL    HW1 4680   1.999   0.626   2.012
 1554SOL    HW2 4681   2.093   0.589   1.883
 1555SOL     OW 4682   2.087   0.275   2.858
 1555SOL    HW1 4683   2.122   0.258   2.950
 1555SOL    HW2 4684   1.999   0.230   2.846
 1556SOL     OW 4685   1.881   0.368   2.509
 1556SOL    HW1 4686   1.799   0.411   2.548
 1556SOL    HW2 4687   1.853   0.295   2.446
 1557SOL     OW 4688   2.431   1.275   3.027
 1557SOL    HW1 4689   2.338   1.268   2.990
 1557SOL    HW2 4690   2.442   1.364   3.071
 1558SOL     OW 4691   3.417   1.511   2.565
 1558SOL    HW1 4692   3.360   1.495   2.646
 1558SOL    HW2 4693   3.358   1.521   2.485
 1559SOL     OW 4694   2.997   0.703   2.579
 1559SOL    HW1 4695   3.054   0.781   2.554
 1559SOL    HW2 4696   2.937   0.729   2.655
 1560SOL     OW 4697   3.617   0.607   2.093
 1560SOL    HW1 4698   3.605   0.594   1.994
 1560SOL    HW2 4699   3.587   0.526   2.142
 1561SOL     OW 4700   2.630   1.144   2.885
 1561SOL    HW1 4701   2.552   1.161   2.945
 1561SOL    HW2 4702   2.664   1.231   2.849
 1562SOL     OW 4703   2.712   0.798   3.685
 1562SOL    HW1 4704   2.708   0.874   3.750
 1562SOL    HW2 4705   2.734   0.834   3.594
 1563SOL     OW 4706   2.547   1.012   2.527
 1563SOL    HW1 4707   2.616   0.996   2.597
 1563SOL    HW2 4708   2.474   1.069   2.565
 1564SOL     OW 4709   2.548   1.161   3.665
 1564SOL    HW1 4710   2.608   1.240   3.679
 1564SOL    HW2 4711   2.462   1.192   3.624
 1565SOL     OW 4712   2.197   1.435   2.923
 1565SOL    HW1 4713   2.119   1.404   2.870
 1565SOL    HW2 4714   2.255   1.493   2.866
 1566SOL     OW 4715   3.322   1.505   3.201
 1566SOL    HW1 4716   3.346   1.599   3.227
 1566SOL    HW2 4717   3.306   1.451   3.283
 1567SOL     OW 4718   2.300   0.392   3.361
 1567SOL    HW1 4719   2.382   0.336   3.370
 1567SOL    HW2 4720   2.219   0.334   3.365
 1568SOL     OW 4721   3.465   0.447   2.599
 1568SOL    HW1 4722   3.391   0.493   2.549
 1568SOL    HW2 4723   3.516   0.515   2.652
 1569SOL     OW 4724   2.093   1.713   2.345
 1569SOL    HW1 4725   2.127   1.790   2.399
 1569SOL    HW2 4726   2.137   1.713   2.255
 1570SOL     OW 4727   2.989   1.341   3.552
 1570SOL    HW1 4728   3.036   1.341   3.640
 1570SOL    HW2 4729   2.941   1.254   3.541
 1571SOL     OW 4730   2.092   1.434   2.400
 1571SOL    HW1 4731   2.066   1.530   2.400
 1571SOL    HW2 4732   2.021   1.380   2.445
 1572SOL     OW 4733   2.102   1.091   2.748
 1572SOL    HW1 4734   2.116   1.007   2.800
 1572SOL    HW2 4735   2.047   1.155   2.803
 1573SOL     OW 4736   2.482   1.786   3.301
 1573SOL    HW1 4737   2.390   1.769   3.336
 1573SOL    HW2 4738   2.510   1.878   3.327
 1574SOL     OW 4739   2.468   0.964   1.985
 1574SOL    HW1 4740   2.475   1.048   1.931
 1574SOL    HW2 4741   2.514   0.977   2.073
 1575SOL     OW 4742   3.456   0.114   3.342
 1575SOL    HW1 4743   3.438   0.181   3.270
 1575SOL    HW2 4744   3.453   0.160   3.431
 1576SOL     OW 4745   1.984   0.643   2.425
 1576SOL    HW1 4746   1.939   0.555   2.442
 1576SOL    HW2 4747   1.983   0.697   2.509
 1577SOL     OW 4748   3.704   1.767   2.221
 1577SOL    HW1 4749   3.758   1.738   2.301
 1577SOL    HW2 4750   3.734   1.857   2.192
 1578SOL     OW 4751   1.889   1.596   1.979
 1578SOL    HW1 4752   1.870   1.500   2.000
 1578SOL    HW2 4753   1.856   1.654   2.054
 1579SOL     OW 4754   3.551   0.922   2.474
 1579SOL    HW1 4755   3.646   0.893   2.482
 1579SOL    HW2 4756   3.543   0.987   2.399
 1580SOL     OW 4757   3.503   1.108   2.294
 1580SOL    HW1 4758   3.589   1.110   2.242
 1580SOL    HW2 4759   3.517   1.155   2.382
 1581SOL     OW 4760   1.975   0.737   3.459
 1581SOL    HW1 4761   2.063   0.724   3.504
 1581SOL    HW2 4762   1.962   0.834   3.437
 1582SOL     OW 4763   2.475   1.365   2.588
 1582SOL    HW1 4764   2.426   1.278   2.597
 1582SOL    HW2 4765   2.452   1.408   2.501
 1583SOL     OW 4766   3.155   1.228   3.285
 1583SOL    HW1 4767   3.192   1.155   3.227
 1583SOL    HW2 4768   3.207   1.233   3.370
 1584SOL     OW 4769   2.671   0.004   2.364
 1584SOL    HW1 4770   2.711   0.095   2.355
 1584SOL    HW2 4771   2.571   0.012   2.370
 1585SOL     OW 4772   2.059   0.976   3.126
 1585SOL    HW1 4773   2.148   0.931   3.112
 1585SOL    HW2 4774   1.986   0.911   3.107
 1586SOL     OW 4775   3.387   0.999   2.052
 1586SOL    HW1 4776   3.324   0.923   2.065
 1586SOL    HW2 4777   3.435   1.017   2.138
 1587SOL     OW 4778   3.049   1.792   3.478
 1587SOL    HW1 4779   3.073   1.852   3.402
 1587SOL    HW2 4780   3.056   1.697   3.448
 1588SOL     OW 4781   2.179   0.251   3.663
 1588SOL    HW1 4782   2.250   0.322   3.669
 1588SOL    HW2 4783   2.091   0.290   3.691
 1589SOL     OW 4784   3.328   1.417   2.815
 1589SOL    HW1 4785   3.269   1.423   2.895
 1589SOL    HW2 4786   3.313   1.329   2.769
 1590SOL     OW 4787   3.529   1.714   2.434
 1590SOL    HW1 4788   3.488   1.691   2.346
 1590SOL    HW2 4789   3.511   1.640   2.499
 1591SOL     OW 4790   2.460   0.729   2.132
 1591SOL    HW1 4791   2.484   0.798   2.064
 1591SOL    HW2 4792   2.382   0.762   2.186
 1592SOL     OW 4793   3.143   0.345   2.806
 1592SOL    HW1 4794   3.057   0.295   2.793
 1592SOL    HW2 4795   3.205   0.291   2.862
 1593SOL     OW 4796   3.438   1.662   2.169
 1593SOL    HW1 4797   3.527   1.708   2.172
 1593SOL    HW2 4798   3.417   1.638   2.074
 1594SOL     OW 4799   2.669   0.605   3.327
 1594SOL    HW1 4800   2.622   0.602   3.416
 1594SOL    HW2 4801   2.618   0.550   3.261
 1595SOL     OW 4802   3.256   0.469   3.536
 1595SOL    HW1 4803   3.236   0.512   3.624
 1595SOL    HW2 4804   3.334   0.407   3.545
 1596SOL     OW 4805   2.835   0.890   3.434
 1596SOL    HW1 4806   2.881   0.806   3.405
 1596SOL    HW2 4807   2.779   0.924   3.359
 1597SOL     OW 4808   2.853   0.410   3.104
 1597SOL    HW1 4809   2.776   0.444   3.158
 1597SOL    HW2 4810   2.819   0.359   3.025
 1598SOL     OW 4811   2.903   0.701   2.291
 1598SOL    HW1 4812   2.929   0.697   2.387
 1598SOL    HW2 4813   2.818   0.650   2.277
 1599SOL     OW 4814   1.938   0.811   2.651
 1599SOL    HW1 4815   2.037   0.799   2.660
 1599SOL    HW2 4816   1.914   0.906   2.672
 1600SOL     OW 4817   1.992   1.821   3.433
 1600SOL    HW1 4818   1.982   1.806   3.532
 1600SOL    HW2 4819   1.906   1.857   3.397
 1601SOL     OW 4820   2.727   0.348   2.057
 1601SOL    HW1 4821   2.786   0.411   2.008
 1601SOL    HW2 4822   2.746   0.254   2.028
 1602SOL     OW 4823   3.581   0.585   3.693
 1602SOL    HW1 4824   3.555   0.674   3.657
 1602SOL    HW2 4825   3.579   0.517   3.620
 1603SOL     OW 4826   3.224   1.144   2.407
 1603SOL    HW1 4827   3.307   1.115   2.359
 1603SOL    HW2 4828   3.175   1.211   2.351
 1604SOL     OW 4829   2.412   0.196   2.747
 1604SOL    HW1 4830   2.407   0.191   2.847
 1604SOL    HW2 4831   2.414   0.292   2.718
 1605SOL     OW 4832   2.870   1.456   2.339
 1605SOL    HW1 4833   2.824   1.528   2.287
 1605SOL    HW2 4834   2.866   1.476   2.437
 1606SOL     OW 4835   2.213   1.801   2.715
 1606SOL    HW1 4836   2.263   1.715   2.721
 1606SOL    HW2 4837   2.278   1.878   2.712
 1607SOL     OW 4838   3.657   1.066   2.735
 1607SOL    HW1 4839   3.595   1.051   2.659
 1607SOL    HW2 4840   3.605   1.077   2.820
 1608SOL     OW 4841   3.089   1.550   3.368
 1608SOL    HW1 4842   3.095   1.473   3.432
 1608SOL    HW2 4843   3.037   1.524   3.288
 1609SOL     OW 4844   2.183   0.943   2.104
 1609SOL    HW1 4845   2.265   0.982   2.062
 1609SOL    HW2 4846   2.156   0.861   2.055
 1610SOL     OW 4847   3.320   0.735   2.590
 1610SOL    HW1 4848   3.315   0.670   2.665
 1610SOL    HW2 4849   3.400   0.794   2.603
 1611SOL     OW 4850   2.323   1.266   3.589
 1611SOL    HW1 4851   2.273   1.267   3.503
 1611SOL    HW2 4852   2.260   1.248   3.665
 1612SOL     OW 4853   2.973   1.776   2.099
 1612SOL    HW1 4854   2.913   1.714   2.149
 1612SOL    HW2 4855   3.004   1.732   2.014
 1613SOL     OW 4856   2.064   0.285   3.360
 1613SOL    HW1 4857   1.984   0.345   3.347
 1613SOL    HW2 4858   2.054   0.236   3.446
 1614SOL     OW 4859   3.494   1.377   1.943
 1614SOL    HW1 4860   3.462   1.471   1.933
 1614SOL    HW2 4861   3.418   1.314   1.931
 1615SOL     OW 4862   2.326   1.743   2.185
 1615SOL    HW1 4863   2.359   1.782   2.271
 1615SOL    HW2 4864   2.402   1.736   2.120
 1616SOL     OW 4865   3.262   0.107   2.288
 1616SOL    HW1 4866   3.238   0.070   2.198
 1616SOL    HW2 4867   3.361   0.123   2.292
 1617SOL     OW 4868   2.111   1.785   3.103
 1617SOL    HW1 4869   2.168   1.720   3.153
 1617SOL    HW2 4870   2.095   1.752   3.010
 1618SOL     OW 4871   2.802   1.698   2.766
 1618SOL    HW1 4872   2.882   1.641   2.787
 1618SOL    HW2 4873   2.753   1.658   2.689
 1619SOL     OW 4874   2.244   0.700   2.342
 1619SOL    HW1 4875   2.289   0.610   2.339
 1619SOL    HW2 4876   2.150   0.689   2.375
 1620SOL     OW 4877   3.409   0.222   3.591
 1620SOL    HW1 4878   3.404   0.259   3.683
 1620SOL    HW2 4879   3.337   0.153   3.579
 1621SOL     OW 4880   2.476   0.122   1.979
 1621SOL    HW1 4881   2.574   0.100   1.986
 1621SOL    HW2 4882   2.445   0.105   1.886
 1622SOL     OW 4883   2.643   0.264   3.611
 1622SOL    HW1 4884   2.710   0.203   3.654
 1622SOL    HW2 4885   2.570   0.283   3.676
 1623SOL     OW 4886   2.750   1.514   3.057
 1623SOL    HW1 4887   2.727   1.489   2.963
 1623SOL    HW2 4888   2.811   1.445   3.096
 1624SOL     OW 4889   3.213   0.590   3.295
 1624SOL    HW1 4890   3.241   0.547   3.380
 1624SOL    HW2 4891   3.238   0.686   3.296
 1625SOL     OW 4892   2.665   1.402   2.786
 1625SOL    HW1 4893   2.755   1.416   2.744
 1625SOL    HW2 4894   2.594   1.404   2.715
 1626SOL     OW 4895   2.784   0.503   2.761
 1626SOL    HW1 4896   2.759   0.494   2.665
 1626SOL    HW2 4897   2.832   0.421   2.792
 1627SOL     OW 4898   2.401   0.064   2.374
 1627SOL    HW1 4899   2.320   0.065   2.432
 1627SOL    HW2 4900   2.404   0.147   2.319
 1628SOL     OW 4901   3.296   1.188   1.903
 1628SOL    HW1 4902   3.328   1.112   1.960
 1628SOL    HW2 4903   3.204   1.215   1.933
 1629SOL     OW 4904   2.159   0.035   2.033
 1629SOL    HW1 4905   2.208   0.119   2.012
 1629SOL    HW2 4906   2.221  -0.030   2.078
 1630SOL     OW 4907   2.797   0.236   2.342
 1630SOL    HW1 4908   2.749   0.277   2.264
 1630SOL    HW2 4909   2.896   0.234   2.323
 1631SOL     OW 4910   2.938   0.683   3.326
 1631SOL    HW1 4911   2.858   0.622   3.329
 1631SOL    HW2 4912   3.019   0.630   3.302
 1632SOL     OW 4913   3.089   1.570   2.655
 1632SOL    HW1 4914   3.110   1.644   2.590
 1632SOL    HW2 4915   3.157   1.570   2.728
 1633SOL     OW 4916   2.321   1.152   2.603
 1633SOL    HW1 4917   2.250   1.125   2.668
 1633SOL    HW2 4918   2.295   1.124   2.510
 1634SOL     OW 4919   3.133   1.797   2.453
 1634SOL    HW1 4920   3.177   1.861   2.389
 1634SOL    HW2 4921   3.083   1.849   2.523
 1635SOL     OW 4922   2.894   0.549   1.878
 1635SOL    HW1 4923   2.853   0.631   1.839
 1635SOL    HW2 4924   2.958   0.575   1.951
 1636SOL     OW 4925   1.940   0.556   3.248
 1636SOL    HW1 4926   2.032   0.555   3.207
 1636SOL    HW2 4927   1.934   0.630   3.315
 1637SOL     OW 4928   2.423   0.222   3.009
 1637SOL    HW1 4929   2.461   0.138   3.046
 1637SOL    HW2 4930   2.335   0.241   3.053
 1638SOL     OW 4931   2.728   0.454   2.504
 1638SOL    HW1 4932   2.696   0.526   2.442
 1638SOL    HW2 4933   2.752   0.373   2.451
 1639SOL     OW 4934   2.879   0.039   2.615
 1639SOL    HW1 4935   2.807   0.044   2.546
 1639SOL    HW2 4936   2.855  -0.030   2.684
 1640SOL     OW 4937   3.291   1.173   2.729
 1640SOL    HW1 4938   3.236   1.089   2.722
 1640SOL    HW2 4939   3.317   1.202   2.637
 1641SOL     OW 4940   3.328   0.590   2.854
 1641SOL    HW1 4941   3.298   0.495   2.861
 1641SOL    HW2 4942   3.401   0.606   2.920
 1642SOL     OW 4943   3.719   0.833   2.239
 1642SOL    HW1 4944   3.761   0.769   2.303
 1642SOL    HW2 4945   3.681   0.782   2.161
 1643SOL     OW 4946   2.350   1.385   2.036
 1643SOL    HW1 4947   2.263   1.370   2.083
 1643SOL    HW2 4948   2.333   1.411   1.941
 1644SOL     OW 4949   3.526   1.280   2.519
 1644SOL    HW1 4950   3.625   1.288   2.533
 1644SOL    HW2 4951   3.481   1.364   2.550
 1645SOL     OW 4952   3.252   0.575   1.940
 1645SOL    HW1 4953   3.198   0.554   2.021
 1645SOL    HW2 4954   3.343   0.534   1.949
 1646SOL     OW 4955   2.389   0.256   2.190
 1646SOL    HW1 4956   2.416   0.197   2.115
 1646SOL    HW2 4957   2.389   0.351   2.159
 1647SOL     OW 4958   3.616   1.223   3.450
 1647SOL    HW1 4959   3.707   1.184   3.437
 1647SOL    HW2 4960   3.624   1.319   3.474
 1648SOL     OW 4961   2.926   1.347   3.202
 1648SOL    HW1 4962   2.846   1.324   3.257
 1648SOL    HW2 4963   3.009   1.321   3.251
 1649SOL     OW 4964   3.454   1.629   3.487
 1649SOL    HW1 4965   3.481   1.663   3.397
 1649SOL    HW2 4966   3.533   1.591   3.533
 1650SOL     OW 4967   2.973   1.195   2.962
 1650SOL    HW1 4968   2.933   1.239   3.043
 1650SOL    HW2 4969   2.932   1.232   2.879
 1651SOL     OW 4970   3.500   1.099   2.941
 1651SOL    HW1 4971   3.505   1.180   3.000
 1651SOL    HW2 4972   3.414   1.101   2.890
 1652SOL     OW 4973   2.777   0.089   3.264
 1652SOL    HW1 4974   2.802   0.069   3.169
 1652SOL    HW2 4975   2.849   0.145   3.306
 1653SOL     OW 4976   2.842   1.116   3.581
 1653SOL    HW1 4977   2.743   1.122   3.591
 1653SOL    HW2 4978   2.865   1.036   3.525
 1654SOL     OW 4979   2.567   1.050   2.230
 1654SOL    HW1 4980   2.553   1.057   2.329
 1654SOL    HW2 4981   2.651   0.999   2.212
 1655SOL     OW 4982   2.272   0.813   3.113
 1655SOL    HW1 4983   2.358   0.825   3.163
 1655SOL    HW2 4984   2.230   0.726   3.140
 1656SOL     OW 4985   3.136   0.386   3.124
 1656SOL    HW1 4986   3.157   0.460   3.188
 1656SOL    HW2 4987   3.047   0.403   3.081
 1657SOL     OW 4988   1.926   1.564   3.193
 1657SOL    HW1 4989   1.880   1.646   3.159
 1657SOL    HW2 4990   2.024   1.583   3.202
 1658SOL     OW 4991   2.229   1.100   2.363
 1658SOL    HW1 4992   2.222   1.183   2.307
 1658SOL    HW2 4993   2.233   1.020   2.303
 1659SOL     OW 4994   2.428   0.537   2.727
 1659SOL    HW1 4995   2.440   0.603   2.653
 1659SOL    HW2 4996   2.474   0.571   2.810
 1660SOL     OW 4997   3.114   1.348   2.250
 1660SOL    HW1 4998   3.164   1.425   2.290
 1660SOL    HW2 4999   3.019   1.350   2.282
 1661SOL     OW 5000   3.134   1.445   3.004
 1661SOL    HW1 5001   3.181   1.458   3.091
 1661SOL    HW2 5002   3.068   1.371   3.013
 1662SOL     OW 5003   3.444   0.639   2.334
 1662SOL    HW1 5004   3.413   0.700   2.407
 1662SOL    HW2 5005   3.494   0.691   2.265
 1663SOL     OW 5006   2.216   1.510   3.191
 1663SOL    HW1 5007   2.195   1.466   3.104
 1663SOL    HW2 5008   2.313   1.536   3.194
 1664SOL     OW 5009   2.264   0.751   3.460
 1664SOL    HW1 5010   2.332   0.806   3.413
 1664SOL    HW2 5011   2.304   0.663   3.487
 1665SOL     OW 5012   3.449   0.779   3.532
 1665SOL    HW1 5013   3.357   0.817   3.527
 1665SOL    HW2 5014   3.509   0.826   3.467
 1666SOL     OW 5015   2.875   0.105   3.632
 1666SOL    HW1 5016   2.881   0.190   3.580
 1666SOL    HW2 5017   2.907   0.029   3.575
 1667SOL     OW 5018   2.366   0.050   3.602
 1667SOL    HW1 5019   2.324  -0.007   3.532
 1667SOL    HW2 5020   2.300   0.119   3.634
 1668SOL     OW 5021   2.435   0.870   2.891
 1668SOL    HW1 5022   2.479   0.959   2.882
 1668SOL    HW2 5023   2.372   0.870   2.968
 1669SOL     OW 5024   3.222   0.862   2.907
 1669SOL    HW1 5025   3.147   0.862   2.841
 1669SOL    HW2 5026   3.259   0.770   2.916
 1670SOL     OW 5027   3.071   0.525   2.137
 1670SOL    HW1 5028   3.084   0.441   2.191
 1670SOL    HW2 5029   3.042   0.599   2.197
 1671SOL     OW 5030   2.169   0.213   3.093
 1671SOL    HW1 5031   2.146   0.250   3.183
 1671SOL    HW2 5032   2.139   0.118   3.087
 1672SOL     OW 5033   1.899   1.310   3.144
 1672SOL    HW1 5034   1.952   1.261   3.212
 1672SOL    HW2 5035   1.921   1.408   3.149
 1673SOL     OW 5036   2.594   0.634   2.926
 1673SOL    HW1 5037   2.653   0.608   2.850
 1673SOL    HW2 5038   2.566   0.730   2.915
 1674SOL     OW 5039   3.590   0.935   3.716
 1674SOL    HW1 5040   3.544   0.928   3.627
 1674SOL    HW2 5041   3.528   0.979   3.782
 1675SOL     OW 5042   2.169   0.063   2.480
 1675SOL    HW1 5043   2.158   0.157   2.513
 1675SOL    HW2 5044   2.164   0.000   2.557
 1676SOL     OW 5045   3.484   0.367   2.236
 1676SOL    HW1 5046   3.486   0.291   2.300
 1676SOL    HW2 5047   3.436   0.444   2.276
 1677SOL     OW 5048   2.885   0.766   2.828
 1677SOL    HW1 5049   2.900   0.787   2.924
 1677SOL    HW2 5050   2.855   0.671   2.819
 1678SOL     OW 5051   2.842   1.573   3.562
 1678SOL    HW1 5052   2.822   1.617   3.474
 1678SOL    HW2 5053   2.881   1.482   3.546
 1679SOL     OW 5054   3.721   1.518   3.467
 1679SOL    HW1 5055   3.735   1.545   3.372
 1679SOL    HW2 5056   3.804   1.540   3.520
 1680SOL     OW 5057   2.212   0.898   3.666
 1680SOL    HW1 5058   2.288   0.942   3.714
 1680SOL    HW2 5059   2.247   0.851   3.584
 1681SOL     OW 5060   3.402   0.274   1.987
 1681SOL    HW1 5061   3.341   0.199   2.010
 1681SOL    HW2 5062   3.424   0.326   2.070
 1682SOL     OW 5063   3.165   0.838   1.904
 1682SOL    HW1 5064   3.199   0.745   1.919
 1682SOL    HW2 5065   3.183   0.865   1.809
 1683SOL     OW 5066   2.930   1.333   2.711
 1683SOL    HW1 5067   2.937   1.249   2.656
 1683SOL    HW2 5068   2.992   1.402   2.675
 1684SOL     OW 5069   2.181   0.810   2.811
 1684SOL    HW1 5070   2.274   0.846   2.816
 1684SOL    HW2 5071   2.175   0.725   2.863
 1685SOL     OW 5072   2.201   0.509   2.868
 1685SOL    HW1 5073   2.149   0.426   2.851
 1685SOL    HW2 5074   2.278   0.514   2.804
 1686SOL     OW 5075   3.000   0.380   3.540
 1686SOL    HW1 5076   2.955   0.443   3.604
 1686SOL    HW2 5077   3.093   0.411   3.523
 1687SOL     OW 5078   3.022   0.207   3.339
 1687SOL    HW1 5079   3.022   0.271   3.416
 1687SOL    HW2 5080   3.050   0.255   3.256
 1688SOL     OW 5081   1.870   1.326   2.062
 1688SOL    HW1 5082   1.777   1.347   2.031
 1688SOL    HW2 5083   1.880   1.227   2.075
 1689SOL     OW 5084   1.950   1.801   2.789
 1689SOL    HW1 5085   1.908   1.715   2.762
 1689SOL    HW2 5086   2.044   1.804   2.755
 1690SOL     OW 5087   2.366   1.568   2.772
 1690SOL    HW1 5088   2.432   1.642   2.781
 1690SOL    HW2 5089   2.410   1.489   2.730
 1691SOL     OW 5090   2.864   0.796   3.100
 1691SOL    HW1 5091   2.905   0.764   3.186
 1691SOL    HW2 5092   2.768   0.769   3.097
 1692SOL     OW 5093   1.902   0.544   2.976
 1692SOL    HW1 5094   1.987   0.511   2.935
 1692SOL    HW2 5095   1.915   0.559   3.074
 1693SOL     OW 5096   2.051   0.520   3.584
 1693SOL    HW1 5097   2.110   0.480   3.514
 1693SOL    HW2 5098   1.993   0.591   3.543
 1694SOL     OW 5099   3.231   0.950   3.522
 1694SOL    HW1 5100   3.270   1.039   3.542
 1694SOL    HW2 5101   3.241   0.930   3.425
 1695SOL     OW 5102   2.677   0.572   2.187
 1695SOL    HW1 5103   2.684   0.483   2.141
 1695SOL    HW2 5104   2.583   0.606   2.179
 1696SOL     OW 5105   3.519   0.604   3.068
 1696SOL    HW1 5106   3.481   0.535   3.130
 1696SOL    HW2 5107   3.601   0.568   3.024
 1697SOL     OW 5108   2.114   1.564   3.606
 1697SOL    HW1 5109   2.084   1.621   3.682
 1697SOL    HW2 5110   2.107   1.467   3.632
 1698SOL     OW 5111   2.533   0.464   3.131
 1698SOL    HW1 5112   2.499   0.375   3.101
 1698SOL    HW2 5113   2.559   0.518   3.051
 1699SOL     OW 5114   2.792   1.678   3.327
 1699SOL    HW1 5115   2.768   1.660   3.232
 1699SOL    HW2 5116   2.822   1.772   3.337
 1700SOL     OW 5117   2.335   0.500   2.053
 1700SOL    HW1 5118   2.396   0.580   2.057
 1700SOL    HW2 5119   2.240   0.531   2.060
 1701SOL     OW 5120   2.021   1.137   3.328
 1701SOL    HW1 5121   2.043   1.076   3.404
 1701SOL    HW2 5122   2.031   1.088   3.242
 1702SOL     OW 5123   3.209   1.059   3.096
 1702SOL    HW1 5124   3.233   0.996   3.022
 1702SOL    HW2 5125   3.119   1.099   3.078
 1703SOL     OW 5126   3.164   0.855   2.171
 1703SOL    HW1 5127   3.078   0.824   2.213
 1703SOL    HW2 5128   3.160   0.841   2.072
 1704SOL     OW 5129   3.621   1.747   3.016
 1704SOL    HW1 5130   3.682   1.777   2.943
 1704SOL    HW2 5131   3.583   1.658   2.994
 1705SOL     OW 5132   3.114   1.731   2.990
 1705SOL    HW1 5133   3.198   1.736   2.936
 1705SOL    HW2 5134   3.091   1.635   3.008
 1706SOL     OW 5135   1.945   1.258   2.884
 1706SOL    HW1 5136   1.940   1.257   2.984
 1706SOL    HW2 5137   1.862   1.217   2.846
 1707SOL     OW 5138   2.550   1.662   3.578
 1707SOL    HW1 5139   2.494   1.743   3.587
 1707SOL    HW2 5140   2.602   1.666   3.492
 1708SOL     OW 5141   3.588   0.135   2.385
 1708SOL    HW1 5142   3.661   0.118   2.318
 1708SOL    HW2 5143   3.557   0.048   2.423
 1709SOL     OW 5144   3.250   1.573   2.339
 1709SOL    HW1 5145   3.317   1.585   2.265
 1709SOL    HW2 5146   3.210   1.662   2.362
 1710SOL     OW 5147   1.992   1.794   3.713
 1710SOL    HW1 5148   1.951   1.720   3.766
 1710SOL    HW2 5149   2.056   1.845   3.771
 1711SOL     OW 5150   3.142   0.927   2.534
 1711SOL    HW1 5151   3.202   0.846   2.536
 1711SOL    HW2 5152   3.182   0.996   2.474
 1712SOL     OW 5153   2.692   1.273   3.284
 1712SOL    HW1 5154   2.687   1.306   3.379
 1712SOL    HW2 5155   2.606   1.292   3.238
 1713SOL     OW 5156   2.534   1.616   2.016
 1713SOL    HW1 5157   2.543   1.626   1.917
 1713SOL    HW2 5158   2.494   1.527   2.037
 1714SOL     OW 5159   3.512   1.720   3.256
 1714SOL    HW1 5160   3.565   1.730   3.172
 1714SOL    HW2 5161   3.485   1.810   3.290
 1715SOL     OW 5162   3.703   0.175   2.825
 1715SOL    HW1 5163   3.742   0.090   2.789
 1715SOL    HW2 5164   3.605   0.177   2.806
 1716SOL     OW 5165   2.125   0.326   2.582
 1716SOL    HW1 5166   2.046   0.377   2.548
 1716SOL    HW2 5167   2.116   0.311   2.680
 1717SOL     OW 5168   3.056   1.612   1.893
 1717SOL    HW1 5169   3.062   1.519   1.930
 1717SOL    HW2 5170   2.997   1.612   1.813
 1718SOL     OW 5171   2.684   1.002   3.234
 1718SOL    HW1 5172   2.724   1.001   3.142
 1718SOL    HW2 5173   2.694   1.094   3.274
 1719SOL     OW 5174   2.778   0.910   2.153
 1719SOL    HW1 5175   2.841   0.948   2.085
 1719SOL    HW2 5176   2.818   0.827   2.192
 1720SOL     OW 5177   3.366   1.607   1.906
 1720SOL    HW1 5178   3.274   1.644   1.913
 1720SOL    HW2 5179   3.404   1.627   1.816
 1721SOL     OW 5180   2.234   1.288   3.352
 1721SOL    HW1 5181   2.221   1.381   3.318
 1721SOL    HW2 5182   2.150   1.236   3.339
 1722SOL     OW 5183   3.476   1.292   3.151
 1722SOL    HW1 5184   3.536   1.295   3.231
 1722SOL    HW2 5185   3.401   1.356   3.164
 1723SOL     OW 5186   2.901   1.098   2.558
 1723SOL    HW1 5187   2.831   1.051   2.612
 1723SOL    HW2 5188   2.960   1.030   2.515
 1724SOL     OW 5189   2.876   0.236   2.833
 1724SOL    HW1 5190   2.868   0.200   2.740
 1724SOL    HW2 5191   2.874   0.160   2.898
 1725SOL     OW 5192   2.452   1.487   2.353
 1725SOL    HW1 5193   2.494   1.429   2.283
 1725SOL    HW2 5194   2.408   1.566   2.309
 1726SOL     OW 5195   3.571   0.385   3.243
 1726SOL    HW1 5196   3.644   0.454   3.247
 1726SOL    HW2 5197   3.599   0.310   3.184
 1727SOL     OW 5198   2.117   1.348   2.152
 1727SOL    HW1 5199   2.021   1.349   2.125
 1727SOL    HW2 5200   2.129   1.401   2.236
 1728SOL     OW 5201   1.967   1.013   3.588
 1728SOL    HW1 5202   1.890   0.980   3.642
 1728SOL    HW2 5203   2.052   0.983   3.630
 1729SOL     OW 5204   2.534   0.203   3.351
 1729SOL    HW1 5205   2.624   0.187   3.311
 1729SOL    HW2 5206   2.542   0.208   3.450
 1730SOL     OW 5207   1.937   0.345   1.895
 1730SOL    HW1 5208   1.845   0.317   1.866
 1730SOL    HW2 5209   1.968   0.422   1.839
 1731SOL     OW 5210   3.302   0.856   3.260
 1731SOL    HW1 5211   3.245   0.908   3.197
 1731SOL    HW2 5212   3.398   0.868   3.236
 1732SOL     OW 5213   1.934   0.166   2.180
 1732SOL    HW1 5214   1.917   0.249   2.126
 1732SOL    HW2 5215   2.024   0.129   2.158
 1733SOL     OW 5216   3.045   1.335   1.981
 1733SOL    HW1 5217   2.946   1.324   1.983
 1733SOL    HW2 5218   3.079   1.350   2.074
 1734SOL     OW 5219   2.475   0.842   3.293
 1734SOL    HW1 5220   2.531   0.923   3.276
 1734SOL    HW2 5221   2.534   0.762   3.296
 1735SOL     OW 5222   3.355   1.767   2.821
 1735SOL    HW1 5223   3.388   1.831   2.752
 1735SOL    HW2 5224   3.421   1.761   2.896
 1736SOL     OW 5225   2.578   0.565   3.570
 1736SOL    HW1 5226   2.597   0.630   3.644
 1736SOL    HW2 5227   2.638   0.485   3.579
 1737SOL     OW 5228   3.312   1.220   3.495
 1737SOL    HW1 5229   3.303   1.210   3.594
 1737SOL    HW2 5230   3.408   1.213   3.469
 1738SOL     OW 5231   2.252   1.741   3.422
 1738SOL    HW1 5232   2.161   1.782   3.420
 1738SOL    HW2 5233   2.245   1.647   3.454
 1739SOL     OW 5234   3.536   0.883   3.116
 1739SOL    HW1 5235   3.509   0.794   3.079
 1739SOL    HW2 5236   3.537   0.951   3.043
 1740SOL     OW 5237   3.087   0.325   2.311
 1740SOL    HW1 5238   3.152   0.251   2.300
 1740SOL    HW2 5239   3.107   0.375   2.395
 1741SOL     OW 5240   2.456   0.745   2.514
 1741SOL    HW1 5241   2.506   0.830   2.495
 1741SOL    HW2 5242   2.368   0.747   2.466
 1742SOL     OW 5243   3.639   0.342   3.504
 1742SOL    HW1 5244   3.622   0.373   3.410
 1742SOL    HW2 5245   3.555   0.305   3.542
 1743SOL     OW 5246   3.592   0.934   3.379
 1743SOL    HW1 5247   3.630   1.025   3.394
 1743SOL    HW2 5248   3.584   0.917   3.280
 1744SOL     OW 5249   2.721   1.374   1.878
 1744SOL    HW1 5250   2.675   1.389   1.966
 1744SOL    HW2 5251   2.765   1.459   1.848
 1745SOL     OW 5252   2.523   1.790   2.815
 1745SOL    HW1 5253   2.477   1.878   2.802
 1745SOL    HW2 5254   2.622   1.802   2.808
 1746SOL     OW 5255   2.721   0.956   2.723
 1746SOL    HW1 5256   2.775   0.887   2.771
 1746SOL    HW2 5257   2.689   1.025   2.789
 1747SOL     OW 5258   2.945   0.984   1.949
 1747SOL    HW1 5259   2.922   1.037   1.867
 1747SOL    HW2 5260   3.026   0.928   1.930
 1748SOL     OW 5261   3.723   1.569   2.713
 1748SOL    HW1 5262   3.652   1.557   2.643
 1748SOL    HW2 5263   3.724   1.490   2.773
 1749SOL     OW 5264   2.083   1.314   3.706
 1749SOL    HW1 5265   2.018   1.241   3.685
 1749SOL    HW2 5266   2.087   1.328   3.804
 1750SOL     OW 5267   1.941   1.240   2.515
 1750SOL    HW1 5268   1.940   1.193   2.603
 1750SOL    HW2 5269   2.023   1.212   2.464
 1751SOL     OW 5270   2.534   1.391   3.486
 1751SOL    HW1 5271   2.456   1.341   3.524
 1751SOL    HW2 5272   2.531   1.486   3.517
 1752SOL     OW 5273   3.686   0.192   3.089
 1752SOL    HW1 5274   3.682   0.102   3.133
 1752SOL    HW2 5275   3.689   0.181   2.990
 1753SOL     OW 5276   2.290   0.424   2.382
 1753SOL    HW1 5277   2.320   0.352   2.320
 1753SOL    HW2 5278   2.251   0.384   2.465
 1754SOL     OW 5279   3.567   1.487   2.966
 1754SOL    HW1 5280   3.474   1.462   2.939
 1754SOL    HW2 5281   3.593   1.437   3.048
 1755SOL     OW 5282   2.179   0.547   3.142
 1755SOL    HW1 5283   2.217   0.488   3.214
 1755SOL    HW2 5284   2.219   0.521   3.054
 1756SOL     OW 5285   2.674   1.586   2.549
 1756SOL    HW1 5286   2.706   1.596   2.455
 1756SOL    HW2 5287   2.595   1.524   2.551
 1757SOL     OW 5288   3.286   0.214   2.974
 1757SOL    HW1 5289   3.338   0.149   3.029
 1757SOL    HW2 5290   3.237   0.277   3.035
 1758SOL     OW 5291   2.863   0.034   3.016
 1758SOL    HW1 5292   2.800  -0.038   2.985
 1758SOL    HW2 5293   2.956  -0.002   3.016
 1759SOL     OW 5294   2.632   1.330   2.163
 1759SOL    HW1 5295   2.586   1.243   2.180
 1759SOL    HW2 5296   2.723   1.327   2.204
 1760SOL     OW 5297   2.480   1.567   3.146
 1760SOL    HW1 5298   2.475   1.649   3.203
 1760SOL    HW2 5299   2.569   1.564   3.101
 1761SOL     OW 5300   3.214   0.052   2.030
 1761SOL    HW1 5301   3.249   0.011   1.946
 1761SOL    HW2 5302   3.124   0.014   2.050
 1762SOL     OW 5303   3.162   0.453   2.553
 1762SOL    HW1 5304   3.103   0.533   2.557
 1762SOL    HW2 5305   3.177   0.418   2.646
 1763SOL     OW 5306   3.455   0.221   2.744
 1763SOL    HW1 5307   3.371   0.220   2.798
 1763SOL    HW2 5308   3.457   0.304   2.688
 1764SOL     OW 5309   1.901   1.077   2.162
 1764SOL    HW1 5310   2.000   1.066   2.153
 1764SOL    HW2 5311   1.861   0.991   2.194
 1765SOL     OW 5312   2.737   1.646   2.199
 1765SOL    HW1 5313   2.660   1.611   2.145
 1765SOL    HW2 5314   2.705   1.717   2.261
 1766SOL     OW 5315   2.092   0.628   3.837
 1766SOL    HW1 5316   1.999   0.626   3.874
 1766SOL    HW2 5317   2.093   0.589   3.745
 1767SOL     OW 5318   2.087   0.275   4.720
 1767SOL    HW1 5319   2.122   0.258   4.812
 1767SOL    HW2 5320   1.999   0.230   4.708
 1768SOL     OW 5321   1.881   0.368   4.371
 1768SOL    HW1 5322   1.799   0.411   4.410
 1768SOL    HW2 5323   1.853   0.295   4.308
 1769SOL     OW 5324   3.417   1.511   4.427
 1769SOL    HW1 5325   3.360   1.495   4.508
 1769SOL    HW2 5326   3.358   1.521   4.347
 1770SOL     OW 5327   2.997   0.703   4.441
 1770SOL    HW1 5328   3.054   0.781   4.416
 1770SOL    HW2 5329   2.937   0.729   4.517
 1771SOL     OW 5330   3.617   0.607   3.955
 1771SOL    HW1 5331   3.605   0.594   3.856
 1771SOL    HW2 5332   3.587   0.526   4.004
 1772SOL     OW 5333   2.547   1.012   4.389
 1772SOL    HW1 5334   2.616   0.996   4.459
 1772SOL    HW2 5335   2.474   1.069   4.427
 1773SOL     OW 5336   3.465   0.447   4.461
 1773SOL    HW1 5337   3.391   0.493   4.411
 1773SOL    HW2 5338   3.516   0.515   4.514
 1774SOL     OW 5339   2.093   1.713   4.207
 1774SOL    HW1 5340   2.127   1.790   4.261
 1774SOL    HW2 5341   2.137   1.713   4.117
 1775SOL     OW 5342   2.092   1.434   4.262
 1775SOL    HW1 5343   2.066   1.530   4.262
 1775SOL    HW2 5344   2.021   1.380   4.307
 1776SOL     OW 5345   2.102   1.091   4.610
 1776SOL    HW1 5346   2.116   1.007   4.662
 1776SOL    HW2 5347   2.047   1.155   4.665
 1777SOL     OW 5348   2.468   0.964   3.847
 1777SOL    HW1 5349   2.475   1.048   3.793
 1777SOL    HW2 5350   2.514   0.977   3.935
 1778SOL     OW 5351   1.984   0.643   4.287
 1778SOL    HW1 5352   1.939   0.555   4.304
 1778SOL    HW2 5353   1.983   0.697   4.371
 1779SOL     OW 5354   3.704   1.767   4.083
 1779SOL    HW1 5355   3.758   1.738   4.163
 1779SOL    HW2 5356   3.734   1.857   4.054
 1780SOL     OW 5357   1.889   1.596   3.841
 1780SOL    HW1 5358   1.870   1.500   3.862
 1780SOL    HW2 5359   1.856   1.654   3.916
 1781SOL     OW 5360   3.551   0.922   4.336
 1781SOL    HW1 5361   3.646   0.893   4.344
 1781SOL    HW2 5362   3.543   0.987   4.261
 1782SOL     OW 5363   3.503   1.108   4.156
 1782SOL    HW1 5364   3.589   1.110   4.104
 1782SOL    HW2 5365   3.517   1.155   4.244
 1783SOL     OW 5366   2.475   1.365   4.450
 1783SOL    HW1 5367   2.426   1.278   4.459
 1783SOL    HW2 5368   2.452   1.408   4.363
 1784SOL     OW 5369   2.671   0.004   4.226
 1784SOL    HW1 5370   2.711   0.095   4.217
 1784SOL    HW2 5371   2.571   0.012   4.232
 1785SOL     OW 5372   3.387   0.999   3.914
 1785SOL    HW1 5373   3.324   0.923   3.927
 1785SOL    HW2 5374   3.435   1.017   4.000
 1786SOL     OW 5375   3.328   1.417   4.677
 1786SOL    HW1 5376   3.269   1.423   4.757
 1786SOL    HW2 5377   3.313   1.329   4.631
 1787SOL     OW 5378   3.529   1.714   4.296
 1787SOL    HW1 5379   3.488   1.691   4.208
 1787SOL    HW2 5380   3.511   1.640   4.361
 1788SOL     OW 5381   2.460   0.729   3.994
 1788SOL    HW1 5382   2.484   0.798   3.926
 1788SOL    HW2 5383   2.382   0.762   4.048
 1789SOL     OW 5384   3.143   0.345   4.668
 1789SOL    HW1 5385   3.057   0.295   4.655
 1789SOL    HW2 5386   3.205   0.291   4.724
 1790SOL     OW 5387   3.438   1.662   4.031
 1790SOL    HW1 5388   3.527   1.708   4.034
 1790SOL    HW2 5389   3.417   1.638   3.936
 1791SOL     OW 5390   2.903   0.701   4.153
 1791SOL    HW1 5391   2.929   0.697   4.249
 1791SOL    HW2 5392   2.818   0.650   4.139
 1792SOL     OW 5393   1.938   0.811   4.513
 1792SOL    HW1 5394   2.037   0.799   4.522
 1792SOL    HW2 5395   1.914   0.906   4.534
 1793SOL     OW 5396   2.727   0.348   3.919
 1793SOL    HW1 5397   2.786   0.411   3.870
 1793SOL    HW2 5398   2.746   0.254   3.890
 1794SOL     OW 5399   3.224   1.144   4.269
 1794SOL    HW1 5400   3.307   1.115   4.221
 1794SOL    HW2 5401   3.175   1.211   4.213
 1795SOL     OW 5402   2.870   1.456   4.201
 1795SOL    HW1 5403   2.824   1.528   4.149
 1795SOL    HW2 5404   2.866   1.476   4.299
 1796SOL     OW 5405   2.213   1.801   4.577
 1796SOL    HW1 5406   2.263   1.715   4.583
 1796SOL    HW2 5407   2.278   1.878   4.574
 1797SOL     OW 5408   3.657   1.066   4.597
 1797SOL    HW1 5409   3.595   1.051   4.521
 1797SOL    HW2 5410   3.605   1.077   4.682
 1798SOL     OW 5411   2.183   0.943   3.966
 1798SOL    HW1 5412   2.265   0.982   3.924
 1798SOL    HW2 5413   2.156   0.861   3.917
 1799SOL     OW 5414   3.320   0.735   4.452
 1799SOL    HW1 5415   3.315   0.670   4.527
 1799SOL    HW2 5416   3.400   0.794   4.465
 1800SOL     OW 5417   2.973   1.776   3.961
 1800SOL    HW1 5418   2.913   1.714   4.011
 1800SOL    HW2 5419   3.004   1.732   3.876
 1801SOL     OW 5420   3.494   1.377   3.805
 1801SOL    HW1 5421   3.462   1.471   3.795
 1801SOL    HW2 5422   3.418   1.314   3.793
 1802SOL     OW 5423   2.326   1.743   4.047
 1802SOL    HW1 5424   2.359   1.782   4.133
 1802SOL    HW2 5425   2.402   1.736   3.982
 1803SOL     OW 5426   3.262   0.107   4.150
 1803SOL    HW1 5427   3.238   0.070   4.060
 1803SOL    HW2 5428   3.361   0.123   4.154
 1804SOL     OW 5429   2.244   0.700   4.204
 1804SOL    HW1 5430   2.289   0.610   4.201
 1804SOL    HW2 5431   2.150   0.689   4.237
 1805SOL     OW 5432   2.476   0.122   3.841
 1805SOL    HW1 5433   2.574   0.100   3.848
 1805SOL    HW2 5434   2.445   0.105   3.748
 1806SOL     OW 5435   2.401   0.064   4.236
 1806SOL    HW1 5436   2.320   0.065   4.294
 1806SOL    HW2 5437   2.404   0.147   4.181
 1807SOL     OW 5438   3.296   1.188   3.765
 1807SOL    HW1 5439   3.328   1.112   3.822
 1807SOL    HW2 5440   3.204   1.215   3.795
 1808SOL     OW 5441   2.159   0.035   3.895
 1808SOL    HW1 5442   2.208   0.119   3.874
 1808SOL    HW2 5443   2.221  -0.030   3.940
 1809SOL     OW 5444   2.797   0.236   4.204
 1809SOL    HW1 5445   2.749   0.277   4.126
 1809SOL    HW2 5446   2.896   0.234   4.185
 1810SOL     OW 5447   3.089   1.570   4.517
 1810SOL    HW1 5448   3.110   1.644   4.452
 1810SOL    HW2 5449   3.157   1.570   4.590
 1811SOL     OW 5450   2.321   1.152   4.465
 1811SOL    HW1 5451   2.250   1.125   4.530
 1811SOL    HW2 5452   2.295   1.124   4.372
 1812SOL     OW 5453   3.133   1.797   4.315
 1812SOL    HW1 5454   3.177   1.861   4.251
 1812SOL    HW2 5455   3.083   1.849   4.385
 1813SOL     OW 5456   2.894   0.549   3.740
 1813SOL    HW1 5457   2.853   0.631   3.701
 1813SOL    HW2 5458   2.958   0.575   3.813
 1814SOL     OW 5459   2.728   0.454   4.366
 1814SOL    HW1 5460   2.696   0.526   4.304
 1814SOL    HW2 5461   2.752   0.373   4.313
 1815SOL     OW 5462   2.879   0.039   4.477
 1815SOL    HW1 5463   2.807   0.044   4.408
 1815SOL    HW2 5464   2.855  -0.030   4.546
 1816SOL     OW 5465   3.719   0.833   4.101
 1816SOL    HW1 5466   3.761   0.769   4.165
 1816SOL    HW2 5467   3.681   0.782   4.023
 1817SOL     OW 5468   2.350   1.385   3.898
 1817SOL    HW1 5469   2.263   1.370   3.945
 1817SOL    HW2 5470   2.333   1.411   3.803
 1818SOL     OW 5471   3.526   1.280   4.381
 1818SOL    HW1 5472   3.625   1.288   4.395
 1818SOL    HW2 5473   3.481   1.364   4.412
 1819SOL     OW 5474   3.252   0.575   3.802
 1819SOL    HW1 5475   3.198   0.554   3.883
 1819SOL    HW2 5476   3.343   0.534   3.811
 1820SOL     OW 5477   2.389   0.256   4.052
 1820SOL    HW1 5478   2.416   0.197   3.977
 1820SOL    HW2 5479   2.389   0.351   4.021
 1821SOL     OW 5480   2.567   1.050   4.092
 1821SOL    HW1 5481   2.553   1.057   4.191
 1821SOL    HW2 5482   2.651   0.999   4.074
 1822SOL     OW 5483   2.229   1.100   4.225
 1822SOL    HW1 5484   2.222   1.183   4.169
 1822SOL    HW2 5485   2.233   1.020   4.165
 1823SOL     OW 5486   2.428   0.537   4.589
 1823SOL    HW1 5487   2.440   0.603   4.515
 1823SOL    HW2 5488   2.474   0.571   4.672
 1824SOL     OW 5489   3.114   1.348   4.112
 1824SOL    HW1 5490   3.164   1.425   4.152
 1824SOL    HW2 5491   3.019   1.350   4.144
 1825SOL     OW 5492   3.444   0.639   4.196
 1825SOL    HW1 5493   3.413   0.700   4.269
 1825SOL    HW2 5494   3.494   0.691   4.127
 1826SOL     OW 5495   3.071   0.525   3.999
 1826SOL    HW1 5496   3.084   0.441   4.053
 1826SOL    HW2 5497   3.042   0.599   4.059
 1827SOL     OW 5498   2.594   0.634   4.788
 1827SOL    HW1 5499   2.653   0.608   4.712
 1827SOL    HW2 5500   2.566   0.730   4.777
 1828SOL     OW 5501   2.169   0.063   4.342
 1828SOL    HW1 5502   2.158   0.157   4.375
 1828SOL    HW2 5503   2.164   0.000   4.419
 1829SOL     OW 5504   3.484   0.367   4.098
 1829SOL    HW1 5505   3.486   0.291   4.162
 1829SOL    HW2 5506   3.436   0.444   4.138
 1830SOL     OW 5507   3.402   0.274   3.849
 1830SOL    HW1 5508   3.341   0.199   3.872
 1830SOL    HW2 5509   3.424   0.326   3.932
 1831SOL     OW 5510   3.165   0.838   3.766
 1831SOL    HW1 5511   3.199   0.745   3.781
 1831SOL    HW2 5512   3.183   0.865   3.671
 1832SOL     OW 5513   2.930   1.333   4.573
 1832SOL    HW1 5514   2.937   1.249   4.518
 1832SOL    HW2 5515   2.992   1.402   4.537
 1833SOL     OW 5516   2.181   0.810   4.673
 1833SOL    HW1 5517   2.274   0.846   4.678
 1833SOL    HW2 5518   2.175   0.725   4.725
 1834SOL     OW 5519   1.870   1.326   3.924
 1834SOL    HW1 5520   1.777   1.347   3.893
 1834SOL    HW2 5521   1.880   1.227   3.937
 1835SOL     OW 5522   1.950   1.801   4.651
 1835SOL    HW1 5523   1.908   1.715   4.624
 1835SOL    HW2 5524   2.044   1.804   4.617
 1836SOL     OW 5525   2.366   1.568   4.634
 1836SOL    HW1 5526   2.432   1.642   4.643
 1836SOL    HW2 5527   2.410   1.489   4.592
 1837SOL     OW 5528   2.677   0.572   4.049
 1837SOL    HW1 5529   2.684   0.483   4.003
 1837SOL    HW2 5530   2.583   0.606   4.041
 1838SOL     OW 5531   2.335   0.500   3.915
 1838SOL    HW1 5532   2.396   0.580   3.919
 1838SOL    HW2 5533   2.240   0.531   3.922
 1839SOL     OW 5534   3.164   0.855   4.033
 1839SOL    HW1 5535   3.078   0.824   4.075
 1839SOL    HW2 5536   3.160   0.841   3.934
 1840SOL     OW 5537   3.621   1.747   4.878
 1840SOL    HW1 5538   3.682   1.777   4.805
 1840SOL    HW2 5539   3.583   1.658   4.856
 1841SOL     OW 5540   3.588   0.135   4.247
 1841SOL    HW1 5541   3.661   0.118   4.180
 1841SOL    HW2 5542   3.557   0.048   4.285
 1842SOL     OW 5543   3.250   1.573   4.201
 1842SOL    HW1 5544   3.317   1.585   4.127
 1842SOL    HW2 5545   3.210   1.662   4.224
 1843SOL     OW 5546   3.142   0.927   4.396
 1843SOL    HW1 5547   3.202   0.846   4.398
 1843SOL    HW2 5548   3.182   0.996   4.336
 1844SOL     OW 5549   2.534   1.616   3.878
 1844SOL    HW1 5550   2.543   1.626   3.779
 1844SOL    HW2 5551   2.494   1.527   3.899
 1845SOL     OW 5552   3.703   0.175   4.687
 1845SOL    HW1 5553   3.742   0.090   4.651
 1845SOL    HW2 5554   3.605   0.177   4.668
 1846SOL     OW 5555   2.125   0.326   4.444
 1846SOL    HW1 5556   2.046   0.377   4.410
 1846SOL    HW2 5557   2.116   0.311   4.542
 1847SOL     OW 5558   3.056   1.612   3.755
 1847SOL    HW1 5559   3.062   1.519   3.792
 1847SOL    HW2 5560   2.997   1.612   3.675
 1848SOL     OW 5561   2.778   0.910   4.015
 1848SOL    HW1 5562   2.841   0.948   3.947
 1848SOL    HW2 5563   2.818   0.827   4.054
 1849SOL     OW 5564   3.366   1.607   3.768
 1849SOL    HW1 5565   3.274   1.644   3.775
 1849SOL    HW2 5566   3.404   1.627   3.678
 1850SOL     OW 5567   2.901   1.098   4.420
 1850SOL    HW1 5568   2.831   1.051   4.474
 1850SOL    HW2 5569   2.960   1.030   4.377
 1851SOL     OW 5570   2.452   1.487   4.215
 1851SOL    HW1 5571   2.494   1.429   4.145
 1851SOL    HW2 5572   2.408   1.566   4.171
 1852SOL     OW 5573   2.117   1.348   4.014
 1852SOL    HW1 5574   2.021   1.349   3.987
 1852SOL    HW2 5575   2.129   1.401   4.098
 1853SOL     OW 5576   1.937   0.345   3.757
 1853SOL    HW1 5577   1.845   0.317   3.728
 1853SOL    HW2 5578   1.968   0.422   3.701
 1854SOL     OW 5579   1.934   0.166   4.042
 1854SOL    HW1 5580   1.917   0.249   3.988
 1854SOL    HW2 5581   2.024   0.129   4.020
 1855SOL     OW 5582   3.045   1.335   3.843
 1855SOL    HW1 5583   2.946   1.324   3.845
 1855SOL    HW2 5584   3.079   1.350   3.936
 1856SOL     OW 5585   3.536   0.883   4.978
 1856SOL    HW1 5586   3.509   0.794   4.941
 1856SOL    HW2 5587   3.537   0.951   4.905
 1857SOL     OW 5588   3.087   0.325   4.173
 1857SOL    HW1 5589   3.152   0.251   4.162
 1857SOL    HW2 5590   3.107   0.375   4.257
 1858SOL     OW 5591   2.456   0.745   4.376
 1858SOL    HW1 5592   2.506   0.830   4.357
 1858SOL    HW2 5593   2.368   0.747   4.328
 1859SOL     OW 5594   2.721   1.374   3.740
 1859SOL    HW1 5595   2.675   1.389   3.828
 1859SOL    HW2 5596   2.765   1.459   3.710
 1860SOL     OW 5597   2.523   1.790   4.677
 1860SOL    HW1 5598   2.477   1.878   4.664
 1860SOL    HW2 5599   2.622   1.802   4.670
 1861SOL     OW 5600   2.721   0.956   4.585
 1861SOL    HW1 5601   2.775   0.887   4.633
 1861SOL    HW2 5602   2.689   1.025   4.651
 1862SOL     OW 5603   2.945   0.984   3.811
 1862SOL    HW1 5604   2.922   1.037   3.729
 1862SOL    HW2 5605   3.026   0.928   3.792
 1863SOL     OW 5606   3.723   1.569   4.575
 1863SOL    HW1 5607   3.652   1.557   4.505
 1863SOL    HW2 5608   3.724   1.490   4.635
 1864SOL     OW 5609   1.941   1.240   4.377
 1864SOL    HW1 5610   1.940   1.193   4.465
 1864SOL    HW2 5611   2.023   1.212   4.326
 1865SOL     OW 5612   3.686   0.192   4.951
 1865SOL    HW1 5613   3.682   0.102   4.995
 1865SOL    HW2 5614   3.689   0.181   4.852
 1866SOL     OW 5615   2.290   0.424   4.244
 1866SOL    HW1 5616   2.320   0.352   4.182
 1866SOL    HW2 5617   2.251   0.384   4.327
 1867SOL     OW 5618   2.674   1.586   4.411
 1867SOL    HW1 5619   2.706   1.596   4.317
 1867SOL    HW2 5620   2.595   1.524   4.413
 1868SOL     OW 5621   2.632   1.330   4.025
 1868SOL    HW1 5622   2.586   1.243   4.042
 1868SOL    HW2 5623   2.723   1.327   4.066
 1869SOL     OW 5624   3.214   0.052   3.892
 1869SOL    HW1 5625   3.249   0.011   3.808
 1869SOL    HW2 5626   3.124   0.014   3.912
 1870SOL     OW 5627   3.162   0.453   4.415
 1870SOL    HW1 5628   3.103   0.533   4.419
 1870SOL    HW2 5629   3.177   0.418   4.508
 1871SOL     OW 5630   3.455   0.221   4.606
 1871SOL    HW1 5631   3.371   0.220   4.660
 1871SOL    HW2 5632   3.457   0.304   4.550
 1872SOL     OW 5633   1.901   1.077   4.024
 1872SOL    HW1 5634   2.000   1.066   4.015
 1872SOL    HW2 5635   1.861   0.991   4.056
 1873SOL     OW 5636   2.737   1.646   4.061
 1873SOL    HW1 5637   2.660   1.611   4.007
 1873SOL    HW2 5638   2.705   1.717   4.123
 1874SOL     OW 5639   2.092   2.490   0.113
 1874SOL    HW1 5640   1.999   2.488   0.150
 1874SOL    HW2 5641   2.093   2.451   0.021
 1875SOL     OW 5642   2.087   2.137   0.996
 1875SOL    HW1 5643   2.122   2.120   1.088
 1875SOL    HW2 5644   1.999   2.092   0.984
 1876SOL     OW 5645   1.881   2.230   0.647
 1876SOL    HW1 5646   1.799   2.273   0.686
 1876SOL    HW2 5647   1.853   2.157   0.584
 1877SOL     OW 5648   2.431   3.137   1.165
 1877SOL    HW1 5649   2.338   3.130   1.128
 1877SOL    HW2 5650   2.442   3.226   1.209
 1878SOL     OW 5651   3.417   3.373   0.703
 1878SOL    HW1 5652   3.360   3.357   0.784
 1878SOL    HW2 5653   3.358   3.383   0.623
 1879SOL     OW 5654   2.997   2.565   0.717
 1879SOL    HW1 5655   3.054   2.643   0.692
 1879SOL    HW2 5656   2.937   2.591   0.793
 1880SOL     OW 5657   3.617   2.469   0.231
 1880SOL    HW1 5658   3.605   2.456   0.132
 1880SOL    HW2 5659   3.587   2.388   0.280
 1881SOL     OW 5660   2.630   3.006   1.023
 1881SOL    HW1 5661   2.552   3.023   1.083
 1881SOL    HW2 5662   2.664   3.093   0.987
 1882SOL     OW 5663   2.712   2.660   1.823
 1882SOL    HW1 5664   2.708   2.736   1.888
 1882SOL    HW2 5665   2.734   2.696   1.732
 1883SOL     OW 5666   2.547   2.874   0.665
 1883SOL    HW1 5667   2.616   2.858   0.735
 1883SOL    HW2 5668   2.474   2.931   0.703
 1884SOL     OW 5669   2.548   3.023   1.803
 1884SOL    HW1 5670   2.608   3.102   1.817
 1884SOL    HW2 5671   2.462   3.054   1.762
 1885SOL     OW 5672   2.197   3.297   1.061
 1885SOL    HW1 5673   2.119   3.266   1.008
 1885SOL    HW2 5674   2.255   3.355   1.004
 1886SOL     OW 5675   3.322   3.367   1.339
 1886SOL    HW1 5676   3.346   3.461   1.365
 1886SOL    HW2 5677   3.306   3.313   1.421
 1887SOL     OW 5678   2.300   2.254   1.499
 1887SOL    HW1 5679   2.382   2.198   1.508
 1887SOL    HW2 5680   2.219   2.196   1.503
 1888SOL     OW 5681   3.465   2.309   0.737
 1888SOL    HW1 5682   3.391   2.355   0.687
 1888SOL    HW2 5683   3.516   2.377   0.790
 1889SOL     OW 5684   2.093   3.575   0.483
 1889SOL    HW1 5685   2.127   3.652   0.537
 1889SOL    HW2 5686   2.137   3.575   0.393
 1890SOL     OW 5687   2.989   3.203   1.690
 1890SOL    HW1 5688   3.036   3.203   1.778
 1890SOL    HW2 5689   2.941   3.116   1.679
 1891SOL     OW 5690   2.092   3.296   0.538
 1891SOL    HW1 5691   2.066   3.392   0.538
 1891SOL    HW2 5692   2.021   3.242   0.583
 1892SOL     OW 5693   2.102   2.953   0.886
 1892SOL    HW1 5694   2.116   2.869   0.938
 1892SOL    HW2 5695   2.047   3.017   0.941
 1893SOL     OW 5696   2.482   3.648   1.439
 1893SOL    HW1 5697   2.390   3.631   1.474
 1893SOL    HW2 5698   2.510   3.740   1.465
 1894SOL     OW 5699   2.468   2.826   0.123
 1894SOL    HW1 5700   2.475   2.910   0.069
 1894SOL    HW2 5701   2.514   2.839   0.211
 1895SOL     OW 5702   3.456   1.976   1.480
 1895SOL    HW1 5703   3.438   2.043   1.408
 1895SOL    HW2 5704   3.453   2.022   1.569
 1896SOL     OW 5705   1.984   2.505   0.563
 1896SOL    HW1 5706   1.939   2.417   0.580
 1896SOL    HW2 5707   1.983   2.559   0.647
 1897SOL     OW 5708   3.704   3.629   0.359
 1897SOL    HW1 5709   3.758   3.600   0.439
 1897SOL    HW2 5710   3.734   3.719   0.330
 1898SOL     OW 5711   3.551   2.784   0.612
 1898SOL    HW1 5712   3.646   2.755   0.620
 1898SOL    HW2 5713   3.543   2.849   0.537
 1899SOL     OW 5714   3.503   2.970   0.432
 1899SOL    HW1 5715   3.589   2.972   0.380
 1899SOL    HW2 5716   3.517   3.017   0.520
 1900SOL     OW 5717   1.975   2.599   1.597
 1900SOL    HW1 5718   2.063   2.586   1.642
 1900SOL    HW2 5719   1.962   2.696   1.575
 1901SOL     OW 5720   2.475   3.227   0.726
 1901SOL    HW1 5721   2.426   3.140   0.735
 1901SOL    HW2 5722   2.452   3.270   0.639
 1902SOL     OW 5723   3.155   3.090   1.423
 1902SOL    HW1 5724   3.192   3.017   1.365
 1902SOL    HW2 5725   3.207   3.095   1.508
 1903SOL     OW 5726   2.671   1.866   0.502
 1903SOL    HW1 5727   2.711   1.957   0.493
 1903SOL    HW2 5728   2.571   1.874   0.508
 1904SOL     OW 5729   2.059   2.838   1.264
 1904SOL    HW1 5730   2.148   2.793   1.250
 1904SOL    HW2 5731   1.986   2.773   1.245
 1905SOL     OW 5732   3.387   2.861   0.190
 1905SOL    HW1 5733   3.324   2.785   0.203
 1905SOL    HW2 5734   3.435   2.879   0.276
 1906SOL     OW 5735   3.049   3.654   1.616
 1906SOL    HW1 5736   3.073   3.714   1.540
 1906SOL    HW2 5737   3.056   3.559   1.586
 1907SOL     OW 5738   2.179   2.113   1.801
 1907SOL    HW1 5739   2.250   2.184   1.807
 1907SOL    HW2 5740   2.091   2.152   1.829
 1908SOL     OW 5741   3.328   3.279   0.953
 1908SOL    HW1 5742   3.269   3.285   1.033
 1908SOL    HW2 5743   3.313   3.191   0.907
 1909SOL     OW 5744   3.529   3.576   0.572
 1909SOL    HW1 5745   3.488   3.553   0.484
 1909SOL    HW2 5746   3.511   3.502   0.637
 1910SOL     OW 5747   2.460   2.591   0.270
 1910SOL    HW1 5748   2.484   2.660   0.202
 1910SOL    HW2 5749   2.382   2.624   0.324
 1911SOL     OW 5750   3.143   2.207   0.944
 1911SOL    HW1 5751   3.057   2.157   0.931
 1911SOL    HW2 5752   3.205   2.153   1.000
 1912SOL     OW 5753   3.438   3.524   0.307
 1912SOL    HW1 5754   3.527   3.570   0.310
 1912SOL    HW2 5755   3.417   3.500   0.212
 1913SOL     OW 5756   2.669   2.467   1.465
 1913SOL    HW1 5757   2.622   2.464   1.554
 1913SOL    HW2 5758   2.618   2.412   1.399
 1914SOL     OW 5759   3.256   2.331   1.674
 1914SOL    HW1 5760   3.236   2.374   1.762
 1914SOL    HW2 5761   3.334   2.269   1.683
 1915SOL     OW 5762   2.835   2.752   1.572
 1915SOL    HW1 5763   2.881   2.668   1.543
 1915SOL    HW2 5764   2.779   2.786   1.497
 1916SOL     OW 5765   2.853   2.272   1.242
 1916SOL    HW1 5766   2.776   2.306   1.296
 1916SOL    HW2 5767   2.819   2.221   1.163
 1917SOL     OW 5768   2.903   2.563   0.429
 1917SOL    HW1 5769   2.929   2.559   0.525
 1917SOL    HW2 5770   2.818   2.512   0.415
 1918SOL     OW 5771   1.938   2.673   0.789
 1918SOL    HW1 5772   2.037   2.661   0.798
 1918SOL    HW2 5773   1.914   2.768   0.810
 1919SOL     OW 5774   1.992   3.683   1.571
 1919SOL    HW1 5775   1.982   3.668   1.670
 1919SOL    HW2 5776   1.906   3.719   1.535
 1920SOL     OW 5777   2.727   2.210   0.195
 1920SOL    HW1 5778   2.786   2.273   0.146
 1920SOL    HW2 5779   2.746   2.116   0.166
 1921SOL     OW 5780   3.581   2.447   1.831
 1921SOL    HW1 5781   3.555   2.536   1.795
 1921SOL    HW2 5782   3.579   2.379   1.758
 1922SOL     OW 5783   3.224   3.006   0.545
 1922SOL    HW1 5784   3.307   2.977   0.497
 1922SOL    HW2 5785   3.175   3.073   0.489
 1923SOL     OW 5786   2.412   2.058   0.885
 1923SOL    HW1 5787   2.407   2.053   0.985
 1923SOL    HW2 5788   2.414   2.154   0.856
 1924SOL     OW 5789   2.870   3.318   0.477
 1924SOL    HW1 5790   2.824   3.390   0.425
 1924SOL    HW2 5791   2.866   3.338   0.575
 1925SOL     OW 5792   2.213   3.663   0.853
 1925SOL    HW1 5793   2.263   3.577   0.859
 1925SOL    HW2 5794   2.278   3.740   0.850
 1926SOL     OW 5795   3.657   2.928   0.873
 1926SOL    HW1 5796   3.595   2.913   0.797
 1926SOL    HW2 5797   3.605   2.939   0.958
 1927SOL     OW 5798   3.089   3.412   1.506
 1927SOL    HW1 5799   3.095   3.335   1.570
 1927SOL    HW2 5800   3.037   3.386   1.426
 1928SOL     OW 5801   2.183   2.805   0.242
 1928SOL    HW1 5802   2.265   2.844   0.200
 1928SOL    HW2 5803   2.156   2.723   0.193
 1929SOL     OW 5804   3.320   2.597   0.728
 1929SOL    HW1 5805   3.315   2.532   0.803
 1929SOL    HW2 5806   3.400   2.656   0.741
 1930SOL     OW 5807   2.323   3.128   1.727
 1930SOL    HW1 5808   2.273   3.129   1.641
 1930SOL    HW2 5809   2.260   3.110   1.803
 1931SOL     OW 5810   2.973   3.638   0.237
 1931SOL    HW1 5811   2.913   3.576   0.287
 1931SOL    HW2 5812   3.004   3.594   0.152
 1932SOL     OW 5813   2.064   2.147   1.498
 1932SOL    HW1 5814   1.984   2.207   1.485
 1932SOL    HW2 5815   2.054   2.098   1.584
 1933SOL     OW 5816   3.494   3.239   0.081
 1933SOL    HW1 5817   3.462   3.333   0.071
 1933SOL    HW2 5818   3.418   3.176   0.069
 1934SOL     OW 5819   2.326   3.605   0.323
 1934SOL    HW1 5820   2.359   3.644   0.409
 1934SOL    HW2 5821   2.402   3.598   0.258
 1935SOL     OW 5822   3.262   1.969   0.426
 1935SOL    HW1 5823   3.238   1.932   0.336
 1935SOL    HW2 5824   3.361   1.985   0.430
 1936SOL     OW 5825   2.111   3.647   1.241
 1936SOL    HW1 5826   2.168   3.582   1.291
 1936SOL    HW2 5827   2.095   3.614   1.148
 1937SOL     OW 5828   2.802   3.560   0.904
 1937SOL    HW1 5829   2.882   3.503   0.925
 1937SOL    HW2 5830   2.753   3.520   0.827
 1938SOL     OW 5831   2.244   2.562   0.480
 1938SOL    HW1 5832   2.289   2.472   0.477
 1938SOL    HW2 5833   2.150   2.551   0.513
 1939SOL     OW 5834   3.409   2.084   1.729
 1939SOL    HW1 5835   3.404   2.121   1.821
 1939SOL    HW2 5836   3.337   2.015   1.717
 1940SOL     OW 5837   2.643   2.126   1.749
 1940SOL    HW1 5838   2.710   2.065   1.792
 1940SOL    HW2 5839   2.570   2.145   1.814
 1941SOL     OW 5840   2.750   3.376   1.195
 1941SOL    HW1 5841   2.727   3.351   1.101
 1941SOL    HW2 5842   2.811   3.307   1.234
 1942SOL     OW 5843   3.213   2.452   1.433
 1942SOL    HW1 5844   3.241   2.409   1.518
 1942SOL    HW2 5845   3.238   2.548   1.434
 1943SOL     OW 5846   2.665   3.264   0.924
 1943SOL    HW1 5847   2.755   3.278   0.882
 1943SOL    HW2 5848   2.594   3.266   0.853
 1944SOL     OW 5849   2.784   2.365   0.899
 1944SOL    HW1 5850   2.759   2.356   0.803
 1944SOL    HW2 5851   2.832   2.283   0.930
 1945SOL     OW 5852   2.401   1.926   0.512
 1945SOL    HW1 5853   2.320   1.927   0.570
 1945SOL    HW2 5854   2.404   2.009   0.457
 1946SOL     OW 5855   3.296   3.050   0.041
 1946SOL    HW1 5856   3.328   2.974   0.098
 1946SOL    HW2 5857   3.204   3.077   0.071
 1947SOL     OW 5858   2.159   1.897   0.171
 1947SOL    HW1 5859   2.208   1.981   0.150
 1947SOL    HW2 5860   2.221   1.832   0.216
 1948SOL     OW 5861   2.797   2.098   0.480
 1948SOL    HW1 5862   2.749   2.139   0.402
 1948SOL    HW2 5863   2.896   2.096   0.461
 1949SOL     OW 5864   2.938   2.545   1.464
 1949SOL    HW1 5865   2.858   2.484   1.467
 1949SOL    HW2 5866   3.019   2.492   1.440
 1950SOL     OW 5867   3.089   3.432   0.793
 1950SOL    HW1 5868   3.110   3.506   0.728
 1950SOL    HW2 5869   3.157   3.432   0.866
 1951SOL     OW 5870   2.321   3.014   0.741
 1951SOL    HW1 5871   2.250   2.987   0.806
 1951SOL    HW2 5872   2.295   2.986   0.648
 1952SOL     OW 5873   3.133   3.659   0.591
 1952SOL    HW1 5874   3.177   3.723   0.527
 1952SOL    HW2 5875   3.083   3.711   0.661
 1953SOL     OW 5876   2.894   2.411   0.016
 1953SOL    HW1 5877   2.853   2.493  -0.023
 1953SOL    HW2 5878   2.958   2.437   0.089
 1954SOL     OW 5879   1.940   2.418   1.386
 1954SOL    HW1 5880   2.032   2.417   1.345
 1954SOL    HW2 5881   1.934   2.492   1.453
 1955SOL     OW 5882   2.423   2.084   1.147
 1955SOL    HW1 5883   2.461   2.000   1.184
 1955SOL    HW2 5884   2.335   2.103   1.191
 1956SOL     OW 5885   2.728   2.316   0.642
 1956SOL    HW1 5886   2.696   2.388   0.580
 1956SOL    HW2 5887   2.752   2.235   0.589
 1957SOL     OW 5888   2.879   1.901   0.753
 1957SOL    HW1 5889   2.807   1.906   0.684
 1957SOL    HW2 5890   2.855   1.832   0.822
 1958SOL     OW 5891   3.291   3.035   0.867
 1958SOL    HW1 5892   3.236   2.951   0.860
 1958SOL    HW2 5893   3.317   3.064   0.775
 1959SOL     OW 5894   3.328   2.452   0.992
 1959SOL    HW1 5895   3.298   2.357   0.999
 1959SOL    HW2 5896   3.401   2.468   1.058
 1960SOL     OW 5897   3.719   2.695   0.377
 1960SOL    HW1 5898   3.761   2.631   0.441
 1960SOL    HW2 5899   3.681   2.644   0.299
 1961SOL     OW 5900   2.350   3.247   0.174
 1961SOL    HW1 5901   2.263   3.232   0.221
 1961SOL    HW2 5902   2.333   3.273   0.079
 1962SOL     OW 5903   3.526   3.142   0.657
 1962SOL    HW1 5904   3.625   3.150   0.671
 1962SOL    HW2 5905   3.481   3.226   0.688
 1963SOL     OW 5906   3.252   2.437   0.078
 1963SOL    HW1 5907   3.198   2.416   0.159
 1963SOL    HW2 5908   3.343   2.396   0.087
 1964SOL     OW 5909   2.389   2.118   0.328
 1964SOL    HW1 5910   2.416   2.059   0.253
 1964SOL    HW2 5911   2.389   2.213   0.297
 1965SOL     OW 5912   3.616   3.085   1.588
 1965SOL    HW1 5913   3.707   3.046   1.575
 1965SOL    HW2 5914   3.624   3.181   1.612
 1966SOL     OW 5915   2.926   3.209   1.340
 1966SOL    HW1 5916   2.846   3.186   1.395
 1966SOL    HW2 5917   3.009   3.183   1.389
 1967SOL     OW 5918   3.454   3.491   1.625
 1967SOL    HW1 5919   3.481   3.525   1.535
 1967SOL    HW2 5920   3.533   3.453   1.671
 1968SOL     OW 5921   2.973   3.057   1.100
 1968SOL    HW1 5922   2.933   3.101   1.181
 1968SOL    HW2 5923   2.932   3.094   1.017
 1969SOL     OW 5924   3.500   2.961   1.079
 1969SOL    HW1 5925   3.505   3.042   1.138
 1969SOL    HW2 5926   3.414   2.963   1.028
 1970SOL     OW 5927   2.777   1.951   1.402
 1970SOL    HW1 5928   2.802   1.931   1.307
 1970SOL    HW2 5929   2.849   2.007   1.444
 1971SOL     OW 5930   2.842   2.978   1.719
 1971SOL    HW1 5931   2.743   2.984   1.729
 1971SOL    HW2 5932   2.865   2.898   1.663
 1972SOL     OW 5933   2.567   2.912   0.368
 1972SOL    HW1 5934   2.553   2.919   0.467
 1972SOL    HW2 5935   2.651   2.861   0.350
 1973SOL     OW 5936   2.272   2.675   1.251
 1973SOL    HW1 5937   2.358   2.687   1.301
 1973SOL    HW2 5938   2.230   2.588   1.278
 1974SOL     OW 5939   3.136   2.248   1.262
 1974SOL    HW1 5940   3.157   2.322   1.326
 1974SOL    HW2 5941   3.047   2.265   1.219
 1975SOL     OW 5942   1.926   3.426   1.331
 1975SOL    HW1 5943   1.880   3.508   1.297
 1975SOL    HW2 5944   2.024   3.445   1.340
 1976SOL     OW 5945   2.229   2.962   0.501
 1976SOL    HW1 5946   2.222   3.045   0.445
 1976SOL    HW2 5947   2.233   2.882   0.441
 1977SOL     OW 5948   2.428   2.399   0.865
 1977SOL    HW1 5949   2.440   2.465   0.791
 1977SOL    HW2 5950   2.474   2.433   0.948
 1978SOL     OW 5951   3.114   3.210   0.388
 1978SOL    HW1 5952   3.164   3.287   0.428
 1978SOL    HW2 5953   3.019   3.212   0.420
 1979SOL     OW 5954   3.134   3.307   1.142
 1979SOL    HW1 5955   3.181   3.320   1.229
 1979SOL    HW2 5956   3.068   3.233   1.151
 1980SOL     OW 5957   3.444   2.501   0.472
 1980SOL    HW1 5958   3.413   2.562   0.545
 1980SOL    HW2 5959   3.494   2.553   0.403
 1981SOL     OW 5960   2.216   3.372   1.329
 1981SOL    HW1 5961   2.195   3.328   1.242
 1981SOL    HW2 5962   2.313   3.398   1.332
 1982SOL     OW 5963   2.264   2.613   1.598
 1982SOL    HW1 5964   2.332   2.668   1.551
 1982SOL    HW2 5965   2.304   2.525   1.625
 1983SOL     OW 5966   3.449   2.641   1.670
 1983SOL    HW1 5967   3.357   2.679   1.665
 1983SOL    HW2 5968   3.509   2.688   1.605
 1984SOL     OW 5969   2.875   1.967   1.770
 1984SOL    HW1 5970   2.881   2.052   1.718
 1984SOL    HW2 5971   2.907   1.891   1.713
 1985SOL     OW 5972   2.366   1.912   1.740
 1985SOL    HW1 5973   2.324   1.855   1.670
 1985SOL    HW2 5974   2.300   1.981   1.772
 1986SOL     OW 5975   2.435   2.732   1.029
 1986SOL    HW1 5976   2.479   2.821   1.020
 1986SOL    HW2 5977   2.372   2.732   1.106
 1987SOL     OW 5978   3.222   2.724   1.045
 1987SOL    HW1 5979   3.147   2.724   0.979
 1987SOL    HW2 5980   3.259   2.632   1.054
 1988SOL     OW 5981   3.071   2.387   0.275
 1988SOL    HW1 5982   3.084   2.303   0.329
 1988SOL    HW2 5983   3.042   2.461   0.335
 1989SOL     OW 5984   2.169   2.075   1.231
 1989SOL    HW1 5985   2.146   2.112   1.321
 1989SOL    HW2 5986   2.139   1.980   1.225
 1990SOL     OW 5987   1.899   3.172   1.282
 1990SOL    HW1 5988   1.952   3.123   1.350
 1990SOL    HW2 5989   1.921   3.270   1.287
 1991SOL     OW 5990   2.594   2.496   1.064
 1991SOL    HW1 5991   2.653   2.470   0.988
 1991SOL    HW2 5992   2.566   2.592   1.053
 1992SOL     OW 5993   3.590   2.797   1.854
 1992SOL    HW1 5994   3.544   2.790   1.765
 1992SOL    HW2 5995   3.528   2.841   1.920
 1993SOL     OW 5996   2.169   1.925   0.618
 1993SOL    HW1 5997   2.158   2.019   0.651
 1993SOL    HW2 5998   2.164   1.862   0.695
 1994SOL     OW 5999   3.484   2.229   0.374
 1994SOL    HW1 6000   3.486   2.153   0.438
 1994SOL    HW2 6001   3.436   2.306   0.414
 1995SOL     OW 6002   2.885   2.628   0.966
 1995SOL    HW1 6003   2.900   2.649   1.062
 1995SOL    HW2 6004   2.855   2.533   0.957
 1996SOL     OW 6005   2.842   3.435   1.700
 1996SOL    HW1 6006   2.822   3.479   1.612
 1996SOL    HW2 6007   2.881   3.344   1.684
 1997SOL     OW 6008   3.721   3.380   1.605
 1997SOL    HW1 6009   3.735   3.407   1.510
 1997SOL    HW2 6010   3.804   3.402   1.658
 1998SOL     OW 6011   2.212   2.760   1.804
 1998SOL    HW1 6012   2.288   2.804   1.852
 1998SOL    HW2 6013   2.247   2.713   1.722
 1999SOL     OW 6014   3.402   2.136   0.125
 1999SOL    HW1 6015   3.341   2.061   0.148
 1999SOL    HW2 6016   3.424   2.188   0.208
 2000SOL     OW 6017   3.165   2.700   0.042
 2000SOL    HW1 6018   3.199   2.607   0.057
 2000SOL    HW2 6019   3.183   2.727  -0.053
 2001SOL     OW 6020   2.930   3.195   0.849
 2001SOL    HW1 6021   2.937   3.111   0.794
 2001SOL    HW2 6022   2.992   3.264   0.813
 2002SOL     OW 6023   2.181   2.672   0.949
 2002SOL    HW1 6024   2.274   2.708   0.954
 2002SOL    HW2 6025   2.175   2.587   1.001
 2003SOL     OW 6026   2.201   2.371   1.006
 2003SOL    HW1 6027   2.149   2.288   0.989
 2003SOL    HW2 6028   2.278   2.376   0.942
 2004SOL     OW 6029   3.000   2.242   1.678
 2004SOL    HW1 6030   2.955   2.305   1.742
 2004SOL    HW2 6031   3.093   2.273   1.661
 2005SOL     OW 6032   3.022   2.069   1.477
 2005SOL    HW1 6033   3.022   2.133   1.554
 2005SOL    HW2 6034   3.050   2.117   1.394
 2006SOL     OW 6035   1.870   3.188   0.200
 2006SOL    HW1 6036   1.777   3.209   0.169
 2006SOL    HW2 6037   1.880   3.089   0.213
 2007SOL     OW 6038   1.950   3.663   0.927
 2007SOL    HW1 6039   1.908   3.577   0.900
 2007SOL    HW2 6040   2.044   3.666   0.893
 2008SOL     OW 6041   2.366   3.430   0.910
 2008SOL    HW1 6042   2.432   3.504   0.919
 2008SOL    HW2 6043   2.410   3.351   0.868
 2009SOL     OW 6044   2.864   2.658   1.238
 2009SOL    HW1 6045   2.905   2.626   1.324
 2009SOL    HW2 6046   2.768   2.631   1.235
 2010SOL     OW 6047   1.902   2.406   1.114
 2010SOL    HW1 6048   1.987   2.373   1.073
 2010SOL    HW2 6049   1.915   2.421   1.212
 2011SOL     OW 6050   2.051   2.382   1.722
 2011SOL    HW1 6051   2.110   2.342   1.652
 2011SOL    HW2 6052   1.993   2.453   1.681
 2012SOL     OW 6053   3.231   2.812   1.660
 2012SOL    HW1 6054   3.270   2.901   1.680
 2012SOL    HW2 6055   3.241   2.792   1.563
 2013SOL     OW 6056   2.677   2.434   0.325
 2013SOL    HW1 6057   2.684   2.345   0.279
 2013SOL    HW2 6058   2.583   2.468   0.317
 2014SOL     OW 6059   3.519   2.466   1.206
 2014SOL    HW1 6060   3.481   2.397   1.268
 2014SOL    HW2 6061   3.601   2.430   1.162
 2015SOL     OW 6062   2.114   3.426   1.744
 2015SOL    HW1 6063   2.084   3.483   1.820
 2015SOL    HW2 6064   2.107   3.329   1.770
 2016SOL     OW 6065   2.533   2.326   1.269
 2016SOL    HW1 6066   2.499   2.237   1.239
 2016SOL    HW2 6067   2.559   2.380   1.189
 2017SOL     OW 6068   2.792   3.540   1.465
 2017SOL    HW1 6069   2.768   3.522   1.370
 2017SOL    HW2 6070   2.822   3.634   1.475
 2018SOL     OW 6071   2.335   2.362   0.191
 2018SOL    HW1 6072   2.396   2.442   0.195
 2018SOL    HW2 6073   2.240   2.393   0.198
 2019SOL     OW 6074   2.021   2.999   1.466
 2019SOL    HW1 6075   2.043   2.938   1.542
 2019SOL    HW2 6076   2.031   2.950   1.380
 2020SOL     OW 6077   3.209   2.921   1.234
 2020SOL    HW1 6078   3.233   2.858   1.160
 2020SOL    HW2 6079   3.119   2.961   1.216
 2021SOL     OW 6080   3.164   2.717   0.309
 2021SOL    HW1 6081   3.078   2.686   0.351
 2021SOL    HW2 6082   3.160   2.703   0.210
 2022SOL     OW 6083   3.621   3.609   1.154
 2022SOL    HW1 6084   3.682   3.639   1.081
 2022SOL    HW2 6085   3.583   3.520   1.132
 2023SOL     OW 6086   3.114   3.593   1.128
 2023SOL    HW1 6087   3.198   3.598   1.074
 2023SOL    HW2 6088   3.091   3.497   1.146
 2024SOL     OW 6089   1.945   3.120   1.022
 2024SOL    HW1 6090   1.940   3.119   1.122
 2024SOL    HW2 6091   1.862   3.079   0.984
 2025SOL     OW 6092   2.550   3.524   1.716
 2025SOL    HW1 6093   2.494   3.605   1.725
 2025SOL    HW2 6094   2.602   3.528   1.630
 2026SOL     OW 6095   2.765   1.948   0.133
 2026SOL    HW1 6096   2.816   1.949   0.047
 2026SOL    HW2 6097   2.821   1.906   0.204
 2027SOL     OW 6098   3.588   1.997   0.523
 2027SOL    HW1 6099   3.661   1.980   0.456
 2027SOL    HW2 6100   3.557   1.910   0.561
 2028SOL     OW 6101   3.250   3.435   0.477
 2028SOL    HW1 6102   3.317   3.447   0.403
 2028SOL    HW2 6103   3.210   3.524   0.500
 2029SOL     OW 6104   1.992   3.656   1.851
 2029SOL    HW1 6105   1.951   3.582   1.904
 2029SOL    HW2 6106   2.056   3.707   1.909
 2030SOL     OW 6107   3.142   2.789   0.672
 2030SOL    HW1 6108   3.202   2.708   0.674
 2030SOL    HW2 6109   3.182   2.858   0.612
 2031SOL     OW 6110   2.692   3.135   1.422
 2031SOL    HW1 6111   2.687   3.168   1.517
 2031SOL    HW2 6112   2.606   3.154   1.376
 2032SOL     OW 6113   2.534   3.478   0.154
 2032SOL    HW1 6114   2.543   3.488   0.055
 2032SOL    HW2 6115   2.494   3.389   0.175
 2033SOL     OW 6116   3.512   3.582   1.394
 2033SOL    HW1 6117   3.565   3.592   1.310
 2033SOL    HW2 6118   3.485   3.672   1.428
 2034SOL     OW 6119   3.703   2.037   0.963
 2034SOL    HW1 6120   3.742   1.952   0.927
 2034SOL    HW2 6121   3.605   2.039   0.944
 2035SOL     OW 6122   2.125   2.188   0.720
 2035SOL    HW1 6123   2.046   2.239   0.686
 2035SOL    HW2 6124   2.116   2.173   0.818
 2036SOL     OW 6125   3.056   3.474   0.031
 2036SOL    HW1 6126   3.062   3.381   0.068
 2036SOL    HW2 6127   2.997   3.474  -0.049
 2037SOL     OW 6128   2.684   2.864   1.372
 2037SOL    HW1 6129   2.724   2.863   1.280
 2037SOL    HW2 6130   2.694   2.956   1.412
 2038SOL     OW 6131   2.778   2.772   0.291
 2038SOL    HW1 6132   2.841   2.810   0.223
 2038SOL    HW2 6133   2.818   2.689   0.330
 2039SOL     OW 6134   3.366   3.469   0.044
 2039SOL    HW1 6135   3.274   3.506   0.051
 2039SOL    HW2 6136   3.404   3.489  -0.046
 2040SOL     OW 6137   2.234   3.150   1.490
 2040SOL    HW1 6138   2.221   3.243   1.456
 2040SOL    HW2 6139   2.150   3.098   1.477
 2041SOL     OW 6140   3.476   3.154   1.289
 2041SOL    HW1 6141   3.536   3.157   1.369
 2041SOL    HW2 6142   3.401   3.218   1.302
 2042SOL     OW 6143   2.901   2.960   0.696
 2042SOL    HW1 6144   2.831   2.913   0.750
 2042SOL    HW2 6145   2.960   2.892   0.653
 2043SOL     OW 6146   2.876   2.098   0.971
 2043SOL    HW1 6147   2.868   2.062   0.878
 2043SOL    HW2 6148   2.874   2.022   1.036
 2044SOL     OW 6149   2.452   3.349   0.491
 2044SOL    HW1 6150   2.494   3.291   0.421
 2044SOL    HW2 6151   2.408   3.428   0.447
 2045SOL     OW 6152   3.571   2.247   1.381
 2045SOL    HW1 6153   3.644   2.316   1.385
 2045SOL    HW2 6154   3.599   2.172   1.322
 2046SOL     OW 6155   2.117   3.210   0.290
 2046SOL    HW1 6156   2.021   3.211   0.263
 2046SOL    HW2 6157   2.129   3.263   0.374
 2047SOL     OW 6158   1.967   2.875   1.726
 2047SOL    HW1 6159   1.890   2.842   1.780
 2047SOL    HW2 6160   2.052   2.845   1.768
 2048SOL     OW 6161   2.534   2.065   1.489
 2048SOL    HW1 6162   2.624   2.049   1.449
 2048SOL    HW2 6163   2.542   2.070   1.588
 2049SOL     OW 6164   3.302   2.718   1.398
 2049SOL    HW1 6165   3.245   2.770   1.335
 2049SOL    HW2 6166   3.398   2.730   1.374
 2050SOL     OW 6167   1.934   2.028   0.318
 2050SOL    HW1 6168   1.917   2.111   0.264
 2050SOL    HW2 6169   2.024   1.991   0.296
 2051SOL     OW 6170   3.045   3.197   0.119
 2051SOL    HW1 6171   2.946   3.186   0.121
 2051SOL    HW2 6172   3.079   3.212   0.212
 2052SOL     OW 6173   2.475   2.704   1.431
 2052SOL    HW1 6174   2.531   2.785   1.414
 2052SOL    HW2 6175   2.534   2.624   1.434
 2053SOL     OW 6176   3.355   3.629   0.959
 2053SOL    HW1 6177   3.388   3.693   0.890
 2053SOL    HW2 6178   3.421   3.623   1.034
 2054SOL     OW 6179   2.578   2.427   1.708
 2054SOL    HW1 6180   2.597   2.492   1.782
 2054SOL    HW2 6181   2.638   2.347   1.717
 2055SOL     OW 6182   3.312   3.082   1.633
 2055SOL    HW1 6183   3.303   3.072   1.732
 2055SOL    HW2 6184   3.408   3.075   1.607
 2056SOL     OW 6185   2.252   3.603   1.560
 2056SOL    HW1 6186   2.161   3.644   1.558
 2056SOL    HW2 6187   2.245   3.509   1.592
 2057SOL     OW 6188   3.536   2.745   1.254
 2057SOL    HW1 6189   3.509   2.656   1.217
 2057SOL    HW2 6190   3.537   2.813   1.181
 2058SOL     OW 6191   3.087   2.187   0.449
 2058SOL    HW1 6192   3.152   2.113   0.438
 2058SOL    HW2 6193   3.107   2.237   0.533
 2059SOL     OW 6194   2.456   2.607   0.652
 2059SOL    HW1 6195   2.506   2.692   0.633
 2059SOL    HW2 6196   2.368   2.609   0.604
 2060SOL     OW 6197   3.639   2.204   1.642
 2060SOL    HW1 6198   3.622   2.235   1.548
 2060SOL    HW2 6199   3.555   2.167   1.680
 2061SOL     OW 6200   3.592   2.796   1.517
 2061SOL    HW1 6201   3.630   2.887   1.532
 2061SOL    HW2 6202   3.584   2.779   1.418
 2062SOL     OW 6203   2.721   3.236   0.016
 2062SOL    HW1 6204   2.675   3.251   0.104
 2062SOL    HW2 6205   2.765   3.321  -0.014
 2063SOL     OW 6206   2.523   3.652   0.953
 2063SOL    HW1 6207   2.477   3.740   0.940
 2063SOL    HW2 6208   2.622   3.664   0.946
 2064SOL     OW 6209   2.721   2.818   0.861
 2064SOL    HW1 6210   2.775   2.749   0.909
 2064SOL    HW2 6211   2.689   2.887   0.927
 2065SOL     OW 6212   2.945   2.846   0.087
 2065SOL    HW1 6213   2.922   2.899   0.005
 2065SOL    HW2 6214   3.026   2.790   0.068
 2066SOL     OW 6215   3.723   3.431   0.851
 2066SOL    HW1 6216   3.652   3.419   0.781
 2066SOL    HW2 6217   3.724   3.352   0.911
 2067SOL     OW 6218   2.083   3.176   1.844
 2067SOL    HW1 6219   2.018   3.103   1.823
 2067SOL    HW2 6220   2.087   3.190   1.942
 2068SOL     OW 6221   1.941   3.102   0.653
 2068SOL    HW1 6222   1.940   3.055   0.741
 2068SOL    HW2 6223   2.023   3.074   0.602
 2069SOL     OW 6224   2.534   3.253   1.624
 2069SOL    HW1 6225   2.456   3.203   1.662
 2069SOL    HW2 6226   2.531   3.348   1.655
 2070SOL     OW 6227   3.686   2.054   1.227
 2070SOL    HW1 6228   3.682   1.964   1.271
 2070SOL    HW2 6229   3.689   2.043   1.128
 2071SOL     OW 6230   2.290   2.286   0.520
 2071SOL    HW1 6231   2.320   2.214   0.458
 2071SOL    HW2 6232   2.251   2.246   0.603
 2072SOL     OW 6233   3.567   3.349   1.104
 2072SOL    HW1 6234   3.474   3.324   1.077
 2072SOL    HW2 6235   3.593   3.299   1.186
 2073SOL     OW 6236   2.179   2.409   1.280
 2073SOL    HW1 6237   2.217   2.350   1.352
 2073SOL    HW2 6238   2.219   2.383   1.192
 2074SOL     OW 6239   2.674   3.448   0.687
 2074SOL    HW1 6240   2.706   3.458   0.593
 2074SOL    HW2 6241   2.595   3.386   0.689
 2075SOL     OW 6242   3.286   2.076   1.112
 2075SOL    HW1 6243   3.338   2.011   1.167
 2075SOL    HW2 6244   3.237   2.139   1.173
 2076SOL     OW 6245   2.863   1.896   1.154
 2076SOL    HW1 6246   2.800   1.824   1.123
 2076SOL    HW2 6247   2.956   1.860   1.154
 2077SOL     OW 6248   2.632   3.192   0.301
 2077SOL    HW1 6249   2.586   3.105   0.318
 2077SOL    HW2 6250   2.723   3.189   0.342
 2078SOL     OW 6251   2.480   3.429   1.284
 2078SOL    HW1 6252   2.475   3.511   1.341
 2078SOL    HW2 6253   2.569   3.426   1.239
 2079SOL     OW 6254   3.214   1.914   0.168
 2079SOL    HW1 6255   3.249   1.873   0.084
 2079SOL    HW2 6256   3.124   1.876   0.188
 2080SOL     OW 6257   3.162   2.315   0.691
 2080SOL    HW1 6258   3.103   2.395   0.695
 2080SOL    HW2 6259   3.177   2.280   0.784
 2081SOL     OW 6260   3.455   2.083   0.882
 2081SOL    HW1 6261   3.371   2.082   0.936
 2081SOL    HW2 6262   3.457   2.166   0.826
 2082SOL     OW 6263   1.901   2.939   0.300
 2082SOL    HW1 6264   2.000   2.928   0.291
 2082SOL    HW2 6265   1.861   2.853   0.332
 2083SOL     OW 6266   2.737   3.508   0.337
 2083SOL    HW1 6267   2.660   3.473   0.283
 2083SOL    HW2 6268   2.705   3.579   0.399
 2084SOL     OW 6269   2.092   2.490   1.975
 2084SOL    HW1 6270   1.999   2.488   2.012
 2084SOL    HW2 6271   2.093   2.451   1.883
 2085SOL     OW 6272   2.087   2.137   2.858
 2085SOL    HW1 6273   2.122   2.120   2.950
 2085SOL    HW2 6274   1.999   2.092   2.846
 2086SOL     OW 6275   1.881   2.230   2.509
 2086SOL    HW1 6276   1.799   2.273   2.548
 2086SOL    HW2 6277   1.853   2.157   2.446
 2087SOL     OW 6278   2.431   3.137   3.027
 2087SOL    HW1 6279   2.338   3.130   2.990
 2087SOL    HW2 6280   2.442   3.226   3.071
 2088SOL     OW 6281   3.417   3.373   2.565
 2088SOL    HW1 6282   3.360   3.357   2.646
 2088SOL    HW2 6283   3.358   3.383   2.485
 2089SOL     OW 6284   2.997   2.565   2.579
 2089SOL    HW1 6285   3.054   2.643   2.554
 2089SOL    HW2 6286   2.937   2.591   2.655
 2090SOL     OW 6287   3.617   2.469   2.093
 2090SOL    HW1 6288   3.605   2.456   1.994
 2090SOL    HW2 6289   3.587   2.388   2.142
 2091SOL     OW 6290   2.630   3.006   2.885
 2091SOL    HW1 6291   2.552   3.023   2.945
 2091SOL    HW2 6292   2.664   3.093   2.849
 2092SOL     OW 6293   2.712   2.660   3.685
 2092SOL    HW1 6294   2.708   2.736   3.750
 2092SOL    HW2 6295   2.734   2.696   3.594
 2093SOL     OW 6296   2.547   2.874   2.527
 2093SOL    HW1 6297   2.616   2.858   2.597
 2093SOL    HW2 6298   2.474   2.931   2.565
 2094SOL     OW 6299   2.548   3.023   3.665
 2094SOL    HW1 6300   2.608   3.102   3.679
 2094SOL    HW2 6301   2.462   3.054   3.624
 2095SOL     OW 6302   2.197   3.297   2.923
 2095SOL    HW1 6303   2.119   3.266   2.870
 2095SOL    HW2 6304   2.255   3.355   2.866
 2096SOL     OW 6305   3.322   3.367   3.201
 2096SOL    HW1 6306   3.346   3.461   3.227
 2096SOL    HW2 6307   3.306   3.313   3.283
 2097SOL     OW 6308   2.300   2.254   3.361
 2097SOL    HW1 6309   2.382   2.198   3.370
 2097SOL    HW2 6310   2.219   2.196   3.365
 2098SOL     OW 6311   3.465   2.309   2.599
 2098SOL    HW1 6312   3.391   2.355   2.549
 2098SOL    HW2 6313   3.516   2.377   2.652
 2099SOL     OW 6314   2.093   3.575   2.345
 2099SOL    HW1 6315   2.127   3.652   2.399
 2099SOL    HW2 6316   2.137   3.575   2.255
 2100SOL     OW 6317   2.989   3.203   3.552
 2100SOL    HW1 6318   3.036   3.203   3.640
 2100SOL    HW2 6319   2.941   3.116   3.541
 2101SOL     OW 6320   2.092   3.296   2.400
 2101SOL    HW1 6321   2.066   3.392   2.400
 2101SOL    HW2 6322   2.021   3.242   2.445
 2102SOL     OW 6323   2.102   2.953   2.748
 2102SOL    HW1 6324   2.116   2.869   2.800
 2102SOL    HW2 6325   2.047   3.017   2.803
 2103SOL     OW 6326   2.482   3.648   3.301
 2103SOL    HW1 6327   2.390   3.631   3.336
 2103SOL    HW2 6328   2.510   3.740   3.327
 2104SOL     OW 6329   2.468   2.826   1.985
 2104SOL    HW1 6330   2.475   2.910   1.931
 2104SOL    HW2 6331   2.514   2.839   2.073
 2105SOL     OW 6332   3.456   1.976   3.342
 2105SOL    HW1 6333   3.438   2.043   3.270
 2105SOL    HW2 6334   3.453   2.022   3.431
 2106SOL     OW 6335   3.704   3.629   2.221
 2106SOL    HW1 6336   3.758   3.600   2.301
 2106SOL    HW2 6337   3.734   3.719   2.192
 2107SOL     OW 6338   1.889   3.458   1.979
 2107SOL    HW1 6339   1.870   3.362   2.000
 2107SOL    HW2 6340   1.856   3.516   2.054
 2108SOL     OW 6341   3.551   2.784   2.474
 2108SOL    HW1 6342   3.646   2.755   2.482
 2108SOL    HW2 6343   3.543   2.849   2.399
 2109SOL     OW 6344   3.503   2.970   2.294
 2109SOL    HW1 6345   3.589   2.972   2.242
 2109SOL    HW2 6346   3.517   3.017   2.382
 2110SOL     OW 6347   1.975   2.599   3.459
 2110SOL    HW1 6348   2.063   2.586   3.504
 2110SOL    HW2 6349   1.962   2.696   3.437
 2111SOL     OW 6350   2.475   3.227   2.588
 2111SOL    HW1 6351   2.426   3.140   2.597
 2111SOL    HW2 6352   2.452   3.270   2.501
 2112SOL     OW 6353   3.155   3.090   3.285
 2112SOL    HW1 6354   3.192   3.017   3.227
 2112SOL    HW2 6355   3.207   3.095   3.370
 2113SOL     OW 6356   2.671   1.866   2.364
 2113SOL    HW1 6357   2.711   1.957   2.355
 2113SOL    HW2 6358   2.571   1.874   2.370
 2114SOL     OW 6359   2.059   2.838   3.126
 2114SOL    HW1 6360   2.148   2.793   3.112
 2114SOL    HW2 6361   1.986   2.773   3.107
 2115SOL     OW 6362   3.387   2.861   2.052
 2115SOL    HW1 6363   3.324   2.785   2.065
 2115SOL    HW2 6364   3.435   2.879   2.138
 2116SOL     OW 6365   3.049   3.654   3.478
 2116SOL    HW1 6366   3.073   3.714   3.402
 2116SOL    HW2 6367   3.056   3.559   3.448
 2117SOL     OW 6368   2.179   2.113   3.663
 2117SOL    HW1 6369   2.250   2.184   3.669
 2117SOL    HW2 6370   2.091   2.152   3.691
 2118SOL     OW 6371   3.328   3.279   2.815
 2118SOL    HW1 6372   3.269   3.285   2.895
 2118SOL    HW2 6373   3.313   3.191   2.769
 2119SOL     OW 6374   3.529   3.576   2.434
 2119SOL    HW1 6375   3.488   3.553   2.346
 2119SOL    HW2 6376   3.511   3.502   2.499
 2120SOL     OW 6377   3.143   2.207   2.806
 2120SOL    HW1 6378   3.057   2.157   2.793
 2120SOL    HW2 6379   3.205   2.153   2.862
 2121SOL     OW 6380   3.438   3.524   2.169
 2121SOL    HW1 6381   3.527   3.570   2.172
 2121SOL    HW2 6382   3.417   3.500   2.074
 2122SOL     OW 6383   2.669   2.467   3.327
 2122SOL    HW1 6384   2.622   2.464   3.416
 2122SOL    HW2 6385   2.618   2.412   3.261
 2123SOL     OW 6386   3.256   2.331   3.536
 2123SOL    HW1 6387   3.236   2.374   3.624
 2123SOL    HW2 6388   3.334   2.269   3.545
 2124SOL     OW 6389   2.835   2.752   3.434
 2124SOL    HW1 6390   2.881   2.668   3.405
 2124SOL    HW2 6391   2.779   2.786   3.359
 2125SOL     OW 6392   2.853   2.272   3.104
 2125SOL    HW1 6393   2.776   2.306   3.158
 2125SOL    HW2 6394   2.819   2.221   3.025
 2126SOL     OW 6395   1.938   2.673   2.651
 2126SOL    HW1 6396   2.037   2.661   2.660
 2126SOL    HW2 6397   1.914   2.768   2.672
 2127SOL     OW 6398   1.992   3.683   3.433
 2127SOL    HW1 6399   1.982   3.668   3.532
 2127SOL    HW2 6400   1.906   3.719   3.397
 2128SOL     OW 6401   2.727   2.210   2.057
 2128SOL    HW1 6402   2.786   2.273   2.008
 2128SOL    HW2 6403   2.746   2.116   2.028
 2129SOL     OW 6404   3.581   2.447   3.693
 2129SOL    HW1 6405   3.555   2.536   3.657
 2129SOL    HW2 6406   3.579   2.379   3.620
 2130SOL     OW 6407   3.224   3.006   2.407
 2130SOL    HW1 6408   3.307   2.977   2.359
 2130SOL    HW2 6409   3.175   3.073   2.351
 2131SOL     OW 6410   2.412   2.058   2.747
 2131SOL    HW1 6411   2.407   2.053   2.847
 2131SOL    HW2 6412   2.414   2.154   2.718
 2132SOL     OW 6413   2.870   3.318   2.339
 2132SOL    HW1 6414   2.824   3.390   2.287
 2132SOL    HW2 6415   2.866   3.338   2.437
 2133SOL     OW 6416   2.213   3.663   2.715
 2133SOL    HW1 6417   2.263   3.577   2.721
 2133SOL    HW2 6418   2.278   3.740   2.712
 2134SOL     OW 6419   3.657   2.928   2.735
 2134SOL    HW1 6420   3.595   2.913   2.659
 2134SOL    HW2 6421   3.605   2.939   2.820
 2135SOL     OW 6422   3.089   3.412   3.368
 2135SOL    HW1 6423   3.095   3.335   3.432
 2135SOL    HW2 6424   3.037   3.386   3.288
 2136SOL     OW 6425   2.183   2.805   2.104
 2136SOL    HW1 6426   2.265   2.844   2.062
 2136SOL    HW2 6427   2.156   2.723   2.055
 2137SOL     OW 6428   3.320   2.597   2.590
 2137SOL    HW1 6429   3.315   2.532   2.665
 2137SOL    HW2 6430   3.400   2.656   2.603
 2138SOL     OW 6431   2.323   3.128   3.589
 2138SOL    HW1 6432   2.273   3.129   3.503
 2138SOL    HW2 6433   2.260   3.110   3.665
 2139SOL     OW 6434   2.973   3.638   2.099
 2139SOL    HW1 6435   2.913   3.576   2.149
 2139SOL    HW2 6436   3.004   3.594   2.014
 2140SOL     OW 6437   2.064   2.147   3.360
 2140SOL    HW1 6438   1.984   2.207   3.347
 2140SOL    HW2 6439   2.054   2.098   3.446
 2141SOL     OW 6440   3.494   3.239   1.943
 2141SOL    HW1 6441   3.462   3.333   1.933
 2141SOL    HW2 6442   3.418   3.176   1.931
 2142SOL     OW 6443   2.326   3.605   2.185
 2142SOL    HW1 6444   2.359   3.644   2.271
 2142SOL    HW2 6445   2.402   3.598   2.120
 2143SOL     OW 6446   3.262   1.969   2.288
 2143SOL    HW1 6447   3.238   1.932   2.198
 2143SOL    HW2 6448   3.361   1.985   2.292
 2144SOL     OW 6449   2.111   3.647   3.103
 2144SOL    HW1 6450   2.168   3.582   3.153
 2144SOL    HW2 6451   2.095   3.614   3.010
 2145SOL     OW 6452   2.802   3.560   2.766
 2145SOL    HW1 6453   2.882   3.503   2.787
 2145SOL    HW2 6454   2.753   3.520   2.689
 2146SOL     OW 6455   3.409   2.084   3.591
 2146SOL    HW1 6456   3.404   2.121   3.683
 2146SOL    HW2 6457   3.337   2.015   3.579
 2147SOL     OW 6458   2.476   1.984   1.979
 2147SOL    HW1 6459   2.574   1.962   1.986
 2147SOL    HW2 6460   2.445   1.967   1.886
 2148SOL     OW 6461   2.643   2.126   3.611
 2148SOL    HW1 6462   2.710   2.065   3.654
 2148SOL    HW2 6463   2.570   2.145   3.676
 2149SOL     OW 6464   2.750   3.376   3.057
 2149SOL    HW1 6465   2.727   3.351   2.963
 2149SOL    HW2 6466   2.811   3.307   3.096
 2150SOL     OW 6467   3.213   2.452   3.295
 2150SOL    HW1 6468   3.241   2.409   3.380
 2150SOL    HW2 6469   3.238   2.548   3.296
 2151SOL     OW 6470   2.665   3.264   2.786
 2151SOL    HW1 6471   2.755   3.278   2.744
 2151SOL    HW2 6472   2.594   3.266   2.715
 2152SOL     OW 6473   2.784   2.365   2.761
 2152SOL    HW1 6474   2.759   2.356   2.665
 2152SOL    HW2 6475   2.832   2.283   2.792
 2153SOL     OW 6476   3.296   3.050   1.903
 2153SOL    HW1 6477   3.328   2.974   1.960
 2153SOL    HW2 6478   3.204   3.077   1.933
 2154SOL     OW 6479   2.159   1.897   2.033
 2154SOL    HW1 6480   2.208   1.981   2.012
 2154SOL    HW2 6481   2.221   1.832   2.078
 2155SOL     OW 6482   2.797   2.098   2.342
 2155SOL    HW1 6483   2.749   2.139   2.264
 2155SOL    HW2 6484   2.896   2.096   2.323
 2156SOL     OW 6485   2.938   2.545   3.326
 2156SOL    HW1 6486   2.858   2.484   3.329
 2156SOL    HW2 6487   3.019   2.492   3.302
 2157SOL     OW 6488   3.089   3.432   2.655
 2157SOL    HW1 6489   3.110   3.506   2.590
 2157SOL    HW2 6490   3.157   3.432   2.728
 2158SOL     OW 6491   2.321   3.014   2.603
 2158SOL    HW1 6492   2.250   2.987   2.668
 2158SOL    HW2 6493   2.295   2.986   2.510
 2159SOL     OW 6494   3.133   3.659   2.453
 2159SOL    HW1 6495   3.177   3.723   2.389
 2159SOL    HW2 6496   3.083   3.711   2.523
 2160SOL     OW 6497   2.894   2.411   1.878
 2160SOL    HW1 6498   2.853   2.493   1.839
 2160SOL    HW2 6499   2.958   2.437   1.951
 2161SOL     OW 6500   1.940   2.418   3.248
 2161SOL    HW1 6501   2.032   2.417   3.207
 2161SOL    HW2 6502   1.934   2.492   3.315
 2162SOL     OW 6503   2.423   2.084   3.009
 2162SOL    HW1 6504   2.461   2.000   3.046
 2162SOL    HW2 6505   2.335   2.103   3.053
 2163SOL     OW 6506   2.879   1.901   2.615
 2163SOL    HW1 6507   2.807   1.906   2.546
 2163SOL    HW2 6508   2.855   1.832   2.684
 2164SOL     OW 6509   3.291   3.035   2.729
 2164SOL    HW1 6510   3.236   2.951   2.722
 2164SOL    HW2 6511   3.317   3.064   2.637
 2165SOL     OW 6512   3.328   2.452   2.854
 2165SOL    HW1 6513   3.298   2.357   2.861
 2165SOL    HW2 6514   3.401   2.468   2.920
 2166SOL     OW 6515   3.719   2.695   2.239
 2166SOL    HW1 6516   3.761   2.631   2.303
 2166SOL    HW2 6517   3.681   2.644   2.161
 2167SOL     OW 6518   2.350   3.247   2.036
 2167SOL    HW1 6519   2.263   3.232   2.083
 2167SOL    HW2 6520   2.333   3.273   1.941
 2168SOL     OW 6521   3.526   3.142   2.519
 2168SOL    HW1 6522   3.625   3.150   2.533
 2168SOL    HW2 6523   3.481   3.226   2.550
 2169SOL     OW 6524   3.252   2.437   1.940
 2169SOL    HW1 6525   3.198   2.416   2.021
 2169SOL    HW2 6526   3.343   2.396   1.949
 2170SOL     OW 6527   2.389   2.118   2.190
 2170SOL    HW1 6528   2.416   2.059   2.115
 2170SOL    HW2 6529   2.389   2.213   2.159
 2171SOL     OW 6530   3.616   3.085   3.450
 2171SOL    HW1 6531   3.707   3.046   3.437
 2171SOL    HW2 6532   3.624   3.181   3.474
 2172SOL     OW 6533   2.926   3.209   3.202
 2172SOL    HW1 6534   2.846   3.186   3.257
 2172SOL    HW2 6535   3.009   3.183   3.251
 2173SOL     OW 6536   3.454   3.491   3.487
 2173SOL    HW1 6537   3.481   3.525   3.397
 2173SOL    HW2 6538   3.533   3.453   3.533
 2174SOL     OW 6539   2.973   3.057   2.962
 2174SOL    HW1 6540   2.933   3.101   3.043
 2174SOL    HW2 6541   2.932   3.094   2.879
 2175SOL     OW 6542   3.500   2.961   2.941
 2175SOL    HW1 6543   3.505   3.042   3.000
 2175SOL    HW2 6544   3.414   2.963   2.890
 2176SOL     OW 6545   2.777   1.951   3.264
 2176SOL    HW1 6546   2.802   1.931   3.169
 2176SOL    HW2 6547   2.849   2.007   3.306
 2177SOL     OW 6548   2.842   2.978   3.581
 2177SOL    HW1 6549   2.743   2.984   3.591
 2177SOL    HW2 6550   2.865   2.898   3.525
 2178SOL     OW 6551   2.567   2.912   2.230
 2178SOL    HW1 6552   2.553   2.919   2.329
 2178SOL    HW2 6553   2.651   2.861   2.212
 2179SOL     OW 6554   2.272   2.675   3.113
 2179SOL    HW1 6555   2.358   2.687   3.163
 2179SOL    HW2 6556   2.230   2.588   3.140
 2180SOL     OW 6557   3.136   2.248   3.124
 2180SOL    HW1 6558   3.157   2.322   3.188
 2180SOL    HW2 6559   3.047   2.265   3.081
 2181SOL     OW 6560   1.926   3.426   3.193
 2181SOL    HW1 6561   1.880   3.508   3.159
 2181SOL    HW2 6562   2.024   3.445   3.202
 2182SOL     OW 6563   2.229   2.962   2.363
 2182SOL    HW1 6564   2.222   3.045   2.307
 2182SOL    HW2 6565   2.233   2.882   2.303
 2183SOL     OW 6566   2.428   2.399   2.727
 2183SOL    HW1 6567   2.440   2.465   2.653
 2183SOL    HW2 6568   2.474   2.433   2.810
 2184SOL     OW 6569   3.114   3.210   2.250
 2184SOL    HW1 6570   3.164   3.287   2.290
 2184SOL    HW2 6571   3.019   3.212   2.282
 2185SOL     OW 6572   3.134   3.307   3.004
 2185SOL    HW1 6573   3.181   3.320   3.091
 2185SOL    HW2 6574   3.068   3.233   3.013
 2186SOL     OW 6575   3.444   2.501   2.334
 2186SOL    HW1 6576   3.413   2.562   2.407
 2186SOL    HW2 6577   3.494   2.553   2.265
 2187SOL     OW 6578   2.216   3.372   3.191
 2187SOL    HW1 6579   2.195   3.328   3.104
 2187SOL    HW2 6580   2.313   3.398   3.194
 2188SOL     OW 6581   2.264   2.613   3.460
 2188SOL    HW1 6582   2.332   2.668   3.413
 2188SOL    HW2 6583   2.304   2.525   3.487
 2189SOL     OW 6584   3.449   2.641   3.532
 2189SOL    HW1 6585   3.357   2.679   3.527
 2189SOL    HW2 6586   3.509   2.688   3.467
 2190SOL     OW 6587   2.875   1.967   3.632
 2190SOL    HW1 6588   2.881   2.052   3.580
 2190SOL    HW2 6589   2.907   1.891   3.575
 2191SOL     OW 6590   2.366   1.912   3.602
 2191SOL    HW1 6591   2.324   1.855   3.532
 2191SOL    HW2 6592   2.300   1.981   3.634
 2192SOL     OW 6593   2.435   2.732   2.891
 2192SOL    HW1 6594   2.479   2.821   2.882
 2192SOL    HW2 6595   2.372   2.732   2.968
 2193SOL     OW 6596   3.222   2.724   2.907
 2193SOL    HW1 6597   3.147   2.724   2.841
 2193SOL    HW2 6598   3.259   2.632   2.916
 2194SOL     OW 6599   3.071   2.387   2.137
 2194SOL    HW1 6600   3.084   2.303   2.191
 2194SOL    HW2 6601   3.042   2.461   2.197
 2195SOL     OW 6602   2.169   2.075   3.093
 2195SOL    HW1 6603   2.146   2.112   3.183
 2195SOL    HW2 6604   2.139   1.980   3.087
 2196SOL     OW 6605   1.899   3.172   3.144
 2196SOL    HW1 6606   1.952   3.123   3.212
 2196SOL    HW2 6607   1.921   3.270   3.149
 2197SOL     OW 6608   2.594   2.496   2.926
 2197SOL    HW1 6609   2.653   2.470   2.850
 2197SOL    HW2 6610   2.566   2.592   2.915
 2198SOL     OW 6611   3.590   2.797   3.716
 2198SOL    HW1 6612   3.544   2.790   3.627
 2198SOL    HW2 6613   3.528   2.841   3.782
 2199SOL     OW 6614   2.169   1.925   2.480
 2199SOL    HW1 6615   2.158   2.019   2.513
 2199SOL    HW2 6616   2.164   1.862   2.557
 2200SOL     OW 6617   3.484   2.229   2.236
 2200SOL    HW1 6618   3.486   2.153   2.300
 2200SOL    HW2 6619   3.436   2.306   2.276
 2201SOL     OW 6620   2.885   2.628   2.828
 2201SOL    HW1 6621   2.900   2.649   2.924
 2201SOL    HW2 6622   2.855   2.533   2.819
 2202SOL     OW 6623   2.842   3.435   3.562
 2202SOL    HW1 6624   2.822   3.479   3.474
 2202SOL    HW2 6625   2.881   3.344   3.546
 2203SOL     OW 6626   3.721   3.380   3.467
 2203SOL    HW1 6627   3.735   3.407   3.372
 2203SOL    HW2 6628   3.804   3.402   3.520
 2204SOL     OW 6629   2.212   2.760   3.666
 2204SOL    HW1 6630   2.288   2.804   3.714
 2204SOL    HW2 6631   2.247   2.713   3.584
 2205SOL     OW 6632   3.402   2.136   1.987
 2205SOL    HW1 6633   3.341   2.061   2.010
 2205SOL    HW2 6634   3.424   2.188   2.070
 2206SOL     OW 6635   3.165   2.700   1.904
 2206SOL    HW1 6636   3.199   2.607   1.919
 2206SOL    HW2 6637   3.183   2.727   1.809
 2207SOL     OW 6638   2.930   3.195   2.711
 2207SOL    HW1 6639   2.937   3.111   2.656
 2207SOL    HW2 6640   2.992   3.264   2.675
 2208SOL     OW 6641   2.181   2.672   2.811
 2208SOL    HW1 6642   2.274   2.708   2.816
 2208SOL    HW2 6643   2.175   2.587   2.863
 2209SOL     OW 6644   2.201   2.371   2.868
 2209SOL    HW1 6645   2.149   2.288   2.851
 2209SOL    HW2 6646   2.278   2.376   2.804
 2210SOL     OW 6647   3.000   2.242   3.540
 2210SOL    HW1 6648   2.955   2.305   3.604
 2210SOL    HW2 6649   3.093   2.273   3.523
 2211SOL     OW 6650   3.022   2.069   3.339
 2211SOL    HW1 6651   3.022   2.133   3.416
 2211SOL    HW2 6652   3.050   2.117   3.256
 2212SOL     OW 6653   1.870   3.188   2.062
 2212SOL    HW1 6654   1.777   3.209   2.031
 2212SOL    HW2 6655   1.880   3.089   2.075
 2213SOL     OW 6656   1.950   3.663   2.789
 2213SOL    HW1 6657   1.908   3.577   2.762
 2213SOL    HW2 6658   2.044   3.666   2.755
 2214SOL     OW 6659   2.366   3.430   2.772
 2214SOL    HW1 6660   2.432   3.504   2.781
 2214SOL    HW2 6661   2.410   3.351   2.730
 2215SOL     OW 6662   2.864   2.658   3.100
 2215SOL    HW1 6663   2.905   2.626   3.186
 2215SOL    HW2 6664   2.768   2.631   3.097
 2216SOL     OW 6665   1.902   2.406   2.976
 2216SOL    HW1 6666   1.987   2.373   2.935
 2216SOL    HW2 6667   1.915   2.421   3.074
 2217SOL     OW 6668   2.051   2.382   3.584
 2217SOL    HW1 6669   2.110   2.342   3.514
 2217SOL    HW2 6670   1.993   2.453   3.543
 2218SOL     OW 6671   3.231   2.812   3.522
 2218SOL    HW1 6672   3.270   2.901   3.542
 2218SOL    HW2 6673   3.241   2.792   3.425
 2219SOL     OW 6674   3.519   2.466   3.068
 2219SOL    HW1 6675   3.481   2.397   3.130
 2219SOL    HW2 6676   3.601   2.430   3.024
 2220SOL     OW 6677   2.114   3.426   3.606
 2220SOL    HW1 6678   2.084   3.483   3.682
 2220SOL    HW2 6679   2.107   3.329   3.632
 2221SOL     OW 6680   2.533   2.326   3.131
 2221SOL    HW1 6681   2.499   2.237   3.101
 2221SOL    HW2 6682   2.559   2.380   3.051
 2222SOL     OW 6683   2.792   3.540   3.327
 2222SOL    HW1 6684   2.768   3.522   3.232
 2222SOL    HW2 6685   2.822   3.634   3.337
 2223SOL     OW 6686   2.335   2.362   2.053
 2223SOL    HW1 6687   2.396   2.442   2.057
 2223SOL    HW2 6688   2.240   2.393   2.060
 2224SOL     OW 6689   2.021   2.999   3.328
 2224SOL    HW1 6690   2.043   2.938   3.404
 2224SOL    HW2 6691   2.031   2.950   3.242
 2225SOL     OW 6692   3.209   2.921   3.096
 2225SOL    HW1 6693   3.233   2.858   3.022
 2225SOL    HW2 6694   3.119   2.961   3.078
 2226SOL     OW 6695   3.164   2.717   2.171
 2226SOL    HW1 6696   3.078   2.686   2.213
 2226SOL    HW2 6697   3.160   2.703   2.072
 2227SOL     OW 6698   3.621   3.609   3.016
 2227SOL    HW1 6699   3.682   3.639   2.943
 2227SOL    HW2 6700   3.583   3.520   2.994
 2228SOL     OW 6701   3.114   3.593   2.990
 2228SOL    HW1 6702   3.198   3.598   2.936
 2228SOL    HW2 6703   3.091   3.497   3.008
 2229SOL     OW 6704   1.945   3.120   2.884
 2229SOL    HW1 6705   1.940   3.119   2.984
 2229SOL    HW2 6706   1.862   3.079   2.846
 2230SOL     OW 6707   2.550   3.524   3.578
 2230SOL    HW1 6708   2.494   3.605   3.587
 2230SOL    HW2 6709   2.602   3.528   3.492
 2231SOL     OW 6710   3.588   1.997   2.385
 2231SOL    HW1 6711   3.661   1.980   2.318
 2231SOL    HW2 6712   3.557   1.910   2.423
 2232SOL     OW 6713   3.250   3.435   2.339
 2232SOL    HW1 6714   3.317   3.447   2.265
 2232SOL    HW2 6715   3.210   3.524   2.362
 2233SOL     OW 6716   1.992   3.656   3.713
 2233SOL    HW1 6717   1.951   3.582   3.766
 2233SOL    HW2 6718   2.056   3.707   3.771
 2234SOL     OW 6719   3.142   2.789   2.534
 2234SOL    HW1 6720   3.202   2.708   2.536
 2234SOL    HW2 6721   3.182   2.858   2.474
 2235SOL     OW 6722   2.692   3.135   3.284
 2235SOL    HW1 6723   2.687   3.168   3.379
 2235SOL    HW2 6724   2.606   3.154   3.238
 2236SOL     OW 6725   2.534   3.478   2.016
 2236SOL    HW1 6726   2.543   3.488   1.917
 2236SOL    HW2 6727   2.494   3.389   2.037
 2237SOL     OW 6728   3.512   3.582   3.256
 2237SOL    HW1 6729   3.565   3.592   3.172
 2237SOL    HW2 6730   3.485   3.672   3.290
 2238SOL     OW 6731   3.703   2.037   2.825
 2238SOL    HW1 6732   3.742   1.952   2.789
 2238SOL    HW2 6733   3.605   2.039   2.806
 2239SOL     OW 6734   3.056   3.474   1.893
 2239SOL    HW1 6735   3.062   3.381   1.930
 2239SOL    HW2 6736   2.997   3.474   1.813
 2240SOL     OW 6737   2.684   2.864   3.234
 2240SOL    HW1 6738   2.724   2.863   3.142
 2240SOL    HW2 6739   2.694   2.956   3.274
 2241SOL     OW 6740   2.778   2.772   2.153
 2241SOL    HW1 6741   2.841   2.810   2.085
 2241SOL    HW2 6742   2.818   2.689   2.192
 2242SOL     OW 6743   3.366   3.469   1.906
 2242SOL    HW1 6744   3.274   3.506   1.913
 2242SOL    HW2 6745   3.404   3.489   1.816
 2243SOL     OW 6746   2.234   3.150   3.352
 2243SOL    HW1 6747   2.221   3.243   3.318
 2243SOL    HW2 6748   2.150   3.098   3.339
 2244SOL     OW 6749   3.476   3.154   3.151
 2244SOL    HW1 6750   3.536   3.157   3.231
 2244SOL    HW2 6751   3.401   3.218   3.164
 2245SOL     OW 6752   2.901   2.960   2.558
 2245SOL    HW1 6753   2.831   2.913   2.612
 2245SOL    HW2 6754   2.960   2.892   2.515
 2246SOL     OW 6755   2.876   2.098   2.833
 2246SOL    HW1 6756   2.868   2.062   2.740
 2246SOL    HW2 6757   2.874   2.022   2.898
 2247SOL     OW 6758   2.452   3.349   2.353
 2247SOL    HW1 6759   2.494   3.291   2.283
 2247SOL    HW2 6760   2.408   3.428   2.309
 2248SOL     OW 6761   3.571   2.247   3.243
 2248SOL    HW1 6762   3.644   2.316   3.247
 2248SOL    HW2 6763   3.599   2.172   3.184
 2249SOL     OW 6764   2.117   3.210   2.152
 2249SOL    HW1 6765   2.021   3.211   2.125
 2249SOL    HW2 6766   2.129   3.263   2.236
 2250SOL     OW 6767   1.967   2.875   3.588
 2250SOL    HW1 6768   1.890   2.842   3.642
 2250SOL    HW2 6769   2.052   2.845   3.630
 2251SOL     OW 6770   2.534   2.065   3.351
 2251SOL    HW1 6771   2.624   2.049   3.311
 2251SOL    HW2 6772   2.542   2.070   3.450
 2252SOL     OW 6773   1.937   2.207   1.895
 2252SOL    HW1 6774   1.845   2.179   1.866
 2252SOL    HW2 6775   1.968   2.284   1.839
 2253SOL     OW 6776   3.302   2.718   3.260
 2253SOL    HW1 6777   3.245   2.770   3.197
 2253SOL    HW2 6778   3.398   2.730   3.236
 2254SOL     OW 6779   1.934   2.028   2.180
 2254SOL    HW1 6780   1.917   2.111   2.126
 2254SOL    HW2 6781   2.024   1.991   2.158
 2255SOL     OW 6782   3.045   3.197   1.981
 2255SOL    HW1 6783   2.946   3.186   1.983
 2255SOL    HW2 6784   3.079   3.212   2.074
 2256SOL     OW 6785   2.475   2.704   3.293
 2256SOL    HW1 6786   2.531   2.785   3.276
 2256SOL    HW2 6787   2.534   2.624   3.296
 2257SOL     OW 6788   3.355   3.629   2.821
 2257SOL    HW1 6789   3.388   3.693   2.752
 2257SOL    HW2 6790   3.421   3.623   2.896
 2258SOL     OW 6791   2.578   2.427   3.570
 2258SOL    HW1 6792   2.597   2.492   3.644
 2258SOL    HW2 6793   2.638   2.347   3.579
 2259SOL     OW 6794   3.312   3.082   3.495
 2259SOL    HW1 6795   3.303   3.072   3.594
 2259SOL    HW2 6796   3.408   3.075   3.469
 2260SOL     OW 6797   2.252   3.603   3.422
 2260SOL    HW1 6798   2.161   3.644   3.420
 2260SOL    HW2 6799   2.245   3.509   3.454
 2261SOL     OW 6800   3.536   2.745   3.116
 2261SOL    HW1 6801   3.509   2.656   3.079
 2261SOL    HW2 6802   3.537   2.813   3.043
 2262SOL     OW 6803   3.087   2.187   2.311
 2262SOL    HW1 6804   3.152   2.113   2.300
 2262SOL    HW2 6805   3.107   2.237   2.395
 2263SOL     OW 6806   2.456   2.607   2.514
 2263SOL    HW1 6807   2.506   2.692   2.495
 2263SOL    HW2 6808   2.368   2.609   2.466
 2264SOL     OW 6809   3.639   2.204   3.504
 2264SOL    HW1 6810   3.622   2.235   3.410
 2264SOL    HW2 6811   3.555   2.167   3.542
 2265SOL     OW 6812   3.592   2.796   3.379
 2265SOL    HW1 6813   3.630   2.887   3.394
 2265SOL    HW2 6814   3.584   2.779   3.280
 2266SOL     OW 6815   2.721   3.236   1.878
 2266SOL    HW1 6816   2.675   3.251   1.966
 2266SOL    HW2 6817   2.765   3.321   1.848
 2267SOL     OW 6818   2.523   3.652   2.815
 2267SOL    HW1 6819   2.477   3.740   2.802
 2267SOL    HW2 6820   2.622   3.664   2.808
 2268SOL     OW 6821   2.721   2.818   2.723
 2268SOL    HW1 6822   2.775   2.749   2.771
 2268SOL    HW2 6823   2.689   2.887   2.789
 2269SOL     OW 6824   2.945   2.846   1.949
 2269SOL    HW1 6825   2.922   2.899   1.867
 2269SOL    HW2 6826   3.026   2.790   1.930
 2270SOL     OW 6827   3.723   3.431   2.713
 2270SOL    HW1 6828   3.652   3.419   2.643
 2270SOL    HW2 6829   3.724   3.352   2.773
 2271SOL     OW 6830   2.083   3.176   3.706
 2271SOL    HW1 6831   2.018   3.103   3.685
 2271SOL    HW2 6832   2.087   3.190   3.804
 2272SOL     OW 6833   1.941   3.102   2.515
 2272SOL    HW1 6834   1.940   3.055   2.603
 2272SOL    HW2 6835   2.023   3.074   2.464
 2273SOL     OW 6836   2.534   3.253   3.486
 2273SOL    HW1 6837   2.456   3.203   3.524
 2273SOL    HW2 6838   2.531   3.348   3.517
 2274SOL     OW 6839   3.686   2.054   3.089
 2274SOL    HW1 6840   3.682   1.964   3.133
 2274SOL    HW2 6841   3.689   2.043   2.990
 2275SOL     OW 6842   3.567   3.349   2.966
 2275SOL    HW1 6843   3.474   3.324   2.939
 2275SOL    HW2 6844   3.593   3.299   3.048
 2276SOL     OW 6845   2.179   2.409   3.142
 2276SOL    HW1 6846   2.217   2.350   3.214
 2276SOL    HW2 6847   2.219   2.383   3.054
 2277SOL     OW 6848   2.674   3.448   2.549
 2277SOL    HW1 6849   2.706   3.458   2.455
 2277SOL    HW2 6850   2.595   3.386   2.551
 2278SOL     OW 6851   3.286   2.076   2.974
 2278SOL    HW1 6852   3.338   2.011   3.029
 2278SOL    HW2 6853   3.237   2.139   3.035
 2279SOL     OW 6854   2.863   1.896   3.016
 2279SOL    HW1 6855   2.800   1.824   2.985
 2279SOL    HW2 6856   2.956   1.860   3.016
 2280SOL     OW 6857   2.632   3.192   2.163
 2280SOL    HW1 6858   2.586   3.105   2.180
 2280SOL    HW2 6859   2.723   3.189   2.204
 2281SOL     OW 6860   2.480   3.429   3.146
 2281SOL    HW1 6861   2.475   3.511   3.203
 2281SOL    HW2 6862   2.569   3.426   3.101
 2282SOL     OW 6863   3.214   1.914   2.030
 2282SOL    HW1 6864   3.249   1.873   1.946
 2282SOL    HW2 6865   3.124   1.876   2.050
 2283SOL     OW 6866   3.162   2.315   2.553
 2283SOL    HW1 6867   3.103   2.395   2.557
 2283SOL    HW2 6868   3.177   2.280   2.646
 2284SOL     OW 6869   3.455   2.083   2.744
 2284SOL    HW1 6870   3.371   2.082   2.798
 2284SOL    HW2 6871   3.457   2.166   2.688
 2285SOL     OW 6872   1.901   2.939   2.162
 2285SOL    HW1 6873   2.000   2.928   2.153
 2285SOL    HW2 6874   1.861   2.853   2.194
 2286SOL     OW 6875   2.737   3.508   2.199
 2286SOL    HW1 6876   2.660   3.473   2.145
 2286SOL    HW2 6877   2.705   3.579   2.261
 2287SOL     OW 6878   2.092   2.490   3.837
 2287SOL    HW1 6879   1.999   2.488   3.874
 2287SOL    HW2 6880   2.093   2.451   3.745
 2288SOL     OW 6881   2.087   2.137   4.720
 2288SOL    HW1 6882   2.122   2.120   4.812
 2288SOL    HW2 6883   1.999   2.092   4.708
 2289SOL     OW 6884   1.881   2.230   4.371
 2289SOL    HW1 6885   1.799   2.273   4.410
 2289SOL    HW2 6886   1.853   2.157   4.308
 2290SOL     OW 6887   3.417   3.373   4.427
 2290SOL    HW1 6888   3.360   3.357   4.508
 2290SOL    HW2 6889   3.358   3.383   4.347
 2291SOL     OW 6890   2.997   2.565   4.441
 2291SOL    HW1 6891   3.054   2.643   4.416
 2291SOL    HW2 6892   2.937   2.591   4.517
 2292SOL     OW 6893   3.617   2.469   3.955
 2292SOL    HW1 6894   3.605   2.456   3.856
 2292SOL    HW2 6895   3.587   2.388   4.004
 2293SOL     OW 6896   2.547   2.874   4.389
 2293SOL    HW1 6897   2.616   2.858   4.459
 2293SOL    HW2 6898   2.474   2.931   4.427
 2294SOL     OW 6899   3.465   2.309   4.461
 2294SOL    HW1 6900   3.391   2.355   4.411
 2294SOL    HW2 6901   3.516   2.377   4.514
 2295SOL     OW 6902   2.093   3.575   4.207
 2295SOL    HW1 6903   2.127   3.652   4.261
 2295SOL    HW2 6904   2.137   3.575   4.117
 2296SOL     OW 6905   2.092   3.296   4.262
 2296SOL    HW1 6906   2.066   3.392   4.262
 2296SOL    HW2 6907   2.021   3.242   4.307
 2297SOL     OW 6908   2.102   2.953   4.610
 2297SOL    HW1 6909   2.116   2.869   4.662
 2297SOL    HW2 6910   2.047   3.017   4.665
 2298SOL     OW 6911   2.468   2.826   3.847
 2298SOL    HW1 6912   2.475   2.910   3.793
 2298SOL    HW2 6913   2.514   2.839   3.935
 2299SOL     OW 6914   1.984   2.505   4.287
 2299SOL    HW1 6915   1.939   2.417   4.304
 2299SOL    HW2 6916   1.983   2.559   4.371
 2300SOL     OW 6917   3.704   3.629   4.083
 2300SOL    HW1 6918   3.758   3.600   4.163
 2300SOL    HW2 6919   3.734   3.719   4.054
 2301SOL     OW 6920   1.889   3.458   3.841
 2301SOL    HW1 6921   1.870   3.362   3.862
 2301SOL    HW2 6922   1.856   3.516   3.916
 2302SOL     OW 6923   3.551   2.784   4.336
 2302SOL    HW1 6924   3.646   2.755   4.344
 2302SOL    HW2 6925   3.543   2.849   4.261
 2303SOL     OW 6926   3.503   2.970   4.156
 2303SOL    HW1 6927   3.589   2.972   4.104
 2303SOL    HW2 6928   3.517   3.017   4.244
 2304SOL     OW 6929   2.475   3.227   4.450
 2304SOL    HW1 6930   2.426   3.140   4.459
 2304SOL    HW2 6931   2.452   3.270   4.363
 2305SOL     OW 6932   2.671   1.866   4.226
 2305SOL    HW1 6933   2.711   1.957   4.217
 2305SOL    HW2 6934   2.571   1.874   4.232
 2306SOL     OW 6935   3.387   2.861   3.914
 2306SOL    HW1 6936   3.324   2.785   3.927
 2306SOL    HW2 6937   3.435   2.879   4.000
 2307SOL     OW 6938   3.328   3.279   4.677
 2307SOL    HW1 6939   3.269   3.285   4.757
 2307SOL    HW2 6940   3.313   3.191   4.631
 2308SOL     OW 6941   3.529   3.576   4.296
 2308SOL    HW1 6942   3.488   3.553   4.208
 2308SOL    HW2 6943   3.511   3.502   4.361
 2309SOL     OW 6944   2.460   2.591   3.994
 2309SOL    HW1 6945   2.484   2.660   3.926
 2309SOL    HW2 6946   2.382   2.624   4.048
 2310SOL     OW 6947   3.143   2.207   4.668
 2310SOL    HW1 6948   3.057   2.157   4.655
 2310SOL    HW2 6949   3.205   2.153   4.724
 2311SOL     OW 6950   3.438   3.524   4.031
 2311SOL    HW1 6951   3.527   3.570   4.034
 2311SOL    HW2 6952   3.417   3.500   3.936
 2312SOL     OW 6953   2.903   2.563   4.153
 2312SOL    HW1 6954   2.929   2.559   4.249
 2312SOL    HW2 6955   2.818   2.512   4.139
 2313SOL     OW 6956   1.938   2.673   4.513
 2313SOL    HW1 6957   2.037   2.661   4.522
 2313SOL    HW2 6958   1.914   2.768   4.534
 2314SOL     OW 6959   2.727   2.210   3.919
 2314SOL    HW1 6960   2.786   2.273   3.870
 2314SOL    HW2 6961   2.746   2.116   3.890
 2315SOL     OW 6962   3.224   3.006   4.269
 2315SOL    HW1 6963   3.307   2.977   4.221
 2315SOL    HW2 6964   3.175   3.073   4.213
 2316SOL     OW 6965   2.412   2.058   4.609
 2316SOL    HW1 6966   2.407   2.053   4.709
 2316SOL    HW2 6967   2.414   2.154   4.580
 2317SOL     OW 6968   2.870   3.318   4.201
 2317SOL    HW1 6969   2.824   3.390   4.149
 2317SOL    HW2 6970   2.866   3.338   4.299
 2318SOL     OW 6971   2.213   3.663   4.577
 2318SOL    HW1 6972   2.263   3.577   4.583
 2318SOL    HW2 6973   2.278   3.740   4.574
 2319SOL     OW 6974   3.657   2.928   4.597
 2319SOL    HW1 6975   3.595   2.913   4.521
 2319SOL    HW2 6976   3.605   2.939   4.682
 2320SOL     OW 6977   2.183   2.805   3.966
 2320SOL    HW1 6978   2.265   2.844   3.924
 2320SOL    HW2 6979   2.156   2.723   3.917
 2321SOL     OW 6980   3.320   2.597   4.452
 2321SOL    HW1 6981   3.315   2.532   4.527
 2321SOL    HW2 6982   3.400   2.656   4.465
 2322SOL     OW 6983   2.973   3.638   3.961
 2322SOL    HW1 6984   2.913   3.576   4.011
 2322SOL    HW2 6985   3.004   3.594   3.876
 2323SOL     OW 6986   3.494   3.239   3.805
 2323SOL    HW1 6987   3.462   3.333   3.795
 2323SOL    HW2 6988   3.418   3.176   3.793
 2324SOL     OW 6989   2.326   3.605   4.047
 2324SOL    HW1 6990   2.359   3.644   4.133
 2324SOL    HW2 6991   2.402   3.598   3.982
 2325SOL     OW 6992   3.262   1.969   4.150
 2325SOL    HW1 6993   3.238   1.932   4.060
 2325SOL    HW2 6994   3.361   1.985   4.154
 2326SOL     OW 6995   2.244   2.562   4.204
 2326SOL    HW1 6996   2.289   2.472   4.201
 2326SOL    HW2 6997   2.150   2.551   4.237
 2327SOL     OW 6998   2.476   1.984   3.841
 2327SOL    HW1 6999   2.574   1.962   3.848
 2327SOL    HW2 7000   2.445   1.967   3.748
 2328SOL     OW 7001   2.401   1.926   4.236
 2328SOL    HW1 7002   2.320   1.927   4.294
 2328SOL    HW2 7003   2.404   2.009   4.181
 2329SOL     OW 7004   3.296   3.050   3.765
 2329SOL    HW1 7005   3.328   2.974   3.822
 2329SOL    HW2 7006   3.204   3.077   3.795
 2330SOL     OW 7007   2.159   1.897   3.895
 2330SOL    HW1 7008   2.208   1.981   3.874
 2330SOL    HW2 7009   2.221   1.832   3.940
 2331SOL     OW 7010   2.797   2.098   4.204
 2331SOL    HW1 7011   2.749   2.139   4.126
 2331SOL    HW2 7012   2.896   2.096   4.185
 2332SOL     OW 7013   3.089   3.432   4.517
 2332SOL    HW1 7014   3.110   3.506   4.452
 2332SOL    HW2 7015   3.157   3.432   4.590
 2333SOL     OW 7016   2.321   3.014   4.465
 2333SOL    HW1 7017   2.250   2.987   4.530
 2333SOL    HW2 7018   2.295   2.986   4.372
 2334SOL     OW 7019   3.133   3.659   4.315
 2334SOL    HW1 7020   3.177   3.723   4.251
 2334SOL    HW2 7021   3.083   3.711   4.385
 2335SOL     OW 7022   2.894   2.411   3.740
 2335SOL    HW1 7023   2.853   2.493   3.701
 2335SOL    HW2 7024   2.958   2.437   3.813
 2336SOL     OW 7025   2.728   2.316   4.366
 2336SOL    HW1 7026   2.696   2.388   4.304
 2336SOL    HW2 7027   2.752   2.235   4.313
 2337SOL     OW 7028   2.879   1.901   4.477
 2337SOL    HW1 7029   2.807   1.906   4.408
 2337SOL    HW2 7030   2.855   1.832   4.546
 2338SOL     OW 7031   3.719   2.695   4.101
 2338SOL    HW1 7032   3.761   2.631   4.165
 2338SOL    HW2 7033   3.681   2.644   4.023
 2339SOL     OW 7034   2.350   3.247   3.898
 2339SOL    HW1 7035   2.263   3.232   3.945
 2339SOL    HW2 7036   2.333   3.273   3.803
 2340SOL     OW 7037   3.526   3.142   4.381
 2340SOL    HW1 7038   3.625   3.150   4.395
 2340SOL    HW2 7039   3.481   3.226   4.412
 2341SOL     OW 7040   3.252   2.437   3.802
 2341SOL    HW1 7041   3.198   2.416   3.883
 2341SOL    HW2 7042   3.343   2.396   3.811
 2342SOL     OW 7043   2.389   2.118   4.052
 2342SOL    HW1 7044   2.416   2.059   3.977
 2342SOL    HW2 7045   2.389   2.213   4.021
 2343SOL     OW 7046   2.567   2.912   4.092
 2343SOL    HW1 7047   2.553   2.919   4.191
 2343SOL    HW2 7048   2.651   2.861   4.074
 2344SOL     OW 7049   2.229   2.962   4.225
 2344SOL    HW1 7050   2.222   3.045   4.169
 2344SOL    HW2 7051   2.233   2.882   4.165
 2345SOL     OW 7052   2.428   2.399   4.589
 2345SOL    HW1 7053   2.440   2.465   4.515
 2345SOL    HW2 7054   2.474   2.433   4.672
 2346SOL     OW 7055   3.114   3.210   4.112
 2346SOL    HW1 7056   3.164   3.287   4.152
 2346SOL    HW2 7057   3.019   3.212   4.144
 2347SOL     OW 7058   3.444   2.501   4.196
 2347SOL    HW1 7059   3.413   2.562   4.269
 2347SOL    HW2 7060   3.494   2.553   4.127
 2348SOL     OW 7061   3.071   2.387   3.999
 2348SOL    HW1 7062   3.084   2.303   4.053
 2348SOL    HW2 7063   3.042   2.461   4.059
 2349SOL     OW 7064   2.594   2.496   4.788
 2349SOL    HW1 7065   2.653   2.470   4.712
 2349SOL    HW2 7066   2.566   2.592   4.777
 2350SOL     OW 7067   2.169   1.925   4.342
 2350SOL    HW1 7068   2.158   2.019   4.375
 2350SOL    HW2 7069   2.164   1.862   4.419
 2351SOL     OW 7070   3.484   2.229   4.098
 2351SOL    HW1 7071   3.486   2.153   4.162
 2351SOL    HW2 7072   3.436   2.306   4.138
 2352SOL     OW 7073   3.402   2.136   3.849
 2352SOL    HW1 7074   3.341   2.061   3.872
 2352SOL    HW2 7075   3.424   2.188   3.932
 2353SOL     OW 7076   3.165   2.700   3.766
 2353SOL    HW1 7077   3.199   2.607   3.781
 2353SOL    HW2 7078   3.183   2.727   3.671
 2354SOL     OW 7079   2.930   3.195   4.573
 2354SOL    HW1 7080   2.937   3.111   4.518
 2354SOL    HW2 7081   2.992   3.264   4.537
 2355SOL     OW 7082   2.181   2.672   4.673
 2355SOL    HW1 7083   2.274   2.708   4.678
 2355SOL    HW2 7084   2.175   2.587   4.725
 2356SOL     OW 7085   1.870   3.188   3.924
 2356SOL    HW1 7086   1.777   3.209   3.893
 2356SOL    HW2 7087   1.880   3.089   3.937
 2357SOL     OW 7088   1.950   3.663   4.651
 2357SOL    HW1 7089   1.908   3.577   4.624
 2357SOL    HW2 7090   2.044   3.666   4.617
 2358SOL     OW 7091   2.366   3.430   4.634
 2358SOL    HW1 7092   2.432   3.504   4.643
 2358SOL    HW2 7093   2.410   3.351   4.592
 2359SOL     OW 7094   2.677   2.434   4.049
 2359SOL    HW1 7095   2.684   2.345   4.003
 2359SOL    HW2 7096   2.583   2.468   4.041
 2360SOL     OW 7097   2.335   2.362   3.915
 2360SOL    HW1 7098   2.396   2.442   3.919
 2360SOL    HW2 7099   2.240   2.393   3.922
 2361SOL     OW 7100   3.164   2.717   4.033
 2361SOL    HW1 7101   3.078   2.686   4.075
 2361SOL    HW2 7102   3.160   2.703   3.934
 2362SOL     OW 7103   3.621   3.609   4.878
 2362SOL    HW1 7104   3.682   3.639   4.805
 2362SOL    HW2 7105   3.583   3.520   4.856
 2363SOL     OW 7106   3.588   1.997   4.247
 2363SOL    HW1 7107   3.661   1.980   4.180
 2363SOL    HW2 7108   3.557   1.910   4.285
 2364SOL     OW 7109   3.250   3.435   4.201
 2364SOL    HW1 7110   3.317   3.447   4.127
 2364SOL    HW2 7111   3.210   3.524   4.224
 2365SOL     OW 7112   3.142   2.789   4.396
 2365SOL    HW1 7113   3.202   2.708   4.398
 2365SOL    HW2 7114   3.182   2.858   4.336
 2366SOL     OW 7115   2.534   3.478   3.878
 2366SOL    HW1 7116   2.543   3.488   3.779
 2366SOL    HW2 7117   2.494   3.389   3.899
 2367SOL     OW 7118   3.703   2.037   4.687
 2367SOL    HW1 7119   3.742   1.952   4.651
 2367SOL    HW2 7120   3.605   2.039   4.668
 2368SOL     OW 7121   2.125   2.188   4.444
 2368SOL    HW1 7122   2.046   2.239   4.410
 2368SOL    HW2 7123   2.116   2.173   4.542
 2369SOL     OW 7124   3.056   3.474   3.755
 2369SOL    HW1 7125   3.062   3.381   3.792
 2369SOL    HW2 7126   2.997   3.474   3.675
 2370SOL     OW 7127   2.778   2.772   4.015
 2370SOL    HW1 7128   2.841   2.810   3.947
 2370SOL    HW2 7129   2.818   2.689   4.054
 2371SOL     OW 7130   3.366   3.469   3.768
 2371SOL    HW1 7131   3.274   3.506   3.775
 2371SOL    HW2 7132   3.404   3.489   3.678
 2372SOL     OW 7133   2.901   2.960   4.420
 2372SOL    HW1 7134   2.831   2.913   4.474
 2372SOL    HW2 7135   2.960   2.892   4.377
 2373SOL     OW 7136   2.452   3.349   4.215
 2373SOL    HW1 7137   2.494   3.291   4.145
 2373SOL    HW2 7138   2.408   3.428   4.171
 2374SOL     OW 7139   2.117   3.210   4.014
 2374SOL    HW1 7140   2.021   3.211   3.987
 2374SOL    HW2 7141   2.129   3.263   4.098
 2375SOL     OW 7142   1.937   2.207   3.757
 2375SOL    HW1 7143   1.845   2.179   3.728
 2375SOL    HW2 7144   1.968   2.284   3.701
 2376SOL     OW 7145   1.934   2.028   4.042
 2376SOL    HW1 7146   1.917   2.111   3.988
 2376SOL    HW2 7147   2.024   1.991   4.020
 2377SOL     OW 7148   3.045   3.197   3.843
 2377SOL    HW1 7149   2.946   3.186   3.845
 2377SOL    HW2 7150   3.079   3.212   3.936
 2378SOL     OW 7151   3.536   2.745   4.978
 2378SOL    HW1 7152   3.509   2.656   4.941
 2378SOL    HW2 7153   3.537   2.813   4.905
 2379SOL     OW 7154   3.087   2.187   4.173
 2379SOL    HW1 7155   3.152   2.113   4.162
 2379SOL    HW2 7156   3.107   2.237   4.257
 2380SOL     OW 7157   2.456   2.607   4.376
 2380SOL    HW1 7158   2.506   2.692   4.357
 2380SOL    HW2 7159   2.368   2.609   4.328
 2381SOL     OW 7160   2.721   3.236   3.740
 2381SOL    HW1 7161   2.675   3.251   3.828
 2381SOL    HW2 7162   2.765   3.321   3.710
 2382SOL     OW 7163   2.523   3.652   4.677
 2382SOL    HW1 7164   2.477   3.740   4.664
 2382SOL    HW2 7165   2.622   3.664   4.670
 2383SOL     OW 7166   2.721   2.818   4.585
 2383SOL    HW1 7167   2.775   2.749   4.633
 2383SOL    HW2 7168   2.689   2.887   4.651
 2384SOL     OW 7169   2.945   2.846   3.811
 2384SOL    HW1 7170   2.922   2.899   3.729
 2384SOL    HW2 7171   3.026   2.790   3.792
 2385SOL     OW 7172   3.723   3.431   4.575
 2385SOL    HW1 7173   3.652   3.419   4.505
 2385SOL    HW2 7174   3.724   3.352   4.635
 2386SOL     OW 7175   1.941   3.102   4.377
 2386SOL    HW1 7176   1.940   3.055   4.465
 2386SOL    HW2 7177   2.023   3.074   4.326
 2387SOL     OW 7178   2.290   2.286   4.244
 2387SOL    HW1 7179   2.320   2.214   4.182
 2387SOL    HW2 7180   2.251   2.246   4.327
 2388SOL     OW 7181   2.674   3.448   4.411
 2388SOL    HW1 7182   2.706   3.458   4.317
 2388SOL    HW2 7183   2.595   3.386   4.413
 2389SOL     OW 7184   2.632   3.192   4.025
 2389SOL    HW1 7185   2.586   3.105   4.042
 2389SOL    HW2 7186   2.723   3.189   4.066
 2390SOL     OW 7187   3.214   1.914   3.892
 2390SOL    HW1 7188   3.249   1.873   3.808
 2390SOL    HW2 7189   3.124   1.876   3.912
 2391SOL     OW 7190   3.162   2.315   4.415
 2391SOL    HW1 7191   3.103   2.395   4.419
 2391SOL    HW2 7192   3.177   2.280   4.508
 2392SOL     OW 7193   3.455   2.083   4.606
 2392SOL    HW1 7194   3.371   2.082   4.660
 2392SOL    HW2 7195   3.457   2.166   4.550
 2393SOL     OW 7196   1.901   2.939   4.024
 2393SOL    HW1 7197   2.000   2.928   4.015
 2393SOL    HW2 7198   1.861   2.853   4.056
 2394SOL     OW 7199   2.737   3.508   4.061
 2394SOL    HW1 7200   2.660   3.473   4.007
 2394SOL    HW2 7201   2.705   3.579   4.123
 2395SOL     OW 7202   2.092   4.352   0.113
 2395SOL    HW1 7203   1.999   4.350   0.150
 2395SOL    HW2 7204   2.093   4.313   0.021
 2396SOL     OW 7205   2.087   3.999   0.996
 2396SOL    HW1 7206   2.122   3.982   1.088
 2396SOL    HW2 7207   1.999   3.954   0.984
 2397SOL     OW 7208   1.881   4.092   0.647
 2397SOL    HW1 7209   1.799   4.135   0.686
 2397SOL    HW2 7210   1.853   4.019   0.584
 2398SOL     OW 7211   2.997   4.427   0.717
 2398SOL    HW1 7212   3.054   4.505   0.692
 2398SOL    HW2 7213   2.937   4.453   0.793
 2399SOL     OW 7214   3.617   4.331   0.231
 2399SOL    HW1 7215   3.605   4.318   0.132
 2399SOL    HW2 7216   3.587   4.250   0.280
 2400SOL     OW 7217   2.712   4.522   1.823
 2400SOL    HW1 7218   2.708   4.598   1.888
 2400SOL    HW2 7219   2.734   4.558   1.732
 2401SOL     OW 7220   2.547   4.736   0.665
 2401SOL    HW1 7221   2.616   4.720   0.735
 2401SOL    HW2 7222   2.474   4.793   0.703
 2402SOL     OW 7223   2.300   4.116   1.499
 2402SOL    HW1 7224   2.382   4.060   1.508
 2402SOL    HW2 7225   2.219   4.058   1.503
 2403SOL     OW 7226   3.465   4.171   0.737
 2403SOL    HW1 7227   3.391   4.217   0.687
 2403SOL    HW2 7228   3.516   4.239   0.790
 2404SOL     OW 7229   3.456   3.838   1.480
 2404SOL    HW1 7230   3.438   3.905   1.408
 2404SOL    HW2 7231   3.453   3.884   1.569
 2405SOL     OW 7232   1.984   4.367   0.563
 2405SOL    HW1 7233   1.939   4.279   0.580
 2405SOL    HW2 7234   1.983   4.421   0.647
 2406SOL     OW 7235   1.975   4.461   1.597
 2406SOL    HW1 7236   2.063   4.448   1.642
 2406SOL    HW2 7237   1.962   4.558   1.575
 2407SOL     OW 7238   2.671   3.728   0.502
 2407SOL    HW1 7239   2.711   3.819   0.493
 2407SOL    HW2 7240   2.571   3.736   0.508
 2408SOL     OW 7241   2.059   4.700   1.264
 2408SOL    HW1 7242   2.148   4.655   1.250
 2408SOL    HW2 7243   1.986   4.635   1.245
 2409SOL     OW 7244   3.387   4.723   0.190
 2409SOL    HW1 7245   3.324   4.647   0.203
 2409SOL    HW2 7246   3.435   4.741   0.276
 2410SOL     OW 7247   2.179   3.975   1.801
 2410SOL    HW1 7248   2.250   4.046   1.807
 2410SOL    HW2 7249   2.091   4.014   1.829
 2411SOL     OW 7250   2.460   4.453   0.270
 2411SOL    HW1 7251   2.484   4.522   0.202
 2411SOL    HW2 7252   2.382   4.486   0.324
 2412SOL     OW 7253   3.143   4.069   0.944
 2412SOL    HW1 7254   3.057   4.019   0.931
 2412SOL    HW2 7255   3.205   4.015   1.000
 2413SOL     OW 7256   2.669   4.329   1.465
 2413SOL    HW1 7257   2.622   4.326   1.554
 2413SOL    HW2 7258   2.618   4.274   1.399
 2414SOL     OW 7259   3.256   4.193   1.674
 2414SOL    HW1 7260   3.236   4.236   1.762
 2414SOL    HW2 7261   3.334   4.131   1.683
 2415SOL     OW 7262   2.835   4.614   1.572
 2415SOL    HW1 7263   2.881   4.530   1.543
 2415SOL    HW2 7264   2.779   4.648   1.497
 2416SOL     OW 7265   2.853   4.134   1.242
 2416SOL    HW1 7266   2.776   4.168   1.296
 2416SOL    HW2 7267   2.819   4.083   1.163
 2417SOL     OW 7268   2.903   4.425   0.429
 2417SOL    HW1 7269   2.929   4.421   0.525
 2417SOL    HW2 7270   2.818   4.374   0.415
 2418SOL     OW 7271   1.938   4.535   0.789
 2418SOL    HW1 7272   2.037   4.523   0.798
 2418SOL    HW2 7273   1.914   4.630   0.810
 2419SOL     OW 7274   2.727   4.072   0.195
 2419SOL    HW1 7275   2.786   4.135   0.146
 2419SOL    HW2 7276   2.746   3.978   0.166
 2420SOL     OW 7277   3.581   4.309   1.831
 2420SOL    HW1 7278   3.555   4.398   1.795
 2420SOL    HW2 7279   3.579   4.241   1.758
 2421SOL     OW 7280   2.412   3.920   0.885
 2421SOL    HW1 7281   2.407   3.915   0.985
 2421SOL    HW2 7282   2.414   4.016   0.856
 2422SOL     OW 7283   3.320   4.459   0.728
 2422SOL    HW1 7284   3.315   4.394   0.803
 2422SOL    HW2 7285   3.400   4.518   0.741
 2423SOL     OW 7286   2.064   4.009   1.498
 2423SOL    HW1 7287   1.984   4.069   1.485
 2423SOL    HW2 7288   2.054   3.960   1.584
 2424SOL     OW 7289   3.262   3.831   0.426
 2424SOL    HW1 7290   3.238   3.794   0.336
 2424SOL    HW2 7291   3.361   3.847   0.430
 2425SOL     OW 7292   2.244   4.424   0.480
 2425SOL    HW1 7293   2.289   4.334   0.477
 2425SOL    HW2 7294   2.150   4.413   0.513
 2426SOL     OW 7295   3.409   3.946   1.729
 2426SOL    HW1 7296   3.404   3.983   1.821
 2426SOL    HW2 7297   3.337   3.877   1.717
 2427SOL     OW 7298   2.643   3.988   1.749
 2427SOL    HW1 7299   2.710   3.927   1.792
 2427SOL    HW2 7300   2.570   4.007   1.814
 2428SOL     OW 7301   3.213   4.314   1.433
 2428SOL    HW1 7302   3.241   4.271   1.518
 2428SOL    HW2 7303   3.238   4.410   1.434
 2429SOL     OW 7304   2.784   4.227   0.899
 2429SOL    HW1 7305   2.759   4.218   0.803
 2429SOL    HW2 7306   2.832   4.145   0.930
 2430SOL     OW 7307   2.401   3.788   0.512
 2430SOL    HW1 7308   2.320   3.789   0.570
 2430SOL    HW2 7309   2.404   3.871   0.457
 2431SOL     OW 7310   2.159   3.759   0.171
 2431SOL    HW1 7311   2.208   3.843   0.150
 2431SOL    HW2 7312   2.221   3.694   0.216
 2432SOL     OW 7313   2.797   3.960   0.480
 2432SOL    HW1 7314   2.749   4.001   0.402
 2432SOL    HW2 7315   2.896   3.958   0.461
 2433SOL     OW 7316   2.938   4.407   1.464
 2433SOL    HW1 7317   2.858   4.346   1.467
 2433SOL    HW2 7318   3.019   4.354   1.440
 2434SOL     OW 7319   2.894   4.273   0.016
 2434SOL    HW1 7320   2.853   4.355  -0.023
 2434SOL    HW2 7321   2.958   4.299   0.089
 2435SOL     OW 7322   1.940   4.280   1.386
 2435SOL    HW1 7323   2.032   4.279   1.345
 2435SOL    HW2 7324   1.934   4.354   1.453
 2436SOL     OW 7325   2.423   3.946   1.147
 2436SOL    HW1 7326   2.461   3.862   1.184
 2436SOL    HW2 7327   2.335   3.965   1.191
 2437SOL     OW 7328   2.728   4.178   0.642
 2437SOL    HW1 7329   2.696   4.250   0.580
 2437SOL    HW2 7330   2.752   4.097   0.589
 2438SOL     OW 7331   2.879   3.763   0.753
 2438SOL    HW1 7332   2.807   3.768   0.684
 2438SOL    HW2 7333   2.855   3.694   0.822
 2439SOL     OW 7334   3.328   4.314   0.992
 2439SOL    HW1 7335   3.298   4.219   0.999
 2439SOL    HW2 7336   3.401   4.330   1.058
 2440SOL     OW 7337   3.719   4.557   0.377
 2440SOL    HW1 7338   3.761   4.493   0.441
 2440SOL    HW2 7339   3.681   4.506   0.299
 2441SOL     OW 7340   3.252   4.299   0.078
 2441SOL    HW1 7341   3.198   4.278   0.159
 2441SOL    HW2 7342   3.343   4.258   0.087
 2442SOL     OW 7343   2.389   3.980   0.328
 2442SOL    HW1 7344   2.416   3.921   0.253
 2442SOL    HW2 7345   2.389   4.075   0.297
 2443SOL     OW 7346   3.500   4.823   1.079
 2443SOL    HW1 7347   3.505   4.904   1.138
 2443SOL    HW2 7348   3.414   4.825   1.028
 2444SOL     OW 7349   2.777   3.813   1.402
 2444SOL    HW1 7350   2.802   3.793   1.307
 2444SOL    HW2 7351   2.849   3.869   1.444
 2445SOL     OW 7352   2.272   4.537   1.251
 2445SOL    HW1 7353   2.358   4.549   1.301
 2445SOL    HW2 7354   2.230   4.450   1.278
 2446SOL     OW 7355   3.136   4.110   1.262
 2446SOL    HW1 7356   3.157   4.184   1.326
 2446SOL    HW2 7357   3.047   4.127   1.219
 2447SOL     OW 7358   2.428   4.261   0.865
 2447SOL    HW1 7359   2.440   4.327   0.791
 2447SOL    HW2 7360   2.474   4.295   0.948
 2448SOL     OW 7361   3.444   4.363   0.472
 2448SOL    HW1 7362   3.413   4.424   0.545
 2448SOL    HW2 7363   3.494   4.415   0.403
 2449SOL     OW 7364   2.264   4.475   1.598
 2449SOL    HW1 7365   2.332   4.530   1.551
 2449SOL    HW2 7366   2.304   4.387   1.625
 2450SOL     OW 7367   3.449   4.503   1.670
 2450SOL    HW1 7368   3.357   4.541   1.665
 2450SOL    HW2 7369   3.509   4.550   1.605
 2451SOL     OW 7370   2.875   3.829   1.770
 2451SOL    HW1 7371   2.881   3.914   1.718
 2451SOL    HW2 7372   2.907   3.753   1.713
 2452SOL     OW 7373   2.366   3.774   1.740
 2452SOL    HW1 7374   2.324   3.717   1.670
 2452SOL    HW2 7375   2.300   3.843   1.772
 2453SOL     OW 7376   2.435   4.594   1.029
 2453SOL    HW1 7377   2.479   4.683   1.020
 2453SOL    HW2 7378   2.372   4.594   1.106
 2454SOL     OW 7379   3.222   4.586   1.045
 2454SOL    HW1 7380   3.147   4.586   0.979
 2454SOL    HW2 7381   3.259   4.494   1.054
 2455SOL     OW 7382   3.071   4.249   0.275
 2455SOL    HW1 7383   3.084   4.165   0.329
 2455SOL    HW2 7384   3.042   4.323   0.335
 2456SOL     OW 7385   2.169   3.937   1.231
 2456SOL    HW1 7386   2.146   3.974   1.321
 2456SOL    HW2 7387   2.139   3.842   1.225
 2457SOL     OW 7388   2.594   4.358   1.064
 2457SOL    HW1 7389   2.653   4.332   0.988
 2457SOL    HW2 7390   2.566   4.454   1.053
 2458SOL     OW 7391   3.590   4.659   1.854
 2458SOL    HW1 7392   3.544   4.652   1.765
 2458SOL    HW2 7393   3.528   4.703   1.920
 2459SOL     OW 7394   2.169   3.787   0.618
 2459SOL    HW1 7395   2.158   3.881   0.651
 2459SOL    HW2 7396   2.164   3.724   0.695
 2460SOL     OW 7397   3.484   4.091   0.374
 2460SOL    HW1 7398   3.486   4.015   0.438
 2460SOL    HW2 7399   3.436   4.168   0.414
 2461SOL     OW 7400   2.885   4.490   0.966
 2461SOL    HW1 7401   2.900   4.511   1.062
 2461SOL    HW2 7402   2.855   4.395   0.957
 2462SOL     OW 7403   2.212   4.622   1.804
 2462SOL    HW1 7404   2.288   4.666   1.852
 2462SOL    HW2 7405   2.247   4.575   1.722
 2463SOL     OW 7406   3.402   3.998   0.125
 2463SOL    HW1 7407   3.341   3.923   0.148
 2463SOL    HW2 7408   3.424   4.050   0.208
 2464SOL     OW 7409   3.165   4.562   0.042
 2464SOL    HW1 7410   3.199   4.469   0.057
 2464SOL    HW2 7411   3.183   4.589  -0.053
 2465SOL     OW 7412   2.181   4.534   0.949
 2465SOL    HW1 7413   2.274   4.570   0.954
 2465SOL    HW2 7414   2.175   4.449   1.001
 2466SOL     OW 7415   2.201   4.233   1.006
 2466SOL    HW1 7416   2.149   4.150   0.989
 2466SOL    HW2 7417   2.278   4.238   0.942
 2467SOL     OW 7418   3.000   4.104   1.678
 2467SOL    HW1 7419   2.955   4.167   1.742
 2467SOL    HW2 7420   3.093   4.135   1.661
 2468SOL     OW 7421   3.022   3.931   1.477
 2468SOL    HW1 7422   3.022   3.995   1.554
 2468SOL    HW2 7423   3.050   3.979   1.394
 2469SOL     OW 7424   2.864   4.520   1.238
 2469SOL    HW1 7425   2.905   4.488   1.324
 2469SOL    HW2 7426   2.768   4.493   1.235
 2470SOL     OW 7427   1.902   4.268   1.114
 2470SOL    HW1 7428   1.987   4.235   1.073
 2470SOL    HW2 7429   1.915   4.283   1.212
 2471SOL     OW 7430   2.051   4.244   1.722
 2471SOL    HW1 7431   2.110   4.204   1.652
 2471SOL    HW2 7432   1.993   4.315   1.681
 2472SOL     OW 7433   2.677   4.296   0.325
 2472SOL    HW1 7434   2.684   4.207   0.279
 2472SOL    HW2 7435   2.583   4.330   0.317
 2473SOL     OW 7436   3.519   4.328   1.206
 2473SOL    HW1 7437   3.481   4.259   1.268
 2473SOL    HW2 7438   3.601   4.292   1.162
 2474SOL     OW 7439   2.533   4.188   1.269
 2474SOL    HW1 7440   2.499   4.099   1.239
 2474SOL    HW2 7441   2.559   4.242   1.189
 2475SOL     OW 7442   2.335   4.224   0.191
 2475SOL    HW1 7443   2.396   4.304   0.195
 2475SOL    HW2 7444   2.240   4.255   0.198
 2476SOL     OW 7445   3.209   4.783   1.234
 2476SOL    HW1 7446   3.233   4.720   1.160
 2476SOL    HW2 7447   3.119   4.823   1.216
 2477SOL     OW 7448   3.164   4.579   0.309
 2477SOL    HW1 7449   3.078   4.548   0.351
 2477SOL    HW2 7450   3.160   4.565   0.210
 2478SOL     OW 7451   2.765   3.810   0.133
 2478SOL    HW1 7452   2.816   3.811   0.047
 2478SOL    HW2 7453   2.821   3.768   0.204
 2479SOL     OW 7454   3.588   3.859   0.523
 2479SOL    HW1 7455   3.661   3.842   0.456
 2479SOL    HW2 7456   3.557   3.772   0.561
 2480SOL     OW 7457   3.142   4.651   0.672
 2480SOL    HW1 7458   3.202   4.570   0.674
 2480SOL    HW2 7459   3.182   4.720   0.612
 2481SOL     OW 7460   3.703   3.899   0.963
 2481SOL    HW1 7461   3.742   3.814   0.927
 2481SOL    HW2 7462   3.605   3.901   0.944
 2482SOL     OW 7463   2.125   4.050   0.720
 2482SOL    HW1 7464   2.046   4.101   0.686
 2482SOL    HW2 7465   2.116   4.035   0.818
 2483SOL     OW 7466   2.876   3.960   0.971
 2483SOL    HW1 7467   2.868   3.924   0.878
 2483SOL    HW2 7468   2.874   3.884   1.036
 2484SOL     OW 7469   3.571   4.109   1.381
 2484SOL    HW1 7470   3.644   4.178   1.385
 2484SOL    HW2 7471   3.599   4.034   1.322
 2485SOL     OW 7472   1.967   4.737   1.726
 2485SOL    HW1 7473   1.890   4.704   1.780
 2485SOL    HW2 7474   2.052   4.707   1.768
 2486SOL     OW 7475   2.534   3.927   1.489
 2486SOL    HW1 7476   2.624   3.911   1.449
 2486SOL    HW2 7477   2.542   3.932   1.588
 2487SOL     OW 7478   3.302   4.580   1.398
 2487SOL    HW1 7479   3.245   4.632   1.335
 2487SOL    HW2 7480   3.398   4.592   1.374
 2488SOL     OW 7481   1.934   3.890   0.318
 2488SOL    HW1 7482   1.917   3.973   0.264
 2488SOL    HW2 7483   2.024   3.853   0.296
 2489SOL     OW 7484   2.475   4.566   1.431
 2489SOL    HW1 7485   2.531   4.647   1.414
 2489SOL    HW2 7486   2.534   4.486   1.434
 2490SOL     OW 7487   2.578   4.289   1.708
 2490SOL    HW1 7488   2.597   4.354   1.782
 2490SOL    HW2 7489   2.638   4.209   1.717
 2491SOL     OW 7490   3.536   4.607   1.254
 2491SOL    HW1 7491   3.509   4.518   1.217
 2491SOL    HW2 7492   3.537   4.675   1.181
 2492SOL     OW 7493   3.087   4.049   0.449
 2492SOL    HW1 7494   3.152   3.975   0.438
 2492SOL    HW2 7495   3.107   4.099   0.533
 2493SOL     OW 7496   2.456   4.469   0.652
 2493SOL    HW1 7497   2.506   4.554   0.633
 2493SOL    HW2 7498   2.368   4.471   0.604
 2494SOL     OW 7499   3.639   4.066   1.642
 2494SOL    HW1 7500   3.622   4.097   1.548
 2494SOL    HW2 7501   3.555   4.029   1.680
 2495SOL     OW 7502   3.592   4.658   1.517
 2495SOL    HW1 7503   3.630   4.749   1.532
 2495SOL    HW2 7504   3.584   4.641   1.418
 2496SOL     OW 7505   3.686   3.916   1.227
 2496SOL    HW1 7506   3.682   3.826   1.271
 2496SOL    HW2 7507   3.689   3.905   1.128
 2497SOL     OW 7508   2.290   4.148   0.520
 2497SOL    HW1 7509   2.320   4.076   0.458
 2497SOL    HW2 7510   2.251   4.108   0.603
 2498SOL     OW 7511   2.179   4.271   1.280
 2498SOL    HW1 7512   2.217   4.212   1.352
 2498SOL    HW2 7513   2.219   4.245   1.192
 2499SOL     OW 7514   3.286   3.938   1.112
 2499SOL    HW1 7515   3.338   3.873   1.167
 2499SOL    HW2 7516   3.237   4.001   1.173
 2500SOL     OW 7517   2.863   3.758   1.154
 2500SOL    HW1 7518   2.800   3.686   1.123
 2500SOL    HW2 7519   2.956   3.722   1.154
 2501SOL     OW 7520   3.214   3.776   0.168
 2501SOL    HW1 7521   3.249   3.735   0.084
 2501SOL    HW2 7522   3.124   3.738   0.188
 2502SOL     OW 7523   3.162   4.177   0.691
 2502SOL    HW1 7524   3.103   4.257   0.695
 2502SOL    HW2 7525   3.177   4.142   0.784
 2503SOL     OW 7526   3.455   3.945   0.882
 2503SOL    HW1 7527   3.371   3.944   0.936
 2503SOL    HW2 7528   3.457   4.028   0.826
 2504SOL     OW 7529   2.092   4.352   1.975
 2504SOL    HW1 7530   1.999   4.350   2.012
 2504SOL    HW2 7531   2.093   4.313   1.883
 2505SOL     OW 7532   2.087   3.999   2.858
 2505SOL    HW1 7533   2.122   3.982   2.950
 2505SOL    HW2 7534   1.999   3.954   2.846
 2506SOL     OW 7535   1.881   4.092   2.509
 2506SOL    HW1 7536   1.799   4.135   2.548
 2506SOL    HW2 7537   1.853   4.019   2.446
 2507SOL     OW 7538   2.997   4.427   2.579
 2507SOL    HW1 7539   3.054   4.505   2.554
 2507SOL    HW2 7540   2.937   4.453   2.655
 2508SOL     OW 7541   3.617   4.331   2.093
 2508SOL    HW1 7542   3.605   4.318   1.994
 2508SOL    HW2 7543   3.587   4.250   2.142
 2509SOL     OW 7544   2.712   4.522   3.685
 2509SOL    HW1 7545   2.708   4.598   3.750
 2509SOL    HW2 7546   2.734   4.558   3.594
 2510SOL     OW 7547   2.547   4.736   2.527
 2510SOL    HW1 7548   2.616   4.720   2.597
 2510SOL    HW2 7549   2.474   4.793   2.565
 2511SOL     OW 7550   2.300   4.116   3.361
 2511SOL    HW1 7551   2.382   4.060   3.370
 2511SOL    HW2 7552   2.219   4.058   3.365
 2512SOL     OW 7553   3.465   4.171   2.599
 2512SOL    HW1 7554   3.391   4.217   2.549
 2512SOL    HW2 7555   3.516   4.239   2.652
 2513SOL     OW 7556   3.456   3.838   3.342
 2513SOL    HW1 7557   3.438   3.905   3.270
 2513SOL    HW2 7558   3.453   3.884   3.431
 2514SOL     OW 7559   1.984   4.367   2.425
 2514SOL    HW1 7560   1.939   4.279   2.442
 2514SOL    HW2 7561   1.983   4.421   2.509
 2515SOL     OW 7562   1.975   4.461   3.459
 2515SOL    HW1 7563   2.063   4.448   3.504
 2515SOL    HW2 7564   1.962   4.558   3.437
 2516SOL     OW 7565   2.671   3.728   2.364
 2516SOL    HW1 7566   2.711   3.819   2.355
 2516SOL    HW2 7567   2.571   3.736   2.370
 2517SOL     OW 7568   2.059   4.700   3.126
 2517SOL    HW1 7569   2.148   4.655   3.112
 2517SOL    HW2 7570   1.986   4.635   3.107
 2518SOL     OW 7571   3.387   4.723   2.052
 2518SOL    HW1 7572   3.324   4.647   2.065
 2518SOL    HW2 7573   3.435   4.741   2.138
 2519SOL     OW 7574   2.179   3.975   3.663
 2519SOL    HW1 7575   2.250   4.046   3.669
 2519SOL    HW2 7576   2.091   4.014   3.691
 2520SOL     OW 7577   2.460   4.453   2.132
 2520SOL    HW1 7578   2.484   4.522   2.064
 2520SOL    HW2 7579   2.382   4.486   2.186
 2521SOL     OW 7580   3.143   4.069   2.806
 2521SOL    HW1 7581   3.057   4.019   2.793
 2521SOL    HW2 7582   3.205   4.015   2.862
 2522SOL     OW 7583   2.669   4.329   3.327
 2522SOL    HW1 7584   2.622   4.326   3.416
 2522SOL    HW2 7585   2.618   4.274   3.261
 2523SOL     OW 7586   3.256   4.193   3.536
 2523SOL    HW1 7587   3.236   4.236   3.624
 2523SOL    HW2 7588   3.334   4.131   3.545
 2524SOL     OW 7589   2.835   4.614   3.434
 2524SOL    HW1 7590   2.881   4.530   3.405
 2524SOL    HW2 7591   2.779   4.648   3.359
 2525SOL     OW 7592   2.853   4.134   3.104
 2525SOL    HW1 7593   2.776   4.168   3.158
 2525SOL    HW2 7594   2.819   4.083   3.025
 2526SOL     OW 7595   2.903   4.425   2.291
 2526SOL    HW1 7596   2.929   4.421   2.387
 2526SOL    HW2 7597   2.818   4.374   2.277
 2527SOL     OW 7598   1.938   4.535   2.651
 2527SOL    HW1 7599   2.037   4.523   2.660
 2527SOL    HW2 7600   1.914   4.630   2.672
 2528SOL     OW 7601   2.727   4.072   2.057
 2528SOL    HW1 7602   2.786   4.135   2.008
 2528SOL    HW2 7603   2.746   3.978   2.028
 2529SOL     OW 7604   3.581   4.309   3.693
 2529SOL    HW1 7605   3.555   4.398   3.657
 2529SOL    HW2 7606   3.579   4.241   3.620
 2530SOL     OW 7607   2.412   3.920   2.747
 2530SOL    HW1 7608   2.407   3.915   2.847
 2530SOL    HW2 7609   2.414   4.016   2.718
 2531SOL     OW 7610   3.320   4.459   2.590
 2531SOL    HW1 7611   3.315   4.394   2.665
 2531SOL    HW2 7612   3.400   4.518   2.603
 2532SOL     OW 7613   2.064   4.009   3.360
 2532SOL    HW1 7614   1.984   4.069   3.347
 2532SOL    HW2 7615   2.054   3.960   3.446
 2533SOL     OW 7616   3.262   3.831   2.288
 2533SOL    HW1 7617   3.238   3.794   2.198
 2533SOL    HW2 7618   3.361   3.847   2.292
 2534SOL     OW 7619   2.244   4.424   2.342
 2534SOL    HW1 7620   2.289   4.334   2.339
 2534SOL    HW2 7621   2.150   4.413   2.375
 2535SOL     OW 7622   3.409   3.946   3.591
 2535SOL    HW1 7623   3.404   3.983   3.683
 2535SOL    HW2 7624   3.337   3.877   3.579
 2536SOL     OW 7625   2.476   3.846   1.979
 2536SOL    HW1 7626   2.574   3.824   1.986
 2536SOL    HW2 7627   2.445   3.829   1.886
 2537SOL     OW 7628   2.643   3.988   3.611
 2537SOL    HW1 7629   2.710   3.927   3.654
 2537SOL    HW2 7630   2.570   4.007   3.676
 2538SOL     OW 7631   3.213   4.314   3.295
 2538SOL    HW1 7632   3.241   4.271   3.380
 2538SOL    HW2 7633   3.238   4.410   3.296
 2539SOL     OW 7634   2.784   4.227   2.761
 2539SOL    HW1 7635   2.759   4.218   2.665
 2539SOL    HW2 7636   2.832   4.145   2.792
 2540SOL     OW 7637   2.401   3.788   2.374
 2540SOL    HW1 7638   2.320   3.789   2.432
 2540SOL    HW2 7639   2.404   3.871   2.319
 2541SOL     OW 7640   2.159   3.759   2.033
 2541SOL    HW1 7641   2.208   3.843   2.012
 2541SOL    HW2 7642   2.221   3.694   2.078
 2542SOL     OW 7643   2.797   3.960   2.342
 2542SOL    HW1 7644   2.749   4.001   2.264
 2542SOL    HW2 7645   2.896   3.958   2.323
 2543SOL     OW 7646   2.938   4.407   3.326
 2543SOL    HW1 7647   2.858   4.346   3.329
 2543SOL    HW2 7648   3.019   4.354   3.302
 2544SOL     OW 7649   2.894   4.273   1.878
 2544SOL    HW1 7650   2.853   4.355   1.839
 2544SOL    HW2 7651   2.958   4.299   1.951
 2545SOL     OW 7652   1.940   4.280   3.248
 2545SOL    HW1 7653   2.032   4.279   3.207
 2545SOL    HW2 7654   1.934   4.354   3.315
 2546SOL     OW 7655   2.423   3.946   3.009
 2546SOL    HW1 7656   2.461   3.862   3.046
 2546SOL    HW2 7657   2.335   3.965   3.053
 2547SOL     OW 7658   2.728   4.178   2.504
 2547SOL    HW1 7659   2.696   4.250   2.442
 2547SOL    HW2 7660   2.752   4.097   2.451
 2548SOL     OW 7661   2.879   3.763   2.615
 2548SOL    HW1 7662   2.807   3.768   2.546
 2548SOL    HW2 7663   2.855   3.694   2.684
 2549SOL     OW 7664   3.328   4.314   2.854
 2549SOL    HW1 7665   3.298   4.219   2.861
 2549SOL    HW2 7666   3.401   4.330   2.920
 2550SOL     OW 7667   3.719   4.557   2.239
 2550SOL    HW1 7668   3.761   4.493   2.303
 2550SOL    HW2 7669   3.681   4.506   2.161
 2551SOL     OW 7670   3.252   4.299   1.940
 2551SOL    HW1 7671   3.198   4.278   2.021
 2551SOL    HW2 7672   3.343   4.258   1.949
 2552SOL     OW 7673   2.389   3.980   2.190
 2552SOL    HW1 7674   2.416   3.921   2.115
 2552SOL    HW2 7675   2.389   4.075   2.159
 2553SOL     OW 7676   3.500   4.823   2.941
 2553SOL    HW1 7677   3.505   4.904   3.000
 2553SOL    HW2 7678   3.414   4.825   2.890
 2554SOL     OW 7679   2.777   3.813   3.264
 2554SOL    HW1 7680   2.802   3.793   3.169
 2554SOL    HW2 7681   2.849   3.869   3.306
 2555SOL     OW 7682   2.272   4.537   3.113
 2555SOL    HW1 7683   2.358   4.549   3.163
 2555SOL    HW2 7684   2.230   4.450   3.140
 2556SOL     OW 7685   3.136   4.110   3.124
 2556SOL    HW1 7686   3.157   4.184   3.188
 2556SOL    HW2 7687   3.047   4.127   3.081
 2557SOL     OW 7688   2.428   4.261   2.727
 2557SOL    HW1 7689   2.440   4.327   2.653
 2557SOL    HW2 7690   2.474   4.295   2.810
 2558SOL     OW 7691   3.444   4.363   2.334
 2558SOL    HW1 7692   3.413   4.424   2.407
 2558SOL    HW2 7693   3.494   4.415   2.265
 2559SOL     OW 7694   2.264   4.475   3.460
 2559SOL    HW1 7695   2.332   4.530   3.413
 2559SOL    HW2 7696   2.304   4.387   3.487
 2560SOL     OW 7697   3.449   4.503   3.532
 2560SOL    HW1 7698   3.357   4.541   3.527
 2560SOL    HW2 7699   3.509   4.550   3.467
 2561SOL     OW 7700   2.875   3.829   3.632
 2561SOL    HW1 7701   2.881   3.914   3.580
 2561SOL    HW2 7702   2.907   3.753   3.575
 2562SOL     OW 7703   2.366   3.774   3.602
 2562SOL    HW1 7704   2.324   3.717   3.532
 2562SOL    HW2 7705   2.300   3.843   3.634
 2563SOL     OW 7706   2.435   4.594   2.891
 2563SOL    HW1 7707   2.479   4.683   2.882
 2563SOL    HW2 7708   2.372   4.594   2.968
 2564SOL     OW 7709   3.222   4.586   2.907
 2564SOL    HW1 7710   3.147   4.586   2.841
 2564SOL    HW2 7711   3.259   4.494   2.916
 2565SOL     OW 7712   3.071   4.249   2.137
 2565SOL    HW1 7713   3.084   4.165   2.191
 2565SOL    HW2 7714   3.042   4.323   2.197
 2566SOL     OW 7715   2.169   3.937   3.093
 2566SOL    HW1 7716   2.146   3.974   3.183
 2566SOL    HW2 7717   2.139   3.842   3.087
 2567SOL     OW 7718   2.594   4.358   2.926
 2567SOL    HW1 7719   2.653   4.332   2.850
 2567SOL    HW2 7720   2.566   4.454   2.915
 2568SOL     OW 7721   3.590   4.659   3.716
 2568SOL    HW1 7722   3.544   4.652   3.627
 2568SOL    HW2 7723   3.528   4.703   3.782
 2569SOL     OW 7724   2.169   3.787   2.480
 2569SOL    HW1 7725   2.158   3.881   2.513
 2569SOL    HW2 7726   2.164   3.724   2.557
 2570SOL     OW 7727   3.484   4.091   2.236
 2570SOL    HW1 7728   3.486   4.015   2.300
 2570SOL    HW2 7729   3.436   4.168   2.276
 2571SOL     OW 7730   2.885   4.490   2.828
 2571SOL    HW1 7731   2.900   4.511   2.924
 2571SOL    HW2 7732   2.855   4.395   2.819
 2572SOL     OW 7733   2.212   4.622   3.666
 2572SOL    HW1 7734   2.288   4.666   3.714
 2572SOL    HW2 7735   2.247   4.575   3.584
 2573SOL     OW 7736   3.402   3.998   1.987
 2573SOL    HW1 7737   3.341   3.923   2.010
 2573SOL    HW2 7738   3.424   4.050   2.070
 2574SOL     OW 7739   3.165   4.562   1.904
 2574SOL    HW1 7740   3.199   4.469   1.919
 2574SOL    HW2 7741   3.183   4.589   1.809
 2575SOL     OW 7742   2.181   4.534   2.811
 2575SOL    HW1 7743   2.274   4.570   2.816
 2575SOL    HW2 7744   2.175   4.449   2.863
 2576SOL     OW 7745   2.201   4.233   2.868
 2576SOL    HW1 7746   2.149   4.150   2.851
 2576SOL    HW2 7747   2.278   4.238   2.804
 2577SOL     OW 7748   3.000   4.104   3.540
 2577SOL    HW1 7749   2.955   4.167   3.604
 2577SOL    HW2 7750   3.093   4.135   3.523
 2578SOL     OW 7751   3.022   3.931   3.339
 2578SOL    HW1 7752   3.022   3.995   3.416
 2578SOL    HW2 7753   3.050   3.979   3.256
 2579SOL     OW 7754   2.864   4.520   3.100
 2579SOL    HW1 7755   2.905   4.488   3.186
 2579SOL    HW2 7756   2.768   4.493   3.097
 2580SOL     OW 7757   1.902   4.268   2.976
 2580SOL    HW1 7758   1.987   4.235   2.935
 2580SOL    HW2 7759   1.915   4.283   3.074
 2581SOL     OW 7760   2.051   4.244   3.584
 2581SOL    HW1 7761   2.110   4.204   3.514
 2581SOL    HW2 7762   1.993   4.315   3.543
 2582SOL     OW 7763   2.677   4.296   2.187
 2582SOL    HW1 7764   2.684   4.207   2.141
 2582SOL    HW2 7765   2.583   4.330   2.179
 2583SOL     OW 7766   3.519   4.328   3.068
 2583SOL    HW1 7767   3.481   4.259   3.130
 2583SOL    HW2 7768   3.601   4.292   3.024
 2584SOL     OW 7769   2.533   4.188   3.131
 2584SOL    HW1 7770   2.499   4.099   3.101
 2584SOL    HW2 7771   2.559   4.242   3.051
 2585SOL     OW 7772   2.335   4.224   2.053
 2585SOL    HW1 7773   2.396   4.304   2.057
 2585SOL    HW2 7774   2.240   4.255   2.060
 2586SOL     OW 7775   3.209   4.783   3.096
 2586SOL    HW1 7776   3.233   4.720   3.022
 2586SOL    HW2 7777   3.119   4.823   3.078
 2587SOL     OW 7778   3.164   4.579   2.171
 2587SOL    HW1 7779   3.078   4.548   2.213
 2587SOL    HW2 7780   3.160   4.565   2.072
 2588SOL     OW 7781   3.588   3.859   2.385
 2588SOL    HW1 7782   3.661   3.842   2.318
 2588SOL    HW2 7783   3.557   3.772   2.423
 2589SOL     OW 7784   3.142   4.651   2.534
 2589SOL    HW1 7785   3.202   4.570   2.536
 2589SOL    HW2 7786   3.182   4.720   2.474
 2590SOL     OW 7787   3.703   3.899   2.825
 2590SOL    HW1 7788   3.742   3.814   2.789
 2590SOL    HW2 7789   3.605   3.901   2.806
 2591SOL     OW 7790   2.125   4.050   2.582
 2591SOL    HW1 7791   2.046   4.101   2.548
 2591SOL    HW2 7792   2.116   4.035   2.680
 2592SOL     OW 7793   2.778   4.634   2.153
 2592SOL    HW1 7794   2.841   4.672   2.085
 2592SOL    HW2 7795   2.818   4.551   2.192
 2593SOL     OW 7796   2.876   3.960   2.833
 2593SOL    HW1 7797   2.868   3.924   2.740
 2593SOL    HW2 7798   2.874   3.884   2.898
 2594SOL     OW 7799   3.571   4.109   3.243
 2594SOL    HW1 7800   3.644   4.178   3.247
 2594SOL    HW2 7801   3.599   4.034   3.184
 2595SOL     OW 7802   1.967   4.737   3.588
 2595SOL    HW1 7803   1.890   4.704   3.642
 2595SOL    HW2 7804   2.052   4.707   3.630
 2596SOL     OW 7805   2.534   3.927   3.351
 2596SOL    HW1 7806   2.624   3.911   3.311
 2596SOL    HW2 7807   2.542   3.932   3.450
 2597SOL     OW 7808   1.937   4.069   1.895
 2597SOL    HW1 7809   1.845   4.041   1.866
 2597SOL    HW2 7810   1.968   4.146   1.839
 2598SOL     OW 7811   3.302   4.580   3.260
 2598SOL    HW1 7812   3.245   4.632   3.197
 2598SOL    HW2 7813   3.398   4.592   3.236
 2599SOL     OW 7814   1.934   3.890   2.180
 2599SOL    HW1 7815   1.917   3.973   2.126
 2599SOL    HW2 7816   2.024   3.853   2.158
 2600SOL     OW 7817   2.475   4.566   3.293
 2600SOL    HW1 7818   2.531   4.647   3.276
 2600SOL    HW2 7819   2.534   4.486   3.296
 2601SOL     OW 7820   2.578   4.289   3.570
 2601SOL    HW1 7821   2.597   4.354   3.644
 2601SOL    HW2 7822   2.638   4.209   3.579
 2602SOL     OW 7823   3.536   4.607   3.116
 2602SOL    HW1 7824   3.509   4.518   3.079
 2602SOL    HW2 7825   3.537   4.675   3.043
 2603SOL     OW 7826   3.087   4.049   2.311
 2603SOL    HW1 7827   3.152   3.975   2.300
 2603SOL    HW2 7828   3.107   4.099   2.395
 2604SOL     OW 7829   2.456   4.469   2.514
 2604SOL    HW1 7830   2.506   4.554   2.495
 2604SOL    HW2 7831   2.368   4.471   2.466
 2605SOL     OW 7832   3.639   4.066   3.504
 2605SOL    HW1 7833   3.622   4.097   3.410
 2605SOL    HW2 7834   3.555   4.029   3.542
 2606SOL     OW 7835   3.592   4.658   3.379
 2606SOL    HW1 7836   3.630   4.749   3.394
 2606SOL    HW2 7837   3.584   4.641   3.280
 2607SOL     OW 7838   3.686   3.916   3.089
 2607SOL    HW1 7839   3.682   3.826   3.133
 2607SOL    HW2 7840   3.689   3.905   2.990
 2608SOL     OW 7841   2.290   4.148   2.382
 2608SOL    HW1 7842   2.320   4.076   2.320
 2608SOL    HW2 7843   2.251   4.108   2.465
 2609SOL     OW 7844   2.179   4.271   3.142
 2609SOL    HW1 7845   2.217   4.212   3.214
 2609SOL    HW2 7846   2.219   4.245   3.054
 2610SOL     OW 7847   3.286   3.938   2.974
 2610SOL    HW1 7848   3.338   3.873   3.029
 2610SOL    HW2 7849   3.237   4.001   3.035
 2611SOL     OW 7850   2.863   3.758   3.016
 2611SOL    HW1 7851   2.800   3.686   2.985
 2611SOL    HW2 7852   2.956   3.722   3.016
 2612SOL     OW 7853   3.214   3.776   2.030
 2612SOL    HW1 7854   3.249   3.735   1.946
 2612SOL    HW2 7855   3.124   3.738   2.050
 2613SOL     OW 7856   3.162   4.177   2.553
 2613SOL    HW1 7857   3.103   4.257   2.557
 2613SOL    HW2 7858   3.177   4.142   2.646
 2614SOL     OW 7859   3.455   3.945   2.744
 2614SOL    HW1 7860   3.371   3.944   2.798
 2614SOL    HW2 7861   3.457   4.028   2.688
 2615SOL     OW 7862   2.092   4.352   3.837
 2615SOL    HW1 7863   1.999   4.350   3.874
 2615SOL    HW2 7864   2.093   4.313   3.745
 2616SOL     OW 7865   2.087   3.999   4.720
 2616SOL    HW1 7866   2.122   3.982   4.812
 2616SOL    HW2 7867   1.999   3.954   4.708
 2617SOL     OW 7868   1.881   4.092   4.371
 2617SOL    HW1 7869   1.799   4.135   4.410
 2617SOL    HW2 7870   1.853   4.019   4.308
 2618SOL     OW 7871   2.997   4.427   4.441
 2618SOL    HW1 7872   3.054   4.505   4.416
 2618SOL    HW2 7873   2.937   4.453   4.517
 2619SOL     OW 7874   3.617   4.331   3.955
 2619SOL    HW1 7875   3.605   4.318   3.856
 2619SOL    HW2 7876   3.587   4.250   4.004
 2620SOL     OW 7877   2.547   4.736   4.389
 2620SOL    HW1 7878   2.616   4.720   4.459
 2620SOL    HW2 7879   2.474   4.793   4.427
 2621SOL     OW 7880   3.465   4.171   4.461
 2621SOL    HW1 7881   3.391   4.217   4.411
 2621SOL    HW2 7882   3.516   4.239   4.514
 2622SOL     OW 7883   1.984   4.367   4.287
 2622SOL    HW1 7884   1.939   4.279   4.304
 2622SOL    HW2 7885   1.983   4.421   4.371
 2623SOL     OW 7886   2.671   3.728   4.226
 2623SOL    HW1 7887   2.711   3.819   4.217
 2623SOL    HW2 7888   2.571   3.736   4.232
 2624SOL     OW 7889   3.387   4.723   3.914
 2624SOL    HW1 7890   3.324   4.647   3.927
 2624SOL    HW2 7891   3.435   4.741   4.000
 2625SOL     OW 7892   2.460   4.453   3.994
 2625SOL    HW1 7893   2.484   4.522   3.926
 2625SOL    HW2 7894   2.382   4.486   4.048
 2626SOL     OW 7895   3.143   4.069   4.668
 2626SOL    HW1 7896   3.057   4.019   4.655
 2626SOL    HW2 7897   3.205   4.015   4.724
 2627SOL     OW 7898   2.903   4.425   4.153
 2627SOL    HW1 7899   2.929   4.421   4.249
 2627SOL    HW2 7900   2.818   4.374   4.139
 2628SOL     OW 7901   1.938   4.535   4.513
 2628SOL    HW1 7902   2.037   4.523   4.522
 2628SOL    HW2 7903   1.914   4.630   4.534
 2629SOL     OW 7904   2.727   4.072   3.919
 2629SOL    HW1 7905   2.786   4.135   3.870
 2629SOL    HW2 7906   2.746   3.978   3.890
 2630SOL     OW 7907   2.412   3.920   4.609
 2630SOL    HW1 7908   2.407   3.915   4.709
 2630SOL    HW2 7909   2.414   4.016   4.580
 2631SOL     OW 7910   3.320   4.459   4.452
 2631SOL    HW1 7911   3.315   4.394   4.527
 2631SOL    HW2 7912   3.400   4.518   4.465
 2632SOL     OW 7913   3.262   3.831   4.150
 2632SOL    HW1 7914   3.238   3.794   4.060
 2632SOL    HW2 7915   3.361   3.847   4.154
 2633SOL     OW 7916   2.244   4.424   4.204
 2633SOL    HW1 7917   2.289   4.334   4.201
 2633SOL    HW2 7918   2.150   4.413   4.237
 2634SOL     OW 7919   2.476   3.846   3.841
 2634SOL    HW1 7920   2.574   3.824   3.848
 2634SOL    HW2 7921   2.445   3.829   3.748
 2635SOL     OW 7922   2.401   3.788   4.236
 2635SOL    HW1 7923   2.320   3.789   4.294
 2635SOL    HW2 7924   2.404   3.871   4.181
 2636SOL     OW 7925   2.159   3.759   3.895
 2636SOL    HW1 7926   2.208   3.843   3.874
 2636SOL    HW2 7927   2.221   3.694   3.940
 2637SOL     OW 7928   2.797   3.960   4.204
 2637SOL    HW1 7929   2.749   4.001   4.126
 2637SOL    HW2 7930   2.896   3.958   4.185
 2638SOL     OW 7931   2.894   4.273   3.740
 2638SOL    HW1 7932   2.853   4.355   3.701
 2638SOL    HW2 7933   2.958   4.299   3.813
 2639SOL     OW 7934   2.728   4.178   4.366
 2639SOL    HW1 7935   2.696   4.250   4.304
 2639SOL    HW2 7936   2.752   4.097   4.313
 2640SOL     OW 7937   2.879   3.763   4.477
 2640SOL    HW1 7938   2.807   3.768   4.408
 2640SOL    HW2 7939   2.855   3.694   4.546
 2641SOL     OW 7940   3.719   4.557   4.101
 2641SOL    HW1 7941   3.761   4.493   4.165
 2641SOL    HW2 7942   3.681   4.506   4.023
 2642SOL     OW 7943   3.252   4.299   3.802
 2642SOL    HW1 7944   3.198   4.278   3.883
 2642SOL    HW2 7945   3.343   4.258   3.811
 2643SOL     OW 7946   2.389   3.980   4.052
 2643SOL    HW1 7947   2.416   3.921   3.977
 2643SOL    HW2 7948   2.389   4.075   4.021
 2644SOL     OW 7949   2.973   4.919   4.824
 2644SOL    HW1 7950   2.933   4.963   4.905
 2644SOL    HW2 7951   2.932   4.956   4.741
 2645SOL     OW 7952   2.428   4.261   4.589
 2645SOL    HW1 7953   2.440   4.327   4.515
 2645SOL    HW2 7954   2.474   4.295   4.672
 2646SOL     OW 7955   3.444   4.363   4.196
 2646SOL    HW1 7956   3.413   4.424   4.269
 2646SOL    HW2 7957   3.494   4.415   4.127
 2647SOL     OW 7958   2.435   4.594   4.753
 2647SOL    HW1 7959   2.479   4.683   4.744
 2647SOL    HW2 7960   2.372   4.594   4.830
 2648SOL     OW 7961   3.071   4.249   3.999
 2648SOL    HW1 7962   3.084   4.165   4.053
 2648SOL    HW2 7963   3.042   4.323   4.059
 2649SOL     OW 7964   2.594   4.358   4.788
 2649SOL    HW1 7965   2.653   4.332   4.712
 2649SOL    HW2 7966   2.566   4.454   4.777
 2650SOL     OW 7967   2.169   3.787   4.342
 2650SOL    HW1 7968   2.158   3.881   4.375
 2650SOL    HW2 7969   2.164   3.724   4.419
 2651SOL     OW 7970   3.484   4.091   4.098
 2651SOL    HW1 7971   3.486   4.015   4.162
 2651SOL    HW2 7972   3.436   4.168   4.138
 2652SOL     OW 7973   3.402   3.998   3.849
 2652SOL    HW1 7974   3.341   3.923   3.872
 2652SOL    HW2 7975   3.424   4.050   3.932
 2653SOL     OW 7976   3.165   4.562   3.766
 2653SOL    HW1 7977   3.199   4.469   3.781
 2653SOL    HW2 7978   3.183   4.589   3.671
 2654SOL     OW 7979   2.930   5.057   4.573
 2654SOL    HW1 7980   2.937   4.973   4.518
 2654SOL    HW2 7981   2.992   5.126   4.537
 2655SOL     OW 7982   2.181   4.534   4.673
 2655SOL    HW1 7983   2.274   4.570   4.678
 2655SOL    HW2 7984   2.175   4.449   4.725
 2656SOL     OW 7985   2.677   4.296   4.049
 2656SOL    HW1 7986   2.684   4.207   4.003
 2656SOL    HW2 7987   2.583   4.330   4.041
 2657SOL     OW 7988   2.335   4.224   3.915
 2657SOL    HW1 7989   2.396   4.304   3.919
 2657SOL    HW2 7990   2.240   4.255   3.922
 2658SOL     OW 7991   3.164   4.579   4.033
 2658SOL    HW1 7992   3.078   4.548   4.075
 2658SOL    HW2 7993   3.160   4.565   3.934
 2659SOL     OW 7994   3.588   3.859   4.247
 2659SOL    HW1 7995   3.661   3.842   4.180
 2659SOL    HW2 7996   3.557   3.772   4.285
 2660SOL     OW 7997   3.142   4.651   4.396
 2660SOL    HW1 7998   3.202   4.570   4.398
 2660SOL    HW2 7999   3.182   4.720   4.336
 2661SOL     OW 8000   3.703   3.899   4.687
 2661SOL    HW1 8001   3.742   3.814   4.651
 2661SOL    HW2 8002   3.605   3.901   4.668
 2662SOL     OW 8003   2.125   4.050   4.444
 2662SOL    HW1 8004   2.046   4.101   4.410
 2662SOL    HW2 8005   2.116   4.035   4.542
 2663SOL     OW 8006   2.778   4.634   4.015
 2663SOL    HW1 8007   2.841   4.672   3.947
 2663SOL    HW2 8008   2.818   4.551   4.054
 2664SOL     OW 8009   1.937   4.069   3.757
 2664SOL    HW1 8010   1.845   4.041   3.728
 2664SOL    HW2 8011   1.968   4.146   3.701
 2665SOL     OW 8012   1.934   3.890   4.042
 2665SOL    HW1 8013   1.917   3.973   3.988
 2665SOL    HW2 8014   2.024   3.853   4.020
 2666SOL     OW 8015   3.536   4.607   4.978
 2666SOL    HW1 8016   3.509   4.518   4.941
 2666SOL    HW2 8017   3.537   4.675   4.905
 2667SOL     OW 8018   3.087   4.049   4.173
 2667SOL    HW1 8019   3.152   3.975   4.162
 2667SOL    HW2 8020   3.107   4.099   4.257
 2668SOL     OW 8021   2.456   4.469   4.376
 2668SOL    HW1 8022   2.506   4.554   4.357
 2668SOL    HW2 8023   2.368   4.471   4.328
 2669SOL     OW 8024   2.290   4.148   4.244
 2669SOL    HW1 8025   2.320   4.076   4.182
 2669SOL    HW2 8026   2.251   4.108   4.327
 2670SOL     OW 8027   3.214   3.776   3.892
 2670SOL    HW1 8028   3.249   3.735   3.808
 2670SOL    HW2 8029   3.124   3.738   3.912
 2671SOL     OW 8030   3.162   4.177   4.415
 2671SOL    HW1 8031   3.103   4.257   4.419
 2671SOL    HW2 8032   3.177   4.142   4.508
 2672SOL     OW 8033   3.455   3.945   4.606
 2672SOL    HW1 8034   3.371   3.944   4.660
 2672SOL    HW2 8035   3.457   4.028   4.550
 2673SOL     OW 8036   3.954   0.628   0.113
 2673SOL    HW1 8037   3.861   0.626   0.150
 2673SOL    HW2 8038   3.955   0.589   0.021
 2674SOL     OW 8039   3.949   0.275   0.996
 2674SOL    HW1 8040   3.984   0.258   1.088
 2674SOL    HW2 8041   3.861   0.230   0.984
 2675SOL     OW 8042   3.743   0.368   0.647
 2675SOL    HW1 8043   3.661   0.411   0.686
 2675SOL    HW2 8044   3.715   0.295   0.584
 2676SOL     OW 8045   4.293   1.275   1.165
 2676SOL    HW1 8046   4.200   1.268   1.128
 2676SOL    HW2 8047   4.304   1.364   1.209
 2677SOL     OW 8048   4.492   1.144   1.023
 2677SOL    HW1 8049   4.414   1.161   1.083
 2677SOL    HW2 8050   4.526   1.231   0.987
 2678SOL     OW 8051   4.574   0.798   1.823
 2678SOL    HW1 8052   4.570   0.874   1.888
 2678SOL    HW2 8053   4.596   0.834   1.732
 2679SOL     OW 8054   4.409   1.012   0.665
 2679SOL    HW1 8055   4.478   0.996   0.735
 2679SOL    HW2 8056   4.336   1.069   0.703
 2680SOL     OW 8057   4.410   1.161   1.803
 2680SOL    HW1 8058   4.470   1.240   1.817
 2680SOL    HW2 8059   4.324   1.192   1.762
 2681SOL     OW 8060   4.059   1.435   1.061
 2681SOL    HW1 8061   3.981   1.404   1.008
 2681SOL    HW2 8062   4.117   1.493   1.004
 2682SOL     OW 8063   4.162   0.392   1.499
 2682SOL    HW1 8064   4.244   0.336   1.508
 2682SOL    HW2 8065   4.081   0.334   1.503
 2683SOL     OW 8066   3.955   1.713   0.483
 2683SOL    HW1 8067   3.989   1.790   0.537
 2683SOL    HW2 8068   3.999   1.713   0.393
 2684SOL     OW 8069   3.954   1.434   0.538
 2684SOL    HW1 8070   3.928   1.530   0.538
 2684SOL    HW2 8071   3.883   1.380   0.583
 2685SOL     OW 8072   3.964   1.091   0.886
 2685SOL    HW1 8073   3.978   1.007   0.938
 2685SOL    HW2 8074   3.909   1.155   0.941
 2686SOL     OW 8075   4.344   1.786   1.439
 2686SOL    HW1 8076   4.252   1.769   1.474
 2686SOL    HW2 8077   4.372   1.878   1.465
 2687SOL     OW 8078   4.330   0.964   0.123
 2687SOL    HW1 8079   4.337   1.048   0.069
 2687SOL    HW2 8080   4.376   0.977   0.211
 2688SOL     OW 8081   3.846   0.643   0.563
 2688SOL    HW1 8082   3.801   0.555   0.580
 2688SOL    HW2 8083   3.845   0.697   0.647
 2689SOL     OW 8084   3.837   0.737   1.597
 2689SOL    HW1 8085   3.925   0.724   1.642
 2689SOL    HW2 8086   3.824   0.834   1.575
 2690SOL     OW 8087   4.337   1.365   0.726
 2690SOL    HW1 8088   4.288   1.278   0.735
 2690SOL    HW2 8089   4.314   1.408   0.639
 2691SOL     OW 8090   4.533   0.004   0.502
 2691SOL    HW1 8091   4.573   0.095   0.493
 2691SOL    HW2 8092   4.433   0.012   0.508
 2692SOL     OW 8093   3.921   0.976   1.264
 2692SOL    HW1 8094   4.010   0.931   1.250
 2692SOL    HW2 8095   3.848   0.911   1.245
 2693SOL     OW 8096   4.041   0.251   1.801
 2693SOL    HW1 8097   4.112   0.322   1.807
 2693SOL    HW2 8098   3.953   0.290   1.829
 2694SOL     OW 8099   4.322   0.729   0.270
 2694SOL    HW1 8100   4.346   0.798   0.202
 2694SOL    HW2 8101   4.244   0.762   0.324
 2695SOL     OW 8102   4.531   0.605   1.465
 2695SOL    HW1 8103   4.484   0.602   1.554
 2695SOL    HW2 8104   4.480   0.550   1.399
 2696SOL     OW 8105   4.715   0.410   1.242
 2696SOL    HW1 8106   4.638   0.444   1.296
 2696SOL    HW2 8107   4.681   0.359   1.163
 2697SOL     OW 8108   3.800   0.811   0.789
 2697SOL    HW1 8109   3.899   0.799   0.798
 2697SOL    HW2 8110   3.776   0.906   0.810
 2698SOL     OW 8111   3.854   1.821   1.571
 2698SOL    HW1 8112   3.844   1.806   1.670
 2698SOL    HW2 8113   3.768   1.857   1.535
 2699SOL     OW 8114   4.589   0.348   0.195
 2699SOL    HW1 8115   4.648   0.411   0.146
 2699SOL    HW2 8116   4.608   0.254   0.166
 2700SOL     OW 8117   4.274   0.196   0.885
 2700SOL    HW1 8118   4.269   0.191   0.985
 2700SOL    HW2 8119   4.276   0.292   0.856
 2701SOL     OW 8120   4.732   1.456   0.477
 2701SOL    HW1 8121   4.686   1.528   0.425
 2701SOL    HW2 8122   4.728   1.476   0.575
 2702SOL     OW 8123   4.075   1.801   0.853
 2702SOL    HW1 8124   4.125   1.715   0.859
 2702SOL    HW2 8125   4.140   1.878   0.850
 2703SOL     OW 8126   4.045   0.943   0.242
 2703SOL    HW1 8127   4.127   0.982   0.200
 2703SOL    HW2 8128   4.018   0.861   0.193
 2704SOL     OW 8129   4.185   1.266   1.727
 2704SOL    HW1 8130   4.135   1.267   1.641
 2704SOL    HW2 8131   4.122   1.248   1.803
 2705SOL     OW 8132   3.926   0.285   1.498
 2705SOL    HW1 8133   3.846   0.345   1.485
 2705SOL    HW2 8134   3.916   0.236   1.584
 2706SOL     OW 8135   4.188   1.743   0.323
 2706SOL    HW1 8136   4.221   1.782   0.409
 2706SOL    HW2 8137   4.264   1.736   0.258
 2707SOL     OW 8138   3.973   1.785   1.241
 2707SOL    HW1 8139   4.030   1.720   1.291
 2707SOL    HW2 8140   3.957   1.752   1.148
 2708SOL     OW 8141   4.106   0.700   0.480
 2708SOL    HW1 8142   4.151   0.610   0.477
 2708SOL    HW2 8143   4.012   0.689   0.513
 2709SOL     OW 8144   4.338   0.122   0.117
 2709SOL    HW1 8145   4.436   0.100   0.124
 2709SOL    HW2 8146   4.307   0.105   0.024
 2710SOL     OW 8147   4.505   0.264   1.749
 2710SOL    HW1 8148   4.572   0.203   1.792
 2710SOL    HW2 8149   4.432   0.283   1.814
 2711SOL     OW 8150   4.527   1.402   0.924
 2711SOL    HW1 8151   4.617   1.416   0.882
 2711SOL    HW2 8152   4.456   1.404   0.853
 2712SOL     OW 8153   4.646   0.503   0.899
 2712SOL    HW1 8154   4.621   0.494   0.803
 2712SOL    HW2 8155   4.694   0.421   0.930
 2713SOL     OW 8156   4.263   0.064   0.512
 2713SOL    HW1 8157   4.182   0.065   0.570
 2713SOL    HW2 8158   4.266   0.147   0.457
 2714SOL     OW 8159   4.021   0.035   0.171
 2714SOL    HW1 8160   4.070   0.119   0.150
 2714SOL    HW2 8161   4.083  -0.030   0.216
 2715SOL     OW 8162   4.951   1.570   0.793
 2715SOL    HW1 8163   4.972   1.644   0.728
 2715SOL    HW2 8164   5.019   1.570   0.866
 2716SOL     OW 8165   4.183   1.152   0.741
 2716SOL    HW1 8166   4.112   1.125   0.806
 2716SOL    HW2 8167   4.157   1.124   0.648
 2717SOL     OW 8168   3.802   0.556   1.386
 2717SOL    HW1 8169   3.894   0.555   1.345
 2717SOL    HW2 8170   3.796   0.630   1.453
 2718SOL     OW 8171   4.285   0.222   1.147
 2718SOL    HW1 8172   4.323   0.138   1.184
 2718SOL    HW2 8173   4.197   0.241   1.191
 2719SOL     OW 8174   4.212   1.385   0.174
 2719SOL    HW1 8175   4.125   1.370   0.221
 2719SOL    HW2 8176   4.195   1.411   0.079
 2720SOL     OW 8177   4.251   0.256   0.328
 2720SOL    HW1 8178   4.278   0.197   0.253
 2720SOL    HW2 8179   4.251   0.351   0.297
 2721SOL     OW 8180   4.639   0.089   1.402
 2721SOL    HW1 8181   4.664   0.069   1.307
 2721SOL    HW2 8182   4.711   0.145   1.444
 2722SOL     OW 8183   4.429   1.050   0.368
 2722SOL    HW1 8184   4.415   1.057   0.467
 2722SOL    HW2 8185   4.513   0.999   0.350
 2723SOL     OW 8186   4.134   0.813   1.251
 2723SOL    HW1 8187   4.220   0.825   1.301
 2723SOL    HW2 8188   4.092   0.726   1.278
 2724SOL     OW 8189   3.788   1.564   1.331
 2724SOL    HW1 8190   3.742   1.646   1.297
 2724SOL    HW2 8191   3.886   1.583   1.340
 2725SOL     OW 8192   4.091   1.100   0.501
 2725SOL    HW1 8193   4.084   1.183   0.445
 2725SOL    HW2 8194   4.095   1.020   0.441
 2726SOL     OW 8195   4.290   0.537   0.865
 2726SOL    HW1 8196   4.302   0.603   0.791
 2726SOL    HW2 8197   4.336   0.571   0.948
 2727SOL     OW 8198   4.078   1.510   1.329
 2727SOL    HW1 8199   4.057   1.466   1.242
 2727SOL    HW2 8200   4.175   1.536   1.332
 2728SOL     OW 8201   4.126   0.751   1.598
 2728SOL    HW1 8202   4.194   0.806   1.551
 2728SOL    HW2 8203   4.166   0.663   1.625
 2729SOL     OW 8204   4.228   0.050   1.740
 2729SOL    HW1 8205   4.186  -0.007   1.670
 2729SOL    HW2 8206   4.162   0.119   1.772
 2730SOL     OW 8207   4.297   0.870   1.029
 2730SOL    HW1 8208   4.341   0.959   1.020
 2730SOL    HW2 8209   4.234   0.870   1.106
 2731SOL     OW 8210   4.933   0.525   0.275
 2731SOL    HW1 8211   4.946   0.441   0.329
 2731SOL    HW2 8212   4.904   0.599   0.335
 2732SOL     OW 8213   4.031   0.213   1.231
 2732SOL    HW1 8214   4.008   0.250   1.321
 2732SOL    HW2 8215   4.001   0.118   1.225
 2733SOL     OW 8216   3.761   1.310   1.282
 2733SOL    HW1 8217   3.814   1.261   1.350
 2733SOL    HW2 8218   3.783   1.408   1.287
 2734SOL     OW 8219   4.456   0.634   1.064
 2734SOL    HW1 8220   4.515   0.608   0.988
 2734SOL    HW2 8221   4.428   0.730   1.053
 2735SOL     OW 8222   4.031   0.063   0.618
 2735SOL    HW1 8223   4.020   0.157   0.651
 2735SOL    HW2 8224   4.026   0.000   0.695
 2736SOL     OW 8225   4.747   0.766   0.966
 2736SOL    HW1 8226   4.762   0.787   1.062
 2736SOL    HW2 8227   4.717   0.671   0.957
 2737SOL     OW 8228   4.704   1.573   1.700
 2737SOL    HW1 8229   4.684   1.617   1.612
 2737SOL    HW2 8230   4.743   1.482   1.684
 2738SOL     OW 8231   4.074   0.898   1.804
 2738SOL    HW1 8232   4.150   0.942   1.852
 2738SOL    HW2 8233   4.109   0.851   1.722
 2739SOL     OW 8234   4.043   0.810   0.949
 2739SOL    HW1 8235   4.136   0.846   0.954
 2739SOL    HW2 8236   4.037   0.725   1.001
 2740SOL     OW 8237   4.063   0.509   1.006
 2740SOL    HW1 8238   4.011   0.426   0.989
 2740SOL    HW2 8239   4.140   0.514   0.942
 2741SOL     OW 8240   3.732   1.326   0.200
 2741SOL    HW1 8241   3.639   1.347   0.169
 2741SOL    HW2 8242   3.742   1.227   0.213
 2742SOL     OW 8243   3.812   1.801   0.927
 2742SOL    HW1 8244   3.770   1.715   0.900
 2742SOL    HW2 8245   3.906   1.804   0.893
 2743SOL     OW 8246   4.228   1.568   0.910
 2743SOL    HW1 8247   4.294   1.642   0.919
 2743SOL    HW2 8248   4.272   1.489   0.868
 2744SOL     OW 8249   4.726   0.796   1.238
 2744SOL    HW1 8250   4.767   0.764   1.324
 2744SOL    HW2 8251   4.630   0.769   1.235
 2745SOL     OW 8252   3.764   0.544   1.114
 2745SOL    HW1 8253   3.849   0.511   1.073
 2745SOL    HW2 8254   3.777   0.559   1.212
 2746SOL     OW 8255   3.913   0.520   1.722
 2746SOL    HW1 8256   3.972   0.480   1.652
 2746SOL    HW2 8257   3.855   0.591   1.681
 2747SOL     OW 8258   4.539   0.572   0.325
 2747SOL    HW1 8259   4.546   0.483   0.279
 2747SOL    HW2 8260   4.445   0.606   0.317
 2748SOL     OW 8261   3.976   1.564   1.744
 2748SOL    HW1 8262   3.946   1.621   1.820
 2748SOL    HW2 8263   3.969   1.467   1.770
 2749SOL     OW 8264   4.395   0.464   1.269
 2749SOL    HW1 8265   4.361   0.375   1.239
 2749SOL    HW2 8266   4.421   0.518   1.189
 2750SOL     OW 8267   4.197   0.500   0.191
 2750SOL    HW1 8268   4.258   0.580   0.195
 2750SOL    HW2 8269   4.102   0.531   0.198
 2751SOL     OW 8270   3.883   1.137   1.466
 2751SOL    HW1 8271   3.905   1.076   1.542
 2751SOL    HW2 8272   3.893   1.088   1.380
 2752SOL     OW 8273   3.807   1.258   1.022
 2752SOL    HW1 8274   3.802   1.257   1.122
 2752SOL    HW2 8275   3.724   1.217   0.984
 2753SOL     OW 8276   4.412   1.662   1.716
 2753SOL    HW1 8277   4.356   1.743   1.725
 2753SOL    HW2 8278   4.464   1.666   1.630
 2754SOL     OW 8279   4.627   0.086   0.133
 2754SOL    HW1 8280   4.678   0.087   0.047
 2754SOL    HW2 8281   4.683   0.044   0.204
 2755SOL     OW 8282   3.854   1.794   1.851
 2755SOL    HW1 8283   3.813   1.720   1.904
 2755SOL    HW2 8284   3.918   1.845   1.909
 2756SOL     OW 8285   4.554   1.273   1.422
 2756SOL    HW1 8286   4.549   1.306   1.517
 2756SOL    HW2 8287   4.468   1.292   1.376
 2757SOL     OW 8288   4.396   1.616   0.154
 2757SOL    HW1 8289   4.405   1.626   0.055
 2757SOL    HW2 8290   4.356   1.527   0.175
 2758SOL     OW 8291   3.987   0.326   0.720
 2758SOL    HW1 8292   3.908   0.377   0.686
 2758SOL    HW2 8293   3.978   0.311   0.818
 2759SOL     OW 8294   4.918   1.612   0.031
 2759SOL    HW1 8295   4.924   1.519   0.068
 2759SOL    HW2 8296   4.859   1.612  -0.049
 2760SOL     OW 8297   4.546   1.002   1.372
 2760SOL    HW1 8298   4.586   1.001   1.280
 2760SOL    HW2 8299   4.556   1.094   1.412
 2761SOL     OW 8300   4.096   1.288   1.490
 2761SOL    HW1 8301   4.083   1.381   1.456
 2761SOL    HW2 8302   4.012   1.236   1.477
 2762SOL     OW 8303   4.314   1.487   0.491
 2762SOL    HW1 8304   4.356   1.429   0.421
 2762SOL    HW2 8305   4.270   1.566   0.447
 2763SOL     OW 8306   3.979   1.348   0.290
 2763SOL    HW1 8307   3.883   1.349   0.263
 2763SOL    HW2 8308   3.991   1.401   0.374
 2764SOL     OW 8309   3.829   1.013   1.726
 2764SOL    HW1 8310   3.752   0.980   1.780
 2764SOL    HW2 8311   3.914   0.983   1.768
 2765SOL     OW 8312   4.396   0.203   1.489
 2765SOL    HW1 8313   4.486   0.187   1.449
 2765SOL    HW2 8314   4.404   0.208   1.588
 2766SOL     OW 8315   4.337   0.842   1.431
 2766SOL    HW1 8316   4.393   0.923   1.414
 2766SOL    HW2 8317   4.396   0.762   1.434
 2767SOL     OW 8318   4.440   0.565   1.708
 2767SOL    HW1 8319   4.459   0.630   1.782
 2767SOL    HW2 8320   4.500   0.485   1.717
 2768SOL     OW 8321   4.114   1.741   1.560
 2768SOL    HW1 8322   4.023   1.782   1.558
 2768SOL    HW2 8323   4.107   1.647   1.592
 2769SOL     OW 8324   4.949   0.325   0.449
 2769SOL    HW1 8325   5.014   0.251   0.438
 2769SOL    HW2 8326   4.969   0.375   0.533
 2770SOL     OW 8327   4.318   0.745   0.652
 2770SOL    HW1 8328   4.368   0.830   0.633
 2770SOL    HW2 8329   4.230   0.747   0.604
 2771SOL     OW 8330   4.385   1.790   0.953
 2771SOL    HW1 8331   4.339   1.878   0.940
 2771SOL    HW2 8332   4.484   1.802   0.946
 2772SOL     OW 8333   4.583   0.956   0.861
 2772SOL    HW1 8334   4.637   0.887   0.909
 2772SOL    HW2 8335   4.551   1.025   0.927
 2773SOL     OW 8336   4.807   0.984   0.087
 2773SOL    HW1 8337   4.784   1.037   0.005
 2773SOL    HW2 8338   4.888   0.928   0.068
 2774SOL     OW 8339   3.945   1.314   1.844
 2774SOL    HW1 8340   3.880   1.241   1.823
 2774SOL    HW2 8341   3.949   1.328   1.942
 2775SOL     OW 8342   3.803   1.240   0.653
 2775SOL    HW1 8343   3.802   1.193   0.741
 2775SOL    HW2 8344   3.885   1.212   0.602
 2776SOL     OW 8345   4.396   1.391   1.624
 2776SOL    HW1 8346   4.318   1.341   1.662
 2776SOL    HW2 8347   4.393   1.486   1.655
 2777SOL     OW 8348   4.152   0.424   0.520
 2777SOL    HW1 8349   4.182   0.352   0.458
 2777SOL    HW2 8350   4.113   0.384   0.603
 2778SOL     OW 8351   4.041   0.547   1.280
 2778SOL    HW1 8352   4.079   0.488   1.352
 2778SOL    HW2 8353   4.081   0.521   1.192
 2779SOL     OW 8354   4.536   1.586   0.687
 2779SOL    HW1 8355   4.568   1.596   0.593
 2779SOL    HW2 8356   4.457   1.524   0.689
 2780SOL     OW 8357   4.494   1.330   0.301
 2780SOL    HW1 8358   4.448   1.243   0.318
 2780SOL    HW2 8359   4.585   1.327   0.342
 2781SOL     OW 8360   4.342   1.567   1.284
 2781SOL    HW1 8361   4.337   1.649   1.341
 2781SOL    HW2 8362   4.431   1.564   1.239
 2782SOL     OW 8363   3.763   1.077   0.300
 2782SOL    HW1 8364   3.862   1.066   0.291
 2782SOL    HW2 8365   3.723   0.991   0.332
 2783SOL     OW 8366   4.599   1.646   0.337
 2783SOL    HW1 8367   4.522   1.611   0.283
 2783SOL    HW2 8368   4.567   1.717   0.399
 2784SOL     OW 8369   3.954   0.628   1.975
 2784SOL    HW1 8370   3.861   0.626   2.012
 2784SOL    HW2 8371   3.955   0.589   1.883
 2785SOL     OW 8372   3.949   0.275   2.858
 2785SOL    HW1 8373   3.984   0.258   2.950
 2785SOL    HW2 8374   3.861   0.230   2.846
 2786SOL     OW 8375   3.743   0.368   2.509
 2786SOL    HW1 8376   3.661   0.411   2.548
 2786SOL    HW2 8377   3.715   0.295   2.446
 2787SOL     OW 8378   4.293   1.275   3.027
 2787SOL    HW1 8379   4.200   1.268   2.990
 2787SOL    HW2 8380   4.304   1.364   3.071
 2788SOL     OW 8381   4.492   1.144   2.885
 2788SOL    HW1 8382   4.414   1.161   2.945
 2788SOL    HW2 8383   4.526   1.231   2.849
 2789SOL     OW 8384   4.574   0.798   3.685
 2789SOL    HW1 8385   4.570   0.874   3.750
 2789SOL    HW2 8386   4.596   0.834   3.594
 2790SOL     OW 8387   4.409   1.012   2.527
 2790SOL    HW1 8388   4.478   0.996   2.597
 2790SOL    HW2 8389   4.336   1.069   2.565
 2791SOL     OW 8390   4.410   1.161   3.665
 2791SOL    HW1 8391   4.470   1.240   3.679
 2791SOL    HW2 8392   4.324   1.192   3.624
 2792SOL     OW 8393   4.059   1.435   2.923
 2792SOL    HW1 8394   3.981   1.404   2.870
 2792SOL    HW2 8395   4.117   1.493   2.866
 2793SOL     OW 8396   4.162   0.392   3.361
 2793SOL    HW1 8397   4.244   0.336   3.370
 2793SOL    HW2 8398   4.081   0.334   3.365
 2794SOL     OW 8399   3.955   1.713   2.345
 2794SOL    HW1 8400   3.989   1.790   2.399
 2794SOL    HW2 8401   3.999   1.713   2.255
 2795SOL     OW 8402   3.954   1.434   2.400
 2795SOL    HW1 8403   3.928   1.530   2.400
 2795SOL    HW2 8404   3.883   1.380   2.445
 2796SOL     OW 8405   3.964   1.091   2.748
 2796SOL    HW1 8406   3.978   1.007   2.800
 2796SOL    HW2 8407   3.909   1.155   2.803
 2797SOL     OW 8408   4.344   1.786   3.301
 2797SOL    HW1 8409   4.252   1.769   3.336
 2797SOL    HW2 8410   4.372   1.878   3.327
 2798SOL     OW 8411   4.330   0.964   1.985
 2798SOL    HW1 8412   4.337   1.048   1.931
 2798SOL    HW2 8413   4.376   0.977   2.073
 2799SOL     OW 8414   3.846   0.643   2.425
 2799SOL    HW1 8415   3.801   0.555   2.442
 2799SOL    HW2 8416   3.845   0.697   2.509
 2800SOL     OW 8417   3.751   1.596   1.979
 2800SOL    HW1 8418   3.732   1.500   2.000
 2800SOL    HW2 8419   3.718   1.654   2.054
 2801SOL     OW 8420   3.837   0.737   3.459
 2801SOL    HW1 8421   3.925   0.724   3.504
 2801SOL    HW2 8422   3.824   0.834   3.437
 2802SOL     OW 8423   4.337   1.365   2.588
 2802SOL    HW1 8424   4.288   1.278   2.597
 2802SOL    HW2 8425   4.314   1.408   2.501
 2803SOL     OW 8426   4.533   0.004   2.364
 2803SOL    HW1 8427   4.573   0.095   2.355
 2803SOL    HW2 8428   4.433   0.012   2.370
 2804SOL     OW 8429   3.921   0.976   3.126
 2804SOL    HW1 8430   4.010   0.931   3.112
 2804SOL    HW2 8431   3.848   0.911   3.107
 2805SOL     OW 8432   4.041   0.251   3.663
 2805SOL    HW1 8433   4.112   0.322   3.669
 2805SOL    HW2 8434   3.953   0.290   3.691
 2806SOL     OW 8435   4.322   0.729   2.132
 2806SOL    HW1 8436   4.346   0.798   2.064
 2806SOL    HW2 8437   4.244   0.762   2.186
 2807SOL     OW 8438   4.531   0.605   3.327
 2807SOL    HW1 8439   4.484   0.602   3.416
 2807SOL    HW2 8440   4.480   0.550   3.261
 2808SOL     OW 8441   4.715   0.410   3.104
 2808SOL    HW1 8442   4.638   0.444   3.158
 2808SOL    HW2 8443   4.681   0.359   3.025
 2809SOL     OW 8444   3.800   0.811   2.651
 2809SOL    HW1 8445   3.899   0.799   2.660
 2809SOL    HW2 8446   3.776   0.906   2.672
 2810SOL     OW 8447   3.854   1.821   3.433
 2810SOL    HW1 8448   3.844   1.806   3.532
 2810SOL    HW2 8449   3.768   1.857   3.397
 2811SOL     OW 8450   4.589   0.348   2.057
 2811SOL    HW1 8451   4.648   0.411   2.008
 2811SOL    HW2 8452   4.608   0.254   2.028
 2812SOL     OW 8453   4.274   0.196   2.747
 2812SOL    HW1 8454   4.269   0.191   2.847
 2812SOL    HW2 8455   4.276   0.292   2.718
 2813SOL     OW 8456   4.732   1.456   2.339
 2813SOL    HW1 8457   4.686   1.528   2.287
 2813SOL    HW2 8458   4.728   1.476   2.437
 2814SOL     OW 8459   4.075   1.801   2.715
 2814SOL    HW1 8460   4.125   1.715   2.721
 2814SOL    HW2 8461   4.140   1.878   2.712
 2815SOL     OW 8462   4.045   0.943   2.104
 2815SOL    HW1 8463   4.127   0.982   2.062
 2815SOL    HW2 8464   4.018   0.861   2.055
 2816SOL     OW 8465   4.185   1.266   3.589
 2816SOL    HW1 8466   4.135   1.267   3.503
 2816SOL    HW2 8467   4.122   1.248   3.665
 2817SOL     OW 8468   3.926   0.285   3.360
 2817SOL    HW1 8469   3.846   0.345   3.347
 2817SOL    HW2 8470   3.916   0.236   3.446
 2818SOL     OW 8471   4.188   1.743   2.185
 2818SOL    HW1 8472   4.221   1.782   2.271
 2818SOL    HW2 8473   4.264   1.736   2.120
 2819SOL     OW 8474   3.973   1.785   3.103
 2819SOL    HW1 8475   4.030   1.720   3.153
 2819SOL    HW2 8476   3.957   1.752   3.010
 2820SOL     OW 8477   4.106   0.700   2.342
 2820SOL    HW1 8478   4.151   0.610   2.339
 2820SOL    HW2 8479   4.012   0.689   2.375
 2821SOL     OW 8480   4.338   0.122   1.979
 2821SOL    HW1 8481   4.436   0.100   1.986
 2821SOL    HW2 8482   4.307   0.105   1.886
 2822SOL     OW 8483   4.505   0.264   3.611
 2822SOL    HW1 8484   4.572   0.203   3.654
 2822SOL    HW2 8485   4.432   0.283   3.676
 2823SOL     OW 8486   4.527   1.402   2.786
 2823SOL    HW1 8487   4.617   1.416   2.744
 2823SOL    HW2 8488   4.456   1.404   2.715
 2824SOL     OW 8489   4.646   0.503   2.761
 2824SOL    HW1 8490   4.621   0.494   2.665
 2824SOL    HW2 8491   4.694   0.421   2.792
 2825SOL     OW 8492   4.263   0.064   2.374
 2825SOL    HW1 8493   4.182   0.065   2.432
 2825SOL    HW2 8494   4.266   0.147   2.319
 2826SOL     OW 8495   4.021   0.035   2.033
 2826SOL    HW1 8496   4.070   0.119   2.012
 2826SOL    HW2 8497   4.083  -0.030   2.078
 2827SOL     OW 8498   4.951   1.570   2.655
 2827SOL    HW1 8499   4.972   1.644   2.590
 2827SOL    HW2 8500   5.019   1.570   2.728
 2828SOL     OW 8501   4.183   1.152   2.603
 2828SOL    HW1 8502   4.112   1.125   2.668
 2828SOL    HW2 8503   4.157   1.124   2.510
 2829SOL     OW 8504   3.802   0.556   3.248
 2829SOL    HW1 8505   3.894   0.555   3.207
 2829SOL    HW2 8506   3.796   0.630   3.315
 2830SOL     OW 8507   4.285   0.222   3.009
 2830SOL    HW1 8508   4.323   0.138   3.046
 2830SOL    HW2 8509   4.197   0.241   3.053
 2831SOL     OW 8510   4.212   1.385   2.036
 2831SOL    HW1 8511   4.125   1.370   2.083
 2831SOL    HW2 8512   4.195   1.411   1.941
 2832SOL     OW 8513   4.251   0.256   2.190
 2832SOL    HW1 8514   4.278   0.197   2.115
 2832SOL    HW2 8515   4.251   0.351   2.159
 2833SOL     OW 8516   4.639   0.089   3.264
 2833SOL    HW1 8517   4.664   0.069   3.169
 2833SOL    HW2 8518   4.711   0.145   3.306
 2834SOL     OW 8519   4.429   1.050   2.230
 2834SOL    HW1 8520   4.415   1.057   2.329
 2834SOL    HW2 8521   4.513   0.999   2.212
 2835SOL     OW 8522   4.134   0.813   3.113
 2835SOL    HW1 8523   4.220   0.825   3.163
 2835SOL    HW2 8524   4.092   0.726   3.140
 2836SOL     OW 8525   3.788   1.564   3.193
 2836SOL    HW1 8526   3.742   1.646   3.159
 2836SOL    HW2 8527   3.886   1.583   3.202
 2837SOL     OW 8528   4.091   1.100   2.363
 2837SOL    HW1 8529   4.084   1.183   2.307
 2837SOL    HW2 8530   4.095   1.020   2.303
 2838SOL     OW 8531   4.290   0.537   2.727
 2838SOL    HW1 8532   4.302   0.603   2.653
 2838SOL    HW2 8533   4.336   0.571   2.810
 2839SOL     OW 8534   4.078   1.510   3.191
 2839SOL    HW1 8535   4.057   1.466   3.104
 2839SOL    HW2 8536   4.175   1.536   3.194
 2840SOL     OW 8537   4.126   0.751   3.460
 2840SOL    HW1 8538   4.194   0.806   3.413
 2840SOL    HW2 8539   4.166   0.663   3.487
 2841SOL     OW 8540   4.228   0.050   3.602
 2841SOL    HW1 8541   4.186  -0.007   3.532
 2841SOL    HW2 8542   4.162   0.119   3.634
 2842SOL     OW 8543   4.297   0.870   2.891
 2842SOL    HW1 8544   4.341   0.959   2.882
 2842SOL    HW2 8545   4.234   0.870   2.968
 2843SOL     OW 8546   4.933   0.525   2.137
 2843SOL    HW1 8547   4.946   0.441   2.191
 2843SOL    HW2 8548   4.904   0.599   2.197
 2844SOL     OW 8549   4.031   0.213   3.093
 2844SOL    HW1 8550   4.008   0.250   3.183
 2844SOL    HW2 8551   4.001   0.118   3.087
 2845SOL     OW 8552   3.761   1.310   3.144
 2845SOL    HW1 8553   3.814   1.261   3.212
 2845SOL    HW2 8554   3.783   1.408   3.149
 2846SOL     OW 8555   4.456   0.634   2.926
 2846SOL    HW1 8556   4.515   0.608   2.850
 2846SOL    HW2 8557   4.428   0.730   2.915
 2847SOL     OW 8558   4.031   0.063   2.480
 2847SOL    HW1 8559   4.020   0.157   2.513
 2847SOL    HW2 8560   4.026   0.000   2.557
 2848SOL     OW 8561   4.747   0.766   2.828
 2848SOL    HW1 8562   4.762   0.787   2.924
 2848SOL    HW2 8563   4.717   0.671   2.819
 2849SOL     OW 8564   4.704   1.573   3.562
 2849SOL    HW1 8565   4.684   1.617   3.474
 2849SOL    HW2 8566   4.743   1.482   3.546
 2850SOL     OW 8567   4.074   0.898   3.666
 2850SOL    HW1 8568   4.150   0.942   3.714
 2850SOL    HW2 8569   4.109   0.851   3.584
 2851SOL     OW 8570   4.043   0.810   2.811
 2851SOL    HW1 8571   4.136   0.846   2.816
 2851SOL    HW2 8572   4.037   0.725   2.863
 2852SOL     OW 8573   4.063   0.509   2.868
 2852SOL    HW1 8574   4.011   0.426   2.851
 2852SOL    HW2 8575   4.140   0.514   2.804
 2853SOL     OW 8576   3.732   1.326   2.062
 2853SOL    HW1 8577   3.639   1.347   2.031
 2853SOL    HW2 8578   3.742   1.227   2.075
 2854SOL     OW 8579   3.812   1.801   2.789
 2854SOL    HW1 8580   3.770   1.715   2.762
 2854SOL    HW2 8581   3.906   1.804   2.755
 2855SOL     OW 8582   4.228   1.568   2.772
 2855SOL    HW1 8583   4.294   1.642   2.781
 2855SOL    HW2 8584   4.272   1.489   2.730
 2856SOL     OW 8585   4.726   0.796   3.100
 2856SOL    HW1 8586   4.767   0.764   3.186
 2856SOL    HW2 8587   4.630   0.769   3.097
 2857SOL     OW 8588   3.764   0.544   2.976
 2857SOL    HW1 8589   3.849   0.511   2.935
 2857SOL    HW2 8590   3.777   0.559   3.074
 2858SOL     OW 8591   3.913   0.520   3.584
 2858SOL    HW1 8592   3.972   0.480   3.514
 2858SOL    HW2 8593   3.855   0.591   3.543
 2859SOL     OW 8594   4.539   0.572   2.187
 2859SOL    HW1 8595   4.546   0.483   2.141
 2859SOL    HW2 8596   4.445   0.606   2.179
 2860SOL     OW 8597   3.976   1.564   3.606
 2860SOL    HW1 8598   3.946   1.621   3.682
 2860SOL    HW2 8599   3.969   1.467   3.632
 2861SOL     OW 8600   4.395   0.464   3.131
 2861SOL    HW1 8601   4.361   0.375   3.101
 2861SOL    HW2 8602   4.421   0.518   3.051
 2862SOL     OW 8603   4.197   0.500   2.053
 2862SOL    HW1 8604   4.258   0.580   2.057
 2862SOL    HW2 8605   4.102   0.531   2.060
 2863SOL     OW 8606   3.883   1.137   3.328
 2863SOL    HW1 8607   3.905   1.076   3.404
 2863SOL    HW2 8608   3.893   1.088   3.242
 2864SOL     OW 8609   3.807   1.258   2.884
 2864SOL    HW1 8610   3.802   1.257   2.984
 2864SOL    HW2 8611   3.724   1.217   2.846
 2865SOL     OW 8612   4.412   1.662   3.578
 2865SOL    HW1 8613   4.356   1.743   3.587
 2865SOL    HW2 8614   4.464   1.666   3.492
 2866SOL     OW 8615   4.627   0.086   1.995
 2866SOL    HW1 8616   4.678   0.087   1.909
 2866SOL    HW2 8617   4.683   0.044   2.066
 2867SOL     OW 8618   3.854   1.794   3.713
 2867SOL    HW1 8619   3.813   1.720   3.766
 2867SOL    HW2 8620   3.918   1.845   3.771
 2868SOL     OW 8621   4.554   1.273   3.284
 2868SOL    HW1 8622   4.549   1.306   3.379
 2868SOL    HW2 8623   4.468   1.292   3.238
 2869SOL     OW 8624   4.396   1.616   2.016
 2869SOL    HW1 8625   4.405   1.626   1.917
 2869SOL    HW2 8626   4.356   1.527   2.037
 2870SOL     OW 8627   3.987   0.326   2.582
 2870SOL    HW1 8628   3.908   0.377   2.548
 2870SOL    HW2 8629   3.978   0.311   2.680
 2871SOL     OW 8630   4.546   1.002   3.234
 2871SOL    HW1 8631   4.586   1.001   3.142
 2871SOL    HW2 8632   4.556   1.094   3.274
 2872SOL     OW 8633   4.096   1.288   3.352
 2872SOL    HW1 8634   4.083   1.381   3.318
 2872SOL    HW2 8635   4.012   1.236   3.339
 2873SOL     OW 8636   4.314   1.487   2.353
 2873SOL    HW1 8637   4.356   1.429   2.283
 2873SOL    HW2 8638   4.270   1.566   2.309
 2874SOL     OW 8639   3.979   1.348   2.152
 2874SOL    HW1 8640   3.883   1.349   2.125
 2874SOL    HW2 8641   3.991   1.401   2.236
 2875SOL     OW 8642   3.829   1.013   3.588
 2875SOL    HW1 8643   3.752   0.980   3.642
 2875SOL    HW2 8644   3.914   0.983   3.630
 2876SOL     OW 8645   4.396   0.203   3.351
 2876SOL    HW1 8646   4.486   0.187   3.311
 2876SOL    HW2 8647   4.404   0.208   3.450
 2877SOL     OW 8648   3.799   0.345   1.895
 2877SOL    HW1 8649   3.707   0.317   1.866
 2877SOL    HW2 8650   3.830   0.422   1.839
 2878SOL     OW 8651   3.796   0.166   2.180
 2878SOL    HW1 8652   3.779   0.249   2.126
 2878SOL    HW2 8653   3.886   0.129   2.158
 2879SOL     OW 8654   4.337   0.842   3.293
 2879SOL    HW1 8655   4.393   0.923   3.276
 2879SOL    HW2 8656   4.396   0.762   3.296
 2880SOL     OW 8657   4.440   0.565   3.570
 2880SOL    HW1 8658   4.459   0.630   3.644
 2880SOL    HW2 8659   4.500   0.485   3.579
 2881SOL     OW 8660   4.114   1.741   3.422
 2881SOL    HW1 8661   4.023   1.782   3.420
 2881SOL    HW2 8662   4.107   1.647   3.454
 2882SOL     OW 8663   4.949   0.325   2.311
 2882SOL    HW1 8664   5.014   0.251   2.300
 2882SOL    HW2 8665   4.969   0.375   2.395
 2883SOL     OW 8666   4.318   0.745   2.514
 2883SOL    HW1 8667   4.368   0.830   2.495
 2883SOL    HW2 8668   4.230   0.747   2.466
 2884SOL     OW 8669   4.385   1.790   2.815
 2884SOL    HW1 8670   4.339   1.878   2.802
 2884SOL    HW2 8671   4.484   1.802   2.808
 2885SOL     OW 8672   4.583   0.956   2.723
 2885SOL    HW1 8673   4.637   0.887   2.771
 2885SOL    HW2 8674   4.551   1.025   2.789
 2886SOL     OW 8675   3.945   1.314   3.706
 2886SOL    HW1 8676   3.880   1.241   3.685
 2886SOL    HW2 8677   3.949   1.328   3.804
 2887SOL     OW 8678   3.803   1.240   2.515
 2887SOL    HW1 8679   3.802   1.193   2.603
 2887SOL    HW2 8680   3.885   1.212   2.464
 2888SOL     OW 8681   4.396   1.391   3.486
 2888SOL    HW1 8682   4.318   1.341   3.524
 2888SOL    HW2 8683   4.393   1.486   3.517
 2889SOL     OW 8684   4.152   0.424   2.382
 2889SOL    HW1 8685   4.182   0.352   2.320
 2889SOL    HW2 8686   4.113   0.384   2.465
 2890SOL     OW 8687   4.041   0.547   3.142
 2890SOL    HW1 8688   4.079   0.488   3.214
 2890SOL    HW2 8689   4.081   0.521   3.054
 2891SOL     OW 8690   4.536   1.586   2.549
 2891SOL    HW1 8691   4.568   1.596   2.455
 2891SOL    HW2 8692   4.457   1.524   2.551
 2892SOL     OW 8693   4.494   1.330   2.163
 2892SOL    HW1 8694   4.448   1.243   2.180
 2892SOL    HW2 8695   4.585   1.327   2.204
 2893SOL     OW 8696   4.342   1.567   3.146
 2893SOL    HW1 8697   4.337   1.649   3.203
 2893SOL    HW2 8698   4.431   1.564   3.101
 2894SOL     OW 8699   3.763   1.077   2.162
 2894SOL    HW1 8700   3.862   1.066   2.153
 2894SOL    HW2 8701   3.723   0.991   2.194
 2895SOL     OW 8702   4.599   1.646   2.199
 2895SOL    HW1 8703   4.522   1.611   2.145
 2895SOL    HW2 8704   4.567   1.717   2.261
 2896SOL     OW 8705   3.954   0.628   3.837
 2896SOL    HW1 8706   3.861   0.626   3.874
 2896SOL    HW2 8707   3.955   0.589   3.745
 2897SOL     OW 8708   3.949   0.275   4.720
 2897SOL    HW1 8709   3.984   0.258   4.812
 2897SOL    HW2 8710   3.861   0.230   4.708
 2898SOL     OW 8711   3.743   0.368   4.371
 2898SOL    HW1 8712   3.661   0.411   4.410
 2898SOL    HW2 8713   3.715   0.295   4.308
 2899SOL     OW 8714   4.492   1.144   4.747
 2899SOL    HW1 8715   4.414   1.161   4.807
 2899SOL    HW2 8716   4.526   1.231   4.711
 2900SOL     OW 8717   4.409   1.012   4.389
 2900SOL    HW1 8718   4.478   0.996   4.459
 2900SOL    HW2 8719   4.336   1.069   4.427
 2901SOL     OW 8720   3.955   1.713   4.207
 2901SOL    HW1 8721   3.989   1.790   4.261
 2901SOL    HW2 8722   3.999   1.713   4.117
 2902SOL     OW 8723   3.954   1.434   4.262
 2902SOL    HW1 8724   3.928   1.530   4.262
 2902SOL    HW2 8725   3.883   1.380   4.307
 2903SOL     OW 8726   3.964   1.091   4.610
 2903SOL    HW1 8727   3.978   1.007   4.662
 2903SOL    HW2 8728   3.909   1.155   4.665
 2904SOL     OW 8729   4.330   0.964   3.847
 2904SOL    HW1 8730   4.337   1.048   3.793
 2904SOL    HW2 8731   4.376   0.977   3.935
 2905SOL     OW 8732   3.846   0.643   4.287
 2905SOL    HW1 8733   3.801   0.555   4.304
 2905SOL    HW2 8734   3.845   0.697   4.371
 2906SOL     OW 8735   3.751   1.596   3.841
 2906SOL    HW1 8736   3.732   1.500   3.862
 2906SOL    HW2 8737   3.718   1.654   3.916
 2907SOL     OW 8738   4.337   1.365   4.450
 2907SOL    HW1 8739   4.288   1.278   4.459
 2907SOL    HW2 8740   4.314   1.408   4.363
 2908SOL     OW 8741   4.533   0.004   4.226
 2908SOL    HW1 8742   4.573   0.095   4.217
 2908SOL    HW2 8743   4.433   0.012   4.232
 2909SOL     OW 8744   4.322   0.729   3.994
 2909SOL    HW1 8745   4.346   0.798   3.926
 2909SOL    HW2 8746   4.244   0.762   4.048
 2910SOL     OW 8747   3.800   0.811   4.513
 2910SOL    HW1 8748   3.899   0.799   4.522
 2910SOL    HW2 8749   3.776   0.906   4.534
 2911SOL     OW 8750   4.589   0.348   3.919
 2911SOL    HW1 8751   4.648   0.411   3.870
 2911SOL    HW2 8752   4.608   0.254   3.890
 2912SOL     OW 8753   4.732   1.456   4.201
 2912SOL    HW1 8754   4.686   1.528   4.149
 2912SOL    HW2 8755   4.728   1.476   4.299
 2913SOL     OW 8756   4.075   1.801   4.577
 2913SOL    HW1 8757   4.125   1.715   4.583
 2913SOL    HW2 8758   4.140   1.878   4.574
 2914SOL     OW 8759   4.045   0.943   3.966
 2914SOL    HW1 8760   4.127   0.982   3.924
 2914SOL    HW2 8761   4.018   0.861   3.917
 2915SOL     OW 8762   4.188   1.743   4.047
 2915SOL    HW1 8763   4.221   1.782   4.133
 2915SOL    HW2 8764   4.264   1.736   3.982
 2916SOL     OW 8765   4.106   0.700   4.204
 2916SOL    HW1 8766   4.151   0.610   4.201
 2916SOL    HW2 8767   4.012   0.689   4.237
 2917SOL     OW 8768   4.338   0.122   3.841
 2917SOL    HW1 8769   4.436   0.100   3.848
 2917SOL    HW2 8770   4.307   0.105   3.748
 2918SOL     OW 8771   4.527   1.402   4.648
 2918SOL    HW1 8772   4.617   1.416   4.606
 2918SOL    HW2 8773   4.456   1.404   4.577
 2919SOL     OW 8774   4.263   0.064   4.236
 2919SOL    HW1 8775   4.182   0.065   4.294
 2919SOL    HW2 8776   4.266   0.147   4.181
 2920SOL     OW 8777   4.021   0.035   3.895
 2920SOL    HW1 8778   4.070   0.119   3.874
 2920SOL    HW2 8779   4.083  -0.030   3.940
 2921SOL     OW 8780   4.951   1.570   4.517
 2921SOL    HW1 8781   4.972   1.644   4.452
 2921SOL    HW2 8782   5.019   1.570   4.590
 2922SOL     OW 8783   4.183   1.152   4.465
 2922SOL    HW1 8784   4.112   1.125   4.530
 2922SOL    HW2 8785   4.157   1.124   4.372
 2923SOL     OW 8786   4.212   1.385   3.898
 2923SOL    HW1 8787   4.125   1.370   3.945
 2923SOL    HW2 8788   4.195   1.411   3.803
 2924SOL     OW 8789   4.251   0.256   4.052
 2924SOL    HW1 8790   4.278   0.197   3.977
 2924SOL    HW2 8791   4.251   0.351   4.021
 2925SOL     OW 8792   4.429   1.050   4.092
 2925SOL    HW1 8793   4.415   1.057   4.191
 2925SOL    HW2 8794   4.513   0.999   4.074
 2926SOL     OW 8795   4.091   1.100   4.225
 2926SOL    HW1 8796   4.084   1.183   4.169
 2926SOL    HW2 8797   4.095   1.020   4.165
 2927SOL     OW 8798   4.290   0.537   4.589
 2927SOL    HW1 8799   4.302   0.603   4.515
 2927SOL    HW2 8800   4.336   0.571   4.672
 2928SOL     OW 8801   4.933   0.525   3.999
 2928SOL    HW1 8802   4.946   0.441   4.053
 2928SOL    HW2 8803   4.904   0.599   4.059
 2929SOL     OW 8804   4.456   0.634   4.788
 2929SOL    HW1 8805   4.515   0.608   4.712
 2929SOL    HW2 8806   4.428   0.730   4.777
 2930SOL     OW 8807   4.031   0.063   4.342
 2930SOL    HW1 8808   4.020   0.157   4.375
 2930SOL    HW2 8809   4.026   0.000   4.419
 2931SOL     OW 8810   4.747   0.766   4.690
 2931SOL    HW1 8811   4.762   0.787   4.786
 2931SOL    HW2 8812   4.717   0.671   4.681
 2932SOL     OW 8813   4.043   0.810   4.673
 2932SOL    HW1 8814   4.136   0.846   4.678
 2932SOL    HW2 8815   4.037   0.725   4.725
 2933SOL     OW 8816   3.732   1.326   3.924
 2933SOL    HW1 8817   3.639   1.347   3.893
 2933SOL    HW2 8818   3.742   1.227   3.937
 2934SOL     OW 8819   3.812   1.801   4.651
 2934SOL    HW1 8820   3.770   1.715   4.624
 2934SOL    HW2 8821   3.906   1.804   4.617
 2935SOL     OW 8822   4.228   1.568   4.634
 2935SOL    HW1 8823   4.294   1.642   4.643
 2935SOL    HW2 8824   4.272   1.489   4.592
 2936SOL     OW 8825   4.726   0.796   4.962
 2936SOL    HW1 8826   4.767   0.764   5.048
 2936SOL    HW2 8827   4.630   0.769   4.959
 2937SOL     OW 8828   4.539   0.572   4.049
 2937SOL    HW1 8829   4.546   0.483   4.003
 2937SOL    HW2 8830   4.445   0.606   4.041
 2938SOL     OW 8831   4.197   0.500   3.915
 2938SOL    HW1 8832   4.258   0.580   3.919
 2938SOL    HW2 8833   4.102   0.531   3.922
 2939SOL     OW 8834   4.627   0.086   3.857
 2939SOL    HW1 8835   4.678   0.087   3.771
 2939SOL    HW2 8836   4.683   0.044   3.928
 2940SOL     OW 8837   4.396   1.616   3.878
 2940SOL    HW1 8838   4.405   1.626   3.779
 2940SOL    HW2 8839   4.356   1.527   3.899
 2941SOL     OW 8840   3.987   0.326   4.444
 2941SOL    HW1 8841   3.908   0.377   4.410
 2941SOL    HW2 8842   3.978   0.311   4.542
 2942SOL     OW 8843   4.314   1.487   4.215
 2942SOL    HW1 8844   4.356   1.429   4.145
 2942SOL    HW2 8845   4.270   1.566   4.171
 2943SOL     OW 8846   3.979   1.348   4.014
 2943SOL    HW1 8847   3.883   1.349   3.987
 2943SOL    HW2 8848   3.991   1.401   4.098
 2944SOL     OW 8849   3.799   0.345   3.757
 2944SOL    HW1 8850   3.707   0.317   3.728
 2944SOL    HW2 8851   3.830   0.422   3.701
 2945SOL     OW 8852   3.796   0.166   4.042
 2945SOL    HW1 8853   3.779   0.249   3.988
 2945SOL    HW2 8854   3.886   0.129   4.020
 2946SOL     OW 8855   4.949   0.325   4.173
 2946SOL    HW1 8856   5.014   0.251   4.162
 2946SOL    HW2 8857   4.969   0.375   4.257
 2947SOL     OW 8858   4.318   0.745   4.376
 2947SOL    HW1 8859   4.368   0.830   4.357
 2947SOL    HW2 8860   4.230   0.747   4.328
 2948SOL     OW 8861   4.385   1.790   4.677
 2948SOL    HW1 8862   4.339   1.878   4.664
 2948SOL    HW2 8863   4.484   1.802   4.670
 2949SOL     OW 8864   4.583   0.956   4.585
 2949SOL    HW1 8865   4.637   0.887   4.633
 2949SOL    HW2 8866   4.551   1.025   4.651
 2950SOL     OW 8867   3.803   1.240   4.377
 2950SOL    HW1 8868   3.802   1.193   4.465
 2950SOL    HW2 8869   3.885   1.212   4.326
 2951SOL     OW 8870   4.152   0.424   4.244
 2951SOL    HW1 8871   4.182   0.352   4.182
 2951SOL    HW2 8872   4.113   0.384   4.327
 2952SOL     OW 8873   4.536   1.586   4.411
 2952SOL    HW1 8874   4.568   1.596   4.317
 2952SOL    HW2 8875   4.457   1.524   4.413
 2953SOL     OW 8876   4.494   1.330   4.025
 2953SOL    HW1 8877   4.448   1.243   4.042
 2953SOL    HW2 8878   4.585   1.327   4.066
 2954SOL     OW 8879   3.763   1.077   4.024
 2954SOL    HW1 8880   3.862   1.066   4.015
 2954SOL    HW2 8881   3.723   0.991   4.056
 2955SOL     OW 8882   4.599   1.646   4.061
 2955SOL    HW1 8883   4.522   1.611   4.007
 2955SOL    HW2 8884   4.567   1.717   4.123
 2956SOL     OW 8885   3.954   2.490   0.113
 2956SOL    HW1 8886   3.861   2.488   0.150
 2956SOL    HW2 8887   3.955   2.451   0.021
 2957SOL     OW 8888   3.949   2.137   0.996
 2957SOL    HW1 8889   3.984   2.120   1.088
 2957SOL    HW2 8890   3.861   2.092   0.984
 2958SOL     OW 8891   3.743   2.230   0.647
 2958SOL    HW1 8892   3.661   2.273   0.686
 2958SOL    HW2 8893   3.715   2.157   0.584
 2959SOL     OW 8894   4.293   3.137   1.165
 2959SOL    HW1 8895   4.200   3.130   1.128
 2959SOL    HW2 8896   4.304   3.226   1.209
 2960SOL     OW 8897   4.492   3.006   1.023
 2960SOL    HW1 8898   4.414   3.023   1.083
 2960SOL    HW2 8899   4.526   3.093   0.987
 2961SOL     OW 8900   4.574   2.660   1.823
 2961SOL    HW1 8901   4.570   2.736   1.888
 2961SOL    HW2 8902   4.596   2.696   1.732
 2962SOL     OW 8903   4.409   2.874   0.665
 2962SOL    HW1 8904   4.478   2.858   0.735
 2962SOL    HW2 8905   4.336   2.931   0.703
 2963SOL     OW 8906   4.410   3.023   1.803
 2963SOL    HW1 8907   4.470   3.102   1.817
 2963SOL    HW2 8908   4.324   3.054   1.762
 2964SOL     OW 8909   4.059   3.297   1.061
 2964SOL    HW1 8910   3.981   3.266   1.008
 2964SOL    HW2 8911   4.117   3.355   1.004
 2965SOL     OW 8912   4.162   2.254   1.499
 2965SOL    HW1 8913   4.244   2.198   1.508
 2965SOL    HW2 8914   4.081   2.196   1.503
 2966SOL     OW 8915   3.955   3.575   0.483
 2966SOL    HW1 8916   3.989   3.652   0.537
 2966SOL    HW2 8917   3.999   3.575   0.393
 2967SOL     OW 8918   3.954   3.296   0.538
 2967SOL    HW1 8919   3.928   3.392   0.538
 2967SOL    HW2 8920   3.883   3.242   0.583
 2968SOL     OW 8921   3.964   2.953   0.886
 2968SOL    HW1 8922   3.978   2.869   0.938
 2968SOL    HW2 8923   3.909   3.017   0.941
 2969SOL     OW 8924   4.344   3.648   1.439
 2969SOL    HW1 8925   4.252   3.631   1.474
 2969SOL    HW2 8926   4.372   3.740   1.465
 2970SOL     OW 8927   4.330   2.826   0.123
 2970SOL    HW1 8928   4.337   2.910   0.069
 2970SOL    HW2 8929   4.376   2.839   0.211
 2971SOL     OW 8930   3.846   2.505   0.563
 2971SOL    HW1 8931   3.801   2.417   0.580
 2971SOL    HW2 8932   3.845   2.559   0.647
 2972SOL     OW 8933   3.837   2.599   1.597
 2972SOL    HW1 8934   3.925   2.586   1.642
 2972SOL    HW2 8935   3.824   2.696   1.575
 2973SOL     OW 8936   4.337   3.227   0.726
 2973SOL    HW1 8937   4.288   3.140   0.735
 2973SOL    HW2 8938   4.314   3.270   0.639
 2974SOL     OW 8939   4.533   1.866   0.502
 2974SOL    HW1 8940   4.573   1.957   0.493
 2974SOL    HW2 8941   4.433   1.874   0.508
 2975SOL     OW 8942   3.921   2.838   1.264
 2975SOL    HW1 8943   4.010   2.793   1.250
 2975SOL    HW2 8944   3.848   2.773   1.245
 2976SOL     OW 8945   4.041   2.113   1.801
 2976SOL    HW1 8946   4.112   2.184   1.807
 2976SOL    HW2 8947   3.953   2.152   1.829
 2977SOL     OW 8948   4.322   2.591   0.270
 2977SOL    HW1 8949   4.346   2.660   0.202
 2977SOL    HW2 8950   4.244   2.624   0.324
 2978SOL     OW 8951   4.531   2.467   1.465
 2978SOL    HW1 8952   4.484   2.464   1.554
 2978SOL    HW2 8953   4.480   2.412   1.399
 2979SOL     OW 8954   4.715   2.272   1.242
 2979SOL    HW1 8955   4.638   2.306   1.296
 2979SOL    HW2 8956   4.681   2.221   1.163
 2980SOL     OW 8957   3.800   2.673   0.789
 2980SOL    HW1 8958   3.899   2.661   0.798
 2980SOL    HW2 8959   3.776   2.768   0.810
 2981SOL     OW 8960   3.854   3.683   1.571
 2981SOL    HW1 8961   3.844   3.668   1.670
 2981SOL    HW2 8962   3.768   3.719   1.535
 2982SOL     OW 8963   4.589   2.210   0.195
 2982SOL    HW1 8964   4.648   2.273   0.146
 2982SOL    HW2 8965   4.608   2.116   0.166
 2983SOL     OW 8966   4.274   2.058   0.885
 2983SOL    HW1 8967   4.269   2.053   0.985
 2983SOL    HW2 8968   4.276   2.154   0.856
 2984SOL     OW 8969   4.732   3.318   0.477
 2984SOL    HW1 8970   4.686   3.390   0.425
 2984SOL    HW2 8971   4.728   3.338   0.575
 2985SOL     OW 8972   4.075   3.663   0.853
 2985SOL    HW1 8973   4.125   3.577   0.859
 2985SOL    HW2 8974   4.140   3.740   0.850
 2986SOL     OW 8975   4.045   2.805   0.242
 2986SOL    HW1 8976   4.127   2.844   0.200
 2986SOL    HW2 8977   4.018   2.723   0.193
 2987SOL     OW 8978   4.185   3.128   1.727
 2987SOL    HW1 8979   4.135   3.129   1.641
 2987SOL    HW2 8980   4.122   3.110   1.803
 2988SOL     OW 8981   3.926   2.147   1.498
 2988SOL    HW1 8982   3.846   2.207   1.485
 2988SOL    HW2 8983   3.916   2.098   1.584
 2989SOL     OW 8984   4.188   3.605   0.323
 2989SOL    HW1 8985   4.221   3.644   0.409
 2989SOL    HW2 8986   4.264   3.598   0.258
 2990SOL     OW 8987   3.973   3.647   1.241
 2990SOL    HW1 8988   4.030   3.582   1.291
 2990SOL    HW2 8989   3.957   3.614   1.148
 2991SOL     OW 8990   4.106   2.562   0.480
 2991SOL    HW1 8991   4.151   2.472   0.477
 2991SOL    HW2 8992   4.012   2.551   0.513
 2992SOL     OW 8993   4.505   2.126   1.749
 2992SOL    HW1 8994   4.572   2.065   1.792
 2992SOL    HW2 8995   4.432   2.145   1.814
 2993SOL     OW 8996   4.527   3.264   0.924
 2993SOL    HW1 8997   4.617   3.278   0.882
 2993SOL    HW2 8998   4.456   3.266   0.853
 2994SOL     OW 8999   4.646   2.365   0.899
 2994SOL    HW1 9000   4.621   2.356   0.803
 2994SOL    HW2 9001   4.694   2.283   0.930
 2995SOL     OW 9002   4.263   1.926   0.512
 2995SOL    HW1 9003   4.182   1.927   0.570
 2995SOL    HW2 9004   4.266   2.009   0.457
 2996SOL     OW 9005   4.021   1.897   0.171
 2996SOL    HW1 9006   4.070   1.981   0.150
 2996SOL    HW2 9007   4.083   1.832   0.216
 2997SOL     OW 9008   4.951   3.432   0.793
 2997SOL    HW1 9009   4.972   3.506   0.728
 2997SOL    HW2 9010   5.019   3.432   0.866
 2998SOL     OW 9011   4.183   3.014   0.741
 2998SOL    HW1 9012   4.112   2.987   0.806
 2998SOL    HW2 9013   4.157   2.986   0.648
 2999SOL     OW 9014   3.802   2.418   1.386
 2999SOL    HW1 9015   3.894   2.417   1.345
 2999SOL    HW2 9016   3.796   2.492   1.453
 3000SOL     OW 9017   4.285   2.084   1.147
 3000SOL    HW1 9018   4.323   2.000   1.184
 3000SOL    HW2 9019   4.197   2.103   1.191
 3001SOL     OW 9020   4.212   3.247   0.174
 3001SOL    HW1 9021   4.125   3.232   0.221
 3001SOL    HW2 9022   4.195   3.273   0.079
 3002SOL     OW 9023   4.251   2.118   0.328
 3002SOL    HW1 9024   4.278   2.059   0.253
 3002SOL    HW2 9025   4.251   2.213   0.297
 3003SOL     OW 9026   4.639   1.951   1.402
 3003SOL    HW1 9027   4.664   1.931   1.307
 3003SOL    HW2 9028   4.711   2.007   1.444
 3004SOL     OW 9029   4.429   2.912   0.368
 3004SOL    HW1 9030   4.415   2.919   0.467
 3004SOL    HW2 9031   4.513   2.861   0.350
 3005SOL     OW 9032   4.134   2.675   1.251
 3005SOL    HW1 9033   4.220   2.687   1.301
 3005SOL    HW2 9034   4.092   2.588   1.278
 3006SOL     OW 9035   3.788   3.426   1.331
 3006SOL    HW1 9036   3.742   3.508   1.297
 3006SOL    HW2 9037   3.886   3.445   1.340
 3007SOL     OW 9038   4.091   2.962   0.501
 3007SOL    HW1 9039   4.084   3.045   0.445
 3007SOL    HW2 9040   4.095   2.882   0.441
 3008SOL     OW 9041   4.290   2.399   0.865
 3008SOL    HW1 9042   4.302   2.465   0.791
 3008SOL    HW2 9043   4.336   2.433   0.948
 3009SOL     OW 9044   4.078   3.372   1.329
 3009SOL    HW1 9045   4.057   3.328   1.242
 3009SOL    HW2 9046   4.175   3.398   1.332
 3010SOL     OW 9047   4.126   2.613   1.598
 3010SOL    HW1 9048   4.194   2.668   1.551
 3010SOL    HW2 9049   4.166   2.525   1.625
 3011SOL     OW 9050   4.228   1.912   1.740
 3011SOL    HW1 9051   4.186   1.855   1.670
 3011SOL    HW2 9052   4.162   1.981   1.772
 3012SOL     OW 9053   4.297   2.732   1.029
 3012SOL    HW1 9054   4.341   2.821   1.020
 3012SOL    HW2 9055   4.234   2.732   1.106
 3013SOL     OW 9056   4.933   2.387   0.275
 3013SOL    HW1 9057   4.946   2.303   0.329
 3013SOL    HW2 9058   4.904   2.461   0.335
 3014SOL     OW 9059   4.031   2.075   1.231
 3014SOL    HW1 9060   4.008   2.112   1.321
 3014SOL    HW2 9061   4.001   1.980   1.225
 3015SOL     OW 9062   3.761   3.172   1.282
 3015SOL    HW1 9063   3.814   3.123   1.350
 3015SOL    HW2 9064   3.783   3.270   1.287
 3016SOL     OW 9065   4.456   2.496   1.064
 3016SOL    HW1 9066   4.515   2.470   0.988
 3016SOL    HW2 9067   4.428   2.592   1.053
 3017SOL     OW 9068   4.031   1.925   0.618
 3017SOL    HW1 9069   4.020   2.019   0.651
 3017SOL    HW2 9070   4.026   1.862   0.695
 3018SOL     OW 9071   4.747   2.628   0.966
 3018SOL    HW1 9072   4.762   2.649   1.062
 3018SOL    HW2 9073   4.717   2.533   0.957
 3019SOL     OW 9074   4.704   3.435   1.700
 3019SOL    HW1 9075   4.684   3.479   1.612
 3019SOL    HW2 9076   4.743   3.344   1.684
 3020SOL     OW 9077   4.074   2.760   1.804
 3020SOL    HW1 9078   4.150   2.804   1.852
 3020SOL    HW2 9079   4.109   2.713   1.722
 3021SOL     OW 9080   4.043   2.672   0.949
 3021SOL    HW1 9081   4.136   2.708   0.954
 3021SOL    HW2 9082   4.037   2.587   1.001
 3022SOL     OW 9083   4.063   2.371   1.006
 3022SOL    HW1 9084   4.011   2.288   0.989
 3022SOL    HW2 9085   4.140   2.376   0.942
 3023SOL     OW 9086   3.732   3.188   0.200
 3023SOL    HW1 9087   3.639   3.209   0.169
 3023SOL    HW2 9088   3.742   3.089   0.213
 3024SOL     OW 9089   3.812   3.663   0.927
 3024SOL    HW1 9090   3.770   3.577   0.900
 3024SOL    HW2 9091   3.906   3.666   0.893
 3025SOL     OW 9092   4.228   3.430   0.910
 3025SOL    HW1 9093   4.294   3.504   0.919
 3025SOL    HW2 9094   4.272   3.351   0.868
 3026SOL     OW 9095   4.726   2.658   1.238
 3026SOL    HW1 9096   4.767   2.626   1.324
 3026SOL    HW2 9097   4.630   2.631   1.235
 3027SOL     OW 9098   3.764   2.406   1.114
 3027SOL    HW1 9099   3.849   2.373   1.073
 3027SOL    HW2 9100   3.777   2.421   1.212
 3028SOL     OW 9101   3.913   2.382   1.722
 3028SOL    HW1 9102   3.972   2.342   1.652
 3028SOL    HW2 9103   3.855   2.453   1.681
 3029SOL     OW 9104   4.539   2.434   0.325
 3029SOL    HW1 9105   4.546   2.345   0.279
 3029SOL    HW2 9106   4.445   2.468   0.317
 3030SOL     OW 9107   3.976   3.426   1.744
 3030SOL    HW1 9108   3.946   3.483   1.820
 3030SOL    HW2 9109   3.969   3.329   1.770
 3031SOL     OW 9110   4.395   2.326   1.269
 3031SOL    HW1 9111   4.361   2.237   1.239
 3031SOL    HW2 9112   4.421   2.380   1.189
 3032SOL     OW 9113   4.197   2.362   0.191
 3032SOL    HW1 9114   4.258   2.442   0.195
 3032SOL    HW2 9115   4.102   2.393   0.198
 3033SOL     OW 9116   3.883   2.999   1.466
 3033SOL    HW1 9117   3.905   2.938   1.542
 3033SOL    HW2 9118   3.893   2.950   1.380
 3034SOL     OW 9119   3.807   3.120   1.022
 3034SOL    HW1 9120   3.802   3.119   1.122
 3034SOL    HW2 9121   3.724   3.079   0.984
 3035SOL     OW 9122   4.412   3.524   1.716
 3035SOL    HW1 9123   4.356   3.605   1.725
 3035SOL    HW2 9124   4.464   3.528   1.630
 3036SOL     OW 9125   4.627   1.948   0.133
 3036SOL    HW1 9126   4.678   1.949   0.047
 3036SOL    HW2 9127   4.683   1.906   0.204
 3037SOL     OW 9128   3.854   3.656   1.851
 3037SOL    HW1 9129   3.813   3.582   1.904
 3037SOL    HW2 9130   3.918   3.707   1.909
 3038SOL     OW 9131   4.554   3.135   1.422
 3038SOL    HW1 9132   4.549   3.168   1.517
 3038SOL    HW2 9133   4.468   3.154   1.376
 3039SOL     OW 9134   4.396   3.478   0.154
 3039SOL    HW1 9135   4.405   3.488   0.055
 3039SOL    HW2 9136   4.356   3.389   0.175
 3040SOL     OW 9137   3.987   2.188   0.720
 3040SOL    HW1 9138   3.908   2.239   0.686
 3040SOL    HW2 9139   3.978   2.173   0.818
 3041SOL     OW 9140   4.918   3.474   0.031
 3041SOL    HW1 9141   4.924   3.381   0.068
 3041SOL    HW2 9142   4.859   3.474  -0.049
 3042SOL     OW 9143   4.546   2.864   1.372
 3042SOL    HW1 9144   4.586   2.863   1.280
 3042SOL    HW2 9145   4.556   2.956   1.412
 3043SOL     OW 9146   4.096   3.150   1.490
 3043SOL    HW1 9147   4.083   3.243   1.456
 3043SOL    HW2 9148   4.012   3.098   1.477
 3044SOL     OW 9149   4.314   3.349   0.491
 3044SOL    HW1 9150   4.356   3.291   0.421
 3044SOL    HW2 9151   4.270   3.428   0.447
 3045SOL     OW 9152   3.979   3.210   0.290
 3045SOL    HW1 9153   3.883   3.211   0.263
 3045SOL    HW2 9154   3.991   3.263   0.374
 3046SOL     OW 9155   3.829   2.875   1.726
 3046SOL    HW1 9156   3.752   2.842   1.780
 3046SOL    HW2 9157   3.914   2.845   1.768
 3047SOL     OW 9158   4.396   2.065   1.489
 3047SOL    HW1 9159   4.486   2.049   1.449
 3047SOL    HW2 9160   4.404   2.070   1.588
 3048SOL     OW 9161   3.796   2.028   0.318
 3048SOL    HW1 9162   3.779   2.111   0.264
 3048SOL    HW2 9163   3.886   1.991   0.296
 3049SOL     OW 9164   4.337   2.704   1.431
 3049SOL    HW1 9165   4.393   2.785   1.414
 3049SOL    HW2 9166   4.396   2.624   1.434
 3050SOL     OW 9167   4.440   2.427   1.708
 3050SOL    HW1 9168   4.459   2.492   1.782
 3050SOL    HW2 9169   4.500   2.347   1.717
 3051SOL     OW 9170   4.114   3.603   1.560
 3051SOL    HW1 9171   4.023   3.644   1.558
 3051SOL    HW2 9172   4.107   3.509   1.592
 3052SOL     OW 9173   4.949   2.187   0.449
 3052SOL    HW1 9174   5.014   2.113   0.438
 3052SOL    HW2 9175   4.969   2.237   0.533
 3053SOL     OW 9176   4.318   2.607   0.652
 3053SOL    HW1 9177   4.368   2.692   0.633
 3053SOL    HW2 9178   4.230   2.609   0.604
 3054SOL     OW 9179   4.385   3.652   0.953
 3054SOL    HW1 9180   4.339   3.740   0.940
 3054SOL    HW2 9181   4.484   3.664   0.946
 3055SOL     OW 9182   4.583   2.818   0.861
 3055SOL    HW1 9183   4.637   2.749   0.909
 3055SOL    HW2 9184   4.551   2.887   0.927
 3056SOL     OW 9185   4.807   2.846   0.087
 3056SOL    HW1 9186   4.784   2.899   0.005
 3056SOL    HW2 9187   4.888   2.790   0.068
 3057SOL     OW 9188   3.945   3.176   1.844
 3057SOL    HW1 9189   3.880   3.103   1.823
 3057SOL    HW2 9190   3.949   3.190   1.942
 3058SOL     OW 9191   3.803   3.102   0.653
 3058SOL    HW1 9192   3.802   3.055   0.741
 3058SOL    HW2 9193   3.885   3.074   0.602
 3059SOL     OW 9194   4.396   3.253   1.624
 3059SOL    HW1 9195   4.318   3.203   1.662
 3059SOL    HW2 9196   4.393   3.348   1.655
 3060SOL     OW 9197   4.152   2.286   0.520
 3060SOL    HW1 9198   4.182   2.214   0.458
 3060SOL    HW2 9199   4.113   2.246   0.603
 3061SOL     OW 9200   4.041   2.409   1.280
 3061SOL    HW1 9201   4.079   2.350   1.352
 3061SOL    HW2 9202   4.081   2.383   1.192
 3062SOL     OW 9203   4.536   3.448   0.687
 3062SOL    HW1 9204   4.568   3.458   0.593
 3062SOL    HW2 9205   4.457   3.386   0.689
 3063SOL     OW 9206   4.725   1.896   1.154
 3063SOL    HW1 9207   4.662   1.824   1.123
 3063SOL    HW2 9208   4.818   1.860   1.154
 3064SOL     OW 9209   4.494   3.192   0.301
 3064SOL    HW1 9210   4.448   3.105   0.318
 3064SOL    HW2 9211   4.585   3.189   0.342
 3065SOL     OW 9212   4.342   3.429   1.284
 3065SOL    HW1 9213   4.337   3.511   1.341
 3065SOL    HW2 9214   4.431   3.426   1.239
 3066SOL     OW 9215   3.763   2.939   0.300
 3066SOL    HW1 9216   3.862   2.928   0.291
 3066SOL    HW2 9217   3.723   2.853   0.332
 3067SOL     OW 9218   4.599   3.508   0.337
 3067SOL    HW1 9219   4.522   3.473   0.283
 3067SOL    HW2 9220   4.567   3.579   0.399
 3068SOL     OW 9221   3.954   2.490   1.975
 3068SOL    HW1 9222   3.861   2.488   2.012
 3068SOL    HW2 9223   3.955   2.451   1.883
 3069SOL     OW 9224   3.949   2.137   2.858
 3069SOL    HW1 9225   3.984   2.120   2.950
 3069SOL    HW2 9226   3.861   2.092   2.846
 3070SOL     OW 9227   3.743   2.230   2.509
 3070SOL    HW1 9228   3.661   2.273   2.548
 3070SOL    HW2 9229   3.715   2.157   2.446
 3071SOL     OW 9230   4.293   3.137   3.027
 3071SOL    HW1 9231   4.200   3.130   2.990
 3071SOL    HW2 9232   4.304   3.226   3.071
 3072SOL     OW 9233   4.492   3.006   2.885
 3072SOL    HW1 9234   4.414   3.023   2.945
 3072SOL    HW2 9235   4.526   3.093   2.849
 3073SOL     OW 9236   4.574   2.660   3.685
 3073SOL    HW1 9237   4.570   2.736   3.750
 3073SOL    HW2 9238   4.596   2.696   3.594
 3074SOL     OW 9239   4.409   2.874   2.527
 3074SOL    HW1 9240   4.478   2.858   2.597
 3074SOL    HW2 9241   4.336   2.931   2.565
 3075SOL     OW 9242   4.410   3.023   3.665
 3075SOL    HW1 9243   4.470   3.102   3.679
 3075SOL    HW2 9244   4.324   3.054   3.624
 3076SOL     OW 9245   4.059   3.297   2.923
 3076SOL    HW1 9246   3.981   3.266   2.870
 3076SOL    HW2 9247   4.117   3.355   2.866
 3077SOL     OW 9248   4.162   2.254   3.361
 3077SOL    HW1 9249   4.244   2.198   3.370
 3077SOL    HW2 9250   4.081   2.196   3.365
 3078SOL     OW 9251   3.955   3.575   2.345
 3078SOL    HW1 9252   3.989   3.652   2.399
 3078SOL    HW2 9253   3.999   3.575   2.255
 3079SOL     OW 9254   3.954   3.296   2.400
 3079SOL    HW1 9255   3.928   3.392   2.400
 3079SOL    HW2 9256   3.883   3.242   2.445
 3080SOL     OW 9257   3.964   2.953   2.748
 3080SOL    HW1 9258   3.978   2.869   2.800
 3080SOL    HW2 9259   3.909   3.017   2.803
 3081SOL     OW 9260   4.344   3.648   3.301
 3081SOL    HW1 9261   4.252   3.631   3.336
 3081SOL    HW2 9262   4.372   3.740   3.327
 3082SOL     OW 9263   4.330   2.826   1.985
 3082SOL    HW1 9264   4.337   2.910   1.931
 3082SOL    HW2 9265   4.376   2.839   2.073
 3083SOL     OW 9266   3.846   2.505   2.425
 3083SOL    HW1 9267   3.801   2.417   2.442
 3083SOL    HW2 9268   3.845   2.559   2.509
 3084SOL     OW 9269   3.751   3.458   1.979
 3084SOL    HW1 9270   3.732   3.362   2.000
 3084SOL    HW2 9271   3.718   3.516   2.054
 3085SOL     OW 9272   3.837   2.599   3.459
 3085SOL    HW1 9273   3.925   2.586   3.504
 3085SOL    HW2 9274   3.824   2.696   3.437
 3086SOL     OW 9275   4.337   3.227   2.588
 3086SOL    HW1 9276   4.288   3.140   2.597
 3086SOL    HW2 9277   4.314   3.270   2.501
 3087SOL     OW 9278   4.533   1.866   2.364
 3087SOL    HW1 9279   4.573   1.957   2.355
 3087SOL    HW2 9280   4.433   1.874   2.370
 3088SOL     OW 9281   3.921   2.838   3.126
 3088SOL    HW1 9282   4.010   2.793   3.112
 3088SOL    HW2 9283   3.848   2.773   3.107
 3089SOL     OW 9284   4.041   2.113   3.663
 3089SOL    HW1 9285   4.112   2.184   3.669
 3089SOL    HW2 9286   3.953   2.152   3.691
 3090SOL     OW 9287   4.322   2.591   2.132
 3090SOL    HW1 9288   4.346   2.660   2.064
 3090SOL    HW2 9289   4.244   2.624   2.186
 3091SOL     OW 9290   4.531   2.467   3.327
 3091SOL    HW1 9291   4.484   2.464   3.416
 3091SOL    HW2 9292   4.480   2.412   3.261
 3092SOL     OW 9293   4.715   2.272   3.104
 3092SOL    HW1 9294   4.638   2.306   3.158
 3092SOL    HW2 9295   4.681   2.221   3.025
 3093SOL     OW 9296   3.800   2.673   2.651
 3093SOL    HW1 9297   3.899   2.661   2.660
 3093SOL    HW2 9298   3.776   2.768   2.672
 3094SOL     OW 9299   3.854   3.683   3.433
 3094SOL    HW1 9300   3.844   3.668   3.532
 3094SOL    HW2 9301   3.768   3.719   3.397
 3095SOL     OW 9302   4.589   2.210   2.057
 3095SOL    HW1 9303   4.648   2.273   2.008
 3095SOL    HW2 9304   4.608   2.116   2.028
 3096SOL     OW 9305   4.274   2.058   2.747
 3096SOL    HW1 9306   4.269   2.053   2.847
 3096SOL    HW2 9307   4.276   2.154   2.718
 3097SOL     OW 9308   4.732   3.318   2.339
 3097SOL    HW1 9309   4.686   3.390   2.287
 3097SOL    HW2 9310   4.728   3.338   2.437
 3098SOL     OW 9311   4.075   3.663   2.715
 3098SOL    HW1 9312   4.125   3.577   2.721
 3098SOL    HW2 9313   4.140   3.740   2.712
 3099SOL     OW 9314   4.045   2.805   2.104
 3099SOL    HW1 9315   4.127   2.844   2.062
 3099SOL    HW2 9316   4.018   2.723   2.055
 3100SOL     OW 9317   4.185   3.128   3.589
 3100SOL    HW1 9318   4.135   3.129   3.503
 3100SOL    HW2 9319   4.122   3.110   3.665
 3101SOL     OW 9320   3.926   2.147   3.360
 3101SOL    HW1 9321   3.846   2.207   3.347
 3101SOL    HW2 9322   3.916   2.098   3.446
 3102SOL     OW 9323   4.188   3.605   2.185
 3102SOL    HW1 9324   4.221   3.644   2.271
 3102SOL    HW2 9325   4.264   3.598   2.120
 3103SOL     OW 9326   3.973   3.647   3.103
 3103SOL    HW1 9327   4.030   3.582   3.153
 3103SOL    HW2 9328   3.957   3.614   3.010
 3104SOL     OW 9329   4.106   2.562   2.342
 3104SOL    HW1 9330   4.151   2.472   2.339
 3104SOL    HW2 9331   4.012   2.551   2.375
 3105SOL     OW 9332   4.338   1.984   1.979
 3105SOL    HW1 9333   4.436   1.962   1.986
 3105SOL    HW2 9334   4.307   1.967   1.886
 3106SOL     OW 9335   4.505   2.126   3.611
 3106SOL    HW1 9336   4.572   2.065   3.654
 3106SOL    HW2 9337   4.432   2.145   3.676
 3107SOL     OW 9338   4.527   3.264   2.786
 3107SOL    HW1 9339   4.617   3.278   2.744
 3107SOL    HW2 9340   4.456   3.266   2.715
 3108SOL     OW 9341   4.646   2.365   2.761
 3108SOL    HW1 9342   4.621   2.356   2.665
 3108SOL    HW2 9343   4.694   2.283   2.792
 3109SOL     OW 9344   4.263   1.926   2.374
 3109SOL    HW1 9345   4.182   1.927   2.432
 3109SOL    HW2 9346   4.266   2.009   2.319
 3110SOL     OW 9347   4.021   1.897   2.033
 3110SOL    HW1 9348   4.070   1.981   2.012
 3110SOL    HW2 9349   4.083   1.832   2.078
 3111SOL     OW 9350   4.951   3.432   2.655
 3111SOL    HW1 9351   4.972   3.506   2.590
 3111SOL    HW2 9352   5.019   3.432   2.728
 3112SOL     OW 9353   4.183   3.014   2.603
 3112SOL    HW1 9354   4.112   2.987   2.668
 3112SOL    HW2 9355   4.157   2.986   2.510
 3113SOL     OW 9356   3.802   2.418   3.248
 3113SOL    HW1 9357   3.894   2.417   3.207
 3113SOL    HW2 9358   3.796   2.492   3.315
 3114SOL     OW 9359   4.285   2.084   3.009
 3114SOL    HW1 9360   4.323   2.000   3.046
 3114SOL    HW2 9361   4.197   2.103   3.053
 3115SOL     OW 9362   4.212   3.247   2.036
 3115SOL    HW1 9363   4.125   3.232   2.083
 3115SOL    HW2 9364   4.195   3.273   1.941
 3116SOL     OW 9365   4.251   2.118   2.190
 3116SOL    HW1 9366   4.278   2.059   2.115
 3116SOL    HW2 9367   4.251   2.213   2.159
 3117SOL     OW 9368   4.639   1.951   3.264
 3117SOL    HW1 9369   4.664   1.931   3.169
 3117SOL    HW2 9370   4.711   2.007   3.306
 3118SOL     OW 9371   4.429   2.912   2.230
 3118SOL    HW1 9372   4.415   2.919   2.329
 3118SOL    HW2 9373   4.513   2.861   2.212
 3119SOL     OW 9374   4.134   2.675   3.113
 3119SOL    HW1 9375   4.220   2.687   3.163
 3119SOL    HW2 9376   4.092   2.588   3.140
 3120SOL     OW 9377   3.788   3.426   3.193
 3120SOL    HW1 9378   3.742   3.508   3.159
 3120SOL    HW2 9379   3.886   3.445   3.202
 3121SOL     OW 9380   4.091   2.962   2.363
 3121SOL    HW1 9381   4.084   3.045   2.307
 3121SOL    HW2 9382   4.095   2.882   2.303
 3122SOL     OW 9383   4.290   2.399   2.727
 3122SOL    HW1 9384   4.302   2.465   2.653
 3122SOL    HW2 9385   4.336   2.433   2.810
 3123SOL     OW 9386   4.078   3.372   3.191
 3123SOL    HW1 9387   4.057   3.328   3.104
 3123SOL    HW2 9388   4.175   3.398   3.194
 3124SOL     OW 9389   4.126   2.613   3.460
 3124SOL    HW1 9390   4.194   2.668   3.413
 3124SOL    HW2 9391   4.166   2.525   3.487
 3125SOL     OW 9392   4.228   1.912   3.602
 3125SOL    HW1 9393   4.186   1.855   3.532
 3125SOL    HW2 9394   4.162   1.981   3.634
 3126SOL     OW 9395   4.297   2.732   2.891
 3126SOL    HW1 9396   4.341   2.821   2.882
 3126SOL    HW2 9397   4.234   2.732   2.968
 3127SOL     OW 9398   4.933   2.387   2.137
 3127SOL    HW1 9399   4.946   2.303   2.191
 3127SOL    HW2 9400   4.904   2.461   2.197
 3128SOL     OW 9401   4.031   2.075   3.093
 3128SOL    HW1 9402   4.008   2.112   3.183
 3128SOL    HW2 9403   4.001   1.980   3.087
 3129SOL     OW 9404   3.761   3.172   3.144
 3129SOL    HW1 9405   3.814   3.123   3.212
 3129SOL    HW2 9406   3.783   3.270   3.149
 3130SOL     OW 9407   4.456   2.496   2.926
 3130SOL    HW1 9408   4.515   2.470   2.850
 3130SOL    HW2 9409   4.428   2.592   2.915
 3131SOL     OW 9410   4.031   1.925   2.480
 3131SOL    HW1 9411   4.020   2.019   2.513
 3131SOL    HW2 9412   4.026   1.862   2.557
 3132SOL     OW 9413   4.747   2.628   2.828
 3132SOL    HW1 9414   4.762   2.649   2.924
 3132SOL    HW2 9415   4.717   2.533   2.819
 3133SOL     OW 9416   4.704   3.435   3.562
 3133SOL    HW1 9417   4.684   3.479   3.474
 3133SOL    HW2 9418   4.743   3.344   3.546
 3134SOL     OW 9419   4.074   2.760   3.666
 3134SOL    HW1 9420   4.150   2.804   3.714
 3134SOL    HW2 9421   4.109   2.713   3.584
 3135SOL     OW 9422   4.043   2.672   2.811
 3135SOL    HW1 9423   4.136   2.708   2.816
 3135SOL    HW2 9424   4.037   2.587   2.863
 3136SOL     OW 9425   4.063   2.371   2.868
 3136SOL    HW1 9426   4.011   2.288   2.851
 3136SOL    HW2 9427   4.140   2.376   2.804
 3137SOL     OW 9428   3.732   3.188   2.062
 3137SOL    HW1 9429   3.639   3.209   2.031
 3137SOL    HW2 9430   3.742   3.089   2.075
 3138SOL     OW 9431   3.812   3.663   2.789
 3138SOL    HW1 9432   3.770   3.577   2.762
 3138SOL    HW2 9433   3.906   3.666   2.755
 3139SOL     OW 9434   4.228   3.430   2.772
 3139SOL    HW1 9435   4.294   3.504   2.781
 3139SOL    HW2 9436   4.272   3.351   2.730
 3140SOL     OW 9437   4.726   2.658   3.100
 3140SOL    HW1 9438   4.767   2.626   3.186
 3140SOL    HW2 9439   4.630   2.631   3.097
 3141SOL     OW 9440   3.764   2.406   2.976
 3141SOL    HW1 9441   3.849   2.373   2.935
 3141SOL    HW2 9442   3.777   2.421   3.074
 3142SOL     OW 9443   3.913   2.382   3.584
 3142SOL    HW1 9444   3.972   2.342   3.514
 3142SOL    HW2 9445   3.855   2.453   3.543
 3143SOL     OW 9446   4.539   2.434   2.187
 3143SOL    HW1 9447   4.546   2.345   2.141
 3143SOL    HW2 9448   4.445   2.468   2.179
 3144SOL     OW 9449   3.976   3.426   3.606
 3144SOL    HW1 9450   3.946   3.483   3.682
 3144SOL    HW2 9451   3.969   3.329   3.632
 3145SOL     OW 9452   4.395   2.326   3.131
 3145SOL    HW1 9453   4.361   2.237   3.101
 3145SOL    HW2 9454   4.421   2.380   3.051
 3146SOL     OW 9455   4.197   2.362   2.053
 3146SOL    HW1 9456   4.258   2.442   2.057
 3146SOL    HW2 9457   4.102   2.393   2.060
 3147SOL     OW 9458   3.883   2.999   3.328
 3147SOL    HW1 9459   3.905   2.938   3.404
 3147SOL    HW2 9460   3.893   2.950   3.242
 3148SOL     OW 9461   3.807   3.120   2.884
 3148SOL    HW1 9462   3.802   3.119   2.984
 3148SOL    HW2 9463   3.724   3.079   2.846
 3149SOL     OW 9464   4.412   3.524   3.578
 3149SOL    HW1 9465   4.356   3.605   3.587
 3149SOL    HW2 9466   4.464   3.528   3.492
 3150SOL     OW 9467   4.627   1.948   1.995
 3150SOL    HW1 9468   4.678   1.949   1.909
 3150SOL    HW2 9469   4.683   1.906   2.066
 3151SOL     OW 9470   3.854   3.656   3.713
 3151SOL    HW1 9471   3.813   3.582   3.766
 3151SOL    HW2 9472   3.918   3.707   3.771
 3152SOL     OW 9473   4.554   3.135   3.284
 3152SOL    HW1 9474   4.549   3.168   3.379
 3152SOL    HW2 9475   4.468   3.154   3.238
 3153SOL     OW 9476   4.396   3.478   2.016
 3153SOL    HW1 9477   4.405   3.488   1.917
 3153SOL    HW2 9478   4.356   3.389   2.037
 3154SOL     OW 9479   3.987   2.188   2.582
 3154SOL    HW1 9480   3.908   2.239   2.548
 3154SOL    HW2 9481   3.978   2.173   2.680
 3155SOL     OW 9482   4.546   2.864   3.234
 3155SOL    HW1 9483   4.586   2.863   3.142
 3155SOL    HW2 9484   4.556   2.956   3.274
 3156SOL     OW 9485   4.096   3.150   3.352
 3156SOL    HW1 9486   4.083   3.243   3.318
 3156SOL    HW2 9487   4.012   3.098   3.339
 3157SOL     OW 9488   4.314   3.349   2.353
 3157SOL    HW1 9489   4.356   3.291   2.283
 3157SOL    HW2 9490   4.270   3.428   2.309
 3158SOL     OW 9491   3.979   3.210   2.152
 3158SOL    HW1 9492   3.883   3.211   2.125
 3158SOL    HW2 9493   3.991   3.263   2.236
 3159SOL     OW 9494   3.829   2.875   3.588
 3159SOL    HW1 9495   3.752   2.842   3.642
 3159SOL    HW2 9496   3.914   2.845   3.630
 3160SOL     OW 9497   4.396   2.065   3.351
 3160SOL    HW1 9498   4.486   2.049   3.311
 3160SOL    HW2 9499   4.404   2.070   3.450
 3161SOL     OW 9500   3.799   2.207   1.895
 3161SOL    HW1 9501   3.707   2.179   1.866
 3161SOL    HW2 9502   3.830   2.284   1.839
 3162SOL     OW 9503   3.796   2.028   2.180
 3162SOL    HW1 9504   3.779   2.111   2.126
 3162SOL    HW2 9505   3.886   1.991   2.158
 3163SOL     OW 9506   4.337   2.704   3.293
 3163SOL    HW1 9507   4.393   2.785   3.276
 3163SOL    HW2 9508   4.396   2.624   3.296
 3164SOL     OW 9509   4.440   2.427   3.570
 3164SOL    HW1 9510   4.459   2.492   3.644
 3164SOL    HW2 9511   4.500   2.347   3.579
 3165SOL     OW 9512   4.114   3.603   3.422
 3165SOL    HW1 9513   4.023   3.644   3.420
 3165SOL    HW2 9514   4.107   3.509   3.454
 3166SOL     OW 9515   4.949   2.187   2.311
 3166SOL    HW1 9516   5.014   2.113   2.300
 3166SOL    HW2 9517   4.969   2.237   2.395
 3167SOL     OW 9518   4.318   2.607   2.514
 3167SOL    HW1 9519   4.368   2.692   2.495
 3167SOL    HW2 9520   4.230   2.609   2.466
 3168SOL     OW 9521   4.385   3.652   2.815
 3168SOL    HW1 9522   4.339   3.740   2.802
 3168SOL    HW2 9523   4.484   3.664   2.808
 3169SOL     OW 9524   4.583   2.818   2.723
 3169SOL    HW1 9525   4.637   2.749   2.771
 3169SOL    HW2 9526   4.551   2.887   2.789
 3170SOL     OW 9527   3.945   3.176   3.706
 3170SOL    HW1 9528   3.880   3.103   3.685
 3170SOL    HW2 9529   3.949   3.190   3.804
 3171SOL     OW 9530   3.803   3.102   2.515
 3171SOL    HW1 9531   3.802   3.055   2.603
 3171SOL    HW2 9532   3.885   3.074   2.464
 3172SOL     OW 9533   4.396   3.253   3.486
 3172SOL    HW1 9534   4.318   3.203   3.524
 3172SOL    HW2 9535   4.393   3.348   3.517
 3173SOL     OW 9536   4.152   2.286   2.382
 3173SOL    HW1 9537   4.182   2.214   2.320
 3173SOL    HW2 9538   4.113   2.246   2.465
 3174SOL     OW 9539   4.041   2.409   3.142
 3174SOL    HW1 9540   4.079   2.350   3.214
 3174SOL    HW2 9541   4.081   2.383   3.054
 3175SOL     OW 9542   4.536   3.448   2.549
 3175SOL    HW1 9543   4.568   3.458   2.455
 3175SOL    HW2 9544   4.457   3.386   2.551
 3176SOL     OW 9545   4.725   1.896   3.016
 3176SOL    HW1 9546   4.662   1.824   2.985
 3176SOL    HW2 9547   4.818   1.860   3.016
 3177SOL     OW 9548   4.494   3.192   2.163
 3177SOL    HW1 9549   4.448   3.105   2.180
 3177SOL    HW2 9550   4.585   3.189   2.204
 3178SOL     OW 9551   4.342   3.429   3.146
 3178SOL    HW1 9552   4.337   3.511   3.203
 3178SOL    HW2 9553   4.431   3.426   3.101
 3179SOL     OW 9554   3.763   2.939   2.162
 3179SOL    HW1 9555   3.862   2.928   2.153
 3179SOL    HW2 9556   3.723   2.853   2.194
 3180SOL     OW 9557   4.599   3.508   2.199
 3180SOL    HW1 9558   4.522   3.473   2.145
 3180SOL    HW2 9559   4.567   3.579   2.261
 3181SOL     OW 9560   3.954   2.490   3.837
 3181SOL    HW1 9561   3.861   2.488   3.874
 3181SOL    HW2 9562   3.955   2.451   3.745
 3182SOL     OW 9563   3.949   2.137   4.720
 3182SOL    HW1 9564   3.984   2.120   4.812
 3182SOL    HW2 9565   3.861   2.092   4.708
 3183SOL     OW 9566   3.743   2.230   4.371
 3183SOL    HW1 9567   3.661   2.273   4.410
 3183SOL    HW2 9568   3.715   2.157   4.308
 3184SOL     OW 9569   4.492   3.006   4.747
 3184SOL    HW1 9570   4.414   3.023   4.807
 3184SOL    HW2 9571   4.526   3.093   4.711
 3185SOL     OW 9572   4.409   2.874   4.389
 3185SOL    HW1 9573   4.478   2.858   4.459
 3185SOL    HW2 9574   4.336   2.931   4.427
 3186SOL     OW 9575   3.955   3.575   4.207
 3186SOL    HW1 9576   3.989   3.652   4.261
 3186SOL    HW2 9577   3.999   3.575   4.117
 3187SOL     OW 9578   3.954   3.296   4.262
 3187SOL    HW1 9579   3.928   3.392   4.262
 3187SOL    HW2 9580   3.883   3.242   4.307
 3188SOL     OW 9581   3.964   2.953   4.610
 3188SOL    HW1 9582   3.978   2.869   4.662
 3188SOL    HW2 9583   3.909   3.017   4.665
 3189SOL     OW 9584   4.330   2.826   3.847
 3189SOL    HW1 9585   4.337   2.910   3.793
 3189SOL    HW2 9586   4.376   2.839   3.935
 3190SOL     OW 9587   3.846   2.505   4.287
 3190SOL    HW1 9588   3.801   2.417   4.304
 3190SOL    HW2 9589   3.845   2.559   4.371
 3191SOL     OW 9590   3.751   3.458   3.841
 3191SOL    HW1 9591   3.732   3.362   3.862
 3191SOL    HW2 9592   3.718   3.516   3.916
 3192SOL     OW 9593   4.337   3.227   4.450
 3192SOL    HW1 9594   4.288   3.140   4.459
 3192SOL    HW2 9595   4.314   3.270   4.363
 3193SOL     OW 9596   4.533   1.866   4.226
 3193SOL    HW1 9597   4.573   1.957   4.217
 3193SOL    HW2 9598   4.433   1.874   4.232
 3194SOL     OW 9599   4.322   2.591   3.994
 3194SOL    HW1 9600   4.346   2.660   3.926
 3194SOL    HW2 9601   4.244   2.624   4.048
 3195SOL     OW 9602   3.800   2.673   4.513
 3195SOL    HW1 9603   3.899   2.661   4.522
 3195SOL    HW2 9604   3.776   2.768   4.534
 3196SOL     OW 9605   4.589   2.210   3.919
 3196SOL    HW1 9606   4.648   2.273   3.870
 3196SOL    HW2 9607   4.608   2.116   3.890
 3197SOL     OW 9608   4.274   2.058   4.609
 3197SOL    HW1 9609   4.269   2.053   4.709
 3197SOL    HW2 9610   4.276   2.154   4.580
 3198SOL     OW 9611   4.732   3.318   4.201
 3198SOL    HW1 9612   4.686   3.390   4.149
 3198SOL    HW2 9613   4.728   3.338   4.299
 3199SOL     OW 9614   4.075   3.663   4.577
 3199SOL    HW1 9615   4.125   3.577   4.583
 3199SOL    HW2 9616   4.140   3.740   4.574
 3200SOL     OW 9617   4.045   2.805   3.966
 3200SOL    HW1 9618   4.127   2.844   3.924
 3200SOL    HW2 9619   4.018   2.723   3.917
 3201SOL     OW 9620   4.188   3.605   4.047
 3201SOL    HW1 9621   4.221   3.644   4.133
 3201SOL    HW2 9622   4.264   3.598   3.982
 3202SOL     OW 9623   4.106   2.562   4.204
 3202SOL    HW1 9624   4.151   2.472   4.201
 3202SOL    HW2 9625   4.012   2.551   4.237
 3203SOL     OW 9626   4.338   1.984   3.841
 3203SOL    HW1 9627   4.436   1.962   3.848
 3203SOL    HW2 9628   4.307   1.967   3.748
 3204SOL     OW 9629   4.527   3.264   4.648
 3204SOL    HW1 9630   4.617   3.278   4.606
 3204SOL    HW2 9631   4.456   3.266   4.577
 3205SOL     OW 9632   4.263   1.926   4.236
 3205SOL    HW1 9633   4.182   1.927   4.294
 3205SOL    HW2 9634   4.266   2.009   4.181
 3206SOL     OW 9635   4.021   1.897   3.895
 3206SOL    HW1 9636   4.070   1.981   3.874
 3206SOL    HW2 9637   4.083   1.832   3.940
 3207SOL     OW 9638   4.951   3.432   4.517
 3207SOL    HW1 9639   4.972   3.506   4.452
 3207SOL    HW2 9640   5.019   3.432   4.590
 3208SOL     OW 9641   4.183   3.014   4.465
 3208SOL    HW1 9642   4.112   2.987   4.530
 3208SOL    HW2 9643   4.157   2.986   4.372
 3209SOL     OW 9644   4.212   3.247   3.898
 3209SOL    HW1 9645   4.125   3.232   3.945
 3209SOL    HW2 9646   4.195   3.273   3.803
 3210SOL     OW 9647   4.251   2.118   4.052
 3210SOL    HW1 9648   4.278   2.059   3.977
 3210SOL    HW2 9649   4.251   2.213   4.021
 3211SOL     OW 9650   4.429   2.912   4.092
 3211SOL    HW1 9651   4.415   2.919   4.191
 3211SOL    HW2 9652   4.513   2.861   4.074
 3212SOL     OW 9653   4.091   2.962   4.225
 3212SOL    HW1 9654   4.084   3.045   4.169
 3212SOL    HW2 9655   4.095   2.882   4.165
 3213SOL     OW 9656   4.290   2.399   4.589
 3213SOL    HW1 9657   4.302   2.465   4.515
 3213SOL    HW2 9658   4.336   2.433   4.672
 3214SOL     OW 9659   4.933   2.387   3.999
 3214SOL    HW1 9660   4.946   2.303   4.053
 3214SOL    HW2 9661   4.904   2.461   4.059
 3215SOL     OW 9662   4.456   2.496   4.788
 3215SOL    HW1 9663   4.515   2.470   4.712
 3215SOL    HW2 9664   4.428   2.592   4.777
 3216SOL     OW 9665   4.031   1.925   4.342
 3216SOL    HW1 9666   4.020   2.019   4.375
 3216SOL    HW2 9667   4.026   1.862   4.419
 3217SOL     OW 9668   4.747   2.628   4.690
 3217SOL    HW1 9669   4.762   2.649   4.786
 3217SOL    HW2 9670   4.717   2.533   4.681
 3218SOL     OW 9671   4.043   2.672   4.673
 3218SOL    HW1 9672   4.136   2.708   4.678
 3218SOL    HW2 9673   4.037   2.587   4.725
 3219SOL     OW 9674   3.732   3.188   3.924
 3219SOL    HW1 9675   3.639   3.209   3.893
 3219SOL    HW2 9676   3.742   3.089   3.937
 3220SOL     OW 9677   3.812   3.663   4.651
 3220SOL    HW1 9678   3.770   3.577   4.624
 3220SOL    HW2 9679   3.906   3.666   4.617
 3221SOL     OW 9680   4.228   3.430   4.634
 3221SOL    HW1 9681   4.294   3.504   4.643
 3221SOL    HW2 9682   4.272   3.351   4.592
 3222SOL     OW 9683   4.726   2.658   4.962
 3222SOL    HW1 9684   4.767   2.626   5.048
 3222SOL    HW2 9685   4.630   2.631   4.959
 3223SOL     OW 9686   4.539   2.434   4.049
 3223SOL    HW1 9687   4.546   2.345   4.003
 3223SOL    HW2 9688   4.445   2.468   4.041
 3224SOL     OW 9689   4.197   2.362   3.915
 3224SOL    HW1 9690   4.258   2.442   3.919
 3224SOL    HW2 9691   4.102   2.393   3.922
 3225SOL     OW 9692   4.627   1.948   3.857
 3225SOL    HW1 9693   4.678   1.949   3.771
 3225SOL    HW2 9694   4.683   1.906   3.928
 3226SOL     OW 9695   4.396   3.478   3.878
 3226SOL    HW1 9696   4.405   3.488   3.779
 3226SOL    HW2 9697   4.356   3.389   3.899
 3227SOL     OW 9698   3.987   2.188   4.444
 3227SOL    HW1 9699   3.908   2.239   4.410
 3227SOL    HW2 9700   3.978   2.173   4.542
 3228SOL     OW 9701   4.314   3.349   4.215
 3228SOL    HW1 9702   4.356   3.291   4.145
 3228SOL    HW2 9703   4.270   3.428   4.171
 3229SOL     OW 9704   3.979   3.210   4.014
 3229SOL    HW1 9705   3.883   3.211   3.987
 3229SOL    HW2 9706   3.991   3.263   4.098
 3230SOL     OW 9707   3.799   2.207   3.757
 3230SOL    HW1 9708   3.707   2.179   3.728
 3230SOL    HW2 9709   3.830   2.284   3.701
 3231SOL     OW 9710   3.796   2.028   4.042
 3231SOL    HW1 9711   3.779   2.111   3.988
 3231SOL    HW2 9712   3.886   1.991   4.020
 3232SOL     OW 9713   4.949   2.187   4.173
 3232SOL    HW1 9714   5.014   2.113   4.162
 3232SOL    HW2 9715   4.969   2.237   4.257
 3233SOL     OW 9716   4.318   2.607   4.376
 3233SOL    HW1 9717   4.368   2.692   4.357
 3233SOL    HW2 9718   4.230   2.609   4.328
 3234SOL     OW 9719   4.385   3.652   4.677
 3234SOL    HW1 9720   4.339   3.740   4.664
 3234SOL    HW2 9721   4.484   3.664   4.670
 3235SOL     OW 9722   4.583   2.818   4.585
 3235SOL    HW1 9723   4.637   2.749   4.633
 3235SOL    HW2 9724   4.551   2.887   4.651
 3236SOL     OW 9725   3.803   3.102   4.377
 3236SOL    HW1 9726   3.802   3.055   4.465
 3236SOL    HW2 9727   3.885   3.074   4.326
 3237SOL     OW 9728   4.152   2.286   4.244
 3237SOL    HW1 9729   4.182   2.214   4.182
 3237SOL    HW2 9730   4.113   2.246   4.327
 3238SOL     OW 9731   4.536   3.448   4.411
 3238SOL    HW1 9732   4.568   3.458   4.317
 3238SOL    HW2 9733   4.457   3.386   4.413
 3239SOL     OW 9734   4.494   3.192   4.025
 3239SOL    HW1 9735   4.448   3.105   4.042
 3239SOL    HW2 9736   4.585   3.189   4.066
 3240SOL     OW 9737   3.763   2.939   4.024
 3240SOL    HW1 9738   3.862   2.928   4.015
 3240SOL    HW2 9739   3.723   2.853   4.056
 3241SOL     OW 9740   4.599   3.508   4.061
 3241SOL    HW1 9741   4.522   3.473   4.007
 3241SOL    HW2 9742   4.567   3.579   4.123
 3242SOL     OW 9743   3.954   4.352   0.113
 3242SOL    HW1 9744   3.861   4.350   0.150
 3242SOL    HW2 9745   3.955   4.313   0.021
 3243SOL     OW 9746   3.949   3.999   0.996
 3243SOL    HW1 9747   3.984   3.982   1.088
 3243SOL    HW2 9748   3.861   3.954   0.984
 3244SOL     OW 9749   3.743   4.092   0.647
 3244SOL    HW1 9750   3.661   4.135   0.686
 3244SOL    HW2 9751   3.715   4.019   0.584
 3245SOL     OW 9752   4.574   4.522   1.823
 3245SOL    HW1 9753   4.570   4.598   1.888
 3245SOL    HW2 9754   4.596   4.558   1.732
 3246SOL     OW 9755   4.409   4.736   0.665
 3246SOL    HW1 9756   4.478   4.720   0.735
 3246SOL    HW2 9757   4.336   4.793   0.703
 3247SOL     OW 9758   4.162   4.116   1.499
 3247SOL    HW1 9759   4.244   4.060   1.508
 3247SOL    HW2 9760   4.081   4.058   1.503
 3248SOL     OW 9761   3.846   4.367   0.563
 3248SOL    HW1 9762   3.801   4.279   0.580
 3248SOL    HW2 9763   3.845   4.421   0.647
 3249SOL     OW 9764   3.837   4.461   1.597
 3249SOL    HW1 9765   3.925   4.448   1.642
 3249SOL    HW2 9766   3.824   4.558   1.575
 3250SOL     OW 9767   4.533   3.728   0.502
 3250SOL    HW1 9768   4.573   3.819   0.493
 3250SOL    HW2 9769   4.433   3.736   0.508
 3251SOL     OW 9770   3.921   4.700   1.264
 3251SOL    HW1 9771   4.010   4.655   1.250
 3251SOL    HW2 9772   3.848   4.635   1.245
 3252SOL     OW 9773   4.041   3.975   1.801
 3252SOL    HW1 9774   4.112   4.046   1.807
 3252SOL    HW2 9775   3.953   4.014   1.829
 3253SOL     OW 9776   4.322   4.453   0.270
 3253SOL    HW1 9777   4.346   4.522   0.202
 3253SOL    HW2 9778   4.244   4.486   0.324
 3254SOL     OW 9779   4.531   4.329   1.465
 3254SOL    HW1 9780   4.484   4.326   1.554
 3254SOL    HW2 9781   4.480   4.274   1.399
 3255SOL     OW 9782   4.715   4.134   1.242
 3255SOL    HW1 9783   4.638   4.168   1.296
 3255SOL    HW2 9784   4.681   4.083   1.163
 3256SOL     OW 9785   3.800   4.535   0.789
 3256SOL    HW1 9786   3.899   4.523   0.798
 3256SOL    HW2 9787   3.776   4.630   0.810
 3257SOL     OW 9788   4.589   4.072   0.195
 3257SOL    HW1 9789   4.648   4.135   0.146
 3257SOL    HW2 9790   4.608   3.978   0.166
 3258SOL     OW 9791   4.274   3.920   0.885
 3258SOL    HW1 9792   4.269   3.915   0.985
 3258SOL    HW2 9793   4.276   4.016   0.856
 3259SOL     OW 9794   3.926   4.009   1.498
 3259SOL    HW1 9795   3.846   4.069   1.485
 3259SOL    HW2 9796   3.916   3.960   1.584
 3260SOL     OW 9797   4.106   4.424   0.480
 3260SOL    HW1 9798   4.151   4.334   0.477
 3260SOL    HW2 9799   4.012   4.413   0.513
 3261SOL     OW 9800   4.505   3.988   1.749
 3261SOL    HW1 9801   4.572   3.927   1.792
 3261SOL    HW2 9802   4.432   4.007   1.814
 3262SOL     OW 9803   4.646   4.227   0.899
 3262SOL    HW1 9804   4.621   4.218   0.803
 3262SOL    HW2 9805   4.694   4.145   0.930
 3263SOL     OW 9806   4.263   3.788   0.512
 3263SOL    HW1 9807   4.182   3.789   0.570
 3263SOL    HW2 9808   4.266   3.871   0.457
 3264SOL     OW 9809   4.021   3.759   0.171
 3264SOL    HW1 9810   4.070   3.843   0.150
 3264SOL    HW2 9811   4.083   3.694   0.216
 3265SOL     OW 9812   3.802   4.280   1.386
 3265SOL    HW1 9813   3.894   4.279   1.345
 3265SOL    HW2 9814   3.796   4.354   1.453
 3266SOL     OW 9815   4.285   3.946   1.147
 3266SOL    HW1 9816   4.323   3.862   1.184
 3266SOL    HW2 9817   4.197   3.965   1.191
 3267SOL     OW 9818   4.251   3.980   0.328
 3267SOL    HW1 9819   4.278   3.921   0.253
 3267SOL    HW2 9820   4.251   4.075   0.297
 3268SOL     OW 9821   4.639   3.813   1.402
 3268SOL    HW1 9822   4.664   3.793   1.307
 3268SOL    HW2 9823   4.711   3.869   1.444
 3269SOL     OW 9824   4.134   4.537   1.251
 3269SOL    HW1 9825   4.220   4.549   1.301
 3269SOL    HW2 9826   4.092   4.450   1.278
 3270SOL     OW 9827   4.290   4.261   0.865
 3270SOL    HW1 9828   4.302   4.327   0.791
 3270SOL    HW2 9829   4.336   4.295   0.948
 3271SOL     OW 9830   4.126   4.475   1.598
 3271SOL    HW1 9831   4.194   4.530   1.551
 3271SOL    HW2 9832   4.166   4.387   1.625
 3272SOL     OW 9833   4.228   3.774   1.740
 3272SOL    HW1 9834   4.186   3.717   1.670
 3272SOL    HW2 9835   4.162   3.843   1.772
 3273SOL     OW 9836   4.297   4.594   1.029
 3273SOL    HW1 9837   4.341   4.683   1.020
 3273SOL    HW2 9838   4.234   4.594   1.106
 3274SOL     OW 9839   4.933   4.249   0.275
 3274SOL    HW1 9840   4.946   4.165   0.329
 3274SOL    HW2 9841   4.904   4.323   0.335
 3275SOL     OW 9842   4.031   3.937   1.231
 3275SOL    HW1 9843   4.008   3.974   1.321
 3275SOL    HW2 9844   4.001   3.842   1.225
 3276SOL     OW 9845   4.456   4.358   1.064
 3276SOL    HW1 9846   4.515   4.332   0.988
 3276SOL    HW2 9847   4.428   4.454   1.053
 3277SOL     OW 9848   4.031   3.787   0.618
 3277SOL    HW1 9849   4.020   3.881   0.651
 3277SOL    HW2 9850   4.026   3.724   0.695
 3278SOL     OW 9851   4.747   4.490   0.966
 3278SOL    HW1 9852   4.762   4.511   1.062
 3278SOL    HW2 9853   4.717   4.395   0.957
 3279SOL     OW 9854   4.074   4.622   1.804
 3279SOL    HW1 9855   4.150   4.666   1.852
 3279SOL    HW2 9856   4.109   4.575   1.722
 3280SOL     OW 9857   4.043   4.534   0.949
 3280SOL    HW1 9858   4.136   4.570   0.954
 3280SOL    HW2 9859   4.037   4.449   1.001
 3281SOL     OW 9860   4.063   4.233   1.006
 3281SOL    HW1 9861   4.011   4.150   0.989
 3281SOL    HW2 9862   4.140   4.238   0.942
 3282SOL     OW 9863   4.726   4.520   1.238
 3282SOL    HW1 9864   4.767   4.488   1.324
 3282SOL    HW2 9865   4.630   4.493   1.235
 3283SOL     OW 9866   3.764   4.268   1.114
 3283SOL    HW1 9867   3.849   4.235   1.073
 3283SOL    HW2 9868   3.777   4.283   1.212
 3284SOL     OW 9869   3.913   4.244   1.722
 3284SOL    HW1 9870   3.972   4.204   1.652
 3284SOL    HW2 9871   3.855   4.315   1.681
 3285SOL     OW 9872   4.539   4.296   0.325
 3285SOL    HW1 9873   4.546   4.207   0.279
 3285SOL    HW2 9874   4.445   4.330   0.317
 3286SOL     OW 9875   4.395   4.188   1.269
 3286SOL    HW1 9876   4.361   4.099   1.239
 3286SOL    HW2 9877   4.421   4.242   1.189
 3287SOL     OW 9878   4.197   4.224   0.191
 3287SOL    HW1 9879   4.258   4.304   0.195
 3287SOL    HW2 9880   4.102   4.255   0.198
 3288SOL     OW 9881   4.627   3.810   0.133
 3288SOL    HW1 9882   4.678   3.811   0.047
 3288SOL    HW2 9883   4.683   3.768   0.204
 3289SOL     OW 9884   3.987   4.050   0.720
 3289SOL    HW1 9885   3.908   4.101   0.686
 3289SOL    HW2 9886   3.978   4.035   0.818
 3290SOL     OW 9887   4.763   4.822   0.696
 3290SOL    HW1 9888   4.693   4.775   0.750
 3290SOL    HW2 9889   4.822   4.754   0.653
 3291SOL     OW 9890   3.829   4.737   1.726
 3291SOL    HW1 9891   3.752   4.704   1.780
 3291SOL    HW2 9892   3.914   4.707   1.768
 3292SOL     OW 9893   4.396   3.927   1.489
 3292SOL    HW1 9894   4.486   3.911   1.449
 3292SOL    HW2 9895   4.404   3.932   1.588
 3293SOL     OW 9896   3.796   3.890   0.318
 3293SOL    HW1 9897   3.779   3.973   0.264
 3293SOL    HW2 9898   3.886   3.853   0.296
 3294SOL     OW 9899   4.337   4.566   1.431
 3294SOL    HW1 9900   4.393   4.647   1.414
 3294SOL    HW2 9901   4.396   4.486   1.434
 3295SOL     OW 9902   4.440   4.289   1.708
 3295SOL    HW1 9903   4.459   4.354   1.782
 3295SOL    HW2 9904   4.500   4.209   1.717
 3296SOL     OW 9905   4.949   4.049   0.449
 3296SOL    HW1 9906   5.014   3.975   0.438
 3296SOL    HW2 9907   4.969   4.099   0.533
 3297SOL     OW 9908   4.318   4.469   0.652
 3297SOL    HW1 9909   4.368   4.554   0.633
 3297SOL    HW2 9910   4.230   4.471   0.604
 3298SOL     OW 9911   4.583   4.680   0.861
 3298SOL    HW1 9912   4.637   4.611   0.909
 3298SOL    HW2 9913   4.551   4.749   0.927
 3299SOL     OW 9914   4.152   4.148   0.520
 3299SOL    HW1 9915   4.182   4.076   0.458
 3299SOL    HW2 9916   4.113   4.108   0.603
 3300SOL     OW 9917   4.041   4.271   1.280
 3300SOL    HW1 9918   4.079   4.212   1.352
 3300SOL    HW2 9919   4.081   4.245   1.192
 3301SOL     OW 9920   4.725   3.758   1.154
 3301SOL    HW1 9921   4.662   3.686   1.123
 3301SOL    HW2 9922   4.818   3.722   1.154
 3302SOL     OW 9923   3.954   4.352   1.975
 3302SOL    HW1 9924   3.861   4.350   2.012
 3302SOL    HW2 9925   3.955   4.313   1.883
 3303SOL     OW 9926   3.949   3.999   2.858
 3303SOL    HW1 9927   3.984   3.982   2.950
 3303SOL    HW2 9928   3.861   3.954   2.846
 3304SOL     OW 9929   3.743   4.092   2.509
 3304SOL    HW1 9930   3.661   4.135   2.548
 3304SOL    HW2 9931   3.715   4.019   2.446
 3305SOL     OW 9932   4.574   4.522   3.685
 3305SOL    HW1 9933   4.570   4.598   3.750
 3305SOL    HW2 9934   4.596   4.558   3.594
 3306SOL     OW 9935   4.409   4.736   2.527
 3306SOL    HW1 9936   4.478   4.720   2.597
 3306SOL    HW2 9937   4.336   4.793   2.565
 3307SOL     OW 9938   4.162   4.116   3.361
 3307SOL    HW1 9939   4.244   4.060   3.370
 3307SOL    HW2 9940   4.081   4.058   3.365
 3308SOL     OW 9941   3.846   4.367   2.425
 3308SOL    HW1 9942   3.801   4.279   2.442
 3308SOL    HW2 9943   3.845   4.421   2.509
 3309SOL     OW 9944   3.837   4.461   3.459
 3309SOL    HW1 9945   3.925   4.448   3.504
 3309SOL    HW2 9946   3.824   4.558   3.437
 3310SOL     OW 9947   4.533   3.728   2.364
 3310SOL    HW1 9948   4.573   3.819   2.355
 3310SOL    HW2 9949   4.433   3.736   2.370
 3311SOL     OW 9950   3.921   4.700   3.126
 3311SOL    HW1 9951   4.010   4.655   3.112
 3311SOL    HW2 9952   3.848   4.635   3.107
 3312SOL     OW 9953   4.041   3.975   3.663
 3312SOL    HW1 9954   4.112   4.046   3.669
 3312SOL    HW2 9955   3.953   4.014   3.691
 3313SOL     OW 9956   4.322   4.453   2.132
 3313SOL    HW1 9957   4.346   4.522   2.064
 3313SOL    HW2 9958   4.244   4.486   2.186
 3314SOL     OW 9959   4.531   4.329   3.327
 3314SOL    HW1 9960   4.484   4.326   3.416
 3314SOL    HW2 9961   4.480   4.274   3.261
 3315SOL     OW 9962   4.715   4.134   3.104
 3315SOL    HW1 9963   4.638   4.168   3.158
 3315SOL    HW2 9964   4.681   4.083   3.025
 3316SOL     OW 9965   3.800   4.535   2.651
 3316SOL    HW1 9966   3.899   4.523   2.660
 3316SOL    HW2 9967   3.776   4.630   2.672
 3317SOL     OW 9968   4.589   4.072   2.057
 3317SOL    HW1 9969   4.648   4.135   2.008
 3317SOL    HW2 9970   4.608   3.978   2.028
 3318SOL     OW 9971   4.274   3.920   2.747
 3318SOL    HW1 9972   4.269   3.915   2.847
 3318SOL    HW2 9973   4.276   4.016   2.718
 3319SOL     OW 9974   3.926   4.009   3.360
 3319SOL    HW1 9975   3.846   4.069   3.347
 3319SOL    HW2 9976   3.916   3.960   3.446
 3320SOL     OW 9977   4.106   4.424   2.342
 3320SOL    HW1 9978   4.151   4.334   2.339
 3320SOL    HW2 9979   4.012   4.413   2.375
 3321SOL     OW 9980   4.338   3.846   1.979
 3321SOL    HW1 9981   4.436   3.824   1.986
 3321SOL    HW2 9982   4.307   3.829   1.886
 3322SOL     OW 9983   4.505   3.988   3.611
 3322SOL    HW1 9984   4.572   3.927   3.654
 3322SOL    HW2 9985   4.432   4.007   3.676
 3323SOL     OW 9986   4.646   4.227   2.761
 3323SOL    HW1 9987   4.621   4.218   2.665
 3323SOL    HW2 9988   4.694   4.145   2.792
 3324SOL     OW 9989   4.263   3.788   2.374
 3324SOL    HW1 9990   4.182   3.789   2.432
 3324SOL    HW2 9991   4.266   3.871   2.319
 3325SOL     OW 9992   4.021   3.759   2.033
 3325SOL    HW1 9993   4.070   3.843   2.012
 3325SOL    HW2 9994   4.083   3.694   2.078
 3326SOL     OW 9995   3.802   4.280   3.248
 3326SOL    HW1 9996   3.894   4.279   3.207
 3326SOL    HW2 9997   3.796   4.354   3.315
 3327SOL     OW 9998   4.285   3.946   3.009
 3327SOL    HW1 9999   4.323   3.862   3.046
 3327SOL    HW210000   4.197   3.965   3.053
 3328SOL     OW10001   4.251   3.980   2.190
 3328SOL    HW110002   4.278   3.921   2.115
 3328SOL    HW210003   4.251   4.075   2.159
 3329SOL     OW10004   4.639   3.813   3.264
 3329SOL    HW110005   4.664   3.793   3.169
 3329SOL    HW210006   4.711   3.869   3.306
 3330SOL     OW10007   4.134   4.537   3.113
 3330SOL    HW110008   4.220   4.549   3.163
 3330SOL    HW210009   4.092   4.450   3.140
 3331SOL     OW10010   4.290   4.261   2.727
 3331SOL    HW110011   4.302   4.327   2.653
 3331SOL    HW210012   4.336   4.295   2.810
 3332SOL     OW10013   4.126   4.475   3.460
 3332SOL    HW110014   4.194   4.530   3.413
 3332SOL    HW210015   4.166   4.387   3.487
 3333SOL     OW10016   4.228   3.774   3.602
 3333SOL    HW110017   4.186   3.717   3.532
 3333SOL    HW210018   4.162   3.843   3.634
 3334SOL     OW10019   4.297   4.594   2.891
 3334SOL    HW110020   4.341   4.683   2.882
 3334SOL    HW210021   4.234   4.594   2.968
 3335SOL     OW10022   4.933   4.249   2.137
 3335SOL    HW110023   4.946   4.165   2.191
 3335SOL    HW210024   4.904   4.323   2.197
 3336SOL     OW10025   4.031   3.937   3.093
 3336SOL    HW110026   4.008   3.974   3.183
 3336SOL    HW210027   4.001   3.842   3.087
 3337SOL     OW10028   4.456   4.358   2.926
 3337SOL    HW110029   4.515   4.332   2.850
 3337SOL    HW210030   4.428   4.454   2.915
 3338SOL     OW10031   4.031   3.787   2.480
 3338SOL    HW110032   4.020   3.881   2.513
 3338SOL    HW210033   4.026   3.724   2.557
 3339SOL     OW10034   4.747   4.490   2.828
 3339SOL    HW110035   4.762   4.511   2.924
 3339SOL    HW210036   4.717   4.395   2.819
 3340SOL     OW10037   4.074   4.622   3.666
 3340SOL    HW110038   4.150   4.666   3.714
 3340SOL    HW210039   4.109   4.575   3.584
 3341SOL     OW10040   4.043   4.534   2.811
 3341SOL    HW110041   4.136   4.570   2.816
 3341SOL    HW210042   4.037   4.449   2.863
 3342SOL     OW10043   4.063   4.233   2.868
 3342SOL    HW110044   4.011   4.150   2.851
 3342SOL    HW210045   4.140   4.238   2.804
 3343SOL     OW10046   4.726   4.520   3.100
 3343SOL    HW110047   4.767   4.488   3.186
 3343SOL    HW210048   4.630   4.493   3.097
 3344SOL     OW10049   3.764   4.268   2.976
 3344SOL    HW110050   3.849   4.235   2.935
 3344SOL    HW210051   3.777   4.283   3.074
 3345SOL     OW10052   3.913   4.244   3.584
 3345SOL    HW110053   3.972   4.204   3.514
 3345SOL    HW210054   3.855   4.315   3.543
 3346SOL     OW10055   4.539   4.296   2.187
 3346SOL    HW110056   4.546   4.207   2.141
 3346SOL    HW210057   4.445   4.330   2.179
 3347SOL     OW10058   4.395   4.188   3.131
 3347SOL    HW110059   4.361   4.099   3.101
 3347SOL    HW210060   4.421   4.242   3.051
 3348SOL     OW10061   4.197   4.224   2.053
 3348SOL    HW110062   4.258   4.304   2.057
 3348SOL    HW210063   4.102   4.255   2.060
 3349SOL     OW10064   4.627   3.810   1.995
 3349SOL    HW110065   4.678   3.811   1.909
 3349SOL    HW210066   4.683   3.768   2.066
 3350SOL     OW10067   3.987   4.050   2.582
 3350SOL    HW110068   3.908   4.101   2.548
 3350SOL    HW210069   3.978   4.035   2.680
 3351SOL     OW10070   4.763   4.822   2.558
 3351SOL    HW110071   4.693   4.775   2.612
 3351SOL    HW210072   4.822   4.754   2.515
 3352SOL     OW10073   3.829   4.737   3.588
 3352SOL    HW110074   3.752   4.704   3.642
 3352SOL    HW210075   3.914   4.707   3.630
 3353SOL     OW10076   4.396   3.927   3.351
 3353SOL    HW110077   4.486   3.911   3.311
 3353SOL    HW210078   4.404   3.932   3.450
 3354SOL     OW10079   3.799   4.069   1.895
 3354SOL    HW110080   3.707   4.041   1.866
 3354SOL    HW210081   3.830   4.146   1.839
 3355SOL     OW10082   3.796   3.890   2.180
 3355SOL    HW110083   3.779   3.973   2.126
 3355SOL    HW210084   3.886   3.853   2.158
 3356SOL     OW10085   4.337   4.566   3.293
 3356SOL    HW110086   4.393   4.647   3.276
 3356SOL    HW210087   4.396   4.486   3.296
 3357SOL     OW10088   4.440   4.289   3.570
 3357SOL    HW110089   4.459   4.354   3.644
 3357SOL    HW210090   4.500   4.209   3.579
 3358SOL     OW10091   4.949   4.049   2.311
 3358SOL    HW110092   5.014   3.975   2.300
 3358SOL    HW210093   4.969   4.099   2.395
 3359SOL     OW10094   4.318   4.469   2.514
 3359SOL    HW110095   4.368   4.554   2.495
 3359SOL    HW210096   4.230   4.471   2.466
 3360SOL     OW10097   4.583   4.680   2.723
 3360SOL    HW110098   4.637   4.611   2.771
 3360SOL    HW210099   4.551   4.749   2.789
 3361SOL     OW10100   4.152   4.148   2.382
 3361SOL    HW110101   4.182   4.076   2.320
 3361SOL    HW210102   4.113   4.108   2.465
 3362SOL     OW10103   4.041   4.271   3.142
 3362SOL    HW110104   4.079   4.212   3.214
 3362SOL    HW210105   4.081   4.245   3.054
 3363SOL     OW10106   4.725   3.758   3.016
 3363SOL    HW110107   4.662   3.686   2.985
 3363SOL    HW210108   4.818   3.722   3.016
 3364SOL     OW10109   3.954   4.352   3.837
 3364SOL    HW110110   3.861   4.350   3.874
 3364SOL    HW210111   3.955   4.313   3.745
 3365SOL     OW10112   3.949   3.999   4.720
 3365SOL    HW110113   3.984   3.982   4.812
 3365SOL    HW210114   3.861   3.954   4.708
 3366SOL     OW10115   3.743   4.092   4.371
 3366SOL    HW110116   3.661   4.135   4.410
 3366SOL    HW210117   3.715   4.019   4.308
 3367SOL     OW10118   4.409   4.736   4.389
 3367SOL    HW110119   4.478   4.720   4.459
 3367SOL    HW210120   4.336   4.793   4.427
 3368SOL     OW10121   3.846   4.367   4.287
 3368SOL    HW110122   3.801   4.279   4.304
 3368SOL    HW210123   3.845   4.421   4.371
 3369SOL     OW10124   4.533   3.728   4.226
 3369SOL    HW110125   4.573   3.819   4.217
 3369SOL    HW210126   4.433   3.736   4.232
 3370SOL     OW10127   4.322   4.453   3.994
 3370SOL    HW110128   4.346   4.522   3.926
 3370SOL    HW210129   4.244   4.486   4.048
 3371SOL     OW10130   3.800   4.535   4.513
 3371SOL    HW110131   3.899   4.523   4.522
 3371SOL    HW210132   3.776   4.630   4.534
 3372SOL     OW10133   4.589   4.072   3.919
 3372SOL    HW110134   4.648   4.135   3.870
 3372SOL    HW210135   4.608   3.978   3.890
 3373SOL     OW10136   4.274   3.920   4.609
 3373SOL    HW110137   4.269   3.915   4.709
 3373SOL    HW210138   4.276   4.016   4.580
 3374SOL     OW10139   4.106   4.424   4.204
 3374SOL    HW110140   4.151   4.334   4.201
 3374SOL    HW210141   4.012   4.413   4.237
 3375SOL     OW10142   4.338   3.846   3.841
 3375SOL    HW110143   4.436   3.824   3.848
 3375SOL    HW210144   4.307   3.829   3.748
 3376SOL     OW10145   4.263   3.788   4.236
 3376SOL    HW110146   4.182   3.789   4.294
 3376SOL    HW210147   4.266   3.871   4.181
 3377SOL     OW10148   4.021   3.759   3.895
 3377SOL    HW110149   4.070   3.843   3.874
 3377SOL    HW210150   4.083   3.694   3.940
 3378SOL     OW10151   4.251   3.980   4.052
 3378SOL    HW110152   4.278   3.921   3.977
 3378SOL    HW210153   4.251   4.075   4.021
 3379SOL     OW10154   4.290   4.261   4.589
 3379SOL    HW110155   4.302   4.327   4.515
 3379SOL    HW210156   4.336   4.295   4.672
 3380SOL     OW10157   4.297   4.594   4.753
 3380SOL    HW110158   4.341   4.683   4.744
 3380SOL    HW210159   4.234   4.594   4.830
 3381SOL     OW10160   4.933   4.249   3.999
 3381SOL    HW110161   4.946   4.165   4.053
 3381SOL    HW210162   4.904   4.323   4.059
 3382SOL     OW10163   4.456   4.358   4.788
 3382SOL    HW110164   4.515   4.332   4.712
 3382SOL    HW210165   4.428   4.454   4.777
 3383SOL     OW10166   4.031   3.787   4.342
 3383SOL    HW110167   4.020   3.881   4.375
 3383SOL    HW210168   4.026   3.724   4.419
 3384SOL     OW10169   4.747   4.490   4.690
 3384SOL    HW110170   4.762   4.511   4.786
 3384SOL    HW210171   4.717   4.395   4.681
 3385SOL     OW10172   4.043   4.534   4.673
 3385SOL    HW110173   4.136   4.570   4.678
 3385SOL    HW210174   4.037   4.449   4.725
 3386SOL     OW10175   4.726   4.520   4.962
 3386SOL    HW110176   4.767   4.488   5.048
 3386SOL    HW210177   4.630   4.493   4.959
 3387SOL     OW10178   4.539   4.296   4.049
 3387SOL    HW110179   4.546   4.207   4.003
 3387SOL    HW210180   4.445   4.330   4.041
 3388SOL     OW10181   4.197   4.224   3.915
 3388SOL    HW110182   4.258   4.304   3.919
 3388SOL    HW210183   4.102   4.255   3.922
 3389SOL     OW10184   4.627   3.810   3.857
 3389SOL    HW110185   4.678   3.811   3.771
 3389SOL    HW210186   4.683   3.768   3.928
 3390SOL     OW10187   3.987   4.050   4.444
 3390SOL    HW110188   3.908   4.101   4.410
 3390SOL    HW210189   3.978   4.035   4.542
 3391SOL     OW10190   4.763   4.822   4.420
 3391SOL    HW110191   4.693   4.775   4.474
 3391SOL    HW210192   4.822   4.754   4.377
 3392SOL     OW10193   3.799   4.069   3.757
 3392SOL    HW110194   3.707   4.041   3.728
 3392SOL    HW210195   3.830   4.146   3.701
 3393SOL     OW10196   3.796   3.890   4.042
 3393SOL    HW110197   3.779   3.973   3.988
 3393SOL    HW210198   3.886   3.853   4.020
 3394SOL     OW10199   4.949   4.049   4.173
 3394SOL    HW110200   5.014   3.975   4.162
 3394SOL    HW210201   4.969   4.099   4.257
 3395SOL     OW10202   4.318   4.469   4.376
 3395SOL    HW110203   4.368   4.554   4.357
 3395SOL    HW210204   4.230   4.471   4.328
 3396SOL     OW10205   4.583   4.680   4.585
 3396SOL    HW110206   4.637   4.611   4.633
 3396SOL    HW210207   4.551   4.749   4.651
 3397SOL     OW10208   4.152   4.148   4.244
 3397SOL    HW110209   4.182   4.076   4.182
 3397SOL    HW210210   4.113   4.108   4.327
   4.71341   4.71341   4.71341
