mobley_3370989_GMX.gro created by acpype (v: 2023.10.27) on Wed May 20 23:42:15 2026
 7901
    1MOL     C1    1   2.127   2.194   2.103
    1MOL     C2    2   2.195   2.130   2.221
    1MOL     F1    3   2.170   2.203   2.333
    1MOL     F2    4   2.329   2.130   2.203
    1MOL     H1    5   2.163   2.297   2.090
    1MOL     H2    6   2.149   2.139   2.011
    1MOL     H3    7   2.019   2.198   2.118
    1MOL     H4    8   2.161   2.027   2.238
    2SOL     OW    9   0.230   0.628   0.113
    2SOL    HW1   10   0.137   0.626   0.150
    2SOL    HW2   11   0.231   0.589   0.021
    3SOL     OW   12   0.225   0.275   0.996
    3SOL    HW1   13   0.260   0.258   1.088
    3SOL    HW2   14   0.137   0.230   0.984
    4SOL     OW   15   0.019   0.368   0.647
    4SOL    HW1   16  -0.063   0.411   0.686
    4SOL    HW2   17  -0.009   0.295   0.584
    5SOL     OW   18   0.569   1.275   1.165
    5SOL    HW1   19   0.476   1.268   1.128
    5SOL    HW2   20   0.580   1.364   1.209
    6SOL     OW   21   1.555   1.511   0.703
    6SOL    HW1   22   1.498   1.495   0.784
    6SOL    HW2   23   1.496   1.521   0.623
    7SOL     OW   24   1.135   0.703   0.717
    7SOL    HW1   25   1.192   0.781   0.692
    7SOL    HW2   26   1.075   0.729   0.793
    8SOL     OW   27   1.755   0.607   0.231
    8SOL    HW1   28   1.743   0.594   0.132
    8SOL    HW2   29   1.725   0.526   0.280
    9SOL     OW   30   0.768   1.144   1.023
    9SOL    HW1   31   0.690   1.161   1.083
    9SOL    HW2   32   0.802   1.231   0.987
   10SOL     OW   33   0.850   0.798   1.823
   10SOL    HW1   34   0.846   0.874   1.888
   10SOL    HW2   35   0.872   0.834   1.732
   11SOL     OW   36   0.685   1.012   0.665
   11SOL    HW1   37   0.754   0.996   0.735
   11SOL    HW2   38   0.612   1.069   0.703
   12SOL     OW   39   0.686   1.161   1.803
   12SOL    HW1   40   0.746   1.240   1.817
   12SOL    HW2   41   0.600   1.192   1.762
   13SOL     OW   42   0.335   1.435   1.061
   13SOL    HW1   43   0.257   1.404   1.008
   13SOL    HW2   44   0.393   1.493   1.004
   14SOL     OW   45   1.460   1.505   1.339
   14SOL    HW1   46   1.484   1.599   1.365
   14SOL    HW2   47   1.444   1.451   1.421
   15SOL     OW   48   0.438   0.392   1.499
   15SOL    HW1   49   0.520   0.336   1.508
   15SOL    HW2   50   0.357   0.334   1.503
   16SOL     OW   51   1.603   0.447   0.737
   16SOL    HW1   52   1.529   0.493   0.687
   16SOL    HW2   53   1.654   0.515   0.790
   17SOL     OW   54   0.231   1.713   0.483
   17SOL    HW1   55   0.265   1.790   0.537
   17SOL    HW2   56   0.275   1.713   0.393
   18SOL     OW   57   1.127   1.341   1.690
   18SOL    HW1   58   1.174   1.341   1.778
   18SOL    HW2   59   1.079   1.254   1.679
   19SOL     OW   60   0.230   1.434   0.538
   19SOL    HW1   61   0.204   1.530   0.538
   19SOL    HW2   62   0.159   1.380   0.583
   20SOL     OW   63   0.240   1.091   0.886
   20SOL    HW1   64   0.254   1.007   0.938
   20SOL    HW2   65   0.185   1.155   0.941
   21SOL     OW   66   0.620   1.786   1.439
   21SOL    HW1   67   0.528   1.769   1.474
   21SOL    HW2   68   0.648   1.878   1.465
   22SOL     OW   69   0.606   0.964   0.123
   22SOL    HW1   70   0.613   1.048   0.069
   22SOL    HW2   71   0.652   0.977   0.211
   23SOL     OW   72   1.594   0.114   1.480
   23SOL    HW1   73   1.576   0.181   1.408
   23SOL    HW2   74   1.591   0.160   1.569
   24SOL     OW   75   0.122   0.643   0.563
   24SOL    HW1   76   0.077   0.555   0.580
   24SOL    HW2   77   0.121   0.697   0.647
   25SOL     OW   78   1.842   1.767   0.359
   25SOL    HW1   79   1.896   1.738   0.439
   25SOL    HW2   80   1.872   1.857   0.330
   26SOL     OW   81   0.027   1.596   0.117
   26SOL    HW1   82   0.008   1.500   0.138
   26SOL    HW2   83  -0.006   1.654   0.192
   27SOL     OW   84   1.689   0.922   0.612
   27SOL    HW1   85   1.784   0.893   0.620
   27SOL    HW2   86   1.681   0.987   0.537
   28SOL     OW   87   1.641   1.108   0.432
   28SOL    HW1   88   1.727   1.110   0.380
   28SOL    HW2   89   1.655   1.155   0.520
   29SOL     OW   90   0.113   0.737   1.597
   29SOL    HW1   91   0.201   0.724   1.642
   29SOL    HW2   92   0.100   0.834   1.575
   30SOL     OW   93   0.613   1.365   0.726
   30SOL    HW1   94   0.564   1.278   0.735
   30SOL    HW2   95   0.590   1.408   0.639
   31SOL     OW   96   1.293   1.228   1.423
   31SOL    HW1   97   1.330   1.155   1.365
   31SOL    HW2   98   1.345   1.233   1.508
   32SOL     OW   99   0.809   0.004   0.502
   32SOL    HW1  100   0.849   0.095   0.493
   32SOL    HW2  101   0.709   0.012   0.508
   33SOL     OW  102   0.197   0.976   1.264
   33SOL    HW1  103   0.286   0.931   1.250
   33SOL    HW2  104   0.124   0.911   1.245
   34SOL     OW  105   1.525   0.999   0.190
   34SOL    HW1  106   1.462   0.923   0.203
   34SOL    HW2  107   1.573   1.017   0.276
   35SOL     OW  108   1.187   1.792   1.616
   35SOL    HW1  109   1.211   1.852   1.540
   35SOL    HW2  110   1.194   1.697   1.586
   36SOL     OW  111   0.317   0.251   1.801
   36SOL    HW1  112   0.388   0.322   1.807
   36SOL    HW2  113   0.229   0.290   1.829
   37SOL     OW  114   1.466   1.417   0.953
   37SOL    HW1  115   1.407   1.423   1.033
   37SOL    HW2  116   1.451   1.329   0.907
   38SOL     OW  117   1.667   1.714   0.572
   38SOL    HW1  118   1.626   1.691   0.484
   38SOL    HW2  119   1.649   1.640   0.637
   39SOL     OW  120   0.598   0.729   0.270
   39SOL    HW1  121   0.622   0.798   0.202
   39SOL    HW2  122   0.520   0.762   0.324
   40SOL     OW  123   1.281   0.345   0.944
   40SOL    HW1  124   1.195   0.295   0.931
   40SOL    HW2  125   1.343   0.291   1.000
   41SOL     OW  126   1.576   1.662   0.307
   41SOL    HW1  127   1.665   1.708   0.310
   41SOL    HW2  128   1.555   1.638   0.212
   42SOL     OW  129   0.807   0.605   1.465
   42SOL    HW1  130   0.760   0.602   1.554
   42SOL    HW2  131   0.756   0.550   1.399
   43SOL     OW  132   1.394   0.469   1.674
   43SOL    HW1  133   1.374   0.512   1.762
   43SOL    HW2  134   1.472   0.407   1.683
   44SOL     OW  135   0.973   0.890   1.572
   44SOL    HW1  136   1.019   0.806   1.543
   44SOL    HW2  137   0.917   0.924   1.497
   45SOL     OW  138   0.991   0.410   1.242
   45SOL    HW1  139   0.914   0.444   1.296
   45SOL    HW2  140   0.957   0.359   1.163
   46SOL     OW  141   1.041   0.701   0.429
   46SOL    HW1  142   1.067   0.697   0.525
   46SOL    HW2  143   0.956   0.650   0.415
   47SOL     OW  144   0.076   0.811   0.789
   47SOL    HW1  145   0.175   0.799   0.798
   47SOL    HW2  146   0.052   0.906   0.810
   48SOL     OW  147   0.130   1.821   1.571
   48SOL    HW1  148   0.120   1.806   1.670
   48SOL    HW2  149   0.044   1.857   1.535
   49SOL     OW  150   0.865   0.348   0.195
   49SOL    HW1  151   0.924   0.411   0.146
   49SOL    HW2  152   0.884   0.254   0.166
   50SOL     OW  153   1.719   0.585   1.831
   50SOL    HW1  154   1.693   0.674   1.795
   50SOL    HW2  155   1.717   0.517   1.758
   51SOL     OW  156   1.362   1.144   0.545
   51SOL    HW1  157   1.445   1.115   0.497
   51SOL    HW2  158   1.313   1.211   0.489
   52SOL     OW  159   0.550   0.196   0.885
   52SOL    HW1  160   0.545   0.191   0.985
   52SOL    HW2  161   0.552   0.292   0.856
   53SOL     OW  162   1.008   1.456   0.477
   53SOL    HW1  163   0.962   1.528   0.425
   53SOL    HW2  164   1.004   1.476   0.575
   54SOL     OW  165   0.351   1.801   0.853
   54SOL    HW1  166   0.401   1.715   0.859
   54SOL    HW2  167   0.416   1.878   0.850
   55SOL     OW  168   1.795   1.066   0.873
   55SOL    HW1  169   1.733   1.051   0.797
   55SOL    HW2  170   1.743   1.077   0.958
   56SOL     OW  171   1.227   1.550   1.506
   56SOL    HW1  172   1.233   1.473   1.570
   56SOL    HW2  173   1.175   1.524   1.426
   57SOL     OW  174   0.321   0.943   0.242
   57SOL    HW1  175   0.403   0.982   0.200
   57SOL    HW2  176   0.294   0.861   0.193
   58SOL     OW  177   1.458   0.735   0.728
   58SOL    HW1  178   1.453   0.670   0.803
   58SOL    HW2  179   1.538   0.794   0.741
   59SOL     OW  180   0.461   1.266   1.727
   59SOL    HW1  181   0.411   1.267   1.641
   59SOL    HW2  182   0.398   1.248   1.803
   60SOL     OW  183   1.111   1.776   0.237
   60SOL    HW1  184   1.051   1.714   0.287
   60SOL    HW2  185   1.142   1.732   0.152
   61SOL     OW  186   0.202   0.285   1.498
   61SOL    HW1  187   0.122   0.345   1.485
   61SOL    HW2  188   0.192   0.236   1.584
   62SOL     OW  189   1.632   1.377   0.081
   62SOL    HW1  190   1.600   1.471   0.071
   62SOL    HW2  191   1.556   1.314   0.069
   63SOL     OW  192   0.464   1.743   0.323
   63SOL    HW1  193   0.497   1.782   0.409
   63SOL    HW2  194   0.540   1.736   0.258
   64SOL     OW  195   1.400   0.107   0.426
   64SOL    HW1  196   1.376   0.070   0.336
   64SOL    HW2  197   1.499   0.123   0.430
   65SOL     OW  198   0.249   1.785   1.241
   65SOL    HW1  199   0.306   1.720   1.291
   65SOL    HW2  200   0.233   1.752   1.148
   66SOL     OW  201   0.940   1.698   0.904
   66SOL    HW1  202   1.020   1.641   0.925
   66SOL    HW2  203   0.891   1.658   0.827
   67SOL     OW  204   0.382   0.700   0.480
   67SOL    HW1  205   0.427   0.610   0.477
   67SOL    HW2  206   0.288   0.689   0.513
   68SOL     OW  207   1.547   0.222   1.729
   68SOL    HW1  208   1.542   0.259   1.821
   68SOL    HW2  209   1.475   0.153   1.717
   69SOL     OW  210   0.614   0.122   0.117
   69SOL    HW1  211   0.712   0.100   0.124
   69SOL    HW2  212   0.583   0.105   0.024
   70SOL     OW  213   0.781   0.264   1.749
   70SOL    HW1  214   0.848   0.203   1.792
   70SOL    HW2  215   0.708   0.283   1.814
   71SOL     OW  216   0.888   1.514   1.195
   71SOL    HW1  217   0.865   1.489   1.101
   71SOL    HW2  218   0.949   1.445   1.234
   72SOL     OW  219   1.351   0.590   1.433
   72SOL    HW1  220   1.379   0.547   1.518
   72SOL    HW2  221   1.376   0.686   1.434
   73SOL     OW  222   0.803   1.402   0.924
   73SOL    HW1  223   0.893   1.416   0.882
   73SOL    HW2  224   0.732   1.404   0.853
   74SOL     OW  225   0.922   0.503   0.899
   74SOL    HW1  226   0.897   0.494   0.803
   74SOL    HW2  227   0.970   0.421   0.930
   75SOL     OW  228   0.539   0.064   0.512
   75SOL    HW1  229   0.458   0.065   0.570
   75SOL    HW2  230   0.542   0.147   0.457
   76SOL     OW  231   1.434   1.188   0.041
   76SOL    HW1  232   1.466   1.112   0.098
   76SOL    HW2  233   1.342   1.215   0.071
   77SOL     OW  234   0.297   0.035   0.171
   77SOL    HW1  235   0.346   0.119   0.150
   77SOL    HW2  236   0.359  -0.030   0.216
   78SOL     OW  237   0.935   0.236   0.480
   78SOL    HW1  238   0.887   0.277   0.402
   78SOL    HW2  239   1.034   0.234   0.461
   79SOL     OW  240   1.076   0.683   1.464
   79SOL    HW1  241   0.996   0.622   1.467
   79SOL    HW2  242   1.157   0.630   1.440
   80SOL     OW  243   1.227   1.570   0.793
   80SOL    HW1  244   1.248   1.644   0.728
   80SOL    HW2  245   1.295   1.570   0.866
   81SOL     OW  246   0.459   1.152   0.741
   81SOL    HW1  247   0.388   1.125   0.806
   81SOL    HW2  248   0.433   1.124   0.648
   82SOL     OW  249   1.271   1.797   0.591
   82SOL    HW1  250   1.315   1.861   0.527
   82SOL    HW2  251   1.221   1.849   0.661
   83SOL     OW  252   1.032   0.549   0.016
   83SOL    HW1  253   0.991   0.631  -0.023
   83SOL    HW2  254   1.096   0.575   0.089
   84SOL     OW  255   0.078   0.556   1.386
   84SOL    HW1  256   0.170   0.555   1.345
   84SOL    HW2  257   0.072   0.630   1.453
   85SOL     OW  258   0.561   0.222   1.147
   85SOL    HW1  259   0.599   0.138   1.184
   85SOL    HW2  260   0.473   0.241   1.191
   86SOL     OW  261   0.866   0.454   0.642
   86SOL    HW1  262   0.834   0.526   0.580
   86SOL    HW2  263   0.890   0.373   0.589
   87SOL     OW  264   1.017   0.039   0.753
   87SOL    HW1  265   0.945   0.044   0.684
   87SOL    HW2  266   0.993  -0.030   0.822
   88SOL     OW  267   1.429   1.173   0.867
   88SOL    HW1  268   1.374   1.089   0.860
   88SOL    HW2  269   1.455   1.202   0.775
   89SOL     OW  270   1.466   0.590   0.992
   89SOL    HW1  271   1.436   0.495   0.999
   89SOL    HW2  272   1.539   0.606   1.058
   90SOL     OW  273   1.857   0.833   0.377
   90SOL    HW1  274   1.899   0.769   0.441
   90SOL    HW2  275   1.819   0.782   0.299
   91SOL     OW  276   0.488   1.385   0.174
   91SOL    HW1  277   0.401   1.370   0.221
   91SOL    HW2  278   0.471   1.411   0.079
   92SOL     OW  279   1.664   1.280   0.657
   92SOL    HW1  280   1.763   1.288   0.671
   92SOL    HW2  281   1.619   1.364   0.688
   93SOL     OW  282   1.390   0.575   0.078
   93SOL    HW1  283   1.336   0.554   0.159
   93SOL    HW2  284   1.481   0.534   0.087
   94SOL     OW  285   0.527   0.256   0.328
   94SOL    HW1  286   0.554   0.197   0.253
   94SOL    HW2  287   0.527   0.351   0.297
   95SOL     OW  288   1.754   1.223   1.588
   95SOL    HW1  289   1.845   1.184   1.575
   95SOL    HW2  290   1.762   1.319   1.612
   96SOL     OW  291   1.064   1.347   1.340
   96SOL    HW1  292   0.984   1.324   1.395
   96SOL    HW2  293   1.147   1.321   1.389
   97SOL     OW  294   1.592   1.629   1.625
   97SOL    HW1  295   1.619   1.663   1.535
   97SOL    HW2  296   1.671   1.591   1.671
   98SOL     OW  297   1.111   1.195   1.100
   98SOL    HW1  298   1.071   1.239   1.181
   98SOL    HW2  299   1.070   1.232   1.017
   99SOL     OW  300   1.638   1.099   1.079
   99SOL    HW1  301   1.643   1.180   1.138
   99SOL    HW2  302   1.552   1.101   1.028
  100SOL     OW  303   0.915   0.089   1.402
  100SOL    HW1  304   0.940   0.069   1.307
  100SOL    HW2  305   0.987   0.145   1.444
  101SOL     OW  306   0.980   1.116   1.719
  101SOL    HW1  307   0.881   1.122   1.729
  101SOL    HW2  308   1.003   1.036   1.663
  102SOL     OW  309   0.705   1.050   0.368
  102SOL    HW1  310   0.691   1.057   0.467
  102SOL    HW2  311   0.789   0.999   0.350
  103SOL     OW  312   0.410   0.813   1.251
  103SOL    HW1  313   0.496   0.825   1.301
  103SOL    HW2  314   0.368   0.726   1.278
  104SOL     OW  315   1.274   0.386   1.262
  104SOL    HW1  316   1.295   0.460   1.326
  104SOL    HW2  317   1.185   0.403   1.219
  105SOL     OW  318   0.064   1.564   1.331
  105SOL    HW1  319   0.018   1.646   1.297
  105SOL    HW2  320   0.162   1.583   1.340
  106SOL     OW  321   0.367   1.100   0.501
  106SOL    HW1  322   0.360   1.183   0.445
  106SOL    HW2  323   0.371   1.020   0.441
  107SOL     OW  324   0.566   0.537   0.865
  107SOL    HW1  325   0.578   0.603   0.791
  107SOL    HW2  326   0.612   0.571   0.948
  108SOL     OW  327   1.252   1.348   0.388
  108SOL    HW1  328   1.302   1.425   0.428
  108SOL    HW2  329   1.157   1.350   0.420
  109SOL     OW  330   1.272   1.445   1.142
  109SOL    HW1  331   1.319   1.458   1.229
  109SOL    HW2  332   1.206   1.371   1.151
  110SOL     OW  333   1.582   0.639   0.472
  110SOL    HW1  334   1.551   0.700   0.545
  110SOL    HW2  335   1.632   0.691   0.403
  111SOL     OW  336   0.354   1.510   1.329
  111SOL    HW1  337   0.333   1.466   1.242
  111SOL    HW2  338   0.451   1.536   1.332
  112SOL     OW  339   0.402   0.751   1.598
  112SOL    HW1  340   0.470   0.806   1.551
  112SOL    HW2  341   0.442   0.663   1.625
  113SOL     OW  342   1.587   0.779   1.670
  113SOL    HW1  343   1.495   0.817   1.665
  113SOL    HW2  344   1.647   0.826   1.605
  114SOL     OW  345   1.013   0.105   1.770
  114SOL    HW1  346   1.019   0.190   1.718
  114SOL    HW2  347   1.045   0.029   1.713
  115SOL     OW  348   0.504   0.050   1.740
  115SOL    HW1  349   0.462  -0.007   1.670
  115SOL    HW2  350   0.438   0.119   1.772
  116SOL     OW  351   0.573   0.870   1.029
  116SOL    HW1  352   0.617   0.959   1.020
  116SOL    HW2  353   0.510   0.870   1.106
  117SOL     OW  354   1.360   0.862   1.045
  117SOL    HW1  355   1.285   0.862   0.979
  117SOL    HW2  356   1.397   0.770   1.054
  118SOL     OW  357   1.209   0.525   0.275
  118SOL    HW1  358   1.222   0.441   0.329
  118SOL    HW2  359   1.180   0.599   0.335
  119SOL     OW  360   0.307   0.213   1.231
  119SOL    HW1  361   0.284   0.250   1.321
  119SOL    HW2  362   0.277   0.118   1.225
  120SOL     OW  363   0.037   1.310   1.282
  120SOL    HW1  364   0.090   1.261   1.350
  120SOL    HW2  365   0.059   1.408   1.287
  121SOL     OW  366   0.732   0.634   1.064
  121SOL    HW1  367   0.791   0.608   0.988
  121SOL    HW2  368   0.704   0.730   1.053
  122SOL     OW  369   1.728   0.935   1.854
  122SOL    HW1  370   1.682   0.928   1.765
  122SOL    HW2  371   1.666   0.979   1.920
  123SOL     OW  372   0.307   0.063   0.618
  123SOL    HW1  373   0.296   0.157   0.651
  123SOL    HW2  374   0.302   0.000   0.695
  124SOL     OW  375   1.622   0.367   0.374
  124SOL    HW1  376   1.624   0.291   0.438
  124SOL    HW2  377   1.574   0.444   0.414
  125SOL     OW  378   1.023   0.766   0.966
  125SOL    HW1  379   1.038   0.787   1.062
  125SOL    HW2  380   0.993   0.671   0.957
  126SOL     OW  381   0.980   1.573   1.700
  126SOL    HW1  382   0.960   1.617   1.612
  126SOL    HW2  383   1.019   1.482   1.684
  127SOL     OW  384   1.859   1.518   1.605
  127SOL    HW1  385   1.873   1.545   1.510
  127SOL    HW2  386   1.942   1.540   1.658
  128SOL     OW  387   0.350   0.898   1.804
  128SOL    HW1  388   0.426   0.942   1.852
  128SOL    HW2  389   0.385   0.851   1.722
  129SOL     OW  390   1.540   0.274   0.125
  129SOL    HW1  391   1.479   0.199   0.148
  129SOL    HW2  392   1.562   0.326   0.208
  130SOL     OW  393   1.303   0.838   0.042
  130SOL    HW1  394   1.337   0.745   0.057
  130SOL    HW2  395   1.321   0.865  -0.053
  131SOL     OW  396   1.068   1.333   0.849
  131SOL    HW1  397   1.075   1.249   0.794
  131SOL    HW2  398   1.130   1.402   0.813
  132SOL     OW  399   0.319   0.810   0.949
  132SOL    HW1  400   0.412   0.846   0.954
  132SOL    HW2  401   0.313   0.725   1.001
  133SOL     OW  402   0.339   0.509   1.006
  133SOL    HW1  403   0.287   0.426   0.989
  133SOL    HW2  404   0.416   0.514   0.942
  134SOL     OW  405   1.138   0.380   1.678
  134SOL    HW1  406   1.093   0.443   1.742
  134SOL    HW2  407   1.231   0.411   1.661
  135SOL     OW  408   1.160   0.207   1.477
  135SOL    HW1  409   1.160   0.271   1.554
  135SOL    HW2  410   1.188   0.255   1.394
  136SOL     OW  411   0.008   1.326   0.200
  136SOL    HW1  412  -0.085   1.347   0.169
  136SOL    HW2  413   0.018   1.227   0.213
  137SOL     OW  414   0.088   1.801   0.927
  137SOL    HW1  415   0.046   1.715   0.900
  137SOL    HW2  416   0.182   1.804   0.893
  138SOL     OW  417   0.504   1.568   0.910
  138SOL    HW1  418   0.570   1.642   0.919
  138SOL    HW2  419   0.548   1.489   0.868
  139SOL     OW  420   1.002   0.796   1.238
  139SOL    HW1  421   1.043   0.764   1.324
  139SOL    HW2  422   0.906   0.769   1.235
  140SOL     OW  423   0.040   0.544   1.114
  140SOL    HW1  424   0.125   0.511   1.073
  140SOL    HW2  425   0.053   0.559   1.212
  141SOL     OW  426   0.189   0.520   1.722
  141SOL    HW1  427   0.248   0.480   1.652
  141SOL    HW2  428   0.131   0.591   1.681
  142SOL     OW  429   1.369   0.950   1.660
  142SOL    HW1  430   1.408   1.039   1.680
  142SOL    HW2  431   1.379   0.930   1.563
  143SOL     OW  432   0.815   0.572   0.325
  143SOL    HW1  433   0.822   0.483   0.279
  143SOL    HW2  434   0.721   0.606   0.317
  144SOL     OW  435   1.657   0.604   1.206
  144SOL    HW1  436   1.619   0.535   1.268
  144SOL    HW2  437   1.739   0.568   1.162
  145SOL     OW  438   0.252   1.564   1.744
  145SOL    HW1  439   0.222   1.621   1.820
  145SOL    HW2  440   0.245   1.467   1.770
  146SOL     OW  441   0.671   0.464   1.269
  146SOL    HW1  442   0.637   0.375   1.239
  146SOL    HW2  443   0.697   0.518   1.189
  147SOL     OW  444   0.930   1.678   1.465
  147SOL    HW1  445   0.906   1.660   1.370
  147SOL    HW2  446   0.960   1.772   1.475
  148SOL     OW  447   0.473   0.500   0.191
  148SOL    HW1  448   0.534   0.580   0.195
  148SOL    HW2  449   0.378   0.531   0.198
  149SOL     OW  450   0.159   1.137   1.466
  149SOL    HW1  451   0.181   1.076   1.542
  149SOL    HW2  452   0.169   1.088   1.380
  150SOL     OW  453   1.347   1.059   1.234
  150SOL    HW1  454   1.371   0.996   1.160
  150SOL    HW2  455   1.257   1.099   1.216
  151SOL     OW  456   1.302   0.855   0.309
  151SOL    HW1  457   1.216   0.824   0.351
  151SOL    HW2  458   1.298   0.841   0.210
  152SOL     OW  459   1.759   1.747   1.154
  152SOL    HW1  460   1.820   1.777   1.081
  152SOL    HW2  461   1.721   1.658   1.132
  153SOL     OW  462   1.252   1.731   1.128
  153SOL    HW1  463   1.336   1.736   1.074
  153SOL    HW2  464   1.229   1.635   1.146
  154SOL     OW  465   0.083   1.258   1.022
  154SOL    HW1  466   0.078   1.257   1.122
  154SOL    HW2  467   0.000   1.217   0.984
  155SOL     OW  468   0.688   1.662   1.716
  155SOL    HW1  469   0.632   1.743   1.725
  155SOL    HW2  470   0.740   1.666   1.630
  156SOL     OW  471   0.903   0.086   0.133
  156SOL    HW1  472   0.954   0.087   0.047
  156SOL    HW2  473   0.959   0.044   0.204
  157SOL     OW  474   1.726   0.135   0.523
  157SOL    HW1  475   1.799   0.118   0.456
  157SOL    HW2  476   1.695   0.048   0.561
  158SOL     OW  477   1.388   1.573   0.477
  158SOL    HW1  478   1.455   1.585   0.403
  158SOL    HW2  479   1.348   1.662   0.500
  159SOL     OW  480   0.130   1.794   1.851
  159SOL    HW1  481   0.089   1.720   1.904
  159SOL    HW2  482   0.194   1.845   1.909
  160SOL     OW  483   1.280   0.927   0.672
  160SOL    HW1  484   1.340   0.846   0.674
  160SOL    HW2  485   1.320   0.996   0.612
  161SOL     OW  486   0.830   1.273   1.422
  161SOL    HW1  487   0.825   1.306   1.517
  161SOL    HW2  488   0.744   1.292   1.376
  162SOL     OW  489   0.672   1.616   0.154
  162SOL    HW1  490   0.681   1.626   0.055
  162SOL    HW2  491   0.632   1.527   0.175
  163SOL     OW  492   1.650   1.720   1.394
  163SOL    HW1  493   1.703   1.730   1.310
  163SOL    HW2  494   1.623   1.810   1.428
  164SOL     OW  495   1.841   0.175   0.963
  164SOL    HW1  496   1.880   0.090   0.927
  164SOL    HW2  497   1.743   0.177   0.944
  165SOL     OW  498   0.263   0.326   0.720
  165SOL    HW1  499   0.184   0.377   0.686
  165SOL    HW2  500   0.254   0.311   0.818
  166SOL     OW  501   1.194   1.612   0.031
  166SOL    HW1  502   1.200   1.519   0.068
  166SOL    HW2  503   1.135   1.612  -0.049
  167SOL     OW  504   0.822   1.002   1.372
  167SOL    HW1  505   0.862   1.001   1.280
  167SOL    HW2  506   0.832   1.094   1.412
  168SOL     OW  507   0.916   0.910   0.291
  168SOL    HW1  508   0.979   0.948   0.223
  168SOL    HW2  509   0.956   0.827   0.330
  169SOL     OW  510   1.504   1.607   0.044
  169SOL    HW1  511   1.412   1.644   0.051
  169SOL    HW2  512   1.542   1.627  -0.046
  170SOL     OW  513   0.372   1.288   1.490
  170SOL    HW1  514   0.359   1.381   1.456
  170SOL    HW2  515   0.288   1.236   1.477
  171SOL     OW  516   1.614   1.292   1.289
  171SOL    HW1  517   1.674   1.295   1.369
  171SOL    HW2  518   1.539   1.356   1.302
  172SOL     OW  519   1.039   1.098   0.696
  172SOL    HW1  520   0.969   1.051   0.750
  172SOL    HW2  521   1.098   1.030   0.653
  173SOL     OW  522   1.014   0.236   0.971
  173SOL    HW1  523   1.006   0.200   0.878
  173SOL    HW2  524   1.012   0.160   1.036
  174SOL     OW  525   0.590   1.487   0.491
  174SOL    HW1  526   0.632   1.429   0.421
  174SOL    HW2  527   0.546   1.566   0.447
  175SOL     OW  528   1.709   0.385   1.381
  175SOL    HW1  529   1.782   0.454   1.385
  175SOL    HW2  530   1.737   0.310   1.322
  176SOL     OW  531   0.255   1.348   0.290
  176SOL    HW1  532   0.159   1.349   0.263
  176SOL    HW2  533   0.267   1.401   0.374
  177SOL     OW  534   0.105   1.013   1.726
  177SOL    HW1  535   0.028   0.980   1.780
  177SOL    HW2  536   0.190   0.983   1.768
  178SOL     OW  537   0.672   0.203   1.489
  178SOL    HW1  538   0.762   0.187   1.449
  178SOL    HW2  539   0.680   0.208   1.588
  179SOL     OW  540   0.075   0.345   0.033
  179SOL    HW1  541  -0.017   0.317   0.004
  179SOL    HW2  542   0.106   0.422  -0.023
  180SOL     OW  543   1.440   0.856   1.398
  180SOL    HW1  544   1.383   0.908   1.335
  180SOL    HW2  545   1.536   0.868   1.374
  181SOL     OW  546   0.072   0.166   0.318
  181SOL    HW1  547   0.055   0.249   0.264
  181SOL    HW2  548   0.162   0.129   0.296
  182SOL     OW  549   1.183   1.335   0.119
  182SOL    HW1  550   1.084   1.324   0.121
  182SOL    HW2  551   1.217   1.350   0.212
  183SOL     OW  552   0.613   0.842   1.431
  183SOL    HW1  553   0.669   0.923   1.414
  183SOL    HW2  554   0.672   0.762   1.434
  184SOL     OW  555   1.493   1.767   0.959
  184SOL    HW1  556   1.526   1.831   0.890
  184SOL    HW2  557   1.559   1.761   1.034
  185SOL     OW  558   0.716   0.565   1.708
  185SOL    HW1  559   0.735   0.630   1.782
  185SOL    HW2  560   0.776   0.485   1.717
  186SOL     OW  561   1.450   1.220   1.633
  186SOL    HW1  562   1.441   1.210   1.732
  186SOL    HW2  563   1.546   1.213   1.607
  187SOL     OW  564   0.390   1.741   1.560
  187SOL    HW1  565   0.299   1.782   1.558
  187SOL    HW2  566   0.383   1.647   1.592
  188SOL     OW  567   1.674   0.883   1.254
  188SOL    HW1  568   1.647   0.794   1.217
  188SOL    HW2  569   1.675   0.951   1.181
  189SOL     OW  570   1.225   0.325   0.449
  189SOL    HW1  571   1.290   0.251   0.438
  189SOL    HW2  572   1.245   0.375   0.533
  190SOL     OW  573   0.594   0.745   0.652
  190SOL    HW1  574   0.644   0.830   0.633
  190SOL    HW2  575   0.506   0.747   0.604
  191SOL     OW  576   1.777   0.342   1.642
  191SOL    HW1  577   1.760   0.373   1.548
  191SOL    HW2  578   1.693   0.305   1.680
  192SOL     OW  579   1.730   0.934   1.517
  192SOL    HW1  580   1.768   1.025   1.532
  192SOL    HW2  581   1.722   0.917   1.418
  193SOL     OW  582   0.859   1.374   0.016
  193SOL    HW1  583   0.813   1.389   0.104
  193SOL    HW2  584   0.903   1.459  -0.014
  194SOL     OW  585   0.661   1.790   0.953
  194SOL    HW1  586   0.615   1.878   0.940
  194SOL    HW2  587   0.760   1.802   0.946
  195SOL     OW  588   0.859   0.956   0.861
  195SOL    HW1  589   0.913   0.887   0.909
  195SOL    HW2  590   0.827   1.025   0.927
  196SOL     OW  591   1.083   0.984   0.087
  196SOL    HW1  592   1.060   1.037   0.005
  196SOL    HW2  593   1.164   0.928   0.068
  197SOL     OW  594   1.861   1.569   0.851
  197SOL    HW1  595   1.790   1.557   0.781
  197SOL    HW2  596   1.862   1.490   0.911
  198SOL     OW  597   0.221   1.314   1.844
  198SOL    HW1  598   0.156   1.241   1.823
  198SOL    HW2  599   0.225   1.328   1.942
  199SOL     OW  600   0.079   1.240   0.653
  199SOL    HW1  601   0.078   1.193   0.741
  199SOL    HW2  602   0.161   1.212   0.602
  200SOL     OW  603   0.672   1.391   1.624
  200SOL    HW1  604   0.594   1.341   1.662
  200SOL    HW2  605   0.669   1.486   1.655
  201SOL     OW  606   1.824   0.192   1.227
  201SOL    HW1  607   1.820   0.102   1.271
  201SOL    HW2  608   1.827   0.181   1.128
  202SOL     OW  609   0.428   0.424   0.520
  202SOL    HW1  610   0.458   0.352   0.458
  202SOL    HW2  611   0.389   0.384   0.603
  203SOL     OW  612   1.705   1.487   1.104
  203SOL    HW1  613   1.612   1.462   1.077
  203SOL    HW2  614   1.731   1.437   1.186
  204SOL     OW  615   0.317   0.547   1.280
  204SOL    HW1  616   0.355   0.488   1.352
  204SOL    HW2  617   0.357   0.521   1.192
  205SOL     OW  618   0.812   1.586   0.687
  205SOL    HW1  619   0.844   1.596   0.593
  205SOL    HW2  620   0.733   1.524   0.689
  206SOL     OW  621   1.424   0.214   1.112
  206SOL    HW1  622   1.476   0.149   1.167
  206SOL    HW2  623   1.375   0.277   1.173
  207SOL     OW  624   1.001   0.034   1.154
  207SOL    HW1  625   0.938  -0.038   1.123
  207SOL    HW2  626   1.094  -0.002   1.154
  208SOL     OW  627   0.770   1.330   0.301
  208SOL    HW1  628   0.724   1.243   0.318
  208SOL    HW2  629   0.861   1.327   0.342
  209SOL     OW  630   0.618   1.567   1.284
  209SOL    HW1  631   0.613   1.649   1.341
  209SOL    HW2  632   0.707   1.564   1.239
  210SOL     OW  633   1.352   0.052   0.168
  210SOL    HW1  634   1.387   0.011   0.084
  210SOL    HW2  635   1.262   0.014   0.188
  211SOL     OW  636   1.300   0.453   0.691
  211SOL    HW1  637   1.241   0.533   0.695
  211SOL    HW2  638   1.315   0.418   0.784
  212SOL     OW  639   1.593   0.221   0.882
  212SOL    HW1  640   1.509   0.220   0.936
  212SOL    HW2  641   1.595   0.304   0.826
  213SOL     OW  642   0.039   1.077   0.300
  213SOL    HW1  643   0.138   1.066   0.291
  213SOL    HW2  644  -0.001   0.991   0.332
  214SOL     OW  645   0.875   1.646   0.337
  214SOL    HW1  646   0.798   1.611   0.283
  214SOL    HW2  647   0.843   1.717   0.399
  215SOL     OW  648   0.230   0.628   1.975
  215SOL    HW1  649   0.137   0.626   2.012
  215SOL    HW2  650   0.231   0.589   1.883
  216SOL     OW  651   0.225   0.275   2.858
  216SOL    HW1  652   0.260   0.258   2.950
  216SOL    HW2  653   0.137   0.230   2.846
  217SOL     OW  654   0.019   0.368   2.509
  217SOL    HW1  655  -0.063   0.411   2.548
  217SOL    HW2  656  -0.009   0.295   2.446
  218SOL     OW  657   0.569   1.275   3.027
  218SOL    HW1  658   0.476   1.268   2.990
  218SOL    HW2  659   0.580   1.364   3.071
  219SOL     OW  660   1.555   1.511   2.565
  219SOL    HW1  661   1.498   1.495   2.646
  219SOL    HW2  662   1.496   1.521   2.485
  220SOL     OW  663   1.135   0.703   2.579
  220SOL    HW1  664   1.192   0.781   2.554
  220SOL    HW2  665   1.075   0.729   2.655
  221SOL     OW  666   1.755   0.607   2.093
  221SOL    HW1  667   1.743   0.594   1.994
  221SOL    HW2  668   1.725   0.526   2.142
  222SOL     OW  669   0.768   1.144   2.885
  222SOL    HW1  670   0.690   1.161   2.945
  222SOL    HW2  671   0.802   1.231   2.849
  223SOL     OW  672   0.850   0.798   3.685
  223SOL    HW1  673   0.846   0.874   3.750
  223SOL    HW2  674   0.872   0.834   3.594
  224SOL     OW  675   0.685   1.012   2.527
  224SOL    HW1  676   0.754   0.996   2.597
  224SOL    HW2  677   0.612   1.069   2.565
  225SOL     OW  678   0.686   1.161   3.665
  225SOL    HW1  679   0.746   1.240   3.679
  225SOL    HW2  680   0.600   1.192   3.624
  226SOL     OW  681   0.335   1.435   2.923
  226SOL    HW1  682   0.257   1.404   2.870
  226SOL    HW2  683   0.393   1.493   2.866
  227SOL     OW  684   1.460   1.505   3.201
  227SOL    HW1  685   1.484   1.599   3.227
  227SOL    HW2  686   1.444   1.451   3.283
  228SOL     OW  687   0.438   0.392   3.361
  228SOL    HW1  688   0.520   0.336   3.370
  228SOL    HW2  689   0.357   0.334   3.365
  229SOL     OW  690   1.603   0.447   2.599
  229SOL    HW1  691   1.529   0.493   2.549
  229SOL    HW2  692   1.654   0.515   2.652
  230SOL     OW  693   0.231   1.713   2.345
  230SOL    HW1  694   0.265   1.790   2.399
  230SOL    HW2  695   0.275   1.713   2.255
  231SOL     OW  696   1.127   1.341   3.552
  231SOL    HW1  697   1.174   1.341   3.640
  231SOL    HW2  698   1.079   1.254   3.541
  232SOL     OW  699   0.230   1.434   2.400
  232SOL    HW1  700   0.204   1.530   2.400
  232SOL    HW2  701   0.159   1.380   2.445
  233SOL     OW  702   0.240   1.091   2.748
  233SOL    HW1  703   0.254   1.007   2.800
  233SOL    HW2  704   0.185   1.155   2.803
  234SOL     OW  705   0.620   1.786   3.301
  234SOL    HW1  706   0.528   1.769   3.336
  234SOL    HW2  707   0.648   1.878   3.327
  235SOL     OW  708   0.606   0.964   1.985
  235SOL    HW1  709   0.613   1.048   1.931
  235SOL    HW2  710   0.652   0.977   2.073
  236SOL     OW  711   1.594   0.114   3.342
  236SOL    HW1  712   1.576   0.181   3.270
  236SOL    HW2  713   1.591   0.160   3.431
  237SOL     OW  714   0.122   0.643   2.425
  237SOL    HW1  715   0.077   0.555   2.442
  237SOL    HW2  716   0.121   0.697   2.509
  238SOL     OW  717   1.842   1.767   2.221
  238SOL    HW1  718   1.896   1.738   2.301
  238SOL    HW2  719   1.872   1.857   2.192
  239SOL     OW  720   0.027   1.596   1.979
  239SOL    HW1  721   0.008   1.500   2.000
  239SOL    HW2  722  -0.006   1.654   2.054
  240SOL     OW  723   1.689   0.922   2.474
  240SOL    HW1  724   1.784   0.893   2.482
  240SOL    HW2  725   1.681   0.987   2.399
  241SOL     OW  726   1.641   1.108   2.294
  241SOL    HW1  727   1.727   1.110   2.242
  241SOL    HW2  728   1.655   1.155   2.382
  242SOL     OW  729   0.113   0.737   3.459
  242SOL    HW1  730   0.201   0.724   3.504
  242SOL    HW2  731   0.100   0.834   3.437
  243SOL     OW  732   0.613   1.365   2.588
  243SOL    HW1  733   0.564   1.278   2.597
  243SOL    HW2  734   0.590   1.408   2.501
  244SOL     OW  735   1.293   1.228   3.285
  244SOL    HW1  736   1.330   1.155   3.227
  244SOL    HW2  737   1.345   1.233   3.370
  245SOL     OW  738   0.809   0.004   2.364
  245SOL    HW1  739   0.849   0.095   2.355
  245SOL    HW2  740   0.709   0.012   2.370
  246SOL     OW  741   0.197   0.976   3.126
  246SOL    HW1  742   0.286   0.931   3.112
  246SOL    HW2  743   0.124   0.911   3.107
  247SOL     OW  744   1.525   0.999   2.052
  247SOL    HW1  745   1.462   0.923   2.065
  247SOL    HW2  746   1.573   1.017   2.138
  248SOL     OW  747   1.187   1.792   3.478
  248SOL    HW1  748   1.211   1.852   3.402
  248SOL    HW2  749   1.194   1.697   3.448
  249SOL     OW  750   0.317   0.251   3.663
  249SOL    HW1  751   0.388   0.322   3.669
  249SOL    HW2  752   0.229   0.290   3.691
  250SOL     OW  753   1.466   1.417   2.815
  250SOL    HW1  754   1.407   1.423   2.895
  250SOL    HW2  755   1.451   1.329   2.769
  251SOL     OW  756   1.667   1.714   2.434
  251SOL    HW1  757   1.626   1.691   2.346
  251SOL    HW2  758   1.649   1.640   2.499
  252SOL     OW  759   0.598   0.729   2.132
  252SOL    HW1  760   0.622   0.798   2.064
  252SOL    HW2  761   0.520   0.762   2.186
  253SOL     OW  762   1.281   0.345   2.806
  253SOL    HW1  763   1.195   0.295   2.793
  253SOL    HW2  764   1.343   0.291   2.862
  254SOL     OW  765   1.576   1.662   2.169
  254SOL    HW1  766   1.665   1.708   2.172
  254SOL    HW2  767   1.555   1.638   2.074
  255SOL     OW  768   0.807   0.605   3.327
  255SOL    HW1  769   0.760   0.602   3.416
  255SOL    HW2  770   0.756   0.550   3.261
  256SOL     OW  771   1.394   0.469   3.536
  256SOL    HW1  772   1.374   0.512   3.624
  256SOL    HW2  773   1.472   0.407   3.545
  257SOL     OW  774   0.973   0.890   3.434
  257SOL    HW1  775   1.019   0.806   3.405
  257SOL    HW2  776   0.917   0.924   3.359
  258SOL     OW  777   0.991   0.410   3.104
  258SOL    HW1  778   0.914   0.444   3.158
  258SOL    HW2  779   0.957   0.359   3.025
  259SOL     OW  780   1.041   0.701   2.291
  259SOL    HW1  781   1.067   0.697   2.387
  259SOL    HW2  782   0.956   0.650   2.277
  260SOL     OW  783   0.076   0.811   2.651
  260SOL    HW1  784   0.175   0.799   2.660
  260SOL    HW2  785   0.052   0.906   2.672
  261SOL     OW  786   0.130   1.821   3.433
  261SOL    HW1  787   0.120   1.806   3.532
  261SOL    HW2  788   0.044   1.857   3.397
  262SOL     OW  789   0.865   0.348   2.057
  262SOL    HW1  790   0.924   0.411   2.008
  262SOL    HW2  791   0.884   0.254   2.028
  263SOL     OW  792   1.719   0.585   3.693
  263SOL    HW1  793   1.693   0.674   3.657
  263SOL    HW2  794   1.717   0.517   3.620
  264SOL     OW  795   1.362   1.144   2.407
  264SOL    HW1  796   1.445   1.115   2.359
  264SOL    HW2  797   1.313   1.211   2.351
  265SOL     OW  798   0.550   0.196   2.747
  265SOL    HW1  799   0.545   0.191   2.847
  265SOL    HW2  800   0.552   0.292   2.718
  266SOL     OW  801   1.008   1.456   2.339
  266SOL    HW1  802   0.962   1.528   2.287
  266SOL    HW2  803   1.004   1.476   2.437
  267SOL     OW  804   0.351   1.801   2.715
  267SOL    HW1  805   0.401   1.715   2.721
  267SOL    HW2  806   0.416   1.878   2.712
  268SOL     OW  807   1.795   1.066   2.735
  268SOL    HW1  808   1.733   1.051   2.659
  268SOL    HW2  809   1.743   1.077   2.820
  269SOL     OW  810   1.227   1.550   3.368
  269SOL    HW1  811   1.233   1.473   3.432
  269SOL    HW2  812   1.175   1.524   3.288
  270SOL     OW  813   0.321   0.943   2.104
  270SOL    HW1  814   0.403   0.982   2.062
  270SOL    HW2  815   0.294   0.861   2.055
  271SOL     OW  816   1.458   0.735   2.590
  271SOL    HW1  817   1.453   0.670   2.665
  271SOL    HW2  818   1.538   0.794   2.603
  272SOL     OW  819   0.461   1.266   3.589
  272SOL    HW1  820   0.411   1.267   3.503
  272SOL    HW2  821   0.398   1.248   3.665
  273SOL     OW  822   1.111   1.776   2.099
  273SOL    HW1  823   1.051   1.714   2.149
  273SOL    HW2  824   1.142   1.732   2.014
  274SOL     OW  825   0.202   0.285   3.360
  274SOL    HW1  826   0.122   0.345   3.347
  274SOL    HW2  827   0.192   0.236   3.446
  275SOL     OW  828   1.632   1.377   1.943
  275SOL    HW1  829   1.600   1.471   1.933
  275SOL    HW2  830   1.556   1.314   1.931
  276SOL     OW  831   0.464   1.743   2.185
  276SOL    HW1  832   0.497   1.782   2.271
  276SOL    HW2  833   0.540   1.736   2.120
  277SOL     OW  834   1.400   0.107   2.288
  277SOL    HW1  835   1.376   0.070   2.198
  277SOL    HW2  836   1.499   0.123   2.292
  278SOL     OW  837   0.249   1.785   3.103
  278SOL    HW1  838   0.306   1.720   3.153
  278SOL    HW2  839   0.233   1.752   3.010
  279SOL     OW  840   0.940   1.698   2.766
  279SOL    HW1  841   1.020   1.641   2.787
  279SOL    HW2  842   0.891   1.658   2.689
  280SOL     OW  843   0.382   0.700   2.342
  280SOL    HW1  844   0.427   0.610   2.339
  280SOL    HW2  845   0.288   0.689   2.375
  281SOL     OW  846   1.547   0.222   3.591
  281SOL    HW1  847   1.542   0.259   3.683
  281SOL    HW2  848   1.475   0.153   3.579
  282SOL     OW  849   0.614   0.122   1.979
  282SOL    HW1  850   0.712   0.100   1.986
  282SOL    HW2  851   0.583   0.105   1.886
  283SOL     OW  852   0.781   0.264   3.611
  283SOL    HW1  853   0.848   0.203   3.654
  283SOL    HW2  854   0.708   0.283   3.676
  284SOL     OW  855   0.888   1.514   3.057
  284SOL    HW1  856   0.865   1.489   2.963
  284SOL    HW2  857   0.949   1.445   3.096
  285SOL     OW  858   1.351   0.590   3.295
  285SOL    HW1  859   1.379   0.547   3.380
  285SOL    HW2  860   1.376   0.686   3.296
  286SOL     OW  861   0.803   1.402   2.786
  286SOL    HW1  862   0.893   1.416   2.744
  286SOL    HW2  863   0.732   1.404   2.715
  287SOL     OW  864   0.922   0.503   2.761
  287SOL    HW1  865   0.897   0.494   2.665
  287SOL    HW2  866   0.970   0.421   2.792
  288SOL     OW  867   0.539   0.064   2.374
  288SOL    HW1  868   0.458   0.065   2.432
  288SOL    HW2  869   0.542   0.147   2.319
  289SOL     OW  870   1.434   1.188   1.903
  289SOL    HW1  871   1.466   1.112   1.960
  289SOL    HW2  872   1.342   1.215   1.933
  290SOL     OW  873   0.297   0.035   2.033
  290SOL    HW1  874   0.346   0.119   2.012
  290SOL    HW2  875   0.359  -0.030   2.078
  291SOL     OW  876   0.935   0.236   2.342
  291SOL    HW1  877   0.887   0.277   2.264
  291SOL    HW2  878   1.034   0.234   2.323
  292SOL     OW  879   1.076   0.683   3.326
  292SOL    HW1  880   0.996   0.622   3.329
  292SOL    HW2  881   1.157   0.630   3.302
  293SOL     OW  882   1.227   1.570   2.655
  293SOL    HW1  883   1.248   1.644   2.590
  293SOL    HW2  884   1.295   1.570   2.728
  294SOL     OW  885   0.459   1.152   2.603
  294SOL    HW1  886   0.388   1.125   2.668
  294SOL    HW2  887   0.433   1.124   2.510
  295SOL     OW  888   1.271   1.797   2.453
  295SOL    HW1  889   1.315   1.861   2.389
  295SOL    HW2  890   1.221   1.849   2.523
  296SOL     OW  891   1.032   0.549   1.878
  296SOL    HW1  892   0.991   0.631   1.839
  296SOL    HW2  893   1.096   0.575   1.951
  297SOL     OW  894   0.078   0.556   3.248
  297SOL    HW1  895   0.170   0.555   3.207
  297SOL    HW2  896   0.072   0.630   3.315
  298SOL     OW  897   0.561   0.222   3.009
  298SOL    HW1  898   0.599   0.138   3.046
  298SOL    HW2  899   0.473   0.241   3.053
  299SOL     OW  900   0.866   0.454   2.504
  299SOL    HW1  901   0.834   0.526   2.442
  299SOL    HW2  902   0.890   0.373   2.451
  300SOL     OW  903   1.017   0.039   2.615
  300SOL    HW1  904   0.945   0.044   2.546
  300SOL    HW2  905   0.993  -0.030   2.684
  301SOL     OW  906   1.429   1.173   2.729
  301SOL    HW1  907   1.374   1.089   2.722
  301SOL    HW2  908   1.455   1.202   2.637
  302SOL     OW  909   1.466   0.590   2.854
  302SOL    HW1  910   1.436   0.495   2.861
  302SOL    HW2  911   1.539   0.606   2.920
  303SOL     OW  912   1.857   0.833   2.239
  303SOL    HW1  913   1.899   0.769   2.303
  303SOL    HW2  914   1.819   0.782   2.161
  304SOL     OW  915   0.488   1.385   2.036
  304SOL    HW1  916   0.401   1.370   2.083
  304SOL    HW2  917   0.471   1.411   1.941
  305SOL     OW  918   1.664   1.280   2.519
  305SOL    HW1  919   1.763   1.288   2.533
  305SOL    HW2  920   1.619   1.364   2.550
  306SOL     OW  921   1.390   0.575   1.940
  306SOL    HW1  922   1.336   0.554   2.021
  306SOL    HW2  923   1.481   0.534   1.949
  307SOL     OW  924   0.527   0.256   2.190
  307SOL    HW1  925   0.554   0.197   2.115
  307SOL    HW2  926   0.527   0.351   2.159
  308SOL     OW  927   1.754   1.223   3.450
  308SOL    HW1  928   1.845   1.184   3.437
  308SOL    HW2  929   1.762   1.319   3.474
  309SOL     OW  930   1.064   1.347   3.202
  309SOL    HW1  931   0.984   1.324   3.257
  309SOL    HW2  932   1.147   1.321   3.251
  310SOL     OW  933   1.592   1.629   3.487
  310SOL    HW1  934   1.619   1.663   3.397
  310SOL    HW2  935   1.671   1.591   3.533
  311SOL     OW  936   1.111   1.195   2.962
  311SOL    HW1  937   1.071   1.239   3.043
  311SOL    HW2  938   1.070   1.232   2.879
  312SOL     OW  939   1.638   1.099   2.941
  312SOL    HW1  940   1.643   1.180   3.000
  312SOL    HW2  941   1.552   1.101   2.890
  313SOL     OW  942   0.915   0.089   3.264
  313SOL    HW1  943   0.940   0.069   3.169
  313SOL    HW2  944   0.987   0.145   3.306
  314SOL     OW  945   0.980   1.116   3.581
  314SOL    HW1  946   0.881   1.122   3.591
  314SOL    HW2  947   1.003   1.036   3.525
  315SOL     OW  948   0.705   1.050   2.230
  315SOL    HW1  949   0.691   1.057   2.329
  315SOL    HW2  950   0.789   0.999   2.212
  316SOL     OW  951   0.410   0.813   3.113
  316SOL    HW1  952   0.496   0.825   3.163
  316SOL    HW2  953   0.368   0.726   3.140
  317SOL     OW  954   1.274   0.386   3.124
  317SOL    HW1  955   1.295   0.460   3.188
  317SOL    HW2  956   1.185   0.403   3.081
  318SOL     OW  957   0.064   1.564   3.193
  318SOL    HW1  958   0.018   1.646   3.159
  318SOL    HW2  959   0.162   1.583   3.202
  319SOL     OW  960   0.367   1.100   2.363
  319SOL    HW1  961   0.360   1.183   2.307
  319SOL    HW2  962   0.371   1.020   2.303
  320SOL     OW  963   0.566   0.537   2.727
  320SOL    HW1  964   0.578   0.603   2.653
  320SOL    HW2  965   0.612   0.571   2.810
  321SOL     OW  966   1.252   1.348   2.250
  321SOL    HW1  967   1.302   1.425   2.290
  321SOL    HW2  968   1.157   1.350   2.282
  322SOL     OW  969   1.272   1.445   3.004
  322SOL    HW1  970   1.319   1.458   3.091
  322SOL    HW2  971   1.206   1.371   3.013
  323SOL     OW  972   1.582   0.639   2.334
  323SOL    HW1  973   1.551   0.700   2.407
  323SOL    HW2  974   1.632   0.691   2.265
  324SOL     OW  975   0.354   1.510   3.191
  324SOL    HW1  976   0.333   1.466   3.104
  324SOL    HW2  977   0.451   1.536   3.194
  325SOL     OW  978   0.402   0.751   3.460
  325SOL    HW1  979   0.470   0.806   3.413
  325SOL    HW2  980   0.442   0.663   3.487
  326SOL     OW  981   1.587   0.779   3.532
  326SOL    HW1  982   1.495   0.817   3.527
  326SOL    HW2  983   1.647   0.826   3.467
  327SOL     OW  984   1.013   0.105   3.632
  327SOL    HW1  985   1.019   0.190   3.580
  327SOL    HW2  986   1.045   0.029   3.575
  328SOL     OW  987   0.504   0.050   3.602
  328SOL    HW1  988   0.462  -0.007   3.532
  328SOL    HW2  989   0.438   0.119   3.634
  329SOL     OW  990   0.573   0.870   2.891
  329SOL    HW1  991   0.617   0.959   2.882
  329SOL    HW2  992   0.510   0.870   2.968
  330SOL     OW  993   1.360   0.862   2.907
  330SOL    HW1  994   1.285   0.862   2.841
  330SOL    HW2  995   1.397   0.770   2.916
  331SOL     OW  996   1.209   0.525   2.137
  331SOL    HW1  997   1.222   0.441   2.191
  331SOL    HW2  998   1.180   0.599   2.197
  332SOL     OW  999   0.307   0.213   3.093
  332SOL    HW1 1000   0.284   0.250   3.183
  332SOL    HW2 1001   0.277   0.118   3.087
  333SOL     OW 1002   0.037   1.310   3.144
  333SOL    HW1 1003   0.090   1.261   3.212
  333SOL    HW2 1004   0.059   1.408   3.149
  334SOL     OW 1005   0.732   0.634   2.926
  334SOL    HW1 1006   0.791   0.608   2.850
  334SOL    HW2 1007   0.704   0.730   2.915
  335SOL     OW 1008   1.728   0.935   3.716
  335SOL    HW1 1009   1.682   0.928   3.627
  335SOL    HW2 1010   1.666   0.979   3.782
  336SOL     OW 1011   0.307   0.063   2.480
  336SOL    HW1 1012   0.296   0.157   2.513
  336SOL    HW2 1013   0.302   0.000   2.557
  337SOL     OW 1014   1.622   0.367   2.236
  337SOL    HW1 1015   1.624   0.291   2.300
  337SOL    HW2 1016   1.574   0.444   2.276
  338SOL     OW 1017   1.023   0.766   2.828
  338SOL    HW1 1018   1.038   0.787   2.924
  338SOL    HW2 1019   0.993   0.671   2.819
  339SOL     OW 1020   0.980   1.573   3.562
  339SOL    HW1 1021   0.960   1.617   3.474
  339SOL    HW2 1022   1.019   1.482   3.546
  340SOL     OW 1023   1.859   1.518   3.467
  340SOL    HW1 1024   1.873   1.545   3.372
  340SOL    HW2 1025   1.942   1.540   3.520
  341SOL     OW 1026   0.350   0.898   3.666
  341SOL    HW1 1027   0.426   0.942   3.714
  341SOL    HW2 1028   0.385   0.851   3.584
  342SOL     OW 1029   1.540   0.274   1.987
  342SOL    HW1 1030   1.479   0.199   2.010
  342SOL    HW2 1031   1.562   0.326   2.070
  343SOL     OW 1032   1.303   0.838   1.904
  343SOL    HW1 1033   1.337   0.745   1.919
  343SOL    HW2 1034   1.321   0.865   1.809
  344SOL     OW 1035   1.068   1.333   2.711
  344SOL    HW1 1036   1.075   1.249   2.656
  344SOL    HW2 1037   1.130   1.402   2.675
  345SOL     OW 1038   0.319   0.810   2.811
  345SOL    HW1 1039   0.412   0.846   2.816
  345SOL    HW2 1040   0.313   0.725   2.863
  346SOL     OW 1041   0.339   0.509   2.868
  346SOL    HW1 1042   0.287   0.426   2.851
  346SOL    HW2 1043   0.416   0.514   2.804
  347SOL     OW 1044   1.138   0.380   3.540
  347SOL    HW1 1045   1.093   0.443   3.604
  347SOL    HW2 1046   1.231   0.411   3.523
  348SOL     OW 1047   1.160   0.207   3.339
  348SOL    HW1 1048   1.160   0.271   3.416
  348SOL    HW2 1049   1.188   0.255   3.256
  349SOL     OW 1050   0.008   1.326   2.062
  349SOL    HW1 1051  -0.085   1.347   2.031
  349SOL    HW2 1052   0.018   1.227   2.075
  350SOL     OW 1053   0.088   1.801   2.789
  350SOL    HW1 1054   0.046   1.715   2.762
  350SOL    HW2 1055   0.182   1.804   2.755
  351SOL     OW 1056   0.504   1.568   2.772
  351SOL    HW1 1057   0.570   1.642   2.781
  351SOL    HW2 1058   0.548   1.489   2.730
  352SOL     OW 1059   1.002   0.796   3.100
  352SOL    HW1 1060   1.043   0.764   3.186
  352SOL    HW2 1061   0.906   0.769   3.097
  353SOL     OW 1062   0.040   0.544   2.976
  353SOL    HW1 1063   0.125   0.511   2.935
  353SOL    HW2 1064   0.053   0.559   3.074
  354SOL     OW 1065   0.189   0.520   3.584
  354SOL    HW1 1066   0.248   0.480   3.514
  354SOL    HW2 1067   0.131   0.591   3.543
  355SOL     OW 1068   1.369   0.950   3.522
  355SOL    HW1 1069   1.408   1.039   3.542
  355SOL    HW2 1070   1.379   0.930   3.425
  356SOL     OW 1071   0.815   0.572   2.187
  356SOL    HW1 1072   0.822   0.483   2.141
  356SOL    HW2 1073   0.721   0.606   2.179
  357SOL     OW 1074   1.657   0.604   3.068
  357SOL    HW1 1075   1.619   0.535   3.130
  357SOL    HW2 1076   1.739   0.568   3.024
  358SOL     OW 1077   0.252   1.564   3.606
  358SOL    HW1 1078   0.222   1.621   3.682
  358SOL    HW2 1079   0.245   1.467   3.632
  359SOL     OW 1080   0.671   0.464   3.131
  359SOL    HW1 1081   0.637   0.375   3.101
  359SOL    HW2 1082   0.697   0.518   3.051
  360SOL     OW 1083   0.930   1.678   3.327
  360SOL    HW1 1084   0.906   1.660   3.232
  360SOL    HW2 1085   0.960   1.772   3.337
  361SOL     OW 1086   0.473   0.500   2.053
  361SOL    HW1 1087   0.534   0.580   2.057
  361SOL    HW2 1088   0.378   0.531   2.060
  362SOL     OW 1089   0.159   1.137   3.328
  362SOL    HW1 1090   0.181   1.076   3.404
  362SOL    HW2 1091   0.169   1.088   3.242
  363SOL     OW 1092   1.347   1.059   3.096
  363SOL    HW1 1093   1.371   0.996   3.022
  363SOL    HW2 1094   1.257   1.099   3.078
  364SOL     OW 1095   1.302   0.855   2.171
  364SOL    HW1 1096   1.216   0.824   2.213
  364SOL    HW2 1097   1.298   0.841   2.072
  365SOL     OW 1098   1.759   1.747   3.016
  365SOL    HW1 1099   1.820   1.777   2.943
  365SOL    HW2 1100   1.721   1.658   2.994
  366SOL     OW 1101   1.252   1.731   2.990
  366SOL    HW1 1102   1.336   1.736   2.936
  366SOL    HW2 1103   1.229   1.635   3.008
  367SOL     OW 1104   0.083   1.258   2.884
  367SOL    HW1 1105   0.078   1.257   2.984
  367SOL    HW2 1106   0.000   1.217   2.846
  368SOL     OW 1107   0.688   1.662   3.578
  368SOL    HW1 1108   0.632   1.743   3.587
  368SOL    HW2 1109   0.740   1.666   3.492
  369SOL     OW 1110   1.726   0.135   2.385
  369SOL    HW1 1111   1.799   0.118   2.318
  369SOL    HW2 1112   1.695   0.048   2.423
  370SOL     OW 1113   1.388   1.573   2.339
  370SOL    HW1 1114   1.455   1.585   2.265
  370SOL    HW2 1115   1.348   1.662   2.362
  371SOL     OW 1116   0.130   1.794   3.713
  371SOL    HW1 1117   0.089   1.720   3.766
  371SOL    HW2 1118   0.194   1.845   3.771
  372SOL     OW 1119   1.280   0.927   2.534
  372SOL    HW1 1120   1.340   0.846   2.536
  372SOL    HW2 1121   1.320   0.996   2.474
  373SOL     OW 1122   0.830   1.273   3.284
  373SOL    HW1 1123   0.825   1.306   3.379
  373SOL    HW2 1124   0.744   1.292   3.238
  374SOL     OW 1125   0.672   1.616   2.016
  374SOL    HW1 1126   0.681   1.626   1.917
  374SOL    HW2 1127   0.632   1.527   2.037
  375SOL     OW 1128   1.650   1.720   3.256
  375SOL    HW1 1129   1.703   1.730   3.172
  375SOL    HW2 1130   1.623   1.810   3.290
  376SOL     OW 1131   1.841   0.175   2.825
  376SOL    HW1 1132   1.880   0.090   2.789
  376SOL    HW2 1133   1.743   0.177   2.806
  377SOL     OW 1134   0.263   0.326   2.582
  377SOL    HW1 1135   0.184   0.377   2.548
  377SOL    HW2 1136   0.254   0.311   2.680
  378SOL     OW 1137   1.194   1.612   1.893
  378SOL    HW1 1138   1.200   1.519   1.930
  378SOL    HW2 1139   1.135   1.612   1.813
  379SOL     OW 1140   0.822   1.002   3.234
  379SOL    HW1 1141   0.862   1.001   3.142
  379SOL    HW2 1142   0.832   1.094   3.274
  380SOL     OW 1143   0.916   0.910   2.153
  380SOL    HW1 1144   0.979   0.948   2.085
  380SOL    HW2 1145   0.956   0.827   2.192
  381SOL     OW 1146   1.504   1.607   1.906
  381SOL    HW1 1147   1.412   1.644   1.913
  381SOL    HW2 1148   1.542   1.627   1.816
  382SOL     OW 1149   0.372   1.288   3.352
  382SOL    HW1 1150   0.359   1.381   3.318
  382SOL    HW2 1151   0.288   1.236   3.339
  383SOL     OW 1152   1.614   1.292   3.151
  383SOL    HW1 1153   1.674   1.295   3.231
  383SOL    HW2 1154   1.539   1.356   3.164
  384SOL     OW 1155   1.039   1.098   2.558
  384SOL    HW1 1156   0.969   1.051   2.612
  384SOL    HW2 1157   1.098   1.030   2.515
  385SOL     OW 1158   1.014   0.236   2.833
  385SOL    HW1 1159   1.006   0.200   2.740
  385SOL    HW2 1160   1.012   0.160   2.898
  386SOL     OW 1161   0.590   1.487   2.353
  386SOL    HW1 1162   0.632   1.429   2.283
  386SOL    HW2 1163   0.546   1.566   2.309
  387SOL     OW 1164   1.709   0.385   3.243
  387SOL    HW1 1165   1.782   0.454   3.247
  387SOL    HW2 1166   1.737   0.310   3.184
  388SOL     OW 1167   0.255   1.348   2.152
  388SOL    HW1 1168   0.159   1.349   2.125
  388SOL    HW2 1169   0.267   1.401   2.236
  389SOL     OW 1170   0.105   1.013   3.588
  389SOL    HW1 1171   0.028   0.980   3.642
  389SOL    HW2 1172   0.190   0.983   3.630
  390SOL     OW 1173   0.672   0.203   3.351
  390SOL    HW1 1174   0.762   0.187   3.311
  390SOL    HW2 1175   0.680   0.208   3.450
  391SOL     OW 1176   0.075   0.345   1.895
  391SOL    HW1 1177  -0.017   0.317   1.866
  391SOL    HW2 1178   0.106   0.422   1.839
  392SOL     OW 1179   1.440   0.856   3.260
  392SOL    HW1 1180   1.383   0.908   3.197
  392SOL    HW2 1181   1.536   0.868   3.236
  393SOL     OW 1182   0.072   0.166   2.180
  393SOL    HW1 1183   0.055   0.249   2.126
  393SOL    HW2 1184   0.162   0.129   2.158
  394SOL     OW 1185   1.183   1.335   1.981
  394SOL    HW1 1186   1.084   1.324   1.983
  394SOL    HW2 1187   1.217   1.350   2.074
  395SOL     OW 1188   0.613   0.842   3.293
  395SOL    HW1 1189   0.669   0.923   3.276
  395SOL    HW2 1190   0.672   0.762   3.296
  396SOL     OW 1191   1.493   1.767   2.821
  396SOL    HW1 1192   1.526   1.831   2.752
  396SOL    HW2 1193   1.559   1.761   2.896
  397SOL     OW 1194   0.716   0.565   3.570
  397SOL    HW1 1195   0.735   0.630   3.644
  397SOL    HW2 1196   0.776   0.485   3.579
  398SOL     OW 1197   1.450   1.220   3.495
  398SOL    HW1 1198   1.441   1.210   3.594
  398SOL    HW2 1199   1.546   1.213   3.469
  399SOL     OW 1200   0.390   1.741   3.422
  399SOL    HW1 1201   0.299   1.782   3.420
  399SOL    HW2 1202   0.383   1.647   3.454
  400SOL     OW 1203   1.674   0.883   3.116
  400SOL    HW1 1204   1.647   0.794   3.079
  400SOL    HW2 1205   1.675   0.951   3.043
  401SOL     OW 1206   1.225   0.325   2.311
  401SOL    HW1 1207   1.290   0.251   2.300
  401SOL    HW2 1208   1.245   0.375   2.395
  402SOL     OW 1209   0.594   0.745   2.514
  402SOL    HW1 1210   0.644   0.830   2.495
  402SOL    HW2 1211   0.506   0.747   2.466
  403SOL     OW 1212   1.777   0.342   3.504
  403SOL    HW1 1213   1.760   0.373   3.410
  403SOL    HW2 1214   1.693   0.305   3.542
  404SOL     OW 1215   1.730   0.934   3.379
  404SOL    HW1 1216   1.768   1.025   3.394
  404SOL    HW2 1217   1.722   0.917   3.280
  405SOL     OW 1218   0.859   1.374   1.878
  405SOL    HW1 1219   0.813   1.389   1.966
  405SOL    HW2 1220   0.903   1.459   1.848
  406SOL     OW 1221   0.661   1.790   2.815
  406SOL    HW1 1222   0.615   1.878   2.802
  406SOL    HW2 1223   0.760   1.802   2.808
  407SOL     OW 1224   0.859   0.956   2.723
  407SOL    HW1 1225   0.913   0.887   2.771
  407SOL    HW2 1226   0.827   1.025   2.789
  408SOL     OW 1227   1.083   0.984   1.949
  408SOL    HW1 1228   1.060   1.037   1.867
  408SOL    HW2 1229   1.164   0.928   1.930
  409SOL     OW 1230   1.861   1.569   2.713
  409SOL    HW1 1231   1.790   1.557   2.643
  409SOL    HW2 1232   1.862   1.490   2.773
  410SOL     OW 1233   0.221   1.314   3.706
  410SOL    HW1 1234   0.156   1.241   3.685
  410SOL    HW2 1235   0.225   1.328   3.804
  411SOL     OW 1236   0.079   1.240   2.515
  411SOL    HW1 1237   0.078   1.193   2.603
  411SOL    HW2 1238   0.161   1.212   2.464
  412SOL     OW 1239   0.672   1.391   3.486
  412SOL    HW1 1240   0.594   1.341   3.524
  412SOL    HW2 1241   0.669   1.486   3.517
  413SOL     OW 1242   1.824   0.192   3.089
  413SOL    HW1 1243   1.820   0.102   3.133
  413SOL    HW2 1244   1.827   0.181   2.990
  414SOL     OW 1245   0.428   0.424   2.382
  414SOL    HW1 1246   0.458   0.352   2.320
  414SOL    HW2 1247   0.389   0.384   2.465
  415SOL     OW 1248   1.705   1.487   2.966
  415SOL    HW1 1249   1.612   1.462   2.939
  415SOL    HW2 1250   1.731   1.437   3.048
  416SOL     OW 1251   0.317   0.547   3.142
  416SOL    HW1 1252   0.355   0.488   3.214
  416SOL    HW2 1253   0.357   0.521   3.054
  417SOL     OW 1254   0.812   1.586   2.549
  417SOL    HW1 1255   0.844   1.596   2.455
  417SOL    HW2 1256   0.733   1.524   2.551
  418SOL     OW 1257   1.424   0.214   2.974
  418SOL    HW1 1258   1.476   0.149   3.029
  418SOL    HW2 1259   1.375   0.277   3.035
  419SOL     OW 1260   1.001   0.034   3.016
  419SOL    HW1 1261   0.938  -0.038   2.985
  419SOL    HW2 1262   1.094  -0.002   3.016
  420SOL     OW 1263   0.770   1.330   2.163
  420SOL    HW1 1264   0.724   1.243   2.180
  420SOL    HW2 1265   0.861   1.327   2.204
  421SOL     OW 1266   0.618   1.567   3.146
  421SOL    HW1 1267   0.613   1.649   3.203
  421SOL    HW2 1268   0.707   1.564   3.101
  422SOL     OW 1269   1.352   0.052   2.030
  422SOL    HW1 1270   1.387   0.011   1.946
  422SOL    HW2 1271   1.262   0.014   2.050
  423SOL     OW 1272   1.300   0.453   2.553
  423SOL    HW1 1273   1.241   0.533   2.557
  423SOL    HW2 1274   1.315   0.418   2.646
  424SOL     OW 1275   1.593   0.221   2.744
  424SOL    HW1 1276   1.509   0.220   2.798
  424SOL    HW2 1277   1.595   0.304   2.688
  425SOL     OW 1278   0.039   1.077   2.162
  425SOL    HW1 1279   0.138   1.066   2.153
  425SOL    HW2 1280  -0.001   0.991   2.194
  426SOL     OW 1281   0.875   1.646   2.199
  426SOL    HW1 1282   0.798   1.611   2.145
  426SOL    HW2 1283   0.843   1.717   2.261
  427SOL     OW 1284   0.230   0.628   3.837
  427SOL    HW1 1285   0.137   0.626   3.874
  427SOL    HW2 1286   0.231   0.589   3.745
  428SOL     OW 1287   1.755   0.607   3.955
  428SOL    HW1 1288   1.743   0.594   3.856
  428SOL    HW2 1289   1.725   0.526   4.004
  429SOL     OW 1290   0.231   1.713   4.207
  429SOL    HW1 1291   0.265   1.790   4.261
  429SOL    HW2 1292   0.275   1.713   4.117
  430SOL     OW 1293   0.230   1.434   4.262
  430SOL    HW1 1294   0.204   1.530   4.262
  430SOL    HW2 1295   0.159   1.380   4.307
  431SOL     OW 1296   0.606   0.964   3.847
  431SOL    HW1 1297   0.613   1.048   3.793
  431SOL    HW2 1298   0.652   0.977   3.935
  432SOL     OW 1299   1.842   1.767   4.083
  432SOL    HW1 1300   1.896   1.738   4.163
  432SOL    HW2 1301   1.872   1.857   4.054
  433SOL     OW 1302   0.027   1.596   3.841
  433SOL    HW1 1303   0.008   1.500   3.862
  433SOL    HW2 1304  -0.006   1.654   3.916
  434SOL     OW 1305   1.689   0.922   4.336
  434SOL    HW1 1306   1.784   0.893   4.344
  434SOL    HW2 1307   1.681   0.987   4.261
  435SOL     OW 1308   1.641   1.108   4.156
  435SOL    HW1 1309   1.727   1.110   4.104
  435SOL    HW2 1310   1.655   1.155   4.244
  436SOL     OW 1311   0.809   0.004   4.226
  436SOL    HW1 1312   0.849   0.095   4.217
  436SOL    HW2 1313   0.709   0.012   4.232
  437SOL     OW 1314   1.525   0.999   3.914
  437SOL    HW1 1315   1.462   0.923   3.927
  437SOL    HW2 1316   1.573   1.017   4.000
  438SOL     OW 1317   0.598   0.729   3.994
  438SOL    HW1 1318   0.622   0.798   3.926
  438SOL    HW2 1319   0.520   0.762   4.048
  439SOL     OW 1320   1.576   1.662   4.031
  439SOL    HW1 1321   1.665   1.708   4.034
  439SOL    HW2 1322   1.555   1.638   3.936
  440SOL     OW 1323   0.865   0.348   3.919
  440SOL    HW1 1324   0.924   0.411   3.870
  440SOL    HW2 1325   0.884   0.254   3.890
  441SOL     OW 1326   0.321   0.943   3.966
  441SOL    HW1 1327   0.403   0.982   3.924
  441SOL    HW2 1328   0.294   0.861   3.917
  442SOL     OW 1329   1.111   1.776   3.961
  442SOL    HW1 1330   1.051   1.714   4.011
  442SOL    HW2 1331   1.142   1.732   3.876
  443SOL     OW 1332   1.632   1.377   3.805
  443SOL    HW1 1333   1.600   1.471   3.795
  443SOL    HW2 1334   1.556   1.314   3.793
  444SOL     OW 1335   0.464   1.743   4.047
  444SOL    HW1 1336   0.497   1.782   4.133
  444SOL    HW2 1337   0.540   1.736   3.982
  445SOL     OW 1338   1.400   0.107   4.150
  445SOL    HW1 1339   1.376   0.070   4.060
  445SOL    HW2 1340   1.499   0.123   4.154
  446SOL     OW 1341   0.382   0.700   4.204
  446SOL    HW1 1342   0.427   0.610   4.201
  446SOL    HW2 1343   0.288   0.689   4.237
  447SOL     OW 1344   0.614   0.122   3.841
  447SOL    HW1 1345   0.712   0.100   3.848
  447SOL    HW2 1346   0.583   0.105   3.748
  448SOL     OW 1347   1.434   1.188   3.765
  448SOL    HW1 1348   1.466   1.112   3.822
  448SOL    HW2 1349   1.342   1.215   3.795
  449SOL     OW 1350   0.297   0.035   3.895
  449SOL    HW1 1351   0.346   0.119   3.874
  449SOL    HW2 1352   0.359  -0.030   3.940
  450SOL     OW 1353   0.935   0.236   4.204
  450SOL    HW1 1354   0.887   0.277   4.126
  450SOL    HW2 1355   1.034   0.234   4.185
  451SOL     OW 1356   0.459   1.152   4.465
  451SOL    HW1 1357   0.388   1.125   4.530
  451SOL    HW2 1358   0.433   1.124   4.372
  452SOL     OW 1359   1.271   1.797   4.315
  452SOL    HW1 1360   1.315   1.861   4.251
  452SOL    HW2 1361   1.221   1.849   4.385
  453SOL     OW 1362   1.032   0.549   3.740
  453SOL    HW1 1363   0.991   0.631   3.701
  453SOL    HW2 1364   1.096   0.575   3.813
  454SOL     OW 1365   1.857   0.833   4.101
  454SOL    HW1 1366   1.899   0.769   4.165
  454SOL    HW2 1367   1.819   0.782   4.023
  455SOL     OW 1368   0.488   1.385   3.898
  455SOL    HW1 1369   0.401   1.370   3.945
  455SOL    HW2 1370   0.471   1.411   3.803
  456SOL     OW 1371   1.390   0.575   3.802
  456SOL    HW1 1372   1.336   0.554   3.883
  456SOL    HW2 1373   1.481   0.534   3.811
  457SOL     OW 1374   0.527   0.256   4.052
  457SOL    HW1 1375   0.554   0.197   3.977
  457SOL    HW2 1376   0.527   0.351   4.021
  458SOL     OW 1377   0.705   1.050   4.092
  458SOL    HW1 1378   0.691   1.057   4.191
  458SOL    HW2 1379   0.789   0.999   4.074
  459SOL     OW 1380   0.367   1.100   4.225
  459SOL    HW1 1381   0.360   1.183   4.169
  459SOL    HW2 1382   0.371   1.020   4.165
  460SOL     OW 1383   1.252   1.348   4.112
  460SOL    HW1 1384   1.302   1.425   4.152
  460SOL    HW2 1385   1.157   1.350   4.144
  461SOL     OW 1386   1.582   0.639   4.196
  461SOL    HW1 1387   1.551   0.700   4.269
  461SOL    HW2 1388   1.632   0.691   4.127
  462SOL     OW 1389   1.209   0.525   3.999
  462SOL    HW1 1390   1.222   0.441   4.053
  462SOL    HW2 1391   1.180   0.599   4.059
  463SOL     OW 1392   1.622   0.367   4.098
  463SOL    HW1 1393   1.624   0.291   4.162
  463SOL    HW2 1394   1.574   0.444   4.138
  464SOL     OW 1395   1.540   0.274   3.849
  464SOL    HW1 1396   1.479   0.199   3.872
  464SOL    HW2 1397   1.562   0.326   3.932
  465SOL     OW 1398   1.303   0.838   3.766
  465SOL    HW1 1399   1.337   0.745   3.781
  465SOL    HW2 1400   1.321   0.865   3.671
  466SOL     OW 1401   0.008   1.326   3.924
  466SOL    HW1 1402  -0.085   1.347   3.893
  466SOL    HW2 1403   0.018   1.227   3.937
  467SOL     OW 1404   0.815   0.572   4.049
  467SOL    HW1 1405   0.822   0.483   4.003
  467SOL    HW2 1406   0.721   0.606   4.041
  468SOL     OW 1407   0.473   0.500   3.915
  468SOL    HW1 1408   0.534   0.580   3.919
  468SOL    HW2 1409   0.378   0.531   3.922
  469SOL     OW 1410   1.302   0.855   4.033
  469SOL    HW1 1411   1.216   0.824   4.075
  469SOL    HW2 1412   1.298   0.841   3.934
  470SOL     OW 1413   1.726   0.135   4.247
  470SOL    HW1 1414   1.799   0.118   4.180
  470SOL    HW2 1415   1.695   0.048   4.285
  471SOL     OW 1416   1.388   1.573   4.201
  471SOL    HW1 1417   1.455   1.585   4.127
  471SOL    HW2 1418   1.348   1.662   4.224
  472SOL     OW 1419   0.672   1.616   3.878
  472SOL    HW1 1420   0.681   1.626   3.779
  472SOL    HW2 1421   0.632   1.527   3.899
  473SOL     OW 1422   1.194   1.612   3.755
  473SOL    HW1 1423   1.200   1.519   3.792
  473SOL    HW2 1424   1.135   1.612   3.675
  474SOL     OW 1425   0.916   0.910   4.015
  474SOL    HW1 1426   0.979   0.948   3.947
  474SOL    HW2 1427   0.956   0.827   4.054
  475SOL     OW 1428   1.504   1.607   3.768
  475SOL    HW1 1429   1.412   1.644   3.775
  475SOL    HW2 1430   1.542   1.627   3.678
  476SOL     OW 1431   0.590   1.487   4.215
  476SOL    HW1 1432   0.632   1.429   4.145
  476SOL    HW2 1433   0.546   1.566   4.171
  477SOL     OW 1434   0.255   1.348   4.014
  477SOL    HW1 1435   0.159   1.349   3.987
  477SOL    HW2 1436   0.267   1.401   4.098
  478SOL     OW 1437   0.075   0.345   3.757
  478SOL    HW1 1438  -0.017   0.317   3.728
  478SOL    HW2 1439   0.106   0.422   3.701
  479SOL     OW 1440   0.072   0.166   4.042
  479SOL    HW1 1441   0.055   0.249   3.988
  479SOL    HW2 1442   0.162   0.129   4.020
  480SOL     OW 1443   1.183   1.335   3.843
  480SOL    HW1 1444   1.084   1.324   3.845
  480SOL    HW2 1445   1.217   1.350   3.936
  481SOL     OW 1446   1.225   0.325   4.173
  481SOL    HW1 1447   1.290   0.251   4.162
  481SOL    HW2 1448   1.245   0.375   4.257
  482SOL     OW 1449   0.594   0.745   4.376
  482SOL    HW1 1450   0.644   0.830   4.357
  482SOL    HW2 1451   0.506   0.747   4.328
  483SOL     OW 1452   0.859   1.374   3.740
  483SOL    HW1 1453   0.813   1.389   3.828
  483SOL    HW2 1454   0.903   1.459   3.710
  484SOL     OW 1455   1.083   0.984   3.811
  484SOL    HW1 1456   1.060   1.037   3.729
  484SOL    HW2 1457   1.164   0.928   3.792
  485SOL     OW 1458   0.428   0.424   4.244
  485SOL    HW1 1459   0.458   0.352   4.182
  485SOL    HW2 1460   0.389   0.384   4.327
  486SOL     OW 1461   0.770   1.330   4.025
  486SOL    HW1 1462   0.724   1.243   4.042
  486SOL    HW2 1463   0.861   1.327   4.066
  487SOL     OW 1464   1.352   0.052   3.892
  487SOL    HW1 1465   1.387   0.011   3.808
  487SOL    HW2 1466   1.262   0.014   3.912
  488SOL     OW 1467   0.039   1.077   4.024
  488SOL    HW1 1468   0.138   1.066   4.015
  488SOL    HW2 1469  -0.001   0.991   4.056
  489SOL     OW 1470   0.875   1.646   4.061
  489SOL    HW1 1471   0.798   1.611   4.007
  489SOL    HW2 1472   0.843   1.717   4.123
  490SOL     OW 1473   0.230   2.490   0.113
  490SOL    HW1 1474   0.137   2.488   0.150
  490SOL    HW2 1475   0.231   2.451   0.021
  491SOL     OW 1476   0.225   2.137   0.996
  491SOL    HW1 1477   0.260   2.120   1.088
  491SOL    HW2 1478   0.137   2.092   0.984
  492SOL     OW 1479   0.019   2.230   0.647
  492SOL    HW1 1480  -0.063   2.273   0.686
  492SOL    HW2 1481  -0.009   2.157   0.584
  493SOL     OW 1482   0.569   3.137   1.165
  493SOL    HW1 1483   0.476   3.130   1.128
  493SOL    HW2 1484   0.580   3.226   1.209
  494SOL     OW 1485   1.555   3.373   0.703
  494SOL    HW1 1486   1.498   3.357   0.784
  494SOL    HW2 1487   1.496   3.383   0.623
  495SOL     OW 1488   1.135   2.565   0.717
  495SOL    HW1 1489   1.192   2.643   0.692
  495SOL    HW2 1490   1.075   2.591   0.793
  496SOL     OW 1491   1.755   2.469   0.231
  496SOL    HW1 1492   1.743   2.456   0.132
  496SOL    HW2 1493   1.725   2.388   0.280
  497SOL     OW 1494   0.768   3.006   1.023
  497SOL    HW1 1495   0.690   3.023   1.083
  497SOL    HW2 1496   0.802   3.093   0.987
  498SOL     OW 1497   0.850   2.660   1.823
  498SOL    HW1 1498   0.846   2.736   1.888
  498SOL    HW2 1499   0.872   2.696   1.732
  499SOL     OW 1500   0.685   2.874   0.665
  499SOL    HW1 1501   0.754   2.858   0.735
  499SOL    HW2 1502   0.612   2.931   0.703
  500SOL     OW 1503   0.686   3.023   1.803
  500SOL    HW1 1504   0.746   3.102   1.817
  500SOL    HW2 1505   0.600   3.054   1.762
  501SOL     OW 1506   0.335   3.297   1.061
  501SOL    HW1 1507   0.257   3.266   1.008
  501SOL    HW2 1508   0.393   3.355   1.004
  502SOL     OW 1509   1.460   3.367   1.339
  502SOL    HW1 1510   1.484   3.461   1.365
  502SOL    HW2 1511   1.444   3.313   1.421
  503SOL     OW 1512   0.438   2.254   1.499
  503SOL    HW1 1513   0.520   2.198   1.508
  503SOL    HW2 1514   0.357   2.196   1.503
  504SOL     OW 1515   1.603   2.309   0.737
  504SOL    HW1 1516   1.529   2.355   0.687
  504SOL    HW2 1517   1.654   2.377   0.790
  505SOL     OW 1518   0.231   3.575   0.483
  505SOL    HW1 1519   0.265   3.652   0.537
  505SOL    HW2 1520   0.275   3.575   0.393
  506SOL     OW 1521   1.127   3.203   1.690
  506SOL    HW1 1522   1.174   3.203   1.778
  506SOL    HW2 1523   1.079   3.116   1.679
  507SOL     OW 1524   0.230   3.296   0.538
  507SOL    HW1 1525   0.204   3.392   0.538
  507SOL    HW2 1526   0.159   3.242   0.583
  508SOL     OW 1527   0.240   2.953   0.886
  508SOL    HW1 1528   0.254   2.869   0.938
  508SOL    HW2 1529   0.185   3.017   0.941
  509SOL     OW 1530   0.620   3.648   1.439
  509SOL    HW1 1531   0.528   3.631   1.474
  509SOL    HW2 1532   0.648   3.740   1.465
  510SOL     OW 1533   0.606   2.826   0.123
  510SOL    HW1 1534   0.613   2.910   0.069
  510SOL    HW2 1535   0.652   2.839   0.211
  511SOL     OW 1536   1.594   1.976   1.480
  511SOL    HW1 1537   1.576   2.043   1.408
  511SOL    HW2 1538   1.591   2.022   1.569
  512SOL     OW 1539   0.122   2.505   0.563
  512SOL    HW1 1540   0.077   2.417   0.580
  512SOL    HW2 1541   0.121   2.559   0.647
  513SOL     OW 1542   1.842   3.629   0.359
  513SOL    HW1 1543   1.896   3.600   0.439
  513SOL    HW2 1544   1.872   3.719   0.330
  514SOL     OW 1545   0.027   3.458   0.117
  514SOL    HW1 1546   0.008   3.362   0.138
  514SOL    HW2 1547  -0.006   3.516   0.192
  515SOL     OW 1548   1.689   2.784   0.612
  515SOL    HW1 1549   1.784   2.755   0.620
  515SOL    HW2 1550   1.681   2.849   0.537
  516SOL     OW 1551   1.641   2.970   0.432
  516SOL    HW1 1552   1.727   2.972   0.380
  516SOL    HW2 1553   1.655   3.017   0.520
  517SOL     OW 1554   0.113   2.599   1.597
  517SOL    HW1 1555   0.201   2.586   1.642
  517SOL    HW2 1556   0.100   2.696   1.575
  518SOL     OW 1557   0.613   3.227   0.726
  518SOL    HW1 1558   0.564   3.140   0.735
  518SOL    HW2 1559   0.590   3.270   0.639
  519SOL     OW 1560   1.293   3.090   1.423
  519SOL    HW1 1561   1.330   3.017   1.365
  519SOL    HW2 1562   1.345   3.095   1.508
  520SOL     OW 1563   0.809   1.866   0.502
  520SOL    HW1 1564   0.849   1.957   0.493
  520SOL    HW2 1565   0.709   1.874   0.508
  521SOL     OW 1566   0.197   2.838   1.264
  521SOL    HW1 1567   0.286   2.793   1.250
  521SOL    HW2 1568   0.124   2.773   1.245
  522SOL     OW 1569   1.525   2.861   0.190
  522SOL    HW1 1570   1.462   2.785   0.203
  522SOL    HW2 1571   1.573   2.879   0.276
  523SOL     OW 1572   1.187   3.654   1.616
  523SOL    HW1 1573   1.211   3.714   1.540
  523SOL    HW2 1574   1.194   3.559   1.586
  524SOL     OW 1575   0.317   2.113   1.801
  524SOL    HW1 1576   0.388   2.184   1.807
  524SOL    HW2 1577   0.229   2.152   1.829
  525SOL     OW 1578   1.466   3.279   0.953
  525SOL    HW1 1579   1.407   3.285   1.033
  525SOL    HW2 1580   1.451   3.191   0.907
  526SOL     OW 1581   1.667   3.576   0.572
  526SOL    HW1 1582   1.626   3.553   0.484
  526SOL    HW2 1583   1.649   3.502   0.637
  527SOL     OW 1584   0.598   2.591   0.270
  527SOL    HW1 1585   0.622   2.660   0.202
  527SOL    HW2 1586   0.520   2.624   0.324
  528SOL     OW 1587   1.281   2.207   0.944
  528SOL    HW1 1588   1.195   2.157   0.931
  528SOL    HW2 1589   1.343   2.153   1.000
  529SOL     OW 1590   1.576   3.524   0.307
  529SOL    HW1 1591   1.665   3.570   0.310
  529SOL    HW2 1592   1.555   3.500   0.212
  530SOL     OW 1593   0.807   2.467   1.465
  530SOL    HW1 1594   0.760   2.464   1.554
  530SOL    HW2 1595   0.756   2.412   1.399
  531SOL     OW 1596   1.394   2.331   1.674
  531SOL    HW1 1597   1.374   2.374   1.762
  531SOL    HW2 1598   1.472   2.269   1.683
  532SOL     OW 1599   0.973   2.752   1.572
  532SOL    HW1 1600   1.019   2.668   1.543
  532SOL    HW2 1601   0.917   2.786   1.497
  533SOL     OW 1602   0.991   2.272   1.242
  533SOL    HW1 1603   0.914   2.306   1.296
  533SOL    HW2 1604   0.957   2.221   1.163
  534SOL     OW 1605   1.041   2.563   0.429
  534SOL    HW1 1606   1.067   2.559   0.525
  534SOL    HW2 1607   0.956   2.512   0.415
  535SOL     OW 1608   0.076   2.673   0.789
  535SOL    HW1 1609   0.175   2.661   0.798
  535SOL    HW2 1610   0.052   2.768   0.810
  536SOL     OW 1611   0.130   3.683   1.571
  536SOL    HW1 1612   0.120   3.668   1.670
  536SOL    HW2 1613   0.044   3.719   1.535
  537SOL     OW 1614   0.865   2.210   0.195
  537SOL    HW1 1615   0.924   2.273   0.146
  537SOL    HW2 1616   0.884   2.116   0.166
  538SOL     OW 1617   1.719   2.447   1.831
  538SOL    HW1 1618   1.693   2.536   1.795
  538SOL    HW2 1619   1.717   2.379   1.758
  539SOL     OW 1620   1.362   3.006   0.545
  539SOL    HW1 1621   1.445   2.977   0.497
  539SOL    HW2 1622   1.313   3.073   0.489
  540SOL     OW 1623   0.550   2.058   0.885
  540SOL    HW1 1624   0.545   2.053   0.985
  540SOL    HW2 1625   0.552   2.154   0.856
  541SOL     OW 1626   1.008   3.318   0.477
  541SOL    HW1 1627   0.962   3.390   0.425
  541SOL    HW2 1628   1.004   3.338   0.575
  542SOL     OW 1629   0.351   3.663   0.853
  542SOL    HW1 1630   0.401   3.577   0.859
  542SOL    HW2 1631   0.416   3.740   0.850
  543SOL     OW 1632   1.795   2.928   0.873
  543SOL    HW1 1633   1.733   2.913   0.797
  543SOL    HW2 1634   1.743   2.939   0.958
  544SOL     OW 1635   1.227   3.412   1.506
  544SOL    HW1 1636   1.233   3.335   1.570
  544SOL    HW2 1637   1.175   3.386   1.426
  545SOL     OW 1638   0.321   2.805   0.242
  545SOL    HW1 1639   0.403   2.844   0.200
  545SOL    HW2 1640   0.294   2.723   0.193
  546SOL     OW 1641   1.458   2.597   0.728
  546SOL    HW1 1642   1.453   2.532   0.803
  546SOL    HW2 1643   1.538   2.656   0.741
  547SOL     OW 1644   0.461   3.128   1.727
  547SOL    HW1 1645   0.411   3.129   1.641
  547SOL    HW2 1646   0.398   3.110   1.803
  548SOL     OW 1647   1.111   3.638   0.237
  548SOL    HW1 1648   1.051   3.576   0.287
  548SOL    HW2 1649   1.142   3.594   0.152
  549SOL     OW 1650   0.202   2.147   1.498
  549SOL    HW1 1651   0.122   2.207   1.485
  549SOL    HW2 1652   0.192   2.098   1.584
  550SOL     OW 1653   1.632   3.239   0.081
  550SOL    HW1 1654   1.600   3.333   0.071
  550SOL    HW2 1655   1.556   3.176   0.069
  551SOL     OW 1656   0.464   3.605   0.323
  551SOL    HW1 1657   0.497   3.644   0.409
  551SOL    HW2 1658   0.540   3.598   0.258
  552SOL     OW 1659   1.400   1.969   0.426
  552SOL    HW1 1660   1.376   1.932   0.336
  552SOL    HW2 1661   1.499   1.985   0.430
  553SOL     OW 1662   0.249   3.647   1.241
  553SOL    HW1 1663   0.306   3.582   1.291
  553SOL    HW2 1664   0.233   3.614   1.148
  554SOL     OW 1665   0.940   3.560   0.904
  554SOL    HW1 1666   1.020   3.503   0.925
  554SOL    HW2 1667   0.891   3.520   0.827
  555SOL     OW 1668   0.382   2.562   0.480
  555SOL    HW1 1669   0.427   2.472   0.477
  555SOL    HW2 1670   0.288   2.551   0.513
  556SOL     OW 1671   1.547   2.084   1.729
  556SOL    HW1 1672   1.542   2.121   1.821
  556SOL    HW2 1673   1.475   2.015   1.717
  557SOL     OW 1674   0.614   1.984   0.117
  557SOL    HW1 1675   0.712   1.962   0.124
  557SOL    HW2 1676   0.583   1.967   0.024
  558SOL     OW 1677   0.781   2.126   1.749
  558SOL    HW1 1678   0.848   2.065   1.792
  558SOL    HW2 1679   0.708   2.145   1.814
  559SOL     OW 1680   0.888   3.376   1.195
  559SOL    HW1 1681   0.865   3.351   1.101
  559SOL    HW2 1682   0.949   3.307   1.234
  560SOL     OW 1683   1.351   2.452   1.433
  560SOL    HW1 1684   1.379   2.409   1.518
  560SOL    HW2 1685   1.376   2.548   1.434
  561SOL     OW 1686   0.803   3.264   0.924
  561SOL    HW1 1687   0.893   3.278   0.882
  561SOL    HW2 1688   0.732   3.266   0.853
  562SOL     OW 1689   0.922   2.365   0.899
  562SOL    HW1 1690   0.897   2.356   0.803
  562SOL    HW2 1691   0.970   2.283   0.930
  563SOL     OW 1692   0.539   1.926   0.512
  563SOL    HW1 1693   0.458   1.927   0.570
  563SOL    HW2 1694   0.542   2.009   0.457
  564SOL     OW 1695   1.434   3.050   0.041
  564SOL    HW1 1696   1.466   2.974   0.098
  564SOL    HW2 1697   1.342   3.077   0.071
  565SOL     OW 1698   0.297   1.897   0.171
  565SOL    HW1 1699   0.346   1.981   0.150
  565SOL    HW2 1700   0.359   1.832   0.216
  566SOL     OW 1701   0.935   2.098   0.480
  566SOL    HW1 1702   0.887   2.139   0.402
  566SOL    HW2 1703   1.034   2.096   0.461
  567SOL     OW 1704   1.076   2.545   1.464
  567SOL    HW1 1705   0.996   2.484   1.467
  567SOL    HW2 1706   1.157   2.492   1.440
  568SOL     OW 1707   1.227   3.432   0.793
  568SOL    HW1 1708   1.248   3.506   0.728
  568SOL    HW2 1709   1.295   3.432   0.866
  569SOL     OW 1710   0.459   3.014   0.741
  569SOL    HW1 1711   0.388   2.987   0.806
  569SOL    HW2 1712   0.433   2.986   0.648
  570SOL     OW 1713   1.271   3.659   0.591
  570SOL    HW1 1714   1.315   3.723   0.527
  570SOL    HW2 1715   1.221   3.711   0.661
  571SOL     OW 1716   1.032   2.411   0.016
  571SOL    HW1 1717   0.991   2.493  -0.023
  571SOL    HW2 1718   1.096   2.437   0.089
  572SOL     OW 1719   0.078   2.418   1.386
  572SOL    HW1 1720   0.170   2.417   1.345
  572SOL    HW2 1721   0.072   2.492   1.453
  573SOL     OW 1722   0.561   2.084   1.147
  573SOL    HW1 1723   0.599   2.000   1.184
  573SOL    HW2 1724   0.473   2.103   1.191
  574SOL     OW 1725   0.866   2.316   0.642
  574SOL    HW1 1726   0.834   2.388   0.580
  574SOL    HW2 1727   0.890   2.235   0.589
  575SOL     OW 1728   1.017   1.901   0.753
  575SOL    HW1 1729   0.945   1.906   0.684
  575SOL    HW2 1730   0.993   1.832   0.822
  576SOL     OW 1731   1.429   3.035   0.867
  576SOL    HW1 1732   1.374   2.951   0.860
  576SOL    HW2 1733   1.455   3.064   0.775
  577SOL     OW 1734   1.466   2.452   0.992
  577SOL    HW1 1735   1.436   2.357   0.999
  577SOL    HW2 1736   1.539   2.468   1.058
  578SOL     OW 1737   1.857   2.695   0.377
  578SOL    HW1 1738   1.899   2.631   0.441
  578SOL    HW2 1739   1.819   2.644   0.299
  579SOL     OW 1740   0.488   3.247   0.174
  579SOL    HW1 1741   0.401   3.232   0.221
  579SOL    HW2 1742   0.471   3.273   0.079
  580SOL     OW 1743   1.664   3.142   0.657
  580SOL    HW1 1744   1.763   3.150   0.671
  580SOL    HW2 1745   1.619   3.226   0.688
  581SOL     OW 1746   1.390   2.437   0.078
  581SOL    HW1 1747   1.336   2.416   0.159
  581SOL    HW2 1748   1.481   2.396   0.087
  582SOL     OW 1749   0.527   2.118   0.328
  582SOL    HW1 1750   0.554   2.059   0.253
  582SOL    HW2 1751   0.527   2.213   0.297
  583SOL     OW 1752   1.754   3.085   1.588
  583SOL    HW1 1753   1.845   3.046   1.575
  583SOL    HW2 1754   1.762   3.181   1.612
  584SOL     OW 1755   1.064   3.209   1.340
  584SOL    HW1 1756   0.984   3.186   1.395
  584SOL    HW2 1757   1.147   3.183   1.389
  585SOL     OW 1758   1.592   3.491   1.625
  585SOL    HW1 1759   1.619   3.525   1.535
  585SOL    HW2 1760   1.671   3.453   1.671
  586SOL     OW 1761   1.111   3.057   1.100
  586SOL    HW1 1762   1.071   3.101   1.181
  586SOL    HW2 1763   1.070   3.094   1.017
  587SOL     OW 1764   1.638   2.961   1.079
  587SOL    HW1 1765   1.643   3.042   1.138
  587SOL    HW2 1766   1.552   2.963   1.028
  588SOL     OW 1767   0.915   1.951   1.402
  588SOL    HW1 1768   0.940   1.931   1.307
  588SOL    HW2 1769   0.987   2.007   1.444
  589SOL     OW 1770   0.980   2.978   1.719
  589SOL    HW1 1771   0.881   2.984   1.729
  589SOL    HW2 1772   1.003   2.898   1.663
  590SOL     OW 1773   0.705   2.912   0.368
  590SOL    HW1 1774   0.691   2.919   0.467
  590SOL    HW2 1775   0.789   2.861   0.350
  591SOL     OW 1776   0.410   2.675   1.251
  591SOL    HW1 1777   0.496   2.687   1.301
  591SOL    HW2 1778   0.368   2.588   1.278
  592SOL     OW 1779   1.274   2.248   1.262
  592SOL    HW1 1780   1.295   2.322   1.326
  592SOL    HW2 1781   1.185   2.265   1.219
  593SOL     OW 1782   0.064   3.426   1.331
  593SOL    HW1 1783   0.018   3.508   1.297
  593SOL    HW2 1784   0.162   3.445   1.340
  594SOL     OW 1785   0.367   2.962   0.501
  594SOL    HW1 1786   0.360   3.045   0.445
  594SOL    HW2 1787   0.371   2.882   0.441
  595SOL     OW 1788   0.566   2.399   0.865
  595SOL    HW1 1789   0.578   2.465   0.791
  595SOL    HW2 1790   0.612   2.433   0.948
  596SOL     OW 1791   1.252   3.210   0.388
  596SOL    HW1 1792   1.302   3.287   0.428
  596SOL    HW2 1793   1.157   3.212   0.420
  597SOL     OW 1794   1.272   3.307   1.142
  597SOL    HW1 1795   1.319   3.320   1.229
  597SOL    HW2 1796   1.206   3.233   1.151
  598SOL     OW 1797   1.582   2.501   0.472
  598SOL    HW1 1798   1.551   2.562   0.545
  598SOL    HW2 1799   1.632   2.553   0.403
  599SOL     OW 1800   0.354   3.372   1.329
  599SOL    HW1 1801   0.333   3.328   1.242
  599SOL    HW2 1802   0.451   3.398   1.332
  600SOL     OW 1803   0.402   2.613   1.598
  600SOL    HW1 1804   0.470   2.668   1.551
  600SOL    HW2 1805   0.442   2.525   1.625
  601SOL     OW 1806   1.587   2.641   1.670
  601SOL    HW1 1807   1.495   2.679   1.665
  601SOL    HW2 1808   1.647   2.688   1.605
  602SOL     OW 1809   1.013   1.967   1.770
  602SOL    HW1 1810   1.019   2.052   1.718
  602SOL    HW2 1811   1.045   1.891   1.713
  603SOL     OW 1812   0.504   1.912   1.740
  603SOL    HW1 1813   0.462   1.855   1.670
  603SOL    HW2 1814   0.438   1.981   1.772
  604SOL     OW 1815   0.573   2.732   1.029
  604SOL    HW1 1816   0.617   2.821   1.020
  604SOL    HW2 1817   0.510   2.732   1.106
  605SOL     OW 1818   1.360   2.724   1.045
  605SOL    HW1 1819   1.285   2.724   0.979
  605SOL    HW2 1820   1.397   2.632   1.054
  606SOL     OW 1821   1.209   2.387   0.275
  606SOL    HW1 1822   1.222   2.303   0.329
  606SOL    HW2 1823   1.180   2.461   0.335
  607SOL     OW 1824   0.307   2.075   1.231
  607SOL    HW1 1825   0.284   2.112   1.321
  607SOL    HW2 1826   0.277   1.980   1.225
  608SOL     OW 1827   0.037   3.172   1.282
  608SOL    HW1 1828   0.090   3.123   1.350
  608SOL    HW2 1829   0.059   3.270   1.287
  609SOL     OW 1830   0.732   2.496   1.064
  609SOL    HW1 1831   0.791   2.470   0.988
  609SOL    HW2 1832   0.704   2.592   1.053
  610SOL     OW 1833   1.728   2.797   1.854
  610SOL    HW1 1834   1.682   2.790   1.765
  610SOL    HW2 1835   1.666   2.841   1.920
  611SOL     OW 1836   0.307   1.925   0.618
  611SOL    HW1 1837   0.296   2.019   0.651
  611SOL    HW2 1838   0.302   1.862   0.695
  612SOL     OW 1839   1.622   2.229   0.374
  612SOL    HW1 1840   1.624   2.153   0.438
  612SOL    HW2 1841   1.574   2.306   0.414
  613SOL     OW 1842   1.023   2.628   0.966
  613SOL    HW1 1843   1.038   2.649   1.062
  613SOL    HW2 1844   0.993   2.533   0.957
  614SOL     OW 1845   0.980   3.435   1.700
  614SOL    HW1 1846   0.960   3.479   1.612
  614SOL    HW2 1847   1.019   3.344   1.684
  615SOL     OW 1848   1.859   3.380   1.605
  615SOL    HW1 1849   1.873   3.407   1.510
  615SOL    HW2 1850   1.942   3.402   1.658
  616SOL     OW 1851   0.350   2.760   1.804
  616SOL    HW1 1852   0.426   2.804   1.852
  616SOL    HW2 1853   0.385   2.713   1.722
  617SOL     OW 1854   1.540   2.136   0.125
  617SOL    HW1 1855   1.479   2.061   0.148
  617SOL    HW2 1856   1.562   2.188   0.208
  618SOL     OW 1857   1.303   2.700   0.042
  618SOL    HW1 1858   1.337   2.607   0.057
  618SOL    HW2 1859   1.321   2.727  -0.053
  619SOL     OW 1860   1.068   3.195   0.849
  619SOL    HW1 1861   1.075   3.111   0.794
  619SOL    HW2 1862   1.130   3.264   0.813
  620SOL     OW 1863   0.319   2.672   0.949
  620SOL    HW1 1864   0.412   2.708   0.954
  620SOL    HW2 1865   0.313   2.587   1.001
  621SOL     OW 1866   0.339   2.371   1.006
  621SOL    HW1 1867   0.287   2.288   0.989
  621SOL    HW2 1868   0.416   2.376   0.942
  622SOL     OW 1869   1.138   2.242   1.678
  622SOL    HW1 1870   1.093   2.305   1.742
  622SOL    HW2 1871   1.231   2.273   1.661
  623SOL     OW 1872   1.160   2.069   1.477
  623SOL    HW1 1873   1.160   2.133   1.554
  623SOL    HW2 1874   1.188   2.117   1.394
  624SOL     OW 1875   0.008   3.188   0.200
  624SOL    HW1 1876  -0.085   3.209   0.169
  624SOL    HW2 1877   0.018   3.089   0.213
  625SOL     OW 1878   0.088   3.663   0.927
  625SOL    HW1 1879   0.046   3.577   0.900
  625SOL    HW2 1880   0.182   3.666   0.893
  626SOL     OW 1881   0.504   3.430   0.910
  626SOL    HW1 1882   0.570   3.504   0.919
  626SOL    HW2 1883   0.548   3.351   0.868
  627SOL     OW 1884   1.002   2.658   1.238
  627SOL    HW1 1885   1.043   2.626   1.324
  627SOL    HW2 1886   0.906   2.631   1.235
  628SOL     OW 1887   0.040   2.406   1.114
  628SOL    HW1 1888   0.125   2.373   1.073
  628SOL    HW2 1889   0.053   2.421   1.212
  629SOL     OW 1890   0.189   2.382   1.722
  629SOL    HW1 1891   0.248   2.342   1.652
  629SOL    HW2 1892   0.131   2.453   1.681
  630SOL     OW 1893   1.369   2.812   1.660
  630SOL    HW1 1894   1.408   2.901   1.680
  630SOL    HW2 1895   1.379   2.792   1.563
  631SOL     OW 1896   0.815   2.434   0.325
  631SOL    HW1 1897   0.822   2.345   0.279
  631SOL    HW2 1898   0.721   2.468   0.317
  632SOL     OW 1899   1.657   2.466   1.206
  632SOL    HW1 1900   1.619   2.397   1.268
  632SOL    HW2 1901   1.739   2.430   1.162
  633SOL     OW 1902   0.252   3.426   1.744
  633SOL    HW1 1903   0.222   3.483   1.820
  633SOL    HW2 1904   0.245   3.329   1.770
  634SOL     OW 1905   0.671   2.326   1.269
  634SOL    HW1 1906   0.637   2.237   1.239
  634SOL    HW2 1907   0.697   2.380   1.189
  635SOL     OW 1908   0.930   3.540   1.465
  635SOL    HW1 1909   0.906   3.522   1.370
  635SOL    HW2 1910   0.960   3.634   1.475
  636SOL     OW 1911   0.473   2.362   0.191
  636SOL    HW1 1912   0.534   2.442   0.195
  636SOL    HW2 1913   0.378   2.393   0.198
  637SOL     OW 1914   0.159   2.999   1.466
  637SOL    HW1 1915   0.181   2.938   1.542
  637SOL    HW2 1916   0.169   2.950   1.380
  638SOL     OW 1917   1.347   2.921   1.234
  638SOL    HW1 1918   1.371   2.858   1.160
  638SOL    HW2 1919   1.257   2.961   1.216
  639SOL     OW 1920   1.302   2.717   0.309
  639SOL    HW1 1921   1.216   2.686   0.351
  639SOL    HW2 1922   1.298   2.703   0.210
  640SOL     OW 1923   1.759   3.609   1.154
  640SOL    HW1 1924   1.820   3.639   1.081
  640SOL    HW2 1925   1.721   3.520   1.132
  641SOL     OW 1926   1.252   3.593   1.128
  641SOL    HW1 1927   1.336   3.598   1.074
  641SOL    HW2 1928   1.229   3.497   1.146
  642SOL     OW 1929   0.083   3.120   1.022
  642SOL    HW1 1930   0.078   3.119   1.122
  642SOL    HW2 1931   0.000   3.079   0.984
  643SOL     OW 1932   0.688   3.524   1.716
  643SOL    HW1 1933   0.632   3.605   1.725
  643SOL    HW2 1934   0.740   3.528   1.630
  644SOL     OW 1935   0.903   1.948   0.133
  644SOL    HW1 1936   0.954   1.949   0.047
  644SOL    HW2 1937   0.959   1.906   0.204
  645SOL     OW 1938   1.726   1.997   0.523
  645SOL    HW1 1939   1.799   1.980   0.456
  645SOL    HW2 1940   1.695   1.910   0.561
  646SOL     OW 1941   1.388   3.435   0.477
  646SOL    HW1 1942   1.455   3.447   0.403
  646SOL    HW2 1943   1.348   3.524   0.500
  647SOL     OW 1944   0.130   3.656   1.851
  647SOL    HW1 1945   0.089   3.582   1.904
  647SOL    HW2 1946   0.194   3.707   1.909
  648SOL     OW 1947   1.280   2.789   0.672
  648SOL    HW1 1948   1.340   2.708   0.674
  648SOL    HW2 1949   1.320   2.858   0.612
  649SOL     OW 1950   0.830   3.135   1.422
  649SOL    HW1 1951   0.825   3.168   1.517
  649SOL    HW2 1952   0.744   3.154   1.376
  650SOL     OW 1953   0.672   3.478   0.154
  650SOL    HW1 1954   0.681   3.488   0.055
  650SOL    HW2 1955   0.632   3.389   0.175
  651SOL     OW 1956   1.650   3.582   1.394
  651SOL    HW1 1957   1.703   3.592   1.310
  651SOL    HW2 1958   1.623   3.672   1.428
  652SOL     OW 1959   1.841   2.037   0.963
  652SOL    HW1 1960   1.880   1.952   0.927
  652SOL    HW2 1961   1.743   2.039   0.944
  653SOL     OW 1962   0.263   2.188   0.720
  653SOL    HW1 1963   0.184   2.239   0.686
  653SOL    HW2 1964   0.254   2.173   0.818
  654SOL     OW 1965   1.194   3.474   0.031
  654SOL    HW1 1966   1.200   3.381   0.068
  654SOL    HW2 1967   1.135   3.474  -0.049
  655SOL     OW 1968   0.822   2.864   1.372
  655SOL    HW1 1969   0.862   2.863   1.280
  655SOL    HW2 1970   0.832   2.956   1.412
  656SOL     OW 1971   0.916   2.772   0.291
  656SOL    HW1 1972   0.979   2.810   0.223
  656SOL    HW2 1973   0.956   2.689   0.330
  657SOL     OW 1974   1.504   3.469   0.044
  657SOL    HW1 1975   1.412   3.506   0.051
  657SOL    HW2 1976   1.542   3.489  -0.046
  658SOL     OW 1977   0.372   3.150   1.490
  658SOL    HW1 1978   0.359   3.243   1.456
  658SOL    HW2 1979   0.288   3.098   1.477
  659SOL     OW 1980   1.614   3.154   1.289
  659SOL    HW1 1981   1.674   3.157   1.369
  659SOL    HW2 1982   1.539   3.218   1.302
  660SOL     OW 1983   1.039   2.960   0.696
  660SOL    HW1 1984   0.969   2.913   0.750
  660SOL    HW2 1985   1.098   2.892   0.653
  661SOL     OW 1986   1.014   2.098   0.971
  661SOL    HW1 1987   1.006   2.062   0.878
  661SOL    HW2 1988   1.012   2.022   1.036
  662SOL     OW 1989   0.590   3.349   0.491
  662SOL    HW1 1990   0.632   3.291   0.421
  662SOL    HW2 1991   0.546   3.428   0.447
  663SOL     OW 1992   1.709   2.247   1.381
  663SOL    HW1 1993   1.782   2.316   1.385
  663SOL    HW2 1994   1.737   2.172   1.322
  664SOL     OW 1995   0.255   3.210   0.290
  664SOL    HW1 1996   0.159   3.211   0.263
  664SOL    HW2 1997   0.267   3.263   0.374
  665SOL     OW 1998   0.105   2.875   1.726
  665SOL    HW1 1999   0.028   2.842   1.780
  665SOL    HW2 2000   0.190   2.845   1.768
  666SOL     OW 2001   0.672   2.065   1.489
  666SOL    HW1 2002   0.762   2.049   1.449
  666SOL    HW2 2003   0.680   2.070   1.588
  667SOL     OW 2004   0.075   2.207   0.033
  667SOL    HW1 2005  -0.017   2.179   0.004
  667SOL    HW2 2006   0.106   2.284  -0.023
  668SOL     OW 2007   1.440   2.718   1.398
  668SOL    HW1 2008   1.383   2.770   1.335
  668SOL    HW2 2009   1.536   2.730   1.374
  669SOL     OW 2010   0.072   2.028   0.318
  669SOL    HW1 2011   0.055   2.111   0.264
  669SOL    HW2 2012   0.162   1.991   0.296
  670SOL     OW 2013   1.183   3.197   0.119
  670SOL    HW1 2014   1.084   3.186   0.121
  670SOL    HW2 2015   1.217   3.212   0.212
  671SOL     OW 2016   0.613   2.704   1.431
  671SOL    HW1 2017   0.669   2.785   1.414
  671SOL    HW2 2018   0.672   2.624   1.434
  672SOL     OW 2019   1.493   3.629   0.959
  672SOL    HW1 2020   1.526   3.693   0.890
  672SOL    HW2 2021   1.559   3.623   1.034
  673SOL     OW 2022   0.716   2.427   1.708
  673SOL    HW1 2023   0.735   2.492   1.782
  673SOL    HW2 2024   0.776   2.347   1.717
  674SOL     OW 2025   1.450   3.082   1.633
  674SOL    HW1 2026   1.441   3.072   1.732
  674SOL    HW2 2027   1.546   3.075   1.607
  675SOL     OW 2028   0.390   3.603   1.560
  675SOL    HW1 2029   0.299   3.644   1.558
  675SOL    HW2 2030   0.383   3.509   1.592
  676SOL     OW 2031   1.674   2.745   1.254
  676SOL    HW1 2032   1.647   2.656   1.217
  676SOL    HW2 2033   1.675   2.813   1.181
  677SOL     OW 2034   1.225   2.187   0.449
  677SOL    HW1 2035   1.290   2.113   0.438
  677SOL    HW2 2036   1.245   2.237   0.533
  678SOL     OW 2037   0.594   2.607   0.652
  678SOL    HW1 2038   0.644   2.692   0.633
  678SOL    HW2 2039   0.506   2.609   0.604
  679SOL     OW 2040   1.777   2.204   1.642
  679SOL    HW1 2041   1.760   2.235   1.548
  679SOL    HW2 2042   1.693   2.167   1.680
  680SOL     OW 2043   1.730   2.796   1.517
  680SOL    HW1 2044   1.768   2.887   1.532
  680SOL    HW2 2045   1.722   2.779   1.418
  681SOL     OW 2046   0.859   3.236   0.016
  681SOL    HW1 2047   0.813   3.251   0.104
  681SOL    HW2 2048   0.903   3.321  -0.014
  682SOL     OW 2049   0.661   3.652   0.953
  682SOL    HW1 2050   0.615   3.740   0.940
  682SOL    HW2 2051   0.760   3.664   0.946
  683SOL     OW 2052   0.859   2.818   0.861
  683SOL    HW1 2053   0.913   2.749   0.909
  683SOL    HW2 2054   0.827   2.887   0.927
  684SOL     OW 2055   1.083   2.846   0.087
  684SOL    HW1 2056   1.060   2.899   0.005
  684SOL    HW2 2057   1.164   2.790   0.068
  685SOL     OW 2058   1.861   3.431   0.851
  685SOL    HW1 2059   1.790   3.419   0.781
  685SOL    HW2 2060   1.862   3.352   0.911
  686SOL     OW 2061   0.221   3.176   1.844
  686SOL    HW1 2062   0.156   3.103   1.823
  686SOL    HW2 2063   0.225   3.190   1.942
  687SOL     OW 2064   0.079   3.102   0.653
  687SOL    HW1 2065   0.078   3.055   0.741
  687SOL    HW2 2066   0.161   3.074   0.602
  688SOL     OW 2067   0.672   3.253   1.624
  688SOL    HW1 2068   0.594   3.203   1.662
  688SOL    HW2 2069   0.669   3.348   1.655
  689SOL     OW 2070   1.824   2.054   1.227
  689SOL    HW1 2071   1.820   1.964   1.271
  689SOL    HW2 2072   1.827   2.043   1.128
  690SOL     OW 2073   0.428   2.286   0.520
  690SOL    HW1 2074   0.458   2.214   0.458
  690SOL    HW2 2075   0.389   2.246   0.603
  691SOL     OW 2076   1.705   3.349   1.104
  691SOL    HW1 2077   1.612   3.324   1.077
  691SOL    HW2 2078   1.731   3.299   1.186
  692SOL     OW 2079   0.317   2.409   1.280
  692SOL    HW1 2080   0.355   2.350   1.352
  692SOL    HW2 2081   0.357   2.383   1.192
  693SOL     OW 2082   0.812   3.448   0.687
  693SOL    HW1 2083   0.844   3.458   0.593
  693SOL    HW2 2084   0.733   3.386   0.689
  694SOL     OW 2085   1.424   2.076   1.112
  694SOL    HW1 2086   1.476   2.011   1.167
  694SOL    HW2 2087   1.375   2.139   1.173
  695SOL     OW 2088   1.001   1.896   1.154
  695SOL    HW1 2089   0.938   1.824   1.123
  695SOL    HW2 2090   1.094   1.860   1.154
  696SOL     OW 2091   0.770   3.192   0.301
  696SOL    HW1 2092   0.724   3.105   0.318
  696SOL    HW2 2093   0.861   3.189   0.342
  697SOL     OW 2094   0.618   3.429   1.284
  697SOL    HW1 2095   0.613   3.511   1.341
  697SOL    HW2 2096   0.707   3.426   1.239
  698SOL     OW 2097   1.352   1.914   0.168
  698SOL    HW1 2098   1.387   1.873   0.084
  698SOL    HW2 2099   1.262   1.876   0.188
  699SOL     OW 2100   1.300   2.315   0.691
  699SOL    HW1 2101   1.241   2.395   0.695
  699SOL    HW2 2102   1.315   2.280   0.784
  700SOL     OW 2103   1.593   2.083   0.882
  700SOL    HW1 2104   1.509   2.082   0.936
  700SOL    HW2 2105   1.595   2.166   0.826
  701SOL     OW 2106   0.039   2.939   0.300
  701SOL    HW1 2107   0.138   2.928   0.291
  701SOL    HW2 2108  -0.001   2.853   0.332
  702SOL     OW 2109   0.875   3.508   0.337
  702SOL    HW1 2110   0.798   3.473   0.283
  702SOL    HW2 2111   0.843   3.579   0.399
  703SOL     OW 2112   0.230   2.490   1.975
  703SOL    HW1 2113   0.137   2.488   2.012
  703SOL    HW2 2114   0.231   2.451   1.883
  704SOL     OW 2115   0.225   2.137   2.858
  704SOL    HW1 2116   0.260   2.120   2.950
  704SOL    HW2 2117   0.137   2.092   2.846
  705SOL     OW 2118   0.019   2.230   2.509
  705SOL    HW1 2119  -0.063   2.273   2.548
  705SOL    HW2 2120  -0.009   2.157   2.446
  706SOL     OW 2121   0.569   3.137   3.027
  706SOL    HW1 2122   0.476   3.130   2.990
  706SOL    HW2 2123   0.580   3.226   3.071
  707SOL     OW 2124   1.555   3.373   2.565
  707SOL    HW1 2125   1.498   3.357   2.646
  707SOL    HW2 2126   1.496   3.383   2.485
  708SOL     OW 2127   1.135   2.565   2.579
  708SOL    HW1 2128   1.192   2.643   2.554
  708SOL    HW2 2129   1.075   2.591   2.655
  709SOL     OW 2130   1.755   2.469   2.093
  709SOL    HW1 2131   1.743   2.456   1.994
  709SOL    HW2 2132   1.725   2.388   2.142
  710SOL     OW 2133   0.768   3.006   2.885
  710SOL    HW1 2134   0.690   3.023   2.945
  710SOL    HW2 2135   0.802   3.093   2.849
  711SOL     OW 2136   0.850   2.660   3.685
  711SOL    HW1 2137   0.846   2.736   3.750
  711SOL    HW2 2138   0.872   2.696   3.594
  712SOL     OW 2139   0.685   2.874   2.527
  712SOL    HW1 2140   0.754   2.858   2.597
  712SOL    HW2 2141   0.612   2.931   2.565
  713SOL     OW 2142   0.686   3.023   3.665
  713SOL    HW1 2143   0.746   3.102   3.679
  713SOL    HW2 2144   0.600   3.054   3.624
  714SOL     OW 2145   0.335   3.297   2.923
  714SOL    HW1 2146   0.257   3.266   2.870
  714SOL    HW2 2147   0.393   3.355   2.866
  715SOL     OW 2148   1.460   3.367   3.201
  715SOL    HW1 2149   1.484   3.461   3.227
  715SOL    HW2 2150   1.444   3.313   3.283
  716SOL     OW 2151   0.438   2.254   3.361
  716SOL    HW1 2152   0.520   2.198   3.370
  716SOL    HW2 2153   0.357   2.196   3.365
  717SOL     OW 2154   1.603   2.309   2.599
  717SOL    HW1 2155   1.529   2.355   2.549
  717SOL    HW2 2156   1.654   2.377   2.652
  718SOL     OW 2157   0.231   3.575   2.345
  718SOL    HW1 2158   0.265   3.652   2.399
  718SOL    HW2 2159   0.275   3.575   2.255
  719SOL     OW 2160   1.127   3.203   3.552
  719SOL    HW1 2161   1.174   3.203   3.640
  719SOL    HW2 2162   1.079   3.116   3.541
  720SOL     OW 2163   0.230   3.296   2.400
  720SOL    HW1 2164   0.204   3.392   2.400
  720SOL    HW2 2165   0.159   3.242   2.445
  721SOL     OW 2166   0.240   2.953   2.748
  721SOL    HW1 2167   0.254   2.869   2.800
  721SOL    HW2 2168   0.185   3.017   2.803
  722SOL     OW 2169   0.620   3.648   3.301
  722SOL    HW1 2170   0.528   3.631   3.336
  722SOL    HW2 2171   0.648   3.740   3.327
  723SOL     OW 2172   0.606   2.826   1.985
  723SOL    HW1 2173   0.613   2.910   1.931
  723SOL    HW2 2174   0.652   2.839   2.073
  724SOL     OW 2175   1.594   1.976   3.342
  724SOL    HW1 2176   1.576   2.043   3.270
  724SOL    HW2 2177   1.591   2.022   3.431
  725SOL     OW 2178   0.122   2.505   2.425
  725SOL    HW1 2179   0.077   2.417   2.442
  725SOL    HW2 2180   0.121   2.559   2.509
  726SOL     OW 2181   1.842   3.629   2.221
  726SOL    HW1 2182   1.896   3.600   2.301
  726SOL    HW2 2183   1.872   3.719   2.192
  727SOL     OW 2184   0.027   3.458   1.979
  727SOL    HW1 2185   0.008   3.362   2.000
  727SOL    HW2 2186  -0.006   3.516   2.054
  728SOL     OW 2187   1.689   2.784   2.474
  728SOL    HW1 2188   1.784   2.755   2.482
  728SOL    HW2 2189   1.681   2.849   2.399
  729SOL     OW 2190   1.641   2.970   2.294
  729SOL    HW1 2191   1.727   2.972   2.242
  729SOL    HW2 2192   1.655   3.017   2.382
  730SOL     OW 2193   0.113   2.599   3.459
  730SOL    HW1 2194   0.201   2.586   3.504
  730SOL    HW2 2195   0.100   2.696   3.437
  731SOL     OW 2196   0.613   3.227   2.588
  731SOL    HW1 2197   0.564   3.140   2.597
  731SOL    HW2 2198   0.590   3.270   2.501
  732SOL     OW 2199   1.293   3.090   3.285
  732SOL    HW1 2200   1.330   3.017   3.227
  732SOL    HW2 2201   1.345   3.095   3.370
  733SOL     OW 2202   0.809   1.866   2.364
  733SOL    HW1 2203   0.849   1.957   2.355
  733SOL    HW2 2204   0.709   1.874   2.370
  734SOL     OW 2205   0.197   2.838   3.126
  734SOL    HW1 2206   0.286   2.793   3.112
  734SOL    HW2 2207   0.124   2.773   3.107
  735SOL     OW 2208   1.525   2.861   2.052
  735SOL    HW1 2209   1.462   2.785   2.065
  735SOL    HW2 2210   1.573   2.879   2.138
  736SOL     OW 2211   1.187   3.654   3.478
  736SOL    HW1 2212   1.211   3.714   3.402
  736SOL    HW2 2213   1.194   3.559   3.448
  737SOL     OW 2214   0.317   2.113   3.663
  737SOL    HW1 2215   0.388   2.184   3.669
  737SOL    HW2 2216   0.229   2.152   3.691
  738SOL     OW 2217   1.466   3.279   2.815
  738SOL    HW1 2218   1.407   3.285   2.895
  738SOL    HW2 2219   1.451   3.191   2.769
  739SOL     OW 2220   1.667   3.576   2.434
  739SOL    HW1 2221   1.626   3.553   2.346
  739SOL    HW2 2222   1.649   3.502   2.499
  740SOL     OW 2223   0.598   2.591   2.132
  740SOL    HW1 2224   0.622   2.660   2.064
  740SOL    HW2 2225   0.520   2.624   2.186
  741SOL     OW 2226   1.281   2.207   2.806
  741SOL    HW1 2227   1.195   2.157   2.793
  741SOL    HW2 2228   1.343   2.153   2.862
  742SOL     OW 2229   1.576   3.524   2.169
  742SOL    HW1 2230   1.665   3.570   2.172
  742SOL    HW2 2231   1.555   3.500   2.074
  743SOL     OW 2232   0.807   2.467   3.327
  743SOL    HW1 2233   0.760   2.464   3.416
  743SOL    HW2 2234   0.756   2.412   3.261
  744SOL     OW 2235   1.394   2.331   3.536
  744SOL    HW1 2236   1.374   2.374   3.624
  744SOL    HW2 2237   1.472   2.269   3.545
  745SOL     OW 2238   0.973   2.752   3.434
  745SOL    HW1 2239   1.019   2.668   3.405
  745SOL    HW2 2240   0.917   2.786   3.359
  746SOL     OW 2241   0.991   2.272   3.104
  746SOL    HW1 2242   0.914   2.306   3.158
  746SOL    HW2 2243   0.957   2.221   3.025
  747SOL     OW 2244   1.041   2.563   2.291
  747SOL    HW1 2245   1.067   2.559   2.387
  747SOL    HW2 2246   0.956   2.512   2.277
  748SOL     OW 2247   0.076   2.673   2.651
  748SOL    HW1 2248   0.175   2.661   2.660
  748SOL    HW2 2249   0.052   2.768   2.672
  749SOL     OW 2250   0.130   3.683   3.433
  749SOL    HW1 2251   0.120   3.668   3.532
  749SOL    HW2 2252   0.044   3.719   3.397
  750SOL     OW 2253   0.865   2.210   2.057
  750SOL    HW1 2254   0.924   2.273   2.008
  750SOL    HW2 2255   0.884   2.116   2.028
  751SOL     OW 2256   1.719   2.447   3.693
  751SOL    HW1 2257   1.693   2.536   3.657
  751SOL    HW2 2258   1.717   2.379   3.620
  752SOL     OW 2259   1.362   3.006   2.407
  752SOL    HW1 2260   1.445   2.977   2.359
  752SOL    HW2 2261   1.313   3.073   2.351
  753SOL     OW 2262   0.550   2.058   2.747
  753SOL    HW1 2263   0.545   2.053   2.847
  753SOL    HW2 2264   0.552   2.154   2.718
  754SOL     OW 2265   1.008   3.318   2.339
  754SOL    HW1 2266   0.962   3.390   2.287
  754SOL    HW2 2267   1.004   3.338   2.437
  755SOL     OW 2268   0.351   3.663   2.715
  755SOL    HW1 2269   0.401   3.577   2.721
  755SOL    HW2 2270   0.416   3.740   2.712
  756SOL     OW 2271   1.795   2.928   2.735
  756SOL    HW1 2272   1.733   2.913   2.659
  756SOL    HW2 2273   1.743   2.939   2.820
  757SOL     OW 2274   1.227   3.412   3.368
  757SOL    HW1 2275   1.233   3.335   3.432
  757SOL    HW2 2276   1.175   3.386   3.288
  758SOL     OW 2277   0.321   2.805   2.104
  758SOL    HW1 2278   0.403   2.844   2.062
  758SOL    HW2 2279   0.294   2.723   2.055
  759SOL     OW 2280   1.458   2.597   2.590
  759SOL    HW1 2281   1.453   2.532   2.665
  759SOL    HW2 2282   1.538   2.656   2.603
  760SOL     OW 2283   0.461   3.128   3.589
  760SOL    HW1 2284   0.411   3.129   3.503
  760SOL    HW2 2285   0.398   3.110   3.665
  761SOL     OW 2286   1.111   3.638   2.099
  761SOL    HW1 2287   1.051   3.576   2.149
  761SOL    HW2 2288   1.142   3.594   2.014
  762SOL     OW 2289   0.202   2.147   3.360
  762SOL    HW1 2290   0.122   2.207   3.347
  762SOL    HW2 2291   0.192   2.098   3.446
  763SOL     OW 2292   1.632   3.239   1.943
  763SOL    HW1 2293   1.600   3.333   1.933
  763SOL    HW2 2294   1.556   3.176   1.931
  764SOL     OW 2295   0.464   3.605   2.185
  764SOL    HW1 2296   0.497   3.644   2.271
  764SOL    HW2 2297   0.540   3.598   2.120
  765SOL     OW 2298   1.400   1.969   2.288
  765SOL    HW1 2299   1.376   1.932   2.198
  765SOL    HW2 2300   1.499   1.985   2.292
  766SOL     OW 2301   0.249   3.647   3.103
  766SOL    HW1 2302   0.306   3.582   3.153
  766SOL    HW2 2303   0.233   3.614   3.010
  767SOL     OW 2304   0.940   3.560   2.766
  767SOL    HW1 2305   1.020   3.503   2.787
  767SOL    HW2 2306   0.891   3.520   2.689
  768SOL     OW 2307   0.382   2.562   2.342
  768SOL    HW1 2308   0.427   2.472   2.339
  768SOL    HW2 2309   0.288   2.551   2.375
  769SOL     OW 2310   1.547   2.084   3.591
  769SOL    HW1 2311   1.542   2.121   3.683
  769SOL    HW2 2312   1.475   2.015   3.579
  770SOL     OW 2313   0.614   1.984   1.979
  770SOL    HW1 2314   0.712   1.962   1.986
  770SOL    HW2 2315   0.583   1.967   1.886
  771SOL     OW 2316   0.781   2.126   3.611
  771SOL    HW1 2317   0.848   2.065   3.654
  771SOL    HW2 2318   0.708   2.145   3.676
  772SOL     OW 2319   0.888   3.376   3.057
  772SOL    HW1 2320   0.865   3.351   2.963
  772SOL    HW2 2321   0.949   3.307   3.096
  773SOL     OW 2322   1.351   2.452   3.295
  773SOL    HW1 2323   1.379   2.409   3.380
  773SOL    HW2 2324   1.376   2.548   3.296
  774SOL     OW 2325   0.803   3.264   2.786
  774SOL    HW1 2326   0.893   3.278   2.744
  774SOL    HW2 2327   0.732   3.266   2.715
  775SOL     OW 2328   0.922   2.365   2.761
  775SOL    HW1 2329   0.897   2.356   2.665
  775SOL    HW2 2330   0.970   2.283   2.792
  776SOL     OW 2331   0.539   1.926   2.374
  776SOL    HW1 2332   0.458   1.927   2.432
  776SOL    HW2 2333   0.542   2.009   2.319
  777SOL     OW 2334   1.434   3.050   1.903
  777SOL    HW1 2335   1.466   2.974   1.960
  777SOL    HW2 2336   1.342   3.077   1.933
  778SOL     OW 2337   0.297   1.897   2.033
  778SOL    HW1 2338   0.346   1.981   2.012
  778SOL    HW2 2339   0.359   1.832   2.078
  779SOL     OW 2340   0.935   2.098   2.342
  779SOL    HW1 2341   0.887   2.139   2.264
  779SOL    HW2 2342   1.034   2.096   2.323
  780SOL     OW 2343   1.076   2.545   3.326
  780SOL    HW1 2344   0.996   2.484   3.329
  780SOL    HW2 2345   1.157   2.492   3.302
  781SOL     OW 2346   1.227   3.432   2.655
  781SOL    HW1 2347   1.248   3.506   2.590
  781SOL    HW2 2348   1.295   3.432   2.728
  782SOL     OW 2349   0.459   3.014   2.603
  782SOL    HW1 2350   0.388   2.987   2.668
  782SOL    HW2 2351   0.433   2.986   2.510
  783SOL     OW 2352   1.271   3.659   2.453
  783SOL    HW1 2353   1.315   3.723   2.389
  783SOL    HW2 2354   1.221   3.711   2.523
  784SOL     OW 2355   1.032   2.411   1.878
  784SOL    HW1 2356   0.991   2.493   1.839
  784SOL    HW2 2357   1.096   2.437   1.951
  785SOL     OW 2358   0.078   2.418   3.248
  785SOL    HW1 2359   0.170   2.417   3.207
  785SOL    HW2 2360   0.072   2.492   3.315
  786SOL     OW 2361   0.561   2.084   3.009
  786SOL    HW1 2362   0.599   2.000   3.046
  786SOL    HW2 2363   0.473   2.103   3.053
  787SOL     OW 2364   0.866   2.316   2.504
  787SOL    HW1 2365   0.834   2.388   2.442
  787SOL    HW2 2366   0.890   2.235   2.451
  788SOL     OW 2367   1.017   1.901   2.615
  788SOL    HW1 2368   0.945   1.906   2.546
  788SOL    HW2 2369   0.993   1.832   2.684
  789SOL     OW 2370   1.429   3.035   2.729
  789SOL    HW1 2371   1.374   2.951   2.722
  789SOL    HW2 2372   1.455   3.064   2.637
  790SOL     OW 2373   1.466   2.452   2.854
  790SOL    HW1 2374   1.436   2.357   2.861
  790SOL    HW2 2375   1.539   2.468   2.920
  791SOL     OW 2376   1.857   2.695   2.239
  791SOL    HW1 2377   1.899   2.631   2.303
  791SOL    HW2 2378   1.819   2.644   2.161
  792SOL     OW 2379   0.488   3.247   2.036
  792SOL    HW1 2380   0.401   3.232   2.083
  792SOL    HW2 2381   0.471   3.273   1.941
  793SOL     OW 2382   1.664   3.142   2.519
  793SOL    HW1 2383   1.763   3.150   2.533
  793SOL    HW2 2384   1.619   3.226   2.550
  794SOL     OW 2385   1.390   2.437   1.940
  794SOL    HW1 2386   1.336   2.416   2.021
  794SOL    HW2 2387   1.481   2.396   1.949
  795SOL     OW 2388   0.527   2.118   2.190
  795SOL    HW1 2389   0.554   2.059   2.115
  795SOL    HW2 2390   0.527   2.213   2.159
  796SOL     OW 2391   1.754   3.085   3.450
  796SOL    HW1 2392   1.845   3.046   3.437
  796SOL    HW2 2393   1.762   3.181   3.474
  797SOL     OW 2394   1.064   3.209   3.202
  797SOL    HW1 2395   0.984   3.186   3.257
  797SOL    HW2 2396   1.147   3.183   3.251
  798SOL     OW 2397   1.592   3.491   3.487
  798SOL    HW1 2398   1.619   3.525   3.397
  798SOL    HW2 2399   1.671   3.453   3.533
  799SOL     OW 2400   1.111   3.057   2.962
  799SOL    HW1 2401   1.071   3.101   3.043
  799SOL    HW2 2402   1.070   3.094   2.879
  800SOL     OW 2403   1.638   2.961   2.941
  800SOL    HW1 2404   1.643   3.042   3.000
  800SOL    HW2 2405   1.552   2.963   2.890
  801SOL     OW 2406   0.915   1.951   3.264
  801SOL    HW1 2407   0.940   1.931   3.169
  801SOL    HW2 2408   0.987   2.007   3.306
  802SOL     OW 2409   0.980   2.978   3.581
  802SOL    HW1 2410   0.881   2.984   3.591
  802SOL    HW2 2411   1.003   2.898   3.525
  803SOL     OW 2412   0.705   2.912   2.230
  803SOL    HW1 2413   0.691   2.919   2.329
  803SOL    HW2 2414   0.789   2.861   2.212
  804SOL     OW 2415   0.410   2.675   3.113
  804SOL    HW1 2416   0.496   2.687   3.163
  804SOL    HW2 2417   0.368   2.588   3.140
  805SOL     OW 2418   1.274   2.248   3.124
  805SOL    HW1 2419   1.295   2.322   3.188
  805SOL    HW2 2420   1.185   2.265   3.081
  806SOL     OW 2421   0.064   3.426   3.193
  806SOL    HW1 2422   0.018   3.508   3.159
  806SOL    HW2 2423   0.162   3.445   3.202
  807SOL     OW 2424   0.367   2.962   2.363
  807SOL    HW1 2425   0.360   3.045   2.307
  807SOL    HW2 2426   0.371   2.882   2.303
  808SOL     OW 2427   0.566   2.399   2.727
  808SOL    HW1 2428   0.578   2.465   2.653
  808SOL    HW2 2429   0.612   2.433   2.810
  809SOL     OW 2430   1.252   3.210   2.250
  809SOL    HW1 2431   1.302   3.287   2.290
  809SOL    HW2 2432   1.157   3.212   2.282
  810SOL     OW 2433   1.272   3.307   3.004
  810SOL    HW1 2434   1.319   3.320   3.091
  810SOL    HW2 2435   1.206   3.233   3.013
  811SOL     OW 2436   1.582   2.501   2.334
  811SOL    HW1 2437   1.551   2.562   2.407
  811SOL    HW2 2438   1.632   2.553   2.265
  812SOL     OW 2439   0.354   3.372   3.191
  812SOL    HW1 2440   0.333   3.328   3.104
  812SOL    HW2 2441   0.451   3.398   3.194
  813SOL     OW 2442   0.402   2.613   3.460
  813SOL    HW1 2443   0.470   2.668   3.413
  813SOL    HW2 2444   0.442   2.525   3.487
  814SOL     OW 2445   1.587   2.641   3.532
  814SOL    HW1 2446   1.495   2.679   3.527
  814SOL    HW2 2447   1.647   2.688   3.467
  815SOL     OW 2448   1.013   1.967   3.632
  815SOL    HW1 2449   1.019   2.052   3.580
  815SOL    HW2 2450   1.045   1.891   3.575
  816SOL     OW 2451   0.504   1.912   3.602
  816SOL    HW1 2452   0.462   1.855   3.532
  816SOL    HW2 2453   0.438   1.981   3.634
  817SOL     OW 2454   0.573   2.732   2.891
  817SOL    HW1 2455   0.617   2.821   2.882
  817SOL    HW2 2456   0.510   2.732   2.968
  818SOL     OW 2457   1.360   2.724   2.907
  818SOL    HW1 2458   1.285   2.724   2.841
  818SOL    HW2 2459   1.397   2.632   2.916
  819SOL     OW 2460   1.209   2.387   2.137
  819SOL    HW1 2461   1.222   2.303   2.191
  819SOL    HW2 2462   1.180   2.461   2.197
  820SOL     OW 2463   0.307   2.075   3.093
  820SOL    HW1 2464   0.284   2.112   3.183
  820SOL    HW2 2465   0.277   1.980   3.087
  821SOL     OW 2466   0.037   3.172   3.144
  821SOL    HW1 2467   0.090   3.123   3.212
  821SOL    HW2 2468   0.059   3.270   3.149
  822SOL     OW 2469   0.732   2.496   2.926
  822SOL    HW1 2470   0.791   2.470   2.850
  822SOL    HW2 2471   0.704   2.592   2.915
  823SOL     OW 2472   1.728   2.797   3.716
  823SOL    HW1 2473   1.682   2.790   3.627
  823SOL    HW2 2474   1.666   2.841   3.782
  824SOL     OW 2475   0.307   1.925   2.480
  824SOL    HW1 2476   0.296   2.019   2.513
  824SOL    HW2 2477   0.302   1.862   2.557
  825SOL     OW 2478   1.622   2.229   2.236
  825SOL    HW1 2479   1.624   2.153   2.300
  825SOL    HW2 2480   1.574   2.306   2.276
  826SOL     OW 2481   1.023   2.628   2.828
  826SOL    HW1 2482   1.038   2.649   2.924
  826SOL    HW2 2483   0.993   2.533   2.819
  827SOL     OW 2484   0.980   3.435   3.562
  827SOL    HW1 2485   0.960   3.479   3.474
  827SOL    HW2 2486   1.019   3.344   3.546
  828SOL     OW 2487   1.859   3.380   3.467
  828SOL    HW1 2488   1.873   3.407   3.372
  828SOL    HW2 2489   1.942   3.402   3.520
  829SOL     OW 2490   0.350   2.760   3.666
  829SOL    HW1 2491   0.426   2.804   3.714
  829SOL    HW2 2492   0.385   2.713   3.584
  830SOL     OW 2493   1.540   2.136   1.987
  830SOL    HW1 2494   1.479   2.061   2.010
  830SOL    HW2 2495   1.562   2.188   2.070
  831SOL     OW 2496   1.303   2.700   1.904
  831SOL    HW1 2497   1.337   2.607   1.919
  831SOL    HW2 2498   1.321   2.727   1.809
  832SOL     OW 2499   1.068   3.195   2.711
  832SOL    HW1 2500   1.075   3.111   2.656
  832SOL    HW2 2501   1.130   3.264   2.675
  833SOL     OW 2502   0.319   2.672   2.811
  833SOL    HW1 2503   0.412   2.708   2.816
  833SOL    HW2 2504   0.313   2.587   2.863
  834SOL     OW 2505   0.339   2.371   2.868
  834SOL    HW1 2506   0.287   2.288   2.851
  834SOL    HW2 2507   0.416   2.376   2.804
  835SOL     OW 2508   1.138   2.242   3.540
  835SOL    HW1 2509   1.093   2.305   3.604
  835SOL    HW2 2510   1.231   2.273   3.523
  836SOL     OW 2511   1.160   2.069   3.339
  836SOL    HW1 2512   1.160   2.133   3.416
  836SOL    HW2 2513   1.188   2.117   3.256
  837SOL     OW 2514   0.008   3.188   2.062
  837SOL    HW1 2515  -0.085   3.209   2.031
  837SOL    HW2 2516   0.018   3.089   2.075
  838SOL     OW 2517   0.088   3.663   2.789
  838SOL    HW1 2518   0.046   3.577   2.762
  838SOL    HW2 2519   0.182   3.666   2.755
  839SOL     OW 2520   0.504   3.430   2.772
  839SOL    HW1 2521   0.570   3.504   2.781
  839SOL    HW2 2522   0.548   3.351   2.730
  840SOL     OW 2523   1.002   2.658   3.100
  840SOL    HW1 2524   1.043   2.626   3.186
  840SOL    HW2 2525   0.906   2.631   3.097
  841SOL     OW 2526   0.040   2.406   2.976
  841SOL    HW1 2527   0.125   2.373   2.935
  841SOL    HW2 2528   0.053   2.421   3.074
  842SOL     OW 2529   0.189   2.382   3.584
  842SOL    HW1 2530   0.248   2.342   3.514
  842SOL    HW2 2531   0.131   2.453   3.543
  843SOL     OW 2532   1.369   2.812   3.522
  843SOL    HW1 2533   1.408   2.901   3.542
  843SOL    HW2 2534   1.379   2.792   3.425
  844SOL     OW 2535   0.815   2.434   2.187
  844SOL    HW1 2536   0.822   2.345   2.141
  844SOL    HW2 2537   0.721   2.468   2.179
  845SOL     OW 2538   1.657   2.466   3.068
  845SOL    HW1 2539   1.619   2.397   3.130
  845SOL    HW2 2540   1.739   2.430   3.024
  846SOL     OW 2541   0.252   3.426   3.606
  846SOL    HW1 2542   0.222   3.483   3.682
  846SOL    HW2 2543   0.245   3.329   3.632
  847SOL     OW 2544   0.671   2.326   3.131
  847SOL    HW1 2545   0.637   2.237   3.101
  847SOL    HW2 2546   0.697   2.380   3.051
  848SOL     OW 2547   0.930   3.540   3.327
  848SOL    HW1 2548   0.906   3.522   3.232
  848SOL    HW2 2549   0.960   3.634   3.337
  849SOL     OW 2550   0.473   2.362   2.053
  849SOL    HW1 2551   0.534   2.442   2.057
  849SOL    HW2 2552   0.378   2.393   2.060
  850SOL     OW 2553   0.159   2.999   3.328
  850SOL    HW1 2554   0.181   2.938   3.404
  850SOL    HW2 2555   0.169   2.950   3.242
  851SOL     OW 2556   1.347   2.921   3.096
  851SOL    HW1 2557   1.371   2.858   3.022
  851SOL    HW2 2558   1.257   2.961   3.078
  852SOL     OW 2559   1.302   2.717   2.171
  852SOL    HW1 2560   1.216   2.686   2.213
  852SOL    HW2 2561   1.298   2.703   2.072
  853SOL     OW 2562   1.759   3.609   3.016
  853SOL    HW1 2563   1.820   3.639   2.943
  853SOL    HW2 2564   1.721   3.520   2.994
  854SOL     OW 2565   1.252   3.593   2.990
  854SOL    HW1 2566   1.336   3.598   2.936
  854SOL    HW2 2567   1.229   3.497   3.008
  855SOL     OW 2568   0.083   3.120   2.884
  855SOL    HW1 2569   0.078   3.119   2.984
  855SOL    HW2 2570   0.000   3.079   2.846
  856SOL     OW 2571   0.688   3.524   3.578
  856SOL    HW1 2572   0.632   3.605   3.587
  856SOL    HW2 2573   0.740   3.528   3.492
  857SOL     OW 2574   1.726   1.997   2.385
  857SOL    HW1 2575   1.799   1.980   2.318
  857SOL    HW2 2576   1.695   1.910   2.423
  858SOL     OW 2577   1.388   3.435   2.339
  858SOL    HW1 2578   1.455   3.447   2.265
  858SOL    HW2 2579   1.348   3.524   2.362
  859SOL     OW 2580   0.130   3.656   3.713
  859SOL    HW1 2581   0.089   3.582   3.766
  859SOL    HW2 2582   0.194   3.707   3.771
  860SOL     OW 2583   1.280   2.789   2.534
  860SOL    HW1 2584   1.340   2.708   2.536
  860SOL    HW2 2585   1.320   2.858   2.474
  861SOL     OW 2586   0.830   3.135   3.284
  861SOL    HW1 2587   0.825   3.168   3.379
  861SOL    HW2 2588   0.744   3.154   3.238
  862SOL     OW 2589   0.672   3.478   2.016
  862SOL    HW1 2590   0.681   3.488   1.917
  862SOL    HW2 2591   0.632   3.389   2.037
  863SOL     OW 2592   1.650   3.582   3.256
  863SOL    HW1 2593   1.703   3.592   3.172
  863SOL    HW2 2594   1.623   3.672   3.290
  864SOL     OW 2595   1.841   2.037   2.825
  864SOL    HW1 2596   1.880   1.952   2.789
  864SOL    HW2 2597   1.743   2.039   2.806
  865SOL     OW 2598   0.263   2.188   2.582
  865SOL    HW1 2599   0.184   2.239   2.548
  865SOL    HW2 2600   0.254   2.173   2.680
  866SOL     OW 2601   1.194   3.474   1.893
  866SOL    HW1 2602   1.200   3.381   1.930
  866SOL    HW2 2603   1.135   3.474   1.813
  867SOL     OW 2604   0.822   2.864   3.234
  867SOL    HW1 2605   0.862   2.863   3.142
  867SOL    HW2 2606   0.832   2.956   3.274
  868SOL     OW 2607   0.916   2.772   2.153
  868SOL    HW1 2608   0.979   2.810   2.085
  868SOL    HW2 2609   0.956   2.689   2.192
  869SOL     OW 2610   1.504   3.469   1.906
  869SOL    HW1 2611   1.412   3.506   1.913
  869SOL    HW2 2612   1.542   3.489   1.816
  870SOL     OW 2613   0.372   3.150   3.352
  870SOL    HW1 2614   0.359   3.243   3.318
  870SOL    HW2 2615   0.288   3.098   3.339
  871SOL     OW 2616   1.614   3.154   3.151
  871SOL    HW1 2617   1.674   3.157   3.231
  871SOL    HW2 2618   1.539   3.218   3.164
  872SOL     OW 2619   1.039   2.960   2.558
  872SOL    HW1 2620   0.969   2.913   2.612
  872SOL    HW2 2621   1.098   2.892   2.515
  873SOL     OW 2622   1.014   2.098   2.833
  873SOL    HW1 2623   1.006   2.062   2.740
  873SOL    HW2 2624   1.012   2.022   2.898
  874SOL     OW 2625   0.590   3.349   2.353
  874SOL    HW1 2626   0.632   3.291   2.283
  874SOL    HW2 2627   0.546   3.428   2.309
  875SOL     OW 2628   1.709   2.247   3.243
  875SOL    HW1 2629   1.782   2.316   3.247
  875SOL    HW2 2630   1.737   2.172   3.184
  876SOL     OW 2631   0.255   3.210   2.152
  876SOL    HW1 2632   0.159   3.211   2.125
  876SOL    HW2 2633   0.267   3.263   2.236
  877SOL     OW 2634   0.105   2.875   3.588
  877SOL    HW1 2635   0.028   2.842   3.642
  877SOL    HW2 2636   0.190   2.845   3.630
  878SOL     OW 2637   0.672   2.065   3.351
  878SOL    HW1 2638   0.762   2.049   3.311
  878SOL    HW2 2639   0.680   2.070   3.450
  879SOL     OW 2640   0.075   2.207   1.895
  879SOL    HW1 2641  -0.017   2.179   1.866
  879SOL    HW2 2642   0.106   2.284   1.839
  880SOL     OW 2643   1.440   2.718   3.260
  880SOL    HW1 2644   1.383   2.770   3.197
  880SOL    HW2 2645   1.536   2.730   3.236
  881SOL     OW 2646   0.072   2.028   2.180
  881SOL    HW1 2647   0.055   2.111   2.126
  881SOL    HW2 2648   0.162   1.991   2.158
  882SOL     OW 2649   1.183   3.197   1.981
  882SOL    HW1 2650   1.084   3.186   1.983
  882SOL    HW2 2651   1.217   3.212   2.074
  883SOL     OW 2652   0.613   2.704   3.293
  883SOL    HW1 2653   0.669   2.785   3.276
  883SOL    HW2 2654   0.672   2.624   3.296
  884SOL     OW 2655   1.493   3.629   2.821
  884SOL    HW1 2656   1.526   3.693   2.752
  884SOL    HW2 2657   1.559   3.623   2.896
  885SOL     OW 2658   0.716   2.427   3.570
  885SOL    HW1 2659   0.735   2.492   3.644
  885SOL    HW2 2660   0.776   2.347   3.579
  886SOL     OW 2661   1.450   3.082   3.495
  886SOL    HW1 2662   1.441   3.072   3.594
  886SOL    HW2 2663   1.546   3.075   3.469
  887SOL     OW 2664   0.390   3.603   3.422
  887SOL    HW1 2665   0.299   3.644   3.420
  887SOL    HW2 2666   0.383   3.509   3.454
  888SOL     OW 2667   1.674   2.745   3.116
  888SOL    HW1 2668   1.647   2.656   3.079
  888SOL    HW2 2669   1.675   2.813   3.043
  889SOL     OW 2670   1.225   2.187   2.311
  889SOL    HW1 2671   1.290   2.113   2.300
  889SOL    HW2 2672   1.245   2.237   2.395
  890SOL     OW 2673   0.594   2.607   2.514
  890SOL    HW1 2674   0.644   2.692   2.495
  890SOL    HW2 2675   0.506   2.609   2.466
  891SOL     OW 2676   1.777   2.204   3.504
  891SOL    HW1 2677   1.760   2.235   3.410
  891SOL    HW2 2678   1.693   2.167   3.542
  892SOL     OW 2679   1.730   2.796   3.379
  892SOL    HW1 2680   1.768   2.887   3.394
  892SOL    HW2 2681   1.722   2.779   3.280
  893SOL     OW 2682   0.859   3.236   1.878
  893SOL    HW1 2683   0.813   3.251   1.966
  893SOL    HW2 2684   0.903   3.321   1.848
  894SOL     OW 2685   0.661   3.652   2.815
  894SOL    HW1 2686   0.615   3.740   2.802
  894SOL    HW2 2687   0.760   3.664   2.808
  895SOL     OW 2688   0.859   2.818   2.723
  895SOL    HW1 2689   0.913   2.749   2.771
  895SOL    HW2 2690   0.827   2.887   2.789
  896SOL     OW 2691   1.083   2.846   1.949
  896SOL    HW1 2692   1.060   2.899   1.867
  896SOL    HW2 2693   1.164   2.790   1.930
  897SOL     OW 2694   1.861   3.431   2.713
  897SOL    HW1 2695   1.790   3.419   2.643
  897SOL    HW2 2696   1.862   3.352   2.773
  898SOL     OW 2697   0.221   3.176   3.706
  898SOL    HW1 2698   0.156   3.103   3.685
  898SOL    HW2 2699   0.225   3.190   3.804
  899SOL     OW 2700   0.079   3.102   2.515
  899SOL    HW1 2701   0.078   3.055   2.603
  899SOL    HW2 2702   0.161   3.074   2.464
  900SOL     OW 2703   0.672   3.253   3.486
  900SOL    HW1 2704   0.594   3.203   3.524
  900SOL    HW2 2705   0.669   3.348   3.517
  901SOL     OW 2706   1.824   2.054   3.089
  901SOL    HW1 2707   1.820   1.964   3.133
  901SOL    HW2 2708   1.827   2.043   2.990
  902SOL     OW 2709   0.428   2.286   2.382
  902SOL    HW1 2710   0.458   2.214   2.320
  902SOL    HW2 2711   0.389   2.246   2.465
  903SOL     OW 2712   1.705   3.349   2.966
  903SOL    HW1 2713   1.612   3.324   2.939
  903SOL    HW2 2714   1.731   3.299   3.048
  904SOL     OW 2715   0.317   2.409   3.142
  904SOL    HW1 2716   0.355   2.350   3.214
  904SOL    HW2 2717   0.357   2.383   3.054
  905SOL     OW 2718   0.812   3.448   2.549
  905SOL    HW1 2719   0.844   3.458   2.455
  905SOL    HW2 2720   0.733   3.386   2.551
  906SOL     OW 2721   1.424   2.076   2.974
  906SOL    HW1 2722   1.476   2.011   3.029
  906SOL    HW2 2723   1.375   2.139   3.035
  907SOL     OW 2724   1.001   1.896   3.016
  907SOL    HW1 2725   0.938   1.824   2.985
  907SOL    HW2 2726   1.094   1.860   3.016
  908SOL     OW 2727   0.770   3.192   2.163
  908SOL    HW1 2728   0.724   3.105   2.180
  908SOL    HW2 2729   0.861   3.189   2.204
  909SOL     OW 2730   0.618   3.429   3.146
  909SOL    HW1 2731   0.613   3.511   3.203
  909SOL    HW2 2732   0.707   3.426   3.101
  910SOL     OW 2733   1.352   1.914   2.030
  910SOL    HW1 2734   1.387   1.873   1.946
  910SOL    HW2 2735   1.262   1.876   2.050
  911SOL     OW 2736   1.300   2.315   2.553
  911SOL    HW1 2737   1.241   2.395   2.557
  911SOL    HW2 2738   1.315   2.280   2.646
  912SOL     OW 2739   1.593   2.083   2.744
  912SOL    HW1 2740   1.509   2.082   2.798
  912SOL    HW2 2741   1.595   2.166   2.688
  913SOL     OW 2742   0.039   2.939   2.162
  913SOL    HW1 2743   0.138   2.928   2.153
  913SOL    HW2 2744  -0.001   2.853   2.194
  914SOL     OW 2745   0.875   3.508   2.199
  914SOL    HW1 2746   0.798   3.473   2.145
  914SOL    HW2 2747   0.843   3.579   2.261
  915SOL     OW 2748   0.230   2.490   3.837
  915SOL    HW1 2749   0.137   2.488   3.874
  915SOL    HW2 2750   0.231   2.451   3.745
  916SOL     OW 2751   1.755   2.469   3.955
  916SOL    HW1 2752   1.743   2.456   3.856
  916SOL    HW2 2753   1.725   2.388   4.004
  917SOL     OW 2754   0.231   3.575   4.207
  917SOL    HW1 2755   0.265   3.652   4.261
  917SOL    HW2 2756   0.275   3.575   4.117
  918SOL     OW 2757   0.230   3.296   4.262
  918SOL    HW1 2758   0.204   3.392   4.262
  918SOL    HW2 2759   0.159   3.242   4.307
  919SOL     OW 2760   0.606   2.826   3.847
  919SOL    HW1 2761   0.613   2.910   3.793
  919SOL    HW2 2762   0.652   2.839   3.935
  920SOL     OW 2763   1.842   3.629   4.083
  920SOL    HW1 2764   1.896   3.600   4.163
  920SOL    HW2 2765   1.872   3.719   4.054
  921SOL     OW 2766   0.027   3.458   3.841
  921SOL    HW1 2767   0.008   3.362   3.862
  921SOL    HW2 2768  -0.006   3.516   3.916
  922SOL     OW 2769   1.689   2.784   4.336
  922SOL    HW1 2770   1.784   2.755   4.344
  922SOL    HW2 2771   1.681   2.849   4.261
  923SOL     OW 2772   1.641   2.970   4.156
  923SOL    HW1 2773   1.727   2.972   4.104
  923SOL    HW2 2774   1.655   3.017   4.244
  924SOL     OW 2775   0.809   1.866   4.226
  924SOL    HW1 2776   0.849   1.957   4.217
  924SOL    HW2 2777   0.709   1.874   4.232
  925SOL     OW 2778   1.525   2.861   3.914
  925SOL    HW1 2779   1.462   2.785   3.927
  925SOL    HW2 2780   1.573   2.879   4.000
  926SOL     OW 2781   0.598   2.591   3.994
  926SOL    HW1 2782   0.622   2.660   3.926
  926SOL    HW2 2783   0.520   2.624   4.048
  927SOL     OW 2784   1.576   3.524   4.031
  927SOL    HW1 2785   1.665   3.570   4.034
  927SOL    HW2 2786   1.555   3.500   3.936
  928SOL     OW 2787   0.865   2.210   3.919
  928SOL    HW1 2788   0.924   2.273   3.870
  928SOL    HW2 2789   0.884   2.116   3.890
  929SOL     OW 2790   0.321   2.805   3.966
  929SOL    HW1 2791   0.403   2.844   3.924
  929SOL    HW2 2792   0.294   2.723   3.917
  930SOL     OW 2793   1.111   3.638   3.961
  930SOL    HW1 2794   1.051   3.576   4.011
  930SOL    HW2 2795   1.142   3.594   3.876
  931SOL     OW 2796   1.632   3.239   3.805
  931SOL    HW1 2797   1.600   3.333   3.795
  931SOL    HW2 2798   1.556   3.176   3.793
  932SOL     OW 2799   0.464   3.605   4.047
  932SOL    HW1 2800   0.497   3.644   4.133
  932SOL    HW2 2801   0.540   3.598   3.982
  933SOL     OW 2802   1.400   1.969   4.150
  933SOL    HW1 2803   1.376   1.932   4.060
  933SOL    HW2 2804   1.499   1.985   4.154
  934SOL     OW 2805   0.382   2.562   4.204
  934SOL    HW1 2806   0.427   2.472   4.201
  934SOL    HW2 2807   0.288   2.551   4.237
  935SOL     OW 2808   0.614   1.984   3.841
  935SOL    HW1 2809   0.712   1.962   3.848
  935SOL    HW2 2810   0.583   1.967   3.748
  936SOL     OW 2811   1.434   3.050   3.765
  936SOL    HW1 2812   1.466   2.974   3.822
  936SOL    HW2 2813   1.342   3.077   3.795
  937SOL     OW 2814   0.297   1.897   3.895
  937SOL    HW1 2815   0.346   1.981   3.874
  937SOL    HW2 2816   0.359   1.832   3.940
  938SOL     OW 2817   0.935   2.098   4.204
  938SOL    HW1 2818   0.887   2.139   4.126
  938SOL    HW2 2819   1.034   2.096   4.185
  939SOL     OW 2820   0.459   3.014   4.465
  939SOL    HW1 2821   0.388   2.987   4.530
  939SOL    HW2 2822   0.433   2.986   4.372
  940SOL     OW 2823   1.271   3.659   4.315
  940SOL    HW1 2824   1.315   3.723   4.251
  940SOL    HW2 2825   1.221   3.711   4.385
  941SOL     OW 2826   1.032   2.411   3.740
  941SOL    HW1 2827   0.991   2.493   3.701
  941SOL    HW2 2828   1.096   2.437   3.813
  942SOL     OW 2829   1.857   2.695   4.101
  942SOL    HW1 2830   1.899   2.631   4.165
  942SOL    HW2 2831   1.819   2.644   4.023
  943SOL     OW 2832   0.488   3.247   3.898
  943SOL    HW1 2833   0.401   3.232   3.945
  943SOL    HW2 2834   0.471   3.273   3.803
  944SOL     OW 2835   1.390   2.437   3.802
  944SOL    HW1 2836   1.336   2.416   3.883
  944SOL    HW2 2837   1.481   2.396   3.811
  945SOL     OW 2838   0.527   2.118   4.052
  945SOL    HW1 2839   0.554   2.059   3.977
  945SOL    HW2 2840   0.527   2.213   4.021
  946SOL     OW 2841   0.705   2.912   4.092
  946SOL    HW1 2842   0.691   2.919   4.191
  946SOL    HW2 2843   0.789   2.861   4.074
  947SOL     OW 2844   0.367   2.962   4.225
  947SOL    HW1 2845   0.360   3.045   4.169
  947SOL    HW2 2846   0.371   2.882   4.165
  948SOL     OW 2847   1.252   3.210   4.112
  948SOL    HW1 2848   1.302   3.287   4.152
  948SOL    HW2 2849   1.157   3.212   4.144
  949SOL     OW 2850   1.582   2.501   4.196
  949SOL    HW1 2851   1.551   2.562   4.269
  949SOL    HW2 2852   1.632   2.553   4.127
  950SOL     OW 2853   1.209   2.387   3.999
  950SOL    HW1 2854   1.222   2.303   4.053
  950SOL    HW2 2855   1.180   2.461   4.059
  951SOL     OW 2856   1.622   2.229   4.098
  951SOL    HW1 2857   1.624   2.153   4.162
  951SOL    HW2 2858   1.574   2.306   4.138
  952SOL     OW 2859   1.540   2.136   3.849
  952SOL    HW1 2860   1.479   2.061   3.872
  952SOL    HW2 2861   1.562   2.188   3.932
  953SOL     OW 2862   1.303   2.700   3.766
  953SOL    HW1 2863   1.337   2.607   3.781
  953SOL    HW2 2864   1.321   2.727   3.671
  954SOL     OW 2865   0.008   3.188   3.924
  954SOL    HW1 2866  -0.085   3.209   3.893
  954SOL    HW2 2867   0.018   3.089   3.937
  955SOL     OW 2868   0.815   2.434   4.049
  955SOL    HW1 2869   0.822   2.345   4.003
  955SOL    HW2 2870   0.721   2.468   4.041
  956SOL     OW 2871   0.473   2.362   3.915
  956SOL    HW1 2872   0.534   2.442   3.919
  956SOL    HW2 2873   0.378   2.393   3.922
  957SOL     OW 2874   1.302   2.717   4.033
  957SOL    HW1 2875   1.216   2.686   4.075
  957SOL    HW2 2876   1.298   2.703   3.934
  958SOL     OW 2877   1.726   1.997   4.247
  958SOL    HW1 2878   1.799   1.980   4.180
  958SOL    HW2 2879   1.695   1.910   4.285
  959SOL     OW 2880   1.388   3.435   4.201
  959SOL    HW1 2881   1.455   3.447   4.127
  959SOL    HW2 2882   1.348   3.524   4.224
  960SOL     OW 2883   0.672   3.478   3.878
  960SOL    HW1 2884   0.681   3.488   3.779
  960SOL    HW2 2885   0.632   3.389   3.899
  961SOL     OW 2886   1.194   3.474   3.755
  961SOL    HW1 2887   1.200   3.381   3.792
  961SOL    HW2 2888   1.135   3.474   3.675
  962SOL     OW 2889   0.916   2.772   4.015
  962SOL    HW1 2890   0.979   2.810   3.947
  962SOL    HW2 2891   0.956   2.689   4.054
  963SOL     OW 2892   1.504   3.469   3.768
  963SOL    HW1 2893   1.412   3.506   3.775
  963SOL    HW2 2894   1.542   3.489   3.678
  964SOL     OW 2895   0.590   3.349   4.215
  964SOL    HW1 2896   0.632   3.291   4.145
  964SOL    HW2 2897   0.546   3.428   4.171
  965SOL     OW 2898   0.255   3.210   4.014
  965SOL    HW1 2899   0.159   3.211   3.987
  965SOL    HW2 2900   0.267   3.263   4.098
  966SOL     OW 2901   0.075   2.207   3.757
  966SOL    HW1 2902  -0.017   2.179   3.728
  966SOL    HW2 2903   0.106   2.284   3.701
  967SOL     OW 2904   0.072   2.028   4.042
  967SOL    HW1 2905   0.055   2.111   3.988
  967SOL    HW2 2906   0.162   1.991   4.020
  968SOL     OW 2907   1.183   3.197   3.843
  968SOL    HW1 2908   1.084   3.186   3.845
  968SOL    HW2 2909   1.217   3.212   3.936
  969SOL     OW 2910   1.225   2.187   4.173
  969SOL    HW1 2911   1.290   2.113   4.162
  969SOL    HW2 2912   1.245   2.237   4.257
  970SOL     OW 2913   0.594   2.607   4.376
  970SOL    HW1 2914   0.644   2.692   4.357
  970SOL    HW2 2915   0.506   2.609   4.328
  971SOL     OW 2916   0.859   3.236   3.740
  971SOL    HW1 2917   0.813   3.251   3.828
  971SOL    HW2 2918   0.903   3.321   3.710
  972SOL     OW 2919   1.083   2.846   3.811
  972SOL    HW1 2920   1.060   2.899   3.729
  972SOL    HW2 2921   1.164   2.790   3.792
  973SOL     OW 2922   0.428   2.286   4.244
  973SOL    HW1 2923   0.458   2.214   4.182
  973SOL    HW2 2924   0.389   2.246   4.327
  974SOL     OW 2925   0.770   3.192   4.025
  974SOL    HW1 2926   0.724   3.105   4.042
  974SOL    HW2 2927   0.861   3.189   4.066
  975SOL     OW 2928   1.352   1.914   3.892
  975SOL    HW1 2929   1.387   1.873   3.808
  975SOL    HW2 2930   1.262   1.876   3.912
  976SOL     OW 2931   0.039   2.939   4.024
  976SOL    HW1 2932   0.138   2.928   4.015
  976SOL    HW2 2933  -0.001   2.853   4.056
  977SOL     OW 2934   0.875   3.508   4.061
  977SOL    HW1 2935   0.798   3.473   4.007
  977SOL    HW2 2936   0.843   3.579   4.123
  978SOL     OW 2937   0.225   3.999   0.996
  978SOL    HW1 2938   0.260   3.982   1.088
  978SOL    HW2 2939   0.137   3.954   0.984
  979SOL     OW 2940   0.019   4.092   0.647
  979SOL    HW1 2941  -0.063   4.135   0.686
  979SOL    HW2 2942  -0.009   4.019   0.584
  980SOL     OW 2943   1.755   4.331   0.231
  980SOL    HW1 2944   1.743   4.318   0.132
  980SOL    HW2 2945   1.725   4.250   0.280
  981SOL     OW 2946   0.438   4.116   1.499
  981SOL    HW1 2947   0.520   4.060   1.508
  981SOL    HW2 2948   0.357   4.058   1.503
  982SOL     OW 2949   1.603   4.171   0.737
  982SOL    HW1 2950   1.529   4.217   0.687
  982SOL    HW2 2951   1.654   4.239   0.790
  983SOL     OW 2952   1.594   3.838   1.480
  983SOL    HW1 2953   1.576   3.905   1.408
  983SOL    HW2 2954   1.591   3.884   1.569
  984SOL     OW 2955   0.122   4.367   0.563
  984SOL    HW1 2956   0.077   4.279   0.580
  984SOL    HW2 2957   0.121   4.421   0.647
  985SOL     OW 2958   0.809   3.728   0.502
  985SOL    HW1 2959   0.849   3.819   0.493
  985SOL    HW2 2960   0.709   3.736   0.508
  986SOL     OW 2961   0.317   3.975   1.801
  986SOL    HW1 2962   0.388   4.046   1.807
  986SOL    HW2 2963   0.229   4.014   1.829
  987SOL     OW 2964   1.281   4.069   0.944
  987SOL    HW1 2965   1.195   4.019   0.931
  987SOL    HW2 2966   1.343   4.015   1.000
  988SOL     OW 2967   1.394   4.193   1.674
  988SOL    HW1 2968   1.374   4.236   1.762
  988SOL    HW2 2969   1.472   4.131   1.683
  989SOL     OW 2970   0.991   4.134   1.242
  989SOL    HW1 2971   0.914   4.168   1.296
  989SOL    HW2 2972   0.957   4.083   1.163
  990SOL     OW 2973   0.076   4.535   0.789
  990SOL    HW1 2974   0.175   4.523   0.798
  990SOL    HW2 2975   0.052   4.630   0.810
  991SOL     OW 2976   0.865   4.072   0.195
  991SOL    HW1 2977   0.924   4.135   0.146
  991SOL    HW2 2978   0.884   3.978   0.166
  992SOL     OW 2979   1.719   4.309   1.831
  992SOL    HW1 2980   1.693   4.398   1.795
  992SOL    HW2 2981   1.717   4.241   1.758
  993SOL     OW 2982   0.550   3.920   0.885
  993SOL    HW1 2983   0.545   3.915   0.985
  993SOL    HW2 2984   0.552   4.016   0.856
  994SOL     OW 2985   0.202   4.009   1.498
  994SOL    HW1 2986   0.122   4.069   1.485
  994SOL    HW2 2987   0.192   3.960   1.584
  995SOL     OW 2988   1.400   3.831   0.426
  995SOL    HW1 2989   1.376   3.794   0.336
  995SOL    HW2 2990   1.499   3.847   0.430
  996SOL     OW 2991   1.547   3.946   1.729
  996SOL    HW1 2992   1.542   3.983   1.821
  996SOL    HW2 2993   1.475   3.877   1.717
  997SOL     OW 2994   0.614   3.846   0.117
  997SOL    HW1 2995   0.712   3.824   0.124
  997SOL    HW2 2996   0.583   3.829   0.024
  998SOL     OW 2997   0.781   3.988   1.749
  998SOL    HW1 2998   0.848   3.927   1.792
  998SOL    HW2 2999   0.708   4.007   1.814
  999SOL     OW 3000   1.351   4.314   1.433
  999SOL    HW1 3001   1.379   4.271   1.518
  999SOL    HW2 3002   1.376   4.410   1.434
 1000SOL     OW 3003   0.539   3.788   0.512
 1000SOL    HW1 3004   0.458   3.789   0.570
 1000SOL    HW2 3005   0.542   3.871   0.457
 1001SOL     OW 3006   0.297   3.759   0.171
 1001SOL    HW1 3007   0.346   3.843   0.150
 1001SOL    HW2 3008   0.359   3.694   0.216
 1002SOL     OW 3009   0.935   3.960   0.480
 1002SOL    HW1 3010   0.887   4.001   0.402
 1002SOL    HW2 3011   1.034   3.958   0.461
 1003SOL     OW 3012   0.078   4.280   1.386
 1003SOL    HW1 3013   0.170   4.279   1.345
 1003SOL    HW2 3014   0.072   4.354   1.453
 1004SOL     OW 3015   0.561   3.946   1.147
 1004SOL    HW1 3016   0.599   3.862   1.184
 1004SOL    HW2 3017   0.473   3.965   1.191
 1005SOL     OW 3018   1.017   3.763   0.753
 1005SOL    HW1 3019   0.945   3.768   0.684
 1005SOL    HW2 3020   0.993   3.694   0.822
 1006SOL     OW 3021   1.466   4.314   0.992
 1006SOL    HW1 3022   1.436   4.219   0.999
 1006SOL    HW2 3023   1.539   4.330   1.058
 1007SOL     OW 3024   0.527   3.980   0.328
 1007SOL    HW1 3025   0.554   3.921   0.253
 1007SOL    HW2 3026   0.527   4.075   0.297
 1008SOL     OW 3027   0.915   3.813   1.402
 1008SOL    HW1 3028   0.940   3.793   1.307
 1008SOL    HW2 3029   0.987   3.869   1.444
 1009SOL     OW 3030   1.274   4.110   1.262
 1009SOL    HW1 3031   1.295   4.184   1.326
 1009SOL    HW2 3032   1.185   4.127   1.219
 1010SOL     OW 3033   0.566   4.261   0.865
 1010SOL    HW1 3034   0.578   4.327   0.791
 1010SOL    HW2 3035   0.612   4.295   0.948
 1011SOL     OW 3036   1.013   3.829   1.770
 1011SOL    HW1 3037   1.019   3.914   1.718
 1011SOL    HW2 3038   1.045   3.753   1.713
 1012SOL     OW 3039   0.504   3.774   1.740
 1012SOL    HW1 3040   0.462   3.717   1.670
 1012SOL    HW2 3041   0.438   3.843   1.772
 1013SOL     OW 3042   0.307   3.937   1.231
 1013SOL    HW1 3043   0.284   3.974   1.321
 1013SOL    HW2 3044   0.277   3.842   1.225
 1014SOL     OW 3045   0.732   4.358   1.064
 1014SOL    HW1 3046   0.791   4.332   0.988
 1014SOL    HW2 3047   0.704   4.454   1.053
 1015SOL     OW 3048   0.307   3.787   0.618
 1015SOL    HW1 3049   0.296   3.881   0.651
 1015SOL    HW2 3050   0.302   3.724   0.695
 1016SOL     OW 3051   1.622   4.091   0.374
 1016SOL    HW1 3052   1.624   4.015   0.438
 1016SOL    HW2 3053   1.574   4.168   0.414
 1017SOL     OW 3054   1.540   3.998   0.125
 1017SOL    HW1 3055   1.479   3.923   0.148
 1017SOL    HW2 3056   1.562   4.050   0.208
 1018SOL     OW 3057   0.339   4.233   1.006
 1018SOL    HW1 3058   0.287   4.150   0.989
 1018SOL    HW2 3059   0.416   4.238   0.942
 1019SOL     OW 3060   1.138   4.104   1.678
 1019SOL    HW1 3061   1.093   4.167   1.742
 1019SOL    HW2 3062   1.231   4.135   1.661
 1020SOL     OW 3063   1.160   3.931   1.477
 1020SOL    HW1 3064   1.160   3.995   1.554
 1020SOL    HW2 3065   1.188   3.979   1.394
 1021SOL     OW 3066   0.040   4.268   1.114
 1021SOL    HW1 3067   0.125   4.235   1.073
 1021SOL    HW2 3068   0.053   4.283   1.212
 1022SOL     OW 3069   0.189   4.244   1.722
 1022SOL    HW1 3070   0.248   4.204   1.652
 1022SOL    HW2 3071   0.131   4.315   1.681
 1023SOL     OW 3072   0.815   4.296   0.325
 1023SOL    HW1 3073   0.822   4.207   0.279
 1023SOL    HW2 3074   0.721   4.330   0.317
 1024SOL     OW 3075   1.657   4.328   1.206
 1024SOL    HW1 3076   1.619   4.259   1.268
 1024SOL    HW2 3077   1.739   4.292   1.162
 1025SOL     OW 3078   0.671   4.188   1.269
 1025SOL    HW1 3079   0.637   4.099   1.239
 1025SOL    HW2 3080   0.697   4.242   1.189
 1026SOL     OW 3081   0.903   3.810   0.133
 1026SOL    HW1 3082   0.954   3.811   0.047
 1026SOL    HW2 3083   0.959   3.768   0.204
 1027SOL     OW 3084   1.726   3.859   0.523
 1027SOL    HW1 3085   1.799   3.842   0.456
 1027SOL    HW2 3086   1.695   3.772   0.561
 1028SOL     OW 3087   1.841   3.899   0.963
 1028SOL    HW1 3088   1.880   3.814   0.927
 1028SOL    HW2 3089   1.743   3.901   0.944
 1029SOL     OW 3090   0.263   4.050   0.720
 1029SOL    HW1 3091   0.184   4.101   0.686
 1029SOL    HW2 3092   0.254   4.035   0.818
 1030SOL     OW 3093   1.014   3.960   0.971
 1030SOL    HW1 3094   1.006   3.924   0.878
 1030SOL    HW2 3095   1.012   3.884   1.036
 1031SOL     OW 3096   1.709   4.109   1.381
 1031SOL    HW1 3097   1.782   4.178   1.385
 1031SOL    HW2 3098   1.737   4.034   1.322
 1032SOL     OW 3099   0.672   3.927   1.489
 1032SOL    HW1 3100   0.762   3.911   1.449
 1032SOL    HW2 3101   0.680   3.932   1.588
 1033SOL     OW 3102   0.075   4.069   0.033
 1033SOL    HW1 3103  -0.017   4.041   0.004
 1033SOL    HW2 3104   0.106   4.146  -0.023
 1034SOL     OW 3105   0.072   3.890   0.318
 1034SOL    HW1 3106   0.055   3.973   0.264
 1034SOL    HW2 3107   0.162   3.853   0.296
 1035SOL     OW 3108   0.716   4.289   1.708
 1035SOL    HW1 3109   0.735   4.354   1.782
 1035SOL    HW2 3110   0.776   4.209   1.717
 1036SOL     OW 3111   1.225   4.049   0.449
 1036SOL    HW1 3112   1.290   3.975   0.438
 1036SOL    HW2 3113   1.245   4.099   0.533
 1037SOL     OW 3114   1.777   4.066   1.642
 1037SOL    HW1 3115   1.760   4.097   1.548
 1037SOL    HW2 3116   1.693   4.029   1.680
 1038SOL     OW 3117   1.824   3.916   1.227
 1038SOL    HW1 3118   1.820   3.826   1.271
 1038SOL    HW2 3119   1.827   3.905   1.128
 1039SOL     OW 3120   0.428   4.148   0.520
 1039SOL    HW1 3121   0.458   4.076   0.458
 1039SOL    HW2 3122   0.389   4.108   0.603
 1040SOL     OW 3123   0.317   4.271   1.280
 1040SOL    HW1 3124   0.355   4.212   1.352
 1040SOL    HW2 3125   0.357   4.245   1.192
 1041SOL     OW 3126   1.424   3.938   1.112
 1041SOL    HW1 3127   1.476   3.873   1.167
 1041SOL    HW2 3128   1.375   4.001   1.173
 1042SOL     OW 3129   1.001   3.758   1.154
 1042SOL    HW1 3130   0.938   3.686   1.123
 1042SOL    HW2 3131   1.094   3.722   1.154
 1043SOL     OW 3132   1.352   3.776   0.168
 1043SOL    HW1 3133   1.387   3.735   0.084
 1043SOL    HW2 3134   1.262   3.738   0.188
 1044SOL     OW 3135   1.300   4.177   0.691
 1044SOL    HW1 3136   1.241   4.257   0.695
 1044SOL    HW2 3137   1.315   4.142   0.784
 1045SOL     OW 3138   1.593   3.945   0.882
 1045SOL    HW1 3139   1.509   3.944   0.936
 1045SOL    HW2 3140   1.595   4.028   0.826
 1046SOL     OW 3141   0.225   3.999   2.858
 1046SOL    HW1 3142   0.260   3.982   2.950
 1046SOL    HW2 3143   0.137   3.954   2.846
 1047SOL     OW 3144   0.019   4.092   2.509
 1047SOL    HW1 3145  -0.063   4.135   2.548
 1047SOL    HW2 3146  -0.009   4.019   2.446
 1048SOL     OW 3147   1.755   4.331   2.093
 1048SOL    HW1 3148   1.743   4.318   1.994
 1048SOL    HW2 3149   1.725   4.250   2.142
 1049SOL     OW 3150   0.438   4.116   3.361
 1049SOL    HW1 3151   0.520   4.060   3.370
 1049SOL    HW2 3152   0.357   4.058   3.365
 1050SOL     OW 3153   1.603   4.171   2.599
 1050SOL    HW1 3154   1.529   4.217   2.549
 1050SOL    HW2 3155   1.654   4.239   2.652
 1051SOL     OW 3156   1.594   3.838   3.342
 1051SOL    HW1 3157   1.576   3.905   3.270
 1051SOL    HW2 3158   1.591   3.884   3.431
 1052SOL     OW 3159   0.122   4.367   2.425
 1052SOL    HW1 3160   0.077   4.279   2.442
 1052SOL    HW2 3161   0.121   4.421   2.509
 1053SOL     OW 3162   0.809   3.728   2.364
 1053SOL    HW1 3163   0.849   3.819   2.355
 1053SOL    HW2 3164   0.709   3.736   2.370
 1054SOL     OW 3165   0.317   3.975   3.663
 1054SOL    HW1 3166   0.388   4.046   3.669
 1054SOL    HW2 3167   0.229   4.014   3.691
 1055SOL     OW 3168   1.281   4.069   2.806
 1055SOL    HW1 3169   1.195   4.019   2.793
 1055SOL    HW2 3170   1.343   4.015   2.862
 1056SOL     OW 3171   1.394   4.193   3.536
 1056SOL    HW1 3172   1.374   4.236   3.624
 1056SOL    HW2 3173   1.472   4.131   3.545
 1057SOL     OW 3174   0.991   4.134   3.104
 1057SOL    HW1 3175   0.914   4.168   3.158
 1057SOL    HW2 3176   0.957   4.083   3.025
 1058SOL     OW 3177   0.076   4.535   2.651
 1058SOL    HW1 3178   0.175   4.523   2.660
 1058SOL    HW2 3179   0.052   4.630   2.672
 1059SOL     OW 3180   0.865   4.072   2.057
 1059SOL    HW1 3181   0.924   4.135   2.008
 1059SOL    HW2 3182   0.884   3.978   2.028
 1060SOL     OW 3183   1.719   4.309   3.693
 1060SOL    HW1 3184   1.693   4.398   3.657
 1060SOL    HW2 3185   1.717   4.241   3.620
 1061SOL     OW 3186   0.550   3.920   2.747
 1061SOL    HW1 3187   0.545   3.915   2.847
 1061SOL    HW2 3188   0.552   4.016   2.718
 1062SOL     OW 3189   0.202   4.009   3.360
 1062SOL    HW1 3190   0.122   4.069   3.347
 1062SOL    HW2 3191   0.192   3.960   3.446
 1063SOL     OW 3192   1.400   3.831   2.288
 1063SOL    HW1 3193   1.376   3.794   2.198
 1063SOL    HW2 3194   1.499   3.847   2.292
 1064SOL     OW 3195   1.547   3.946   3.591
 1064SOL    HW1 3196   1.542   3.983   3.683
 1064SOL    HW2 3197   1.475   3.877   3.579
 1065SOL     OW 3198   0.614   3.846   1.979
 1065SOL    HW1 3199   0.712   3.824   1.986
 1065SOL    HW2 3200   0.583   3.829   1.886
 1066SOL     OW 3201   0.781   3.988   3.611
 1066SOL    HW1 3202   0.848   3.927   3.654
 1066SOL    HW2 3203   0.708   4.007   3.676
 1067SOL     OW 3204   1.351   4.314   3.295
 1067SOL    HW1 3205   1.379   4.271   3.380
 1067SOL    HW2 3206   1.376   4.410   3.296
 1068SOL     OW 3207   0.539   3.788   2.374
 1068SOL    HW1 3208   0.458   3.789   2.432
 1068SOL    HW2 3209   0.542   3.871   2.319
 1069SOL     OW 3210   0.297   3.759   2.033
 1069SOL    HW1 3211   0.346   3.843   2.012
 1069SOL    HW2 3212   0.359   3.694   2.078
 1070SOL     OW 3213   0.935   3.960   2.342
 1070SOL    HW1 3214   0.887   4.001   2.264
 1070SOL    HW2 3215   1.034   3.958   2.323
 1071SOL     OW 3216   0.078   4.280   3.248
 1071SOL    HW1 3217   0.170   4.279   3.207
 1071SOL    HW2 3218   0.072   4.354   3.315
 1072SOL     OW 3219   0.561   3.946   3.009
 1072SOL    HW1 3220   0.599   3.862   3.046
 1072SOL    HW2 3221   0.473   3.965   3.053
 1073SOL     OW 3222   1.017   3.763   2.615
 1073SOL    HW1 3223   0.945   3.768   2.546
 1073SOL    HW2 3224   0.993   3.694   2.684
 1074SOL     OW 3225   1.466   4.314   2.854
 1074SOL    HW1 3226   1.436   4.219   2.861
 1074SOL    HW2 3227   1.539   4.330   2.920
 1075SOL     OW 3228   0.527   3.980   2.190
 1075SOL    HW1 3229   0.554   3.921   2.115
 1075SOL    HW2 3230   0.527   4.075   2.159
 1076SOL     OW 3231   0.915   3.813   3.264
 1076SOL    HW1 3232   0.940   3.793   3.169
 1076SOL    HW2 3233   0.987   3.869   3.306
 1077SOL     OW 3234   1.274   4.110   3.124
 1077SOL    HW1 3235   1.295   4.184   3.188
 1077SOL    HW2 3236   1.185   4.127   3.081
 1078SOL     OW 3237   0.566   4.261   2.727
 1078SOL    HW1 3238   0.578   4.327   2.653
 1078SOL    HW2 3239   0.612   4.295   2.810
 1079SOL     OW 3240   1.013   3.829   3.632
 1079SOL    HW1 3241   1.019   3.914   3.580
 1079SOL    HW2 3242   1.045   3.753   3.575
 1080SOL     OW 3243   0.504   3.774   3.602
 1080SOL    HW1 3244   0.462   3.717   3.532
 1080SOL    HW2 3245   0.438   3.843   3.634
 1081SOL     OW 3246   0.307   3.937   3.093
 1081SOL    HW1 3247   0.284   3.974   3.183
 1081SOL    HW2 3248   0.277   3.842   3.087
 1082SOL     OW 3249   0.732   4.358   2.926
 1082SOL    HW1 3250   0.791   4.332   2.850
 1082SOL    HW2 3251   0.704   4.454   2.915
 1083SOL     OW 3252   0.307   3.787   2.480
 1083SOL    HW1 3253   0.296   3.881   2.513
 1083SOL    HW2 3254   0.302   3.724   2.557
 1084SOL     OW 3255   1.622   4.091   2.236
 1084SOL    HW1 3256   1.624   4.015   2.300
 1084SOL    HW2 3257   1.574   4.168   2.276
 1085SOL     OW 3258   1.540   3.998   1.987
 1085SOL    HW1 3259   1.479   3.923   2.010
 1085SOL    HW2 3260   1.562   4.050   2.070
 1086SOL     OW 3261   0.339   4.233   2.868
 1086SOL    HW1 3262   0.287   4.150   2.851
 1086SOL    HW2 3263   0.416   4.238   2.804
 1087SOL     OW 3264   1.138   4.104   3.540
 1087SOL    HW1 3265   1.093   4.167   3.604
 1087SOL    HW2 3266   1.231   4.135   3.523
 1088SOL     OW 3267   1.160   3.931   3.339
 1088SOL    HW1 3268   1.160   3.995   3.416
 1088SOL    HW2 3269   1.188   3.979   3.256
 1089SOL     OW 3270   0.040   4.268   2.976
 1089SOL    HW1 3271   0.125   4.235   2.935
 1089SOL    HW2 3272   0.053   4.283   3.074
 1090SOL     OW 3273   0.189   4.244   3.584
 1090SOL    HW1 3274   0.248   4.204   3.514
 1090SOL    HW2 3275   0.131   4.315   3.543
 1091SOL     OW 3276   0.815   4.296   2.187
 1091SOL    HW1 3277   0.822   4.207   2.141
 1091SOL    HW2 3278   0.721   4.330   2.179
 1092SOL     OW 3279   1.657   4.328   3.068
 1092SOL    HW1 3280   1.619   4.259   3.130
 1092SOL    HW2 3281   1.739   4.292   3.024
 1093SOL     OW 3282   0.671   4.188   3.131
 1093SOL    HW1 3283   0.637   4.099   3.101
 1093SOL    HW2 3284   0.697   4.242   3.051
 1094SOL     OW 3285   1.726   3.859   2.385
 1094SOL    HW1 3286   1.799   3.842   2.318
 1094SOL    HW2 3287   1.695   3.772   2.423
 1095SOL     OW 3288   1.841   3.899   2.825
 1095SOL    HW1 3289   1.880   3.814   2.789
 1095SOL    HW2 3290   1.743   3.901   2.806
 1096SOL     OW 3291   0.263   4.050   2.582
 1096SOL    HW1 3292   0.184   4.101   2.548
 1096SOL    HW2 3293   0.254   4.035   2.680
 1097SOL     OW 3294   1.014   3.960   2.833
 1097SOL    HW1 3295   1.006   3.924   2.740
 1097SOL    HW2 3296   1.012   3.884   2.898
 1098SOL     OW 3297   1.709   4.109   3.243
 1098SOL    HW1 3298   1.782   4.178   3.247
 1098SOL    HW2 3299   1.737   4.034   3.184
 1099SOL     OW 3300   0.672   3.927   3.351
 1099SOL    HW1 3301   0.762   3.911   3.311
 1099SOL    HW2 3302   0.680   3.932   3.450
 1100SOL     OW 3303   0.075   4.069   1.895
 1100SOL    HW1 3304  -0.017   4.041   1.866
 1100SOL    HW2 3305   0.106   4.146   1.839
 1101SOL     OW 3306   0.072   3.890   2.180
 1101SOL    HW1 3307   0.055   3.973   2.126
 1101SOL    HW2 3308   0.162   3.853   2.158
 1102SOL     OW 3309   0.716   4.289   3.570
 1102SOL    HW1 3310   0.735   4.354   3.644
 1102SOL    HW2 3311   0.776   4.209   3.579
 1103SOL     OW 3312   1.225   4.049   2.311
 1103SOL    HW1 3313   1.290   3.975   2.300
 1103SOL    HW2 3314   1.245   4.099   2.395
 1104SOL     OW 3315   1.777   4.066   3.504
 1104SOL    HW1 3316   1.760   4.097   3.410
 1104SOL    HW2 3317   1.693   4.029   3.542
 1105SOL     OW 3318   1.824   3.916   3.089
 1105SOL    HW1 3319   1.820   3.826   3.133
 1105SOL    HW2 3320   1.827   3.905   2.990
 1106SOL     OW 3321   0.428   4.148   2.382
 1106SOL    HW1 3322   0.458   4.076   2.320
 1106SOL    HW2 3323   0.389   4.108   2.465
 1107SOL     OW 3324   0.317   4.271   3.142
 1107SOL    HW1 3325   0.355   4.212   3.214
 1107SOL    HW2 3326   0.357   4.245   3.054
 1108SOL     OW 3327   1.424   3.938   2.974
 1108SOL    HW1 3328   1.476   3.873   3.029
 1108SOL    HW2 3329   1.375   4.001   3.035
 1109SOL     OW 3330   1.001   3.758   3.016
 1109SOL    HW1 3331   0.938   3.686   2.985
 1109SOL    HW2 3332   1.094   3.722   3.016
 1110SOL     OW 3333   1.352   3.776   2.030
 1110SOL    HW1 3334   1.387   3.735   1.946
 1110SOL    HW2 3335   1.262   3.738   2.050
 1111SOL     OW 3336   1.300   4.177   2.553
 1111SOL    HW1 3337   1.241   4.257   2.557
 1111SOL    HW2 3338   1.315   4.142   2.646
 1112SOL     OW 3339   1.593   3.945   2.744
 1112SOL    HW1 3340   1.509   3.944   2.798
 1112SOL    HW2 3341   1.595   4.028   2.688
 1113SOL     OW 3342   1.135   4.427   4.441
 1113SOL    HW1 3343   1.192   4.505   4.416
 1113SOL    HW2 3344   1.075   4.453   4.517
 1114SOL     OW 3345   1.755   4.331   3.955
 1114SOL    HW1 3346   1.743   4.318   3.856
 1114SOL    HW2 3347   1.725   4.250   4.004
 1115SOL     OW 3348   0.809   3.728   4.226
 1115SOL    HW1 3349   0.849   3.819   4.217
 1115SOL    HW2 3350   0.709   3.736   4.232
 1116SOL     OW 3351   0.865   4.072   3.919
 1116SOL    HW1 3352   0.924   4.135   3.870
 1116SOL    HW2 3353   0.884   3.978   3.890
 1117SOL     OW 3354   1.400   3.831   4.150
 1117SOL    HW1 3355   1.376   3.794   4.060
 1117SOL    HW2 3356   1.499   3.847   4.154
 1118SOL     OW 3357   0.382   4.424   4.204
 1118SOL    HW1 3358   0.427   4.334   4.201
 1118SOL    HW2 3359   0.288   4.413   4.237
 1119SOL     OW 3360   0.614   3.846   3.841
 1119SOL    HW1 3361   0.712   3.824   3.848
 1119SOL    HW2 3362   0.583   3.829   3.748
 1120SOL     OW 3363   0.297   3.759   3.895
 1120SOL    HW1 3364   0.346   3.843   3.874
 1120SOL    HW2 3365   0.359   3.694   3.940
 1121SOL     OW 3366   0.935   3.960   4.204
 1121SOL    HW1 3367   0.887   4.001   4.126
 1121SOL    HW2 3368   1.034   3.958   4.185
 1122SOL     OW 3369   0.527   3.980   4.052
 1122SOL    HW1 3370   0.554   3.921   3.977
 1122SOL    HW2 3371   0.527   4.075   4.021
 1123SOL     OW 3372   1.622   4.091   4.098
 1123SOL    HW1 3373   1.624   4.015   4.162
 1123SOL    HW2 3374   1.574   4.168   4.138
 1124SOL     OW 3375   1.540   3.998   3.849
 1124SOL    HW1 3376   1.479   3.923   3.872
 1124SOL    HW2 3377   1.562   4.050   3.932
 1125SOL     OW 3378   0.815   4.296   4.049
 1125SOL    HW1 3379   0.822   4.207   4.003
 1125SOL    HW2 3380   0.721   4.330   4.041
 1126SOL     OW 3381   1.726   3.859   4.247
 1126SOL    HW1 3382   1.799   3.842   4.180
 1126SOL    HW2 3383   1.695   3.772   4.285
 1127SOL     OW 3384   0.075   4.069   3.757
 1127SOL    HW1 3385  -0.017   4.041   3.728
 1127SOL    HW2 3386   0.106   4.146   3.701
 1128SOL     OW 3387   0.072   3.890   4.042
 1128SOL    HW1 3388   0.055   3.973   3.988
 1128SOL    HW2 3389   0.162   3.853   4.020
 1129SOL     OW 3390   1.225   4.049   4.173
 1129SOL    HW1 3391   1.290   3.975   4.162
 1129SOL    HW2 3392   1.245   4.099   4.257
 1130SOL     OW 3393   0.428   4.148   4.244
 1130SOL    HW1 3394   0.458   4.076   4.182
 1130SOL    HW2 3395   0.389   4.108   4.327
 1131SOL     OW 3396   1.352   3.776   3.892
 1131SOL    HW1 3397   1.387   3.735   3.808
 1131SOL    HW2 3398   1.262   3.738   3.912
 1132SOL     OW 3399   2.092   0.628   0.113
 1132SOL    HW1 3400   1.999   0.626   0.150
 1132SOL    HW2 3401   2.093   0.589   0.021
 1133SOL     OW 3402   2.087   0.275   0.996
 1133SOL    HW1 3403   2.122   0.258   1.088
 1133SOL    HW2 3404   1.999   0.230   0.984
 1134SOL     OW 3405   1.881   0.368   0.647
 1134SOL    HW1 3406   1.799   0.411   0.686
 1134SOL    HW2 3407   1.853   0.295   0.584
 1135SOL     OW 3408   2.431   1.275   1.165
 1135SOL    HW1 3409   2.338   1.268   1.128
 1135SOL    HW2 3410   2.442   1.364   1.209
 1136SOL     OW 3411   3.417   1.511   0.703
 1136SOL    HW1 3412   3.360   1.495   0.784
 1136SOL    HW2 3413   3.358   1.521   0.623
 1137SOL     OW 3414   2.997   0.703   0.717
 1137SOL    HW1 3415   3.054   0.781   0.692
 1137SOL    HW2 3416   2.937   0.729   0.793
 1138SOL     OW 3417   3.617   0.607   0.231
 1138SOL    HW1 3418   3.605   0.594   0.132
 1138SOL    HW2 3419   3.587   0.526   0.280
 1139SOL     OW 3420   2.630   1.144   1.023
 1139SOL    HW1 3421   2.552   1.161   1.083
 1139SOL    HW2 3422   2.664   1.231   0.987
 1140SOL     OW 3423   2.712   0.798   1.823
 1140SOL    HW1 3424   2.708   0.874   1.888
 1140SOL    HW2 3425   2.734   0.834   1.732
 1141SOL     OW 3426   2.547   1.012   0.665
 1141SOL    HW1 3427   2.616   0.996   0.735
 1141SOL    HW2 3428   2.474   1.069   0.703
 1142SOL     OW 3429   2.548   1.161   1.803
 1142SOL    HW1 3430   2.608   1.240   1.817
 1142SOL    HW2 3431   2.462   1.192   1.762
 1143SOL     OW 3432   2.197   1.435   1.061
 1143SOL    HW1 3433   2.119   1.404   1.008
 1143SOL    HW2 3434   2.255   1.493   1.004
 1144SOL     OW 3435   3.322   1.505   1.339
 1144SOL    HW1 3436   3.346   1.599   1.365
 1144SOL    HW2 3437   3.306   1.451   1.421
 1145SOL     OW 3438   2.300   0.392   1.499
 1145SOL    HW1 3439   2.382   0.336   1.508
 1145SOL    HW2 3440   2.219   0.334   1.503
 1146SOL     OW 3441   3.465   0.447   0.737
 1146SOL    HW1 3442   3.391   0.493   0.687
 1146SOL    HW2 3443   3.516   0.515   0.790
 1147SOL     OW 3444   2.093   1.713   0.483
 1147SOL    HW1 3445   2.127   1.790   0.537
 1147SOL    HW2 3446   2.137   1.713   0.393
 1148SOL     OW 3447   2.989   1.341   1.690
 1148SOL    HW1 3448   3.036   1.341   1.778
 1148SOL    HW2 3449   2.941   1.254   1.679
 1149SOL     OW 3450   2.092   1.434   0.538
 1149SOL    HW1 3451   2.066   1.530   0.538
 1149SOL    HW2 3452   2.021   1.380   0.583
 1150SOL     OW 3453   2.102   1.091   0.886
 1150SOL    HW1 3454   2.116   1.007   0.938
 1150SOL    HW2 3455   2.047   1.155   0.941
 1151SOL     OW 3456   2.482   1.786   1.439
 1151SOL    HW1 3457   2.390   1.769   1.474
 1151SOL    HW2 3458   2.510   1.878   1.465
 1152SOL     OW 3459   2.468   0.964   0.123
 1152SOL    HW1 3460   2.475   1.048   0.069
 1152SOL    HW2 3461   2.514   0.977   0.211
 1153SOL     OW 3462   3.456   0.114   1.480
 1153SOL    HW1 3463   3.438   0.181   1.408
 1153SOL    HW2 3464   3.453   0.160   1.569
 1154SOL     OW 3465   1.984   0.643   0.563
 1154SOL    HW1 3466   1.939   0.555   0.580
 1154SOL    HW2 3467   1.983   0.697   0.647
 1155SOL     OW 3468   3.704   1.767   0.359
 1155SOL    HW1 3469   3.758   1.738   0.439
 1155SOL    HW2 3470   3.734   1.857   0.330
 1156SOL     OW 3471   1.889   1.596   0.117
 1156SOL    HW1 3472   1.870   1.500   0.138
 1156SOL    HW2 3473   1.856   1.654   0.192
 1157SOL     OW 3474   3.551   0.922   0.612
 1157SOL    HW1 3475   3.646   0.893   0.620
 1157SOL    HW2 3476   3.543   0.987   0.537
 1158SOL     OW 3477   3.503   1.108   0.432
 1158SOL    HW1 3478   3.589   1.110   0.380
 1158SOL    HW2 3479   3.517   1.155   0.520
 1159SOL     OW 3480   1.975   0.737   1.597
 1159SOL    HW1 3481   2.063   0.724   1.642
 1159SOL    HW2 3482   1.962   0.834   1.575
 1160SOL     OW 3483   2.475   1.365   0.726
 1160SOL    HW1 3484   2.426   1.278   0.735
 1160SOL    HW2 3485   2.452   1.408   0.639
 1161SOL     OW 3486   3.155   1.228   1.423
 1161SOL    HW1 3487   3.192   1.155   1.365
 1161SOL    HW2 3488   3.207   1.233   1.508
 1162SOL     OW 3489   2.671   0.004   0.502
 1162SOL    HW1 3490   2.711   0.095   0.493
 1162SOL    HW2 3491   2.571   0.012   0.508
 1163SOL     OW 3492   2.059   0.976   1.264
 1163SOL    HW1 3493   2.148   0.931   1.250
 1163SOL    HW2 3494   1.986   0.911   1.245
 1164SOL     OW 3495   3.387   0.999   0.190
 1164SOL    HW1 3496   3.324   0.923   0.203
 1164SOL    HW2 3497   3.435   1.017   0.276
 1165SOL     OW 3498   3.049   1.792   1.616
 1165SOL    HW1 3499   3.073   1.852   1.540
 1165SOL    HW2 3500   3.056   1.697   1.586
 1166SOL     OW 3501   2.179   0.251   1.801
 1166SOL    HW1 3502   2.250   0.322   1.807
 1166SOL    HW2 3503   2.091   0.290   1.829
 1167SOL     OW 3504   3.328   1.417   0.953
 1167SOL    HW1 3505   3.269   1.423   1.033
 1167SOL    HW2 3506   3.313   1.329   0.907
 1168SOL     OW 3507   3.529   1.714   0.572
 1168SOL    HW1 3508   3.488   1.691   0.484
 1168SOL    HW2 3509   3.511   1.640   0.637
 1169SOL     OW 3510   2.460   0.729   0.270
 1169SOL    HW1 3511   2.484   0.798   0.202
 1169SOL    HW2 3512   2.382   0.762   0.324
 1170SOL     OW 3513   3.143   0.345   0.944
 1170SOL    HW1 3514   3.057   0.295   0.931
 1170SOL    HW2 3515   3.205   0.291   1.000
 1171SOL     OW 3516   3.438   1.662   0.307
 1171SOL    HW1 3517   3.527   1.708   0.310
 1171SOL    HW2 3518   3.417   1.638   0.212
 1172SOL     OW 3519   2.669   0.605   1.465
 1172SOL    HW1 3520   2.622   0.602   1.554
 1172SOL    HW2 3521   2.618   0.550   1.399
 1173SOL     OW 3522   3.256   0.469   1.674
 1173SOL    HW1 3523   3.236   0.512   1.762
 1173SOL    HW2 3524   3.334   0.407   1.683
 1174SOL     OW 3525   2.835   0.890   1.572
 1174SOL    HW1 3526   2.881   0.806   1.543
 1174SOL    HW2 3527   2.779   0.924   1.497
 1175SOL     OW 3528   2.853   0.410   1.242
 1175SOL    HW1 3529   2.776   0.444   1.296
 1175SOL    HW2 3530   2.819   0.359   1.163
 1176SOL     OW 3531   2.903   0.701   0.429
 1176SOL    HW1 3532   2.929   0.697   0.525
 1176SOL    HW2 3533   2.818   0.650   0.415
 1177SOL     OW 3534   1.938   0.811   0.789
 1177SOL    HW1 3535   2.037   0.799   0.798
 1177SOL    HW2 3536   1.914   0.906   0.810
 1178SOL     OW 3537   1.992   1.821   1.571
 1178SOL    HW1 3538   1.982   1.806   1.670
 1178SOL    HW2 3539   1.906   1.857   1.535
 1179SOL     OW 3540   2.727   0.348   0.195
 1179SOL    HW1 3541   2.786   0.411   0.146
 1179SOL    HW2 3542   2.746   0.254   0.166
 1180SOL     OW 3543   3.581   0.585   1.831
 1180SOL    HW1 3544   3.555   0.674   1.795
 1180SOL    HW2 3545   3.579   0.517   1.758
 1181SOL     OW 3546   3.224   1.144   0.545
 1181SOL    HW1 3547   3.307   1.115   0.497
 1181SOL    HW2 3548   3.175   1.211   0.489
 1182SOL     OW 3549   2.412   0.196   0.885
 1182SOL    HW1 3550   2.407   0.191   0.985
 1182SOL    HW2 3551   2.414   0.292   0.856
 1183SOL     OW 3552   2.870   1.456   0.477
 1183SOL    HW1 3553   2.824   1.528   0.425
 1183SOL    HW2 3554   2.866   1.476   0.575
 1184SOL     OW 3555   2.213   1.801   0.853
 1184SOL    HW1 3556   2.263   1.715   0.859
 1184SOL    HW2 3557   2.278   1.878   0.850
 1185SOL     OW 3558   3.657   1.066   0.873
 1185SOL    HW1 3559   3.595   1.051   0.797
 1185SOL    HW2 3560   3.605   1.077   0.958
 1186SOL     OW 3561   3.089   1.550   1.506
 1186SOL    HW1 3562   3.095   1.473   1.570
 1186SOL    HW2 3563   3.037   1.524   1.426
 1187SOL     OW 3564   2.183   0.943   0.242
 1187SOL    HW1 3565   2.265   0.982   0.200
 1187SOL    HW2 3566   2.156   0.861   0.193
 1188SOL     OW 3567   3.320   0.735   0.728
 1188SOL    HW1 3568   3.315   0.670   0.803
 1188SOL    HW2 3569   3.400   0.794   0.741
 1189SOL     OW 3570   2.323   1.266   1.727
 1189SOL    HW1 3571   2.273   1.267   1.641
 1189SOL    HW2 3572   2.260   1.248   1.803
 1190SOL     OW 3573   2.973   1.776   0.237
 1190SOL    HW1 3574   2.913   1.714   0.287
 1190SOL    HW2 3575   3.004   1.732   0.152
 1191SOL     OW 3576   2.064   0.285   1.498
 1191SOL    HW1 3577   1.984   0.345   1.485
 1191SOL    HW2 3578   2.054   0.236   1.584
 1192SOL     OW 3579   3.494   1.377   0.081
 1192SOL    HW1 3580   3.462   1.471   0.071
 1192SOL    HW2 3581   3.418   1.314   0.069
 1193SOL     OW 3582   2.326   1.743   0.323
 1193SOL    HW1 3583   2.359   1.782   0.409
 1193SOL    HW2 3584   2.402   1.736   0.258
 1194SOL     OW 3585   3.262   0.107   0.426
 1194SOL    HW1 3586   3.238   0.070   0.336
 1194SOL    HW2 3587   3.361   0.123   0.430
 1195SOL     OW 3588   2.111   1.785   1.241
 1195SOL    HW1 3589   2.168   1.720   1.291
 1195SOL    HW2 3590   2.095   1.752   1.148
 1196SOL     OW 3591   2.802   1.698   0.904
 1196SOL    HW1 3592   2.882   1.641   0.925
 1196SOL    HW2 3593   2.753   1.658   0.827
 1197SOL     OW 3594   2.244   0.700   0.480
 1197SOL    HW1 3595   2.289   0.610   0.477
 1197SOL    HW2 3596   2.150   0.689   0.513
 1198SOL     OW 3597   3.409   0.222   1.729
 1198SOL    HW1 3598   3.404   0.259   1.821
 1198SOL    HW2 3599   3.337   0.153   1.717
 1199SOL     OW 3600   2.476   0.122   0.117
 1199SOL    HW1 3601   2.574   0.100   0.124
 1199SOL    HW2 3602   2.445   0.105   0.024
 1200SOL     OW 3603   2.643   0.264   1.749
 1200SOL    HW1 3604   2.710   0.203   1.792
 1200SOL    HW2 3605   2.570   0.283   1.814
 1201SOL     OW 3606   2.750   1.514   1.195
 1201SOL    HW1 3607   2.727   1.489   1.101
 1201SOL    HW2 3608   2.811   1.445   1.234
 1202SOL     OW 3609   3.213   0.590   1.433
 1202SOL    HW1 3610   3.241   0.547   1.518
 1202SOL    HW2 3611   3.238   0.686   1.434
 1203SOL     OW 3612   2.665   1.402   0.924
 1203SOL    HW1 3613   2.755   1.416   0.882
 1203SOL    HW2 3614   2.594   1.404   0.853
 1204SOL     OW 3615   2.784   0.503   0.899
 1204SOL    HW1 3616   2.759   0.494   0.803
 1204SOL    HW2 3617   2.832   0.421   0.930
 1205SOL     OW 3618   2.401   0.064   0.512
 1205SOL    HW1 3619   2.320   0.065   0.570
 1205SOL    HW2 3620   2.404   0.147   0.457
 1206SOL     OW 3621   3.296   1.188   0.041
 1206SOL    HW1 3622   3.328   1.112   0.098
 1206SOL    HW2 3623   3.204   1.215   0.071
 1207SOL     OW 3624   2.159   0.035   0.171
 1207SOL    HW1 3625   2.208   0.119   0.150
 1207SOL    HW2 3626   2.221  -0.030   0.216
 1208SOL     OW 3627   2.797   0.236   0.480
 1208SOL    HW1 3628   2.749   0.277   0.402
 1208SOL    HW2 3629   2.896   0.234   0.461
 1209SOL     OW 3630   2.938   0.683   1.464
 1209SOL    HW1 3631   2.858   0.622   1.467
 1209SOL    HW2 3632   3.019   0.630   1.440
 1210SOL     OW 3633   3.089   1.570   0.793
 1210SOL    HW1 3634   3.110   1.644   0.728
 1210SOL    HW2 3635   3.157   1.570   0.866
 1211SOL     OW 3636   2.321   1.152   0.741
 1211SOL    HW1 3637   2.250   1.125   0.806
 1211SOL    HW2 3638   2.295   1.124   0.648
 1212SOL     OW 3639   3.133   1.797   0.591
 1212SOL    HW1 3640   3.177   1.861   0.527
 1212SOL    HW2 3641   3.083   1.849   0.661
 1213SOL     OW 3642   2.894   0.549   0.016
 1213SOL    HW1 3643   2.853   0.631  -0.023
 1213SOL    HW2 3644   2.958   0.575   0.089
 1214SOL     OW 3645   1.940   0.556   1.386
 1214SOL    HW1 3646   2.032   0.555   1.345
 1214SOL    HW2 3647   1.934   0.630   1.453
 1215SOL     OW 3648   2.423   0.222   1.147
 1215SOL    HW1 3649   2.461   0.138   1.184
 1215SOL    HW2 3650   2.335   0.241   1.191
 1216SOL     OW 3651   2.728   0.454   0.642
 1216SOL    HW1 3652   2.696   0.526   0.580
 1216SOL    HW2 3653   2.752   0.373   0.589
 1217SOL     OW 3654   2.879   0.039   0.753
 1217SOL    HW1 3655   2.807   0.044   0.684
 1217SOL    HW2 3656   2.855  -0.030   0.822
 1218SOL     OW 3657   3.291   1.173   0.867
 1218SOL    HW1 3658   3.236   1.089   0.860
 1218SOL    HW2 3659   3.317   1.202   0.775
 1219SOL     OW 3660   3.328   0.590   0.992
 1219SOL    HW1 3661   3.298   0.495   0.999
 1219SOL    HW2 3662   3.401   0.606   1.058
 1220SOL     OW 3663   3.719   0.833   0.377
 1220SOL    HW1 3664   3.761   0.769   0.441
 1220SOL    HW2 3665   3.681   0.782   0.299
 1221SOL     OW 3666   2.350   1.385   0.174
 1221SOL    HW1 3667   2.263   1.370   0.221
 1221SOL    HW2 3668   2.333   1.411   0.079
 1222SOL     OW 3669   3.526   1.280   0.657
 1222SOL    HW1 3670   3.625   1.288   0.671
 1222SOL    HW2 3671   3.481   1.364   0.688
 1223SOL     OW 3672   3.252   0.575   0.078
 1223SOL    HW1 3673   3.198   0.554   0.159
 1223SOL    HW2 3674   3.343   0.534   0.087
 1224SOL     OW 3675   2.389   0.256   0.328
 1224SOL    HW1 3676   2.416   0.197   0.253
 1224SOL    HW2 3677   2.389   0.351   0.297
 1225SOL     OW 3678   3.616   1.223   1.588
 1225SOL    HW1 3679   3.707   1.184   1.575
 1225SOL    HW2 3680   3.624   1.319   1.612
 1226SOL     OW 3681   2.926   1.347   1.340
 1226SOL    HW1 3682   2.846   1.324   1.395
 1226SOL    HW2 3683   3.009   1.321   1.389
 1227SOL     OW 3684   3.454   1.629   1.625
 1227SOL    HW1 3685   3.481   1.663   1.535
 1227SOL    HW2 3686   3.533   1.591   1.671
 1228SOL     OW 3687   2.973   1.195   1.100
 1228SOL    HW1 3688   2.933   1.239   1.181
 1228SOL    HW2 3689   2.932   1.232   1.017
 1229SOL     OW 3690   3.500   1.099   1.079
 1229SOL    HW1 3691   3.505   1.180   1.138
 1229SOL    HW2 3692   3.414   1.101   1.028
 1230SOL     OW 3693   2.777   0.089   1.402
 1230SOL    HW1 3694   2.802   0.069   1.307
 1230SOL    HW2 3695   2.849   0.145   1.444
 1231SOL     OW 3696   2.842   1.116   1.719
 1231SOL    HW1 3697   2.743   1.122   1.729
 1231SOL    HW2 3698   2.865   1.036   1.663
 1232SOL     OW 3699   2.567   1.050   0.368
 1232SOL    HW1 3700   2.553   1.057   0.467
 1232SOL    HW2 3701   2.651   0.999   0.350
 1233SOL     OW 3702   2.272   0.813   1.251
 1233SOL    HW1 3703   2.358   0.825   1.301
 1233SOL    HW2 3704   2.230   0.726   1.278
 1234SOL     OW 3705   3.136   0.386   1.262
 1234SOL    HW1 3706   3.157   0.460   1.326
 1234SOL    HW2 3707   3.047   0.403   1.219
 1235SOL     OW 3708   1.926   1.564   1.331
 1235SOL    HW1 3709   1.880   1.646   1.297
 1235SOL    HW2 3710   2.024   1.583   1.340
 1236SOL     OW 3711   2.229   1.100   0.501
 1236SOL    HW1 3712   2.222   1.183   0.445
 1236SOL    HW2 3713   2.233   1.020   0.441
 1237SOL     OW 3714   2.428   0.537   0.865
 1237SOL    HW1 3715   2.440   0.603   0.791
 1237SOL    HW2 3716   2.474   0.571   0.948
 1238SOL     OW 3717   3.114   1.348   0.388
 1238SOL    HW1 3718   3.164   1.425   0.428
 1238SOL    HW2 3719   3.019   1.350   0.420
 1239SOL     OW 3720   3.134   1.445   1.142
 1239SOL    HW1 3721   3.181   1.458   1.229
 1239SOL    HW2 3722   3.068   1.371   1.151
 1240SOL     OW 3723   3.444   0.639   0.472
 1240SOL    HW1 3724   3.413   0.700   0.545
 1240SOL    HW2 3725   3.494   0.691   0.403
 1241SOL     OW 3726   2.216   1.510   1.329
 1241SOL    HW1 3727   2.195   1.466   1.242
 1241SOL    HW2 3728   2.313   1.536   1.332
 1242SOL     OW 3729   2.264   0.751   1.598
 1242SOL    HW1 3730   2.332   0.806   1.551
 1242SOL    HW2 3731   2.304   0.663   1.625
 1243SOL     OW 3732   3.449   0.779   1.670
 1243SOL    HW1 3733   3.357   0.817   1.665
 1243SOL    HW2 3734   3.509   0.826   1.605
 1244SOL     OW 3735   2.875   0.105   1.770
 1244SOL    HW1 3736   2.881   0.190   1.718
 1244SOL    HW2 3737   2.907   0.029   1.713
 1245SOL     OW 3738   2.366   0.050   1.740
 1245SOL    HW1 3739   2.324  -0.007   1.670
 1245SOL    HW2 3740   2.300   0.119   1.772
 1246SOL     OW 3741   2.435   0.870   1.029
 1246SOL    HW1 3742   2.479   0.959   1.020
 1246SOL    HW2 3743   2.372   0.870   1.106
 1247SOL     OW 3744   3.222   0.862   1.045
 1247SOL    HW1 3745   3.147   0.862   0.979
 1247SOL    HW2 3746   3.259   0.770   1.054
 1248SOL     OW 3747   3.071   0.525   0.275
 1248SOL    HW1 3748   3.084   0.441   0.329
 1248SOL    HW2 3749   3.042   0.599   0.335
 1249SOL     OW 3750   2.169   0.213   1.231
 1249SOL    HW1 3751   2.146   0.250   1.321
 1249SOL    HW2 3752   2.139   0.118   1.225
 1250SOL     OW 3753   1.899   1.310   1.282
 1250SOL    HW1 3754   1.952   1.261   1.350
 1250SOL    HW2 3755   1.921   1.408   1.287
 1251SOL     OW 3756   2.594   0.634   1.064
 1251SOL    HW1 3757   2.653   0.608   0.988
 1251SOL    HW2 3758   2.566   0.730   1.053
 1252SOL     OW 3759   3.590   0.935   1.854
 1252SOL    HW1 3760   3.544   0.928   1.765
 1252SOL    HW2 3761   3.528   0.979   1.920
 1253SOL     OW 3762   2.169   0.063   0.618
 1253SOL    HW1 3763   2.158   0.157   0.651
 1253SOL    HW2 3764   2.164   0.000   0.695
 1254SOL     OW 3765   3.484   0.367   0.374
 1254SOL    HW1 3766   3.486   0.291   0.438
 1254SOL    HW2 3767   3.436   0.444   0.414
 1255SOL     OW 3768   2.885   0.766   0.966
 1255SOL    HW1 3769   2.900   0.787   1.062
 1255SOL    HW2 3770   2.855   0.671   0.957
 1256SOL     OW 3771   2.842   1.573   1.700
 1256SOL    HW1 3772   2.822   1.617   1.612
 1256SOL    HW2 3773   2.881   1.482   1.684
 1257SOL     OW 3774   3.721   1.518   1.605
 1257SOL    HW1 3775   3.735   1.545   1.510
 1257SOL    HW2 3776   3.804   1.540   1.658
 1258SOL     OW 3777   2.212   0.898   1.804
 1258SOL    HW1 3778   2.288   0.942   1.852
 1258SOL    HW2 3779   2.247   0.851   1.722
 1259SOL     OW 3780   3.402   0.274   0.125
 1259SOL    HW1 3781   3.341   0.199   0.148
 1259SOL    HW2 3782   3.424   0.326   0.208
 1260SOL     OW 3783   3.165   0.838   0.042
 1260SOL    HW1 3784   3.199   0.745   0.057
 1260SOL    HW2 3785   3.183   0.865  -0.053
 1261SOL     OW 3786   2.930   1.333   0.849
 1261SOL    HW1 3787   2.937   1.249   0.794
 1261SOL    HW2 3788   2.992   1.402   0.813
 1262SOL     OW 3789   2.181   0.810   0.949
 1262SOL    HW1 3790   2.274   0.846   0.954
 1262SOL    HW2 3791   2.175   0.725   1.001
 1263SOL     OW 3792   2.201   0.509   1.006
 1263SOL    HW1 3793   2.149   0.426   0.989
 1263SOL    HW2 3794   2.278   0.514   0.942
 1264SOL     OW 3795   3.000   0.380   1.678
 1264SOL    HW1 3796   2.955   0.443   1.742
 1264SOL    HW2 3797   3.093   0.411   1.661
 1265SOL     OW 3798   3.022   0.207   1.477
 1265SOL    HW1 3799   3.022   0.271   1.554
 1265SOL    HW2 3800   3.050   0.255   1.394
 1266SOL     OW 3801   1.870   1.326   0.200
 1266SOL    HW1 3802   1.777   1.347   0.169
 1266SOL    HW2 3803   1.880   1.227   0.213
 1267SOL     OW 3804   1.950   1.801   0.927
 1267SOL    HW1 3805   1.908   1.715   0.900
 1267SOL    HW2 3806   2.044   1.804   0.893
 1268SOL     OW 3807   2.366   1.568   0.910
 1268SOL    HW1 3808   2.432   1.642   0.919
 1268SOL    HW2 3809   2.410   1.489   0.868
 1269SOL     OW 3810   2.864   0.796   1.238
 1269SOL    HW1 3811   2.905   0.764   1.324
 1269SOL    HW2 3812   2.768   0.769   1.235
 1270SOL     OW 3813   1.902   0.544   1.114
 1270SOL    HW1 3814   1.987   0.511   1.073
 1270SOL    HW2 3815   1.915   0.559   1.212
 1271SOL     OW 3816   2.051   0.520   1.722
 1271SOL    HW1 3817   2.110   0.480   1.652
 1271SOL    HW2 3818   1.993   0.591   1.681
 1272SOL     OW 3819   3.231   0.950   1.660
 1272SOL    HW1 3820   3.270   1.039   1.680
 1272SOL    HW2 3821   3.241   0.930   1.563
 1273SOL     OW 3822   2.677   0.572   0.325
 1273SOL    HW1 3823   2.684   0.483   0.279
 1273SOL    HW2 3824   2.583   0.606   0.317
 1274SOL     OW 3825   3.519   0.604   1.206
 1274SOL    HW1 3826   3.481   0.535   1.268
 1274SOL    HW2 3827   3.601   0.568   1.162
 1275SOL     OW 3828   2.114   1.564   1.744
 1275SOL    HW1 3829   2.084   1.621   1.820
 1275SOL    HW2 3830   2.107   1.467   1.770
 1276SOL     OW 3831   2.533   0.464   1.269
 1276SOL    HW1 3832   2.499   0.375   1.239
 1276SOL    HW2 3833   2.559   0.518   1.189
 1277SOL     OW 3834   2.792   1.678   1.465
 1277SOL    HW1 3835   2.768   1.660   1.370
 1277SOL    HW2 3836   2.822   1.772   1.475
 1278SOL     OW 3837   2.335   0.500   0.191
 1278SOL    HW1 3838   2.396   0.580   0.195
 1278SOL    HW2 3839   2.240   0.531   0.198
 1279SOL     OW 3840   2.021   1.137   1.466
 1279SOL    HW1 3841   2.043   1.076   1.542
 1279SOL    HW2 3842   2.031   1.088   1.380
 1280SOL     OW 3843   3.209   1.059   1.234
 1280SOL    HW1 3844   3.233   0.996   1.160
 1280SOL    HW2 3845   3.119   1.099   1.216
 1281SOL     OW 3846   3.164   0.855   0.309
 1281SOL    HW1 3847   3.078   0.824   0.351
 1281SOL    HW2 3848   3.160   0.841   0.210
 1282SOL     OW 3849   3.621   1.747   1.154
 1282SOL    HW1 3850   3.682   1.777   1.081
 1282SOL    HW2 3851   3.583   1.658   1.132
 1283SOL     OW 3852   3.114   1.731   1.128
 1283SOL    HW1 3853   3.198   1.736   1.074
 1283SOL    HW2 3854   3.091   1.635   1.146
 1284SOL     OW 3855   1.945   1.258   1.022
 1284SOL    HW1 3856   1.940   1.257   1.122
 1284SOL    HW2 3857   1.862   1.217   0.984
 1285SOL     OW 3858   2.550   1.662   1.716
 1285SOL    HW1 3859   2.494   1.743   1.725
 1285SOL    HW2 3860   2.602   1.666   1.630
 1286SOL     OW 3861   2.765   0.086   0.133
 1286SOL    HW1 3862   2.816   0.087   0.047
 1286SOL    HW2 3863   2.821   0.044   0.204
 1287SOL     OW 3864   3.588   0.135   0.523
 1287SOL    HW1 3865   3.661   0.118   0.456
 1287SOL    HW2 3866   3.557   0.048   0.561
 1288SOL     OW 3867   3.250   1.573   0.477
 1288SOL    HW1 3868   3.317   1.585   0.403
 1288SOL    HW2 3869   3.210   1.662   0.500
 1289SOL     OW 3870   1.992   1.794   1.851
 1289SOL    HW1 3871   1.951   1.720   1.904
 1289SOL    HW2 3872   2.056   1.845   1.909
 1290SOL     OW 3873   3.142   0.927   0.672
 1290SOL    HW1 3874   3.202   0.846   0.674
 1290SOL    HW2 3875   3.182   0.996   0.612
 1291SOL     OW 3876   2.692   1.273   1.422
 1291SOL    HW1 3877   2.687   1.306   1.517
 1291SOL    HW2 3878   2.606   1.292   1.376
 1292SOL     OW 3879   2.534   1.616   0.154
 1292SOL    HW1 3880   2.543   1.626   0.055
 1292SOL    HW2 3881   2.494   1.527   0.175
 1293SOL     OW 3882   3.512   1.720   1.394
 1293SOL    HW1 3883   3.565   1.730   1.310
 1293SOL    HW2 3884   3.485   1.810   1.428
 1294SOL     OW 3885   3.703   0.175   0.963
 1294SOL    HW1 3886   3.742   0.090   0.927
 1294SOL    HW2 3887   3.605   0.177   0.944
 1295SOL     OW 3888   2.125   0.326   0.720
 1295SOL    HW1 3889   2.046   0.377   0.686
 1295SOL    HW2 3890   2.116   0.311   0.818
 1296SOL     OW 3891   3.056   1.612   0.031
 1296SOL    HW1 3892   3.062   1.519   0.068
 1296SOL    HW2 3893   2.997   1.612  -0.049
 1297SOL     OW 3894   2.684   1.002   1.372
 1297SOL    HW1 3895   2.724   1.001   1.280
 1297SOL    HW2 3896   2.694   1.094   1.412
 1298SOL     OW 3897   2.778   0.910   0.291
 1298SOL    HW1 3898   2.841   0.948   0.223
 1298SOL    HW2 3899   2.818   0.827   0.330
 1299SOL     OW 3900   3.366   1.607   0.044
 1299SOL    HW1 3901   3.274   1.644   0.051
 1299SOL    HW2 3902   3.404   1.627  -0.046
 1300SOL     OW 3903   2.234   1.288   1.490
 1300SOL    HW1 3904   2.221   1.381   1.456
 1300SOL    HW2 3905   2.150   1.236   1.477
 1301SOL     OW 3906   3.476   1.292   1.289
 1301SOL    HW1 3907   3.536   1.295   1.369
 1301SOL    HW2 3908   3.401   1.356   1.302
 1302SOL     OW 3909   2.901   1.098   0.696
 1302SOL    HW1 3910   2.831   1.051   0.750
 1302SOL    HW2 3911   2.960   1.030   0.653
 1303SOL     OW 3912   2.876   0.236   0.971
 1303SOL    HW1 3913   2.868   0.200   0.878
 1303SOL    HW2 3914   2.874   0.160   1.036
 1304SOL     OW 3915   2.452   1.487   0.491
 1304SOL    HW1 3916   2.494   1.429   0.421
 1304SOL    HW2 3917   2.408   1.566   0.447
 1305SOL     OW 3918   3.571   0.385   1.381
 1305SOL    HW1 3919   3.644   0.454   1.385
 1305SOL    HW2 3920   3.599   0.310   1.322
 1306SOL     OW 3921   2.117   1.348   0.290
 1306SOL    HW1 3922   2.021   1.349   0.263
 1306SOL    HW2 3923   2.129   1.401   0.374
 1307SOL     OW 3924   1.967   1.013   1.726
 1307SOL    HW1 3925   1.890   0.980   1.780
 1307SOL    HW2 3926   2.052   0.983   1.768
 1308SOL     OW 3927   2.534   0.203   1.489
 1308SOL    HW1 3928   2.624   0.187   1.449
 1308SOL    HW2 3929   2.542   0.208   1.588
 1309SOL     OW 3930   1.937   0.345   0.033
 1309SOL    HW1 3931   1.845   0.317   0.004
 1309SOL    HW2 3932   1.968   0.422  -0.023
 1310SOL     OW 3933   3.302   0.856   1.398
 1310SOL    HW1 3934   3.245   0.908   1.335
 1310SOL    HW2 3935   3.398   0.868   1.374
 1311SOL     OW 3936   1.934   0.166   0.318
 1311SOL    HW1 3937   1.917   0.249   0.264
 1311SOL    HW2 3938   2.024   0.129   0.296
 1312SOL     OW 3939   3.045   1.335   0.119
 1312SOL    HW1 3940   2.946   1.324   0.121
 1312SOL    HW2 3941   3.079   1.350   0.212
 1313SOL     OW 3942   2.475   0.842   1.431
 1313SOL    HW1 3943   2.531   0.923   1.414
 1313SOL    HW2 3944   2.534   0.762   1.434
 1314SOL     OW 3945   3.355   1.767   0.959
 1314SOL    HW1 3946   3.388   1.831   0.890
 1314SOL    HW2 3947   3.421   1.761   1.034
 1315SOL     OW 3948   2.578   0.565   1.708
 1315SOL    HW1 3949   2.597   0.630   1.782
 1315SOL    HW2 3950   2.638   0.485   1.717
 1316SOL     OW 3951   3.312   1.220   1.633
 1316SOL    HW1 3952   3.303   1.210   1.732
 1316SOL    HW2 3953   3.408   1.213   1.607
 1317SOL     OW 3954   2.252   1.741   1.560
 1317SOL    HW1 3955   2.161   1.782   1.558
 1317SOL    HW2 3956   2.245   1.647   1.592
 1318SOL     OW 3957   3.536   0.883   1.254
 1318SOL    HW1 3958   3.509   0.794   1.217
 1318SOL    HW2 3959   3.537   0.951   1.181
 1319SOL     OW 3960   3.087   0.325   0.449
 1319SOL    HW1 3961   3.152   0.251   0.438
 1319SOL    HW2 3962   3.107   0.375   0.533
 1320SOL     OW 3963   2.456   0.745   0.652
 1320SOL    HW1 3964   2.506   0.830   0.633
 1320SOL    HW2 3965   2.368   0.747   0.604
 1321SOL     OW 3966   3.639   0.342   1.642
 1321SOL    HW1 3967   3.622   0.373   1.548
 1321SOL    HW2 3968   3.555   0.305   1.680
 1322SOL     OW 3969   3.592   0.934   1.517
 1322SOL    HW1 3970   3.630   1.025   1.532
 1322SOL    HW2 3971   3.584   0.917   1.418
 1323SOL     OW 3972   2.721   1.374   0.016
 1323SOL    HW1 3973   2.675   1.389   0.104
 1323SOL    HW2 3974   2.765   1.459  -0.014
 1324SOL     OW 3975   2.523   1.790   0.953
 1324SOL    HW1 3976   2.477   1.878   0.940
 1324SOL    HW2 3977   2.622   1.802   0.946
 1325SOL     OW 3978   2.721   0.956   0.861
 1325SOL    HW1 3979   2.775   0.887   0.909
 1325SOL    HW2 3980   2.689   1.025   0.927
 1326SOL     OW 3981   2.945   0.984   0.087
 1326SOL    HW1 3982   2.922   1.037   0.005
 1326SOL    HW2 3983   3.026   0.928   0.068
 1327SOL     OW 3984   3.723   1.569   0.851
 1327SOL    HW1 3985   3.652   1.557   0.781
 1327SOL    HW2 3986   3.724   1.490   0.911
 1328SOL     OW 3987   2.083   1.314   1.844
 1328SOL    HW1 3988   2.018   1.241   1.823
 1328SOL    HW2 3989   2.087   1.328   1.942
 1329SOL     OW 3990   1.941   1.240   0.653
 1329SOL    HW1 3991   1.940   1.193   0.741
 1329SOL    HW2 3992   2.023   1.212   0.602
 1330SOL     OW 3993   2.534   1.391   1.624
 1330SOL    HW1 3994   2.456   1.341   1.662
 1330SOL    HW2 3995   2.531   1.486   1.655
 1331SOL     OW 3996   3.686   0.192   1.227
 1331SOL    HW1 3997   3.682   0.102   1.271
 1331SOL    HW2 3998   3.689   0.181   1.128
 1332SOL     OW 3999   2.290   0.424   0.520
 1332SOL    HW1 4000   2.320   0.352   0.458
 1332SOL    HW2 4001   2.251   0.384   0.603
 1333SOL     OW 4002   3.567   1.487   1.104
 1333SOL    HW1 4003   3.474   1.462   1.077
 1333SOL    HW2 4004   3.593   1.437   1.186
 1334SOL     OW 4005   2.179   0.547   1.280
 1334SOL    HW1 4006   2.217   0.488   1.352
 1334SOL    HW2 4007   2.219   0.521   1.192
 1335SOL     OW 4008   2.674   1.586   0.687
 1335SOL    HW1 4009   2.706   1.596   0.593
 1335SOL    HW2 4010   2.595   1.524   0.689
 1336SOL     OW 4011   3.286   0.214   1.112
 1336SOL    HW1 4012   3.338   0.149   1.167
 1336SOL    HW2 4013   3.237   0.277   1.173
 1337SOL     OW 4014   2.863   0.034   1.154
 1337SOL    HW1 4015   2.800  -0.038   1.123
 1337SOL    HW2 4016   2.956  -0.002   1.154
 1338SOL     OW 4017   2.632   1.330   0.301
 1338SOL    HW1 4018   2.586   1.243   0.318
 1338SOL    HW2 4019   2.723   1.327   0.342
 1339SOL     OW 4020   2.480   1.567   1.284
 1339SOL    HW1 4021   2.475   1.649   1.341
 1339SOL    HW2 4022   2.569   1.564   1.239
 1340SOL     OW 4023   3.214   0.052   0.168
 1340SOL    HW1 4024   3.249   0.011   0.084
 1340SOL    HW2 4025   3.124   0.014   0.188
 1341SOL     OW 4026   3.162   0.453   0.691
 1341SOL    HW1 4027   3.103   0.533   0.695
 1341SOL    HW2 4028   3.177   0.418   0.784
 1342SOL     OW 4029   3.455   0.221   0.882
 1342SOL    HW1 4030   3.371   0.220   0.936
 1342SOL    HW2 4031   3.457   0.304   0.826
 1343SOL     OW 4032   1.901   1.077   0.300
 1343SOL    HW1 4033   2.000   1.066   0.291
 1343SOL    HW2 4034   1.861   0.991   0.332
 1344SOL     OW 4035   2.737   1.646   0.337
 1344SOL    HW1 4036   2.660   1.611   0.283
 1344SOL    HW2 4037   2.705   1.717   0.399
 1345SOL     OW 4038   2.092   0.628   1.975
 1345SOL    HW1 4039   1.999   0.626   2.012
 1345SOL    HW2 4040   2.093   0.589   1.883
 1346SOL     OW 4041   2.087   0.275   2.858
 1346SOL    HW1 4042   2.122   0.258   2.950
 1346SOL    HW2 4043   1.999   0.230   2.846
 1347SOL     OW 4044   1.881   0.368   2.509
 1347SOL    HW1 4045   1.799   0.411   2.548
 1347SOL    HW2 4046   1.853   0.295   2.446
 1348SOL     OW 4047   2.431   1.275   3.027
 1348SOL    HW1 4048   2.338   1.268   2.990
 1348SOL    HW2 4049   2.442   1.364   3.071
 1349SOL     OW 4050   3.417   1.511   2.565
 1349SOL    HW1 4051   3.360   1.495   2.646
 1349SOL    HW2 4052   3.358   1.521   2.485
 1350SOL     OW 4053   2.997   0.703   2.579
 1350SOL    HW1 4054   3.054   0.781   2.554
 1350SOL    HW2 4055   2.937   0.729   2.655
 1351SOL     OW 4056   3.617   0.607   2.093
 1351SOL    HW1 4057   3.605   0.594   1.994
 1351SOL    HW2 4058   3.587   0.526   2.142
 1352SOL     OW 4059   2.630   1.144   2.885
 1352SOL    HW1 4060   2.552   1.161   2.945
 1352SOL    HW2 4061   2.664   1.231   2.849
 1353SOL     OW 4062   2.712   0.798   3.685
 1353SOL    HW1 4063   2.708   0.874   3.750
 1353SOL    HW2 4064   2.734   0.834   3.594
 1354SOL     OW 4065   2.547   1.012   2.527
 1354SOL    HW1 4066   2.616   0.996   2.597
 1354SOL    HW2 4067   2.474   1.069   2.565
 1355SOL     OW 4068   2.548   1.161   3.665
 1355SOL    HW1 4069   2.608   1.240   3.679
 1355SOL    HW2 4070   2.462   1.192   3.624
 1356SOL     OW 4071   2.197   1.435   2.923
 1356SOL    HW1 4072   2.119   1.404   2.870
 1356SOL    HW2 4073   2.255   1.493   2.866
 1357SOL     OW 4074   3.322   1.505   3.201
 1357SOL    HW1 4075   3.346   1.599   3.227
 1357SOL    HW2 4076   3.306   1.451   3.283
 1358SOL     OW 4077   2.300   0.392   3.361
 1358SOL    HW1 4078   2.382   0.336   3.370
 1358SOL    HW2 4079   2.219   0.334   3.365
 1359SOL     OW 4080   3.465   0.447   2.599
 1359SOL    HW1 4081   3.391   0.493   2.549
 1359SOL    HW2 4082   3.516   0.515   2.652
 1360SOL     OW 4083   2.093   1.713   2.345
 1360SOL    HW1 4084   2.127   1.790   2.399
 1360SOL    HW2 4085   2.137   1.713   2.255
 1361SOL     OW 4086   2.989   1.341   3.552
 1361SOL    HW1 4087   3.036   1.341   3.640
 1361SOL    HW2 4088   2.941   1.254   3.541
 1362SOL     OW 4089   2.092   1.434   2.400
 1362SOL    HW1 4090   2.066   1.530   2.400
 1362SOL    HW2 4091   2.021   1.380   2.445
 1363SOL     OW 4092   2.102   1.091   2.748
 1363SOL    HW1 4093   2.116   1.007   2.800
 1363SOL    HW2 4094   2.047   1.155   2.803
 1364SOL     OW 4095   2.482   1.786   3.301
 1364SOL    HW1 4096   2.390   1.769   3.336
 1364SOL    HW2 4097   2.510   1.878   3.327
 1365SOL     OW 4098   2.468   0.964   1.985
 1365SOL    HW1 4099   2.475   1.048   1.931
 1365SOL    HW2 4100   2.514   0.977   2.073
 1366SOL     OW 4101   3.456   0.114   3.342
 1366SOL    HW1 4102   3.438   0.181   3.270
 1366SOL    HW2 4103   3.453   0.160   3.431
 1367SOL     OW 4104   1.984   0.643   2.425
 1367SOL    HW1 4105   1.939   0.555   2.442
 1367SOL    HW2 4106   1.983   0.697   2.509
 1368SOL     OW 4107   3.704   1.767   2.221
 1368SOL    HW1 4108   3.758   1.738   2.301
 1368SOL    HW2 4109   3.734   1.857   2.192
 1369SOL     OW 4110   1.889   1.596   1.979
 1369SOL    HW1 4111   1.870   1.500   2.000
 1369SOL    HW2 4112   1.856   1.654   2.054
 1370SOL     OW 4113   3.551   0.922   2.474
 1370SOL    HW1 4114   3.646   0.893   2.482
 1370SOL    HW2 4115   3.543   0.987   2.399
 1371SOL     OW 4116   3.503   1.108   2.294
 1371SOL    HW1 4117   3.589   1.110   2.242
 1371SOL    HW2 4118   3.517   1.155   2.382
 1372SOL     OW 4119   1.975   0.737   3.459
 1372SOL    HW1 4120   2.063   0.724   3.504
 1372SOL    HW2 4121   1.962   0.834   3.437
 1373SOL     OW 4122   2.475   1.365   2.588
 1373SOL    HW1 4123   2.426   1.278   2.597
 1373SOL    HW2 4124   2.452   1.408   2.501
 1374SOL     OW 4125   3.155   1.228   3.285
 1374SOL    HW1 4126   3.192   1.155   3.227
 1374SOL    HW2 4127   3.207   1.233   3.370
 1375SOL     OW 4128   2.671   0.004   2.364
 1375SOL    HW1 4129   2.711   0.095   2.355
 1375SOL    HW2 4130   2.571   0.012   2.370
 1376SOL     OW 4131   2.059   0.976   3.126
 1376SOL    HW1 4132   2.148   0.931   3.112
 1376SOL    HW2 4133   1.986   0.911   3.107
 1377SOL     OW 4134   3.387   0.999   2.052
 1377SOL    HW1 4135   3.324   0.923   2.065
 1377SOL    HW2 4136   3.435   1.017   2.138
 1378SOL     OW 4137   3.049   1.792   3.478
 1378SOL    HW1 4138   3.073   1.852   3.402
 1378SOL    HW2 4139   3.056   1.697   3.448
 1379SOL     OW 4140   2.179   0.251   3.663
 1379SOL    HW1 4141   2.250   0.322   3.669
 1379SOL    HW2 4142   2.091   0.290   3.691
 1380SOL     OW 4143   3.328   1.417   2.815
 1380SOL    HW1 4144   3.269   1.423   2.895
 1380SOL    HW2 4145   3.313   1.329   2.769
 1381SOL     OW 4146   3.529   1.714   2.434
 1381SOL    HW1 4147   3.488   1.691   2.346
 1381SOL    HW2 4148   3.511   1.640   2.499
 1382SOL     OW 4149   2.460   0.729   2.132
 1382SOL    HW1 4150   2.484   0.798   2.064
 1382SOL    HW2 4151   2.382   0.762   2.186
 1383SOL     OW 4152   3.143   0.345   2.806
 1383SOL    HW1 4153   3.057   0.295   2.793
 1383SOL    HW2 4154   3.205   0.291   2.862
 1384SOL     OW 4155   3.438   1.662   2.169
 1384SOL    HW1 4156   3.527   1.708   2.172
 1384SOL    HW2 4157   3.417   1.638   2.074
 1385SOL     OW 4158   2.669   0.605   3.327
 1385SOL    HW1 4159   2.622   0.602   3.416
 1385SOL    HW2 4160   2.618   0.550   3.261
 1386SOL     OW 4161   3.256   0.469   3.536
 1386SOL    HW1 4162   3.236   0.512   3.624
 1386SOL    HW2 4163   3.334   0.407   3.545
 1387SOL     OW 4164   2.835   0.890   3.434
 1387SOL    HW1 4165   2.881   0.806   3.405
 1387SOL    HW2 4166   2.779   0.924   3.359
 1388SOL     OW 4167   2.853   0.410   3.104
 1388SOL    HW1 4168   2.776   0.444   3.158
 1388SOL    HW2 4169   2.819   0.359   3.025
 1389SOL     OW 4170   2.903   0.701   2.291
 1389SOL    HW1 4171   2.929   0.697   2.387
 1389SOL    HW2 4172   2.818   0.650   2.277
 1390SOL     OW 4173   1.938   0.811   2.651
 1390SOL    HW1 4174   2.037   0.799   2.660
 1390SOL    HW2 4175   1.914   0.906   2.672
 1391SOL     OW 4176   1.992   1.821   3.433
 1391SOL    HW1 4177   1.982   1.806   3.532
 1391SOL    HW2 4178   1.906   1.857   3.397
 1392SOL     OW 4179   2.727   0.348   2.057
 1392SOL    HW1 4180   2.786   0.411   2.008
 1392SOL    HW2 4181   2.746   0.254   2.028
 1393SOL     OW 4182   3.581   0.585   3.693
 1393SOL    HW1 4183   3.555   0.674   3.657
 1393SOL    HW2 4184   3.579   0.517   3.620
 1394SOL     OW 4185   3.224   1.144   2.407
 1394SOL    HW1 4186   3.307   1.115   2.359
 1394SOL    HW2 4187   3.175   1.211   2.351
 1395SOL     OW 4188   2.412   0.196   2.747
 1395SOL    HW1 4189   2.407   0.191   2.847
 1395SOL    HW2 4190   2.414   0.292   2.718
 1396SOL     OW 4191   2.870   1.456   2.339
 1396SOL    HW1 4192   2.824   1.528   2.287
 1396SOL    HW2 4193   2.866   1.476   2.437
 1397SOL     OW 4194   2.213   1.801   2.715
 1397SOL    HW1 4195   2.263   1.715   2.721
 1397SOL    HW2 4196   2.278   1.878   2.712
 1398SOL     OW 4197   3.657   1.066   2.735
 1398SOL    HW1 4198   3.595   1.051   2.659
 1398SOL    HW2 4199   3.605   1.077   2.820
 1399SOL     OW 4200   3.089   1.550   3.368
 1399SOL    HW1 4201   3.095   1.473   3.432
 1399SOL    HW2 4202   3.037   1.524   3.288
 1400SOL     OW 4203   2.183   0.943   2.104
 1400SOL    HW1 4204   2.265   0.982   2.062
 1400SOL    HW2 4205   2.156   0.861   2.055
 1401SOL     OW 4206   3.320   0.735   2.590
 1401SOL    HW1 4207   3.315   0.670   2.665
 1401SOL    HW2 4208   3.400   0.794   2.603
 1402SOL     OW 4209   2.323   1.266   3.589
 1402SOL    HW1 4210   2.273   1.267   3.503
 1402SOL    HW2 4211   2.260   1.248   3.665
 1403SOL     OW 4212   2.973   1.776   2.099
 1403SOL    HW1 4213   2.913   1.714   2.149
 1403SOL    HW2 4214   3.004   1.732   2.014
 1404SOL     OW 4215   2.064   0.285   3.360
 1404SOL    HW1 4216   1.984   0.345   3.347
 1404SOL    HW2 4217   2.054   0.236   3.446
 1405SOL     OW 4218   3.494   1.377   1.943
 1405SOL    HW1 4219   3.462   1.471   1.933
 1405SOL    HW2 4220   3.418   1.314   1.931
 1406SOL     OW 4221   2.326   1.743   2.185
 1406SOL    HW1 4222   2.359   1.782   2.271
 1406SOL    HW2 4223   2.402   1.736   2.120
 1407SOL     OW 4224   3.262   0.107   2.288
 1407SOL    HW1 4225   3.238   0.070   2.198
 1407SOL    HW2 4226   3.361   0.123   2.292
 1408SOL     OW 4227   2.111   1.785   3.103
 1408SOL    HW1 4228   2.168   1.720   3.153
 1408SOL    HW2 4229   2.095   1.752   3.010
 1409SOL     OW 4230   2.802   1.698   2.766
 1409SOL    HW1 4231   2.882   1.641   2.787
 1409SOL    HW2 4232   2.753   1.658   2.689
 1410SOL     OW 4233   2.244   0.700   2.342
 1410SOL    HW1 4234   2.289   0.610   2.339
 1410SOL    HW2 4235   2.150   0.689   2.375
 1411SOL     OW 4236   3.409   0.222   3.591
 1411SOL    HW1 4237   3.404   0.259   3.683
 1411SOL    HW2 4238   3.337   0.153   3.579
 1412SOL     OW 4239   2.476   0.122   1.979
 1412SOL    HW1 4240   2.574   0.100   1.986
 1412SOL    HW2 4241   2.445   0.105   1.886
 1413SOL     OW 4242   2.643   0.264   3.611
 1413SOL    HW1 4243   2.710   0.203   3.654
 1413SOL    HW2 4244   2.570   0.283   3.676
 1414SOL     OW 4245   2.750   1.514   3.057
 1414SOL    HW1 4246   2.727   1.489   2.963
 1414SOL    HW2 4247   2.811   1.445   3.096
 1415SOL     OW 4248   3.213   0.590   3.295
 1415SOL    HW1 4249   3.241   0.547   3.380
 1415SOL    HW2 4250   3.238   0.686   3.296
 1416SOL     OW 4251   2.665   1.402   2.786
 1416SOL    HW1 4252   2.755   1.416   2.744
 1416SOL    HW2 4253   2.594   1.404   2.715
 1417SOL     OW 4254   2.784   0.503   2.761
 1417SOL    HW1 4255   2.759   0.494   2.665
 1417SOL    HW2 4256   2.832   0.421   2.792
 1418SOL     OW 4257   2.401   0.064   2.374
 1418SOL    HW1 4258   2.320   0.065   2.432
 1418SOL    HW2 4259   2.404   0.147   2.319
 1419SOL     OW 4260   3.296   1.188   1.903
 1419SOL    HW1 4261   3.328   1.112   1.960
 1419SOL    HW2 4262   3.204   1.215   1.933
 1420SOL     OW 4263   2.159   0.035   2.033
 1420SOL    HW1 4264   2.208   0.119   2.012
 1420SOL    HW2 4265   2.221  -0.030   2.078
 1421SOL     OW 4266   2.797   0.236   2.342
 1421SOL    HW1 4267   2.749   0.277   2.264
 1421SOL    HW2 4268   2.896   0.234   2.323
 1422SOL     OW 4269   2.938   0.683   3.326
 1422SOL    HW1 4270   2.858   0.622   3.329
 1422SOL    HW2 4271   3.019   0.630   3.302
 1423SOL     OW 4272   3.089   1.570   2.655
 1423SOL    HW1 4273   3.110   1.644   2.590
 1423SOL    HW2 4274   3.157   1.570   2.728
 1424SOL     OW 4275   2.321   1.152   2.603
 1424SOL    HW1 4276   2.250   1.125   2.668
 1424SOL    HW2 4277   2.295   1.124   2.510
 1425SOL     OW 4278   3.133   1.797   2.453
 1425SOL    HW1 4279   3.177   1.861   2.389
 1425SOL    HW2 4280   3.083   1.849   2.523
 1426SOL     OW 4281   2.894   0.549   1.878
 1426SOL    HW1 4282   2.853   0.631   1.839
 1426SOL    HW2 4283   2.958   0.575   1.951
 1427SOL     OW 4284   1.940   0.556   3.248
 1427SOL    HW1 4285   2.032   0.555   3.207
 1427SOL    HW2 4286   1.934   0.630   3.315
 1428SOL     OW 4287   2.423   0.222   3.009
 1428SOL    HW1 4288   2.461   0.138   3.046
 1428SOL    HW2 4289   2.335   0.241   3.053
 1429SOL     OW 4290   2.728   0.454   2.504
 1429SOL    HW1 4291   2.696   0.526   2.442
 1429SOL    HW2 4292   2.752   0.373   2.451
 1430SOL     OW 4293   2.879   0.039   2.615
 1430SOL    HW1 4294   2.807   0.044   2.546
 1430SOL    HW2 4295   2.855  -0.030   2.684
 1431SOL     OW 4296   3.291   1.173   2.729
 1431SOL    HW1 4297   3.236   1.089   2.722
 1431SOL    HW2 4298   3.317   1.202   2.637
 1432SOL     OW 4299   3.328   0.590   2.854
 1432SOL    HW1 4300   3.298   0.495   2.861
 1432SOL    HW2 4301   3.401   0.606   2.920
 1433SOL     OW 4302   3.719   0.833   2.239
 1433SOL    HW1 4303   3.761   0.769   2.303
 1433SOL    HW2 4304   3.681   0.782   2.161
 1434SOL     OW 4305   2.350   1.385   2.036
 1434SOL    HW1 4306   2.263   1.370   2.083
 1434SOL    HW2 4307   2.333   1.411   1.941
 1435SOL     OW 4308   3.526   1.280   2.519
 1435SOL    HW1 4309   3.625   1.288   2.533
 1435SOL    HW2 4310   3.481   1.364   2.550
 1436SOL     OW 4311   3.252   0.575   1.940
 1436SOL    HW1 4312   3.198   0.554   2.021
 1436SOL    HW2 4313   3.343   0.534   1.949
 1437SOL     OW 4314   2.389   0.256   2.190
 1437SOL    HW1 4315   2.416   0.197   2.115
 1437SOL    HW2 4316   2.389   0.351   2.159
 1438SOL     OW 4317   3.616   1.223   3.450
 1438SOL    HW1 4318   3.707   1.184   3.437
 1438SOL    HW2 4319   3.624   1.319   3.474
 1439SOL     OW 4320   2.926   1.347   3.202
 1439SOL    HW1 4321   2.846   1.324   3.257
 1439SOL    HW2 4322   3.009   1.321   3.251
 1440SOL     OW 4323   3.454   1.629   3.487
 1440SOL    HW1 4324   3.481   1.663   3.397
 1440SOL    HW2 4325   3.533   1.591   3.533
 1441SOL     OW 4326   2.973   1.195   2.962
 1441SOL    HW1 4327   2.933   1.239   3.043
 1441SOL    HW2 4328   2.932   1.232   2.879
 1442SOL     OW 4329   3.500   1.099   2.941
 1442SOL    HW1 4330   3.505   1.180   3.000
 1442SOL    HW2 4331   3.414   1.101   2.890
 1443SOL     OW 4332   2.777   0.089   3.264
 1443SOL    HW1 4333   2.802   0.069   3.169
 1443SOL    HW2 4334   2.849   0.145   3.306
 1444SOL     OW 4335   2.842   1.116   3.581
 1444SOL    HW1 4336   2.743   1.122   3.591
 1444SOL    HW2 4337   2.865   1.036   3.525
 1445SOL     OW 4338   2.567   1.050   2.230
 1445SOL    HW1 4339   2.553   1.057   2.329
 1445SOL    HW2 4340   2.651   0.999   2.212
 1446SOL     OW 4341   2.272   0.813   3.113
 1446SOL    HW1 4342   2.358   0.825   3.163
 1446SOL    HW2 4343   2.230   0.726   3.140
 1447SOL     OW 4344   3.136   0.386   3.124
 1447SOL    HW1 4345   3.157   0.460   3.188
 1447SOL    HW2 4346   3.047   0.403   3.081
 1448SOL     OW 4347   1.926   1.564   3.193
 1448SOL    HW1 4348   1.880   1.646   3.159
 1448SOL    HW2 4349   2.024   1.583   3.202
 1449SOL     OW 4350   2.229   1.100   2.363
 1449SOL    HW1 4351   2.222   1.183   2.307
 1449SOL    HW2 4352   2.233   1.020   2.303
 1450SOL     OW 4353   2.428   0.537   2.727
 1450SOL    HW1 4354   2.440   0.603   2.653
 1450SOL    HW2 4355   2.474   0.571   2.810
 1451SOL     OW 4356   3.114   1.348   2.250
 1451SOL    HW1 4357   3.164   1.425   2.290
 1451SOL    HW2 4358   3.019   1.350   2.282
 1452SOL     OW 4359   3.134   1.445   3.004
 1452SOL    HW1 4360   3.181   1.458   3.091
 1452SOL    HW2 4361   3.068   1.371   3.013
 1453SOL     OW 4362   3.444   0.639   2.334
 1453SOL    HW1 4363   3.413   0.700   2.407
 1453SOL    HW2 4364   3.494   0.691   2.265
 1454SOL     OW 4365   2.216   1.510   3.191
 1454SOL    HW1 4366   2.195   1.466   3.104
 1454SOL    HW2 4367   2.313   1.536   3.194
 1455SOL     OW 4368   2.264   0.751   3.460
 1455SOL    HW1 4369   2.332   0.806   3.413
 1455SOL    HW2 4370   2.304   0.663   3.487
 1456SOL     OW 4371   3.449   0.779   3.532
 1456SOL    HW1 4372   3.357   0.817   3.527
 1456SOL    HW2 4373   3.509   0.826   3.467
 1457SOL     OW 4374   2.875   0.105   3.632
 1457SOL    HW1 4375   2.881   0.190   3.580
 1457SOL    HW2 4376   2.907   0.029   3.575
 1458SOL     OW 4377   2.366   0.050   3.602
 1458SOL    HW1 4378   2.324  -0.007   3.532
 1458SOL    HW2 4379   2.300   0.119   3.634
 1459SOL     OW 4380   2.435   0.870   2.891
 1459SOL    HW1 4381   2.479   0.959   2.882
 1459SOL    HW2 4382   2.372   0.870   2.968
 1460SOL     OW 4383   3.222   0.862   2.907
 1460SOL    HW1 4384   3.147   0.862   2.841
 1460SOL    HW2 4385   3.259   0.770   2.916
 1461SOL     OW 4386   3.071   0.525   2.137
 1461SOL    HW1 4387   3.084   0.441   2.191
 1461SOL    HW2 4388   3.042   0.599   2.197
 1462SOL     OW 4389   2.169   0.213   3.093
 1462SOL    HW1 4390   2.146   0.250   3.183
 1462SOL    HW2 4391   2.139   0.118   3.087
 1463SOL     OW 4392   1.899   1.310   3.144
 1463SOL    HW1 4393   1.952   1.261   3.212
 1463SOL    HW2 4394   1.921   1.408   3.149
 1464SOL     OW 4395   2.594   0.634   2.926
 1464SOL    HW1 4396   2.653   0.608   2.850
 1464SOL    HW2 4397   2.566   0.730   2.915
 1465SOL     OW 4398   3.590   0.935   3.716
 1465SOL    HW1 4399   3.544   0.928   3.627
 1465SOL    HW2 4400   3.528   0.979   3.782
 1466SOL     OW 4401   2.169   0.063   2.480
 1466SOL    HW1 4402   2.158   0.157   2.513
 1466SOL    HW2 4403   2.164   0.000   2.557
 1467SOL     OW 4404   3.484   0.367   2.236
 1467SOL    HW1 4405   3.486   0.291   2.300
 1467SOL    HW2 4406   3.436   0.444   2.276
 1468SOL     OW 4407   2.885   0.766   2.828
 1468SOL    HW1 4408   2.900   0.787   2.924
 1468SOL    HW2 4409   2.855   0.671   2.819
 1469SOL     OW 4410   2.842   1.573   3.562
 1469SOL    HW1 4411   2.822   1.617   3.474
 1469SOL    HW2 4412   2.881   1.482   3.546
 1470SOL     OW 4413   3.721   1.518   3.467
 1470SOL    HW1 4414   3.735   1.545   3.372
 1470SOL    HW2 4415   3.804   1.540   3.520
 1471SOL     OW 4416   2.212   0.898   3.666
 1471SOL    HW1 4417   2.288   0.942   3.714
 1471SOL    HW2 4418   2.247   0.851   3.584
 1472SOL     OW 4419   3.402   0.274   1.987
 1472SOL    HW1 4420   3.341   0.199   2.010
 1472SOL    HW2 4421   3.424   0.326   2.070
 1473SOL     OW 4422   3.165   0.838   1.904
 1473SOL    HW1 4423   3.199   0.745   1.919
 1473SOL    HW2 4424   3.183   0.865   1.809
 1474SOL     OW 4425   2.930   1.333   2.711
 1474SOL    HW1 4426   2.937   1.249   2.656
 1474SOL    HW2 4427   2.992   1.402   2.675
 1475SOL     OW 4428   2.181   0.810   2.811
 1475SOL    HW1 4429   2.274   0.846   2.816
 1475SOL    HW2 4430   2.175   0.725   2.863
 1476SOL     OW 4431   2.201   0.509   2.868
 1476SOL    HW1 4432   2.149   0.426   2.851
 1476SOL    HW2 4433   2.278   0.514   2.804
 1477SOL     OW 4434   3.000   0.380   3.540
 1477SOL    HW1 4435   2.955   0.443   3.604
 1477SOL    HW2 4436   3.093   0.411   3.523
 1478SOL     OW 4437   3.022   0.207   3.339
 1478SOL    HW1 4438   3.022   0.271   3.416
 1478SOL    HW2 4439   3.050   0.255   3.256
 1479SOL     OW 4440   1.870   1.326   2.062
 1479SOL    HW1 4441   1.777   1.347   2.031
 1479SOL    HW2 4442   1.880   1.227   2.075
 1480SOL     OW 4443   1.950   1.801   2.789
 1480SOL    HW1 4444   1.908   1.715   2.762
 1480SOL    HW2 4445   2.044   1.804   2.755
 1481SOL     OW 4446   2.366   1.568   2.772
 1481SOL    HW1 4447   2.432   1.642   2.781
 1481SOL    HW2 4448   2.410   1.489   2.730
 1482SOL     OW 4449   2.864   0.796   3.100
 1482SOL    HW1 4450   2.905   0.764   3.186
 1482SOL    HW2 4451   2.768   0.769   3.097
 1483SOL     OW 4452   1.902   0.544   2.976
 1483SOL    HW1 4453   1.987   0.511   2.935
 1483SOL    HW2 4454   1.915   0.559   3.074
 1484SOL     OW 4455   2.051   0.520   3.584
 1484SOL    HW1 4456   2.110   0.480   3.514
 1484SOL    HW2 4457   1.993   0.591   3.543
 1485SOL     OW 4458   3.231   0.950   3.522
 1485SOL    HW1 4459   3.270   1.039   3.542
 1485SOL    HW2 4460   3.241   0.930   3.425
 1486SOL     OW 4461   2.677   0.572   2.187
 1486SOL    HW1 4462   2.684   0.483   2.141
 1486SOL    HW2 4463   2.583   0.606   2.179
 1487SOL     OW 4464   3.519   0.604   3.068
 1487SOL    HW1 4465   3.481   0.535   3.130
 1487SOL    HW2 4466   3.601   0.568   3.024
 1488SOL     OW 4467   2.114   1.564   3.606
 1488SOL    HW1 4468   2.084   1.621   3.682
 1488SOL    HW2 4469   2.107   1.467   3.632
 1489SOL     OW 4470   2.533   0.464   3.131
 1489SOL    HW1 4471   2.499   0.375   3.101
 1489SOL    HW2 4472   2.559   0.518   3.051
 1490SOL     OW 4473   2.792   1.678   3.327
 1490SOL    HW1 4474   2.768   1.660   3.232
 1490SOL    HW2 4475   2.822   1.772   3.337
 1491SOL     OW 4476   2.335   0.500   2.053
 1491SOL    HW1 4477   2.396   0.580   2.057
 1491SOL    HW2 4478   2.240   0.531   2.060
 1492SOL     OW 4479   2.021   1.137   3.328
 1492SOL    HW1 4480   2.043   1.076   3.404
 1492SOL    HW2 4481   2.031   1.088   3.242
 1493SOL     OW 4482   3.209   1.059   3.096
 1493SOL    HW1 4483   3.233   0.996   3.022
 1493SOL    HW2 4484   3.119   1.099   3.078
 1494SOL     OW 4485   3.164   0.855   2.171
 1494SOL    HW1 4486   3.078   0.824   2.213
 1494SOL    HW2 4487   3.160   0.841   2.072
 1495SOL     OW 4488   3.621   1.747   3.016
 1495SOL    HW1 4489   3.682   1.777   2.943
 1495SOL    HW2 4490   3.583   1.658   2.994
 1496SOL     OW 4491   3.114   1.731   2.990
 1496SOL    HW1 4492   3.198   1.736   2.936
 1496SOL    HW2 4493   3.091   1.635   3.008
 1497SOL     OW 4494   1.945   1.258   2.884
 1497SOL    HW1 4495   1.940   1.257   2.984
 1497SOL    HW2 4496   1.862   1.217   2.846
 1498SOL     OW 4497   2.550   1.662   3.578
 1498SOL    HW1 4498   2.494   1.743   3.587
 1498SOL    HW2 4499   2.602   1.666   3.492
 1499SOL     OW 4500   3.588   0.135   2.385
 1499SOL    HW1 4501   3.661   0.118   2.318
 1499SOL    HW2 4502   3.557   0.048   2.423
 1500SOL     OW 4503   3.250   1.573   2.339
 1500SOL    HW1 4504   3.317   1.585   2.265
 1500SOL    HW2 4505   3.210   1.662   2.362
 1501SOL     OW 4506   1.992   1.794   3.713
 1501SOL    HW1 4507   1.951   1.720   3.766
 1501SOL    HW2 4508   2.056   1.845   3.771
 1502SOL     OW 4509   3.142   0.927   2.534
 1502SOL    HW1 4510   3.202   0.846   2.536
 1502SOL    HW2 4511   3.182   0.996   2.474
 1503SOL     OW 4512   2.692   1.273   3.284
 1503SOL    HW1 4513   2.687   1.306   3.379
 1503SOL    HW2 4514   2.606   1.292   3.238
 1504SOL     OW 4515   2.534   1.616   2.016
 1504SOL    HW1 4516   2.543   1.626   1.917
 1504SOL    HW2 4517   2.494   1.527   2.037
 1505SOL     OW 4518   3.512   1.720   3.256
 1505SOL    HW1 4519   3.565   1.730   3.172
 1505SOL    HW2 4520   3.485   1.810   3.290
 1506SOL     OW 4521   3.703   0.175   2.825
 1506SOL    HW1 4522   3.742   0.090   2.789
 1506SOL    HW2 4523   3.605   0.177   2.806
 1507SOL     OW 4524   2.125   0.326   2.582
 1507SOL    HW1 4525   2.046   0.377   2.548
 1507SOL    HW2 4526   2.116   0.311   2.680
 1508SOL     OW 4527   3.056   1.612   1.893
 1508SOL    HW1 4528   3.062   1.519   1.930
 1508SOL    HW2 4529   2.997   1.612   1.813
 1509SOL     OW 4530   2.684   1.002   3.234
 1509SOL    HW1 4531   2.724   1.001   3.142
 1509SOL    HW2 4532   2.694   1.094   3.274
 1510SOL     OW 4533   2.778   0.910   2.153
 1510SOL    HW1 4534   2.841   0.948   2.085
 1510SOL    HW2 4535   2.818   0.827   2.192
 1511SOL     OW 4536   3.366   1.607   1.906
 1511SOL    HW1 4537   3.274   1.644   1.913
 1511SOL    HW2 4538   3.404   1.627   1.816
 1512SOL     OW 4539   2.234   1.288   3.352
 1512SOL    HW1 4540   2.221   1.381   3.318
 1512SOL    HW2 4541   2.150   1.236   3.339
 1513SOL     OW 4542   3.476   1.292   3.151
 1513SOL    HW1 4543   3.536   1.295   3.231
 1513SOL    HW2 4544   3.401   1.356   3.164
 1514SOL     OW 4545   2.901   1.098   2.558
 1514SOL    HW1 4546   2.831   1.051   2.612
 1514SOL    HW2 4547   2.960   1.030   2.515
 1515SOL     OW 4548   2.876   0.236   2.833
 1515SOL    HW1 4549   2.868   0.200   2.740
 1515SOL    HW2 4550   2.874   0.160   2.898
 1516SOL     OW 4551   2.452   1.487   2.353
 1516SOL    HW1 4552   2.494   1.429   2.283
 1516SOL    HW2 4553   2.408   1.566   2.309
 1517SOL     OW 4554   3.571   0.385   3.243
 1517SOL    HW1 4555   3.644   0.454   3.247
 1517SOL    HW2 4556   3.599   0.310   3.184
 1518SOL     OW 4557   2.117   1.348   2.152
 1518SOL    HW1 4558   2.021   1.349   2.125
 1518SOL    HW2 4559   2.129   1.401   2.236
 1519SOL     OW 4560   1.967   1.013   3.588
 1519SOL    HW1 4561   1.890   0.980   3.642
 1519SOL    HW2 4562   2.052   0.983   3.630
 1520SOL     OW 4563   2.534   0.203   3.351
 1520SOL    HW1 4564   2.624   0.187   3.311
 1520SOL    HW2 4565   2.542   0.208   3.450
 1521SOL     OW 4566   1.937   0.345   1.895
 1521SOL    HW1 4567   1.845   0.317   1.866
 1521SOL    HW2 4568   1.968   0.422   1.839
 1522SOL     OW 4569   3.302   0.856   3.260
 1522SOL    HW1 4570   3.245   0.908   3.197
 1522SOL    HW2 4571   3.398   0.868   3.236
 1523SOL     OW 4572   1.934   0.166   2.180
 1523SOL    HW1 4573   1.917   0.249   2.126
 1523SOL    HW2 4574   2.024   0.129   2.158
 1524SOL     OW 4575   3.045   1.335   1.981
 1524SOL    HW1 4576   2.946   1.324   1.983
 1524SOL    HW2 4577   3.079   1.350   2.074
 1525SOL     OW 4578   2.475   0.842   3.293
 1525SOL    HW1 4579   2.531   0.923   3.276
 1525SOL    HW2 4580   2.534   0.762   3.296
 1526SOL     OW 4581   3.355   1.767   2.821
 1526SOL    HW1 4582   3.388   1.831   2.752
 1526SOL    HW2 4583   3.421   1.761   2.896
 1527SOL     OW 4584   2.578   0.565   3.570
 1527SOL    HW1 4585   2.597   0.630   3.644
 1527SOL    HW2 4586   2.638   0.485   3.579
 1528SOL     OW 4587   3.312   1.220   3.495
 1528SOL    HW1 4588   3.303   1.210   3.594
 1528SOL    HW2 4589   3.408   1.213   3.469
 1529SOL     OW 4590   2.252   1.741   3.422
 1529SOL    HW1 4591   2.161   1.782   3.420
 1529SOL    HW2 4592   2.245   1.647   3.454
 1530SOL     OW 4593   3.536   0.883   3.116
 1530SOL    HW1 4594   3.509   0.794   3.079
 1530SOL    HW2 4595   3.537   0.951   3.043
 1531SOL     OW 4596   3.087   0.325   2.311
 1531SOL    HW1 4597   3.152   0.251   2.300
 1531SOL    HW2 4598   3.107   0.375   2.395
 1532SOL     OW 4599   2.456   0.745   2.514
 1532SOL    HW1 4600   2.506   0.830   2.495
 1532SOL    HW2 4601   2.368   0.747   2.466
 1533SOL     OW 4602   3.639   0.342   3.504
 1533SOL    HW1 4603   3.622   0.373   3.410
 1533SOL    HW2 4604   3.555   0.305   3.542
 1534SOL     OW 4605   3.592   0.934   3.379
 1534SOL    HW1 4606   3.630   1.025   3.394
 1534SOL    HW2 4607   3.584   0.917   3.280
 1535SOL     OW 4608   2.721   1.374   1.878
 1535SOL    HW1 4609   2.675   1.389   1.966
 1535SOL    HW2 4610   2.765   1.459   1.848
 1536SOL     OW 4611   2.523   1.790   2.815
 1536SOL    HW1 4612   2.477   1.878   2.802
 1536SOL    HW2 4613   2.622   1.802   2.808
 1537SOL     OW 4614   2.721   0.956   2.723
 1537SOL    HW1 4615   2.775   0.887   2.771
 1537SOL    HW2 4616   2.689   1.025   2.789
 1538SOL     OW 4617   2.945   0.984   1.949
 1538SOL    HW1 4618   2.922   1.037   1.867
 1538SOL    HW2 4619   3.026   0.928   1.930
 1539SOL     OW 4620   3.723   1.569   2.713
 1539SOL    HW1 4621   3.652   1.557   2.643
 1539SOL    HW2 4622   3.724   1.490   2.773
 1540SOL     OW 4623   2.083   1.314   3.706
 1540SOL    HW1 4624   2.018   1.241   3.685
 1540SOL    HW2 4625   2.087   1.328   3.804
 1541SOL     OW 4626   1.941   1.240   2.515
 1541SOL    HW1 4627   1.940   1.193   2.603
 1541SOL    HW2 4628   2.023   1.212   2.464
 1542SOL     OW 4629   2.534   1.391   3.486
 1542SOL    HW1 4630   2.456   1.341   3.524
 1542SOL    HW2 4631   2.531   1.486   3.517
 1543SOL     OW 4632   3.686   0.192   3.089
 1543SOL    HW1 4633   3.682   0.102   3.133
 1543SOL    HW2 4634   3.689   0.181   2.990
 1544SOL     OW 4635   2.290   0.424   2.382
 1544SOL    HW1 4636   2.320   0.352   2.320
 1544SOL    HW2 4637   2.251   0.384   2.465
 1545SOL     OW 4638   3.567   1.487   2.966
 1545SOL    HW1 4639   3.474   1.462   2.939
 1545SOL    HW2 4640   3.593   1.437   3.048
 1546SOL     OW 4641   2.179   0.547   3.142
 1546SOL    HW1 4642   2.217   0.488   3.214
 1546SOL    HW2 4643   2.219   0.521   3.054
 1547SOL     OW 4644   2.674   1.586   2.549
 1547SOL    HW1 4645   2.706   1.596   2.455
 1547SOL    HW2 4646   2.595   1.524   2.551
 1548SOL     OW 4647   3.286   0.214   2.974
 1548SOL    HW1 4648   3.338   0.149   3.029
 1548SOL    HW2 4649   3.237   0.277   3.035
 1549SOL     OW 4650   2.863   0.034   3.016
 1549SOL    HW1 4651   2.800  -0.038   2.985
 1549SOL    HW2 4652   2.956  -0.002   3.016
 1550SOL     OW 4653   2.632   1.330   2.163
 1550SOL    HW1 4654   2.586   1.243   2.180
 1550SOL    HW2 4655   2.723   1.327   2.204
 1551SOL     OW 4656   2.480   1.567   3.146
 1551SOL    HW1 4657   2.475   1.649   3.203
 1551SOL    HW2 4658   2.569   1.564   3.101
 1552SOL     OW 4659   3.214   0.052   2.030
 1552SOL    HW1 4660   3.249   0.011   1.946
 1552SOL    HW2 4661   3.124   0.014   2.050
 1553SOL     OW 4662   3.162   0.453   2.553
 1553SOL    HW1 4663   3.103   0.533   2.557
 1553SOL    HW2 4664   3.177   0.418   2.646
 1554SOL     OW 4665   3.455   0.221   2.744
 1554SOL    HW1 4666   3.371   0.220   2.798
 1554SOL    HW2 4667   3.457   0.304   2.688
 1555SOL     OW 4668   1.901   1.077   2.162
 1555SOL    HW1 4669   2.000   1.066   2.153
 1555SOL    HW2 4670   1.861   0.991   2.194
 1556SOL     OW 4671   2.737   1.646   2.199
 1556SOL    HW1 4672   2.660   1.611   2.145
 1556SOL    HW2 4673   2.705   1.717   2.261
 1557SOL     OW 4674   2.092   0.628   3.837
 1557SOL    HW1 4675   1.999   0.626   3.874
 1557SOL    HW2 4676   2.093   0.589   3.745
 1558SOL     OW 4677   3.617   0.607   3.955
 1558SOL    HW1 4678   3.605   0.594   3.856
 1558SOL    HW2 4679   3.587   0.526   4.004
 1559SOL     OW 4680   2.093   1.713   4.207
 1559SOL    HW1 4681   2.127   1.790   4.261
 1559SOL    HW2 4682   2.137   1.713   4.117
 1560SOL     OW 4683   2.092   1.434   4.262
 1560SOL    HW1 4684   2.066   1.530   4.262
 1560SOL    HW2 4685   2.021   1.380   4.307
 1561SOL     OW 4686   2.468   0.964   3.847
 1561SOL    HW1 4687   2.475   1.048   3.793
 1561SOL    HW2 4688   2.514   0.977   3.935
 1562SOL     OW 4689   3.704   1.767   4.083
 1562SOL    HW1 4690   3.758   1.738   4.163
 1562SOL    HW2 4691   3.734   1.857   4.054
 1563SOL     OW 4692   1.889   1.596   3.841
 1563SOL    HW1 4693   1.870   1.500   3.862
 1563SOL    HW2 4694   1.856   1.654   3.916
 1564SOL     OW 4695   3.551   0.922   4.336
 1564SOL    HW1 4696   3.646   0.893   4.344
 1564SOL    HW2 4697   3.543   0.987   4.261
 1565SOL     OW 4698   3.503   1.108   4.156
 1565SOL    HW1 4699   3.589   1.110   4.104
 1565SOL    HW2 4700   3.517   1.155   4.244
 1566SOL     OW 4701   2.671   0.004   4.226
 1566SOL    HW1 4702   2.711   0.095   4.217
 1566SOL    HW2 4703   2.571   0.012   4.232
 1567SOL     OW 4704   3.387   0.999   3.914
 1567SOL    HW1 4705   3.324   0.923   3.927
 1567SOL    HW2 4706   3.435   1.017   4.000
 1568SOL     OW 4707   2.460   0.729   3.994
 1568SOL    HW1 4708   2.484   0.798   3.926
 1568SOL    HW2 4709   2.382   0.762   4.048
 1569SOL     OW 4710   3.438   1.662   4.031
 1569SOL    HW1 4711   3.527   1.708   4.034
 1569SOL    HW2 4712   3.417   1.638   3.936
 1570SOL     OW 4713   2.727   0.348   3.919
 1570SOL    HW1 4714   2.786   0.411   3.870
 1570SOL    HW2 4715   2.746   0.254   3.890
 1571SOL     OW 4716   2.183   0.943   3.966
 1571SOL    HW1 4717   2.265   0.982   3.924
 1571SOL    HW2 4718   2.156   0.861   3.917
 1572SOL     OW 4719   2.973   1.776   3.961
 1572SOL    HW1 4720   2.913   1.714   4.011
 1572SOL    HW2 4721   3.004   1.732   3.876
 1573SOL     OW 4722   3.494   1.377   3.805
 1573SOL    HW1 4723   3.462   1.471   3.795
 1573SOL    HW2 4724   3.418   1.314   3.793
 1574SOL     OW 4725   2.326   1.743   4.047
 1574SOL    HW1 4726   2.359   1.782   4.133
 1574SOL    HW2 4727   2.402   1.736   3.982
 1575SOL     OW 4728   3.262   0.107   4.150
 1575SOL    HW1 4729   3.238   0.070   4.060
 1575SOL    HW2 4730   3.361   0.123   4.154
 1576SOL     OW 4731   2.244   0.700   4.204
 1576SOL    HW1 4732   2.289   0.610   4.201
 1576SOL    HW2 4733   2.150   0.689   4.237
 1577SOL     OW 4734   2.476   0.122   3.841
 1577SOL    HW1 4735   2.574   0.100   3.848
 1577SOL    HW2 4736   2.445   0.105   3.748
 1578SOL     OW 4737   3.296   1.188   3.765
 1578SOL    HW1 4738   3.328   1.112   3.822
 1578SOL    HW2 4739   3.204   1.215   3.795
 1579SOL     OW 4740   2.159   0.035   3.895
 1579SOL    HW1 4741   2.208   0.119   3.874
 1579SOL    HW2 4742   2.221  -0.030   3.940
 1580SOL     OW 4743   2.797   0.236   4.204
 1580SOL    HW1 4744   2.749   0.277   4.126
 1580SOL    HW2 4745   2.896   0.234   4.185
 1581SOL     OW 4746   2.321   1.152   4.465
 1581SOL    HW1 4747   2.250   1.125   4.530
 1581SOL    HW2 4748   2.295   1.124   4.372
 1582SOL     OW 4749   3.133   1.797   4.315
 1582SOL    HW1 4750   3.177   1.861   4.251
 1582SOL    HW2 4751   3.083   1.849   4.385
 1583SOL     OW 4752   2.894   0.549   3.740
 1583SOL    HW1 4753   2.853   0.631   3.701
 1583SOL    HW2 4754   2.958   0.575   3.813
 1584SOL     OW 4755   3.719   0.833   4.101
 1584SOL    HW1 4756   3.761   0.769   4.165
 1584SOL    HW2 4757   3.681   0.782   4.023
 1585SOL     OW 4758   2.350   1.385   3.898
 1585SOL    HW1 4759   2.263   1.370   3.945
 1585SOL    HW2 4760   2.333   1.411   3.803
 1586SOL     OW 4761   3.252   0.575   3.802
 1586SOL    HW1 4762   3.198   0.554   3.883
 1586SOL    HW2 4763   3.343   0.534   3.811
 1587SOL     OW 4764   2.389   0.256   4.052
 1587SOL    HW1 4765   2.416   0.197   3.977
 1587SOL    HW2 4766   2.389   0.351   4.021
 1588SOL     OW 4767   2.567   1.050   4.092
 1588SOL    HW1 4768   2.553   1.057   4.191
 1588SOL    HW2 4769   2.651   0.999   4.074
 1589SOL     OW 4770   2.229   1.100   4.225
 1589SOL    HW1 4771   2.222   1.183   4.169
 1589SOL    HW2 4772   2.233   1.020   4.165
 1590SOL     OW 4773   3.114   1.348   4.112
 1590SOL    HW1 4774   3.164   1.425   4.152
 1590SOL    HW2 4775   3.019   1.350   4.144
 1591SOL     OW 4776   3.444   0.639   4.196
 1591SOL    HW1 4777   3.413   0.700   4.269
 1591SOL    HW2 4778   3.494   0.691   4.127
 1592SOL     OW 4779   3.071   0.525   3.999
 1592SOL    HW1 4780   3.084   0.441   4.053
 1592SOL    HW2 4781   3.042   0.599   4.059
 1593SOL     OW 4782   3.484   0.367   4.098
 1593SOL    HW1 4783   3.486   0.291   4.162
 1593SOL    HW2 4784   3.436   0.444   4.138
 1594SOL     OW 4785   3.402   0.274   3.849
 1594SOL    HW1 4786   3.341   0.199   3.872
 1594SOL    HW2 4787   3.424   0.326   3.932
 1595SOL     OW 4788   3.165   0.838   3.766
 1595SOL    HW1 4789   3.199   0.745   3.781
 1595SOL    HW2 4790   3.183   0.865   3.671
 1596SOL     OW 4791   1.870   1.326   3.924
 1596SOL    HW1 4792   1.777   1.347   3.893
 1596SOL    HW2 4793   1.880   1.227   3.937
 1597SOL     OW 4794   2.677   0.572   4.049
 1597SOL    HW1 4795   2.684   0.483   4.003
 1597SOL    HW2 4796   2.583   0.606   4.041
 1598SOL     OW 4797   2.335   0.500   3.915
 1598SOL    HW1 4798   2.396   0.580   3.919
 1598SOL    HW2 4799   2.240   0.531   3.922
 1599SOL     OW 4800   3.164   0.855   4.033
 1599SOL    HW1 4801   3.078   0.824   4.075
 1599SOL    HW2 4802   3.160   0.841   3.934
 1600SOL     OW 4803   3.588   0.135   4.247
 1600SOL    HW1 4804   3.661   0.118   4.180
 1600SOL    HW2 4805   3.557   0.048   4.285
 1601SOL     OW 4806   3.250   1.573   4.201
 1601SOL    HW1 4807   3.317   1.585   4.127
 1601SOL    HW2 4808   3.210   1.662   4.224
 1602SOL     OW 4809   2.534   1.616   3.878
 1602SOL    HW1 4810   2.543   1.626   3.779
 1602SOL    HW2 4811   2.494   1.527   3.899
 1603SOL     OW 4812   3.056   1.612   3.755
 1603SOL    HW1 4813   3.062   1.519   3.792
 1603SOL    HW2 4814   2.997   1.612   3.675
 1604SOL     OW 4815   2.778   0.910   4.015
 1604SOL    HW1 4816   2.841   0.948   3.947
 1604SOL    HW2 4817   2.818   0.827   4.054
 1605SOL     OW 4818   3.366   1.607   3.768
 1605SOL    HW1 4819   3.274   1.644   3.775
 1605SOL    HW2 4820   3.404   1.627   3.678
 1606SOL     OW 4821   2.452   1.487   4.215
 1606SOL    HW1 4822   2.494   1.429   4.145
 1606SOL    HW2 4823   2.408   1.566   4.171
 1607SOL     OW 4824   2.117   1.348   4.014
 1607SOL    HW1 4825   2.021   1.349   3.987
 1607SOL    HW2 4826   2.129   1.401   4.098
 1608SOL     OW 4827   1.937   0.345   3.757
 1608SOL    HW1 4828   1.845   0.317   3.728
 1608SOL    HW2 4829   1.968   0.422   3.701
 1609SOL     OW 4830   1.934   0.166   4.042
 1609SOL    HW1 4831   1.917   0.249   3.988
 1609SOL    HW2 4832   2.024   0.129   4.020
 1610SOL     OW 4833   3.045   1.335   3.843
 1610SOL    HW1 4834   2.946   1.324   3.845
 1610SOL    HW2 4835   3.079   1.350   3.936
 1611SOL     OW 4836   3.087   0.325   4.173
 1611SOL    HW1 4837   3.152   0.251   4.162
 1611SOL    HW2 4838   3.107   0.375   4.257
 1612SOL     OW 4839   2.456   0.745   4.376
 1612SOL    HW1 4840   2.506   0.830   4.357
 1612SOL    HW2 4841   2.368   0.747   4.328
 1613SOL     OW 4842   2.721   1.374   3.740
 1613SOL    HW1 4843   2.675   1.389   3.828
 1613SOL    HW2 4844   2.765   1.459   3.710
 1614SOL     OW 4845   2.945   0.984   3.811
 1614SOL    HW1 4846   2.922   1.037   3.729
 1614SOL    HW2 4847   3.026   0.928   3.792
 1615SOL     OW 4848   2.290   0.424   4.244
 1615SOL    HW1 4849   2.320   0.352   4.182
 1615SOL    HW2 4850   2.251   0.384   4.327
 1616SOL     OW 4851   2.632   1.330   4.025
 1616SOL    HW1 4852   2.586   1.243   4.042
 1616SOL    HW2 4853   2.723   1.327   4.066
 1617SOL     OW 4854   3.214   0.052   3.892
 1617SOL    HW1 4855   3.249   0.011   3.808
 1617SOL    HW2 4856   3.124   0.014   3.912
 1618SOL     OW 4857   1.901   1.077   4.024
 1618SOL    HW1 4858   2.000   1.066   4.015
 1618SOL    HW2 4859   1.861   0.991   4.056
 1619SOL     OW 4860   2.737   1.646   4.061
 1619SOL    HW1 4861   2.660   1.611   4.007
 1619SOL    HW2 4862   2.705   1.717   4.123
 1620SOL     OW 4863   2.092   2.490   0.113
 1620SOL    HW1 4864   1.999   2.488   0.150
 1620SOL    HW2 4865   2.093   2.451   0.021
 1621SOL     OW 4866   2.087   2.137   0.996
 1621SOL    HW1 4867   2.122   2.120   1.088
 1621SOL    HW2 4868   1.999   2.092   0.984
 1622SOL     OW 4869   1.881   2.230   0.647
 1622SOL    HW1 4870   1.799   2.273   0.686
 1622SOL    HW2 4871   1.853   2.157   0.584
 1623SOL     OW 4872   2.431   3.137   1.165
 1623SOL    HW1 4873   2.338   3.130   1.128
 1623SOL    HW2 4874   2.442   3.226   1.209
 1624SOL     OW 4875   3.417   3.373   0.703
 1624SOL    HW1 4876   3.360   3.357   0.784
 1624SOL    HW2 4877   3.358   3.383   0.623
 1625SOL     OW 4878   2.997   2.565   0.717
 1625SOL    HW1 4879   3.054   2.643   0.692
 1625SOL    HW2 4880   2.937   2.591   0.793
 1626SOL     OW 4881   3.617   2.469   0.231
 1626SOL    HW1 4882   3.605   2.456   0.132
 1626SOL    HW2 4883   3.587   2.388   0.280
 1627SOL     OW 4884   2.630   3.006   1.023
 1627SOL    HW1 4885   2.552   3.023   1.083
 1627SOL    HW2 4886   2.664   3.093   0.987
 1628SOL     OW 4887   2.712   2.660   1.823
 1628SOL    HW1 4888   2.708   2.736   1.888
 1628SOL    HW2 4889   2.734   2.696   1.732
 1629SOL     OW 4890   2.547   2.874   0.665
 1629SOL    HW1 4891   2.616   2.858   0.735
 1629SOL    HW2 4892   2.474   2.931   0.703
 1630SOL     OW 4893   2.548   3.023   1.803
 1630SOL    HW1 4894   2.608   3.102   1.817
 1630SOL    HW2 4895   2.462   3.054   1.762
 1631SOL     OW 4896   2.197   3.297   1.061
 1631SOL    HW1 4897   2.119   3.266   1.008
 1631SOL    HW2 4898   2.255   3.355   1.004
 1632SOL     OW 4899   3.322   3.367   1.339
 1632SOL    HW1 4900   3.346   3.461   1.365
 1632SOL    HW2 4901   3.306   3.313   1.421
 1633SOL     OW 4902   2.300   2.254   1.499
 1633SOL    HW1 4903   2.382   2.198   1.508
 1633SOL    HW2 4904   2.219   2.196   1.503
 1634SOL     OW 4905   3.465   2.309   0.737
 1634SOL    HW1 4906   3.391   2.355   0.687
 1634SOL    HW2 4907   3.516   2.377   0.790
 1635SOL     OW 4908   2.093   3.575   0.483
 1635SOL    HW1 4909   2.127   3.652   0.537
 1635SOL    HW2 4910   2.137   3.575   0.393
 1636SOL     OW 4911   2.989   3.203   1.690
 1636SOL    HW1 4912   3.036   3.203   1.778
 1636SOL    HW2 4913   2.941   3.116   1.679
 1637SOL     OW 4914   2.092   3.296   0.538
 1637SOL    HW1 4915   2.066   3.392   0.538
 1637SOL    HW2 4916   2.021   3.242   0.583
 1638SOL     OW 4917   2.102   2.953   0.886
 1638SOL    HW1 4918   2.116   2.869   0.938
 1638SOL    HW2 4919   2.047   3.017   0.941
 1639SOL     OW 4920   2.482   3.648   1.439
 1639SOL    HW1 4921   2.390   3.631   1.474
 1639SOL    HW2 4922   2.510   3.740   1.465
 1640SOL     OW 4923   2.468   2.826   0.123
 1640SOL    HW1 4924   2.475   2.910   0.069
 1640SOL    HW2 4925   2.514   2.839   0.211
 1641SOL     OW 4926   3.456   1.976   1.480
 1641SOL    HW1 4927   3.438   2.043   1.408
 1641SOL    HW2 4928   3.453   2.022   1.569
 1642SOL     OW 4929   1.984   2.505   0.563
 1642SOL    HW1 4930   1.939   2.417   0.580
 1642SOL    HW2 4931   1.983   2.559   0.647
 1643SOL     OW 4932   3.704   3.629   0.359
 1643SOL    HW1 4933   3.758   3.600   0.439
 1643SOL    HW2 4934   3.734   3.719   0.330
 1644SOL     OW 4935   1.889   3.458   0.117
 1644SOL    HW1 4936   1.870   3.362   0.138
 1644SOL    HW2 4937   1.856   3.516   0.192
 1645SOL     OW 4938   3.551   2.784   0.612
 1645SOL    HW1 4939   3.646   2.755   0.620
 1645SOL    HW2 4940   3.543   2.849   0.537
 1646SOL     OW 4941   3.503   2.970   0.432
 1646SOL    HW1 4942   3.589   2.972   0.380
 1646SOL    HW2 4943   3.517   3.017   0.520
 1647SOL     OW 4944   1.975   2.599   1.597
 1647SOL    HW1 4945   2.063   2.586   1.642
 1647SOL    HW2 4946   1.962   2.696   1.575
 1648SOL     OW 4947   2.475   3.227   0.726
 1648SOL    HW1 4948   2.426   3.140   0.735
 1648SOL    HW2 4949   2.452   3.270   0.639
 1649SOL     OW 4950   3.155   3.090   1.423
 1649SOL    HW1 4951   3.192   3.017   1.365
 1649SOL    HW2 4952   3.207   3.095   1.508
 1650SOL     OW 4953   2.671   1.866   0.502
 1650SOL    HW1 4954   2.711   1.957   0.493
 1650SOL    HW2 4955   2.571   1.874   0.508
 1651SOL     OW 4956   2.059   2.838   1.264
 1651SOL    HW1 4957   2.148   2.793   1.250
 1651SOL    HW2 4958   1.986   2.773   1.245
 1652SOL     OW 4959   3.387   2.861   0.190
 1652SOL    HW1 4960   3.324   2.785   0.203
 1652SOL    HW2 4961   3.435   2.879   0.276
 1653SOL     OW 4962   3.049   3.654   1.616
 1653SOL    HW1 4963   3.073   3.714   1.540
 1653SOL    HW2 4964   3.056   3.559   1.586
 1654SOL     OW 4965   2.179   2.113   1.801
 1654SOL    HW1 4966   2.250   2.184   1.807
 1654SOL    HW2 4967   2.091   2.152   1.829
 1655SOL     OW 4968   3.328   3.279   0.953
 1655SOL    HW1 4969   3.269   3.285   1.033
 1655SOL    HW2 4970   3.313   3.191   0.907
 1656SOL     OW 4971   3.529   3.576   0.572
 1656SOL    HW1 4972   3.488   3.553   0.484
 1656SOL    HW2 4973   3.511   3.502   0.637
 1657SOL     OW 4974   2.460   2.591   0.270
 1657SOL    HW1 4975   2.484   2.660   0.202
 1657SOL    HW2 4976   2.382   2.624   0.324
 1658SOL     OW 4977   3.143   2.207   0.944
 1658SOL    HW1 4978   3.057   2.157   0.931
 1658SOL    HW2 4979   3.205   2.153   1.000
 1659SOL     OW 4980   3.438   3.524   0.307
 1659SOL    HW1 4981   3.527   3.570   0.310
 1659SOL    HW2 4982   3.417   3.500   0.212
 1660SOL     OW 4983   2.669   2.467   1.465
 1660SOL    HW1 4984   2.622   2.464   1.554
 1660SOL    HW2 4985   2.618   2.412   1.399
 1661SOL     OW 4986   3.256   2.331   1.674
 1661SOL    HW1 4987   3.236   2.374   1.762
 1661SOL    HW2 4988   3.334   2.269   1.683
 1662SOL     OW 4989   2.835   2.752   1.572
 1662SOL    HW1 4990   2.881   2.668   1.543
 1662SOL    HW2 4991   2.779   2.786   1.497
 1663SOL     OW 4992   2.853   2.272   1.242
 1663SOL    HW1 4993   2.776   2.306   1.296
 1663SOL    HW2 4994   2.819   2.221   1.163
 1664SOL     OW 4995   2.903   2.563   0.429
 1664SOL    HW1 4996   2.929   2.559   0.525
 1664SOL    HW2 4997   2.818   2.512   0.415
 1665SOL     OW 4998   1.938   2.673   0.789
 1665SOL    HW1 4999   2.037   2.661   0.798
 1665SOL    HW2 5000   1.914   2.768   0.810
 1666SOL     OW 5001   1.992   3.683   1.571
 1666SOL    HW1 5002   1.982   3.668   1.670
 1666SOL    HW2 5003   1.906   3.719   1.535
 1667SOL     OW 5004   2.727   2.210   0.195
 1667SOL    HW1 5005   2.786   2.273   0.146
 1667SOL    HW2 5006   2.746   2.116   0.166
 1668SOL     OW 5007   3.581   2.447   1.831
 1668SOL    HW1 5008   3.555   2.536   1.795
 1668SOL    HW2 5009   3.579   2.379   1.758
 1669SOL     OW 5010   3.224   3.006   0.545
 1669SOL    HW1 5011   3.307   2.977   0.497
 1669SOL    HW2 5012   3.175   3.073   0.489
 1670SOL     OW 5013   2.412   2.058   0.885
 1670SOL    HW1 5014   2.407   2.053   0.985
 1670SOL    HW2 5015   2.414   2.154   0.856
 1671SOL     OW 5016   2.870   3.318   0.477
 1671SOL    HW1 5017   2.824   3.390   0.425
 1671SOL    HW2 5018   2.866   3.338   0.575
 1672SOL     OW 5019   2.213   3.663   0.853
 1672SOL    HW1 5020   2.263   3.577   0.859
 1672SOL    HW2 5021   2.278   3.740   0.850
 1673SOL     OW 5022   3.657   2.928   0.873
 1673SOL    HW1 5023   3.595   2.913   0.797
 1673SOL    HW2 5024   3.605   2.939   0.958
 1674SOL     OW 5025   3.089   3.412   1.506
 1674SOL    HW1 5026   3.095   3.335   1.570
 1674SOL    HW2 5027   3.037   3.386   1.426
 1675SOL     OW 5028   2.183   2.805   0.242
 1675SOL    HW1 5029   2.265   2.844   0.200
 1675SOL    HW2 5030   2.156   2.723   0.193
 1676SOL     OW 5031   3.320   2.597   0.728
 1676SOL    HW1 5032   3.315   2.532   0.803
 1676SOL    HW2 5033   3.400   2.656   0.741
 1677SOL     OW 5034   2.323   3.128   1.727
 1677SOL    HW1 5035   2.273   3.129   1.641
 1677SOL    HW2 5036   2.260   3.110   1.803
 1678SOL     OW 5037   2.973   3.638   0.237
 1678SOL    HW1 5038   2.913   3.576   0.287
 1678SOL    HW2 5039   3.004   3.594   0.152
 1679SOL     OW 5040   2.064   2.147   1.498
 1679SOL    HW1 5041   1.984   2.207   1.485
 1679SOL    HW2 5042   2.054   2.098   1.584
 1680SOL     OW 5043   3.494   3.239   0.081
 1680SOL    HW1 5044   3.462   3.333   0.071
 1680SOL    HW2 5045   3.418   3.176   0.069
 1681SOL     OW 5046   2.326   3.605   0.323
 1681SOL    HW1 5047   2.359   3.644   0.409
 1681SOL    HW2 5048   2.402   3.598   0.258
 1682SOL     OW 5049   3.262   1.969   0.426
 1682SOL    HW1 5050   3.238   1.932   0.336
 1682SOL    HW2 5051   3.361   1.985   0.430
 1683SOL     OW 5052   2.111   3.647   1.241
 1683SOL    HW1 5053   2.168   3.582   1.291
 1683SOL    HW2 5054   2.095   3.614   1.148
 1684SOL     OW 5055   2.802   3.560   0.904
 1684SOL    HW1 5056   2.882   3.503   0.925
 1684SOL    HW2 5057   2.753   3.520   0.827
 1685SOL     OW 5058   2.244   2.562   0.480
 1685SOL    HW1 5059   2.289   2.472   0.477
 1685SOL    HW2 5060   2.150   2.551   0.513
 1686SOL     OW 5061   3.409   2.084   1.729
 1686SOL    HW1 5062   3.404   2.121   1.821
 1686SOL    HW2 5063   3.337   2.015   1.717
 1687SOL     OW 5064   2.476   1.984   0.117
 1687SOL    HW1 5065   2.574   1.962   0.124
 1687SOL    HW2 5066   2.445   1.967   0.024
 1688SOL     OW 5067   2.643   2.126   1.749
 1688SOL    HW1 5068   2.710   2.065   1.792
 1688SOL    HW2 5069   2.570   2.145   1.814
 1689SOL     OW 5070   2.750   3.376   1.195
 1689SOL    HW1 5071   2.727   3.351   1.101
 1689SOL    HW2 5072   2.811   3.307   1.234
 1690SOL     OW 5073   3.213   2.452   1.433
 1690SOL    HW1 5074   3.241   2.409   1.518
 1690SOL    HW2 5075   3.238   2.548   1.434
 1691SOL     OW 5076   2.665   3.264   0.924
 1691SOL    HW1 5077   2.755   3.278   0.882
 1691SOL    HW2 5078   2.594   3.266   0.853
 1692SOL     OW 5079   2.784   2.365   0.899
 1692SOL    HW1 5080   2.759   2.356   0.803
 1692SOL    HW2 5081   2.832   2.283   0.930
 1693SOL     OW 5082   2.401   1.926   0.512
 1693SOL    HW1 5083   2.320   1.927   0.570
 1693SOL    HW2 5084   2.404   2.009   0.457
 1694SOL     OW 5085   3.296   3.050   0.041
 1694SOL    HW1 5086   3.328   2.974   0.098
 1694SOL    HW2 5087   3.204   3.077   0.071
 1695SOL     OW 5088   2.159   1.897   0.171
 1695SOL    HW1 5089   2.208   1.981   0.150
 1695SOL    HW2 5090   2.221   1.832   0.216
 1696SOL     OW 5091   2.797   2.098   0.480
 1696SOL    HW1 5092   2.749   2.139   0.402
 1696SOL    HW2 5093   2.896   2.096   0.461
 1697SOL     OW 5094   2.938   2.545   1.464
 1697SOL    HW1 5095   2.858   2.484   1.467
 1697SOL    HW2 5096   3.019   2.492   1.440
 1698SOL     OW 5097   3.089   3.432   0.793
 1698SOL    HW1 5098   3.110   3.506   0.728
 1698SOL    HW2 5099   3.157   3.432   0.866
 1699SOL     OW 5100   2.321   3.014   0.741
 1699SOL    HW1 5101   2.250   2.987   0.806
 1699SOL    HW2 5102   2.295   2.986   0.648
 1700SOL     OW 5103   3.133   3.659   0.591
 1700SOL    HW1 5104   3.177   3.723   0.527
 1700SOL    HW2 5105   3.083   3.711   0.661
 1701SOL     OW 5106   2.894   2.411   0.016
 1701SOL    HW1 5107   2.853   2.493  -0.023
 1701SOL    HW2 5108   2.958   2.437   0.089
 1702SOL     OW 5109   1.940   2.418   1.386
 1702SOL    HW1 5110   2.032   2.417   1.345
 1702SOL    HW2 5111   1.934   2.492   1.453
 1703SOL     OW 5112   2.423   2.084   1.147
 1703SOL    HW1 5113   2.461   2.000   1.184
 1703SOL    HW2 5114   2.335   2.103   1.191
 1704SOL     OW 5115   2.728   2.316   0.642
 1704SOL    HW1 5116   2.696   2.388   0.580
 1704SOL    HW2 5117   2.752   2.235   0.589
 1705SOL     OW 5118   2.879   1.901   0.753
 1705SOL    HW1 5119   2.807   1.906   0.684
 1705SOL    HW2 5120   2.855   1.832   0.822
 1706SOL     OW 5121   3.291   3.035   0.867
 1706SOL    HW1 5122   3.236   2.951   0.860
 1706SOL    HW2 5123   3.317   3.064   0.775
 1707SOL     OW 5124   3.328   2.452   0.992
 1707SOL    HW1 5125   3.298   2.357   0.999
 1707SOL    HW2 5126   3.401   2.468   1.058
 1708SOL     OW 5127   3.719   2.695   0.377
 1708SOL    HW1 5128   3.761   2.631   0.441
 1708SOL    HW2 5129   3.681   2.644   0.299
 1709SOL     OW 5130   2.350   3.247   0.174
 1709SOL    HW1 5131   2.263   3.232   0.221
 1709SOL    HW2 5132   2.333   3.273   0.079
 1710SOL     OW 5133   3.526   3.142   0.657
 1710SOL    HW1 5134   3.625   3.150   0.671
 1710SOL    HW2 5135   3.481   3.226   0.688
 1711SOL     OW 5136   3.252   2.437   0.078
 1711SOL    HW1 5137   3.198   2.416   0.159
 1711SOL    HW2 5138   3.343   2.396   0.087
 1712SOL     OW 5139   2.389   2.118   0.328
 1712SOL    HW1 5140   2.416   2.059   0.253
 1712SOL    HW2 5141   2.389   2.213   0.297
 1713SOL     OW 5142   3.616   3.085   1.588
 1713SOL    HW1 5143   3.707   3.046   1.575
 1713SOL    HW2 5144   3.624   3.181   1.612
 1714SOL     OW 5145   2.926   3.209   1.340
 1714SOL    HW1 5146   2.846   3.186   1.395
 1714SOL    HW2 5147   3.009   3.183   1.389
 1715SOL     OW 5148   3.454   3.491   1.625
 1715SOL    HW1 5149   3.481   3.525   1.535
 1715SOL    HW2 5150   3.533   3.453   1.671
 1716SOL     OW 5151   2.973   3.057   1.100
 1716SOL    HW1 5152   2.933   3.101   1.181
 1716SOL    HW2 5153   2.932   3.094   1.017
 1717SOL     OW 5154   3.500   2.961   1.079
 1717SOL    HW1 5155   3.505   3.042   1.138
 1717SOL    HW2 5156   3.414   2.963   1.028
 1718SOL     OW 5157   2.777   1.951   1.402
 1718SOL    HW1 5158   2.802   1.931   1.307
 1718SOL    HW2 5159   2.849   2.007   1.444
 1719SOL     OW 5160   2.842   2.978   1.719
 1719SOL    HW1 5161   2.743   2.984   1.729
 1719SOL    HW2 5162   2.865   2.898   1.663
 1720SOL     OW 5163   2.567   2.912   0.368
 1720SOL    HW1 5164   2.553   2.919   0.467
 1720SOL    HW2 5165   2.651   2.861   0.350
 1721SOL     OW 5166   2.272   2.675   1.251
 1721SOL    HW1 5167   2.358   2.687   1.301
 1721SOL    HW2 5168   2.230   2.588   1.278
 1722SOL     OW 5169   3.136   2.248   1.262
 1722SOL    HW1 5170   3.157   2.322   1.326
 1722SOL    HW2 5171   3.047   2.265   1.219
 1723SOL     OW 5172   1.926   3.426   1.331
 1723SOL    HW1 5173   1.880   3.508   1.297
 1723SOL    HW2 5174   2.024   3.445   1.340
 1724SOL     OW 5175   2.229   2.962   0.501
 1724SOL    HW1 5176   2.222   3.045   0.445
 1724SOL    HW2 5177   2.233   2.882   0.441
 1725SOL     OW 5178   2.428   2.399   0.865
 1725SOL    HW1 5179   2.440   2.465   0.791
 1725SOL    HW2 5180   2.474   2.433   0.948
 1726SOL     OW 5181   3.114   3.210   0.388
 1726SOL    HW1 5182   3.164   3.287   0.428
 1726SOL    HW2 5183   3.019   3.212   0.420
 1727SOL     OW 5184   3.134   3.307   1.142
 1727SOL    HW1 5185   3.181   3.320   1.229
 1727SOL    HW2 5186   3.068   3.233   1.151
 1728SOL     OW 5187   3.444   2.501   0.472
 1728SOL    HW1 5188   3.413   2.562   0.545
 1728SOL    HW2 5189   3.494   2.553   0.403
 1729SOL     OW 5190   2.216   3.372   1.329
 1729SOL    HW1 5191   2.195   3.328   1.242
 1729SOL    HW2 5192   2.313   3.398   1.332
 1730SOL     OW 5193   2.264   2.613   1.598
 1730SOL    HW1 5194   2.332   2.668   1.551
 1730SOL    HW2 5195   2.304   2.525   1.625
 1731SOL     OW 5196   3.449   2.641   1.670
 1731SOL    HW1 5197   3.357   2.679   1.665
 1731SOL    HW2 5198   3.509   2.688   1.605
 1732SOL     OW 5199   2.875   1.967   1.770
 1732SOL    HW1 5200   2.881   2.052   1.718
 1732SOL    HW2 5201   2.907   1.891   1.713
 1733SOL     OW 5202   2.366   1.912   1.740
 1733SOL    HW1 5203   2.324   1.855   1.670
 1733SOL    HW2 5204   2.300   1.981   1.772
 1734SOL     OW 5205   2.435   2.732   1.029
 1734SOL    HW1 5206   2.479   2.821   1.020
 1734SOL    HW2 5207   2.372   2.732   1.106
 1735SOL     OW 5208   3.222   2.724   1.045
 1735SOL    HW1 5209   3.147   2.724   0.979
 1735SOL    HW2 5210   3.259   2.632   1.054
 1736SOL     OW 5211   3.071   2.387   0.275
 1736SOL    HW1 5212   3.084   2.303   0.329
 1736SOL    HW2 5213   3.042   2.461   0.335
 1737SOL     OW 5214   2.169   2.075   1.231
 1737SOL    HW1 5215   2.146   2.112   1.321
 1737SOL    HW2 5216   2.139   1.980   1.225
 1738SOL     OW 5217   1.899   3.172   1.282
 1738SOL    HW1 5218   1.952   3.123   1.350
 1738SOL    HW2 5219   1.921   3.270   1.287
 1739SOL     OW 5220   2.594   2.496   1.064
 1739SOL    HW1 5221   2.653   2.470   0.988
 1739SOL    HW2 5222   2.566   2.592   1.053
 1740SOL     OW 5223   3.590   2.797   1.854
 1740SOL    HW1 5224   3.544   2.790   1.765
 1740SOL    HW2 5225   3.528   2.841   1.920
 1741SOL     OW 5226   2.169   1.925   0.618
 1741SOL    HW1 5227   2.158   2.019   0.651
 1741SOL    HW2 5228   2.164   1.862   0.695
 1742SOL     OW 5229   3.484   2.229   0.374
 1742SOL    HW1 5230   3.486   2.153   0.438
 1742SOL    HW2 5231   3.436   2.306   0.414
 1743SOL     OW 5232   2.885   2.628   0.966
 1743SOL    HW1 5233   2.900   2.649   1.062
 1743SOL    HW2 5234   2.855   2.533   0.957
 1744SOL     OW 5235   2.842   3.435   1.700
 1744SOL    HW1 5236   2.822   3.479   1.612
 1744SOL    HW2 5237   2.881   3.344   1.684
 1745SOL     OW 5238   3.721   3.380   1.605
 1745SOL    HW1 5239   3.735   3.407   1.510
 1745SOL    HW2 5240   3.804   3.402   1.658
 1746SOL     OW 5241   2.212   2.760   1.804
 1746SOL    HW1 5242   2.288   2.804   1.852
 1746SOL    HW2 5243   2.247   2.713   1.722
 1747SOL     OW 5244   3.402   2.136   0.125
 1747SOL    HW1 5245   3.341   2.061   0.148
 1747SOL    HW2 5246   3.424   2.188   0.208
 1748SOL     OW 5247   3.165   2.700   0.042
 1748SOL    HW1 5248   3.199   2.607   0.057
 1748SOL    HW2 5249   3.183   2.727  -0.053
 1749SOL     OW 5250   2.930   3.195   0.849
 1749SOL    HW1 5251   2.937   3.111   0.794
 1749SOL    HW2 5252   2.992   3.264   0.813
 1750SOL     OW 5253   2.181   2.672   0.949
 1750SOL    HW1 5254   2.274   2.708   0.954
 1750SOL    HW2 5255   2.175   2.587   1.001
 1751SOL     OW 5256   2.201   2.371   1.006
 1751SOL    HW1 5257   2.149   2.288   0.989
 1751SOL    HW2 5258   2.278   2.376   0.942
 1752SOL     OW 5259   3.000   2.242   1.678
 1752SOL    HW1 5260   2.955   2.305   1.742
 1752SOL    HW2 5261   3.093   2.273   1.661
 1753SOL     OW 5262   3.022   2.069   1.477
 1753SOL    HW1 5263   3.022   2.133   1.554
 1753SOL    HW2 5264   3.050   2.117   1.394
 1754SOL     OW 5265   1.870   3.188   0.200
 1754SOL    HW1 5266   1.777   3.209   0.169
 1754SOL    HW2 5267   1.880   3.089   0.213
 1755SOL     OW 5268   1.950   3.663   0.927
 1755SOL    HW1 5269   1.908   3.577   0.900
 1755SOL    HW2 5270   2.044   3.666   0.893
 1756SOL     OW 5271   2.366   3.430   0.910
 1756SOL    HW1 5272   2.432   3.504   0.919
 1756SOL    HW2 5273   2.410   3.351   0.868
 1757SOL     OW 5274   2.864   2.658   1.238
 1757SOL    HW1 5275   2.905   2.626   1.324
 1757SOL    HW2 5276   2.768   2.631   1.235
 1758SOL     OW 5277   1.902   2.406   1.114
 1758SOL    HW1 5278   1.987   2.373   1.073
 1758SOL    HW2 5279   1.915   2.421   1.212
 1759SOL     OW 5280   2.051   2.382   1.722
 1759SOL    HW1 5281   2.110   2.342   1.652
 1759SOL    HW2 5282   1.993   2.453   1.681
 1760SOL     OW 5283   3.231   2.812   1.660
 1760SOL    HW1 5284   3.270   2.901   1.680
 1760SOL    HW2 5285   3.241   2.792   1.563
 1761SOL     OW 5286   2.677   2.434   0.325
 1761SOL    HW1 5287   2.684   2.345   0.279
 1761SOL    HW2 5288   2.583   2.468   0.317
 1762SOL     OW 5289   3.519   2.466   1.206
 1762SOL    HW1 5290   3.481   2.397   1.268
 1762SOL    HW2 5291   3.601   2.430   1.162
 1763SOL     OW 5292   2.114   3.426   1.744
 1763SOL    HW1 5293   2.084   3.483   1.820
 1763SOL    HW2 5294   2.107   3.329   1.770
 1764SOL     OW 5295   2.533   2.326   1.269
 1764SOL    HW1 5296   2.499   2.237   1.239
 1764SOL    HW2 5297   2.559   2.380   1.189
 1765SOL     OW 5298   2.792   3.540   1.465
 1765SOL    HW1 5299   2.768   3.522   1.370
 1765SOL    HW2 5300   2.822   3.634   1.475
 1766SOL     OW 5301   2.335   2.362   0.191
 1766SOL    HW1 5302   2.396   2.442   0.195
 1766SOL    HW2 5303   2.240   2.393   0.198
 1767SOL     OW 5304   2.021   2.999   1.466
 1767SOL    HW1 5305   2.043   2.938   1.542
 1767SOL    HW2 5306   2.031   2.950   1.380
 1768SOL     OW 5307   3.209   2.921   1.234
 1768SOL    HW1 5308   3.233   2.858   1.160
 1768SOL    HW2 5309   3.119   2.961   1.216
 1769SOL     OW 5310   3.164   2.717   0.309
 1769SOL    HW1 5311   3.078   2.686   0.351
 1769SOL    HW2 5312   3.160   2.703   0.210
 1770SOL     OW 5313   3.621   3.609   1.154
 1770SOL    HW1 5314   3.682   3.639   1.081
 1770SOL    HW2 5315   3.583   3.520   1.132
 1771SOL     OW 5316   3.114   3.593   1.128
 1771SOL    HW1 5317   3.198   3.598   1.074
 1771SOL    HW2 5318   3.091   3.497   1.146
 1772SOL     OW 5319   1.945   3.120   1.022
 1772SOL    HW1 5320   1.940   3.119   1.122
 1772SOL    HW2 5321   1.862   3.079   0.984
 1773SOL     OW 5322   2.550   3.524   1.716
 1773SOL    HW1 5323   2.494   3.605   1.725
 1773SOL    HW2 5324   2.602   3.528   1.630
 1774SOL     OW 5325   2.765   1.948   0.133
 1774SOL    HW1 5326   2.816   1.949   0.047
 1774SOL    HW2 5327   2.821   1.906   0.204
 1775SOL     OW 5328   3.588   1.997   0.523
 1775SOL    HW1 5329   3.661   1.980   0.456
 1775SOL    HW2 5330   3.557   1.910   0.561
 1776SOL     OW 5331   3.250   3.435   0.477
 1776SOL    HW1 5332   3.317   3.447   0.403
 1776SOL    HW2 5333   3.210   3.524   0.500
 1777SOL     OW 5334   1.992   3.656   1.851
 1777SOL    HW1 5335   1.951   3.582   1.904
 1777SOL    HW2 5336   2.056   3.707   1.909
 1778SOL     OW 5337   3.142   2.789   0.672
 1778SOL    HW1 5338   3.202   2.708   0.674
 1778SOL    HW2 5339   3.182   2.858   0.612
 1779SOL     OW 5340   2.692   3.135   1.422
 1779SOL    HW1 5341   2.687   3.168   1.517
 1779SOL    HW2 5342   2.606   3.154   1.376
 1780SOL     OW 5343   2.534   3.478   0.154
 1780SOL    HW1 5344   2.543   3.488   0.055
 1780SOL    HW2 5345   2.494   3.389   0.175
 1781SOL     OW 5346   3.512   3.582   1.394
 1781SOL    HW1 5347   3.565   3.592   1.310
 1781SOL    HW2 5348   3.485   3.672   1.428
 1782SOL     OW 5349   3.703   2.037   0.963
 1782SOL    HW1 5350   3.742   1.952   0.927
 1782SOL    HW2 5351   3.605   2.039   0.944
 1783SOL     OW 5352   2.125   2.188   0.720
 1783SOL    HW1 5353   2.046   2.239   0.686
 1783SOL    HW2 5354   2.116   2.173   0.818
 1784SOL     OW 5355   3.056   3.474   0.031
 1784SOL    HW1 5356   3.062   3.381   0.068
 1784SOL    HW2 5357   2.997   3.474  -0.049
 1785SOL     OW 5358   2.684   2.864   1.372
 1785SOL    HW1 5359   2.724   2.863   1.280
 1785SOL    HW2 5360   2.694   2.956   1.412
 1786SOL     OW 5361   2.778   2.772   0.291
 1786SOL    HW1 5362   2.841   2.810   0.223
 1786SOL    HW2 5363   2.818   2.689   0.330
 1787SOL     OW 5364   3.366   3.469   0.044
 1787SOL    HW1 5365   3.274   3.506   0.051
 1787SOL    HW2 5366   3.404   3.489  -0.046
 1788SOL     OW 5367   2.234   3.150   1.490
 1788SOL    HW1 5368   2.221   3.243   1.456
 1788SOL    HW2 5369   2.150   3.098   1.477
 1789SOL     OW 5370   3.476   3.154   1.289
 1789SOL    HW1 5371   3.536   3.157   1.369
 1789SOL    HW2 5372   3.401   3.218   1.302
 1790SOL     OW 5373   2.901   2.960   0.696
 1790SOL    HW1 5374   2.831   2.913   0.750
 1790SOL    HW2 5375   2.960   2.892   0.653
 1791SOL     OW 5376   2.876   2.098   0.971
 1791SOL    HW1 5377   2.868   2.062   0.878
 1791SOL    HW2 5378   2.874   2.022   1.036
 1792SOL     OW 5379   2.452   3.349   0.491
 1792SOL    HW1 5380   2.494   3.291   0.421
 1792SOL    HW2 5381   2.408   3.428   0.447
 1793SOL     OW 5382   3.571   2.247   1.381
 1793SOL    HW1 5383   3.644   2.316   1.385
 1793SOL    HW2 5384   3.599   2.172   1.322
 1794SOL     OW 5385   2.117   3.210   0.290
 1794SOL    HW1 5386   2.021   3.211   0.263
 1794SOL    HW2 5387   2.129   3.263   0.374
 1795SOL     OW 5388   1.967   2.875   1.726
 1795SOL    HW1 5389   1.890   2.842   1.780
 1795SOL    HW2 5390   2.052   2.845   1.768
 1796SOL     OW 5391   2.534   2.065   1.489
 1796SOL    HW1 5392   2.624   2.049   1.449
 1796SOL    HW2 5393   2.542   2.070   1.588
 1797SOL     OW 5394   1.937   2.207   0.033
 1797SOL    HW1 5395   1.845   2.179   0.004
 1797SOL    HW2 5396   1.968   2.284  -0.023
 1798SOL     OW 5397   3.302   2.718   1.398
 1798SOL    HW1 5398   3.245   2.770   1.335
 1798SOL    HW2 5399   3.398   2.730   1.374
 1799SOL     OW 5400   1.934   2.028   0.318
 1799SOL    HW1 5401   1.917   2.111   0.264
 1799SOL    HW2 5402   2.024   1.991   0.296
 1800SOL     OW 5403   3.045   3.197   0.119
 1800SOL    HW1 5404   2.946   3.186   0.121
 1800SOL    HW2 5405   3.079   3.212   0.212
 1801SOL     OW 5406   2.475   2.704   1.431
 1801SOL    HW1 5407   2.531   2.785   1.414
 1801SOL    HW2 5408   2.534   2.624   1.434
 1802SOL     OW 5409   3.355   3.629   0.959
 1802SOL    HW1 5410   3.388   3.693   0.890
 1802SOL    HW2 5411   3.421   3.623   1.034
 1803SOL     OW 5412   2.578   2.427   1.708
 1803SOL    HW1 5413   2.597   2.492   1.782
 1803SOL    HW2 5414   2.638   2.347   1.717
 1804SOL     OW 5415   3.312   3.082   1.633
 1804SOL    HW1 5416   3.303   3.072   1.732
 1804SOL    HW2 5417   3.408   3.075   1.607
 1805SOL     OW 5418   2.252   3.603   1.560
 1805SOL    HW1 5419   2.161   3.644   1.558
 1805SOL    HW2 5420   2.245   3.509   1.592
 1806SOL     OW 5421   3.536   2.745   1.254
 1806SOL    HW1 5422   3.509   2.656   1.217
 1806SOL    HW2 5423   3.537   2.813   1.181
 1807SOL     OW 5424   3.087   2.187   0.449
 1807SOL    HW1 5425   3.152   2.113   0.438
 1807SOL    HW2 5426   3.107   2.237   0.533
 1808SOL     OW 5427   2.456   2.607   0.652
 1808SOL    HW1 5428   2.506   2.692   0.633
 1808SOL    HW2 5429   2.368   2.609   0.604
 1809SOL     OW 5430   3.639   2.204   1.642
 1809SOL    HW1 5431   3.622   2.235   1.548
 1809SOL    HW2 5432   3.555   2.167   1.680
 1810SOL     OW 5433   3.592   2.796   1.517
 1810SOL    HW1 5434   3.630   2.887   1.532
 1810SOL    HW2 5435   3.584   2.779   1.418
 1811SOL     OW 5436   2.721   3.236   0.016
 1811SOL    HW1 5437   2.675   3.251   0.104
 1811SOL    HW2 5438   2.765   3.321  -0.014
 1812SOL     OW 5439   2.523   3.652   0.953
 1812SOL    HW1 5440   2.477   3.740   0.940
 1812SOL    HW2 5441   2.622   3.664   0.946
 1813SOL     OW 5442   2.721   2.818   0.861
 1813SOL    HW1 5443   2.775   2.749   0.909
 1813SOL    HW2 5444   2.689   2.887   0.927
 1814SOL     OW 5445   2.945   2.846   0.087
 1814SOL    HW1 5446   2.922   2.899   0.005
 1814SOL    HW2 5447   3.026   2.790   0.068
 1815SOL     OW 5448   3.723   3.431   0.851
 1815SOL    HW1 5449   3.652   3.419   0.781
 1815SOL    HW2 5450   3.724   3.352   0.911
 1816SOL     OW 5451   2.083   3.176   1.844
 1816SOL    HW1 5452   2.018   3.103   1.823
 1816SOL    HW2 5453   2.087   3.190   1.942
 1817SOL     OW 5454   1.941   3.102   0.653
 1817SOL    HW1 5455   1.940   3.055   0.741
 1817SOL    HW2 5456   2.023   3.074   0.602
 1818SOL     OW 5457   2.534   3.253   1.624
 1818SOL    HW1 5458   2.456   3.203   1.662
 1818SOL    HW2 5459   2.531   3.348   1.655
 1819SOL     OW 5460   3.686   2.054   1.227
 1819SOL    HW1 5461   3.682   1.964   1.271
 1819SOL    HW2 5462   3.689   2.043   1.128
 1820SOL     OW 5463   2.290   2.286   0.520
 1820SOL    HW1 5464   2.320   2.214   0.458
 1820SOL    HW2 5465   2.251   2.246   0.603
 1821SOL     OW 5466   3.567   3.349   1.104
 1821SOL    HW1 5467   3.474   3.324   1.077
 1821SOL    HW2 5468   3.593   3.299   1.186
 1822SOL     OW 5469   2.179   2.409   1.280
 1822SOL    HW1 5470   2.217   2.350   1.352
 1822SOL    HW2 5471   2.219   2.383   1.192
 1823SOL     OW 5472   2.674   3.448   0.687
 1823SOL    HW1 5473   2.706   3.458   0.593
 1823SOL    HW2 5474   2.595   3.386   0.689
 1824SOL     OW 5475   3.286   2.076   1.112
 1824SOL    HW1 5476   3.338   2.011   1.167
 1824SOL    HW2 5477   3.237   2.139   1.173
 1825SOL     OW 5478   2.863   1.896   1.154
 1825SOL    HW1 5479   2.800   1.824   1.123
 1825SOL    HW2 5480   2.956   1.860   1.154
 1826SOL     OW 5481   2.632   3.192   0.301
 1826SOL    HW1 5482   2.586   3.105   0.318
 1826SOL    HW2 5483   2.723   3.189   0.342
 1827SOL     OW 5484   2.480   3.429   1.284
 1827SOL    HW1 5485   2.475   3.511   1.341
 1827SOL    HW2 5486   2.569   3.426   1.239
 1828SOL     OW 5487   3.214   1.914   0.168
 1828SOL    HW1 5488   3.249   1.873   0.084
 1828SOL    HW2 5489   3.124   1.876   0.188
 1829SOL     OW 5490   3.162   2.315   0.691
 1829SOL    HW1 5491   3.103   2.395   0.695
 1829SOL    HW2 5492   3.177   2.280   0.784
 1830SOL     OW 5493   3.455   2.083   0.882
 1830SOL    HW1 5494   3.371   2.082   0.936
 1830SOL    HW2 5495   3.457   2.166   0.826
 1831SOL     OW 5496   1.901   2.939   0.300
 1831SOL    HW1 5497   2.000   2.928   0.291
 1831SOL    HW2 5498   1.861   2.853   0.332
 1832SOL     OW 5499   2.737   3.508   0.337
 1832SOL    HW1 5500   2.660   3.473   0.283
 1832SOL    HW2 5501   2.705   3.579   0.399
 1833SOL     OW 5502   2.092   2.490   1.975
 1833SOL    HW1 5503   1.999   2.488   2.012
 1833SOL    HW2 5504   2.093   2.451   1.883
 1834SOL     OW 5505   2.087   2.137   2.858
 1834SOL    HW1 5506   2.122   2.120   2.950
 1834SOL    HW2 5507   1.999   2.092   2.846
 1835SOL     OW 5508   1.881   2.230   2.509
 1835SOL    HW1 5509   1.799   2.273   2.548
 1835SOL    HW2 5510   1.853   2.157   2.446
 1836SOL     OW 5511   2.431   3.137   3.027
 1836SOL    HW1 5512   2.338   3.130   2.990
 1836SOL    HW2 5513   2.442   3.226   3.071
 1837SOL     OW 5514   3.417   3.373   2.565
 1837SOL    HW1 5515   3.360   3.357   2.646
 1837SOL    HW2 5516   3.358   3.383   2.485
 1838SOL     OW 5517   2.997   2.565   2.579
 1838SOL    HW1 5518   3.054   2.643   2.554
 1838SOL    HW2 5519   2.937   2.591   2.655
 1839SOL     OW 5520   3.617   2.469   2.093
 1839SOL    HW1 5521   3.605   2.456   1.994
 1839SOL    HW2 5522   3.587   2.388   2.142
 1840SOL     OW 5523   2.630   3.006   2.885
 1840SOL    HW1 5524   2.552   3.023   2.945
 1840SOL    HW2 5525   2.664   3.093   2.849
 1841SOL     OW 5526   2.712   2.660   3.685
 1841SOL    HW1 5527   2.708   2.736   3.750
 1841SOL    HW2 5528   2.734   2.696   3.594
 1842SOL     OW 5529   2.547   2.874   2.527
 1842SOL    HW1 5530   2.616   2.858   2.597
 1842SOL    HW2 5531   2.474   2.931   2.565
 1843SOL     OW 5532   2.548   3.023   3.665
 1843SOL    HW1 5533   2.608   3.102   3.679
 1843SOL    HW2 5534   2.462   3.054   3.624
 1844SOL     OW 5535   2.197   3.297   2.923
 1844SOL    HW1 5536   2.119   3.266   2.870
 1844SOL    HW2 5537   2.255   3.355   2.866
 1845SOL     OW 5538   3.322   3.367   3.201
 1845SOL    HW1 5539   3.346   3.461   3.227
 1845SOL    HW2 5540   3.306   3.313   3.283
 1846SOL     OW 5541   2.300   2.254   3.361
 1846SOL    HW1 5542   2.382   2.198   3.370
 1846SOL    HW2 5543   2.219   2.196   3.365
 1847SOL     OW 5544   3.465   2.309   2.599
 1847SOL    HW1 5545   3.391   2.355   2.549
 1847SOL    HW2 5546   3.516   2.377   2.652
 1848SOL     OW 5547   2.093   3.575   2.345
 1848SOL    HW1 5548   2.127   3.652   2.399
 1848SOL    HW2 5549   2.137   3.575   2.255
 1849SOL     OW 5550   2.989   3.203   3.552
 1849SOL    HW1 5551   3.036   3.203   3.640
 1849SOL    HW2 5552   2.941   3.116   3.541
 1850SOL     OW 5553   2.092   3.296   2.400
 1850SOL    HW1 5554   2.066   3.392   2.400
 1850SOL    HW2 5555   2.021   3.242   2.445
 1851SOL     OW 5556   2.102   2.953   2.748
 1851SOL    HW1 5557   2.116   2.869   2.800
 1851SOL    HW2 5558   2.047   3.017   2.803
 1852SOL     OW 5559   2.482   3.648   3.301
 1852SOL    HW1 5560   2.390   3.631   3.336
 1852SOL    HW2 5561   2.510   3.740   3.327
 1853SOL     OW 5562   2.468   2.826   1.985
 1853SOL    HW1 5563   2.475   2.910   1.931
 1853SOL    HW2 5564   2.514   2.839   2.073
 1854SOL     OW 5565   3.456   1.976   3.342
 1854SOL    HW1 5566   3.438   2.043   3.270
 1854SOL    HW2 5567   3.453   2.022   3.431
 1855SOL     OW 5568   1.984   2.505   2.425
 1855SOL    HW1 5569   1.939   2.417   2.442
 1855SOL    HW2 5570   1.983   2.559   2.509
 1856SOL     OW 5571   3.704   3.629   2.221
 1856SOL    HW1 5572   3.758   3.600   2.301
 1856SOL    HW2 5573   3.734   3.719   2.192
 1857SOL     OW 5574   1.889   3.458   1.979
 1857SOL    HW1 5575   1.870   3.362   2.000
 1857SOL    HW2 5576   1.856   3.516   2.054
 1858SOL     OW 5577   3.551   2.784   2.474
 1858SOL    HW1 5578   3.646   2.755   2.482
 1858SOL    HW2 5579   3.543   2.849   2.399
 1859SOL     OW 5580   3.503   2.970   2.294
 1859SOL    HW1 5581   3.589   2.972   2.242
 1859SOL    HW2 5582   3.517   3.017   2.382
 1860SOL     OW 5583   1.975   2.599   3.459
 1860SOL    HW1 5584   2.063   2.586   3.504
 1860SOL    HW2 5585   1.962   2.696   3.437
 1861SOL     OW 5586   2.475   3.227   2.588
 1861SOL    HW1 5587   2.426   3.140   2.597
 1861SOL    HW2 5588   2.452   3.270   2.501
 1862SOL     OW 5589   3.155   3.090   3.285
 1862SOL    HW1 5590   3.192   3.017   3.227
 1862SOL    HW2 5591   3.207   3.095   3.370
 1863SOL     OW 5592   2.671   1.866   2.364
 1863SOL    HW1 5593   2.711   1.957   2.355
 1863SOL    HW2 5594   2.571   1.874   2.370
 1864SOL     OW 5595   2.059   2.838   3.126
 1864SOL    HW1 5596   2.148   2.793   3.112
 1864SOL    HW2 5597   1.986   2.773   3.107
 1865SOL     OW 5598   3.387   2.861   2.052
 1865SOL    HW1 5599   3.324   2.785   2.065
 1865SOL    HW2 5600   3.435   2.879   2.138
 1866SOL     OW 5601   3.049   3.654   3.478
 1866SOL    HW1 5602   3.073   3.714   3.402
 1866SOL    HW2 5603   3.056   3.559   3.448
 1867SOL     OW 5604   2.179   2.113   3.663
 1867SOL    HW1 5605   2.250   2.184   3.669
 1867SOL    HW2 5606   2.091   2.152   3.691
 1868SOL     OW 5607   3.328   3.279   2.815
 1868SOL    HW1 5608   3.269   3.285   2.895
 1868SOL    HW2 5609   3.313   3.191   2.769
 1869SOL     OW 5610   3.529   3.576   2.434
 1869SOL    HW1 5611   3.488   3.553   2.346
 1869SOL    HW2 5612   3.511   3.502   2.499
 1870SOL     OW 5613   2.460   2.591   2.132
 1870SOL    HW1 5614   2.484   2.660   2.064
 1870SOL    HW2 5615   2.382   2.624   2.186
 1871SOL     OW 5616   3.143   2.207   2.806
 1871SOL    HW1 5617   3.057   2.157   2.793
 1871SOL    HW2 5618   3.205   2.153   2.862
 1872SOL     OW 5619   3.438   3.524   2.169
 1872SOL    HW1 5620   3.527   3.570   2.172
 1872SOL    HW2 5621   3.417   3.500   2.074
 1873SOL     OW 5622   2.669   2.467   3.327
 1873SOL    HW1 5623   2.622   2.464   3.416
 1873SOL    HW2 5624   2.618   2.412   3.261
 1874SOL     OW 5625   3.256   2.331   3.536
 1874SOL    HW1 5626   3.236   2.374   3.624
 1874SOL    HW2 5627   3.334   2.269   3.545
 1875SOL     OW 5628   2.835   2.752   3.434
 1875SOL    HW1 5629   2.881   2.668   3.405
 1875SOL    HW2 5630   2.779   2.786   3.359
 1876SOL     OW 5631   2.853   2.272   3.104
 1876SOL    HW1 5632   2.776   2.306   3.158
 1876SOL    HW2 5633   2.819   2.221   3.025
 1877SOL     OW 5634   2.903   2.563   2.291
 1877SOL    HW1 5635   2.929   2.559   2.387
 1877SOL    HW2 5636   2.818   2.512   2.277
 1878SOL     OW 5637   1.938   2.673   2.651
 1878SOL    HW1 5638   2.037   2.661   2.660
 1878SOL    HW2 5639   1.914   2.768   2.672
 1879SOL     OW 5640   1.992   3.683   3.433
 1879SOL    HW1 5641   1.982   3.668   3.532
 1879SOL    HW2 5642   1.906   3.719   3.397
 1880SOL     OW 5643   2.727   2.210   2.057
 1880SOL    HW1 5644   2.786   2.273   2.008
 1880SOL    HW2 5645   2.746   2.116   2.028
 1881SOL     OW 5646   3.581   2.447   3.693
 1881SOL    HW1 5647   3.555   2.536   3.657
 1881SOL    HW2 5648   3.579   2.379   3.620
 1882SOL     OW 5649   3.224   3.006   2.407
 1882SOL    HW1 5650   3.307   2.977   2.359
 1882SOL    HW2 5651   3.175   3.073   2.351
 1883SOL     OW 5652   2.412   2.058   2.747
 1883SOL    HW1 5653   2.407   2.053   2.847
 1883SOL    HW2 5654   2.414   2.154   2.718
 1884SOL     OW 5655   2.870   3.318   2.339
 1884SOL    HW1 5656   2.824   3.390   2.287
 1884SOL    HW2 5657   2.866   3.338   2.437
 1885SOL     OW 5658   2.213   3.663   2.715
 1885SOL    HW1 5659   2.263   3.577   2.721
 1885SOL    HW2 5660   2.278   3.740   2.712
 1886SOL     OW 5661   3.657   2.928   2.735
 1886SOL    HW1 5662   3.595   2.913   2.659
 1886SOL    HW2 5663   3.605   2.939   2.820
 1887SOL     OW 5664   3.089   3.412   3.368
 1887SOL    HW1 5665   3.095   3.335   3.432
 1887SOL    HW2 5666   3.037   3.386   3.288
 1888SOL     OW 5667   2.183   2.805   2.104
 1888SOL    HW1 5668   2.265   2.844   2.062
 1888SOL    HW2 5669   2.156   2.723   2.055
 1889SOL     OW 5670   3.320   2.597   2.590
 1889SOL    HW1 5671   3.315   2.532   2.665
 1889SOL    HW2 5672   3.400   2.656   2.603
 1890SOL     OW 5673   2.323   3.128   3.589
 1890SOL    HW1 5674   2.273   3.129   3.503
 1890SOL    HW2 5675   2.260   3.110   3.665
 1891SOL     OW 5676   2.973   3.638   2.099
 1891SOL    HW1 5677   2.913   3.576   2.149
 1891SOL    HW2 5678   3.004   3.594   2.014
 1892SOL     OW 5679   2.064   2.147   3.360
 1892SOL    HW1 5680   1.984   2.207   3.347
 1892SOL    HW2 5681   2.054   2.098   3.446
 1893SOL     OW 5682   3.494   3.239   1.943
 1893SOL    HW1 5683   3.462   3.333   1.933
 1893SOL    HW2 5684   3.418   3.176   1.931
 1894SOL     OW 5685   2.326   3.605   2.185
 1894SOL    HW1 5686   2.359   3.644   2.271
 1894SOL    HW2 5687   2.402   3.598   2.120
 1895SOL     OW 5688   3.262   1.969   2.288
 1895SOL    HW1 5689   3.238   1.932   2.198
 1895SOL    HW2 5690   3.361   1.985   2.292
 1896SOL     OW 5691   2.111   3.647   3.103
 1896SOL    HW1 5692   2.168   3.582   3.153
 1896SOL    HW2 5693   2.095   3.614   3.010
 1897SOL     OW 5694   2.802   3.560   2.766
 1897SOL    HW1 5695   2.882   3.503   2.787
 1897SOL    HW2 5696   2.753   3.520   2.689
 1898SOL     OW 5697   2.244   2.562   2.342
 1898SOL    HW1 5698   2.289   2.472   2.339
 1898SOL    HW2 5699   2.150   2.551   2.375
 1899SOL     OW 5700   3.409   2.084   3.591
 1899SOL    HW1 5701   3.404   2.121   3.683
 1899SOL    HW2 5702   3.337   2.015   3.579
 1900SOL     OW 5703   2.476   1.984   1.979
 1900SOL    HW1 5704   2.574   1.962   1.986
 1900SOL    HW2 5705   2.445   1.967   1.886
 1901SOL     OW 5706   2.643   2.126   3.611
 1901SOL    HW1 5707   2.710   2.065   3.654
 1901SOL    HW2 5708   2.570   2.145   3.676
 1902SOL     OW 5709   2.750   3.376   3.057
 1902SOL    HW1 5710   2.727   3.351   2.963
 1902SOL    HW2 5711   2.811   3.307   3.096
 1903SOL     OW 5712   3.213   2.452   3.295
 1903SOL    HW1 5713   3.241   2.409   3.380
 1903SOL    HW2 5714   3.238   2.548   3.296
 1904SOL     OW 5715   2.665   3.264   2.786
 1904SOL    HW1 5716   2.755   3.278   2.744
 1904SOL    HW2 5717   2.594   3.266   2.715
 1905SOL     OW 5718   2.784   2.365   2.761
 1905SOL    HW1 5719   2.759   2.356   2.665
 1905SOL    HW2 5720   2.832   2.283   2.792
 1906SOL     OW 5721   2.401   1.926   2.374
 1906SOL    HW1 5722   2.320   1.927   2.432
 1906SOL    HW2 5723   2.404   2.009   2.319
 1907SOL     OW 5724   3.296   3.050   1.903
 1907SOL    HW1 5725   3.328   2.974   1.960
 1907SOL    HW2 5726   3.204   3.077   1.933
 1908SOL     OW 5727   2.159   1.897   2.033
 1908SOL    HW1 5728   2.208   1.981   2.012
 1908SOL    HW2 5729   2.221   1.832   2.078
 1909SOL     OW 5730   2.797   2.098   2.342
 1909SOL    HW1 5731   2.749   2.139   2.264
 1909SOL    HW2 5732   2.896   2.096   2.323
 1910SOL     OW 5733   2.938   2.545   3.326
 1910SOL    HW1 5734   2.858   2.484   3.329
 1910SOL    HW2 5735   3.019   2.492   3.302
 1911SOL     OW 5736   3.089   3.432   2.655
 1911SOL    HW1 5737   3.110   3.506   2.590
 1911SOL    HW2 5738   3.157   3.432   2.728
 1912SOL     OW 5739   2.321   3.014   2.603
 1912SOL    HW1 5740   2.250   2.987   2.668
 1912SOL    HW2 5741   2.295   2.986   2.510
 1913SOL     OW 5742   3.133   3.659   2.453
 1913SOL    HW1 5743   3.177   3.723   2.389
 1913SOL    HW2 5744   3.083   3.711   2.523
 1914SOL     OW 5745   2.894   2.411   1.878
 1914SOL    HW1 5746   2.853   2.493   1.839
 1914SOL    HW2 5747   2.958   2.437   1.951
 1915SOL     OW 5748   1.940   2.418   3.248
 1915SOL    HW1 5749   2.032   2.417   3.207
 1915SOL    HW2 5750   1.934   2.492   3.315
 1916SOL     OW 5751   2.423   2.084   3.009
 1916SOL    HW1 5752   2.461   2.000   3.046
 1916SOL    HW2 5753   2.335   2.103   3.053
 1917SOL     OW 5754   2.728   2.316   2.504
 1917SOL    HW1 5755   2.696   2.388   2.442
 1917SOL    HW2 5756   2.752   2.235   2.451
 1918SOL     OW 5757   2.879   1.901   2.615
 1918SOL    HW1 5758   2.807   1.906   2.546
 1918SOL    HW2 5759   2.855   1.832   2.684
 1919SOL     OW 5760   3.291   3.035   2.729
 1919SOL    HW1 5761   3.236   2.951   2.722
 1919SOL    HW2 5762   3.317   3.064   2.637
 1920SOL     OW 5763   3.328   2.452   2.854
 1920SOL    HW1 5764   3.298   2.357   2.861
 1920SOL    HW2 5765   3.401   2.468   2.920
 1921SOL     OW 5766   3.719   2.695   2.239
 1921SOL    HW1 5767   3.761   2.631   2.303
 1921SOL    HW2 5768   3.681   2.644   2.161
 1922SOL     OW 5769   2.350   3.247   2.036
 1922SOL    HW1 5770   2.263   3.232   2.083
 1922SOL    HW2 5771   2.333   3.273   1.941
 1923SOL     OW 5772   3.526   3.142   2.519
 1923SOL    HW1 5773   3.625   3.150   2.533
 1923SOL    HW2 5774   3.481   3.226   2.550
 1924SOL     OW 5775   3.252   2.437   1.940
 1924SOL    HW1 5776   3.198   2.416   2.021
 1924SOL    HW2 5777   3.343   2.396   1.949
 1925SOL     OW 5778   3.616   3.085   3.450
 1925SOL    HW1 5779   3.707   3.046   3.437
 1925SOL    HW2 5780   3.624   3.181   3.474
 1926SOL     OW 5781   2.926   3.209   3.202
 1926SOL    HW1 5782   2.846   3.186   3.257
 1926SOL    HW2 5783   3.009   3.183   3.251
 1927SOL     OW 5784   3.454   3.491   3.487
 1927SOL    HW1 5785   3.481   3.525   3.397
 1927SOL    HW2 5786   3.533   3.453   3.533
 1928SOL     OW 5787   2.973   3.057   2.962
 1928SOL    HW1 5788   2.933   3.101   3.043
 1928SOL    HW2 5789   2.932   3.094   2.879
 1929SOL     OW 5790   3.500   2.961   2.941
 1929SOL    HW1 5791   3.505   3.042   3.000
 1929SOL    HW2 5792   3.414   2.963   2.890
 1930SOL     OW 5793   2.777   1.951   3.264
 1930SOL    HW1 5794   2.802   1.931   3.169
 1930SOL    HW2 5795   2.849   2.007   3.306
 1931SOL     OW 5796   2.842   2.978   3.581
 1931SOL    HW1 5797   2.743   2.984   3.591
 1931SOL    HW2 5798   2.865   2.898   3.525
 1932SOL     OW 5799   2.567   2.912   2.230
 1932SOL    HW1 5800   2.553   2.919   2.329
 1932SOL    HW2 5801   2.651   2.861   2.212
 1933SOL     OW 5802   2.272   2.675   3.113
 1933SOL    HW1 5803   2.358   2.687   3.163
 1933SOL    HW2 5804   2.230   2.588   3.140
 1934SOL     OW 5805   3.136   2.248   3.124
 1934SOL    HW1 5806   3.157   2.322   3.188
 1934SOL    HW2 5807   3.047   2.265   3.081
 1935SOL     OW 5808   1.926   3.426   3.193
 1935SOL    HW1 5809   1.880   3.508   3.159
 1935SOL    HW2 5810   2.024   3.445   3.202
 1936SOL     OW 5811   2.229   2.962   2.363
 1936SOL    HW1 5812   2.222   3.045   2.307
 1936SOL    HW2 5813   2.233   2.882   2.303
 1937SOL     OW 5814   2.428   2.399   2.727
 1937SOL    HW1 5815   2.440   2.465   2.653
 1937SOL    HW2 5816   2.474   2.433   2.810
 1938SOL     OW 5817   3.114   3.210   2.250
 1938SOL    HW1 5818   3.164   3.287   2.290
 1938SOL    HW2 5819   3.019   3.212   2.282
 1939SOL     OW 5820   3.134   3.307   3.004
 1939SOL    HW1 5821   3.181   3.320   3.091
 1939SOL    HW2 5822   3.068   3.233   3.013
 1940SOL     OW 5823   3.444   2.501   2.334
 1940SOL    HW1 5824   3.413   2.562   2.407
 1940SOL    HW2 5825   3.494   2.553   2.265
 1941SOL     OW 5826   2.216   3.372   3.191
 1941SOL    HW1 5827   2.195   3.328   3.104
 1941SOL    HW2 5828   2.313   3.398   3.194
 1942SOL     OW 5829   2.264   2.613   3.460
 1942SOL    HW1 5830   2.332   2.668   3.413
 1942SOL    HW2 5831   2.304   2.525   3.487
 1943SOL     OW 5832   3.449   2.641   3.532
 1943SOL    HW1 5833   3.357   2.679   3.527
 1943SOL    HW2 5834   3.509   2.688   3.467
 1944SOL     OW 5835   2.875   1.967   3.632
 1944SOL    HW1 5836   2.881   2.052   3.580
 1944SOL    HW2 5837   2.907   1.891   3.575
 1945SOL     OW 5838   2.366   1.912   3.602
 1945SOL    HW1 5839   2.324   1.855   3.532
 1945SOL    HW2 5840   2.300   1.981   3.634
 1946SOL     OW 5841   2.435   2.732   2.891
 1946SOL    HW1 5842   2.479   2.821   2.882
 1946SOL    HW2 5843   2.372   2.732   2.968
 1947SOL     OW 5844   3.222   2.724   2.907
 1947SOL    HW1 5845   3.147   2.724   2.841
 1947SOL    HW2 5846   3.259   2.632   2.916
 1948SOL     OW 5847   3.071   2.387   2.137
 1948SOL    HW1 5848   3.084   2.303   2.191
 1948SOL    HW2 5849   3.042   2.461   2.197
 1949SOL     OW 5850   2.169   2.075   3.093
 1949SOL    HW1 5851   2.146   2.112   3.183
 1949SOL    HW2 5852   2.139   1.980   3.087
 1950SOL     OW 5853   1.899   3.172   3.144
 1950SOL    HW1 5854   1.952   3.123   3.212
 1950SOL    HW2 5855   1.921   3.270   3.149
 1951SOL     OW 5856   2.594   2.496   2.926
 1951SOL    HW1 5857   2.653   2.470   2.850
 1951SOL    HW2 5858   2.566   2.592   2.915
 1952SOL     OW 5859   3.590   2.797   3.716
 1952SOL    HW1 5860   3.544   2.790   3.627
 1952SOL    HW2 5861   3.528   2.841   3.782
 1953SOL     OW 5862   2.169   1.925   2.480
 1953SOL    HW1 5863   2.158   2.019   2.513
 1953SOL    HW2 5864   2.164   1.862   2.557
 1954SOL     OW 5865   3.484   2.229   2.236
 1954SOL    HW1 5866   3.486   2.153   2.300
 1954SOL    HW2 5867   3.436   2.306   2.276
 1955SOL     OW 5868   2.885   2.628   2.828
 1955SOL    HW1 5869   2.900   2.649   2.924
 1955SOL    HW2 5870   2.855   2.533   2.819
 1956SOL     OW 5871   2.842   3.435   3.562
 1956SOL    HW1 5872   2.822   3.479   3.474
 1956SOL    HW2 5873   2.881   3.344   3.546
 1957SOL     OW 5874   3.721   3.380   3.467
 1957SOL    HW1 5875   3.735   3.407   3.372
 1957SOL    HW2 5876   3.804   3.402   3.520
 1958SOL     OW 5877   2.212   2.760   3.666
 1958SOL    HW1 5878   2.288   2.804   3.714
 1958SOL    HW2 5879   2.247   2.713   3.584
 1959SOL     OW 5880   3.402   2.136   1.987
 1959SOL    HW1 5881   3.341   2.061   2.010
 1959SOL    HW2 5882   3.424   2.188   2.070
 1960SOL     OW 5883   3.165   2.700   1.904
 1960SOL    HW1 5884   3.199   2.607   1.919
 1960SOL    HW2 5885   3.183   2.727   1.809
 1961SOL     OW 5886   2.930   3.195   2.711
 1961SOL    HW1 5887   2.937   3.111   2.656
 1961SOL    HW2 5888   2.992   3.264   2.675
 1962SOL     OW 5889   2.181   2.672   2.811
 1962SOL    HW1 5890   2.274   2.708   2.816
 1962SOL    HW2 5891   2.175   2.587   2.863
 1963SOL     OW 5892   2.201   2.371   2.868
 1963SOL    HW1 5893   2.149   2.288   2.851
 1963SOL    HW2 5894   2.278   2.376   2.804
 1964SOL     OW 5895   3.000   2.242   3.540
 1964SOL    HW1 5896   2.955   2.305   3.604
 1964SOL    HW2 5897   3.093   2.273   3.523
 1965SOL     OW 5898   3.022   2.069   3.339
 1965SOL    HW1 5899   3.022   2.133   3.416
 1965SOL    HW2 5900   3.050   2.117   3.256
 1966SOL     OW 5901   1.870   3.188   2.062
 1966SOL    HW1 5902   1.777   3.209   2.031
 1966SOL    HW2 5903   1.880   3.089   2.075
 1967SOL     OW 5904   1.950   3.663   2.789
 1967SOL    HW1 5905   1.908   3.577   2.762
 1967SOL    HW2 5906   2.044   3.666   2.755
 1968SOL     OW 5907   2.366   3.430   2.772
 1968SOL    HW1 5908   2.432   3.504   2.781
 1968SOL    HW2 5909   2.410   3.351   2.730
 1969SOL     OW 5910   2.864   2.658   3.100
 1969SOL    HW1 5911   2.905   2.626   3.186
 1969SOL    HW2 5912   2.768   2.631   3.097
 1970SOL     OW 5913   1.902   2.406   2.976
 1970SOL    HW1 5914   1.987   2.373   2.935
 1970SOL    HW2 5915   1.915   2.421   3.074
 1971SOL     OW 5916   2.051   2.382   3.584
 1971SOL    HW1 5917   2.110   2.342   3.514
 1971SOL    HW2 5918   1.993   2.453   3.543
 1972SOL     OW 5919   3.231   2.812   3.522
 1972SOL    HW1 5920   3.270   2.901   3.542
 1972SOL    HW2 5921   3.241   2.792   3.425
 1973SOL     OW 5922   2.677   2.434   2.187
 1973SOL    HW1 5923   2.684   2.345   2.141
 1973SOL    HW2 5924   2.583   2.468   2.179
 1974SOL     OW 5925   3.519   2.466   3.068
 1974SOL    HW1 5926   3.481   2.397   3.130
 1974SOL    HW2 5927   3.601   2.430   3.024
 1975SOL     OW 5928   2.114   3.426   3.606
 1975SOL    HW1 5929   2.084   3.483   3.682
 1975SOL    HW2 5930   2.107   3.329   3.632
 1976SOL     OW 5931   2.533   2.326   3.131
 1976SOL    HW1 5932   2.499   2.237   3.101
 1976SOL    HW2 5933   2.559   2.380   3.051
 1977SOL     OW 5934   2.792   3.540   3.327
 1977SOL    HW1 5935   2.768   3.522   3.232
 1977SOL    HW2 5936   2.822   3.634   3.337
 1978SOL     OW 5937   2.021   2.999   3.328
 1978SOL    HW1 5938   2.043   2.938   3.404
 1978SOL    HW2 5939   2.031   2.950   3.242
 1979SOL     OW 5940   3.209   2.921   3.096
 1979SOL    HW1 5941   3.233   2.858   3.022
 1979SOL    HW2 5942   3.119   2.961   3.078
 1980SOL     OW 5943   3.164   2.717   2.171
 1980SOL    HW1 5944   3.078   2.686   2.213
 1980SOL    HW2 5945   3.160   2.703   2.072
 1981SOL     OW 5946   3.621   3.609   3.016
 1981SOL    HW1 5947   3.682   3.639   2.943
 1981SOL    HW2 5948   3.583   3.520   2.994
 1982SOL     OW 5949   3.114   3.593   2.990
 1982SOL    HW1 5950   3.198   3.598   2.936
 1982SOL    HW2 5951   3.091   3.497   3.008
 1983SOL     OW 5952   1.945   3.120   2.884
 1983SOL    HW1 5953   1.940   3.119   2.984
 1983SOL    HW2 5954   1.862   3.079   2.846
 1984SOL     OW 5955   2.550   3.524   3.578
 1984SOL    HW1 5956   2.494   3.605   3.587
 1984SOL    HW2 5957   2.602   3.528   3.492
 1985SOL     OW 5958   3.588   1.997   2.385
 1985SOL    HW1 5959   3.661   1.980   2.318
 1985SOL    HW2 5960   3.557   1.910   2.423
 1986SOL     OW 5961   3.250   3.435   2.339
 1986SOL    HW1 5962   3.317   3.447   2.265
 1986SOL    HW2 5963   3.210   3.524   2.362
 1987SOL     OW 5964   1.992   3.656   3.713
 1987SOL    HW1 5965   1.951   3.582   3.766
 1987SOL    HW2 5966   2.056   3.707   3.771
 1988SOL     OW 5967   3.142   2.789   2.534
 1988SOL    HW1 5968   3.202   2.708   2.536
 1988SOL    HW2 5969   3.182   2.858   2.474
 1989SOL     OW 5970   2.692   3.135   3.284
 1989SOL    HW1 5971   2.687   3.168   3.379
 1989SOL    HW2 5972   2.606   3.154   3.238
 1990SOL     OW 5973   2.534   3.478   2.016
 1990SOL    HW1 5974   2.543   3.488   1.917
 1990SOL    HW2 5975   2.494   3.389   2.037
 1991SOL     OW 5976   3.512   3.582   3.256
 1991SOL    HW1 5977   3.565   3.592   3.172
 1991SOL    HW2 5978   3.485   3.672   3.290
 1992SOL     OW 5979   3.703   2.037   2.825
 1992SOL    HW1 5980   3.742   1.952   2.789
 1992SOL    HW2 5981   3.605   2.039   2.806
 1993SOL     OW 5982   2.125   2.188   2.582
 1993SOL    HW1 5983   2.046   2.239   2.548
 1993SOL    HW2 5984   2.116   2.173   2.680
 1994SOL     OW 5985   3.056   3.474   1.893
 1994SOL    HW1 5986   3.062   3.381   1.930
 1994SOL    HW2 5987   2.997   3.474   1.813
 1995SOL     OW 5988   2.684   2.864   3.234
 1995SOL    HW1 5989   2.724   2.863   3.142
 1995SOL    HW2 5990   2.694   2.956   3.274
 1996SOL     OW 5991   2.778   2.772   2.153
 1996SOL    HW1 5992   2.841   2.810   2.085
 1996SOL    HW2 5993   2.818   2.689   2.192
 1997SOL     OW 5994   3.366   3.469   1.906
 1997SOL    HW1 5995   3.274   3.506   1.913
 1997SOL    HW2 5996   3.404   3.489   1.816
 1998SOL     OW 5997   2.234   3.150   3.352
 1998SOL    HW1 5998   2.221   3.243   3.318
 1998SOL    HW2 5999   2.150   3.098   3.339
 1999SOL     OW 6000   3.476   3.154   3.151
 1999SOL    HW1 6001   3.536   3.157   3.231
 1999SOL    HW2 6002   3.401   3.218   3.164
 2000SOL     OW 6003   2.901   2.960   2.558
 2000SOL    HW1 6004   2.831   2.913   2.612
 2000SOL    HW2 6005   2.960   2.892   2.515
 2001SOL     OW 6006   2.876   2.098   2.833
 2001SOL    HW1 6007   2.868   2.062   2.740
 2001SOL    HW2 6008   2.874   2.022   2.898
 2002SOL     OW 6009   2.452   3.349   2.353
 2002SOL    HW1 6010   2.494   3.291   2.283
 2002SOL    HW2 6011   2.408   3.428   2.309
 2003SOL     OW 6012   3.571   2.247   3.243
 2003SOL    HW1 6013   3.644   2.316   3.247
 2003SOL    HW2 6014   3.599   2.172   3.184
 2004SOL     OW 6015   2.117   3.210   2.152
 2004SOL    HW1 6016   2.021   3.211   2.125
 2004SOL    HW2 6017   2.129   3.263   2.236
 2005SOL     OW 6018   1.967   2.875   3.588
 2005SOL    HW1 6019   1.890   2.842   3.642
 2005SOL    HW2 6020   2.052   2.845   3.630
 2006SOL     OW 6021   2.534   2.065   3.351
 2006SOL    HW1 6022   2.624   2.049   3.311
 2006SOL    HW2 6023   2.542   2.070   3.450
 2007SOL     OW 6024   1.937   2.207   1.895
 2007SOL    HW1 6025   1.845   2.179   1.866
 2007SOL    HW2 6026   1.968   2.284   1.839
 2008SOL     OW 6027   3.302   2.718   3.260
 2008SOL    HW1 6028   3.245   2.770   3.197
 2008SOL    HW2 6029   3.398   2.730   3.236
 2009SOL     OW 6030   3.045   3.197   1.981
 2009SOL    HW1 6031   2.946   3.186   1.983
 2009SOL    HW2 6032   3.079   3.212   2.074
 2010SOL     OW 6033   2.475   2.704   3.293
 2010SOL    HW1 6034   2.531   2.785   3.276
 2010SOL    HW2 6035   2.534   2.624   3.296
 2011SOL     OW 6036   3.355   3.629   2.821
 2011SOL    HW1 6037   3.388   3.693   2.752
 2011SOL    HW2 6038   3.421   3.623   2.896
 2012SOL     OW 6039   2.578   2.427   3.570
 2012SOL    HW1 6040   2.597   2.492   3.644
 2012SOL    HW2 6041   2.638   2.347   3.579
 2013SOL     OW 6042   3.312   3.082   3.495
 2013SOL    HW1 6043   3.303   3.072   3.594
 2013SOL    HW2 6044   3.408   3.075   3.469
 2014SOL     OW 6045   2.252   3.603   3.422
 2014SOL    HW1 6046   2.161   3.644   3.420
 2014SOL    HW2 6047   2.245   3.509   3.454
 2015SOL     OW 6048   3.536   2.745   3.116
 2015SOL    HW1 6049   3.509   2.656   3.079
 2015SOL    HW2 6050   3.537   2.813   3.043
 2016SOL     OW 6051   3.087   2.187   2.311
 2016SOL    HW1 6052   3.152   2.113   2.300
 2016SOL    HW2 6053   3.107   2.237   2.395
 2017SOL     OW 6054   2.456   2.607   2.514
 2017SOL    HW1 6055   2.506   2.692   2.495
 2017SOL    HW2 6056   2.368   2.609   2.466
 2018SOL     OW 6057   3.639   2.204   3.504
 2018SOL    HW1 6058   3.622   2.235   3.410
 2018SOL    HW2 6059   3.555   2.167   3.542
 2019SOL     OW 6060   3.592   2.796   3.379
 2019SOL    HW1 6061   3.630   2.887   3.394
 2019SOL    HW2 6062   3.584   2.779   3.280
 2020SOL     OW 6063   2.721   3.236   1.878
 2020SOL    HW1 6064   2.675   3.251   1.966
 2020SOL    HW2 6065   2.765   3.321   1.848
 2021SOL     OW 6066   2.523   3.652   2.815
 2021SOL    HW1 6067   2.477   3.740   2.802
 2021SOL    HW2 6068   2.622   3.664   2.808
 2022SOL     OW 6069   2.721   2.818   2.723
 2022SOL    HW1 6070   2.775   2.749   2.771
 2022SOL    HW2 6071   2.689   2.887   2.789
 2023SOL     OW 6072   2.945   2.846   1.949
 2023SOL    HW1 6073   2.922   2.899   1.867
 2023SOL    HW2 6074   3.026   2.790   1.930
 2024SOL     OW 6075   3.723   3.431   2.713
 2024SOL    HW1 6076   3.652   3.419   2.643
 2024SOL    HW2 6077   3.724   3.352   2.773
 2025SOL     OW 6078   2.083   3.176   3.706
 2025SOL    HW1 6079   2.018   3.103   3.685
 2025SOL    HW2 6080   2.087   3.190   3.804
 2026SOL     OW 6081   1.941   3.102   2.515
 2026SOL    HW1 6082   1.940   3.055   2.603
 2026SOL    HW2 6083   2.023   3.074   2.464
 2027SOL     OW 6084   2.534   3.253   3.486
 2027SOL    HW1 6085   2.456   3.203   3.524
 2027SOL    HW2 6086   2.531   3.348   3.517
 2028SOL     OW 6087   3.686   2.054   3.089
 2028SOL    HW1 6088   3.682   1.964   3.133
 2028SOL    HW2 6089   3.689   2.043   2.990
 2029SOL     OW 6090   3.567   3.349   2.966
 2029SOL    HW1 6091   3.474   3.324   2.939
 2029SOL    HW2 6092   3.593   3.299   3.048
 2030SOL     OW 6093   2.179   2.409   3.142
 2030SOL    HW1 6094   2.217   2.350   3.214
 2030SOL    HW2 6095   2.219   2.383   3.054
 2031SOL     OW 6096   2.674   3.448   2.549
 2031SOL    HW1 6097   2.706   3.458   2.455
 2031SOL    HW2 6098   2.595   3.386   2.551
 2032SOL     OW 6099   3.286   2.076   2.974
 2032SOL    HW1 6100   3.338   2.011   3.029
 2032SOL    HW2 6101   3.237   2.139   3.035
 2033SOL     OW 6102   2.863   1.896   3.016
 2033SOL    HW1 6103   2.800   1.824   2.985
 2033SOL    HW2 6104   2.956   1.860   3.016
 2034SOL     OW 6105   2.632   3.192   2.163
 2034SOL    HW1 6106   2.586   3.105   2.180
 2034SOL    HW2 6107   2.723   3.189   2.204
 2035SOL     OW 6108   2.480   3.429   3.146
 2035SOL    HW1 6109   2.475   3.511   3.203
 2035SOL    HW2 6110   2.569   3.426   3.101
 2036SOL     OW 6111   3.214   1.914   2.030
 2036SOL    HW1 6112   3.249   1.873   1.946
 2036SOL    HW2 6113   3.124   1.876   2.050
 2037SOL     OW 6114   3.162   2.315   2.553
 2037SOL    HW1 6115   3.103   2.395   2.557
 2037SOL    HW2 6116   3.177   2.280   2.646
 2038SOL     OW 6117   3.455   2.083   2.744
 2038SOL    HW1 6118   3.371   2.082   2.798
 2038SOL    HW2 6119   3.457   2.166   2.688
 2039SOL     OW 6120   1.901   2.939   2.162
 2039SOL    HW1 6121   2.000   2.928   2.153
 2039SOL    HW2 6122   1.861   2.853   2.194
 2040SOL     OW 6123   2.737   3.508   2.199
 2040SOL    HW1 6124   2.660   3.473   2.145
 2040SOL    HW2 6125   2.705   3.579   2.261
 2041SOL     OW 6126   2.092   2.490   3.837
 2041SOL    HW1 6127   1.999   2.488   3.874
 2041SOL    HW2 6128   2.093   2.451   3.745
 2042SOL     OW 6129   3.617   2.469   3.955
 2042SOL    HW1 6130   3.605   2.456   3.856
 2042SOL    HW2 6131   3.587   2.388   4.004
 2043SOL     OW 6132   2.093   3.575   4.207
 2043SOL    HW1 6133   2.127   3.652   4.261
 2043SOL    HW2 6134   2.137   3.575   4.117
 2044SOL     OW 6135   2.092   3.296   4.262
 2044SOL    HW1 6136   2.066   3.392   4.262
 2044SOL    HW2 6137   2.021   3.242   4.307
 2045SOL     OW 6138   2.468   2.826   3.847
 2045SOL    HW1 6139   2.475   2.910   3.793
 2045SOL    HW2 6140   2.514   2.839   3.935
 2046SOL     OW 6141   3.704   3.629   4.083
 2046SOL    HW1 6142   3.758   3.600   4.163
 2046SOL    HW2 6143   3.734   3.719   4.054
 2047SOL     OW 6144   1.889   3.458   3.841
 2047SOL    HW1 6145   1.870   3.362   3.862
 2047SOL    HW2 6146   1.856   3.516   3.916
 2048SOL     OW 6147   3.551   2.784   4.336
 2048SOL    HW1 6148   3.646   2.755   4.344
 2048SOL    HW2 6149   3.543   2.849   4.261
 2049SOL     OW 6150   3.503   2.970   4.156
 2049SOL    HW1 6151   3.589   2.972   4.104
 2049SOL    HW2 6152   3.517   3.017   4.244
 2050SOL     OW 6153   2.671   1.866   4.226
 2050SOL    HW1 6154   2.711   1.957   4.217
 2050SOL    HW2 6155   2.571   1.874   4.232
 2051SOL     OW 6156   3.387   2.861   3.914
 2051SOL    HW1 6157   3.324   2.785   3.927
 2051SOL    HW2 6158   3.435   2.879   4.000
 2052SOL     OW 6159   2.460   2.591   3.994
 2052SOL    HW1 6160   2.484   2.660   3.926
 2052SOL    HW2 6161   2.382   2.624   4.048
 2053SOL     OW 6162   3.438   3.524   4.031
 2053SOL    HW1 6163   3.527   3.570   4.034
 2053SOL    HW2 6164   3.417   3.500   3.936
 2054SOL     OW 6165   2.727   2.210   3.919
 2054SOL    HW1 6166   2.786   2.273   3.870
 2054SOL    HW2 6167   2.746   2.116   3.890
 2055SOL     OW 6168   2.183   2.805   3.966
 2055SOL    HW1 6169   2.265   2.844   3.924
 2055SOL    HW2 6170   2.156   2.723   3.917
 2056SOL     OW 6171   2.973   3.638   3.961
 2056SOL    HW1 6172   2.913   3.576   4.011
 2056SOL    HW2 6173   3.004   3.594   3.876
 2057SOL     OW 6174   3.494   3.239   3.805
 2057SOL    HW1 6175   3.462   3.333   3.795
 2057SOL    HW2 6176   3.418   3.176   3.793
 2058SOL     OW 6177   2.326   3.605   4.047
 2058SOL    HW1 6178   2.359   3.644   4.133
 2058SOL    HW2 6179   2.402   3.598   3.982
 2059SOL     OW 6180   3.262   1.969   4.150
 2059SOL    HW1 6181   3.238   1.932   4.060
 2059SOL    HW2 6182   3.361   1.985   4.154
 2060SOL     OW 6183   2.244   2.562   4.204
 2060SOL    HW1 6184   2.289   2.472   4.201
 2060SOL    HW2 6185   2.150   2.551   4.237
 2061SOL     OW 6186   2.476   1.984   3.841
 2061SOL    HW1 6187   2.574   1.962   3.848
 2061SOL    HW2 6188   2.445   1.967   3.748
 2062SOL     OW 6189   3.296   3.050   3.765
 2062SOL    HW1 6190   3.328   2.974   3.822
 2062SOL    HW2 6191   3.204   3.077   3.795
 2063SOL     OW 6192   2.159   1.897   3.895
 2063SOL    HW1 6193   2.208   1.981   3.874
 2063SOL    HW2 6194   2.221   1.832   3.940
 2064SOL     OW 6195   2.797   2.098   4.204
 2064SOL    HW1 6196   2.749   2.139   4.126
 2064SOL    HW2 6197   2.896   2.096   4.185
 2065SOL     OW 6198   2.321   3.014   4.465
 2065SOL    HW1 6199   2.250   2.987   4.530
 2065SOL    HW2 6200   2.295   2.986   4.372
 2066SOL     OW 6201   3.133   3.659   4.315
 2066SOL    HW1 6202   3.177   3.723   4.251
 2066SOL    HW2 6203   3.083   3.711   4.385
 2067SOL     OW 6204   2.894   2.411   3.740
 2067SOL    HW1 6205   2.853   2.493   3.701
 2067SOL    HW2 6206   2.958   2.437   3.813
 2068SOL     OW 6207   3.719   2.695   4.101
 2068SOL    HW1 6208   3.761   2.631   4.165
 2068SOL    HW2 6209   3.681   2.644   4.023
 2069SOL     OW 6210   2.350   3.247   3.898
 2069SOL    HW1 6211   2.263   3.232   3.945
 2069SOL    HW2 6212   2.333   3.273   3.803
 2070SOL     OW 6213   3.252   2.437   3.802
 2070SOL    HW1 6214   3.198   2.416   3.883
 2070SOL    HW2 6215   3.343   2.396   3.811
 2071SOL     OW 6216   2.389   2.118   4.052
 2071SOL    HW1 6217   2.416   2.059   3.977
 2071SOL    HW2 6218   2.389   2.213   4.021
 2072SOL     OW 6219   2.567   2.912   4.092
 2072SOL    HW1 6220   2.553   2.919   4.191
 2072SOL    HW2 6221   2.651   2.861   4.074
 2073SOL     OW 6222   2.229   2.962   4.225
 2073SOL    HW1 6223   2.222   3.045   4.169
 2073SOL    HW2 6224   2.233   2.882   4.165
 2074SOL     OW 6225   3.114   3.210   4.112
 2074SOL    HW1 6226   3.164   3.287   4.152
 2074SOL    HW2 6227   3.019   3.212   4.144
 2075SOL     OW 6228   3.444   2.501   4.196
 2075SOL    HW1 6229   3.413   2.562   4.269
 2075SOL    HW2 6230   3.494   2.553   4.127
 2076SOL     OW 6231   3.071   2.387   3.999
 2076SOL    HW1 6232   3.084   2.303   4.053
 2076SOL    HW2 6233   3.042   2.461   4.059
 2077SOL     OW 6234   3.484   2.229   4.098
 2077SOL    HW1 6235   3.486   2.153   4.162
 2077SOL    HW2 6236   3.436   2.306   4.138
 2078SOL     OW 6237   3.402   2.136   3.849
 2078SOL    HW1 6238   3.341   2.061   3.872
 2078SOL    HW2 6239   3.424   2.188   3.932
 2079SOL     OW 6240   3.165   2.700   3.766
 2079SOL    HW1 6241   3.199   2.607   3.781
 2079SOL    HW2 6242   3.183   2.727   3.671
 2080SOL     OW 6243   1.870   3.188   3.924
 2080SOL    HW1 6244   1.777   3.209   3.893
 2080SOL    HW2 6245   1.880   3.089   3.937
 2081SOL     OW 6246   2.677   2.434   4.049
 2081SOL    HW1 6247   2.684   2.345   4.003
 2081SOL    HW2 6248   2.583   2.468   4.041
 2082SOL     OW 6249   2.335   2.362   3.915
 2082SOL    HW1 6250   2.396   2.442   3.919
 2082SOL    HW2 6251   2.240   2.393   3.922
 2083SOL     OW 6252   3.164   2.717   4.033
 2083SOL    HW1 6253   3.078   2.686   4.075
 2083SOL    HW2 6254   3.160   2.703   3.934
 2084SOL     OW 6255   3.588   1.997   4.247
 2084SOL    HW1 6256   3.661   1.980   4.180
 2084SOL    HW2 6257   3.557   1.910   4.285
 2085SOL     OW 6258   3.250   3.435   4.201
 2085SOL    HW1 6259   3.317   3.447   4.127
 2085SOL    HW2 6260   3.210   3.524   4.224
 2086SOL     OW 6261   2.534   3.478   3.878
 2086SOL    HW1 6262   2.543   3.488   3.779
 2086SOL    HW2 6263   2.494   3.389   3.899
 2087SOL     OW 6264   3.056   3.474   3.755
 2087SOL    HW1 6265   3.062   3.381   3.792
 2087SOL    HW2 6266   2.997   3.474   3.675
 2088SOL     OW 6267   2.778   2.772   4.015
 2088SOL    HW1 6268   2.841   2.810   3.947
 2088SOL    HW2 6269   2.818   2.689   4.054
 2089SOL     OW 6270   3.366   3.469   3.768
 2089SOL    HW1 6271   3.274   3.506   3.775
 2089SOL    HW2 6272   3.404   3.489   3.678
 2090SOL     OW 6273   2.452   3.349   4.215
 2090SOL    HW1 6274   2.494   3.291   4.145
 2090SOL    HW2 6275   2.408   3.428   4.171
 2091SOL     OW 6276   2.117   3.210   4.014
 2091SOL    HW1 6277   2.021   3.211   3.987
 2091SOL    HW2 6278   2.129   3.263   4.098
 2092SOL     OW 6279   1.937   2.207   3.757
 2092SOL    HW1 6280   1.845   2.179   3.728
 2092SOL    HW2 6281   1.968   2.284   3.701
 2093SOL     OW 6282   1.934   2.028   4.042
 2093SOL    HW1 6283   1.917   2.111   3.988
 2093SOL    HW2 6284   2.024   1.991   4.020
 2094SOL     OW 6285   3.045   3.197   3.843
 2094SOL    HW1 6286   2.946   3.186   3.845
 2094SOL    HW2 6287   3.079   3.212   3.936
 2095SOL     OW 6288   3.087   2.187   4.173
 2095SOL    HW1 6289   3.152   2.113   4.162
 2095SOL    HW2 6290   3.107   2.237   4.257
 2096SOL     OW 6291   2.456   2.607   4.376
 2096SOL    HW1 6292   2.506   2.692   4.357
 2096SOL    HW2 6293   2.368   2.609   4.328
 2097SOL     OW 6294   2.721   3.236   3.740
 2097SOL    HW1 6295   2.675   3.251   3.828
 2097SOL    HW2 6296   2.765   3.321   3.710
 2098SOL     OW 6297   2.945   2.846   3.811
 2098SOL    HW1 6298   2.922   2.899   3.729
 2098SOL    HW2 6299   3.026   2.790   3.792
 2099SOL     OW 6300   2.290   2.286   4.244
 2099SOL    HW1 6301   2.320   2.214   4.182
 2099SOL    HW2 6302   2.251   2.246   4.327
 2100SOL     OW 6303   2.632   3.192   4.025
 2100SOL    HW1 6304   2.586   3.105   4.042
 2100SOL    HW2 6305   2.723   3.189   4.066
 2101SOL     OW 6306   3.214   1.914   3.892
 2101SOL    HW1 6307   3.249   1.873   3.808
 2101SOL    HW2 6308   3.124   1.876   3.912
 2102SOL     OW 6309   1.901   2.939   4.024
 2102SOL    HW1 6310   2.000   2.928   4.015
 2102SOL    HW2 6311   1.861   2.853   4.056
 2103SOL     OW 6312   2.737   3.508   4.061
 2103SOL    HW1 6313   2.660   3.473   4.007
 2103SOL    HW2 6314   2.705   3.579   4.123
 2104SOL     OW 6315   2.087   3.999   0.996
 2104SOL    HW1 6316   2.122   3.982   1.088
 2104SOL    HW2 6317   1.999   3.954   0.984
 2105SOL     OW 6318   1.881   4.092   0.647
 2105SOL    HW1 6319   1.799   4.135   0.686
 2105SOL    HW2 6320   1.853   4.019   0.584
 2106SOL     OW 6321   3.617   4.331   0.231
 2106SOL    HW1 6322   3.605   4.318   0.132
 2106SOL    HW2 6323   3.587   4.250   0.280
 2107SOL     OW 6324   2.300   4.116   1.499
 2107SOL    HW1 6325   2.382   4.060   1.508
 2107SOL    HW2 6326   2.219   4.058   1.503
 2108SOL     OW 6327   3.465   4.171   0.737
 2108SOL    HW1 6328   3.391   4.217   0.687
 2108SOL    HW2 6329   3.516   4.239   0.790
 2109SOL     OW 6330   3.456   3.838   1.480
 2109SOL    HW1 6331   3.438   3.905   1.408
 2109SOL    HW2 6332   3.453   3.884   1.569
 2110SOL     OW 6333   1.984   4.367   0.563
 2110SOL    HW1 6334   1.939   4.279   0.580
 2110SOL    HW2 6335   1.983   4.421   0.647
 2111SOL     OW 6336   2.671   3.728   0.502
 2111SOL    HW1 6337   2.711   3.819   0.493
 2111SOL    HW2 6338   2.571   3.736   0.508
 2112SOL     OW 6339   2.179   3.975   1.801
 2112SOL    HW1 6340   2.250   4.046   1.807
 2112SOL    HW2 6341   2.091   4.014   1.829
 2113SOL     OW 6342   3.143   4.069   0.944
 2113SOL    HW1 6343   3.057   4.019   0.931
 2113SOL    HW2 6344   3.205   4.015   1.000
 2114SOL     OW 6345   3.256   4.193   1.674
 2114SOL    HW1 6346   3.236   4.236   1.762
 2114SOL    HW2 6347   3.334   4.131   1.683
 2115SOL     OW 6348   2.853   4.134   1.242
 2115SOL    HW1 6349   2.776   4.168   1.296
 2115SOL    HW2 6350   2.819   4.083   1.163
 2116SOL     OW 6351   1.938   4.535   0.789
 2116SOL    HW1 6352   2.037   4.523   0.798
 2116SOL    HW2 6353   1.914   4.630   0.810
 2117SOL     OW 6354   2.727   4.072   0.195
 2117SOL    HW1 6355   2.786   4.135   0.146
 2117SOL    HW2 6356   2.746   3.978   0.166
 2118SOL     OW 6357   3.581   4.309   1.831
 2118SOL    HW1 6358   3.555   4.398   1.795
 2118SOL    HW2 6359   3.579   4.241   1.758
 2119SOL     OW 6360   2.412   3.920   0.885
 2119SOL    HW1 6361   2.407   3.915   0.985
 2119SOL    HW2 6362   2.414   4.016   0.856
 2120SOL     OW 6363   2.064   4.009   1.498
 2120SOL    HW1 6364   1.984   4.069   1.485
 2120SOL    HW2 6365   2.054   3.960   1.584
 2121SOL     OW 6366   3.262   3.831   0.426
 2121SOL    HW1 6367   3.238   3.794   0.336
 2121SOL    HW2 6368   3.361   3.847   0.430
 2122SOL     OW 6369   3.409   3.946   1.729
 2122SOL    HW1 6370   3.404   3.983   1.821
 2122SOL    HW2 6371   3.337   3.877   1.717
 2123SOL     OW 6372   2.476   3.846   0.117
 2123SOL    HW1 6373   2.574   3.824   0.124
 2123SOL    HW2 6374   2.445   3.829   0.024
 2124SOL     OW 6375   2.643   3.988   1.749
 2124SOL    HW1 6376   2.710   3.927   1.792
 2124SOL    HW2 6377   2.570   4.007   1.814
 2125SOL     OW 6378   3.213   4.314   1.433
 2125SOL    HW1 6379   3.241   4.271   1.518
 2125SOL    HW2 6380   3.238   4.410   1.434
 2126SOL     OW 6381   2.401   3.788   0.512
 2126SOL    HW1 6382   2.320   3.789   0.570
 2126SOL    HW2 6383   2.404   3.871   0.457
 2127SOL     OW 6384   2.159   3.759   0.171
 2127SOL    HW1 6385   2.208   3.843   0.150
 2127SOL    HW2 6386   2.221   3.694   0.216
 2128SOL     OW 6387   2.797   3.960   0.480
 2128SOL    HW1 6388   2.749   4.001   0.402
 2128SOL    HW2 6389   2.896   3.958   0.461
 2129SOL     OW 6390   1.940   4.280   1.386
 2129SOL    HW1 6391   2.032   4.279   1.345
 2129SOL    HW2 6392   1.934   4.354   1.453
 2130SOL     OW 6393   2.423   3.946   1.147
 2130SOL    HW1 6394   2.461   3.862   1.184
 2130SOL    HW2 6395   2.335   3.965   1.191
 2131SOL     OW 6396   2.879   3.763   0.753
 2131SOL    HW1 6397   2.807   3.768   0.684
 2131SOL    HW2 6398   2.855   3.694   0.822
 2132SOL     OW 6399   3.328   4.314   0.992
 2132SOL    HW1 6400   3.298   4.219   0.999
 2132SOL    HW2 6401   3.401   4.330   1.058
 2133SOL     OW 6402   2.389   3.980   0.328
 2133SOL    HW1 6403   2.416   3.921   0.253
 2133SOL    HW2 6404   2.389   4.075   0.297
 2134SOL     OW 6405   2.777   3.813   1.402
 2134SOL    HW1 6406   2.802   3.793   1.307
 2134SOL    HW2 6407   2.849   3.869   1.444
 2135SOL     OW 6408   3.136   4.110   1.262
 2135SOL    HW1 6409   3.157   4.184   1.326
 2135SOL    HW2 6410   3.047   4.127   1.219
 2136SOL     OW 6411   2.428   4.261   0.865
 2136SOL    HW1 6412   2.440   4.327   0.791
 2136SOL    HW2 6413   2.474   4.295   0.948
 2137SOL     OW 6414   2.875   3.829   1.770
 2137SOL    HW1 6415   2.881   3.914   1.718
 2137SOL    HW2 6416   2.907   3.753   1.713
 2138SOL     OW 6417   2.366   3.774   1.740
 2138SOL    HW1 6418   2.324   3.717   1.670
 2138SOL    HW2 6419   2.300   3.843   1.772
 2139SOL     OW 6420   2.169   3.937   1.231
 2139SOL    HW1 6421   2.146   3.974   1.321
 2139SOL    HW2 6422   2.139   3.842   1.225
 2140SOL     OW 6423   2.594   4.358   1.064
 2140SOL    HW1 6424   2.653   4.332   0.988
 2140SOL    HW2 6425   2.566   4.454   1.053
 2141SOL     OW 6426   2.169   3.787   0.618
 2141SOL    HW1 6427   2.158   3.881   0.651
 2141SOL    HW2 6428   2.164   3.724   0.695
 2142SOL     OW 6429   3.484   4.091   0.374
 2142SOL    HW1 6430   3.486   4.015   0.438
 2142SOL    HW2 6431   3.436   4.168   0.414
 2143SOL     OW 6432   3.402   3.998   0.125
 2143SOL    HW1 6433   3.341   3.923   0.148
 2143SOL    HW2 6434   3.424   4.050   0.208
 2144SOL     OW 6435   2.201   4.233   1.006
 2144SOL    HW1 6436   2.149   4.150   0.989
 2144SOL    HW2 6437   2.278   4.238   0.942
 2145SOL     OW 6438   3.000   4.104   1.678
 2145SOL    HW1 6439   2.955   4.167   1.742
 2145SOL    HW2 6440   3.093   4.135   1.661
 2146SOL     OW 6441   3.022   3.931   1.477
 2146SOL    HW1 6442   3.022   3.995   1.554
 2146SOL    HW2 6443   3.050   3.979   1.394
 2147SOL     OW 6444   1.902   4.268   1.114
 2147SOL    HW1 6445   1.987   4.235   1.073
 2147SOL    HW2 6446   1.915   4.283   1.212
 2148SOL     OW 6447   2.051   4.244   1.722
 2148SOL    HW1 6448   2.110   4.204   1.652
 2148SOL    HW2 6449   1.993   4.315   1.681
 2149SOL     OW 6450   2.677   4.296   0.325
 2149SOL    HW1 6451   2.684   4.207   0.279
 2149SOL    HW2 6452   2.583   4.330   0.317
 2150SOL     OW 6453   3.519   4.328   1.206
 2150SOL    HW1 6454   3.481   4.259   1.268
 2150SOL    HW2 6455   3.601   4.292   1.162
 2151SOL     OW 6456   2.533   4.188   1.269
 2151SOL    HW1 6457   2.499   4.099   1.239
 2151SOL    HW2 6458   2.559   4.242   1.189
 2152SOL     OW 6459   2.765   3.810   0.133
 2152SOL    HW1 6460   2.816   3.811   0.047
 2152SOL    HW2 6461   2.821   3.768   0.204
 2153SOL     OW 6462   3.588   3.859   0.523
 2153SOL    HW1 6463   3.661   3.842   0.456
 2153SOL    HW2 6464   3.557   3.772   0.561
 2154SOL     OW 6465   3.703   3.899   0.963
 2154SOL    HW1 6466   3.742   3.814   0.927
 2154SOL    HW2 6467   3.605   3.901   0.944
 2155SOL     OW 6468   2.125   4.050   0.720
 2155SOL    HW1 6469   2.046   4.101   0.686
 2155SOL    HW2 6470   2.116   4.035   0.818
 2156SOL     OW 6471   2.876   3.960   0.971
 2156SOL    HW1 6472   2.868   3.924   0.878
 2156SOL    HW2 6473   2.874   3.884   1.036
 2157SOL     OW 6474   3.571   4.109   1.381
 2157SOL    HW1 6475   3.644   4.178   1.385
 2157SOL    HW2 6476   3.599   4.034   1.322
 2158SOL     OW 6477   2.534   3.927   1.489
 2158SOL    HW1 6478   2.624   3.911   1.449
 2158SOL    HW2 6479   2.542   3.932   1.588
 2159SOL     OW 6480   1.937   4.069   0.033
 2159SOL    HW1 6481   1.845   4.041   0.004
 2159SOL    HW2 6482   1.968   4.146  -0.023
 2160SOL     OW 6483   1.934   3.890   0.318
 2160SOL    HW1 6484   1.917   3.973   0.264
 2160SOL    HW2 6485   2.024   3.853   0.296
 2161SOL     OW 6486   2.578   4.289   1.708
 2161SOL    HW1 6487   2.597   4.354   1.782
 2161SOL    HW2 6488   2.638   4.209   1.717
 2162SOL     OW 6489   3.087   4.049   0.449
 2162SOL    HW1 6490   3.152   3.975   0.438
 2162SOL    HW2 6491   3.107   4.099   0.533
 2163SOL     OW 6492   3.639   4.066   1.642
 2163SOL    HW1 6493   3.622   4.097   1.548
 2163SOL    HW2 6494   3.555   4.029   1.680
 2164SOL     OW 6495   3.686   3.916   1.227
 2164SOL    HW1 6496   3.682   3.826   1.271
 2164SOL    HW2 6497   3.689   3.905   1.128
 2165SOL     OW 6498   2.290   4.148   0.520
 2165SOL    HW1 6499   2.320   4.076   0.458
 2165SOL    HW2 6500   2.251   4.108   0.603
 2166SOL     OW 6501   2.179   4.271   1.280
 2166SOL    HW1 6502   2.217   4.212   1.352
 2166SOL    HW2 6503   2.219   4.245   1.192
 2167SOL     OW 6504   3.286   3.938   1.112
 2167SOL    HW1 6505   3.338   3.873   1.167
 2167SOL    HW2 6506   3.237   4.001   1.173
 2168SOL     OW 6507   2.863   3.758   1.154
 2168SOL    HW1 6508   2.800   3.686   1.123
 2168SOL    HW2 6509   2.956   3.722   1.154
 2169SOL     OW 6510   3.214   3.776   0.168
 2169SOL    HW1 6511   3.249   3.735   0.084
 2169SOL    HW2 6512   3.124   3.738   0.188
 2170SOL     OW 6513   3.162   4.177   0.691
 2170SOL    HW1 6514   3.103   4.257   0.695
 2170SOL    HW2 6515   3.177   4.142   0.784
 2171SOL     OW 6516   3.455   3.945   0.882
 2171SOL    HW1 6517   3.371   3.944   0.936
 2171SOL    HW2 6518   3.457   4.028   0.826
 2172SOL     OW 6519   2.087   3.999   2.858
 2172SOL    HW1 6520   2.122   3.982   2.950
 2172SOL    HW2 6521   1.999   3.954   2.846
 2173SOL     OW 6522   1.881   4.092   2.509
 2173SOL    HW1 6523   1.799   4.135   2.548
 2173SOL    HW2 6524   1.853   4.019   2.446
 2174SOL     OW 6525   3.617   4.331   2.093
 2174SOL    HW1 6526   3.605   4.318   1.994
 2174SOL    HW2 6527   3.587   4.250   2.142
 2175SOL     OW 6528   2.300   4.116   3.361
 2175SOL    HW1 6529   2.382   4.060   3.370
 2175SOL    HW2 6530   2.219   4.058   3.365
 2176SOL     OW 6531   3.465   4.171   2.599
 2176SOL    HW1 6532   3.391   4.217   2.549
 2176SOL    HW2 6533   3.516   4.239   2.652
 2177SOL     OW 6534   3.456   3.838   3.342
 2177SOL    HW1 6535   3.438   3.905   3.270
 2177SOL    HW2 6536   3.453   3.884   3.431
 2178SOL     OW 6537   1.984   4.367   2.425
 2178SOL    HW1 6538   1.939   4.279   2.442
 2178SOL    HW2 6539   1.983   4.421   2.509
 2179SOL     OW 6540   2.671   3.728   2.364
 2179SOL    HW1 6541   2.711   3.819   2.355
 2179SOL    HW2 6542   2.571   3.736   2.370
 2180SOL     OW 6543   2.179   3.975   3.663
 2180SOL    HW1 6544   2.250   4.046   3.669
 2180SOL    HW2 6545   2.091   4.014   3.691
 2181SOL     OW 6546   3.143   4.069   2.806
 2181SOL    HW1 6547   3.057   4.019   2.793
 2181SOL    HW2 6548   3.205   4.015   2.862
 2182SOL     OW 6549   3.256   4.193   3.536
 2182SOL    HW1 6550   3.236   4.236   3.624
 2182SOL    HW2 6551   3.334   4.131   3.545
 2183SOL     OW 6552   2.853   4.134   3.104
 2183SOL    HW1 6553   2.776   4.168   3.158
 2183SOL    HW2 6554   2.819   4.083   3.025
 2184SOL     OW 6555   1.938   4.535   2.651
 2184SOL    HW1 6556   2.037   4.523   2.660
 2184SOL    HW2 6557   1.914   4.630   2.672
 2185SOL     OW 6558   2.727   4.072   2.057
 2185SOL    HW1 6559   2.786   4.135   2.008
 2185SOL    HW2 6560   2.746   3.978   2.028
 2186SOL     OW 6561   3.581   4.309   3.693
 2186SOL    HW1 6562   3.555   4.398   3.657
 2186SOL    HW2 6563   3.579   4.241   3.620
 2187SOL     OW 6564   2.412   3.920   2.747
 2187SOL    HW1 6565   2.407   3.915   2.847
 2187SOL    HW2 6566   2.414   4.016   2.718
 2188SOL     OW 6567   2.064   4.009   3.360
 2188SOL    HW1 6568   1.984   4.069   3.347
 2188SOL    HW2 6569   2.054   3.960   3.446
 2189SOL     OW 6570   3.262   3.831   2.288
 2189SOL    HW1 6571   3.238   3.794   2.198
 2189SOL    HW2 6572   3.361   3.847   2.292
 2190SOL     OW 6573   3.409   3.946   3.591
 2190SOL    HW1 6574   3.404   3.983   3.683
 2190SOL    HW2 6575   3.337   3.877   3.579
 2191SOL     OW 6576   2.476   3.846   1.979
 2191SOL    HW1 6577   2.574   3.824   1.986
 2191SOL    HW2 6578   2.445   3.829   1.886
 2192SOL     OW 6579   2.643   3.988   3.611
 2192SOL    HW1 6580   2.710   3.927   3.654
 2192SOL    HW2 6581   2.570   4.007   3.676
 2193SOL     OW 6582   3.213   4.314   3.295
 2193SOL    HW1 6583   3.241   4.271   3.380
 2193SOL    HW2 6584   3.238   4.410   3.296
 2194SOL     OW 6585   2.401   3.788   2.374
 2194SOL    HW1 6586   2.320   3.789   2.432
 2194SOL    HW2 6587   2.404   3.871   2.319
 2195SOL     OW 6588   2.159   3.759   2.033
 2195SOL    HW1 6589   2.208   3.843   2.012
 2195SOL    HW2 6590   2.221   3.694   2.078
 2196SOL     OW 6591   2.797   3.960   2.342
 2196SOL    HW1 6592   2.749   4.001   2.264
 2196SOL    HW2 6593   2.896   3.958   2.323
 2197SOL     OW 6594   1.940   4.280   3.248
 2197SOL    HW1 6595   2.032   4.279   3.207
 2197SOL    HW2 6596   1.934   4.354   3.315
 2198SOL     OW 6597   2.423   3.946   3.009
 2198SOL    HW1 6598   2.461   3.862   3.046
 2198SOL    HW2 6599   2.335   3.965   3.053
 2199SOL     OW 6600   2.879   3.763   2.615
 2199SOL    HW1 6601   2.807   3.768   2.546
 2199SOL    HW2 6602   2.855   3.694   2.684
 2200SOL     OW 6603   3.328   4.314   2.854
 2200SOL    HW1 6604   3.298   4.219   2.861
 2200SOL    HW2 6605   3.401   4.330   2.920
 2201SOL     OW 6606   2.389   3.980   2.190
 2201SOL    HW1 6607   2.416   3.921   2.115
 2201SOL    HW2 6608   2.389   4.075   2.159
 2202SOL     OW 6609   2.777   3.813   3.264
 2202SOL    HW1 6610   2.802   3.793   3.169
 2202SOL    HW2 6611   2.849   3.869   3.306
 2203SOL     OW 6612   3.136   4.110   3.124
 2203SOL    HW1 6613   3.157   4.184   3.188
 2203SOL    HW2 6614   3.047   4.127   3.081
 2204SOL     OW 6615   2.428   4.261   2.727
 2204SOL    HW1 6616   2.440   4.327   2.653
 2204SOL    HW2 6617   2.474   4.295   2.810
 2205SOL     OW 6618   2.875   3.829   3.632
 2205SOL    HW1 6619   2.881   3.914   3.580
 2205SOL    HW2 6620   2.907   3.753   3.575
 2206SOL     OW 6621   2.366   3.774   3.602
 2206SOL    HW1 6622   2.324   3.717   3.532
 2206SOL    HW2 6623   2.300   3.843   3.634
 2207SOL     OW 6624   2.169   3.937   3.093
 2207SOL    HW1 6625   2.146   3.974   3.183
 2207SOL    HW2 6626   2.139   3.842   3.087
 2208SOL     OW 6627   2.594   4.358   2.926
 2208SOL    HW1 6628   2.653   4.332   2.850
 2208SOL    HW2 6629   2.566   4.454   2.915
 2209SOL     OW 6630   2.169   3.787   2.480
 2209SOL    HW1 6631   2.158   3.881   2.513
 2209SOL    HW2 6632   2.164   3.724   2.557
 2210SOL     OW 6633   3.484   4.091   2.236
 2210SOL    HW1 6634   3.486   4.015   2.300
 2210SOL    HW2 6635   3.436   4.168   2.276
 2211SOL     OW 6636   3.402   3.998   1.987
 2211SOL    HW1 6637   3.341   3.923   2.010
 2211SOL    HW2 6638   3.424   4.050   2.070
 2212SOL     OW 6639   2.201   4.233   2.868
 2212SOL    HW1 6640   2.149   4.150   2.851
 2212SOL    HW2 6641   2.278   4.238   2.804
 2213SOL     OW 6642   3.000   4.104   3.540
 2213SOL    HW1 6643   2.955   4.167   3.604
 2213SOL    HW2 6644   3.093   4.135   3.523
 2214SOL     OW 6645   3.022   3.931   3.339
 2214SOL    HW1 6646   3.022   3.995   3.416
 2214SOL    HW2 6647   3.050   3.979   3.256
 2215SOL     OW 6648   1.902   4.268   2.976
 2215SOL    HW1 6649   1.987   4.235   2.935
 2215SOL    HW2 6650   1.915   4.283   3.074
 2216SOL     OW 6651   2.051   4.244   3.584
 2216SOL    HW1 6652   2.110   4.204   3.514
 2216SOL    HW2 6653   1.993   4.315   3.543
 2217SOL     OW 6654   2.677   4.296   2.187
 2217SOL    HW1 6655   2.684   4.207   2.141
 2217SOL    HW2 6656   2.583   4.330   2.179
 2218SOL     OW 6657   3.519   4.328   3.068
 2218SOL    HW1 6658   3.481   4.259   3.130
 2218SOL    HW2 6659   3.601   4.292   3.024
 2219SOL     OW 6660   2.533   4.188   3.131
 2219SOL    HW1 6661   2.499   4.099   3.101
 2219SOL    HW2 6662   2.559   4.242   3.051
 2220SOL     OW 6663   3.588   3.859   2.385
 2220SOL    HW1 6664   3.661   3.842   2.318
 2220SOL    HW2 6665   3.557   3.772   2.423
 2221SOL     OW 6666   3.703   3.899   2.825
 2221SOL    HW1 6667   3.742   3.814   2.789
 2221SOL    HW2 6668   3.605   3.901   2.806
 2222SOL     OW 6669   2.125   4.050   2.582
 2222SOL    HW1 6670   2.046   4.101   2.548
 2222SOL    HW2 6671   2.116   4.035   2.680
 2223SOL     OW 6672   2.876   3.960   2.833
 2223SOL    HW1 6673   2.868   3.924   2.740
 2223SOL    HW2 6674   2.874   3.884   2.898
 2224SOL     OW 6675   3.571   4.109   3.243
 2224SOL    HW1 6676   3.644   4.178   3.247
 2224SOL    HW2 6677   3.599   4.034   3.184
 2225SOL     OW 6678   2.534   3.927   3.351
 2225SOL    HW1 6679   2.624   3.911   3.311
 2225SOL    HW2 6680   2.542   3.932   3.450
 2226SOL     OW 6681   1.937   4.069   1.895
 2226SOL    HW1 6682   1.845   4.041   1.866
 2226SOL    HW2 6683   1.968   4.146   1.839
 2227SOL     OW 6684   1.934   3.890   2.180
 2227SOL    HW1 6685   1.917   3.973   2.126
 2227SOL    HW2 6686   2.024   3.853   2.158
 2228SOL     OW 6687   2.578   4.289   3.570
 2228SOL    HW1 6688   2.597   4.354   3.644
 2228SOL    HW2 6689   2.638   4.209   3.579
 2229SOL     OW 6690   3.087   4.049   2.311
 2229SOL    HW1 6691   3.152   3.975   2.300
 2229SOL    HW2 6692   3.107   4.099   2.395
 2230SOL     OW 6693   3.639   4.066   3.504
 2230SOL    HW1 6694   3.622   4.097   3.410
 2230SOL    HW2 6695   3.555   4.029   3.542
 2231SOL     OW 6696   3.686   3.916   3.089
 2231SOL    HW1 6697   3.682   3.826   3.133
 2231SOL    HW2 6698   3.689   3.905   2.990
 2232SOL     OW 6699   2.290   4.148   2.382
 2232SOL    HW1 6700   2.320   4.076   2.320
 2232SOL    HW2 6701   2.251   4.108   2.465
 2233SOL     OW 6702   2.179   4.271   3.142
 2233SOL    HW1 6703   2.217   4.212   3.214
 2233SOL    HW2 6704   2.219   4.245   3.054
 2234SOL     OW 6705   3.286   3.938   2.974
 2234SOL    HW1 6706   3.338   3.873   3.029
 2234SOL    HW2 6707   3.237   4.001   3.035
 2235SOL     OW 6708   2.863   3.758   3.016
 2235SOL    HW1 6709   2.800   3.686   2.985
 2235SOL    HW2 6710   2.956   3.722   3.016
 2236SOL     OW 6711   3.214   3.776   2.030
 2236SOL    HW1 6712   3.249   3.735   1.946
 2236SOL    HW2 6713   3.124   3.738   2.050
 2237SOL     OW 6714   3.162   4.177   2.553
 2237SOL    HW1 6715   3.103   4.257   2.557
 2237SOL    HW2 6716   3.177   4.142   2.646
 2238SOL     OW 6717   3.455   3.945   2.744
 2238SOL    HW1 6718   3.371   3.944   2.798
 2238SOL    HW2 6719   3.457   4.028   2.688
 2239SOL     OW 6720   2.997   4.427   4.441
 2239SOL    HW1 6721   3.054   4.505   4.416
 2239SOL    HW2 6722   2.937   4.453   4.517
 2240SOL     OW 6723   3.617   4.331   3.955
 2240SOL    HW1 6724   3.605   4.318   3.856
 2240SOL    HW2 6725   3.587   4.250   4.004
 2241SOL     OW 6726   2.671   3.728   4.226
 2241SOL    HW1 6727   2.711   3.819   4.217
 2241SOL    HW2 6728   2.571   3.736   4.232
 2242SOL     OW 6729   2.727   4.072   3.919
 2242SOL    HW1 6730   2.786   4.135   3.870
 2242SOL    HW2 6731   2.746   3.978   3.890
 2243SOL     OW 6732   3.262   3.831   4.150
 2243SOL    HW1 6733   3.238   3.794   4.060
 2243SOL    HW2 6734   3.361   3.847   4.154
 2244SOL     OW 6735   2.244   4.424   4.204
 2244SOL    HW1 6736   2.289   4.334   4.201
 2244SOL    HW2 6737   2.150   4.413   4.237
 2245SOL     OW 6738   2.476   3.846   3.841
 2245SOL    HW1 6739   2.574   3.824   3.848
 2245SOL    HW2 6740   2.445   3.829   3.748
 2246SOL     OW 6741   2.159   3.759   3.895
 2246SOL    HW1 6742   2.208   3.843   3.874
 2246SOL    HW2 6743   2.221   3.694   3.940
 2247SOL     OW 6744   2.797   3.960   4.204
 2247SOL    HW1 6745   2.749   4.001   4.126
 2247SOL    HW2 6746   2.896   3.958   4.185
 2248SOL     OW 6747   2.389   3.980   4.052
 2248SOL    HW1 6748   2.416   3.921   3.977
 2248SOL    HW2 6749   2.389   4.075   4.021
 2249SOL     OW 6750   3.484   4.091   4.098
 2249SOL    HW1 6751   3.486   4.015   4.162
 2249SOL    HW2 6752   3.436   4.168   4.138
 2250SOL     OW 6753   3.402   3.998   3.849
 2250SOL    HW1 6754   3.341   3.923   3.872
 2250SOL    HW2 6755   3.424   4.050   3.932
 2251SOL     OW 6756   2.677   4.296   4.049
 2251SOL    HW1 6757   2.684   4.207   4.003
 2251SOL    HW2 6758   2.583   4.330   4.041
 2252SOL     OW 6759   3.588   3.859   4.247
 2252SOL    HW1 6760   3.661   3.842   4.180
 2252SOL    HW2 6761   3.557   3.772   4.285
 2253SOL     OW 6762   1.937   4.069   3.757
 2253SOL    HW1 6763   1.845   4.041   3.728
 2253SOL    HW2 6764   1.968   4.146   3.701
 2254SOL     OW 6765   1.934   3.890   4.042
 2254SOL    HW1 6766   1.917   3.973   3.988
 2254SOL    HW2 6767   2.024   3.853   4.020
 2255SOL     OW 6768   3.087   4.049   4.173
 2255SOL    HW1 6769   3.152   3.975   4.162
 2255SOL    HW2 6770   3.107   4.099   4.257
 2256SOL     OW 6771   2.290   4.148   4.244
 2256SOL    HW1 6772   2.320   4.076   4.182
 2256SOL    HW2 6773   2.251   4.108   4.327
 2257SOL     OW 6774   3.214   3.776   3.892
 2257SOL    HW1 6775   3.249   3.735   3.808
 2257SOL    HW2 6776   3.124   3.738   3.912
 2258SOL     OW 6777   3.954   0.628   0.113
 2258SOL    HW1 6778   3.861   0.626   0.150
 2258SOL    HW2 6779   3.955   0.589   0.021
 2259SOL     OW 6780   3.949   0.275   0.996
 2259SOL    HW1 6781   3.984   0.258   1.088
 2259SOL    HW2 6782   3.861   0.230   0.984
 2260SOL     OW 6783   3.743   0.368   0.647
 2260SOL    HW1 6784   3.661   0.411   0.686
 2260SOL    HW2 6785   3.715   0.295   0.584
 2261SOL     OW 6786   4.409   1.012   0.665
 2261SOL    HW1 6787   4.478   0.996   0.735
 2261SOL    HW2 6788   4.336   1.069   0.703
 2262SOL     OW 6789   4.059   1.435   1.061
 2262SOL    HW1 6790   3.981   1.404   1.008
 2262SOL    HW2 6791   4.117   1.493   1.004
 2263SOL     OW 6792   4.162   0.392   1.499
 2263SOL    HW1 6793   4.244   0.336   1.508
 2263SOL    HW2 6794   4.081   0.334   1.503
 2264SOL     OW 6795   3.955   1.713   0.483
 2264SOL    HW1 6796   3.989   1.790   0.537
 2264SOL    HW2 6797   3.999   1.713   0.393
 2265SOL     OW 6798   3.954   1.434   0.538
 2265SOL    HW1 6799   3.928   1.530   0.538
 2265SOL    HW2 6800   3.883   1.380   0.583
 2266SOL     OW 6801   3.964   1.091   0.886
 2266SOL    HW1 6802   3.978   1.007   0.938
 2266SOL    HW2 6803   3.909   1.155   0.941
 2267SOL     OW 6804   3.846   0.643   0.563
 2267SOL    HW1 6805   3.801   0.555   0.580
 2267SOL    HW2 6806   3.845   0.697   0.647
 2268SOL     OW 6807   3.751   1.596   0.117
 2268SOL    HW1 6808   3.732   1.500   0.138
 2268SOL    HW2 6809   3.718   1.654   0.192
 2269SOL     OW 6810   3.837   0.737   1.597
 2269SOL    HW1 6811   3.925   0.724   1.642
 2269SOL    HW2 6812   3.824   0.834   1.575
 2270SOL     OW 6813   3.921   0.976   1.264
 2270SOL    HW1 6814   4.010   0.931   1.250
 2270SOL    HW2 6815   3.848   0.911   1.245
 2271SOL     OW 6816   4.041   0.251   1.801
 2271SOL    HW1 6817   4.112   0.322   1.807
 2271SOL    HW2 6818   3.953   0.290   1.829
 2272SOL     OW 6819   4.322   0.729   0.270
 2272SOL    HW1 6820   4.346   0.798   0.202
 2272SOL    HW2 6821   4.244   0.762   0.324
 2273SOL     OW 6822   3.800   0.811   0.789
 2273SOL    HW1 6823   3.899   0.799   0.798
 2273SOL    HW2 6824   3.776   0.906   0.810
 2274SOL     OW 6825   3.854   1.821   1.571
 2274SOL    HW1 6826   3.844   1.806   1.670
 2274SOL    HW2 6827   3.768   1.857   1.535
 2275SOL     OW 6828   4.075   1.801   0.853
 2275SOL    HW1 6829   4.125   1.715   0.859
 2275SOL    HW2 6830   4.140   1.878   0.850
 2276SOL     OW 6831   4.045   0.943   0.242
 2276SOL    HW1 6832   4.127   0.982   0.200
 2276SOL    HW2 6833   4.018   0.861   0.193
 2277SOL     OW 6834   4.185   1.266   1.727
 2277SOL    HW1 6835   4.135   1.267   1.641
 2277SOL    HW2 6836   4.122   1.248   1.803
 2278SOL     OW 6837   3.926   0.285   1.498
 2278SOL    HW1 6838   3.846   0.345   1.485
 2278SOL    HW2 6839   3.916   0.236   1.584
 2279SOL     OW 6840   3.973   1.785   1.241
 2279SOL    HW1 6841   4.030   1.720   1.291
 2279SOL    HW2 6842   3.957   1.752   1.148
 2280SOL     OW 6843   4.106   0.700   0.480
 2280SOL    HW1 6844   4.151   0.610   0.477
 2280SOL    HW2 6845   4.012   0.689   0.513
 2281SOL     OW 6846   4.338   0.122   0.117
 2281SOL    HW1 6847   4.436   0.100   0.124
 2281SOL    HW2 6848   4.307   0.105   0.024
 2282SOL     OW 6849   4.263   0.064   0.512
 2282SOL    HW1 6850   4.182   0.065   0.570
 2282SOL    HW2 6851   4.266   0.147   0.457
 2283SOL     OW 6852   4.021   0.035   0.171
 2283SOL    HW1 6853   4.070   0.119   0.150
 2283SOL    HW2 6854   4.083  -0.030   0.216
 2284SOL     OW 6855   4.183   1.152   0.741
 2284SOL    HW1 6856   4.112   1.125   0.806
 2284SOL    HW2 6857   4.157   1.124   0.648
 2285SOL     OW 6858   3.802   0.556   1.386
 2285SOL    HW1 6859   3.894   0.555   1.345
 2285SOL    HW2 6860   3.796   0.630   1.453
 2286SOL     OW 6861   4.285   0.222   1.147
 2286SOL    HW1 6862   4.323   0.138   1.184
 2286SOL    HW2 6863   4.197   0.241   1.191
 2287SOL     OW 6864   4.134   0.813   1.251
 2287SOL    HW1 6865   4.220   0.825   1.301
 2287SOL    HW2 6866   4.092   0.726   1.278
 2288SOL     OW 6867   3.788   1.564   1.331
 2288SOL    HW1 6868   3.742   1.646   1.297
 2288SOL    HW2 6869   3.886   1.583   1.340
 2289SOL     OW 6870   4.091   1.100   0.501
 2289SOL    HW1 6871   4.084   1.183   0.445
 2289SOL    HW2 6872   4.095   1.020   0.441
 2290SOL     OW 6873   4.290   0.537   0.865
 2290SOL    HW1 6874   4.302   0.603   0.791
 2290SOL    HW2 6875   4.336   0.571   0.948
 2291SOL     OW 6876   4.078   1.510   1.329
 2291SOL    HW1 6877   4.057   1.466   1.242
 2291SOL    HW2 6878   4.175   1.536   1.332
 2292SOL     OW 6879   4.126   0.751   1.598
 2292SOL    HW1 6880   4.194   0.806   1.551
 2292SOL    HW2 6881   4.166   0.663   1.625
 2293SOL     OW 6882   4.228   0.050   1.740
 2293SOL    HW1 6883   4.186  -0.007   1.670
 2293SOL    HW2 6884   4.162   0.119   1.772
 2294SOL     OW 6885   4.297   0.870   1.029
 2294SOL    HW1 6886   4.341   0.959   1.020
 2294SOL    HW2 6887   4.234   0.870   1.106
 2295SOL     OW 6888   4.031   0.213   1.231
 2295SOL    HW1 6889   4.008   0.250   1.321
 2295SOL    HW2 6890   4.001   0.118   1.225
 2296SOL     OW 6891   3.761   1.310   1.282
 2296SOL    HW1 6892   3.814   1.261   1.350
 2296SOL    HW2 6893   3.783   1.408   1.287
 2297SOL     OW 6894   4.031   0.063   0.618
 2297SOL    HW1 6895   4.020   0.157   0.651
 2297SOL    HW2 6896   4.026   0.000   0.695
 2298SOL     OW 6897   4.074   0.898   1.804
 2298SOL    HW1 6898   4.150   0.942   1.852
 2298SOL    HW2 6899   4.109   0.851   1.722
 2299SOL     OW 6900   4.043   0.810   0.949
 2299SOL    HW1 6901   4.136   0.846   0.954
 2299SOL    HW2 6902   4.037   0.725   1.001
 2300SOL     OW 6903   4.063   0.509   1.006
 2300SOL    HW1 6904   4.011   0.426   0.989
 2300SOL    HW2 6905   4.140   0.514   0.942
 2301SOL     OW 6906   3.732   1.326   0.200
 2301SOL    HW1 6907   3.639   1.347   0.169
 2301SOL    HW2 6908   3.742   1.227   0.213
 2302SOL     OW 6909   3.812   1.801   0.927
 2302SOL    HW1 6910   3.770   1.715   0.900
 2302SOL    HW2 6911   3.906   1.804   0.893
 2303SOL     OW 6912   3.764   0.544   1.114
 2303SOL    HW1 6913   3.849   0.511   1.073
 2303SOL    HW2 6914   3.777   0.559   1.212
 2304SOL     OW 6915   3.913   0.520   1.722
 2304SOL    HW1 6916   3.972   0.480   1.652
 2304SOL    HW2 6917   3.855   0.591   1.681
 2305SOL     OW 6918   4.539   0.572   0.325
 2305SOL    HW1 6919   4.546   0.483   0.279
 2305SOL    HW2 6920   4.445   0.606   0.317
 2306SOL     OW 6921   3.976   1.564   1.744
 2306SOL    HW1 6922   3.946   1.621   1.820
 2306SOL    HW2 6923   3.969   1.467   1.770
 2307SOL     OW 6924   4.197   0.500   0.191
 2307SOL    HW1 6925   4.258   0.580   0.195
 2307SOL    HW2 6926   4.102   0.531   0.198
 2308SOL     OW 6927   3.883   1.137   1.466
 2308SOL    HW1 6928   3.905   1.076   1.542
 2308SOL    HW2 6929   3.893   1.088   1.380
 2309SOL     OW 6930   3.807   1.258   1.022
 2309SOL    HW1 6931   3.802   1.257   1.122
 2309SOL    HW2 6932   3.724   1.217   0.984
 2310SOL     OW 6933   3.854   1.794   1.851
 2310SOL    HW1 6934   3.813   1.720   1.904
 2310SOL    HW2 6935   3.918   1.845   1.909
 2311SOL     OW 6936   3.987   0.326   0.720
 2311SOL    HW1 6937   3.908   0.377   0.686
 2311SOL    HW2 6938   3.978   0.311   0.818
 2312SOL     OW 6939   4.096   1.288   1.490
 2312SOL    HW1 6940   4.083   1.381   1.456
 2312SOL    HW2 6941   4.012   1.236   1.477
 2313SOL     OW 6942   4.314   1.487   0.491
 2313SOL    HW1 6943   4.356   1.429   0.421
 2313SOL    HW2 6944   4.270   1.566   0.447
 2314SOL     OW 6945   3.979   1.348   0.290
 2314SOL    HW1 6946   3.883   1.349   0.263
 2314SOL    HW2 6947   3.991   1.401   0.374
 2315SOL     OW 6948   3.829   1.013   1.726
 2315SOL    HW1 6949   3.752   0.980   1.780
 2315SOL    HW2 6950   3.914   0.983   1.768
 2316SOL     OW 6951   3.799   0.345   0.033
 2316SOL    HW1 6952   3.707   0.317   0.004
 2316SOL    HW2 6953   3.830   0.422  -0.023
 2317SOL     OW 6954   3.796   0.166   0.318
 2317SOL    HW1 6955   3.779   0.249   0.264
 2317SOL    HW2 6956   3.886   0.129   0.296
 2318SOL     OW 6957   4.114   1.741   1.560
 2318SOL    HW1 6958   4.023   1.782   1.558
 2318SOL    HW2 6959   4.107   1.647   1.592
 2319SOL     OW 6960   3.945   1.314   1.844
 2319SOL    HW1 6961   3.880   1.241   1.823
 2319SOL    HW2 6962   3.949   1.328   1.942
 2320SOL     OW 6963   3.803   1.240   0.653
 2320SOL    HW1 6964   3.802   1.193   0.741
 2320SOL    HW2 6965   3.885   1.212   0.602
 2321SOL     OW 6966   4.396   1.391   1.624
 2321SOL    HW1 6967   4.318   1.341   1.662
 2321SOL    HW2 6968   4.393   1.486   1.655
 2322SOL     OW 6969   4.152   0.424   0.520
 2322SOL    HW1 6970   4.182   0.352   0.458
 2322SOL    HW2 6971   4.113   0.384   0.603
 2323SOL     OW 6972   4.041   0.547   1.280
 2323SOL    HW1 6973   4.079   0.488   1.352
 2323SOL    HW2 6974   4.081   0.521   1.192
 2324SOL     OW 6975   3.763   1.077   0.300
 2324SOL    HW1 6976   3.862   1.066   0.291
 2324SOL    HW2 6977   3.723   0.991   0.332
 2325SOL     OW 6978   3.954   0.628   1.975
 2325SOL    HW1 6979   3.861   0.626   2.012
 2325SOL    HW2 6980   3.955   0.589   1.883
 2326SOL     OW 6981   3.949   0.275   2.858
 2326SOL    HW1 6982   3.984   0.258   2.950
 2326SOL    HW2 6983   3.861   0.230   2.846
 2327SOL     OW 6984   3.743   0.368   2.509
 2327SOL    HW1 6985   3.661   0.411   2.548
 2327SOL    HW2 6986   3.715   0.295   2.446
 2328SOL     OW 6987   4.409   1.012   2.527
 2328SOL    HW1 6988   4.478   0.996   2.597
 2328SOL    HW2 6989   4.336   1.069   2.565
 2329SOL     OW 6990   4.059   1.435   2.923
 2329SOL    HW1 6991   3.981   1.404   2.870
 2329SOL    HW2 6992   4.117   1.493   2.866
 2330SOL     OW 6993   4.162   0.392   3.361
 2330SOL    HW1 6994   4.244   0.336   3.370
 2330SOL    HW2 6995   4.081   0.334   3.365
 2331SOL     OW 6996   3.955   1.713   2.345
 2331SOL    HW1 6997   3.989   1.790   2.399
 2331SOL    HW2 6998   3.999   1.713   2.255
 2332SOL     OW 6999   3.954   1.434   2.400
 2332SOL    HW1 7000   3.928   1.530   2.400
 2332SOL    HW2 7001   3.883   1.380   2.445
 2333SOL     OW 7002   3.964   1.091   2.748
 2333SOL    HW1 7003   3.978   1.007   2.800
 2333SOL    HW2 7004   3.909   1.155   2.803
 2334SOL     OW 7005   3.846   0.643   2.425
 2334SOL    HW1 7006   3.801   0.555   2.442
 2334SOL    HW2 7007   3.845   0.697   2.509
 2335SOL     OW 7008   3.751   1.596   1.979
 2335SOL    HW1 7009   3.732   1.500   2.000
 2335SOL    HW2 7010   3.718   1.654   2.054
 2336SOL     OW 7011   3.837   0.737   3.459
 2336SOL    HW1 7012   3.925   0.724   3.504
 2336SOL    HW2 7013   3.824   0.834   3.437
 2337SOL     OW 7014   3.921   0.976   3.126
 2337SOL    HW1 7015   4.010   0.931   3.112
 2337SOL    HW2 7016   3.848   0.911   3.107
 2338SOL     OW 7017   4.041   0.251   3.663
 2338SOL    HW1 7018   4.112   0.322   3.669
 2338SOL    HW2 7019   3.953   0.290   3.691
 2339SOL     OW 7020   4.322   0.729   2.132
 2339SOL    HW1 7021   4.346   0.798   2.064
 2339SOL    HW2 7022   4.244   0.762   2.186
 2340SOL     OW 7023   3.800   0.811   2.651
 2340SOL    HW1 7024   3.899   0.799   2.660
 2340SOL    HW2 7025   3.776   0.906   2.672
 2341SOL     OW 7026   3.854   1.821   3.433
 2341SOL    HW1 7027   3.844   1.806   3.532
 2341SOL    HW2 7028   3.768   1.857   3.397
 2342SOL     OW 7029   4.075   1.801   2.715
 2342SOL    HW1 7030   4.125   1.715   2.721
 2342SOL    HW2 7031   4.140   1.878   2.712
 2343SOL     OW 7032   4.045   0.943   2.104
 2343SOL    HW1 7033   4.127   0.982   2.062
 2343SOL    HW2 7034   4.018   0.861   2.055
 2344SOL     OW 7035   4.185   1.266   3.589
 2344SOL    HW1 7036   4.135   1.267   3.503
 2344SOL    HW2 7037   4.122   1.248   3.665
 2345SOL     OW 7038   3.926   0.285   3.360
 2345SOL    HW1 7039   3.846   0.345   3.347
 2345SOL    HW2 7040   3.916   0.236   3.446
 2346SOL     OW 7041   3.973   1.785   3.103
 2346SOL    HW1 7042   4.030   1.720   3.153
 2346SOL    HW2 7043   3.957   1.752   3.010
 2347SOL     OW 7044   4.106   0.700   2.342
 2347SOL    HW1 7045   4.151   0.610   2.339
 2347SOL    HW2 7046   4.012   0.689   2.375
 2348SOL     OW 7047   4.338   0.122   1.979
 2348SOL    HW1 7048   4.436   0.100   1.986
 2348SOL    HW2 7049   4.307   0.105   1.886
 2349SOL     OW 7050   4.263   0.064   2.374
 2349SOL    HW1 7051   4.182   0.065   2.432
 2349SOL    HW2 7052   4.266   0.147   2.319
 2350SOL     OW 7053   4.021   0.035   2.033
 2350SOL    HW1 7054   4.070   0.119   2.012
 2350SOL    HW2 7055   4.083  -0.030   2.078
 2351SOL     OW 7056   4.183   1.152   2.603
 2351SOL    HW1 7057   4.112   1.125   2.668
 2351SOL    HW2 7058   4.157   1.124   2.510
 2352SOL     OW 7059   3.802   0.556   3.248
 2352SOL    HW1 7060   3.894   0.555   3.207
 2352SOL    HW2 7061   3.796   0.630   3.315
 2353SOL     OW 7062   4.285   0.222   3.009
 2353SOL    HW1 7063   4.323   0.138   3.046
 2353SOL    HW2 7064   4.197   0.241   3.053
 2354SOL     OW 7065   4.134   0.813   3.113
 2354SOL    HW1 7066   4.220   0.825   3.163
 2354SOL    HW2 7067   4.092   0.726   3.140
 2355SOL     OW 7068   3.788   1.564   3.193
 2355SOL    HW1 7069   3.742   1.646   3.159
 2355SOL    HW2 7070   3.886   1.583   3.202
 2356SOL     OW 7071   4.091   1.100   2.363
 2356SOL    HW1 7072   4.084   1.183   2.307
 2356SOL    HW2 7073   4.095   1.020   2.303
 2357SOL     OW 7074   4.290   0.537   2.727
 2357SOL    HW1 7075   4.302   0.603   2.653
 2357SOL    HW2 7076   4.336   0.571   2.810
 2358SOL     OW 7077   4.078   1.510   3.191
 2358SOL    HW1 7078   4.057   1.466   3.104
 2358SOL    HW2 7079   4.175   1.536   3.194
 2359SOL     OW 7080   4.126   0.751   3.460
 2359SOL    HW1 7081   4.194   0.806   3.413
 2359SOL    HW2 7082   4.166   0.663   3.487
 2360SOL     OW 7083   4.228   0.050   3.602
 2360SOL    HW1 7084   4.186  -0.007   3.532
 2360SOL    HW2 7085   4.162   0.119   3.634
 2361SOL     OW 7086   4.297   0.870   2.891
 2361SOL    HW1 7087   4.341   0.959   2.882
 2361SOL    HW2 7088   4.234   0.870   2.968
 2362SOL     OW 7089   4.031   0.213   3.093
 2362SOL    HW1 7090   4.008   0.250   3.183
 2362SOL    HW2 7091   4.001   0.118   3.087
 2363SOL     OW 7092   3.761   1.310   3.144
 2363SOL    HW1 7093   3.814   1.261   3.212
 2363SOL    HW2 7094   3.783   1.408   3.149
 2364SOL     OW 7095   4.031   0.063   2.480
 2364SOL    HW1 7096   4.020   0.157   2.513
 2364SOL    HW2 7097   4.026   0.000   2.557
 2365SOL     OW 7098   4.074   0.898   3.666
 2365SOL    HW1 7099   4.150   0.942   3.714
 2365SOL    HW2 7100   4.109   0.851   3.584
 2366SOL     OW 7101   4.043   0.810   2.811
 2366SOL    HW1 7102   4.136   0.846   2.816
 2366SOL    HW2 7103   4.037   0.725   2.863
 2367SOL     OW 7104   4.063   0.509   2.868
 2367SOL    HW1 7105   4.011   0.426   2.851
 2367SOL    HW2 7106   4.140   0.514   2.804
 2368SOL     OW 7107   3.732   1.326   2.062
 2368SOL    HW1 7108   3.639   1.347   2.031
 2368SOL    HW2 7109   3.742   1.227   2.075
 2369SOL     OW 7110   3.812   1.801   2.789
 2369SOL    HW1 7111   3.770   1.715   2.762
 2369SOL    HW2 7112   3.906   1.804   2.755
 2370SOL     OW 7113   3.764   0.544   2.976
 2370SOL    HW1 7114   3.849   0.511   2.935
 2370SOL    HW2 7115   3.777   0.559   3.074
 2371SOL     OW 7116   3.913   0.520   3.584
 2371SOL    HW1 7117   3.972   0.480   3.514
 2371SOL    HW2 7118   3.855   0.591   3.543
 2372SOL     OW 7119   4.539   0.572   2.187
 2372SOL    HW1 7120   4.546   0.483   2.141
 2372SOL    HW2 7121   4.445   0.606   2.179
 2373SOL     OW 7122   3.976   1.564   3.606
 2373SOL    HW1 7123   3.946   1.621   3.682
 2373SOL    HW2 7124   3.969   1.467   3.632
 2374SOL     OW 7125   4.197   0.500   2.053
 2374SOL    HW1 7126   4.258   0.580   2.057
 2374SOL    HW2 7127   4.102   0.531   2.060
 2375SOL     OW 7128   3.883   1.137   3.328
 2375SOL    HW1 7129   3.905   1.076   3.404
 2375SOL    HW2 7130   3.893   1.088   3.242
 2376SOL     OW 7131   3.807   1.258   2.884
 2376SOL    HW1 7132   3.802   1.257   2.984
 2376SOL    HW2 7133   3.724   1.217   2.846
 2377SOL     OW 7134   3.854   1.794   3.713
 2377SOL    HW1 7135   3.813   1.720   3.766
 2377SOL    HW2 7136   3.918   1.845   3.771
 2378SOL     OW 7137   3.987   0.326   2.582
 2378SOL    HW1 7138   3.908   0.377   2.548
 2378SOL    HW2 7139   3.978   0.311   2.680
 2379SOL     OW 7140   4.096   1.288   3.352
 2379SOL    HW1 7141   4.083   1.381   3.318
 2379SOL    HW2 7142   4.012   1.236   3.339
 2380SOL     OW 7143   4.314   1.487   2.353
 2380SOL    HW1 7144   4.356   1.429   2.283
 2380SOL    HW2 7145   4.270   1.566   2.309
 2381SOL     OW 7146   3.979   1.348   2.152
 2381SOL    HW1 7147   3.883   1.349   2.125
 2381SOL    HW2 7148   3.991   1.401   2.236
 2382SOL     OW 7149   3.829   1.013   3.588
 2382SOL    HW1 7150   3.752   0.980   3.642
 2382SOL    HW2 7151   3.914   0.983   3.630
 2383SOL     OW 7152   3.799   0.345   1.895
 2383SOL    HW1 7153   3.707   0.317   1.866
 2383SOL    HW2 7154   3.830   0.422   1.839
 2384SOL     OW 7155   3.796   0.166   2.180
 2384SOL    HW1 7156   3.779   0.249   2.126
 2384SOL    HW2 7157   3.886   0.129   2.158
 2385SOL     OW 7158   4.114   1.741   3.422
 2385SOL    HW1 7159   4.023   1.782   3.420
 2385SOL    HW2 7160   4.107   1.647   3.454
 2386SOL     OW 7161   3.945   1.314   3.706
 2386SOL    HW1 7162   3.880   1.241   3.685
 2386SOL    HW2 7163   3.949   1.328   3.804
 2387SOL     OW 7164   3.803   1.240   2.515
 2387SOL    HW1 7165   3.802   1.193   2.603
 2387SOL    HW2 7166   3.885   1.212   2.464
 2388SOL     OW 7167   4.396   1.391   3.486
 2388SOL    HW1 7168   4.318   1.341   3.524
 2388SOL    HW2 7169   4.393   1.486   3.517
 2389SOL     OW 7170   4.152   0.424   2.382
 2389SOL    HW1 7171   4.182   0.352   2.320
 2389SOL    HW2 7172   4.113   0.384   2.465
 2390SOL     OW 7173   4.041   0.547   3.142
 2390SOL    HW1 7174   4.079   0.488   3.214
 2390SOL    HW2 7175   4.081   0.521   3.054
 2391SOL     OW 7176   3.763   1.077   2.162
 2391SOL    HW1 7177   3.862   1.066   2.153
 2391SOL    HW2 7178   3.723   0.991   2.194
 2392SOL     OW 7179   3.954   0.628   3.837
 2392SOL    HW1 7180   3.861   0.626   3.874
 2392SOL    HW2 7181   3.955   0.589   3.745
 2393SOL     OW 7182   4.409   1.012   4.389
 2393SOL    HW1 7183   4.478   0.996   4.459
 2393SOL    HW2 7184   4.336   1.069   4.427
 2394SOL     OW 7185   3.955   1.713   4.207
 2394SOL    HW1 7186   3.989   1.790   4.261
 2394SOL    HW2 7187   3.999   1.713   4.117
 2395SOL     OW 7188   3.954   1.434   4.262
 2395SOL    HW1 7189   3.928   1.530   4.262
 2395SOL    HW2 7190   3.883   1.380   4.307
 2396SOL     OW 7191   3.751   1.596   3.841
 2396SOL    HW1 7192   3.732   1.500   3.862
 2396SOL    HW2 7193   3.718   1.654   3.916
 2397SOL     OW 7194   4.322   0.729   3.994
 2397SOL    HW1 7195   4.346   0.798   3.926
 2397SOL    HW2 7196   4.244   0.762   4.048
 2398SOL     OW 7197   4.075   1.801   4.577
 2398SOL    HW1 7198   4.125   1.715   4.583
 2398SOL    HW2 7199   4.140   1.878   4.574
 2399SOL     OW 7200   4.045   0.943   3.966
 2399SOL    HW1 7201   4.127   0.982   3.924
 2399SOL    HW2 7202   4.018   0.861   3.917
 2400SOL     OW 7203   4.106   0.700   4.204
 2400SOL    HW1 7204   4.151   0.610   4.201
 2400SOL    HW2 7205   4.012   0.689   4.237
 2401SOL     OW 7206   4.338   0.122   3.841
 2401SOL    HW1 7207   4.436   0.100   3.848
 2401SOL    HW2 7208   4.307   0.105   3.748
 2402SOL     OW 7209   4.021   0.035   3.895
 2402SOL    HW1 7210   4.070   0.119   3.874
 2402SOL    HW2 7211   4.083  -0.030   3.940
 2403SOL     OW 7212   4.183   1.152   4.465
 2403SOL    HW1 7213   4.112   1.125   4.530
 2403SOL    HW2 7214   4.157   1.124   4.372
 2404SOL     OW 7215   4.091   1.100   4.225
 2404SOL    HW1 7216   4.084   1.183   4.169
 2404SOL    HW2 7217   4.095   1.020   4.165
 2405SOL     OW 7218   3.732   1.326   3.924
 2405SOL    HW1 7219   3.639   1.347   3.893
 2405SOL    HW2 7220   3.742   1.227   3.937
 2406SOL     OW 7221   4.539   0.572   4.049
 2406SOL    HW1 7222   4.546   0.483   4.003
 2406SOL    HW2 7223   4.445   0.606   4.041
 2407SOL     OW 7224   4.197   0.500   3.915
 2407SOL    HW1 7225   4.258   0.580   3.919
 2407SOL    HW2 7226   4.102   0.531   3.922
 2408SOL     OW 7227   4.314   1.487   4.215
 2408SOL    HW1 7228   4.356   1.429   4.145
 2408SOL    HW2 7229   4.270   1.566   4.171
 2409SOL     OW 7230   3.979   1.348   4.014
 2409SOL    HW1 7231   3.883   1.349   3.987
 2409SOL    HW2 7232   3.991   1.401   4.098
 2410SOL     OW 7233   3.799   0.345   3.757
 2410SOL    HW1 7234   3.707   0.317   3.728
 2410SOL    HW2 7235   3.830   0.422   3.701
 2411SOL     OW 7236   3.796   0.166   4.042
 2411SOL    HW1 7237   3.779   0.249   3.988
 2411SOL    HW2 7238   3.886   0.129   4.020
 2412SOL     OW 7239   4.318   0.745   4.376
 2412SOL    HW1 7240   4.368   0.830   4.357
 2412SOL    HW2 7241   4.230   0.747   4.328
 2413SOL     OW 7242   4.152   0.424   4.244
 2413SOL    HW1 7243   4.182   0.352   4.182
 2413SOL    HW2 7244   4.113   0.384   4.327
 2414SOL     OW 7245   3.763   1.077   4.024
 2414SOL    HW1 7246   3.862   1.066   4.015
 2414SOL    HW2 7247   3.723   0.991   4.056
 2415SOL     OW 7248   3.954   2.490   0.113
 2415SOL    HW1 7249   3.861   2.488   0.150
 2415SOL    HW2 7250   3.955   2.451   0.021
 2416SOL     OW 7251   3.949   2.137   0.996
 2416SOL    HW1 7252   3.984   2.120   1.088
 2416SOL    HW2 7253   3.861   2.092   0.984
 2417SOL     OW 7254   3.743   2.230   0.647
 2417SOL    HW1 7255   3.661   2.273   0.686
 2417SOL    HW2 7256   3.715   2.157   0.584
 2418SOL     OW 7257   4.409   2.874   0.665
 2418SOL    HW1 7258   4.478   2.858   0.735
 2418SOL    HW2 7259   4.336   2.931   0.703
 2419SOL     OW 7260   4.059   3.297   1.061
 2419SOL    HW1 7261   3.981   3.266   1.008
 2419SOL    HW2 7262   4.117   3.355   1.004
 2420SOL     OW 7263   4.162   2.254   1.499
 2420SOL    HW1 7264   4.244   2.198   1.508
 2420SOL    HW2 7265   4.081   2.196   1.503
 2421SOL     OW 7266   3.955   3.575   0.483
 2421SOL    HW1 7267   3.989   3.652   0.537
 2421SOL    HW2 7268   3.999   3.575   0.393
 2422SOL     OW 7269   3.954   3.296   0.538
 2422SOL    HW1 7270   3.928   3.392   0.538
 2422SOL    HW2 7271   3.883   3.242   0.583
 2423SOL     OW 7272   3.964   2.953   0.886
 2423SOL    HW1 7273   3.978   2.869   0.938
 2423SOL    HW2 7274   3.909   3.017   0.941
 2424SOL     OW 7275   3.846   2.505   0.563
 2424SOL    HW1 7276   3.801   2.417   0.580
 2424SOL    HW2 7277   3.845   2.559   0.647
 2425SOL     OW 7278   3.751   3.458   0.117
 2425SOL    HW1 7279   3.732   3.362   0.138
 2425SOL    HW2 7280   3.718   3.516   0.192
 2426SOL     OW 7281   3.837   2.599   1.597
 2426SOL    HW1 7282   3.925   2.586   1.642
 2426SOL    HW2 7283   3.824   2.696   1.575
 2427SOL     OW 7284   3.921   2.838   1.264
 2427SOL    HW1 7285   4.010   2.793   1.250
 2427SOL    HW2 7286   3.848   2.773   1.245
 2428SOL     OW 7287   4.041   2.113   1.801
 2428SOL    HW1 7288   4.112   2.184   1.807
 2428SOL    HW2 7289   3.953   2.152   1.829
 2429SOL     OW 7290   4.322   2.591   0.270
 2429SOL    HW1 7291   4.346   2.660   0.202
 2429SOL    HW2 7292   4.244   2.624   0.324
 2430SOL     OW 7293   3.800   2.673   0.789
 2430SOL    HW1 7294   3.899   2.661   0.798
 2430SOL    HW2 7295   3.776   2.768   0.810
 2431SOL     OW 7296   3.854   3.683   1.571
 2431SOL    HW1 7297   3.844   3.668   1.670
 2431SOL    HW2 7298   3.768   3.719   1.535
 2432SOL     OW 7299   4.274   2.058   0.885
 2432SOL    HW1 7300   4.269   2.053   0.985
 2432SOL    HW2 7301   4.276   2.154   0.856
 2433SOL     OW 7302   4.075   3.663   0.853
 2433SOL    HW1 7303   4.125   3.577   0.859
 2433SOL    HW2 7304   4.140   3.740   0.850
 2434SOL     OW 7305   4.045   2.805   0.242
 2434SOL    HW1 7306   4.127   2.844   0.200
 2434SOL    HW2 7307   4.018   2.723   0.193
 2435SOL     OW 7308   4.185   3.128   1.727
 2435SOL    HW1 7309   4.135   3.129   1.641
 2435SOL    HW2 7310   4.122   3.110   1.803
 2436SOL     OW 7311   3.926   2.147   1.498
 2436SOL    HW1 7312   3.846   2.207   1.485
 2436SOL    HW2 7313   3.916   2.098   1.584
 2437SOL     OW 7314   3.973   3.647   1.241
 2437SOL    HW1 7315   4.030   3.582   1.291
 2437SOL    HW2 7316   3.957   3.614   1.148
 2438SOL     OW 7317   4.106   2.562   0.480
 2438SOL    HW1 7318   4.151   2.472   0.477
 2438SOL    HW2 7319   4.012   2.551   0.513
 2439SOL     OW 7320   4.338   1.984   0.117
 2439SOL    HW1 7321   4.436   1.962   0.124
 2439SOL    HW2 7322   4.307   1.967   0.024
 2440SOL     OW 7323   4.263   1.926   0.512
 2440SOL    HW1 7324   4.182   1.927   0.570
 2440SOL    HW2 7325   4.266   2.009   0.457
 2441SOL     OW 7326   4.183   3.014   0.741
 2441SOL    HW1 7327   4.112   2.987   0.806
 2441SOL    HW2 7328   4.157   2.986   0.648
 2442SOL     OW 7329   3.802   2.418   1.386
 2442SOL    HW1 7330   3.894   2.417   1.345
 2442SOL    HW2 7331   3.796   2.492   1.453
 2443SOL     OW 7332   4.285   2.084   1.147
 2443SOL    HW1 7333   4.323   2.000   1.184
 2443SOL    HW2 7334   4.197   2.103   1.191
 2444SOL     OW 7335   4.134   2.675   1.251
 2444SOL    HW1 7336   4.220   2.687   1.301
 2444SOL    HW2 7337   4.092   2.588   1.278
 2445SOL     OW 7338   3.788   3.426   1.331
 2445SOL    HW1 7339   3.742   3.508   1.297
 2445SOL    HW2 7340   3.886   3.445   1.340
 2446SOL     OW 7341   4.091   2.962   0.501
 2446SOL    HW1 7342   4.084   3.045   0.445
 2446SOL    HW2 7343   4.095   2.882   0.441
 2447SOL     OW 7344   4.290   2.399   0.865
 2447SOL    HW1 7345   4.302   2.465   0.791
 2447SOL    HW2 7346   4.336   2.433   0.948
 2448SOL     OW 7347   4.078   3.372   1.329
 2448SOL    HW1 7348   4.057   3.328   1.242
 2448SOL    HW2 7349   4.175   3.398   1.332
 2449SOL     OW 7350   4.126   2.613   1.598
 2449SOL    HW1 7351   4.194   2.668   1.551
 2449SOL    HW2 7352   4.166   2.525   1.625
 2450SOL     OW 7353   4.228   1.912   1.740
 2450SOL    HW1 7354   4.186   1.855   1.670
 2450SOL    HW2 7355   4.162   1.981   1.772
 2451SOL     OW 7356   4.297   2.732   1.029
 2451SOL    HW1 7357   4.341   2.821   1.020
 2451SOL    HW2 7358   4.234   2.732   1.106
 2452SOL     OW 7359   4.031   2.075   1.231
 2452SOL    HW1 7360   4.008   2.112   1.321
 2452SOL    HW2 7361   4.001   1.980   1.225
 2453SOL     OW 7362   3.761   3.172   1.282
 2453SOL    HW1 7363   3.814   3.123   1.350
 2453SOL    HW2 7364   3.783   3.270   1.287
 2454SOL     OW 7365   4.031   1.925   0.618
 2454SOL    HW1 7366   4.020   2.019   0.651
 2454SOL    HW2 7367   4.026   1.862   0.695
 2455SOL     OW 7368   4.074   2.760   1.804
 2455SOL    HW1 7369   4.150   2.804   1.852
 2455SOL    HW2 7370   4.109   2.713   1.722
 2456SOL     OW 7371   4.043   2.672   0.949
 2456SOL    HW1 7372   4.136   2.708   0.954
 2456SOL    HW2 7373   4.037   2.587   1.001
 2457SOL     OW 7374   4.063   2.371   1.006
 2457SOL    HW1 7375   4.011   2.288   0.989
 2457SOL    HW2 7376   4.140   2.376   0.942
 2458SOL     OW 7377   3.732   3.188   0.200
 2458SOL    HW1 7378   3.639   3.209   0.169
 2458SOL    HW2 7379   3.742   3.089   0.213
 2459SOL     OW 7380   3.812   3.663   0.927
 2459SOL    HW1 7381   3.770   3.577   0.900
 2459SOL    HW2 7382   3.906   3.666   0.893
 2460SOL     OW 7383   3.764   2.406   1.114
 2460SOL    HW1 7384   3.849   2.373   1.073
 2460SOL    HW2 7385   3.777   2.421   1.212
 2461SOL     OW 7386   3.913   2.382   1.722
 2461SOL    HW1 7387   3.972   2.342   1.652
 2461SOL    HW2 7388   3.855   2.453   1.681
 2462SOL     OW 7389   4.539   2.434   0.325
 2462SOL    HW1 7390   4.546   2.345   0.279
 2462SOL    HW2 7391   4.445   2.468   0.317
 2463SOL     OW 7392   3.976   3.426   1.744
 2463SOL    HW1 7393   3.946   3.483   1.820
 2463SOL    HW2 7394   3.969   3.329   1.770
 2464SOL     OW 7395   4.197   2.362   0.191
 2464SOL    HW1 7396   4.258   2.442   0.195
 2464SOL    HW2 7397   4.102   2.393   0.198
 2465SOL     OW 7398   3.883   2.999   1.466
 2465SOL    HW1 7399   3.905   2.938   1.542
 2465SOL    HW2 7400   3.893   2.950   1.380
 2466SOL     OW 7401   3.807   3.120   1.022
 2466SOL    HW1 7402   3.802   3.119   1.122
 2466SOL    HW2 7403   3.724   3.079   0.984
 2467SOL     OW 7404   3.854   3.656   1.851
 2467SOL    HW1 7405   3.813   3.582   1.904
 2467SOL    HW2 7406   3.918   3.707   1.909
 2468SOL     OW 7407   3.987   2.188   0.720
 2468SOL    HW1 7408   3.908   2.239   0.686
 2468SOL    HW2 7409   3.978   2.173   0.818
 2469SOL     OW 7410   4.096   3.150   1.490
 2469SOL    HW1 7411   4.083   3.243   1.456
 2469SOL    HW2 7412   4.012   3.098   1.477
 2470SOL     OW 7413   4.314   3.349   0.491
 2470SOL    HW1 7414   4.356   3.291   0.421
 2470SOL    HW2 7415   4.270   3.428   0.447
 2471SOL     OW 7416   3.979   3.210   0.290
 2471SOL    HW1 7417   3.883   3.211   0.263
 2471SOL    HW2 7418   3.991   3.263   0.374
 2472SOL     OW 7419   3.829   2.875   1.726
 2472SOL    HW1 7420   3.752   2.842   1.780
 2472SOL    HW2 7421   3.914   2.845   1.768
 2473SOL     OW 7422   3.799   2.207   0.033
 2473SOL    HW1 7423   3.707   2.179   0.004
 2473SOL    HW2 7424   3.830   2.284  -0.023
 2474SOL     OW 7425   3.796   2.028   0.318
 2474SOL    HW1 7426   3.779   2.111   0.264
 2474SOL    HW2 7427   3.886   1.991   0.296
 2475SOL     OW 7428   4.114   3.603   1.560
 2475SOL    HW1 7429   4.023   3.644   1.558
 2475SOL    HW2 7430   4.107   3.509   1.592
 2476SOL     OW 7431   3.945   3.176   1.844
 2476SOL    HW1 7432   3.880   3.103   1.823
 2476SOL    HW2 7433   3.949   3.190   1.942
 2477SOL     OW 7434   3.803   3.102   0.653
 2477SOL    HW1 7435   3.802   3.055   0.741
 2477SOL    HW2 7436   3.885   3.074   0.602
 2478SOL     OW 7437   4.396   3.253   1.624
 2478SOL    HW1 7438   4.318   3.203   1.662
 2478SOL    HW2 7439   4.393   3.348   1.655
 2479SOL     OW 7440   4.152   2.286   0.520
 2479SOL    HW1 7441   4.182   2.214   0.458
 2479SOL    HW2 7442   4.113   2.246   0.603
 2480SOL     OW 7443   4.041   2.409   1.280
 2480SOL    HW1 7444   4.079   2.350   1.352
 2480SOL    HW2 7445   4.081   2.383   1.192
 2481SOL     OW 7446   3.763   2.939   0.300
 2481SOL    HW1 7447   3.862   2.928   0.291
 2481SOL    HW2 7448   3.723   2.853   0.332
 2482SOL     OW 7449   3.954   2.490   1.975
 2482SOL    HW1 7450   3.861   2.488   2.012
 2482SOL    HW2 7451   3.955   2.451   1.883
 2483SOL     OW 7452   3.949   2.137   2.858
 2483SOL    HW1 7453   3.984   2.120   2.950
 2483SOL    HW2 7454   3.861   2.092   2.846
 2484SOL     OW 7455   3.743   2.230   2.509
 2484SOL    HW1 7456   3.661   2.273   2.548
 2484SOL    HW2 7457   3.715   2.157   2.446
 2485SOL     OW 7458   4.409   2.874   2.527
 2485SOL    HW1 7459   4.478   2.858   2.597
 2485SOL    HW2 7460   4.336   2.931   2.565
 2486SOL     OW 7461   4.059   3.297   2.923
 2486SOL    HW1 7462   3.981   3.266   2.870
 2486SOL    HW2 7463   4.117   3.355   2.866
 2487SOL     OW 7464   4.162   2.254   3.361
 2487SOL    HW1 7465   4.244   2.198   3.370
 2487SOL    HW2 7466   4.081   2.196   3.365
 2488SOL     OW 7467   3.955   3.575   2.345
 2488SOL    HW1 7468   3.989   3.652   2.399
 2488SOL    HW2 7469   3.999   3.575   2.255
 2489SOL     OW 7470   3.954   3.296   2.400
 2489SOL    HW1 7471   3.928   3.392   2.400
 2489SOL    HW2 7472   3.883   3.242   2.445
 2490SOL     OW 7473   3.964   2.953   2.748
 2490SOL    HW1 7474   3.978   2.869   2.800
 2490SOL    HW2 7475   3.909   3.017   2.803
 2491SOL     OW 7476   3.846   2.505   2.425
 2491SOL    HW1 7477   3.801   2.417   2.442
 2491SOL    HW2 7478   3.845   2.559   2.509
 2492SOL     OW 7479   3.751   3.458   1.979
 2492SOL    HW1 7480   3.732   3.362   2.000
 2492SOL    HW2 7481   3.718   3.516   2.054
 2493SOL     OW 7482   3.837   2.599   3.459
 2493SOL    HW1 7483   3.925   2.586   3.504
 2493SOL    HW2 7484   3.824   2.696   3.437
 2494SOL     OW 7485   3.921   2.838   3.126
 2494SOL    HW1 7486   4.010   2.793   3.112
 2494SOL    HW2 7487   3.848   2.773   3.107
 2495SOL     OW 7488   4.041   2.113   3.663
 2495SOL    HW1 7489   4.112   2.184   3.669
 2495SOL    HW2 7490   3.953   2.152   3.691
 2496SOL     OW 7491   4.322   2.591   2.132
 2496SOL    HW1 7492   4.346   2.660   2.064
 2496SOL    HW2 7493   4.244   2.624   2.186
 2497SOL     OW 7494   3.800   2.673   2.651
 2497SOL    HW1 7495   3.899   2.661   2.660
 2497SOL    HW2 7496   3.776   2.768   2.672
 2498SOL     OW 7497   3.854   3.683   3.433
 2498SOL    HW1 7498   3.844   3.668   3.532
 2498SOL    HW2 7499   3.768   3.719   3.397
 2499SOL     OW 7500   4.274   2.058   2.747
 2499SOL    HW1 7501   4.269   2.053   2.847
 2499SOL    HW2 7502   4.276   2.154   2.718
 2500SOL     OW 7503   4.075   3.663   2.715
 2500SOL    HW1 7504   4.125   3.577   2.721
 2500SOL    HW2 7505   4.140   3.740   2.712
 2501SOL     OW 7506   4.045   2.805   2.104
 2501SOL    HW1 7507   4.127   2.844   2.062
 2501SOL    HW2 7508   4.018   2.723   2.055
 2502SOL     OW 7509   4.185   3.128   3.589
 2502SOL    HW1 7510   4.135   3.129   3.503
 2502SOL    HW2 7511   4.122   3.110   3.665
 2503SOL     OW 7512   3.926   2.147   3.360
 2503SOL    HW1 7513   3.846   2.207   3.347
 2503SOL    HW2 7514   3.916   2.098   3.446
 2504SOL     OW 7515   3.973   3.647   3.103
 2504SOL    HW1 7516   4.030   3.582   3.153
 2504SOL    HW2 7517   3.957   3.614   3.010
 2505SOL     OW 7518   4.106   2.562   2.342
 2505SOL    HW1 7519   4.151   2.472   2.339
 2505SOL    HW2 7520   4.012   2.551   2.375
 2506SOL     OW 7521   4.338   1.984   1.979
 2506SOL    HW1 7522   4.436   1.962   1.986
 2506SOL    HW2 7523   4.307   1.967   1.886
 2507SOL     OW 7524   4.263   1.926   2.374
 2507SOL    HW1 7525   4.182   1.927   2.432
 2507SOL    HW2 7526   4.266   2.009   2.319
 2508SOL     OW 7527   4.021   1.897   2.033
 2508SOL    HW1 7528   4.070   1.981   2.012
 2508SOL    HW2 7529   4.083   1.832   2.078
 2509SOL     OW 7530   4.183   3.014   2.603
 2509SOL    HW1 7531   4.112   2.987   2.668
 2509SOL    HW2 7532   4.157   2.986   2.510
 2510SOL     OW 7533   3.802   2.418   3.248
 2510SOL    HW1 7534   3.894   2.417   3.207
 2510SOL    HW2 7535   3.796   2.492   3.315
 2511SOL     OW 7536   4.285   2.084   3.009
 2511SOL    HW1 7537   4.323   2.000   3.046
 2511SOL    HW2 7538   4.197   2.103   3.053
 2512SOL     OW 7539   4.134   2.675   3.113
 2512SOL    HW1 7540   4.220   2.687   3.163
 2512SOL    HW2 7541   4.092   2.588   3.140
 2513SOL     OW 7542   3.788   3.426   3.193
 2513SOL    HW1 7543   3.742   3.508   3.159
 2513SOL    HW2 7544   3.886   3.445   3.202
 2514SOL     OW 7545   4.091   2.962   2.363
 2514SOL    HW1 7546   4.084   3.045   2.307
 2514SOL    HW2 7547   4.095   2.882   2.303
 2515SOL     OW 7548   4.290   2.399   2.727
 2515SOL    HW1 7549   4.302   2.465   2.653
 2515SOL    HW2 7550   4.336   2.433   2.810
 2516SOL     OW 7551   4.078   3.372   3.191
 2516SOL    HW1 7552   4.057   3.328   3.104
 2516SOL    HW2 7553   4.175   3.398   3.194
 2517SOL     OW 7554   4.126   2.613   3.460
 2517SOL    HW1 7555   4.194   2.668   3.413
 2517SOL    HW2 7556   4.166   2.525   3.487
 2518SOL     OW 7557   4.228   1.912   3.602
 2518SOL    HW1 7558   4.186   1.855   3.532
 2518SOL    HW2 7559   4.162   1.981   3.634
 2519SOL     OW 7560   4.297   2.732   2.891
 2519SOL    HW1 7561   4.341   2.821   2.882
 2519SOL    HW2 7562   4.234   2.732   2.968
 2520SOL     OW 7563   4.031   2.075   3.093
 2520SOL    HW1 7564   4.008   2.112   3.183
 2520SOL    HW2 7565   4.001   1.980   3.087
 2521SOL     OW 7566   3.761   3.172   3.144
 2521SOL    HW1 7567   3.814   3.123   3.212
 2521SOL    HW2 7568   3.783   3.270   3.149
 2522SOL     OW 7569   4.031   1.925   2.480
 2522SOL    HW1 7570   4.020   2.019   2.513
 2522SOL    HW2 7571   4.026   1.862   2.557
 2523SOL     OW 7572   4.074   2.760   3.666
 2523SOL    HW1 7573   4.150   2.804   3.714
 2523SOL    HW2 7574   4.109   2.713   3.584
 2524SOL     OW 7575   4.043   2.672   2.811
 2524SOL    HW1 7576   4.136   2.708   2.816
 2524SOL    HW2 7577   4.037   2.587   2.863
 2525SOL     OW 7578   4.063   2.371   2.868
 2525SOL    HW1 7579   4.011   2.288   2.851
 2525SOL    HW2 7580   4.140   2.376   2.804
 2526SOL     OW 7581   3.732   3.188   2.062
 2526SOL    HW1 7582   3.639   3.209   2.031
 2526SOL    HW2 7583   3.742   3.089   2.075
 2527SOL     OW 7584   3.812   3.663   2.789
 2527SOL    HW1 7585   3.770   3.577   2.762
 2527SOL    HW2 7586   3.906   3.666   2.755
 2528SOL     OW 7587   3.764   2.406   2.976
 2528SOL    HW1 7588   3.849   2.373   2.935
 2528SOL    HW2 7589   3.777   2.421   3.074
 2529SOL     OW 7590   3.913   2.382   3.584
 2529SOL    HW1 7591   3.972   2.342   3.514
 2529SOL    HW2 7592   3.855   2.453   3.543
 2530SOL     OW 7593   4.539   2.434   2.187
 2530SOL    HW1 7594   4.546   2.345   2.141
 2530SOL    HW2 7595   4.445   2.468   2.179
 2531SOL     OW 7596   3.976   3.426   3.606
 2531SOL    HW1 7597   3.946   3.483   3.682
 2531SOL    HW2 7598   3.969   3.329   3.632
 2532SOL     OW 7599   4.197   2.362   2.053
 2532SOL    HW1 7600   4.258   2.442   2.057
 2532SOL    HW2 7601   4.102   2.393   2.060
 2533SOL     OW 7602   3.883   2.999   3.328
 2533SOL    HW1 7603   3.905   2.938   3.404
 2533SOL    HW2 7604   3.893   2.950   3.242
 2534SOL     OW 7605   3.807   3.120   2.884
 2534SOL    HW1 7606   3.802   3.119   2.984
 2534SOL    HW2 7607   3.724   3.079   2.846
 2535SOL     OW 7608   3.854   3.656   3.713
 2535SOL    HW1 7609   3.813   3.582   3.766
 2535SOL    HW2 7610   3.918   3.707   3.771
 2536SOL     OW 7611   3.987   2.188   2.582
 2536SOL    HW1 7612   3.908   2.239   2.548
 2536SOL    HW2 7613   3.978   2.173   2.680
 2537SOL     OW 7614   4.096   3.150   3.352
 2537SOL    HW1 7615   4.083   3.243   3.318
 2537SOL    HW2 7616   4.012   3.098   3.339
 2538SOL     OW 7617   4.314   3.349   2.353
 2538SOL    HW1 7618   4.356   3.291   2.283
 2538SOL    HW2 7619   4.270   3.428   2.309
 2539SOL     OW 7620   3.979   3.210   2.152
 2539SOL    HW1 7621   3.883   3.211   2.125
 2539SOL    HW2 7622   3.991   3.263   2.236
 2540SOL     OW 7623   3.829   2.875   3.588
 2540SOL    HW1 7624   3.752   2.842   3.642
 2540SOL    HW2 7625   3.914   2.845   3.630
 2541SOL     OW 7626   3.799   2.207   1.895
 2541SOL    HW1 7627   3.707   2.179   1.866
 2541SOL    HW2 7628   3.830   2.284   1.839
 2542SOL     OW 7629   3.796   2.028   2.180
 2542SOL    HW1 7630   3.779   2.111   2.126
 2542SOL    HW2 7631   3.886   1.991   2.158
 2543SOL     OW 7632   4.114   3.603   3.422
 2543SOL    HW1 7633   4.023   3.644   3.420
 2543SOL    HW2 7634   4.107   3.509   3.454
 2544SOL     OW 7635   3.945   3.176   3.706
 2544SOL    HW1 7636   3.880   3.103   3.685
 2544SOL    HW2 7637   3.949   3.190   3.804
 2545SOL     OW 7638   3.803   3.102   2.515
 2545SOL    HW1 7639   3.802   3.055   2.603
 2545SOL    HW2 7640   3.885   3.074   2.464
 2546SOL     OW 7641   4.396   3.253   3.486
 2546SOL    HW1 7642   4.318   3.203   3.524
 2546SOL    HW2 7643   4.393   3.348   3.517
 2547SOL     OW 7644   4.152   2.286   2.382
 2547SOL    HW1 7645   4.182   2.214   2.320
 2547SOL    HW2 7646   4.113   2.246   2.465
 2548SOL     OW 7647   4.041   2.409   3.142
 2548SOL    HW1 7648   4.079   2.350   3.214
 2548SOL    HW2 7649   4.081   2.383   3.054
 2549SOL     OW 7650   3.763   2.939   2.162
 2549SOL    HW1 7651   3.862   2.928   2.153
 2549SOL    HW2 7652   3.723   2.853   2.194
 2550SOL     OW 7653   3.954   2.490   3.837
 2550SOL    HW1 7654   3.861   2.488   3.874
 2550SOL    HW2 7655   3.955   2.451   3.745
 2551SOL     OW 7656   4.409   2.874   4.389
 2551SOL    HW1 7657   4.478   2.858   4.459
 2551SOL    HW2 7658   4.336   2.931   4.427
 2552SOL     OW 7659   3.955   3.575   4.207
 2552SOL    HW1 7660   3.989   3.652   4.261
 2552SOL    HW2 7661   3.999   3.575   4.117
 2553SOL     OW 7662   3.954   3.296   4.262
 2553SOL    HW1 7663   3.928   3.392   4.262
 2553SOL    HW2 7664   3.883   3.242   4.307
 2554SOL     OW 7665   3.751   3.458   3.841
 2554SOL    HW1 7666   3.732   3.362   3.862
 2554SOL    HW2 7667   3.718   3.516   3.916
 2555SOL     OW 7668   4.322   2.591   3.994
 2555SOL    HW1 7669   4.346   2.660   3.926
 2555SOL    HW2 7670   4.244   2.624   4.048
 2556SOL     OW 7671   4.075   3.663   4.577
 2556SOL    HW1 7672   4.125   3.577   4.583
 2556SOL    HW2 7673   4.140   3.740   4.574
 2557SOL     OW 7674   4.045   2.805   3.966
 2557SOL    HW1 7675   4.127   2.844   3.924
 2557SOL    HW2 7676   4.018   2.723   3.917
 2558SOL     OW 7677   4.106   2.562   4.204
 2558SOL    HW1 7678   4.151   2.472   4.201
 2558SOL    HW2 7679   4.012   2.551   4.237
 2559SOL     OW 7680   4.338   1.984   3.841
 2559SOL    HW1 7681   4.436   1.962   3.848
 2559SOL    HW2 7682   4.307   1.967   3.748
 2560SOL     OW 7683   4.021   1.897   3.895
 2560SOL    HW1 7684   4.070   1.981   3.874
 2560SOL    HW2 7685   4.083   1.832   3.940
 2561SOL     OW 7686   4.183   3.014   4.465
 2561SOL    HW1 7687   4.112   2.987   4.530
 2561SOL    HW2 7688   4.157   2.986   4.372
 2562SOL     OW 7689   4.091   2.962   4.225
 2562SOL    HW1 7690   4.084   3.045   4.169
 2562SOL    HW2 7691   4.095   2.882   4.165
 2563SOL     OW 7692   4.031   1.925   4.342
 2563SOL    HW1 7693   4.020   2.019   4.375
 2563SOL    HW2 7694   4.026   1.862   4.419
 2564SOL     OW 7695   3.732   3.188   3.924
 2564SOL    HW1 7696   3.639   3.209   3.893
 2564SOL    HW2 7697   3.742   3.089   3.937
 2565SOL     OW 7698   4.539   2.434   4.049
 2565SOL    HW1 7699   4.546   2.345   4.003
 2565SOL    HW2 7700   4.445   2.468   4.041
 2566SOL     OW 7701   4.197   2.362   3.915
 2566SOL    HW1 7702   4.258   2.442   3.919
 2566SOL    HW2 7703   4.102   2.393   3.922
 2567SOL     OW 7704   4.314   3.349   4.215
 2567SOL    HW1 7705   4.356   3.291   4.145
 2567SOL    HW2 7706   4.270   3.428   4.171
 2568SOL     OW 7707   3.979   3.210   4.014
 2568SOL    HW1 7708   3.883   3.211   3.987
 2568SOL    HW2 7709   3.991   3.263   4.098
 2569SOL     OW 7710   3.799   2.207   3.757
 2569SOL    HW1 7711   3.707   2.179   3.728
 2569SOL    HW2 7712   3.830   2.284   3.701
 2570SOL     OW 7713   3.796   2.028   4.042
 2570SOL    HW1 7714   3.779   2.111   3.988
 2570SOL    HW2 7715   3.886   1.991   4.020
 2571SOL     OW 7716   4.318   2.607   4.376
 2571SOL    HW1 7717   4.368   2.692   4.357
 2571SOL    HW2 7718   4.230   2.609   4.328
 2572SOL     OW 7719   4.152   2.286   4.244
 2572SOL    HW1 7720   4.182   2.214   4.182
 2572SOL    HW2 7721   4.113   2.246   4.327
 2573SOL     OW 7722   3.763   2.939   4.024
 2573SOL    HW1 7723   3.862   2.928   4.015
 2573SOL    HW2 7724   3.723   2.853   4.056
 2574SOL     OW 7725   3.949   3.999   0.996
 2574SOL    HW1 7726   3.984   3.982   1.088
 2574SOL    HW2 7727   3.861   3.954   0.984
 2575SOL     OW 7728   3.743   4.092   0.647
 2575SOL    HW1 7729   3.661   4.135   0.686
 2575SOL    HW2 7730   3.715   4.019   0.584
 2576SOL     OW 7731   4.162   4.116   1.499
 2576SOL    HW1 7732   4.244   4.060   1.508
 2576SOL    HW2 7733   4.081   4.058   1.503
 2577SOL     OW 7734   3.846   4.367   0.563
 2577SOL    HW1 7735   3.801   4.279   0.580
 2577SOL    HW2 7736   3.845   4.421   0.647
 2578SOL     OW 7737   4.041   3.975   1.801
 2578SOL    HW1 7738   4.112   4.046   1.807
 2578SOL    HW2 7739   3.953   4.014   1.829
 2579SOL     OW 7740   3.800   4.535   0.789
 2579SOL    HW1 7741   3.899   4.523   0.798
 2579SOL    HW2 7742   3.776   4.630   0.810
 2580SOL     OW 7743   4.274   3.920   0.885
 2580SOL    HW1 7744   4.269   3.915   0.985
 2580SOL    HW2 7745   4.276   4.016   0.856
 2581SOL     OW 7746   3.926   4.009   1.498
 2581SOL    HW1 7747   3.846   4.069   1.485
 2581SOL    HW2 7748   3.916   3.960   1.584
 2582SOL     OW 7749   4.338   3.846   0.117
 2582SOL    HW1 7750   4.436   3.824   0.124
 2582SOL    HW2 7751   4.307   3.829   0.024
 2583SOL     OW 7752   4.263   3.788   0.512
 2583SOL    HW1 7753   4.182   3.789   0.570
 2583SOL    HW2 7754   4.266   3.871   0.457
 2584SOL     OW 7755   3.802   4.280   1.386
 2584SOL    HW1 7756   3.894   4.279   1.345
 2584SOL    HW2 7757   3.796   4.354   1.453
 2585SOL     OW 7758   4.285   3.946   1.147
 2585SOL    HW1 7759   4.323   3.862   1.184
 2585SOL    HW2 7760   4.197   3.965   1.191
 2586SOL     OW 7761   4.290   4.261   0.865
 2586SOL    HW1 7762   4.302   4.327   0.791
 2586SOL    HW2 7763   4.336   4.295   0.948
 2587SOL     OW 7764   4.228   3.774   1.740
 2587SOL    HW1 7765   4.186   3.717   1.670
 2587SOL    HW2 7766   4.162   3.843   1.772
 2588SOL     OW 7767   4.031   3.937   1.231
 2588SOL    HW1 7768   4.008   3.974   1.321
 2588SOL    HW2 7769   4.001   3.842   1.225
 2589SOL     OW 7770   4.031   3.787   0.618
 2589SOL    HW1 7771   4.020   3.881   0.651
 2589SOL    HW2 7772   4.026   3.724   0.695
 2590SOL     OW 7773   4.063   4.233   1.006
 2590SOL    HW1 7774   4.011   4.150   0.989
 2590SOL    HW2 7775   4.140   4.238   0.942
 2591SOL     OW 7776   3.764   4.268   1.114
 2591SOL    HW1 7777   3.849   4.235   1.073
 2591SOL    HW2 7778   3.777   4.283   1.212
 2592SOL     OW 7779   3.913   4.244   1.722
 2592SOL    HW1 7780   3.972   4.204   1.652
 2592SOL    HW2 7781   3.855   4.315   1.681
 2593SOL     OW 7782   4.539   4.296   0.325
 2593SOL    HW1 7783   4.546   4.207   0.279
 2593SOL    HW2 7784   4.445   4.330   0.317
 2594SOL     OW 7785   3.987   4.050   0.720
 2594SOL    HW1 7786   3.908   4.101   0.686
 2594SOL    HW2 7787   3.978   4.035   0.818
 2595SOL     OW 7788   3.799   4.069   0.033
 2595SOL    HW1 7789   3.707   4.041   0.004
 2595SOL    HW2 7790   3.830   4.146  -0.023
 2596SOL     OW 7791   3.796   3.890   0.318
 2596SOL    HW1 7792   3.779   3.973   0.264
 2596SOL    HW2 7793   3.886   3.853   0.296
 2597SOL     OW 7794   4.152   4.148   0.520
 2597SOL    HW1 7795   4.182   4.076   0.458
 2597SOL    HW2 7796   4.113   4.108   0.603
 2598SOL     OW 7797   4.041   4.271   1.280
 2598SOL    HW1 7798   4.079   4.212   1.352
 2598SOL    HW2 7799   4.081   4.245   1.192
 2599SOL     OW 7800   3.949   3.999   2.858
 2599SOL    HW1 7801   3.984   3.982   2.950
 2599SOL    HW2 7802   3.861   3.954   2.846
 2600SOL     OW 7803   3.743   4.092   2.509
 2600SOL    HW1 7804   3.661   4.135   2.548
 2600SOL    HW2 7805   3.715   4.019   2.446
 2601SOL     OW 7806   4.162   4.116   3.361
 2601SOL    HW1 7807   4.244   4.060   3.370
 2601SOL    HW2 7808   4.081   4.058   3.365
 2602SOL     OW 7809   3.846   4.367   2.425
 2602SOL    HW1 7810   3.801   4.279   2.442
 2602SOL    HW2 7811   3.845   4.421   2.509
 2603SOL     OW 7812   4.041   3.975   3.663
 2603SOL    HW1 7813   4.112   4.046   3.669
 2603SOL    HW2 7814   3.953   4.014   3.691
 2604SOL     OW 7815   3.800   4.535   2.651
 2604SOL    HW1 7816   3.899   4.523   2.660
 2604SOL    HW2 7817   3.776   4.630   2.672
 2605SOL     OW 7818   4.274   3.920   2.747
 2605SOL    HW1 7819   4.269   3.915   2.847
 2605SOL    HW2 7820   4.276   4.016   2.718
 2606SOL     OW 7821   3.926   4.009   3.360
 2606SOL    HW1 7822   3.846   4.069   3.347
 2606SOL    HW2 7823   3.916   3.960   3.446
 2607SOL     OW 7824   4.338   3.846   1.979
 2607SOL    HW1 7825   4.436   3.824   1.986
 2607SOL    HW2 7826   4.307   3.829   1.886
 2608SOL     OW 7827   4.263   3.788   2.374
 2608SOL    HW1 7828   4.182   3.789   2.432
 2608SOL    HW2 7829   4.266   3.871   2.319
 2609SOL     OW 7830   4.021   3.759   2.033
 2609SOL    HW1 7831   4.070   3.843   2.012
 2609SOL    HW2 7832   4.083   3.694   2.078
 2610SOL     OW 7833   3.802   4.280   3.248
 2610SOL    HW1 7834   3.894   4.279   3.207
 2610SOL    HW2 7835   3.796   4.354   3.315
 2611SOL     OW 7836   4.285   3.946   3.009
 2611SOL    HW1 7837   4.323   3.862   3.046
 2611SOL    HW2 7838   4.197   3.965   3.053
 2612SOL     OW 7839   4.290   4.261   2.727
 2612SOL    HW1 7840   4.302   4.327   2.653
 2612SOL    HW2 7841   4.336   4.295   2.810
 2613SOL     OW 7842   4.228   3.774   3.602
 2613SOL    HW1 7843   4.186   3.717   3.532
 2613SOL    HW2 7844   4.162   3.843   3.634
 2614SOL     OW 7845   4.031   3.937   3.093
 2614SOL    HW1 7846   4.008   3.974   3.183
 2614SOL    HW2 7847   4.001   3.842   3.087
 2615SOL     OW 7848   4.031   3.787   2.480
 2615SOL    HW1 7849   4.020   3.881   2.513
 2615SOL    HW2 7850   4.026   3.724   2.557
 2616SOL     OW 7851   4.063   4.233   2.868
 2616SOL    HW1 7852   4.011   4.150   2.851
 2616SOL    HW2 7853   4.140   4.238   2.804
 2617SOL     OW 7854   3.764   4.268   2.976
 2617SOL    HW1 7855   3.849   4.235   2.935
 2617SOL    HW2 7856   3.777   4.283   3.074
 2618SOL     OW 7857   3.913   4.244   3.584
 2618SOL    HW1 7858   3.972   4.204   3.514
 2618SOL    HW2 7859   3.855   4.315   3.543
 2619SOL     OW 7860   4.539   4.296   2.187
 2619SOL    HW1 7861   4.546   4.207   2.141
 2619SOL    HW2 7862   4.445   4.330   2.179
 2620SOL     OW 7863   3.987   4.050   2.582
 2620SOL    HW1 7864   3.908   4.101   2.548
 2620SOL    HW2 7865   3.978   4.035   2.680
 2621SOL     OW 7866   3.799   4.069   1.895
 2621SOL    HW1 7867   3.707   4.041   1.866
 2621SOL    HW2 7868   3.830   4.146   1.839
 2622SOL     OW 7869   3.796   3.890   2.180
 2622SOL    HW1 7870   3.779   3.973   2.126
 2622SOL    HW2 7871   3.886   3.853   2.158
 2623SOL     OW 7872   4.152   4.148   2.382
 2623SOL    HW1 7873   4.182   4.076   2.320
 2623SOL    HW2 7874   4.113   4.108   2.465
 2624SOL     OW 7875   4.041   4.271   3.142
 2624SOL    HW1 7876   4.079   4.212   3.214
 2624SOL    HW2 7877   4.081   4.245   3.054
 2625SOL     OW 7878   4.106   4.424   4.204
 2625SOL    HW1 7879   4.151   4.334   4.201
 2625SOL    HW2 7880   4.012   4.413   4.237
 2626SOL     OW 7881   4.338   3.846   3.841
 2626SOL    HW1 7882   4.436   3.824   3.848
 2626SOL    HW2 7883   4.307   3.829   3.748
 2627SOL     OW 7884   4.021   3.759   3.895
 2627SOL    HW1 7885   4.070   3.843   3.874
 2627SOL    HW2 7886   4.083   3.694   3.940
 2628SOL     OW 7887   4.031   3.787   4.342
 2628SOL    HW1 7888   4.020   3.881   4.375
 2628SOL    HW2 7889   4.026   3.724   4.419
 2629SOL     OW 7890   4.539   4.296   4.049
 2629SOL    HW1 7891   4.546   4.207   4.003
 2629SOL    HW2 7892   4.445   4.330   4.041
 2630SOL     OW 7893   3.799   4.069   3.757
 2630SOL    HW1 7894   3.707   4.041   3.728
 2630SOL    HW2 7895   3.830   4.146   3.701
 2631SOL     OW 7896   3.796   3.890   4.042
 2631SOL    HW1 7897   3.779   3.973   3.988
 2631SOL    HW2 7898   3.886   3.853   4.020
 2632SOL     OW 7899   4.152   4.148   4.244
 2632SOL    HW1 7900   4.182   4.076   4.182
 2632SOL    HW2 7901   4.113   4.108   4.327
   4.32897   4.32897   4.32897
