mobley_8573194_GMX.gro created by acpype (v: 2023.10.27) on Wed May 20 23:56:04 2026
   13
    1MOL     C1    1   2.430   2.402   2.201
    1MOL     C2    2   2.154   2.176   2.351
    1MOL     C3    3   2.364   2.302   2.293
    1MOL     C4    4   2.217   2.278   2.258
    1MOL     O1    5   2.373   2.460   2.109
    1MOL     H1    6   2.537   2.419   2.221
    1MOL     H2    7   2.158   2.209   2.455
    1MOL     H3    8   2.049   2.160   2.324
    1MOL     H4    9   2.206   2.079   2.344
    1MOL     H5   10   2.373   2.341   2.395
    1MOL     H6   11   2.421   2.209   2.287
    1MOL     H7   12   2.162   2.372   2.265
    1MOL     H8   13   2.209   2.244   2.155
   4.56199   4.56199   4.56199
