mobley_6190089_GMX.gro created by acpype (v: 2023.10.27) on Wed May 20 23:45:54 2026
    8
    1MOL     C1    1   2.260   2.238   2.156
    1MOL     C2    2   2.174   2.219   2.282
    1MOL    CL1    3   2.376   2.105   2.130
    1MOL    CL2    4   2.158   2.257   2.011
    1MOL    CL3    5   2.075   2.071   2.278
    1MOL    CL4    6   2.275   2.218   2.429
    1MOL     H1    7   2.319   2.330   2.164
    1MOL     H2    8   2.105   2.304   2.293
   4.43581   4.43581   4.43581
