mobley_8221999_GMX.gro created by acpype (v: 2023.10.27) on Wed May 20 23:52:53 2026
   12
    1MOL     C1    1   2.153   2.462   2.284
    1MOL     C2    2   2.375   2.152   2.282
    1MOL     C3    3   2.267   2.377   2.317
    1MOL     C4    4   2.259   2.243   2.246
    1MOL     N1    5   2.062   2.530   2.257
    1MOL     H1    6   2.471   2.198   2.254
    1MOL     H2    7   2.377   2.132   2.390
    1MOL     H3    8   2.367   2.056   2.230
    1MOL     H4    9   2.360   2.428   2.289
    1MOL     H5   10   2.271   2.362   2.426
    1MOL     H6   11   2.257   2.258   2.137
    1MOL     H7   12   2.165   2.192   2.272
   4.56430   4.56430   4.56430
