; mobley_303222_GMX_OPLS.top created by acpype (v: 2023.10.27) on Thu May 21 00:04:44 2026

; Include forcefield parameters
#include "ffoplsaa.itp"

; Include mobley_303222_GMX.itp topology
#include "mobley_303222_GMX.itp"

; Ligand position restraints
#ifdef POSRES_LIG
#include "posre_mobley_303222.itp"
#endif

[ system ]
 mobley_303222

[ molecules ]
; Compound        nmols
 mobley_303222    1     
