; mobley_303222_GMX_OPLS.itp created by acpype (v: 2023.10.27) on Thu May 21 00:04:44 2026

; For OPLS atomtypes manual fine tuning
; AC_at:OPLS_at:OPLScode: Possible_Alternatives (see ffoplsaa.atp and ffoplsaanb.itp)
; c2:CR:opls_509: ['510']
; c3:CT:opls_135: ['136', '137', '149', '157', '158', '206', '209', '210', '223B', '224B', '245', '246', '274', '283', '284', '285', '292', '292B', '293B', '296', '307', '308', '505']
; ha:HA:opls_146: []
; hc:HC:opls_140: []

[ moleculetype ]
;name            nrexcl
 mobley_303222    3

[ atoms ]
;   nr  type  resi  res  atom  cgnr     charge      mass       ; qtot   bond_type
     1 opls_509     1   MOL    C1    1    -0.226999     12.01100 ; qtot -0.227  CR  
     2 opls_509     1   MOL    C2    2    -0.166200     12.01100 ; qtot -0.393  CR  
     3 opls_135     1   MOL    C3    3    -0.066900     12.01100 ; qtot -0.460  CT  
     4 opls_146     1   MOL    H1    4     0.110000      1.00800 ; qtot -0.350  HA  
     5 opls_146     1   MOL    H2    5     0.110000      1.00800 ; qtot -0.240  HA  
     6 opls_146     1   MOL    H3    6     0.117000      1.00800 ; qtot -0.123  HA  
     7 opls_140     1   MOL    H4    7     0.041033      1.00800 ; qtot -0.082  HC  
     8 opls_140     1   MOL    H5    8     0.041033      1.00800 ; qtot -0.041  HC  
     9 opls_140     1   MOL    H6    9     0.041033      1.00800 ; qtot  0.000  HC  

[ bonds ]
;   ai     aj funct   r             k
     1      2   1 ;    1.3379e-01    3.6484e+05 ;     C1 - C2         CR - CR    
     1      4   1 ;    1.0882e-01    2.9898e+05 ;     C1 - H1         CR - HA    
     1      5   1 ;    1.0882e-01    2.9898e+05 ;     C1 - H2         CR - HA    
     2      3   1 ;    1.5088e-01    2.0786e+05 ;     C2 - C3         CR - CT    
     2      6   1 ;    1.0882e-01    2.9898e+05 ;     C2 - H3         CR - HA    
     3      7   1 ;    1.0962e-01    2.8891e+05 ;     C3 - H4         CT - HC    
     3      8   1 ;    1.0962e-01    2.8891e+05 ;     C3 - H5         CT - HC    
     3      9   1 ;    1.0962e-01    2.8891e+05 ;     C3 - H6         CT - HC    

[ pairs ]
;   ai     aj    funct
     1      7      1 ;     C1 - H4    
     1      8      1 ;     C1 - H5    
     1      9      1 ;     C1 - H6    
     4      3      1 ;     H1 - C3    
     4      6      1 ;     H1 - H3    
     5      3      1 ;     H2 - C3    
     5      6      1 ;     H2 - H3    
     6      7      1 ;     H3 - H4    
     6      8      1 ;     H3 - H5    
     6      9      1 ;     H3 - H6    

[ angles ]
;   ai     aj     ak    funct   theta         cth
     1      2      3      1 ;    1.2495e+02    5.0944e+02 ;     C1 - C2   - C3       CR -   CR - CT  
     1      2      6      1 ;    1.2039e+02    3.8802e+02 ;     C1 - C2   - H3       CR -   CR - HA  
     2      1      4      1 ;    1.2039e+02    3.8802e+02 ;     C2 - C1   - H1       CR -   CR - HA  
     2      1      5      1 ;    1.2039e+02    3.8802e+02 ;     C2 - C1   - H2       CR -   CR - HA  
     2      3      7      1 ;    1.1065e+02    3.6618e+02 ;     C2 - C3   - H4       CR -   CT - HC  
     2      3      8      1 ;    1.1065e+02    3.6618e+02 ;     C2 - C3   - H5       CR -   CT - HC  
     2      3      9      1 ;    1.1065e+02    3.6618e+02 ;     C2 - C3   - H6       CR -   CT - HC  
     3      2      6      1 ;    1.1505e+02    3.5941e+02 ;     C3 - C2   - H3       CT -   CR - HA  
     4      1      5      1 ;    1.1666e+02    2.9003e+02 ;     H1 - C1   - H2       HA -   CR - HA  
     7      3      8      1 ;    1.0773e+02    2.9957e+02 ;     H4 - C3   - H5       HC -   CT - HC  
     7      3      9      1 ;    1.0773e+02    2.9957e+02 ;     H4 - C3   - H6       HC -   CT - HC  
     8      3      9      1 ;    1.0773e+02    2.9957e+02 ;     H5 - C3   - H6       HC -   CT - HC  

[ dihedrals ] ; propers
; for gromacs 4.5 or higher, using funct 9
;    i      j      k      l   func   phase     kd      pn
     1      2      3      7      9 ;   180.00   1.08784   3 ;     C1-    C2-    C3-    H4
     1      2      3      8      9 ;   180.00   1.08784   3 ;     C1-    C2-    C3-    H5
     1      2      3      9      9 ;   180.00   1.08784   3 ;     C1-    C2-    C3-    H6
     4      1      2      3      9 ;   180.00  27.82360   2 ;     H1-    C1-    C2-    C3
     4      1      2      6      9 ;   180.00  27.82360   2 ;     H1-    C1-    C2-    H3
     5      1      2      3      9 ;   180.00  27.82360   2 ;     H2-    C1-    C2-    C3
     5      1      2      6      9 ;   180.00  27.82360   2 ;     H2-    C1-    C2-    H3
     6      2      3      7      9 ;     0.00   0.00000   0 ;     H3-    C2-    C3-    H4
     6      2      3      8      9 ;     0.00   0.00000   0 ;     H3-    C2-    C3-    H5
     6      2      3      9      9 ;     0.00   0.00000   0 ;     H3-    C2-    C3-    H6

[ dihedrals ] ; impropers
; treated as propers in GROMACS to use correct AMBER analytical function
;    i      j      k      l   func   phase     kd      pn
     1      3      2      6      4 ;   180.00   4.60240   2 ;     C1-    C3-    C2-    H3
     5      1      4      2      4 ;   180.00   4.60240   2 ;     H2-    C1-    H1-    C2
