propene
     9
   0.8210000  -0.6790000  -0.2030000   1.3490000  -1.4450000   0.7580000
   0.8800000  -1.4500000   2.1740000   1.2090000  -0.7220000  -1.2140000
   0.0000000   0.0000000   0.0000000   2.1710000  -2.1090000   0.5060000
   0.5430000  -2.4540000   2.4520000   0.0510000  -0.7540000   2.3390000
   1.7000000  -1.1660000   2.8400000
