mobley_303222_GMX.gro created by acpype (v: 2023.10.27) on Thu May 21 00:04:44 2026
 9
    1  MOL   C1    1   0.082  -0.068  -0.020
    1  MOL   C2    2   0.135  -0.145   0.076
    1  MOL   C3    3   0.088  -0.145   0.217
    1  MOL   H1    4   0.121  -0.072  -0.121
    1  MOL   H2    5   0.000   0.000   0.000
    1  MOL   H3    6   0.217  -0.211   0.051
    1  MOL   H4    7   0.054  -0.245   0.245
    1  MOL   H5    8   0.005  -0.075   0.234
    1  MOL   H6    9   0.170  -0.117   0.284
    4.34200     4.90800     8.10800
