mobley_1893937_GMX.gro created by acpype (v: 2023.10.27) on Wed May 20 23:42:20 2026
 20
    1  MOL   C1    1   0.066  -0.067   0.056
    1  MOL   C2    2   0.003  -0.102   0.190
    1  MOL   C3    3   0.094  -0.193   0.273
    1  MOL   C4    4   0.029  -0.231   0.406
    1  MOL   C5    5   0.122  -0.319   0.490
    1  MOL   C6    6   0.059  -0.366   0.621
    1  MOL  CL1    7   0.014  -0.230   0.726
    1  MOL   H1    8   0.160  -0.014   0.070
    1  MOL   H2    9  -0.001  -0.003  -0.001
    1  MOL   H3   10   0.085  -0.157  -0.003
    1  MOL   H4   11  -0.019  -0.010   0.245
    1  MOL   H5   12  -0.093  -0.153   0.173
    1  MOL   H6   13   0.189  -0.141   0.292
    1  MOL   H7   14   0.118  -0.284   0.216
    1  MOL   H8   15  -0.065  -0.284   0.387
    1  MOL   H9   16   0.003  -0.139   0.461
    1  MOL  H10   17   0.215  -0.265   0.511
    1  MOL  H11   18   0.150  -0.407   0.432
    1  MOL  H12   19  -0.031  -0.425   0.602
    1  MOL  H13   20   0.129  -0.428   0.676
    6.16800     8.51200    14.58200
