mobley_1722522_GMX.gro created by acpype (v: 2023.10.27) on Wed May 20 23:51:36 2026
   20
    1MOL     C1    1   2.454   2.469   2.514
    1MOL     C2    2   2.148   2.477   2.277
    1MOL     C3    3   2.813   2.413   2.556
    1MOL     C4    4   2.375   2.457   2.386
    1MOL     C5    5   2.226   2.485   2.408
    1MOL     C6    6   2.673   2.447   2.601
    1MOL     O1    7   2.407   2.499   2.623
    1MOL     O2    8   2.585   2.440   2.488
    1MOL     H1    9   2.042   2.497   2.295
    1MOL     H2   10   2.185   2.549   2.205
    1MOL     H3   11   2.157   2.377   2.233
    1MOL     H4   12   2.883   2.417   2.640
    1MOL     H5   13   2.816   2.312   2.512
    1MOL     H6   14   2.847   2.482   2.478
    1MOL     H7   15   2.416   2.529   2.314
    1MOL     H8   16   2.388   2.356   2.347
    1MOL     H9   17   2.184   2.414   2.479
    1MOL    H10   18   2.213   2.585   2.451
    1MOL    H11   19   2.669   2.548   2.643
    1MOL    H12   20   2.638   2.376   2.677
   4.91253   4.91253   4.91253
