mobley_1722522_GMX.gro created by acpype (v: 2023.10.27) on Wed May 20 23:51:36 2026
11597
    1MOL     C1    1   2.454   2.469   2.514
    1MOL     C2    2   2.148   2.477   2.277
    1MOL     C3    3   2.813   2.413   2.556
    1MOL     C4    4   2.375   2.457   2.386
    1MOL     C5    5   2.226   2.485   2.408
    1MOL     C6    6   2.673   2.447   2.601
    1MOL     O1    7   2.407   2.499   2.623
    1MOL     O2    8   2.585   2.440   2.488
    1MOL     H1    9   2.042   2.497   2.295
    1MOL     H2   10   2.185   2.549   2.205
    1MOL     H3   11   2.157   2.377   2.233
    1MOL     H4   12   2.883   2.417   2.640
    1MOL     H5   13   2.816   2.312   2.512
    1MOL     H6   14   2.847   2.482   2.478
    1MOL     H7   15   2.416   2.529   2.314
    1MOL     H8   16   2.388   2.356   2.347
    1MOL     H9   17   2.184   2.414   2.479
    1MOL    H10   18   2.213   2.585   2.451
    1MOL    H11   19   2.669   2.548   2.643
    1MOL    H12   20   2.638   2.376   2.677
    2SOL     OW   21   0.230   0.628   0.113
    2SOL    HW1   22   0.137   0.626   0.150
    2SOL    HW2   23   0.231   0.589   0.021
    3SOL     OW   24   0.225   0.275   0.996
    3SOL    HW1   25   0.260   0.258   1.088
    3SOL    HW2   26   0.137   0.230   0.984
    4SOL     OW   27   0.019   0.368   0.647
    4SOL    HW1   28  -0.063   0.411   0.686
    4SOL    HW2   29  -0.009   0.295   0.584
    5SOL     OW   30   0.569   1.275   1.165
    5SOL    HW1   31   0.476   1.268   1.128
    5SOL    HW2   32   0.580   1.364   1.209
    6SOL     OW   33   1.555   1.511   0.703
    6SOL    HW1   34   1.498   1.495   0.784
    6SOL    HW2   35   1.496   1.521   0.623
    7SOL     OW   36   1.135   0.703   0.717
    7SOL    HW1   37   1.192   0.781   0.692
    7SOL    HW2   38   1.075   0.729   0.793
    8SOL     OW   39   1.755   0.607   0.231
    8SOL    HW1   40   1.743   0.594   0.132
    8SOL    HW2   41   1.725   0.526   0.280
    9SOL     OW   42   0.768   1.144   1.023
    9SOL    HW1   43   0.690   1.161   1.083
    9SOL    HW2   44   0.802   1.231   0.987
   10SOL     OW   45   0.850   0.798   1.823
   10SOL    HW1   46   0.846   0.874   1.888
   10SOL    HW2   47   0.872   0.834   1.732
   11SOL     OW   48   0.685   1.012   0.665
   11SOL    HW1   49   0.754   0.996   0.735
   11SOL    HW2   50   0.612   1.069   0.703
   12SOL     OW   51   0.686   1.161   1.803
   12SOL    HW1   52   0.746   1.240   1.817
   12SOL    HW2   53   0.600   1.192   1.762
   13SOL     OW   54   0.335   1.435   1.061
   13SOL    HW1   55   0.257   1.404   1.008
   13SOL    HW2   56   0.393   1.493   1.004
   14SOL     OW   57   1.460   1.505   1.339
   14SOL    HW1   58   1.484   1.599   1.365
   14SOL    HW2   59   1.444   1.451   1.421
   15SOL     OW   60   0.438   0.392   1.499
   15SOL    HW1   61   0.520   0.336   1.508
   15SOL    HW2   62   0.357   0.334   1.503
   16SOL     OW   63   1.603   0.447   0.737
   16SOL    HW1   64   1.529   0.493   0.687
   16SOL    HW2   65   1.654   0.515   0.790
   17SOL     OW   66   0.231   1.713   0.483
   17SOL    HW1   67   0.265   1.790   0.537
   17SOL    HW2   68   0.275   1.713   0.393
   18SOL     OW   69   1.127   1.341   1.690
   18SOL    HW1   70   1.174   1.341   1.778
   18SOL    HW2   71   1.079   1.254   1.679
   19SOL     OW   72   0.230   1.434   0.538
   19SOL    HW1   73   0.204   1.530   0.538
   19SOL    HW2   74   0.159   1.380   0.583
   20SOL     OW   75   0.240   1.091   0.886
   20SOL    HW1   76   0.254   1.007   0.938
   20SOL    HW2   77   0.185   1.155   0.941
   21SOL     OW   78   0.620   1.786   1.439
   21SOL    HW1   79   0.528   1.769   1.474
   21SOL    HW2   80   0.648   1.878   1.465
   22SOL     OW   81   0.606   0.964   0.123
   22SOL    HW1   82   0.613   1.048   0.069
   22SOL    HW2   83   0.652   0.977   0.211
   23SOL     OW   84   1.594   0.114   1.480
   23SOL    HW1   85   1.576   0.181   1.408
   23SOL    HW2   86   1.591   0.160   1.569
   24SOL     OW   87   0.122   0.643   0.563
   24SOL    HW1   88   0.077   0.555   0.580
   24SOL    HW2   89   0.121   0.697   0.647
   25SOL     OW   90   1.842   1.767   0.359
   25SOL    HW1   91   1.896   1.738   0.439
   25SOL    HW2   92   1.872   1.857   0.330
   26SOL     OW   93   0.027   1.596   0.117
   26SOL    HW1   94   0.008   1.500   0.138
   26SOL    HW2   95  -0.006   1.654   0.192
   27SOL     OW   96   1.689   0.922   0.612
   27SOL    HW1   97   1.784   0.893   0.620
   27SOL    HW2   98   1.681   0.987   0.537
   28SOL     OW   99   1.641   1.108   0.432
   28SOL    HW1  100   1.727   1.110   0.380
   28SOL    HW2  101   1.655   1.155   0.520
   29SOL     OW  102   0.113   0.737   1.597
   29SOL    HW1  103   0.201   0.724   1.642
   29SOL    HW2  104   0.100   0.834   1.575
   30SOL     OW  105   0.613   1.365   0.726
   30SOL    HW1  106   0.564   1.278   0.735
   30SOL    HW2  107   0.590   1.408   0.639
   31SOL     OW  108   1.293   1.228   1.423
   31SOL    HW1  109   1.330   1.155   1.365
   31SOL    HW2  110   1.345   1.233   1.508
   32SOL     OW  111   0.809   0.004   0.502
   32SOL    HW1  112   0.849   0.095   0.493
   32SOL    HW2  113   0.709   0.012   0.508
   33SOL     OW  114   0.197   0.976   1.264
   33SOL    HW1  115   0.286   0.931   1.250
   33SOL    HW2  116   0.124   0.911   1.245
   34SOL     OW  117   1.525   0.999   0.190
   34SOL    HW1  118   1.462   0.923   0.203
   34SOL    HW2  119   1.573   1.017   0.276
   35SOL     OW  120   1.187   1.792   1.616
   35SOL    HW1  121   1.211   1.852   1.540
   35SOL    HW2  122   1.194   1.697   1.586
   36SOL     OW  123   0.317   0.251   1.801
   36SOL    HW1  124   0.388   0.322   1.807
   36SOL    HW2  125   0.229   0.290   1.829
   37SOL     OW  126   1.466   1.417   0.953
   37SOL    HW1  127   1.407   1.423   1.033
   37SOL    HW2  128   1.451   1.329   0.907
   38SOL     OW  129   1.667   1.714   0.572
   38SOL    HW1  130   1.626   1.691   0.484
   38SOL    HW2  131   1.649   1.640   0.637
   39SOL     OW  132   0.598   0.729   0.270
   39SOL    HW1  133   0.622   0.798   0.202
   39SOL    HW2  134   0.520   0.762   0.324
   40SOL     OW  135   1.281   0.345   0.944
   40SOL    HW1  136   1.195   0.295   0.931
   40SOL    HW2  137   1.343   0.291   1.000
   41SOL     OW  138   1.576   1.662   0.307
   41SOL    HW1  139   1.665   1.708   0.310
   41SOL    HW2  140   1.555   1.638   0.212
   42SOL     OW  141   0.807   0.605   1.465
   42SOL    HW1  142   0.760   0.602   1.554
   42SOL    HW2  143   0.756   0.550   1.399
   43SOL     OW  144   1.394   0.469   1.674
   43SOL    HW1  145   1.374   0.512   1.762
   43SOL    HW2  146   1.472   0.407   1.683
   44SOL     OW  147   0.973   0.890   1.572
   44SOL    HW1  148   1.019   0.806   1.543
   44SOL    HW2  149   0.917   0.924   1.497
   45SOL     OW  150   0.991   0.410   1.242
   45SOL    HW1  151   0.914   0.444   1.296
   45SOL    HW2  152   0.957   0.359   1.163
   46SOL     OW  153   1.041   0.701   0.429
   46SOL    HW1  154   1.067   0.697   0.525
   46SOL    HW2  155   0.956   0.650   0.415
   47SOL     OW  156   0.076   0.811   0.789
   47SOL    HW1  157   0.175   0.799   0.798
   47SOL    HW2  158   0.052   0.906   0.810
   48SOL     OW  159   0.130   1.821   1.571
   48SOL    HW1  160   0.120   1.806   1.670
   48SOL    HW2  161   0.044   1.857   1.535
   49SOL     OW  162   0.865   0.348   0.195
   49SOL    HW1  163   0.924   0.411   0.146
   49SOL    HW2  164   0.884   0.254   0.166
   50SOL     OW  165   1.719   0.585   1.831
   50SOL    HW1  166   1.693   0.674   1.795
   50SOL    HW2  167   1.717   0.517   1.758
   51SOL     OW  168   1.362   1.144   0.545
   51SOL    HW1  169   1.445   1.115   0.497
   51SOL    HW2  170   1.313   1.211   0.489
   52SOL     OW  171   0.550   0.196   0.885
   52SOL    HW1  172   0.545   0.191   0.985
   52SOL    HW2  173   0.552   0.292   0.856
   53SOL     OW  174   1.008   1.456   0.477
   53SOL    HW1  175   0.962   1.528   0.425
   53SOL    HW2  176   1.004   1.476   0.575
   54SOL     OW  177   0.351   1.801   0.853
   54SOL    HW1  178   0.401   1.715   0.859
   54SOL    HW2  179   0.416   1.878   0.850
   55SOL     OW  180   1.795   1.066   0.873
   55SOL    HW1  181   1.733   1.051   0.797
   55SOL    HW2  182   1.743   1.077   0.958
   56SOL     OW  183   1.227   1.550   1.506
   56SOL    HW1  184   1.233   1.473   1.570
   56SOL    HW2  185   1.175   1.524   1.426
   57SOL     OW  186   0.321   0.943   0.242
   57SOL    HW1  187   0.403   0.982   0.200
   57SOL    HW2  188   0.294   0.861   0.193
   58SOL     OW  189   1.458   0.735   0.728
   58SOL    HW1  190   1.453   0.670   0.803
   58SOL    HW2  191   1.538   0.794   0.741
   59SOL     OW  192   0.461   1.266   1.727
   59SOL    HW1  193   0.411   1.267   1.641
   59SOL    HW2  194   0.398   1.248   1.803
   60SOL     OW  195   1.111   1.776   0.237
   60SOL    HW1  196   1.051   1.714   0.287
   60SOL    HW2  197   1.142   1.732   0.152
   61SOL     OW  198   0.202   0.285   1.498
   61SOL    HW1  199   0.122   0.345   1.485
   61SOL    HW2  200   0.192   0.236   1.584
   62SOL     OW  201   1.632   1.377   0.081
   62SOL    HW1  202   1.600   1.471   0.071
   62SOL    HW2  203   1.556   1.314   0.069
   63SOL     OW  204   0.464   1.743   0.323
   63SOL    HW1  205   0.497   1.782   0.409
   63SOL    HW2  206   0.540   1.736   0.258
   64SOL     OW  207   1.400   0.107   0.426
   64SOL    HW1  208   1.376   0.070   0.336
   64SOL    HW2  209   1.499   0.123   0.430
   65SOL     OW  210   0.249   1.785   1.241
   65SOL    HW1  211   0.306   1.720   1.291
   65SOL    HW2  212   0.233   1.752   1.148
   66SOL     OW  213   0.940   1.698   0.904
   66SOL    HW1  214   1.020   1.641   0.925
   66SOL    HW2  215   0.891   1.658   0.827
   67SOL     OW  216   0.382   0.700   0.480
   67SOL    HW1  217   0.427   0.610   0.477
   67SOL    HW2  218   0.288   0.689   0.513
   68SOL     OW  219   1.547   0.222   1.729
   68SOL    HW1  220   1.542   0.259   1.821
   68SOL    HW2  221   1.475   0.153   1.717
   69SOL     OW  222   0.614   0.122   0.117
   69SOL    HW1  223   0.712   0.100   0.124
   69SOL    HW2  224   0.583   0.105   0.024
   70SOL     OW  225   0.781   0.264   1.749
   70SOL    HW1  226   0.848   0.203   1.792
   70SOL    HW2  227   0.708   0.283   1.814
   71SOL     OW  228   0.888   1.514   1.195
   71SOL    HW1  229   0.865   1.489   1.101
   71SOL    HW2  230   0.949   1.445   1.234
   72SOL     OW  231   1.351   0.590   1.433
   72SOL    HW1  232   1.379   0.547   1.518
   72SOL    HW2  233   1.376   0.686   1.434
   73SOL     OW  234   0.803   1.402   0.924
   73SOL    HW1  235   0.893   1.416   0.882
   73SOL    HW2  236   0.732   1.404   0.853
   74SOL     OW  237   0.922   0.503   0.899
   74SOL    HW1  238   0.897   0.494   0.803
   74SOL    HW2  239   0.970   0.421   0.930
   75SOL     OW  240   0.539   0.064   0.512
   75SOL    HW1  241   0.458   0.065   0.570
   75SOL    HW2  242   0.542   0.147   0.457
   76SOL     OW  243   1.434   1.188   0.041
   76SOL    HW1  244   1.466   1.112   0.098
   76SOL    HW2  245   1.342   1.215   0.071
   77SOL     OW  246   0.297   0.035   0.171
   77SOL    HW1  247   0.346   0.119   0.150
   77SOL    HW2  248   0.359  -0.030   0.216
   78SOL     OW  249   0.935   0.236   0.480
   78SOL    HW1  250   0.887   0.277   0.402
   78SOL    HW2  251   1.034   0.234   0.461
   79SOL     OW  252   1.076   0.683   1.464
   79SOL    HW1  253   0.996   0.622   1.467
   79SOL    HW2  254   1.157   0.630   1.440
   80SOL     OW  255   1.227   1.570   0.793
   80SOL    HW1  256   1.248   1.644   0.728
   80SOL    HW2  257   1.295   1.570   0.866
   81SOL     OW  258   0.459   1.152   0.741
   81SOL    HW1  259   0.388   1.125   0.806
   81SOL    HW2  260   0.433   1.124   0.648
   82SOL     OW  261   1.271   1.797   0.591
   82SOL    HW1  262   1.315   1.861   0.527
   82SOL    HW2  263   1.221   1.849   0.661
   83SOL     OW  264   1.032   0.549   0.016
   83SOL    HW1  265   0.991   0.631  -0.023
   83SOL    HW2  266   1.096   0.575   0.089
   84SOL     OW  267   0.078   0.556   1.386
   84SOL    HW1  268   0.170   0.555   1.345
   84SOL    HW2  269   0.072   0.630   1.453
   85SOL     OW  270   0.561   0.222   1.147
   85SOL    HW1  271   0.599   0.138   1.184
   85SOL    HW2  272   0.473   0.241   1.191
   86SOL     OW  273   0.866   0.454   0.642
   86SOL    HW1  274   0.834   0.526   0.580
   86SOL    HW2  275   0.890   0.373   0.589
   87SOL     OW  276   1.017   0.039   0.753
   87SOL    HW1  277   0.945   0.044   0.684
   87SOL    HW2  278   0.993  -0.030   0.822
   88SOL     OW  279   1.429   1.173   0.867
   88SOL    HW1  280   1.374   1.089   0.860
   88SOL    HW2  281   1.455   1.202   0.775
   89SOL     OW  282   1.466   0.590   0.992
   89SOL    HW1  283   1.436   0.495   0.999
   89SOL    HW2  284   1.539   0.606   1.058
   90SOL     OW  285   1.857   0.833   0.377
   90SOL    HW1  286   1.899   0.769   0.441
   90SOL    HW2  287   1.819   0.782   0.299
   91SOL     OW  288   0.488   1.385   0.174
   91SOL    HW1  289   0.401   1.370   0.221
   91SOL    HW2  290   0.471   1.411   0.079
   92SOL     OW  291   1.664   1.280   0.657
   92SOL    HW1  292   1.763   1.288   0.671
   92SOL    HW2  293   1.619   1.364   0.688
   93SOL     OW  294   1.390   0.575   0.078
   93SOL    HW1  295   1.336   0.554   0.159
   93SOL    HW2  296   1.481   0.534   0.087
   94SOL     OW  297   0.527   0.256   0.328
   94SOL    HW1  298   0.554   0.197   0.253
   94SOL    HW2  299   0.527   0.351   0.297
   95SOL     OW  300   1.754   1.223   1.588
   95SOL    HW1  301   1.845   1.184   1.575
   95SOL    HW2  302   1.762   1.319   1.612
   96SOL     OW  303   1.064   1.347   1.340
   96SOL    HW1  304   0.984   1.324   1.395
   96SOL    HW2  305   1.147   1.321   1.389
   97SOL     OW  306   1.592   1.629   1.625
   97SOL    HW1  307   1.619   1.663   1.535
   97SOL    HW2  308   1.671   1.591   1.671
   98SOL     OW  309   1.111   1.195   1.100
   98SOL    HW1  310   1.071   1.239   1.181
   98SOL    HW2  311   1.070   1.232   1.017
   99SOL     OW  312   1.638   1.099   1.079
   99SOL    HW1  313   1.643   1.180   1.138
   99SOL    HW2  314   1.552   1.101   1.028
  100SOL     OW  315   0.915   0.089   1.402
  100SOL    HW1  316   0.940   0.069   1.307
  100SOL    HW2  317   0.987   0.145   1.444
  101SOL     OW  318   0.980   1.116   1.719
  101SOL    HW1  319   0.881   1.122   1.729
  101SOL    HW2  320   1.003   1.036   1.663
  102SOL     OW  321   0.705   1.050   0.368
  102SOL    HW1  322   0.691   1.057   0.467
  102SOL    HW2  323   0.789   0.999   0.350
  103SOL     OW  324   0.410   0.813   1.251
  103SOL    HW1  325   0.496   0.825   1.301
  103SOL    HW2  326   0.368   0.726   1.278
  104SOL     OW  327   1.274   0.386   1.262
  104SOL    HW1  328   1.295   0.460   1.326
  104SOL    HW2  329   1.185   0.403   1.219
  105SOL     OW  330   0.064   1.564   1.331
  105SOL    HW1  331   0.018   1.646   1.297
  105SOL    HW2  332   0.162   1.583   1.340
  106SOL     OW  333   0.367   1.100   0.501
  106SOL    HW1  334   0.360   1.183   0.445
  106SOL    HW2  335   0.371   1.020   0.441
  107SOL     OW  336   0.566   0.537   0.865
  107SOL    HW1  337   0.578   0.603   0.791
  107SOL    HW2  338   0.612   0.571   0.948
  108SOL     OW  339   1.252   1.348   0.388
  108SOL    HW1  340   1.302   1.425   0.428
  108SOL    HW2  341   1.157   1.350   0.420
  109SOL     OW  342   1.272   1.445   1.142
  109SOL    HW1  343   1.319   1.458   1.229
  109SOL    HW2  344   1.206   1.371   1.151
  110SOL     OW  345   1.582   0.639   0.472
  110SOL    HW1  346   1.551   0.700   0.545
  110SOL    HW2  347   1.632   0.691   0.403
  111SOL     OW  348   0.354   1.510   1.329
  111SOL    HW1  349   0.333   1.466   1.242
  111SOL    HW2  350   0.451   1.536   1.332
  112SOL     OW  351   0.402   0.751   1.598
  112SOL    HW1  352   0.470   0.806   1.551
  112SOL    HW2  353   0.442   0.663   1.625
  113SOL     OW  354   1.587   0.779   1.670
  113SOL    HW1  355   1.495   0.817   1.665
  113SOL    HW2  356   1.647   0.826   1.605
  114SOL     OW  357   1.013   0.105   1.770
  114SOL    HW1  358   1.019   0.190   1.718
  114SOL    HW2  359   1.045   0.029   1.713
  115SOL     OW  360   0.504   0.050   1.740
  115SOL    HW1  361   0.462  -0.007   1.670
  115SOL    HW2  362   0.438   0.119   1.772
  116SOL     OW  363   0.573   0.870   1.029
  116SOL    HW1  364   0.617   0.959   1.020
  116SOL    HW2  365   0.510   0.870   1.106
  117SOL     OW  366   1.360   0.862   1.045
  117SOL    HW1  367   1.285   0.862   0.979
  117SOL    HW2  368   1.397   0.770   1.054
  118SOL     OW  369   1.209   0.525   0.275
  118SOL    HW1  370   1.222   0.441   0.329
  118SOL    HW2  371   1.180   0.599   0.335
  119SOL     OW  372   0.307   0.213   1.231
  119SOL    HW1  373   0.284   0.250   1.321
  119SOL    HW2  374   0.277   0.118   1.225
  120SOL     OW  375   0.037   1.310   1.282
  120SOL    HW1  376   0.090   1.261   1.350
  120SOL    HW2  377   0.059   1.408   1.287
  121SOL     OW  378   0.732   0.634   1.064
  121SOL    HW1  379   0.791   0.608   0.988
  121SOL    HW2  380   0.704   0.730   1.053
  122SOL     OW  381   1.728   0.935   1.854
  122SOL    HW1  382   1.682   0.928   1.765
  122SOL    HW2  383   1.666   0.979   1.920
  123SOL     OW  384   0.307   0.063   0.618
  123SOL    HW1  385   0.296   0.157   0.651
  123SOL    HW2  386   0.302   0.000   0.695
  124SOL     OW  387   1.622   0.367   0.374
  124SOL    HW1  388   1.624   0.291   0.438
  124SOL    HW2  389   1.574   0.444   0.414
  125SOL     OW  390   1.023   0.766   0.966
  125SOL    HW1  391   1.038   0.787   1.062
  125SOL    HW2  392   0.993   0.671   0.957
  126SOL     OW  393   0.980   1.573   1.700
  126SOL    HW1  394   0.960   1.617   1.612
  126SOL    HW2  395   1.019   1.482   1.684
  127SOL     OW  396   1.859   1.518   1.605
  127SOL    HW1  397   1.873   1.545   1.510
  127SOL    HW2  398   1.942   1.540   1.658
  128SOL     OW  399   0.350   0.898   1.804
  128SOL    HW1  400   0.426   0.942   1.852
  128SOL    HW2  401   0.385   0.851   1.722
  129SOL     OW  402   1.540   0.274   0.125
  129SOL    HW1  403   1.479   0.199   0.148
  129SOL    HW2  404   1.562   0.326   0.208
  130SOL     OW  405   1.303   0.838   0.042
  130SOL    HW1  406   1.337   0.745   0.057
  130SOL    HW2  407   1.321   0.865  -0.053
  131SOL     OW  408   1.068   1.333   0.849
  131SOL    HW1  409   1.075   1.249   0.794
  131SOL    HW2  410   1.130   1.402   0.813
  132SOL     OW  411   0.319   0.810   0.949
  132SOL    HW1  412   0.412   0.846   0.954
  132SOL    HW2  413   0.313   0.725   1.001
  133SOL     OW  414   0.339   0.509   1.006
  133SOL    HW1  415   0.287   0.426   0.989
  133SOL    HW2  416   0.416   0.514   0.942
  134SOL     OW  417   1.138   0.380   1.678
  134SOL    HW1  418   1.093   0.443   1.742
  134SOL    HW2  419   1.231   0.411   1.661
  135SOL     OW  420   1.160   0.207   1.477
  135SOL    HW1  421   1.160   0.271   1.554
  135SOL    HW2  422   1.188   0.255   1.394
  136SOL     OW  423   0.008   1.326   0.200
  136SOL    HW1  424  -0.085   1.347   0.169
  136SOL    HW2  425   0.018   1.227   0.213
  137SOL     OW  426   0.088   1.801   0.927
  137SOL    HW1  427   0.046   1.715   0.900
  137SOL    HW2  428   0.182   1.804   0.893
  138SOL     OW  429   0.504   1.568   0.910
  138SOL    HW1  430   0.570   1.642   0.919
  138SOL    HW2  431   0.548   1.489   0.868
  139SOL     OW  432   1.002   0.796   1.238
  139SOL    HW1  433   1.043   0.764   1.324
  139SOL    HW2  434   0.906   0.769   1.235
  140SOL     OW  435   0.040   0.544   1.114
  140SOL    HW1  436   0.125   0.511   1.073
  140SOL    HW2  437   0.053   0.559   1.212
  141SOL     OW  438   0.189   0.520   1.722
  141SOL    HW1  439   0.248   0.480   1.652
  141SOL    HW2  440   0.131   0.591   1.681
  142SOL     OW  441   1.369   0.950   1.660
  142SOL    HW1  442   1.408   1.039   1.680
  142SOL    HW2  443   1.379   0.930   1.563
  143SOL     OW  444   0.815   0.572   0.325
  143SOL    HW1  445   0.822   0.483   0.279
  143SOL    HW2  446   0.721   0.606   0.317
  144SOL     OW  447   1.657   0.604   1.206
  144SOL    HW1  448   1.619   0.535   1.268
  144SOL    HW2  449   1.739   0.568   1.162
  145SOL     OW  450   0.252   1.564   1.744
  145SOL    HW1  451   0.222   1.621   1.820
  145SOL    HW2  452   0.245   1.467   1.770
  146SOL     OW  453   0.671   0.464   1.269
  146SOL    HW1  454   0.637   0.375   1.239
  146SOL    HW2  455   0.697   0.518   1.189
  147SOL     OW  456   0.930   1.678   1.465
  147SOL    HW1  457   0.906   1.660   1.370
  147SOL    HW2  458   0.960   1.772   1.475
  148SOL     OW  459   0.473   0.500   0.191
  148SOL    HW1  460   0.534   0.580   0.195
  148SOL    HW2  461   0.378   0.531   0.198
  149SOL     OW  462   0.159   1.137   1.466
  149SOL    HW1  463   0.181   1.076   1.542
  149SOL    HW2  464   0.169   1.088   1.380
  150SOL     OW  465   1.347   1.059   1.234
  150SOL    HW1  466   1.371   0.996   1.160
  150SOL    HW2  467   1.257   1.099   1.216
  151SOL     OW  468   1.302   0.855   0.309
  151SOL    HW1  469   1.216   0.824   0.351
  151SOL    HW2  470   1.298   0.841   0.210
  152SOL     OW  471   1.759   1.747   1.154
  152SOL    HW1  472   1.820   1.777   1.081
  152SOL    HW2  473   1.721   1.658   1.132
  153SOL     OW  474   1.252   1.731   1.128
  153SOL    HW1  475   1.336   1.736   1.074
  153SOL    HW2  476   1.229   1.635   1.146
  154SOL     OW  477   0.083   1.258   1.022
  154SOL    HW1  478   0.078   1.257   1.122
  154SOL    HW2  479   0.000   1.217   0.984
  155SOL     OW  480   0.688   1.662   1.716
  155SOL    HW1  481   0.632   1.743   1.725
  155SOL    HW2  482   0.740   1.666   1.630
  156SOL     OW  483   0.903   0.086   0.133
  156SOL    HW1  484   0.954   0.087   0.047
  156SOL    HW2  485   0.959   0.044   0.204
  157SOL     OW  486   1.726   0.135   0.523
  157SOL    HW1  487   1.799   0.118   0.456
  157SOL    HW2  488   1.695   0.048   0.561
  158SOL     OW  489   1.388   1.573   0.477
  158SOL    HW1  490   1.455   1.585   0.403
  158SOL    HW2  491   1.348   1.662   0.500
  159SOL     OW  492   0.130   1.794   1.851
  159SOL    HW1  493   0.089   1.720   1.904
  159SOL    HW2  494   0.194   1.845   1.909
  160SOL     OW  495   1.280   0.927   0.672
  160SOL    HW1  496   1.340   0.846   0.674
  160SOL    HW2  497   1.320   0.996   0.612
  161SOL     OW  498   0.830   1.273   1.422
  161SOL    HW1  499   0.825   1.306   1.517
  161SOL    HW2  500   0.744   1.292   1.376
  162SOL     OW  501   0.672   1.616   0.154
  162SOL    HW1  502   0.681   1.626   0.055
  162SOL    HW2  503   0.632   1.527   0.175
  163SOL     OW  504   1.650   1.720   1.394
  163SOL    HW1  505   1.703   1.730   1.310
  163SOL    HW2  506   1.623   1.810   1.428
  164SOL     OW  507   1.841   0.175   0.963
  164SOL    HW1  508   1.880   0.090   0.927
  164SOL    HW2  509   1.743   0.177   0.944
  165SOL     OW  510   0.263   0.326   0.720
  165SOL    HW1  511   0.184   0.377   0.686
  165SOL    HW2  512   0.254   0.311   0.818
  166SOL     OW  513   1.194   1.612   0.031
  166SOL    HW1  514   1.200   1.519   0.068
  166SOL    HW2  515   1.135   1.612  -0.049
  167SOL     OW  516   0.822   1.002   1.372
  167SOL    HW1  517   0.862   1.001   1.280
  167SOL    HW2  518   0.832   1.094   1.412
  168SOL     OW  519   0.916   0.910   0.291
  168SOL    HW1  520   0.979   0.948   0.223
  168SOL    HW2  521   0.956   0.827   0.330
  169SOL     OW  522   1.504   1.607   0.044
  169SOL    HW1  523   1.412   1.644   0.051
  169SOL    HW2  524   1.542   1.627  -0.046
  170SOL     OW  525   0.372   1.288   1.490
  170SOL    HW1  526   0.359   1.381   1.456
  170SOL    HW2  527   0.288   1.236   1.477
  171SOL     OW  528   1.614   1.292   1.289
  171SOL    HW1  529   1.674   1.295   1.369
  171SOL    HW2  530   1.539   1.356   1.302
  172SOL     OW  531   1.039   1.098   0.696
  172SOL    HW1  532   0.969   1.051   0.750
  172SOL    HW2  533   1.098   1.030   0.653
  173SOL     OW  534   1.014   0.236   0.971
  173SOL    HW1  535   1.006   0.200   0.878
  173SOL    HW2  536   1.012   0.160   1.036
  174SOL     OW  537   0.590   1.487   0.491
  174SOL    HW1  538   0.632   1.429   0.421
  174SOL    HW2  539   0.546   1.566   0.447
  175SOL     OW  540   1.709   0.385   1.381
  175SOL    HW1  541   1.782   0.454   1.385
  175SOL    HW2  542   1.737   0.310   1.322
  176SOL     OW  543   0.255   1.348   0.290
  176SOL    HW1  544   0.159   1.349   0.263
  176SOL    HW2  545   0.267   1.401   0.374
  177SOL     OW  546   0.105   1.013   1.726
  177SOL    HW1  547   0.028   0.980   1.780
  177SOL    HW2  548   0.190   0.983   1.768
  178SOL     OW  549   0.672   0.203   1.489
  178SOL    HW1  550   0.762   0.187   1.449
  178SOL    HW2  551   0.680   0.208   1.588
  179SOL     OW  552   0.075   0.345   0.033
  179SOL    HW1  553  -0.017   0.317   0.004
  179SOL    HW2  554   0.106   0.422  -0.023
  180SOL     OW  555   1.440   0.856   1.398
  180SOL    HW1  556   1.383   0.908   1.335
  180SOL    HW2  557   1.536   0.868   1.374
  181SOL     OW  558   0.072   0.166   0.318
  181SOL    HW1  559   0.055   0.249   0.264
  181SOL    HW2  560   0.162   0.129   0.296
  182SOL     OW  561   1.183   1.335   0.119
  182SOL    HW1  562   1.084   1.324   0.121
  182SOL    HW2  563   1.217   1.350   0.212
  183SOL     OW  564   0.613   0.842   1.431
  183SOL    HW1  565   0.669   0.923   1.414
  183SOL    HW2  566   0.672   0.762   1.434
  184SOL     OW  567   1.493   1.767   0.959
  184SOL    HW1  568   1.526   1.831   0.890
  184SOL    HW2  569   1.559   1.761   1.034
  185SOL     OW  570   0.716   0.565   1.708
  185SOL    HW1  571   0.735   0.630   1.782
  185SOL    HW2  572   0.776   0.485   1.717
  186SOL     OW  573   1.450   1.220   1.633
  186SOL    HW1  574   1.441   1.210   1.732
  186SOL    HW2  575   1.546   1.213   1.607
  187SOL     OW  576   0.390   1.741   1.560
  187SOL    HW1  577   0.299   1.782   1.558
  187SOL    HW2  578   0.383   1.647   1.592
  188SOL     OW  579   1.674   0.883   1.254
  188SOL    HW1  580   1.647   0.794   1.217
  188SOL    HW2  581   1.675   0.951   1.181
  189SOL     OW  582   1.225   0.325   0.449
  189SOL    HW1  583   1.290   0.251   0.438
  189SOL    HW2  584   1.245   0.375   0.533
  190SOL     OW  585   0.594   0.745   0.652
  190SOL    HW1  586   0.644   0.830   0.633
  190SOL    HW2  587   0.506   0.747   0.604
  191SOL     OW  588   1.777   0.342   1.642
  191SOL    HW1  589   1.760   0.373   1.548
  191SOL    HW2  590   1.693   0.305   1.680
  192SOL     OW  591   1.730   0.934   1.517
  192SOL    HW1  592   1.768   1.025   1.532
  192SOL    HW2  593   1.722   0.917   1.418
  193SOL     OW  594   0.859   1.374   0.016
  193SOL    HW1  595   0.813   1.389   0.104
  193SOL    HW2  596   0.903   1.459  -0.014
  194SOL     OW  597   0.661   1.790   0.953
  194SOL    HW1  598   0.615   1.878   0.940
  194SOL    HW2  599   0.760   1.802   0.946
  195SOL     OW  600   0.859   0.956   0.861
  195SOL    HW1  601   0.913   0.887   0.909
  195SOL    HW2  602   0.827   1.025   0.927
  196SOL     OW  603   1.083   0.984   0.087
  196SOL    HW1  604   1.060   1.037   0.005
  196SOL    HW2  605   1.164   0.928   0.068
  197SOL     OW  606   1.861   1.569   0.851
  197SOL    HW1  607   1.790   1.557   0.781
  197SOL    HW2  608   1.862   1.490   0.911
  198SOL     OW  609   0.221   1.314   1.844
  198SOL    HW1  610   0.156   1.241   1.823
  198SOL    HW2  611   0.225   1.328   1.942
  199SOL     OW  612   0.079   1.240   0.653
  199SOL    HW1  613   0.078   1.193   0.741
  199SOL    HW2  614   0.161   1.212   0.602
  200SOL     OW  615   0.672   1.391   1.624
  200SOL    HW1  616   0.594   1.341   1.662
  200SOL    HW2  617   0.669   1.486   1.655
  201SOL     OW  618   1.824   0.192   1.227
  201SOL    HW1  619   1.820   0.102   1.271
  201SOL    HW2  620   1.827   0.181   1.128
  202SOL     OW  621   0.428   0.424   0.520
  202SOL    HW1  622   0.458   0.352   0.458
  202SOL    HW2  623   0.389   0.384   0.603
  203SOL     OW  624   1.705   1.487   1.104
  203SOL    HW1  625   1.612   1.462   1.077
  203SOL    HW2  626   1.731   1.437   1.186
  204SOL     OW  627   0.317   0.547   1.280
  204SOL    HW1  628   0.355   0.488   1.352
  204SOL    HW2  629   0.357   0.521   1.192
  205SOL     OW  630   0.812   1.586   0.687
  205SOL    HW1  631   0.844   1.596   0.593
  205SOL    HW2  632   0.733   1.524   0.689
  206SOL     OW  633   1.424   0.214   1.112
  206SOL    HW1  634   1.476   0.149   1.167
  206SOL    HW2  635   1.375   0.277   1.173
  207SOL     OW  636   1.001   0.034   1.154
  207SOL    HW1  637   0.938  -0.038   1.123
  207SOL    HW2  638   1.094  -0.002   1.154
  208SOL     OW  639   0.770   1.330   0.301
  208SOL    HW1  640   0.724   1.243   0.318
  208SOL    HW2  641   0.861   1.327   0.342
  209SOL     OW  642   0.618   1.567   1.284
  209SOL    HW1  643   0.613   1.649   1.341
  209SOL    HW2  644   0.707   1.564   1.239
  210SOL     OW  645   1.352   0.052   0.168
  210SOL    HW1  646   1.387   0.011   0.084
  210SOL    HW2  647   1.262   0.014   0.188
  211SOL     OW  648   1.300   0.453   0.691
  211SOL    HW1  649   1.241   0.533   0.695
  211SOL    HW2  650   1.315   0.418   0.784
  212SOL     OW  651   1.593   0.221   0.882
  212SOL    HW1  652   1.509   0.220   0.936
  212SOL    HW2  653   1.595   0.304   0.826
  213SOL     OW  654   0.039   1.077   0.300
  213SOL    HW1  655   0.138   1.066   0.291
  213SOL    HW2  656  -0.001   0.991   0.332
  214SOL     OW  657   0.875   1.646   0.337
  214SOL    HW1  658   0.798   1.611   0.283
  214SOL    HW2  659   0.843   1.717   0.399
  215SOL     OW  660   0.230   0.628   1.975
  215SOL    HW1  661   0.137   0.626   2.012
  215SOL    HW2  662   0.231   0.589   1.883
  216SOL     OW  663   0.225   0.275   2.858
  216SOL    HW1  664   0.260   0.258   2.950
  216SOL    HW2  665   0.137   0.230   2.846
  217SOL     OW  666   0.019   0.368   2.509
  217SOL    HW1  667  -0.063   0.411   2.548
  217SOL    HW2  668  -0.009   0.295   2.446
  218SOL     OW  669   0.569   1.275   3.027
  218SOL    HW1  670   0.476   1.268   2.990
  218SOL    HW2  671   0.580   1.364   3.071
  219SOL     OW  672   1.555   1.511   2.565
  219SOL    HW1  673   1.498   1.495   2.646
  219SOL    HW2  674   1.496   1.521   2.485
  220SOL     OW  675   1.135   0.703   2.579
  220SOL    HW1  676   1.192   0.781   2.554
  220SOL    HW2  677   1.075   0.729   2.655
  221SOL     OW  678   1.755   0.607   2.093
  221SOL    HW1  679   1.743   0.594   1.994
  221SOL    HW2  680   1.725   0.526   2.142
  222SOL     OW  681   0.768   1.144   2.885
  222SOL    HW1  682   0.690   1.161   2.945
  222SOL    HW2  683   0.802   1.231   2.849
  223SOL     OW  684   0.850   0.798   3.685
  223SOL    HW1  685   0.846   0.874   3.750
  223SOL    HW2  686   0.872   0.834   3.594
  224SOL     OW  687   0.685   1.012   2.527
  224SOL    HW1  688   0.754   0.996   2.597
  224SOL    HW2  689   0.612   1.069   2.565
  225SOL     OW  690   0.686   1.161   3.665
  225SOL    HW1  691   0.746   1.240   3.679
  225SOL    HW2  692   0.600   1.192   3.624
  226SOL     OW  693   0.335   1.435   2.923
  226SOL    HW1  694   0.257   1.404   2.870
  226SOL    HW2  695   0.393   1.493   2.866
  227SOL     OW  696   1.460   1.505   3.201
  227SOL    HW1  697   1.484   1.599   3.227
  227SOL    HW2  698   1.444   1.451   3.283
  228SOL     OW  699   0.438   0.392   3.361
  228SOL    HW1  700   0.520   0.336   3.370
  228SOL    HW2  701   0.357   0.334   3.365
  229SOL     OW  702   1.603   0.447   2.599
  229SOL    HW1  703   1.529   0.493   2.549
  229SOL    HW2  704   1.654   0.515   2.652
  230SOL     OW  705   0.231   1.713   2.345
  230SOL    HW1  706   0.265   1.790   2.399
  230SOL    HW2  707   0.275   1.713   2.255
  231SOL     OW  708   1.127   1.341   3.552
  231SOL    HW1  709   1.174   1.341   3.640
  231SOL    HW2  710   1.079   1.254   3.541
  232SOL     OW  711   0.230   1.434   2.400
  232SOL    HW1  712   0.204   1.530   2.400
  232SOL    HW2  713   0.159   1.380   2.445
  233SOL     OW  714   0.240   1.091   2.748
  233SOL    HW1  715   0.254   1.007   2.800
  233SOL    HW2  716   0.185   1.155   2.803
  234SOL     OW  717   0.620   1.786   3.301
  234SOL    HW1  718   0.528   1.769   3.336
  234SOL    HW2  719   0.648   1.878   3.327
  235SOL     OW  720   0.606   0.964   1.985
  235SOL    HW1  721   0.613   1.048   1.931
  235SOL    HW2  722   0.652   0.977   2.073
  236SOL     OW  723   1.594   0.114   3.342
  236SOL    HW1  724   1.576   0.181   3.270
  236SOL    HW2  725   1.591   0.160   3.431
  237SOL     OW  726   0.122   0.643   2.425
  237SOL    HW1  727   0.077   0.555   2.442
  237SOL    HW2  728   0.121   0.697   2.509
  238SOL     OW  729   1.842   1.767   2.221
  238SOL    HW1  730   1.896   1.738   2.301
  238SOL    HW2  731   1.872   1.857   2.192
  239SOL     OW  732   0.027   1.596   1.979
  239SOL    HW1  733   0.008   1.500   2.000
  239SOL    HW2  734  -0.006   1.654   2.054
  240SOL     OW  735   1.689   0.922   2.474
  240SOL    HW1  736   1.784   0.893   2.482
  240SOL    HW2  737   1.681   0.987   2.399
  241SOL     OW  738   1.641   1.108   2.294
  241SOL    HW1  739   1.727   1.110   2.242
  241SOL    HW2  740   1.655   1.155   2.382
  242SOL     OW  741   0.113   0.737   3.459
  242SOL    HW1  742   0.201   0.724   3.504
  242SOL    HW2  743   0.100   0.834   3.437
  243SOL     OW  744   0.613   1.365   2.588
  243SOL    HW1  745   0.564   1.278   2.597
  243SOL    HW2  746   0.590   1.408   2.501
  244SOL     OW  747   1.293   1.228   3.285
  244SOL    HW1  748   1.330   1.155   3.227
  244SOL    HW2  749   1.345   1.233   3.370
  245SOL     OW  750   0.809   0.004   2.364
  245SOL    HW1  751   0.849   0.095   2.355
  245SOL    HW2  752   0.709   0.012   2.370
  246SOL     OW  753   0.197   0.976   3.126
  246SOL    HW1  754   0.286   0.931   3.112
  246SOL    HW2  755   0.124   0.911   3.107
  247SOL     OW  756   1.525   0.999   2.052
  247SOL    HW1  757   1.462   0.923   2.065
  247SOL    HW2  758   1.573   1.017   2.138
  248SOL     OW  759   1.187   1.792   3.478
  248SOL    HW1  760   1.211   1.852   3.402
  248SOL    HW2  761   1.194   1.697   3.448
  249SOL     OW  762   0.317   0.251   3.663
  249SOL    HW1  763   0.388   0.322   3.669
  249SOL    HW2  764   0.229   0.290   3.691
  250SOL     OW  765   1.466   1.417   2.815
  250SOL    HW1  766   1.407   1.423   2.895
  250SOL    HW2  767   1.451   1.329   2.769
  251SOL     OW  768   1.667   1.714   2.434
  251SOL    HW1  769   1.626   1.691   2.346
  251SOL    HW2  770   1.649   1.640   2.499
  252SOL     OW  771   0.598   0.729   2.132
  252SOL    HW1  772   0.622   0.798   2.064
  252SOL    HW2  773   0.520   0.762   2.186
  253SOL     OW  774   1.281   0.345   2.806
  253SOL    HW1  775   1.195   0.295   2.793
  253SOL    HW2  776   1.343   0.291   2.862
  254SOL     OW  777   1.576   1.662   2.169
  254SOL    HW1  778   1.665   1.708   2.172
  254SOL    HW2  779   1.555   1.638   2.074
  255SOL     OW  780   0.807   0.605   3.327
  255SOL    HW1  781   0.760   0.602   3.416
  255SOL    HW2  782   0.756   0.550   3.261
  256SOL     OW  783   1.394   0.469   3.536
  256SOL    HW1  784   1.374   0.512   3.624
  256SOL    HW2  785   1.472   0.407   3.545
  257SOL     OW  786   0.973   0.890   3.434
  257SOL    HW1  787   1.019   0.806   3.405
  257SOL    HW2  788   0.917   0.924   3.359
  258SOL     OW  789   0.991   0.410   3.104
  258SOL    HW1  790   0.914   0.444   3.158
  258SOL    HW2  791   0.957   0.359   3.025
  259SOL     OW  792   1.041   0.701   2.291
  259SOL    HW1  793   1.067   0.697   2.387
  259SOL    HW2  794   0.956   0.650   2.277
  260SOL     OW  795   0.076   0.811   2.651
  260SOL    HW1  796   0.175   0.799   2.660
  260SOL    HW2  797   0.052   0.906   2.672
  261SOL     OW  798   0.130   1.821   3.433
  261SOL    HW1  799   0.120   1.806   3.532
  261SOL    HW2  800   0.044   1.857   3.397
  262SOL     OW  801   0.865   0.348   2.057
  262SOL    HW1  802   0.924   0.411   2.008
  262SOL    HW2  803   0.884   0.254   2.028
  263SOL     OW  804   1.719   0.585   3.693
  263SOL    HW1  805   1.693   0.674   3.657
  263SOL    HW2  806   1.717   0.517   3.620
  264SOL     OW  807   1.362   1.144   2.407
  264SOL    HW1  808   1.445   1.115   2.359
  264SOL    HW2  809   1.313   1.211   2.351
  265SOL     OW  810   0.550   0.196   2.747
  265SOL    HW1  811   0.545   0.191   2.847
  265SOL    HW2  812   0.552   0.292   2.718
  266SOL     OW  813   1.008   1.456   2.339
  266SOL    HW1  814   0.962   1.528   2.287
  266SOL    HW2  815   1.004   1.476   2.437
  267SOL     OW  816   0.351   1.801   2.715
  267SOL    HW1  817   0.401   1.715   2.721
  267SOL    HW2  818   0.416   1.878   2.712
  268SOL     OW  819   1.795   1.066   2.735
  268SOL    HW1  820   1.733   1.051   2.659
  268SOL    HW2  821   1.743   1.077   2.820
  269SOL     OW  822   1.227   1.550   3.368
  269SOL    HW1  823   1.233   1.473   3.432
  269SOL    HW2  824   1.175   1.524   3.288
  270SOL     OW  825   0.321   0.943   2.104
  270SOL    HW1  826   0.403   0.982   2.062
  270SOL    HW2  827   0.294   0.861   2.055
  271SOL     OW  828   1.458   0.735   2.590
  271SOL    HW1  829   1.453   0.670   2.665
  271SOL    HW2  830   1.538   0.794   2.603
  272SOL     OW  831   0.461   1.266   3.589
  272SOL    HW1  832   0.411   1.267   3.503
  272SOL    HW2  833   0.398   1.248   3.665
  273SOL     OW  834   1.111   1.776   2.099
  273SOL    HW1  835   1.051   1.714   2.149
  273SOL    HW2  836   1.142   1.732   2.014
  274SOL     OW  837   0.202   0.285   3.360
  274SOL    HW1  838   0.122   0.345   3.347
  274SOL    HW2  839   0.192   0.236   3.446
  275SOL     OW  840   1.632   1.377   1.943
  275SOL    HW1  841   1.600   1.471   1.933
  275SOL    HW2  842   1.556   1.314   1.931
  276SOL     OW  843   0.464   1.743   2.185
  276SOL    HW1  844   0.497   1.782   2.271
  276SOL    HW2  845   0.540   1.736   2.120
  277SOL     OW  846   1.400   0.107   2.288
  277SOL    HW1  847   1.376   0.070   2.198
  277SOL    HW2  848   1.499   0.123   2.292
  278SOL     OW  849   0.249   1.785   3.103
  278SOL    HW1  850   0.306   1.720   3.153
  278SOL    HW2  851   0.233   1.752   3.010
  279SOL     OW  852   0.940   1.698   2.766
  279SOL    HW1  853   1.020   1.641   2.787
  279SOL    HW2  854   0.891   1.658   2.689
  280SOL     OW  855   0.382   0.700   2.342
  280SOL    HW1  856   0.427   0.610   2.339
  280SOL    HW2  857   0.288   0.689   2.375
  281SOL     OW  858   1.547   0.222   3.591
  281SOL    HW1  859   1.542   0.259   3.683
  281SOL    HW2  860   1.475   0.153   3.579
  282SOL     OW  861   0.614   0.122   1.979
  282SOL    HW1  862   0.712   0.100   1.986
  282SOL    HW2  863   0.583   0.105   1.886
  283SOL     OW  864   0.781   0.264   3.611
  283SOL    HW1  865   0.848   0.203   3.654
  283SOL    HW2  866   0.708   0.283   3.676
  284SOL     OW  867   0.888   1.514   3.057
  284SOL    HW1  868   0.865   1.489   2.963
  284SOL    HW2  869   0.949   1.445   3.096
  285SOL     OW  870   1.351   0.590   3.295
  285SOL    HW1  871   1.379   0.547   3.380
  285SOL    HW2  872   1.376   0.686   3.296
  286SOL     OW  873   0.803   1.402   2.786
  286SOL    HW1  874   0.893   1.416   2.744
  286SOL    HW2  875   0.732   1.404   2.715
  287SOL     OW  876   0.922   0.503   2.761
  287SOL    HW1  877   0.897   0.494   2.665
  287SOL    HW2  878   0.970   0.421   2.792
  288SOL     OW  879   0.539   0.064   2.374
  288SOL    HW1  880   0.458   0.065   2.432
  288SOL    HW2  881   0.542   0.147   2.319
  289SOL     OW  882   1.434   1.188   1.903
  289SOL    HW1  883   1.466   1.112   1.960
  289SOL    HW2  884   1.342   1.215   1.933
  290SOL     OW  885   0.297   0.035   2.033
  290SOL    HW1  886   0.346   0.119   2.012
  290SOL    HW2  887   0.359  -0.030   2.078
  291SOL     OW  888   0.935   0.236   2.342
  291SOL    HW1  889   0.887   0.277   2.264
  291SOL    HW2  890   1.034   0.234   2.323
  292SOL     OW  891   1.076   0.683   3.326
  292SOL    HW1  892   0.996   0.622   3.329
  292SOL    HW2  893   1.157   0.630   3.302
  293SOL     OW  894   1.227   1.570   2.655
  293SOL    HW1  895   1.248   1.644   2.590
  293SOL    HW2  896   1.295   1.570   2.728
  294SOL     OW  897   0.459   1.152   2.603
  294SOL    HW1  898   0.388   1.125   2.668
  294SOL    HW2  899   0.433   1.124   2.510
  295SOL     OW  900   1.271   1.797   2.453
  295SOL    HW1  901   1.315   1.861   2.389
  295SOL    HW2  902   1.221   1.849   2.523
  296SOL     OW  903   1.032   0.549   1.878
  296SOL    HW1  904   0.991   0.631   1.839
  296SOL    HW2  905   1.096   0.575   1.951
  297SOL     OW  906   0.078   0.556   3.248
  297SOL    HW1  907   0.170   0.555   3.207
  297SOL    HW2  908   0.072   0.630   3.315
  298SOL     OW  909   0.561   0.222   3.009
  298SOL    HW1  910   0.599   0.138   3.046
  298SOL    HW2  911   0.473   0.241   3.053
  299SOL     OW  912   0.866   0.454   2.504
  299SOL    HW1  913   0.834   0.526   2.442
  299SOL    HW2  914   0.890   0.373   2.451
  300SOL     OW  915   1.017   0.039   2.615
  300SOL    HW1  916   0.945   0.044   2.546
  300SOL    HW2  917   0.993  -0.030   2.684
  301SOL     OW  918   1.429   1.173   2.729
  301SOL    HW1  919   1.374   1.089   2.722
  301SOL    HW2  920   1.455   1.202   2.637
  302SOL     OW  921   1.466   0.590   2.854
  302SOL    HW1  922   1.436   0.495   2.861
  302SOL    HW2  923   1.539   0.606   2.920
  303SOL     OW  924   1.857   0.833   2.239
  303SOL    HW1  925   1.899   0.769   2.303
  303SOL    HW2  926   1.819   0.782   2.161
  304SOL     OW  927   0.488   1.385   2.036
  304SOL    HW1  928   0.401   1.370   2.083
  304SOL    HW2  929   0.471   1.411   1.941
  305SOL     OW  930   1.664   1.280   2.519
  305SOL    HW1  931   1.763   1.288   2.533
  305SOL    HW2  932   1.619   1.364   2.550
  306SOL     OW  933   1.390   0.575   1.940
  306SOL    HW1  934   1.336   0.554   2.021
  306SOL    HW2  935   1.481   0.534   1.949
  307SOL     OW  936   0.527   0.256   2.190
  307SOL    HW1  937   0.554   0.197   2.115
  307SOL    HW2  938   0.527   0.351   2.159
  308SOL     OW  939   1.754   1.223   3.450
  308SOL    HW1  940   1.845   1.184   3.437
  308SOL    HW2  941   1.762   1.319   3.474
  309SOL     OW  942   1.064   1.347   3.202
  309SOL    HW1  943   0.984   1.324   3.257
  309SOL    HW2  944   1.147   1.321   3.251
  310SOL     OW  945   1.592   1.629   3.487
  310SOL    HW1  946   1.619   1.663   3.397
  310SOL    HW2  947   1.671   1.591   3.533
  311SOL     OW  948   1.111   1.195   2.962
  311SOL    HW1  949   1.071   1.239   3.043
  311SOL    HW2  950   1.070   1.232   2.879
  312SOL     OW  951   1.638   1.099   2.941
  312SOL    HW1  952   1.643   1.180   3.000
  312SOL    HW2  953   1.552   1.101   2.890
  313SOL     OW  954   0.915   0.089   3.264
  313SOL    HW1  955   0.940   0.069   3.169
  313SOL    HW2  956   0.987   0.145   3.306
  314SOL     OW  957   0.980   1.116   3.581
  314SOL    HW1  958   0.881   1.122   3.591
  314SOL    HW2  959   1.003   1.036   3.525
  315SOL     OW  960   0.705   1.050   2.230
  315SOL    HW1  961   0.691   1.057   2.329
  315SOL    HW2  962   0.789   0.999   2.212
  316SOL     OW  963   0.410   0.813   3.113
  316SOL    HW1  964   0.496   0.825   3.163
  316SOL    HW2  965   0.368   0.726   3.140
  317SOL     OW  966   1.274   0.386   3.124
  317SOL    HW1  967   1.295   0.460   3.188
  317SOL    HW2  968   1.185   0.403   3.081
  318SOL     OW  969   0.064   1.564   3.193
  318SOL    HW1  970   0.018   1.646   3.159
  318SOL    HW2  971   0.162   1.583   3.202
  319SOL     OW  972   0.367   1.100   2.363
  319SOL    HW1  973   0.360   1.183   2.307
  319SOL    HW2  974   0.371   1.020   2.303
  320SOL     OW  975   0.566   0.537   2.727
  320SOL    HW1  976   0.578   0.603   2.653
  320SOL    HW2  977   0.612   0.571   2.810
  321SOL     OW  978   1.252   1.348   2.250
  321SOL    HW1  979   1.302   1.425   2.290
  321SOL    HW2  980   1.157   1.350   2.282
  322SOL     OW  981   1.272   1.445   3.004
  322SOL    HW1  982   1.319   1.458   3.091
  322SOL    HW2  983   1.206   1.371   3.013
  323SOL     OW  984   1.582   0.639   2.334
  323SOL    HW1  985   1.551   0.700   2.407
  323SOL    HW2  986   1.632   0.691   2.265
  324SOL     OW  987   0.354   1.510   3.191
  324SOL    HW1  988   0.333   1.466   3.104
  324SOL    HW2  989   0.451   1.536   3.194
  325SOL     OW  990   0.402   0.751   3.460
  325SOL    HW1  991   0.470   0.806   3.413
  325SOL    HW2  992   0.442   0.663   3.487
  326SOL     OW  993   1.587   0.779   3.532
  326SOL    HW1  994   1.495   0.817   3.527
  326SOL    HW2  995   1.647   0.826   3.467
  327SOL     OW  996   1.013   0.105   3.632
  327SOL    HW1  997   1.019   0.190   3.580
  327SOL    HW2  998   1.045   0.029   3.575
  328SOL     OW  999   0.504   0.050   3.602
  328SOL    HW1 1000   0.462  -0.007   3.532
  328SOL    HW2 1001   0.438   0.119   3.634
  329SOL     OW 1002   0.573   0.870   2.891
  329SOL    HW1 1003   0.617   0.959   2.882
  329SOL    HW2 1004   0.510   0.870   2.968
  330SOL     OW 1005   1.360   0.862   2.907
  330SOL    HW1 1006   1.285   0.862   2.841
  330SOL    HW2 1007   1.397   0.770   2.916
  331SOL     OW 1008   1.209   0.525   2.137
  331SOL    HW1 1009   1.222   0.441   2.191
  331SOL    HW2 1010   1.180   0.599   2.197
  332SOL     OW 1011   0.307   0.213   3.093
  332SOL    HW1 1012   0.284   0.250   3.183
  332SOL    HW2 1013   0.277   0.118   3.087
  333SOL     OW 1014   0.037   1.310   3.144
  333SOL    HW1 1015   0.090   1.261   3.212
  333SOL    HW2 1016   0.059   1.408   3.149
  334SOL     OW 1017   0.732   0.634   2.926
  334SOL    HW1 1018   0.791   0.608   2.850
  334SOL    HW2 1019   0.704   0.730   2.915
  335SOL     OW 1020   1.728   0.935   3.716
  335SOL    HW1 1021   1.682   0.928   3.627
  335SOL    HW2 1022   1.666   0.979   3.782
  336SOL     OW 1023   0.307   0.063   2.480
  336SOL    HW1 1024   0.296   0.157   2.513
  336SOL    HW2 1025   0.302   0.000   2.557
  337SOL     OW 1026   1.622   0.367   2.236
  337SOL    HW1 1027   1.624   0.291   2.300
  337SOL    HW2 1028   1.574   0.444   2.276
  338SOL     OW 1029   1.023   0.766   2.828
  338SOL    HW1 1030   1.038   0.787   2.924
  338SOL    HW2 1031   0.993   0.671   2.819
  339SOL     OW 1032   0.980   1.573   3.562
  339SOL    HW1 1033   0.960   1.617   3.474
  339SOL    HW2 1034   1.019   1.482   3.546
  340SOL     OW 1035   1.859   1.518   3.467
  340SOL    HW1 1036   1.873   1.545   3.372
  340SOL    HW2 1037   1.942   1.540   3.520
  341SOL     OW 1038   0.350   0.898   3.666
  341SOL    HW1 1039   0.426   0.942   3.714
  341SOL    HW2 1040   0.385   0.851   3.584
  342SOL     OW 1041   1.540   0.274   1.987
  342SOL    HW1 1042   1.479   0.199   2.010
  342SOL    HW2 1043   1.562   0.326   2.070
  343SOL     OW 1044   1.303   0.838   1.904
  343SOL    HW1 1045   1.337   0.745   1.919
  343SOL    HW2 1046   1.321   0.865   1.809
  344SOL     OW 1047   1.068   1.333   2.711
  344SOL    HW1 1048   1.075   1.249   2.656
  344SOL    HW2 1049   1.130   1.402   2.675
  345SOL     OW 1050   0.319   0.810   2.811
  345SOL    HW1 1051   0.412   0.846   2.816
  345SOL    HW2 1052   0.313   0.725   2.863
  346SOL     OW 1053   0.339   0.509   2.868
  346SOL    HW1 1054   0.287   0.426   2.851
  346SOL    HW2 1055   0.416   0.514   2.804
  347SOL     OW 1056   1.138   0.380   3.540
  347SOL    HW1 1057   1.093   0.443   3.604
  347SOL    HW2 1058   1.231   0.411   3.523
  348SOL     OW 1059   1.160   0.207   3.339
  348SOL    HW1 1060   1.160   0.271   3.416
  348SOL    HW2 1061   1.188   0.255   3.256
  349SOL     OW 1062   0.008   1.326   2.062
  349SOL    HW1 1063  -0.085   1.347   2.031
  349SOL    HW2 1064   0.018   1.227   2.075
  350SOL     OW 1065   0.088   1.801   2.789
  350SOL    HW1 1066   0.046   1.715   2.762
  350SOL    HW2 1067   0.182   1.804   2.755
  351SOL     OW 1068   0.504   1.568   2.772
  351SOL    HW1 1069   0.570   1.642   2.781
  351SOL    HW2 1070   0.548   1.489   2.730
  352SOL     OW 1071   1.002   0.796   3.100
  352SOL    HW1 1072   1.043   0.764   3.186
  352SOL    HW2 1073   0.906   0.769   3.097
  353SOL     OW 1074   0.040   0.544   2.976
  353SOL    HW1 1075   0.125   0.511   2.935
  353SOL    HW2 1076   0.053   0.559   3.074
  354SOL     OW 1077   0.189   0.520   3.584
  354SOL    HW1 1078   0.248   0.480   3.514
  354SOL    HW2 1079   0.131   0.591   3.543
  355SOL     OW 1080   1.369   0.950   3.522
  355SOL    HW1 1081   1.408   1.039   3.542
  355SOL    HW2 1082   1.379   0.930   3.425
  356SOL     OW 1083   0.815   0.572   2.187
  356SOL    HW1 1084   0.822   0.483   2.141
  356SOL    HW2 1085   0.721   0.606   2.179
  357SOL     OW 1086   1.657   0.604   3.068
  357SOL    HW1 1087   1.619   0.535   3.130
  357SOL    HW2 1088   1.739   0.568   3.024
  358SOL     OW 1089   0.252   1.564   3.606
  358SOL    HW1 1090   0.222   1.621   3.682
  358SOL    HW2 1091   0.245   1.467   3.632
  359SOL     OW 1092   0.671   0.464   3.131
  359SOL    HW1 1093   0.637   0.375   3.101
  359SOL    HW2 1094   0.697   0.518   3.051
  360SOL     OW 1095   0.930   1.678   3.327
  360SOL    HW1 1096   0.906   1.660   3.232
  360SOL    HW2 1097   0.960   1.772   3.337
  361SOL     OW 1098   0.473   0.500   2.053
  361SOL    HW1 1099   0.534   0.580   2.057
  361SOL    HW2 1100   0.378   0.531   2.060
  362SOL     OW 1101   0.159   1.137   3.328
  362SOL    HW1 1102   0.181   1.076   3.404
  362SOL    HW2 1103   0.169   1.088   3.242
  363SOL     OW 1104   1.347   1.059   3.096
  363SOL    HW1 1105   1.371   0.996   3.022
  363SOL    HW2 1106   1.257   1.099   3.078
  364SOL     OW 1107   1.302   0.855   2.171
  364SOL    HW1 1108   1.216   0.824   2.213
  364SOL    HW2 1109   1.298   0.841   2.072
  365SOL     OW 1110   1.759   1.747   3.016
  365SOL    HW1 1111   1.820   1.777   2.943
  365SOL    HW2 1112   1.721   1.658   2.994
  366SOL     OW 1113   1.252   1.731   2.990
  366SOL    HW1 1114   1.336   1.736   2.936
  366SOL    HW2 1115   1.229   1.635   3.008
  367SOL     OW 1116   0.083   1.258   2.884
  367SOL    HW1 1117   0.078   1.257   2.984
  367SOL    HW2 1118   0.000   1.217   2.846
  368SOL     OW 1119   0.688   1.662   3.578
  368SOL    HW1 1120   0.632   1.743   3.587
  368SOL    HW2 1121   0.740   1.666   3.492
  369SOL     OW 1122   1.726   0.135   2.385
  369SOL    HW1 1123   1.799   0.118   2.318
  369SOL    HW2 1124   1.695   0.048   2.423
  370SOL     OW 1125   1.388   1.573   2.339
  370SOL    HW1 1126   1.455   1.585   2.265
  370SOL    HW2 1127   1.348   1.662   2.362
  371SOL     OW 1128   0.130   1.794   3.713
  371SOL    HW1 1129   0.089   1.720   3.766
  371SOL    HW2 1130   0.194   1.845   3.771
  372SOL     OW 1131   1.280   0.927   2.534
  372SOL    HW1 1132   1.340   0.846   2.536
  372SOL    HW2 1133   1.320   0.996   2.474
  373SOL     OW 1134   0.830   1.273   3.284
  373SOL    HW1 1135   0.825   1.306   3.379
  373SOL    HW2 1136   0.744   1.292   3.238
  374SOL     OW 1137   0.672   1.616   2.016
  374SOL    HW1 1138   0.681   1.626   1.917
  374SOL    HW2 1139   0.632   1.527   2.037
  375SOL     OW 1140   1.650   1.720   3.256
  375SOL    HW1 1141   1.703   1.730   3.172
  375SOL    HW2 1142   1.623   1.810   3.290
  376SOL     OW 1143   1.841   0.175   2.825
  376SOL    HW1 1144   1.880   0.090   2.789
  376SOL    HW2 1145   1.743   0.177   2.806
  377SOL     OW 1146   0.263   0.326   2.582
  377SOL    HW1 1147   0.184   0.377   2.548
  377SOL    HW2 1148   0.254   0.311   2.680
  378SOL     OW 1149   1.194   1.612   1.893
  378SOL    HW1 1150   1.200   1.519   1.930
  378SOL    HW2 1151   1.135   1.612   1.813
  379SOL     OW 1152   0.822   1.002   3.234
  379SOL    HW1 1153   0.862   1.001   3.142
  379SOL    HW2 1154   0.832   1.094   3.274
  380SOL     OW 1155   0.916   0.910   2.153
  380SOL    HW1 1156   0.979   0.948   2.085
  380SOL    HW2 1157   0.956   0.827   2.192
  381SOL     OW 1158   1.504   1.607   1.906
  381SOL    HW1 1159   1.412   1.644   1.913
  381SOL    HW2 1160   1.542   1.627   1.816
  382SOL     OW 1161   0.372   1.288   3.352
  382SOL    HW1 1162   0.359   1.381   3.318
  382SOL    HW2 1163   0.288   1.236   3.339
  383SOL     OW 1164   1.614   1.292   3.151
  383SOL    HW1 1165   1.674   1.295   3.231
  383SOL    HW2 1166   1.539   1.356   3.164
  384SOL     OW 1167   1.039   1.098   2.558
  384SOL    HW1 1168   0.969   1.051   2.612
  384SOL    HW2 1169   1.098   1.030   2.515
  385SOL     OW 1170   1.014   0.236   2.833
  385SOL    HW1 1171   1.006   0.200   2.740
  385SOL    HW2 1172   1.012   0.160   2.898
  386SOL     OW 1173   0.590   1.487   2.353
  386SOL    HW1 1174   0.632   1.429   2.283
  386SOL    HW2 1175   0.546   1.566   2.309
  387SOL     OW 1176   1.709   0.385   3.243
  387SOL    HW1 1177   1.782   0.454   3.247
  387SOL    HW2 1178   1.737   0.310   3.184
  388SOL     OW 1179   0.255   1.348   2.152
  388SOL    HW1 1180   0.159   1.349   2.125
  388SOL    HW2 1181   0.267   1.401   2.236
  389SOL     OW 1182   0.105   1.013   3.588
  389SOL    HW1 1183   0.028   0.980   3.642
  389SOL    HW2 1184   0.190   0.983   3.630
  390SOL     OW 1185   0.672   0.203   3.351
  390SOL    HW1 1186   0.762   0.187   3.311
  390SOL    HW2 1187   0.680   0.208   3.450
  391SOL     OW 1188   0.075   0.345   1.895
  391SOL    HW1 1189  -0.017   0.317   1.866
  391SOL    HW2 1190   0.106   0.422   1.839
  392SOL     OW 1191   1.440   0.856   3.260
  392SOL    HW1 1192   1.383   0.908   3.197
  392SOL    HW2 1193   1.536   0.868   3.236
  393SOL     OW 1194   0.072   0.166   2.180
  393SOL    HW1 1195   0.055   0.249   2.126
  393SOL    HW2 1196   0.162   0.129   2.158
  394SOL     OW 1197   1.183   1.335   1.981
  394SOL    HW1 1198   1.084   1.324   1.983
  394SOL    HW2 1199   1.217   1.350   2.074
  395SOL     OW 1200   0.613   0.842   3.293
  395SOL    HW1 1201   0.669   0.923   3.276
  395SOL    HW2 1202   0.672   0.762   3.296
  396SOL     OW 1203   1.493   1.767   2.821
  396SOL    HW1 1204   1.526   1.831   2.752
  396SOL    HW2 1205   1.559   1.761   2.896
  397SOL     OW 1206   0.716   0.565   3.570
  397SOL    HW1 1207   0.735   0.630   3.644
  397SOL    HW2 1208   0.776   0.485   3.579
  398SOL     OW 1209   1.450   1.220   3.495
  398SOL    HW1 1210   1.441   1.210   3.594
  398SOL    HW2 1211   1.546   1.213   3.469
  399SOL     OW 1212   0.390   1.741   3.422
  399SOL    HW1 1213   0.299   1.782   3.420
  399SOL    HW2 1214   0.383   1.647   3.454
  400SOL     OW 1215   1.674   0.883   3.116
  400SOL    HW1 1216   1.647   0.794   3.079
  400SOL    HW2 1217   1.675   0.951   3.043
  401SOL     OW 1218   1.225   0.325   2.311
  401SOL    HW1 1219   1.290   0.251   2.300
  401SOL    HW2 1220   1.245   0.375   2.395
  402SOL     OW 1221   0.594   0.745   2.514
  402SOL    HW1 1222   0.644   0.830   2.495
  402SOL    HW2 1223   0.506   0.747   2.466
  403SOL     OW 1224   1.777   0.342   3.504
  403SOL    HW1 1225   1.760   0.373   3.410
  403SOL    HW2 1226   1.693   0.305   3.542
  404SOL     OW 1227   1.730   0.934   3.379
  404SOL    HW1 1228   1.768   1.025   3.394
  404SOL    HW2 1229   1.722   0.917   3.280
  405SOL     OW 1230   0.859   1.374   1.878
  405SOL    HW1 1231   0.813   1.389   1.966
  405SOL    HW2 1232   0.903   1.459   1.848
  406SOL     OW 1233   0.661   1.790   2.815
  406SOL    HW1 1234   0.615   1.878   2.802
  406SOL    HW2 1235   0.760   1.802   2.808
  407SOL     OW 1236   0.859   0.956   2.723
  407SOL    HW1 1237   0.913   0.887   2.771
  407SOL    HW2 1238   0.827   1.025   2.789
  408SOL     OW 1239   1.083   0.984   1.949
  408SOL    HW1 1240   1.060   1.037   1.867
  408SOL    HW2 1241   1.164   0.928   1.930
  409SOL     OW 1242   1.861   1.569   2.713
  409SOL    HW1 1243   1.790   1.557   2.643
  409SOL    HW2 1244   1.862   1.490   2.773
  410SOL     OW 1245   0.221   1.314   3.706
  410SOL    HW1 1246   0.156   1.241   3.685
  410SOL    HW2 1247   0.225   1.328   3.804
  411SOL     OW 1248   0.079   1.240   2.515
  411SOL    HW1 1249   0.078   1.193   2.603
  411SOL    HW2 1250   0.161   1.212   2.464
  412SOL     OW 1251   0.672   1.391   3.486
  412SOL    HW1 1252   0.594   1.341   3.524
  412SOL    HW2 1253   0.669   1.486   3.517
  413SOL     OW 1254   1.824   0.192   3.089
  413SOL    HW1 1255   1.820   0.102   3.133
  413SOL    HW2 1256   1.827   0.181   2.990
  414SOL     OW 1257   0.428   0.424   2.382
  414SOL    HW1 1258   0.458   0.352   2.320
  414SOL    HW2 1259   0.389   0.384   2.465
  415SOL     OW 1260   1.705   1.487   2.966
  415SOL    HW1 1261   1.612   1.462   2.939
  415SOL    HW2 1262   1.731   1.437   3.048
  416SOL     OW 1263   0.317   0.547   3.142
  416SOL    HW1 1264   0.355   0.488   3.214
  416SOL    HW2 1265   0.357   0.521   3.054
  417SOL     OW 1266   0.812   1.586   2.549
  417SOL    HW1 1267   0.844   1.596   2.455
  417SOL    HW2 1268   0.733   1.524   2.551
  418SOL     OW 1269   1.424   0.214   2.974
  418SOL    HW1 1270   1.476   0.149   3.029
  418SOL    HW2 1271   1.375   0.277   3.035
  419SOL     OW 1272   1.001   0.034   3.016
  419SOL    HW1 1273   0.938  -0.038   2.985
  419SOL    HW2 1274   1.094  -0.002   3.016
  420SOL     OW 1275   0.770   1.330   2.163
  420SOL    HW1 1276   0.724   1.243   2.180
  420SOL    HW2 1277   0.861   1.327   2.204
  421SOL     OW 1278   0.618   1.567   3.146
  421SOL    HW1 1279   0.613   1.649   3.203
  421SOL    HW2 1280   0.707   1.564   3.101
  422SOL     OW 1281   1.352   0.052   2.030
  422SOL    HW1 1282   1.387   0.011   1.946
  422SOL    HW2 1283   1.262   0.014   2.050
  423SOL     OW 1284   1.300   0.453   2.553
  423SOL    HW1 1285   1.241   0.533   2.557
  423SOL    HW2 1286   1.315   0.418   2.646
  424SOL     OW 1287   1.593   0.221   2.744
  424SOL    HW1 1288   1.509   0.220   2.798
  424SOL    HW2 1289   1.595   0.304   2.688
  425SOL     OW 1290   0.039   1.077   2.162
  425SOL    HW1 1291   0.138   1.066   2.153
  425SOL    HW2 1292  -0.001   0.991   2.194
  426SOL     OW 1293   0.875   1.646   2.199
  426SOL    HW1 1294   0.798   1.611   2.145
  426SOL    HW2 1295   0.843   1.717   2.261
  427SOL     OW 1296   0.230   0.628   3.837
  427SOL    HW1 1297   0.137   0.626   3.874
  427SOL    HW2 1298   0.231   0.589   3.745
  428SOL     OW 1299   0.225   0.275   4.720
  428SOL    HW1 1300   0.260   0.258   4.812
  428SOL    HW2 1301   0.137   0.230   4.708
  429SOL     OW 1302   0.019   0.368   4.371
  429SOL    HW1 1303  -0.063   0.411   4.410
  429SOL    HW2 1304  -0.009   0.295   4.308
  430SOL     OW 1305   1.555   1.511   4.427
  430SOL    HW1 1306   1.498   1.495   4.508
  430SOL    HW2 1307   1.496   1.521   4.347
  431SOL     OW 1308   1.135   0.703   4.441
  431SOL    HW1 1309   1.192   0.781   4.416
  431SOL    HW2 1310   1.075   0.729   4.517
  432SOL     OW 1311   1.755   0.607   3.955
  432SOL    HW1 1312   1.743   0.594   3.856
  432SOL    HW2 1313   1.725   0.526   4.004
  433SOL     OW 1314   0.768   1.144   4.747
  433SOL    HW1 1315   0.690   1.161   4.807
  433SOL    HW2 1316   0.802   1.231   4.711
  434SOL     OW 1317   0.685   1.012   4.389
  434SOL    HW1 1318   0.754   0.996   4.459
  434SOL    HW2 1319   0.612   1.069   4.427
  435SOL     OW 1320   0.335   1.435   4.785
  435SOL    HW1 1321   0.257   1.404   4.732
  435SOL    HW2 1322   0.393   1.493   4.728
  436SOL     OW 1323   1.603   0.447   4.461
  436SOL    HW1 1324   1.529   0.493   4.411
  436SOL    HW2 1325   1.654   0.515   4.514
  437SOL     OW 1326   0.231   1.713   4.207
  437SOL    HW1 1327   0.265   1.790   4.261
  437SOL    HW2 1328   0.275   1.713   4.117
  438SOL     OW 1329   0.230   1.434   4.262
  438SOL    HW1 1330   0.204   1.530   4.262
  438SOL    HW2 1331   0.159   1.380   4.307
  439SOL     OW 1332   0.240   1.091   4.610
  439SOL    HW1 1333   0.254   1.007   4.662
  439SOL    HW2 1334   0.185   1.155   4.665
  440SOL     OW 1335   0.606   0.964   3.847
  440SOL    HW1 1336   0.613   1.048   3.793
  440SOL    HW2 1337   0.652   0.977   3.935
  441SOL     OW 1338   0.122   0.643   4.287
  441SOL    HW1 1339   0.077   0.555   4.304
  441SOL    HW2 1340   0.121   0.697   4.371
  442SOL     OW 1341   1.842   1.767   4.083
  442SOL    HW1 1342   1.896   1.738   4.163
  442SOL    HW2 1343   1.872   1.857   4.054
  443SOL     OW 1344   0.027   1.596   3.841
  443SOL    HW1 1345   0.008   1.500   3.862
  443SOL    HW2 1346  -0.006   1.654   3.916
  444SOL     OW 1347   1.689   0.922   4.336
  444SOL    HW1 1348   1.784   0.893   4.344
  444SOL    HW2 1349   1.681   0.987   4.261
  445SOL     OW 1350   1.641   1.108   4.156
  445SOL    HW1 1351   1.727   1.110   4.104
  445SOL    HW2 1352   1.655   1.155   4.244
  446SOL     OW 1353   0.613   1.365   4.450
  446SOL    HW1 1354   0.564   1.278   4.459
  446SOL    HW2 1355   0.590   1.408   4.363
  447SOL     OW 1356   0.809   0.004   4.226
  447SOL    HW1 1357   0.849   0.095   4.217
  447SOL    HW2 1358   0.709   0.012   4.232
  448SOL     OW 1359   0.197   0.976   4.988
  448SOL    HW1 1360   0.286   0.931   4.974
  448SOL    HW2 1361   0.124   0.911   4.969
  449SOL     OW 1362   1.525   0.999   3.914
  449SOL    HW1 1363   1.462   0.923   3.927
  449SOL    HW2 1364   1.573   1.017   4.000
  450SOL     OW 1365   1.466   1.417   4.677
  450SOL    HW1 1366   1.407   1.423   4.757
  450SOL    HW2 1367   1.451   1.329   4.631
  451SOL     OW 1368   1.667   1.714   4.296
  451SOL    HW1 1369   1.626   1.691   4.208
  451SOL    HW2 1370   1.649   1.640   4.361
  452SOL     OW 1371   0.598   0.729   3.994
  452SOL    HW1 1372   0.622   0.798   3.926
  452SOL    HW2 1373   0.520   0.762   4.048
  453SOL     OW 1374   1.281   0.345   4.668
  453SOL    HW1 1375   1.195   0.295   4.655
  453SOL    HW2 1376   1.343   0.291   4.724
  454SOL     OW 1377   1.576   1.662   4.031
  454SOL    HW1 1378   1.665   1.708   4.034
  454SOL    HW2 1379   1.555   1.638   3.936
  455SOL     OW 1380   1.041   0.701   4.153
  455SOL    HW1 1381   1.067   0.697   4.249
  455SOL    HW2 1382   0.956   0.650   4.139
  456SOL     OW 1383   0.076   0.811   4.513
  456SOL    HW1 1384   0.175   0.799   4.522
  456SOL    HW2 1385   0.052   0.906   4.534
  457SOL     OW 1386   0.865   0.348   3.919
  457SOL    HW1 1387   0.924   0.411   3.870
  457SOL    HW2 1388   0.884   0.254   3.890
  458SOL     OW 1389   1.362   1.144   4.269
  458SOL    HW1 1390   1.445   1.115   4.221
  458SOL    HW2 1391   1.313   1.211   4.213
  459SOL     OW 1392   0.550   0.196   4.609
  459SOL    HW1 1393   0.545   0.191   4.709
  459SOL    HW2 1394   0.552   0.292   4.580
  460SOL     OW 1395   1.008   1.456   4.201
  460SOL    HW1 1396   0.962   1.528   4.149
  460SOL    HW2 1397   1.004   1.476   4.299
  461SOL     OW 1398   0.351   1.801   4.577
  461SOL    HW1 1399   0.401   1.715   4.583
  461SOL    HW2 1400   0.416   1.878   4.574
  462SOL     OW 1401   1.795   1.066   4.597
  462SOL    HW1 1402   1.733   1.051   4.521
  462SOL    HW2 1403   1.743   1.077   4.682
  463SOL     OW 1404   0.321   0.943   3.966
  463SOL    HW1 1405   0.403   0.982   3.924
  463SOL    HW2 1406   0.294   0.861   3.917
  464SOL     OW 1407   1.458   0.735   4.452
  464SOL    HW1 1408   1.453   0.670   4.527
  464SOL    HW2 1409   1.538   0.794   4.465
  465SOL     OW 1410   1.111   1.776   3.961
  465SOL    HW1 1411   1.051   1.714   4.011
  465SOL    HW2 1412   1.142   1.732   3.876
  466SOL     OW 1413   1.632   1.377   3.805
  466SOL    HW1 1414   1.600   1.471   3.795
  466SOL    HW2 1415   1.556   1.314   3.793
  467SOL     OW 1416   0.464   1.743   4.047
  467SOL    HW1 1417   0.497   1.782   4.133
  467SOL    HW2 1418   0.540   1.736   3.982
  468SOL     OW 1419   1.400   0.107   4.150
  468SOL    HW1 1420   1.376   0.070   4.060
  468SOL    HW2 1421   1.499   0.123   4.154
  469SOL     OW 1422   0.249   1.785   4.965
  469SOL    HW1 1423   0.306   1.720   5.015
  469SOL    HW2 1424   0.233   1.752   4.872
  470SOL     OW 1425   0.940   1.698   4.628
  470SOL    HW1 1426   1.020   1.641   4.649
  470SOL    HW2 1427   0.891   1.658   4.551
  471SOL     OW 1428   0.382   0.700   4.204
  471SOL    HW1 1429   0.427   0.610   4.201
  471SOL    HW2 1430   0.288   0.689   4.237
  472SOL     OW 1431   0.614   0.122   3.841
  472SOL    HW1 1432   0.712   0.100   3.848
  472SOL    HW2 1433   0.583   0.105   3.748
  473SOL     OW 1434   0.803   1.402   4.648
  473SOL    HW1 1435   0.893   1.416   4.606
  473SOL    HW2 1436   0.732   1.404   4.577
  474SOL     OW 1437   0.922   0.503   4.623
  474SOL    HW1 1438   0.897   0.494   4.527
  474SOL    HW2 1439   0.970   0.421   4.654
  475SOL     OW 1440   0.539   0.064   4.236
  475SOL    HW1 1441   0.458   0.065   4.294
  475SOL    HW2 1442   0.542   0.147   4.181
  476SOL     OW 1443   1.434   1.188   3.765
  476SOL    HW1 1444   1.466   1.112   3.822
  476SOL    HW2 1445   1.342   1.215   3.795
  477SOL     OW 1446   0.297   0.035   3.895
  477SOL    HW1 1447   0.346   0.119   3.874
  477SOL    HW2 1448   0.359  -0.030   3.940
  478SOL     OW 1449   0.935   0.236   4.204
  478SOL    HW1 1450   0.887   0.277   4.126
  478SOL    HW2 1451   1.034   0.234   4.185
  479SOL     OW 1452   1.227   1.570   4.517
  479SOL    HW1 1453   1.248   1.644   4.452
  479SOL    HW2 1454   1.295   1.570   4.590
  480SOL     OW 1455   0.459   1.152   4.465
  480SOL    HW1 1456   0.388   1.125   4.530
  480SOL    HW2 1457   0.433   1.124   4.372
  481SOL     OW 1458   1.271   1.797   4.315
  481SOL    HW1 1459   1.315   1.861   4.251
  481SOL    HW2 1460   1.221   1.849   4.385
  482SOL     OW 1461   1.032   0.549   3.740
  482SOL    HW1 1462   0.991   0.631   3.701
  482SOL    HW2 1463   1.096   0.575   3.813
  483SOL     OW 1464   0.866   0.454   4.366
  483SOL    HW1 1465   0.834   0.526   4.304
  483SOL    HW2 1466   0.890   0.373   4.313
  484SOL     OW 1467   1.017   0.039   4.477
  484SOL    HW1 1468   0.945   0.044   4.408
  484SOL    HW2 1469   0.993  -0.030   4.546
  485SOL     OW 1470   1.429   1.173   4.591
  485SOL    HW1 1471   1.374   1.089   4.584
  485SOL    HW2 1472   1.455   1.202   4.499
  486SOL     OW 1473   1.466   0.590   4.716
  486SOL    HW1 1474   1.436   0.495   4.723
  486SOL    HW2 1475   1.539   0.606   4.782
  487SOL     OW 1476   1.857   0.833   4.101
  487SOL    HW1 1477   1.899   0.769   4.165
  487SOL    HW2 1478   1.819   0.782   4.023
  488SOL     OW 1479   0.488   1.385   3.898
  488SOL    HW1 1480   0.401   1.370   3.945
  488SOL    HW2 1481   0.471   1.411   3.803
  489SOL     OW 1482   1.664   1.280   4.381
  489SOL    HW1 1483   1.763   1.288   4.395
  489SOL    HW2 1484   1.619   1.364   4.412
  490SOL     OW 1485   1.390   0.575   3.802
  490SOL    HW1 1486   1.336   0.554   3.883
  490SOL    HW2 1487   1.481   0.534   3.811
  491SOL     OW 1488   0.527   0.256   4.052
  491SOL    HW1 1489   0.554   0.197   3.977
  491SOL    HW2 1490   0.527   0.351   4.021
  492SOL     OW 1491   1.111   1.195   4.824
  492SOL    HW1 1492   1.071   1.239   4.905
  492SOL    HW2 1493   1.070   1.232   4.741
  493SOL     OW 1494   1.638   1.099   4.803
  493SOL    HW1 1495   1.643   1.180   4.862
  493SOL    HW2 1496   1.552   1.101   4.752
  494SOL     OW 1497   0.705   1.050   4.092
  494SOL    HW1 1498   0.691   1.057   4.191
  494SOL    HW2 1499   0.789   0.999   4.074
  495SOL     OW 1500   0.410   0.813   4.975
  495SOL    HW1 1501   0.496   0.825   5.025
  495SOL    HW2 1502   0.368   0.726   5.002
  496SOL     OW 1503   0.367   1.100   4.225
  496SOL    HW1 1504   0.360   1.183   4.169
  496SOL    HW2 1505   0.371   1.020   4.165
  497SOL     OW 1506   0.566   0.537   4.589
  497SOL    HW1 1507   0.578   0.603   4.515
  497SOL    HW2 1508   0.612   0.571   4.672
  498SOL     OW 1509   1.252   1.348   4.112
  498SOL    HW1 1510   1.302   1.425   4.152
  498SOL    HW2 1511   1.157   1.350   4.144
  499SOL     OW 1512   1.582   0.639   4.196
  499SOL    HW1 1513   1.551   0.700   4.269
  499SOL    HW2 1514   1.632   0.691   4.127
  500SOL     OW 1515   0.354   1.510   5.053
  500SOL    HW1 1516   0.333   1.466   4.966
  500SOL    HW2 1517   0.451   1.536   5.056
  501SOL     OW 1518   0.573   0.870   4.753
  501SOL    HW1 1519   0.617   0.959   4.744
  501SOL    HW2 1520   0.510   0.870   4.830
  502SOL     OW 1521   1.209   0.525   3.999
  502SOL    HW1 1522   1.222   0.441   4.053
  502SOL    HW2 1523   1.180   0.599   4.059
  503SOL     OW 1524   0.732   0.634   4.788
  503SOL    HW1 1525   0.791   0.608   4.712
  503SOL    HW2 1526   0.704   0.730   4.777
  504SOL     OW 1527   0.307   0.063   4.342
  504SOL    HW1 1528   0.296   0.157   4.375
  504SOL    HW2 1529   0.302   0.000   4.419
  505SOL     OW 1530   1.622   0.367   4.098
  505SOL    HW1 1531   1.624   0.291   4.162
  505SOL    HW2 1532   1.574   0.444   4.138
  506SOL     OW 1533   1.023   0.766   4.690
  506SOL    HW1 1534   1.038   0.787   4.786
  506SOL    HW2 1535   0.993   0.671   4.681
  507SOL     OW 1536   1.540   0.274   3.849
  507SOL    HW1 1537   1.479   0.199   3.872
  507SOL    HW2 1538   1.562   0.326   3.932
  508SOL     OW 1539   1.303   0.838   3.766
  508SOL    HW1 1540   1.337   0.745   3.781
  508SOL    HW2 1541   1.321   0.865   3.671
  509SOL     OW 1542   1.068   1.333   4.573
  509SOL    HW1 1543   1.075   1.249   4.518
  509SOL    HW2 1544   1.130   1.402   4.537
  510SOL     OW 1545   0.319   0.810   4.673
  510SOL    HW1 1546   0.412   0.846   4.678
  510SOL    HW2 1547   0.313   0.725   4.725
  511SOL     OW 1548   0.339   0.509   4.730
  511SOL    HW1 1549   0.287   0.426   4.713
  511SOL    HW2 1550   0.416   0.514   4.666
  512SOL     OW 1551   0.008   1.326   3.924
  512SOL    HW1 1552  -0.085   1.347   3.893
  512SOL    HW2 1553   0.018   1.227   3.937
  513SOL     OW 1554   0.088   1.801   4.651
  513SOL    HW1 1555   0.046   1.715   4.624
  513SOL    HW2 1556   0.182   1.804   4.617
  514SOL     OW 1557   0.504   1.568   4.634
  514SOL    HW1 1558   0.570   1.642   4.643
  514SOL    HW2 1559   0.548   1.489   4.592
  515SOL     OW 1560   1.002   0.796   4.962
  515SOL    HW1 1561   1.043   0.764   5.048
  515SOL    HW2 1562   0.906   0.769   4.959
  516SOL     OW 1563   0.815   0.572   4.049
  516SOL    HW1 1564   0.822   0.483   4.003
  516SOL    HW2 1565   0.721   0.606   4.041
  517SOL     OW 1566   0.671   0.464   4.993
  517SOL    HW1 1567   0.637   0.375   4.963
  517SOL    HW2 1568   0.697   0.518   4.913
  518SOL     OW 1569   0.473   0.500   3.915
  518SOL    HW1 1570   0.534   0.580   3.919
  518SOL    HW2 1571   0.378   0.531   3.922
  519SOL     OW 1572   1.302   0.855   4.033
  519SOL    HW1 1573   1.216   0.824   4.075
  519SOL    HW2 1574   1.298   0.841   3.934
  520SOL     OW 1575   1.759   1.747   4.878
  520SOL    HW1 1576   1.820   1.777   4.805
  520SOL    HW2 1577   1.721   1.658   4.856
  521SOL     OW 1578   0.083   1.258   4.746
  521SOL    HW1 1579   0.078   1.257   4.846
  521SOL    HW2 1580   0.000   1.217   4.708
  522SOL     OW 1581   1.726   0.135   4.247
  522SOL    HW1 1582   1.799   0.118   4.180
  522SOL    HW2 1583   1.695   0.048   4.285
  523SOL     OW 1584   1.388   1.573   4.201
  523SOL    HW1 1585   1.455   1.585   4.127
  523SOL    HW2 1586   1.348   1.662   4.224
  524SOL     OW 1587   1.280   0.927   4.396
  524SOL    HW1 1588   1.340   0.846   4.398
  524SOL    HW2 1589   1.320   0.996   4.336
  525SOL     OW 1590   0.672   1.616   3.878
  525SOL    HW1 1591   0.681   1.626   3.779
  525SOL    HW2 1592   0.632   1.527   3.899
  526SOL     OW 1593   1.841   0.175   4.687
  526SOL    HW1 1594   1.880   0.090   4.651
  526SOL    HW2 1595   1.743   0.177   4.668
  527SOL     OW 1596   0.263   0.326   4.444
  527SOL    HW1 1597   0.184   0.377   4.410
  527SOL    HW2 1598   0.254   0.311   4.542
  528SOL     OW 1599   1.194   1.612   3.755
  528SOL    HW1 1600   1.200   1.519   3.792
  528SOL    HW2 1601   1.135   1.612   3.675
  529SOL     OW 1602   0.916   0.910   4.015
  529SOL    HW1 1603   0.979   0.948   3.947
  529SOL    HW2 1604   0.956   0.827   4.054
  530SOL     OW 1605   1.504   1.607   3.768
  530SOL    HW1 1606   1.412   1.644   3.775
  530SOL    HW2 1607   1.542   1.627   3.678
  531SOL     OW 1608   1.039   1.098   4.420
  531SOL    HW1 1609   0.969   1.051   4.474
  531SOL    HW2 1610   1.098   1.030   4.377
  532SOL     OW 1611   1.014   0.236   4.695
  532SOL    HW1 1612   1.006   0.200   4.602
  532SOL    HW2 1613   1.012   0.160   4.760
  533SOL     OW 1614   0.590   1.487   4.215
  533SOL    HW1 1615   0.632   1.429   4.145
  533SOL    HW2 1616   0.546   1.566   4.171
  534SOL     OW 1617   0.255   1.348   4.014
  534SOL    HW1 1618   0.159   1.349   3.987
  534SOL    HW2 1619   0.267   1.401   4.098
  535SOL     OW 1620   0.075   0.345   3.757
  535SOL    HW1 1621  -0.017   0.317   3.728
  535SOL    HW2 1622   0.106   0.422   3.701
  536SOL     OW 1623   0.072   0.166   4.042
  536SOL    HW1 1624   0.055   0.249   3.988
  536SOL    HW2 1625   0.162   0.129   4.020
  537SOL     OW 1626   1.183   1.335   3.843
  537SOL    HW1 1627   1.084   1.324   3.845
  537SOL    HW2 1628   1.217   1.350   3.936
  538SOL     OW 1629   1.493   1.767   4.683
  538SOL    HW1 1630   1.526   1.831   4.614
  538SOL    HW2 1631   1.559   1.761   4.758
  539SOL     OW 1632   1.674   0.883   4.978
  539SOL    HW1 1633   1.647   0.794   4.941
  539SOL    HW2 1634   1.675   0.951   4.905
  540SOL     OW 1635   1.225   0.325   4.173
  540SOL    HW1 1636   1.290   0.251   4.162
  540SOL    HW2 1637   1.245   0.375   4.257
  541SOL     OW 1638   0.594   0.745   4.376
  541SOL    HW1 1639   0.644   0.830   4.357
  541SOL    HW2 1640   0.506   0.747   4.328
  542SOL     OW 1641   0.859   1.374   3.740
  542SOL    HW1 1642   0.813   1.389   3.828
  542SOL    HW2 1643   0.903   1.459   3.710
  543SOL     OW 1644   0.661   1.790   4.677
  543SOL    HW1 1645   0.615   1.878   4.664
  543SOL    HW2 1646   0.760   1.802   4.670
  544SOL     OW 1647   0.859   0.956   4.585
  544SOL    HW1 1648   0.913   0.887   4.633
  544SOL    HW2 1649   0.827   1.025   4.651
  545SOL     OW 1650   1.083   0.984   3.811
  545SOL    HW1 1651   1.060   1.037   3.729
  545SOL    HW2 1652   1.164   0.928   3.792
  546SOL     OW 1653   1.861   1.569   4.575
  546SOL    HW1 1654   1.790   1.557   4.505
  546SOL    HW2 1655   1.862   1.490   4.635
  547SOL     OW 1656   0.079   1.240   4.377
  547SOL    HW1 1657   0.078   1.193   4.465
  547SOL    HW2 1658   0.161   1.212   4.326
  548SOL     OW 1659   1.824   0.192   4.951
  548SOL    HW1 1660   1.820   0.102   4.995
  548SOL    HW2 1661   1.827   0.181   4.852
  549SOL     OW 1662   0.428   0.424   4.244
  549SOL    HW1 1663   0.458   0.352   4.182
  549SOL    HW2 1664   0.389   0.384   4.327
  550SOL     OW 1665   0.812   1.586   4.411
  550SOL    HW1 1666   0.844   1.596   4.317
  550SOL    HW2 1667   0.733   1.524   4.413
  551SOL     OW 1668   1.424   0.214   4.836
  551SOL    HW1 1669   1.476   0.149   4.891
  551SOL    HW2 1670   1.375   0.277   4.897
  552SOL     OW 1671   0.770   1.330   4.025
  552SOL    HW1 1672   0.724   1.243   4.042
  552SOL    HW2 1673   0.861   1.327   4.066
  553SOL     OW 1674   1.352   0.052   3.892
  553SOL    HW1 1675   1.387   0.011   3.808
  553SOL    HW2 1676   1.262   0.014   3.912
  554SOL     OW 1677   1.300   0.453   4.415
  554SOL    HW1 1678   1.241   0.533   4.419
  554SOL    HW2 1679   1.315   0.418   4.508
  555SOL     OW 1680   1.593   0.221   4.606
  555SOL    HW1 1681   1.509   0.220   4.660
  555SOL    HW2 1682   1.595   0.304   4.550
  556SOL     OW 1683   0.039   1.077   4.024
  556SOL    HW1 1684   0.138   1.066   4.015
  556SOL    HW2 1685  -0.001   0.991   4.056
  557SOL     OW 1686   0.875   1.646   4.061
  557SOL    HW1 1687   0.798   1.611   4.007
  557SOL    HW2 1688   0.843   1.717   4.123
  558SOL     OW 1689   0.230   2.490   0.113
  558SOL    HW1 1690   0.137   2.488   0.150
  558SOL    HW2 1691   0.231   2.451   0.021
  559SOL     OW 1692   0.225   2.137   0.996
  559SOL    HW1 1693   0.260   2.120   1.088
  559SOL    HW2 1694   0.137   2.092   0.984
  560SOL     OW 1695   0.019   2.230   0.647
  560SOL    HW1 1696  -0.063   2.273   0.686
  560SOL    HW2 1697  -0.009   2.157   0.584
  561SOL     OW 1698   0.569   3.137   1.165
  561SOL    HW1 1699   0.476   3.130   1.128
  561SOL    HW2 1700   0.580   3.226   1.209
  562SOL     OW 1701   1.555   3.373   0.703
  562SOL    HW1 1702   1.498   3.357   0.784
  562SOL    HW2 1703   1.496   3.383   0.623
  563SOL     OW 1704   1.135   2.565   0.717
  563SOL    HW1 1705   1.192   2.643   0.692
  563SOL    HW2 1706   1.075   2.591   0.793
  564SOL     OW 1707   1.755   2.469   0.231
  564SOL    HW1 1708   1.743   2.456   0.132
  564SOL    HW2 1709   1.725   2.388   0.280
  565SOL     OW 1710   0.768   3.006   1.023
  565SOL    HW1 1711   0.690   3.023   1.083
  565SOL    HW2 1712   0.802   3.093   0.987
  566SOL     OW 1713   0.850   2.660   1.823
  566SOL    HW1 1714   0.846   2.736   1.888
  566SOL    HW2 1715   0.872   2.696   1.732
  567SOL     OW 1716   0.685   2.874   0.665
  567SOL    HW1 1717   0.754   2.858   0.735
  567SOL    HW2 1718   0.612   2.931   0.703
  568SOL     OW 1719   0.686   3.023   1.803
  568SOL    HW1 1720   0.746   3.102   1.817
  568SOL    HW2 1721   0.600   3.054   1.762
  569SOL     OW 1722   0.335   3.297   1.061
  569SOL    HW1 1723   0.257   3.266   1.008
  569SOL    HW2 1724   0.393   3.355   1.004
  570SOL     OW 1725   1.460   3.367   1.339
  570SOL    HW1 1726   1.484   3.461   1.365
  570SOL    HW2 1727   1.444   3.313   1.421
  571SOL     OW 1728   0.438   2.254   1.499
  571SOL    HW1 1729   0.520   2.198   1.508
  571SOL    HW2 1730   0.357   2.196   1.503
  572SOL     OW 1731   1.603   2.309   0.737
  572SOL    HW1 1732   1.529   2.355   0.687
  572SOL    HW2 1733   1.654   2.377   0.790
  573SOL     OW 1734   0.231   3.575   0.483
  573SOL    HW1 1735   0.265   3.652   0.537
  573SOL    HW2 1736   0.275   3.575   0.393
  574SOL     OW 1737   1.127   3.203   1.690
  574SOL    HW1 1738   1.174   3.203   1.778
  574SOL    HW2 1739   1.079   3.116   1.679
  575SOL     OW 1740   0.230   3.296   0.538
  575SOL    HW1 1741   0.204   3.392   0.538
  575SOL    HW2 1742   0.159   3.242   0.583
  576SOL     OW 1743   0.240   2.953   0.886
  576SOL    HW1 1744   0.254   2.869   0.938
  576SOL    HW2 1745   0.185   3.017   0.941
  577SOL     OW 1746   0.620   3.648   1.439
  577SOL    HW1 1747   0.528   3.631   1.474
  577SOL    HW2 1748   0.648   3.740   1.465
  578SOL     OW 1749   0.606   2.826   0.123
  578SOL    HW1 1750   0.613   2.910   0.069
  578SOL    HW2 1751   0.652   2.839   0.211
  579SOL     OW 1752   1.594   1.976   1.480
  579SOL    HW1 1753   1.576   2.043   1.408
  579SOL    HW2 1754   1.591   2.022   1.569
  580SOL     OW 1755   0.122   2.505   0.563
  580SOL    HW1 1756   0.077   2.417   0.580
  580SOL    HW2 1757   0.121   2.559   0.647
  581SOL     OW 1758   1.842   3.629   0.359
  581SOL    HW1 1759   1.896   3.600   0.439
  581SOL    HW2 1760   1.872   3.719   0.330
  582SOL     OW 1761   0.027   3.458   0.117
  582SOL    HW1 1762   0.008   3.362   0.138
  582SOL    HW2 1763  -0.006   3.516   0.192
  583SOL     OW 1764   1.689   2.784   0.612
  583SOL    HW1 1765   1.784   2.755   0.620
  583SOL    HW2 1766   1.681   2.849   0.537
  584SOL     OW 1767   1.641   2.970   0.432
  584SOL    HW1 1768   1.727   2.972   0.380
  584SOL    HW2 1769   1.655   3.017   0.520
  585SOL     OW 1770   0.113   2.599   1.597
  585SOL    HW1 1771   0.201   2.586   1.642
  585SOL    HW2 1772   0.100   2.696   1.575
  586SOL     OW 1773   0.613   3.227   0.726
  586SOL    HW1 1774   0.564   3.140   0.735
  586SOL    HW2 1775   0.590   3.270   0.639
  587SOL     OW 1776   1.293   3.090   1.423
  587SOL    HW1 1777   1.330   3.017   1.365
  587SOL    HW2 1778   1.345   3.095   1.508
  588SOL     OW 1779   0.809   1.866   0.502
  588SOL    HW1 1780   0.849   1.957   0.493
  588SOL    HW2 1781   0.709   1.874   0.508
  589SOL     OW 1782   0.197   2.838   1.264
  589SOL    HW1 1783   0.286   2.793   1.250
  589SOL    HW2 1784   0.124   2.773   1.245
  590SOL     OW 1785   1.525   2.861   0.190
  590SOL    HW1 1786   1.462   2.785   0.203
  590SOL    HW2 1787   1.573   2.879   0.276
  591SOL     OW 1788   1.187   3.654   1.616
  591SOL    HW1 1789   1.211   3.714   1.540
  591SOL    HW2 1790   1.194   3.559   1.586
  592SOL     OW 1791   0.317   2.113   1.801
  592SOL    HW1 1792   0.388   2.184   1.807
  592SOL    HW2 1793   0.229   2.152   1.829
  593SOL     OW 1794   1.466   3.279   0.953
  593SOL    HW1 1795   1.407   3.285   1.033
  593SOL    HW2 1796   1.451   3.191   0.907
  594SOL     OW 1797   1.667   3.576   0.572
  594SOL    HW1 1798   1.626   3.553   0.484
  594SOL    HW2 1799   1.649   3.502   0.637
  595SOL     OW 1800   0.598   2.591   0.270
  595SOL    HW1 1801   0.622   2.660   0.202
  595SOL    HW2 1802   0.520   2.624   0.324
  596SOL     OW 1803   1.281   2.207   0.944
  596SOL    HW1 1804   1.195   2.157   0.931
  596SOL    HW2 1805   1.343   2.153   1.000
  597SOL     OW 1806   1.576   3.524   0.307
  597SOL    HW1 1807   1.665   3.570   0.310
  597SOL    HW2 1808   1.555   3.500   0.212
  598SOL     OW 1809   0.807   2.467   1.465
  598SOL    HW1 1810   0.760   2.464   1.554
  598SOL    HW2 1811   0.756   2.412   1.399
  599SOL     OW 1812   1.394   2.331   1.674
  599SOL    HW1 1813   1.374   2.374   1.762
  599SOL    HW2 1814   1.472   2.269   1.683
  600SOL     OW 1815   0.973   2.752   1.572
  600SOL    HW1 1816   1.019   2.668   1.543
  600SOL    HW2 1817   0.917   2.786   1.497
  601SOL     OW 1818   0.991   2.272   1.242
  601SOL    HW1 1819   0.914   2.306   1.296
  601SOL    HW2 1820   0.957   2.221   1.163
  602SOL     OW 1821   1.041   2.563   0.429
  602SOL    HW1 1822   1.067   2.559   0.525
  602SOL    HW2 1823   0.956   2.512   0.415
  603SOL     OW 1824   0.076   2.673   0.789
  603SOL    HW1 1825   0.175   2.661   0.798
  603SOL    HW2 1826   0.052   2.768   0.810
  604SOL     OW 1827   0.130   3.683   1.571
  604SOL    HW1 1828   0.120   3.668   1.670
  604SOL    HW2 1829   0.044   3.719   1.535
  605SOL     OW 1830   0.865   2.210   0.195
  605SOL    HW1 1831   0.924   2.273   0.146
  605SOL    HW2 1832   0.884   2.116   0.166
  606SOL     OW 1833   1.719   2.447   1.831
  606SOL    HW1 1834   1.693   2.536   1.795
  606SOL    HW2 1835   1.717   2.379   1.758
  607SOL     OW 1836   1.362   3.006   0.545
  607SOL    HW1 1837   1.445   2.977   0.497
  607SOL    HW2 1838   1.313   3.073   0.489
  608SOL     OW 1839   0.550   2.058   0.885
  608SOL    HW1 1840   0.545   2.053   0.985
  608SOL    HW2 1841   0.552   2.154   0.856
  609SOL     OW 1842   1.008   3.318   0.477
  609SOL    HW1 1843   0.962   3.390   0.425
  609SOL    HW2 1844   1.004   3.338   0.575
  610SOL     OW 1845   0.351   3.663   0.853
  610SOL    HW1 1846   0.401   3.577   0.859
  610SOL    HW2 1847   0.416   3.740   0.850
  611SOL     OW 1848   1.795   2.928   0.873
  611SOL    HW1 1849   1.733   2.913   0.797
  611SOL    HW2 1850   1.743   2.939   0.958
  612SOL     OW 1851   1.227   3.412   1.506
  612SOL    HW1 1852   1.233   3.335   1.570
  612SOL    HW2 1853   1.175   3.386   1.426
  613SOL     OW 1854   0.321   2.805   0.242
  613SOL    HW1 1855   0.403   2.844   0.200
  613SOL    HW2 1856   0.294   2.723   0.193
  614SOL     OW 1857   1.458   2.597   0.728
  614SOL    HW1 1858   1.453   2.532   0.803
  614SOL    HW2 1859   1.538   2.656   0.741
  615SOL     OW 1860   0.461   3.128   1.727
  615SOL    HW1 1861   0.411   3.129   1.641
  615SOL    HW2 1862   0.398   3.110   1.803
  616SOL     OW 1863   1.111   3.638   0.237
  616SOL    HW1 1864   1.051   3.576   0.287
  616SOL    HW2 1865   1.142   3.594   0.152
  617SOL     OW 1866   0.202   2.147   1.498
  617SOL    HW1 1867   0.122   2.207   1.485
  617SOL    HW2 1868   0.192   2.098   1.584
  618SOL     OW 1869   1.632   3.239   0.081
  618SOL    HW1 1870   1.600   3.333   0.071
  618SOL    HW2 1871   1.556   3.176   0.069
  619SOL     OW 1872   0.464   3.605   0.323
  619SOL    HW1 1873   0.497   3.644   0.409
  619SOL    HW2 1874   0.540   3.598   0.258
  620SOL     OW 1875   1.400   1.969   0.426
  620SOL    HW1 1876   1.376   1.932   0.336
  620SOL    HW2 1877   1.499   1.985   0.430
  621SOL     OW 1878   0.249   3.647   1.241
  621SOL    HW1 1879   0.306   3.582   1.291
  621SOL    HW2 1880   0.233   3.614   1.148
  622SOL     OW 1881   0.940   3.560   0.904
  622SOL    HW1 1882   1.020   3.503   0.925
  622SOL    HW2 1883   0.891   3.520   0.827
  623SOL     OW 1884   0.382   2.562   0.480
  623SOL    HW1 1885   0.427   2.472   0.477
  623SOL    HW2 1886   0.288   2.551   0.513
  624SOL     OW 1887   1.547   2.084   1.729
  624SOL    HW1 1888   1.542   2.121   1.821
  624SOL    HW2 1889   1.475   2.015   1.717
  625SOL     OW 1890   0.614   1.984   0.117
  625SOL    HW1 1891   0.712   1.962   0.124
  625SOL    HW2 1892   0.583   1.967   0.024
  626SOL     OW 1893   0.781   2.126   1.749
  626SOL    HW1 1894   0.848   2.065   1.792
  626SOL    HW2 1895   0.708   2.145   1.814
  627SOL     OW 1896   0.888   3.376   1.195
  627SOL    HW1 1897   0.865   3.351   1.101
  627SOL    HW2 1898   0.949   3.307   1.234
  628SOL     OW 1899   1.351   2.452   1.433
  628SOL    HW1 1900   1.379   2.409   1.518
  628SOL    HW2 1901   1.376   2.548   1.434
  629SOL     OW 1902   0.803   3.264   0.924
  629SOL    HW1 1903   0.893   3.278   0.882
  629SOL    HW2 1904   0.732   3.266   0.853
  630SOL     OW 1905   0.922   2.365   0.899
  630SOL    HW1 1906   0.897   2.356   0.803
  630SOL    HW2 1907   0.970   2.283   0.930
  631SOL     OW 1908   0.539   1.926   0.512
  631SOL    HW1 1909   0.458   1.927   0.570
  631SOL    HW2 1910   0.542   2.009   0.457
  632SOL     OW 1911   1.434   3.050   0.041
  632SOL    HW1 1912   1.466   2.974   0.098
  632SOL    HW2 1913   1.342   3.077   0.071
  633SOL     OW 1914   0.935   2.098   0.480
  633SOL    HW1 1915   0.887   2.139   0.402
  633SOL    HW2 1916   1.034   2.096   0.461
  634SOL     OW 1917   1.076   2.545   1.464
  634SOL    HW1 1918   0.996   2.484   1.467
  634SOL    HW2 1919   1.157   2.492   1.440
  635SOL     OW 1920   1.227   3.432   0.793
  635SOL    HW1 1921   1.248   3.506   0.728
  635SOL    HW2 1922   1.295   3.432   0.866
  636SOL     OW 1923   0.459   3.014   0.741
  636SOL    HW1 1924   0.388   2.987   0.806
  636SOL    HW2 1925   0.433   2.986   0.648
  637SOL     OW 1926   1.271   3.659   0.591
  637SOL    HW1 1927   1.315   3.723   0.527
  637SOL    HW2 1928   1.221   3.711   0.661
  638SOL     OW 1929   1.032   2.411   0.016
  638SOL    HW1 1930   0.991   2.493  -0.023
  638SOL    HW2 1931   1.096   2.437   0.089
  639SOL     OW 1932   0.078   2.418   1.386
  639SOL    HW1 1933   0.170   2.417   1.345
  639SOL    HW2 1934   0.072   2.492   1.453
  640SOL     OW 1935   0.561   2.084   1.147
  640SOL    HW1 1936   0.599   2.000   1.184
  640SOL    HW2 1937   0.473   2.103   1.191
  641SOL     OW 1938   0.866   2.316   0.642
  641SOL    HW1 1939   0.834   2.388   0.580
  641SOL    HW2 1940   0.890   2.235   0.589
  642SOL     OW 1941   1.017   1.901   0.753
  642SOL    HW1 1942   0.945   1.906   0.684
  642SOL    HW2 1943   0.993   1.832   0.822
  643SOL     OW 1944   1.429   3.035   0.867
  643SOL    HW1 1945   1.374   2.951   0.860
  643SOL    HW2 1946   1.455   3.064   0.775
  644SOL     OW 1947   1.466   2.452   0.992
  644SOL    HW1 1948   1.436   2.357   0.999
  644SOL    HW2 1949   1.539   2.468   1.058
  645SOL     OW 1950   1.857   2.695   0.377
  645SOL    HW1 1951   1.899   2.631   0.441
  645SOL    HW2 1952   1.819   2.644   0.299
  646SOL     OW 1953   0.488   3.247   0.174
  646SOL    HW1 1954   0.401   3.232   0.221
  646SOL    HW2 1955   0.471   3.273   0.079
  647SOL     OW 1956   1.664   3.142   0.657
  647SOL    HW1 1957   1.763   3.150   0.671
  647SOL    HW2 1958   1.619   3.226   0.688
  648SOL     OW 1959   1.390   2.437   0.078
  648SOL    HW1 1960   1.336   2.416   0.159
  648SOL    HW2 1961   1.481   2.396   0.087
  649SOL     OW 1962   0.527   2.118   0.328
  649SOL    HW1 1963   0.554   2.059   0.253
  649SOL    HW2 1964   0.527   2.213   0.297
  650SOL     OW 1965   1.754   3.085   1.588
  650SOL    HW1 1966   1.845   3.046   1.575
  650SOL    HW2 1967   1.762   3.181   1.612
  651SOL     OW 1968   1.064   3.209   1.340
  651SOL    HW1 1969   0.984   3.186   1.395
  651SOL    HW2 1970   1.147   3.183   1.389
  652SOL     OW 1971   1.592   3.491   1.625
  652SOL    HW1 1972   1.619   3.525   1.535
  652SOL    HW2 1973   1.671   3.453   1.671
  653SOL     OW 1974   1.111   3.057   1.100
  653SOL    HW1 1975   1.071   3.101   1.181
  653SOL    HW2 1976   1.070   3.094   1.017
  654SOL     OW 1977   1.638   2.961   1.079
  654SOL    HW1 1978   1.643   3.042   1.138
  654SOL    HW2 1979   1.552   2.963   1.028
  655SOL     OW 1980   0.915   1.951   1.402
  655SOL    HW1 1981   0.940   1.931   1.307
  655SOL    HW2 1982   0.987   2.007   1.444
  656SOL     OW 1983   0.980   2.978   1.719
  656SOL    HW1 1984   0.881   2.984   1.729
  656SOL    HW2 1985   1.003   2.898   1.663
  657SOL     OW 1986   0.705   2.912   0.368
  657SOL    HW1 1987   0.691   2.919   0.467
  657SOL    HW2 1988   0.789   2.861   0.350
  658SOL     OW 1989   0.410   2.675   1.251
  658SOL    HW1 1990   0.496   2.687   1.301
  658SOL    HW2 1991   0.368   2.588   1.278
  659SOL     OW 1992   1.274   2.248   1.262
  659SOL    HW1 1993   1.295   2.322   1.326
  659SOL    HW2 1994   1.185   2.265   1.219
  660SOL     OW 1995   0.064   3.426   1.331
  660SOL    HW1 1996   0.018   3.508   1.297
  660SOL    HW2 1997   0.162   3.445   1.340
  661SOL     OW 1998   0.367   2.962   0.501
  661SOL    HW1 1999   0.360   3.045   0.445
  661SOL    HW2 2000   0.371   2.882   0.441
  662SOL     OW 2001   0.566   2.399   0.865
  662SOL    HW1 2002   0.578   2.465   0.791
  662SOL    HW2 2003   0.612   2.433   0.948
  663SOL     OW 2004   1.252   3.210   0.388
  663SOL    HW1 2005   1.302   3.287   0.428
  663SOL    HW2 2006   1.157   3.212   0.420
  664SOL     OW 2007   1.272   3.307   1.142
  664SOL    HW1 2008   1.319   3.320   1.229
  664SOL    HW2 2009   1.206   3.233   1.151
  665SOL     OW 2010   1.582   2.501   0.472
  665SOL    HW1 2011   1.551   2.562   0.545
  665SOL    HW2 2012   1.632   2.553   0.403
  666SOL     OW 2013   0.354   3.372   1.329
  666SOL    HW1 2014   0.333   3.328   1.242
  666SOL    HW2 2015   0.451   3.398   1.332
  667SOL     OW 2016   0.402   2.613   1.598
  667SOL    HW1 2017   0.470   2.668   1.551
  667SOL    HW2 2018   0.442   2.525   1.625
  668SOL     OW 2019   1.587   2.641   1.670
  668SOL    HW1 2020   1.495   2.679   1.665
  668SOL    HW2 2021   1.647   2.688   1.605
  669SOL     OW 2022   1.013   1.967   1.770
  669SOL    HW1 2023   1.019   2.052   1.718
  669SOL    HW2 2024   1.045   1.891   1.713
  670SOL     OW 2025   0.504   1.912   1.740
  670SOL    HW1 2026   0.462   1.855   1.670
  670SOL    HW2 2027   0.438   1.981   1.772
  671SOL     OW 2028   0.573   2.732   1.029
  671SOL    HW1 2029   0.617   2.821   1.020
  671SOL    HW2 2030   0.510   2.732   1.106
  672SOL     OW 2031   1.360   2.724   1.045
  672SOL    HW1 2032   1.285   2.724   0.979
  672SOL    HW2 2033   1.397   2.632   1.054
  673SOL     OW 2034   1.209   2.387   0.275
  673SOL    HW1 2035   1.222   2.303   0.329
  673SOL    HW2 2036   1.180   2.461   0.335
  674SOL     OW 2037   0.307   2.075   1.231
  674SOL    HW1 2038   0.284   2.112   1.321
  674SOL    HW2 2039   0.277   1.980   1.225
  675SOL     OW 2040   0.037   3.172   1.282
  675SOL    HW1 2041   0.090   3.123   1.350
  675SOL    HW2 2042   0.059   3.270   1.287
  676SOL     OW 2043   0.732   2.496   1.064
  676SOL    HW1 2044   0.791   2.470   0.988
  676SOL    HW2 2045   0.704   2.592   1.053
  677SOL     OW 2046   1.728   2.797   1.854
  677SOL    HW1 2047   1.682   2.790   1.765
  677SOL    HW2 2048   1.666   2.841   1.920
  678SOL     OW 2049   0.307   1.925   0.618
  678SOL    HW1 2050   0.296   2.019   0.651
  678SOL    HW2 2051   0.302   1.862   0.695
  679SOL     OW 2052   1.622   2.229   0.374
  679SOL    HW1 2053   1.624   2.153   0.438
  679SOL    HW2 2054   1.574   2.306   0.414
  680SOL     OW 2055   1.023   2.628   0.966
  680SOL    HW1 2056   1.038   2.649   1.062
  680SOL    HW2 2057   0.993   2.533   0.957
  681SOL     OW 2058   0.980   3.435   1.700
  681SOL    HW1 2059   0.960   3.479   1.612
  681SOL    HW2 2060   1.019   3.344   1.684
  682SOL     OW 2061   1.859   3.380   1.605
  682SOL    HW1 2062   1.873   3.407   1.510
  682SOL    HW2 2063   1.942   3.402   1.658
  683SOL     OW 2064   0.350   2.760   1.804
  683SOL    HW1 2065   0.426   2.804   1.852
  683SOL    HW2 2066   0.385   2.713   1.722
  684SOL     OW 2067   1.540   2.136   0.125
  684SOL    HW1 2068   1.479   2.061   0.148
  684SOL    HW2 2069   1.562   2.188   0.208
  685SOL     OW 2070   1.303   2.700   0.042
  685SOL    HW1 2071   1.337   2.607   0.057
  685SOL    HW2 2072   1.321   2.727  -0.053
  686SOL     OW 2073   1.068   3.195   0.849
  686SOL    HW1 2074   1.075   3.111   0.794
  686SOL    HW2 2075   1.130   3.264   0.813
  687SOL     OW 2076   0.319   2.672   0.949
  687SOL    HW1 2077   0.412   2.708   0.954
  687SOL    HW2 2078   0.313   2.587   1.001
  688SOL     OW 2079   0.339   2.371   1.006
  688SOL    HW1 2080   0.287   2.288   0.989
  688SOL    HW2 2081   0.416   2.376   0.942
  689SOL     OW 2082   1.138   2.242   1.678
  689SOL    HW1 2083   1.093   2.305   1.742
  689SOL    HW2 2084   1.231   2.273   1.661
  690SOL     OW 2085   1.160   2.069   1.477
  690SOL    HW1 2086   1.160   2.133   1.554
  690SOL    HW2 2087   1.188   2.117   1.394
  691SOL     OW 2088   0.008   3.188   0.200
  691SOL    HW1 2089  -0.085   3.209   0.169
  691SOL    HW2 2090   0.018   3.089   0.213
  692SOL     OW 2091   0.088   3.663   0.927
  692SOL    HW1 2092   0.046   3.577   0.900
  692SOL    HW2 2093   0.182   3.666   0.893
  693SOL     OW 2094   0.504   3.430   0.910
  693SOL    HW1 2095   0.570   3.504   0.919
  693SOL    HW2 2096   0.548   3.351   0.868
  694SOL     OW 2097   1.002   2.658   1.238
  694SOL    HW1 2098   1.043   2.626   1.324
  694SOL    HW2 2099   0.906   2.631   1.235
  695SOL     OW 2100   0.040   2.406   1.114
  695SOL    HW1 2101   0.125   2.373   1.073
  695SOL    HW2 2102   0.053   2.421   1.212
  696SOL     OW 2103   0.189   2.382   1.722
  696SOL    HW1 2104   0.248   2.342   1.652
  696SOL    HW2 2105   0.131   2.453   1.681
  697SOL     OW 2106   1.369   2.812   1.660
  697SOL    HW1 2107   1.408   2.901   1.680
  697SOL    HW2 2108   1.379   2.792   1.563
  698SOL     OW 2109   0.815   2.434   0.325
  698SOL    HW1 2110   0.822   2.345   0.279
  698SOL    HW2 2111   0.721   2.468   0.317
  699SOL     OW 2112   1.657   2.466   1.206
  699SOL    HW1 2113   1.619   2.397   1.268
  699SOL    HW2 2114   1.739   2.430   1.162
  700SOL     OW 2115   0.252   3.426   1.744
  700SOL    HW1 2116   0.222   3.483   1.820
  700SOL    HW2 2117   0.245   3.329   1.770
  701SOL     OW 2118   0.671   2.326   1.269
  701SOL    HW1 2119   0.637   2.237   1.239
  701SOL    HW2 2120   0.697   2.380   1.189
  702SOL     OW 2121   0.930   3.540   1.465
  702SOL    HW1 2122   0.906   3.522   1.370
  702SOL    HW2 2123   0.960   3.634   1.475
  703SOL     OW 2124   0.473   2.362   0.191
  703SOL    HW1 2125   0.534   2.442   0.195
  703SOL    HW2 2126   0.378   2.393   0.198
  704SOL     OW 2127   0.159   2.999   1.466
  704SOL    HW1 2128   0.181   2.938   1.542
  704SOL    HW2 2129   0.169   2.950   1.380
  705SOL     OW 2130   1.347   2.921   1.234
  705SOL    HW1 2131   1.371   2.858   1.160
  705SOL    HW2 2132   1.257   2.961   1.216
  706SOL     OW 2133   1.302   2.717   0.309
  706SOL    HW1 2134   1.216   2.686   0.351
  706SOL    HW2 2135   1.298   2.703   0.210
  707SOL     OW 2136   1.759   3.609   1.154
  707SOL    HW1 2137   1.820   3.639   1.081
  707SOL    HW2 2138   1.721   3.520   1.132
  708SOL     OW 2139   1.252   3.593   1.128
  708SOL    HW1 2140   1.336   3.598   1.074
  708SOL    HW2 2141   1.229   3.497   1.146
  709SOL     OW 2142   0.083   3.120   1.022
  709SOL    HW1 2143   0.078   3.119   1.122
  709SOL    HW2 2144   0.000   3.079   0.984
  710SOL     OW 2145   0.688   3.524   1.716
  710SOL    HW1 2146   0.632   3.605   1.725
  710SOL    HW2 2147   0.740   3.528   1.630
  711SOL     OW 2148   0.903   1.948   0.133
  711SOL    HW1 2149   0.954   1.949   0.047
  711SOL    HW2 2150   0.959   1.906   0.204
  712SOL     OW 2151   1.726   1.997   0.523
  712SOL    HW1 2152   1.799   1.980   0.456
  712SOL    HW2 2153   1.695   1.910   0.561
  713SOL     OW 2154   1.388   3.435   0.477
  713SOL    HW1 2155   1.455   3.447   0.403
  713SOL    HW2 2156   1.348   3.524   0.500
  714SOL     OW 2157   0.130   3.656   1.851
  714SOL    HW1 2158   0.089   3.582   1.904
  714SOL    HW2 2159   0.194   3.707   1.909
  715SOL     OW 2160   1.280   2.789   0.672
  715SOL    HW1 2161   1.340   2.708   0.674
  715SOL    HW2 2162   1.320   2.858   0.612
  716SOL     OW 2163   0.830   3.135   1.422
  716SOL    HW1 2164   0.825   3.168   1.517
  716SOL    HW2 2165   0.744   3.154   1.376
  717SOL     OW 2166   0.672   3.478   0.154
  717SOL    HW1 2167   0.681   3.488   0.055
  717SOL    HW2 2168   0.632   3.389   0.175
  718SOL     OW 2169   1.650   3.582   1.394
  718SOL    HW1 2170   1.703   3.592   1.310
  718SOL    HW2 2171   1.623   3.672   1.428
  719SOL     OW 2172   1.841   2.037   0.963
  719SOL    HW1 2173   1.880   1.952   0.927
  719SOL    HW2 2174   1.743   2.039   0.944
  720SOL     OW 2175   0.263   2.188   0.720
  720SOL    HW1 2176   0.184   2.239   0.686
  720SOL    HW2 2177   0.254   2.173   0.818
  721SOL     OW 2178   1.194   3.474   0.031
  721SOL    HW1 2179   1.200   3.381   0.068
  721SOL    HW2 2180   1.135   3.474  -0.049
  722SOL     OW 2181   0.822   2.864   1.372
  722SOL    HW1 2182   0.862   2.863   1.280
  722SOL    HW2 2183   0.832   2.956   1.412
  723SOL     OW 2184   0.916   2.772   0.291
  723SOL    HW1 2185   0.979   2.810   0.223
  723SOL    HW2 2186   0.956   2.689   0.330
  724SOL     OW 2187   1.504   3.469   0.044
  724SOL    HW1 2188   1.412   3.506   0.051
  724SOL    HW2 2189   1.542   3.489  -0.046
  725SOL     OW 2190   0.372   3.150   1.490
  725SOL    HW1 2191   0.359   3.243   1.456
  725SOL    HW2 2192   0.288   3.098   1.477
  726SOL     OW 2193   1.614   3.154   1.289
  726SOL    HW1 2194   1.674   3.157   1.369
  726SOL    HW2 2195   1.539   3.218   1.302
  727SOL     OW 2196   1.039   2.960   0.696
  727SOL    HW1 2197   0.969   2.913   0.750
  727SOL    HW2 2198   1.098   2.892   0.653
  728SOL     OW 2199   1.014   2.098   0.971
  728SOL    HW1 2200   1.006   2.062   0.878
  728SOL    HW2 2201   1.012   2.022   1.036
  729SOL     OW 2202   0.590   3.349   0.491
  729SOL    HW1 2203   0.632   3.291   0.421
  729SOL    HW2 2204   0.546   3.428   0.447
  730SOL     OW 2205   1.709   2.247   1.381
  730SOL    HW1 2206   1.782   2.316   1.385
  730SOL    HW2 2207   1.737   2.172   1.322
  731SOL     OW 2208   0.255   3.210   0.290
  731SOL    HW1 2209   0.159   3.211   0.263
  731SOL    HW2 2210   0.267   3.263   0.374
  732SOL     OW 2211   0.105   2.875   1.726
  732SOL    HW1 2212   0.028   2.842   1.780
  732SOL    HW2 2213   0.190   2.845   1.768
  733SOL     OW 2214   0.672   2.065   1.489
  733SOL    HW1 2215   0.762   2.049   1.449
  733SOL    HW2 2216   0.680   2.070   1.588
  734SOL     OW 2217   0.075   2.207   0.033
  734SOL    HW1 2218  -0.017   2.179   0.004
  734SOL    HW2 2219   0.106   2.284  -0.023
  735SOL     OW 2220   1.440   2.718   1.398
  735SOL    HW1 2221   1.383   2.770   1.335
  735SOL    HW2 2222   1.536   2.730   1.374
  736SOL     OW 2223   0.072   2.028   0.318
  736SOL    HW1 2224   0.055   2.111   0.264
  736SOL    HW2 2225   0.162   1.991   0.296
  737SOL     OW 2226   1.183   3.197   0.119
  737SOL    HW1 2227   1.084   3.186   0.121
  737SOL    HW2 2228   1.217   3.212   0.212
  738SOL     OW 2229   0.613   2.704   1.431
  738SOL    HW1 2230   0.669   2.785   1.414
  738SOL    HW2 2231   0.672   2.624   1.434
  739SOL     OW 2232   1.493   3.629   0.959
  739SOL    HW1 2233   1.526   3.693   0.890
  739SOL    HW2 2234   1.559   3.623   1.034
  740SOL     OW 2235   0.716   2.427   1.708
  740SOL    HW1 2236   0.735   2.492   1.782
  740SOL    HW2 2237   0.776   2.347   1.717
  741SOL     OW 2238   1.450   3.082   1.633
  741SOL    HW1 2239   1.441   3.072   1.732
  741SOL    HW2 2240   1.546   3.075   1.607
  742SOL     OW 2241   0.390   3.603   1.560
  742SOL    HW1 2242   0.299   3.644   1.558
  742SOL    HW2 2243   0.383   3.509   1.592
  743SOL     OW 2244   1.674   2.745   1.254
  743SOL    HW1 2245   1.647   2.656   1.217
  743SOL    HW2 2246   1.675   2.813   1.181
  744SOL     OW 2247   1.225   2.187   0.449
  744SOL    HW1 2248   1.290   2.113   0.438
  744SOL    HW2 2249   1.245   2.237   0.533
  745SOL     OW 2250   0.594   2.607   0.652
  745SOL    HW1 2251   0.644   2.692   0.633
  745SOL    HW2 2252   0.506   2.609   0.604
  746SOL     OW 2253   1.777   2.204   1.642
  746SOL    HW1 2254   1.760   2.235   1.548
  746SOL    HW2 2255   1.693   2.167   1.680
  747SOL     OW 2256   1.730   2.796   1.517
  747SOL    HW1 2257   1.768   2.887   1.532
  747SOL    HW2 2258   1.722   2.779   1.418
  748SOL     OW 2259   0.859   3.236   0.016
  748SOL    HW1 2260   0.813   3.251   0.104
  748SOL    HW2 2261   0.903   3.321  -0.014
  749SOL     OW 2262   0.661   3.652   0.953
  749SOL    HW1 2263   0.615   3.740   0.940
  749SOL    HW2 2264   0.760   3.664   0.946
  750SOL     OW 2265   0.859   2.818   0.861
  750SOL    HW1 2266   0.913   2.749   0.909
  750SOL    HW2 2267   0.827   2.887   0.927
  751SOL     OW 2268   1.083   2.846   0.087
  751SOL    HW1 2269   1.060   2.899   0.005
  751SOL    HW2 2270   1.164   2.790   0.068
  752SOL     OW 2271   1.861   3.431   0.851
  752SOL    HW1 2272   1.790   3.419   0.781
  752SOL    HW2 2273   1.862   3.352   0.911
  753SOL     OW 2274   0.221   3.176   1.844
  753SOL    HW1 2275   0.156   3.103   1.823
  753SOL    HW2 2276   0.225   3.190   1.942
  754SOL     OW 2277   0.079   3.102   0.653
  754SOL    HW1 2278   0.078   3.055   0.741
  754SOL    HW2 2279   0.161   3.074   0.602
  755SOL     OW 2280   0.672   3.253   1.624
  755SOL    HW1 2281   0.594   3.203   1.662
  755SOL    HW2 2282   0.669   3.348   1.655
  756SOL     OW 2283   1.824   2.054   1.227
  756SOL    HW1 2284   1.820   1.964   1.271
  756SOL    HW2 2285   1.827   2.043   1.128
  757SOL     OW 2286   0.428   2.286   0.520
  757SOL    HW1 2287   0.458   2.214   0.458
  757SOL    HW2 2288   0.389   2.246   0.603
  758SOL     OW 2289   1.705   3.349   1.104
  758SOL    HW1 2290   1.612   3.324   1.077
  758SOL    HW2 2291   1.731   3.299   1.186
  759SOL     OW 2292   0.317   2.409   1.280
  759SOL    HW1 2293   0.355   2.350   1.352
  759SOL    HW2 2294   0.357   2.383   1.192
  760SOL     OW 2295   0.812   3.448   0.687
  760SOL    HW1 2296   0.844   3.458   0.593
  760SOL    HW2 2297   0.733   3.386   0.689
  761SOL     OW 2298   1.424   2.076   1.112
  761SOL    HW1 2299   1.476   2.011   1.167
  761SOL    HW2 2300   1.375   2.139   1.173
  762SOL     OW 2301   1.001   1.896   1.154
  762SOL    HW1 2302   0.938   1.824   1.123
  762SOL    HW2 2303   1.094   1.860   1.154
  763SOL     OW 2304   0.770   3.192   0.301
  763SOL    HW1 2305   0.724   3.105   0.318
  763SOL    HW2 2306   0.861   3.189   0.342
  764SOL     OW 2307   0.618   3.429   1.284
  764SOL    HW1 2308   0.613   3.511   1.341
  764SOL    HW2 2309   0.707   3.426   1.239
  765SOL     OW 2310   1.352   1.914   0.168
  765SOL    HW1 2311   1.387   1.873   0.084
  765SOL    HW2 2312   1.262   1.876   0.188
  766SOL     OW 2313   1.300   2.315   0.691
  766SOL    HW1 2314   1.241   2.395   0.695
  766SOL    HW2 2315   1.315   2.280   0.784
  767SOL     OW 2316   1.593   2.083   0.882
  767SOL    HW1 2317   1.509   2.082   0.936
  767SOL    HW2 2318   1.595   2.166   0.826
  768SOL     OW 2319   0.039   2.939   0.300
  768SOL    HW1 2320   0.138   2.928   0.291
  768SOL    HW2 2321  -0.001   2.853   0.332
  769SOL     OW 2322   0.875   3.508   0.337
  769SOL    HW1 2323   0.798   3.473   0.283
  769SOL    HW2 2324   0.843   3.579   0.399
  770SOL     OW 2325   0.230   2.490   1.975
  770SOL    HW1 2326   0.137   2.488   2.012
  770SOL    HW2 2327   0.231   2.451   1.883
  771SOL     OW 2328   0.225   2.137   2.858
  771SOL    HW1 2329   0.260   2.120   2.950
  771SOL    HW2 2330   0.137   2.092   2.846
  772SOL     OW 2331   0.019   2.230   2.509
  772SOL    HW1 2332  -0.063   2.273   2.548
  772SOL    HW2 2333  -0.009   2.157   2.446
  773SOL     OW 2334   0.569   3.137   3.027
  773SOL    HW1 2335   0.476   3.130   2.990
  773SOL    HW2 2336   0.580   3.226   3.071
  774SOL     OW 2337   1.555   3.373   2.565
  774SOL    HW1 2338   1.498   3.357   2.646
  774SOL    HW2 2339   1.496   3.383   2.485
  775SOL     OW 2340   1.135   2.565   2.579
  775SOL    HW1 2341   1.192   2.643   2.554
  775SOL    HW2 2342   1.075   2.591   2.655
  776SOL     OW 2343   1.755   2.469   2.093
  776SOL    HW1 2344   1.743   2.456   1.994
  776SOL    HW2 2345   1.725   2.388   2.142
  777SOL     OW 2346   0.768   3.006   2.885
  777SOL    HW1 2347   0.690   3.023   2.945
  777SOL    HW2 2348   0.802   3.093   2.849
  778SOL     OW 2349   0.850   2.660   3.685
  778SOL    HW1 2350   0.846   2.736   3.750
  778SOL    HW2 2351   0.872   2.696   3.594
  779SOL     OW 2352   0.685   2.874   2.527
  779SOL    HW1 2353   0.754   2.858   2.597
  779SOL    HW2 2354   0.612   2.931   2.565
  780SOL     OW 2355   0.686   3.023   3.665
  780SOL    HW1 2356   0.746   3.102   3.679
  780SOL    HW2 2357   0.600   3.054   3.624
  781SOL     OW 2358   0.335   3.297   2.923
  781SOL    HW1 2359   0.257   3.266   2.870
  781SOL    HW2 2360   0.393   3.355   2.866
  782SOL     OW 2361   1.460   3.367   3.201
  782SOL    HW1 2362   1.484   3.461   3.227
  782SOL    HW2 2363   1.444   3.313   3.283
  783SOL     OW 2364   0.438   2.254   3.361
  783SOL    HW1 2365   0.520   2.198   3.370
  783SOL    HW2 2366   0.357   2.196   3.365
  784SOL     OW 2367   1.603   2.309   2.599
  784SOL    HW1 2368   1.529   2.355   2.549
  784SOL    HW2 2369   1.654   2.377   2.652
  785SOL     OW 2370   0.231   3.575   2.345
  785SOL    HW1 2371   0.265   3.652   2.399
  785SOL    HW2 2372   0.275   3.575   2.255
  786SOL     OW 2373   1.127   3.203   3.552
  786SOL    HW1 2374   1.174   3.203   3.640
  786SOL    HW2 2375   1.079   3.116   3.541
  787SOL     OW 2376   0.230   3.296   2.400
  787SOL    HW1 2377   0.204   3.392   2.400
  787SOL    HW2 2378   0.159   3.242   2.445
  788SOL     OW 2379   0.240   2.953   2.748
  788SOL    HW1 2380   0.254   2.869   2.800
  788SOL    HW2 2381   0.185   3.017   2.803
  789SOL     OW 2382   0.620   3.648   3.301
  789SOL    HW1 2383   0.528   3.631   3.336
  789SOL    HW2 2384   0.648   3.740   3.327
  790SOL     OW 2385   0.606   2.826   1.985
  790SOL    HW1 2386   0.613   2.910   1.931
  790SOL    HW2 2387   0.652   2.839   2.073
  791SOL     OW 2388   1.594   1.976   3.342
  791SOL    HW1 2389   1.576   2.043   3.270
  791SOL    HW2 2390   1.591   2.022   3.431
  792SOL     OW 2391   0.122   2.505   2.425
  792SOL    HW1 2392   0.077   2.417   2.442
  792SOL    HW2 2393   0.121   2.559   2.509
  793SOL     OW 2394   1.842   3.629   2.221
  793SOL    HW1 2395   1.896   3.600   2.301
  793SOL    HW2 2396   1.872   3.719   2.192
  794SOL     OW 2397   0.027   3.458   1.979
  794SOL    HW1 2398   0.008   3.362   2.000
  794SOL    HW2 2399  -0.006   3.516   2.054
  795SOL     OW 2400   1.689   2.784   2.474
  795SOL    HW1 2401   1.784   2.755   2.482
  795SOL    HW2 2402   1.681   2.849   2.399
  796SOL     OW 2403   1.641   2.970   2.294
  796SOL    HW1 2404   1.727   2.972   2.242
  796SOL    HW2 2405   1.655   3.017   2.382
  797SOL     OW 2406   0.113   2.599   3.459
  797SOL    HW1 2407   0.201   2.586   3.504
  797SOL    HW2 2408   0.100   2.696   3.437
  798SOL     OW 2409   0.613   3.227   2.588
  798SOL    HW1 2410   0.564   3.140   2.597
  798SOL    HW2 2411   0.590   3.270   2.501
  799SOL     OW 2412   1.293   3.090   3.285
  799SOL    HW1 2413   1.330   3.017   3.227
  799SOL    HW2 2414   1.345   3.095   3.370
  800SOL     OW 2415   0.809   1.866   2.364
  800SOL    HW1 2416   0.849   1.957   2.355
  800SOL    HW2 2417   0.709   1.874   2.370
  801SOL     OW 2418   0.197   2.838   3.126
  801SOL    HW1 2419   0.286   2.793   3.112
  801SOL    HW2 2420   0.124   2.773   3.107
  802SOL     OW 2421   1.525   2.861   2.052
  802SOL    HW1 2422   1.462   2.785   2.065
  802SOL    HW2 2423   1.573   2.879   2.138
  803SOL     OW 2424   1.187   3.654   3.478
  803SOL    HW1 2425   1.211   3.714   3.402
  803SOL    HW2 2426   1.194   3.559   3.448
  804SOL     OW 2427   0.317   2.113   3.663
  804SOL    HW1 2428   0.388   2.184   3.669
  804SOL    HW2 2429   0.229   2.152   3.691
  805SOL     OW 2430   1.466   3.279   2.815
  805SOL    HW1 2431   1.407   3.285   2.895
  805SOL    HW2 2432   1.451   3.191   2.769
  806SOL     OW 2433   1.667   3.576   2.434
  806SOL    HW1 2434   1.626   3.553   2.346
  806SOL    HW2 2435   1.649   3.502   2.499
  807SOL     OW 2436   0.598   2.591   2.132
  807SOL    HW1 2437   0.622   2.660   2.064
  807SOL    HW2 2438   0.520   2.624   2.186
  808SOL     OW 2439   1.281   2.207   2.806
  808SOL    HW1 2440   1.195   2.157   2.793
  808SOL    HW2 2441   1.343   2.153   2.862
  809SOL     OW 2442   1.576   3.524   2.169
  809SOL    HW1 2443   1.665   3.570   2.172
  809SOL    HW2 2444   1.555   3.500   2.074
  810SOL     OW 2445   0.807   2.467   3.327
  810SOL    HW1 2446   0.760   2.464   3.416
  810SOL    HW2 2447   0.756   2.412   3.261
  811SOL     OW 2448   1.394   2.331   3.536
  811SOL    HW1 2449   1.374   2.374   3.624
  811SOL    HW2 2450   1.472   2.269   3.545
  812SOL     OW 2451   0.973   2.752   3.434
  812SOL    HW1 2452   1.019   2.668   3.405
  812SOL    HW2 2453   0.917   2.786   3.359
  813SOL     OW 2454   0.991   2.272   3.104
  813SOL    HW1 2455   0.914   2.306   3.158
  813SOL    HW2 2456   0.957   2.221   3.025
  814SOL     OW 2457   1.041   2.563   2.291
  814SOL    HW1 2458   1.067   2.559   2.387
  814SOL    HW2 2459   0.956   2.512   2.277
  815SOL     OW 2460   0.076   2.673   2.651
  815SOL    HW1 2461   0.175   2.661   2.660
  815SOL    HW2 2462   0.052   2.768   2.672
  816SOL     OW 2463   0.130   3.683   3.433
  816SOL    HW1 2464   0.120   3.668   3.532
  816SOL    HW2 2465   0.044   3.719   3.397
  817SOL     OW 2466   0.865   2.210   2.057
  817SOL    HW1 2467   0.924   2.273   2.008
  817SOL    HW2 2468   0.884   2.116   2.028
  818SOL     OW 2469   1.719   2.447   3.693
  818SOL    HW1 2470   1.693   2.536   3.657
  818SOL    HW2 2471   1.717   2.379   3.620
  819SOL     OW 2472   1.362   3.006   2.407
  819SOL    HW1 2473   1.445   2.977   2.359
  819SOL    HW2 2474   1.313   3.073   2.351
  820SOL     OW 2475   0.550   2.058   2.747
  820SOL    HW1 2476   0.545   2.053   2.847
  820SOL    HW2 2477   0.552   2.154   2.718
  821SOL     OW 2478   1.008   3.318   2.339
  821SOL    HW1 2479   0.962   3.390   2.287
  821SOL    HW2 2480   1.004   3.338   2.437
  822SOL     OW 2481   0.351   3.663   2.715
  822SOL    HW1 2482   0.401   3.577   2.721
  822SOL    HW2 2483   0.416   3.740   2.712
  823SOL     OW 2484   1.795   2.928   2.735
  823SOL    HW1 2485   1.733   2.913   2.659
  823SOL    HW2 2486   1.743   2.939   2.820
  824SOL     OW 2487   1.227   3.412   3.368
  824SOL    HW1 2488   1.233   3.335   3.432
  824SOL    HW2 2489   1.175   3.386   3.288
  825SOL     OW 2490   0.321   2.805   2.104
  825SOL    HW1 2491   0.403   2.844   2.062
  825SOL    HW2 2492   0.294   2.723   2.055
  826SOL     OW 2493   1.458   2.597   2.590
  826SOL    HW1 2494   1.453   2.532   2.665
  826SOL    HW2 2495   1.538   2.656   2.603
  827SOL     OW 2496   0.461   3.128   3.589
  827SOL    HW1 2497   0.411   3.129   3.503
  827SOL    HW2 2498   0.398   3.110   3.665
  828SOL     OW 2499   1.111   3.638   2.099
  828SOL    HW1 2500   1.051   3.576   2.149
  828SOL    HW2 2501   1.142   3.594   2.014
  829SOL     OW 2502   0.202   2.147   3.360
  829SOL    HW1 2503   0.122   2.207   3.347
  829SOL    HW2 2504   0.192   2.098   3.446
  830SOL     OW 2505   1.632   3.239   1.943
  830SOL    HW1 2506   1.600   3.333   1.933
  830SOL    HW2 2507   1.556   3.176   1.931
  831SOL     OW 2508   0.464   3.605   2.185
  831SOL    HW1 2509   0.497   3.644   2.271
  831SOL    HW2 2510   0.540   3.598   2.120
  832SOL     OW 2511   1.400   1.969   2.288
  832SOL    HW1 2512   1.376   1.932   2.198
  832SOL    HW2 2513   1.499   1.985   2.292
  833SOL     OW 2514   0.249   3.647   3.103
  833SOL    HW1 2515   0.306   3.582   3.153
  833SOL    HW2 2516   0.233   3.614   3.010
  834SOL     OW 2517   0.940   3.560   2.766
  834SOL    HW1 2518   1.020   3.503   2.787
  834SOL    HW2 2519   0.891   3.520   2.689
  835SOL     OW 2520   0.382   2.562   2.342
  835SOL    HW1 2521   0.427   2.472   2.339
  835SOL    HW2 2522   0.288   2.551   2.375
  836SOL     OW 2523   1.547   2.084   3.591
  836SOL    HW1 2524   1.542   2.121   3.683
  836SOL    HW2 2525   1.475   2.015   3.579
  837SOL     OW 2526   0.614   1.984   1.979
  837SOL    HW1 2527   0.712   1.962   1.986
  837SOL    HW2 2528   0.583   1.967   1.886
  838SOL     OW 2529   0.781   2.126   3.611
  838SOL    HW1 2530   0.848   2.065   3.654
  838SOL    HW2 2531   0.708   2.145   3.676
  839SOL     OW 2532   0.888   3.376   3.057
  839SOL    HW1 2533   0.865   3.351   2.963
  839SOL    HW2 2534   0.949   3.307   3.096
  840SOL     OW 2535   1.351   2.452   3.295
  840SOL    HW1 2536   1.379   2.409   3.380
  840SOL    HW2 2537   1.376   2.548   3.296
  841SOL     OW 2538   0.803   3.264   2.786
  841SOL    HW1 2539   0.893   3.278   2.744
  841SOL    HW2 2540   0.732   3.266   2.715
  842SOL     OW 2541   0.922   2.365   2.761
  842SOL    HW1 2542   0.897   2.356   2.665
  842SOL    HW2 2543   0.970   2.283   2.792
  843SOL     OW 2544   0.539   1.926   2.374
  843SOL    HW1 2545   0.458   1.927   2.432
  843SOL    HW2 2546   0.542   2.009   2.319
  844SOL     OW 2547   1.434   3.050   1.903
  844SOL    HW1 2548   1.466   2.974   1.960
  844SOL    HW2 2549   1.342   3.077   1.933
  845SOL     OW 2550   0.297   1.897   2.033
  845SOL    HW1 2551   0.346   1.981   2.012
  845SOL    HW2 2552   0.359   1.832   2.078
  846SOL     OW 2553   0.935   2.098   2.342
  846SOL    HW1 2554   0.887   2.139   2.264
  846SOL    HW2 2555   1.034   2.096   2.323
  847SOL     OW 2556   1.076   2.545   3.326
  847SOL    HW1 2557   0.996   2.484   3.329
  847SOL    HW2 2558   1.157   2.492   3.302
  848SOL     OW 2559   1.227   3.432   2.655
  848SOL    HW1 2560   1.248   3.506   2.590
  848SOL    HW2 2561   1.295   3.432   2.728
  849SOL     OW 2562   0.459   3.014   2.603
  849SOL    HW1 2563   0.388   2.987   2.668
  849SOL    HW2 2564   0.433   2.986   2.510
  850SOL     OW 2565   1.271   3.659   2.453
  850SOL    HW1 2566   1.315   3.723   2.389
  850SOL    HW2 2567   1.221   3.711   2.523
  851SOL     OW 2568   1.032   2.411   1.878
  851SOL    HW1 2569   0.991   2.493   1.839
  851SOL    HW2 2570   1.096   2.437   1.951
  852SOL     OW 2571   0.078   2.418   3.248
  852SOL    HW1 2572   0.170   2.417   3.207
  852SOL    HW2 2573   0.072   2.492   3.315
  853SOL     OW 2574   0.561   2.084   3.009
  853SOL    HW1 2575   0.599   2.000   3.046
  853SOL    HW2 2576   0.473   2.103   3.053
  854SOL     OW 2577   0.866   2.316   2.504
  854SOL    HW1 2578   0.834   2.388   2.442
  854SOL    HW2 2579   0.890   2.235   2.451
  855SOL     OW 2580   1.017   1.901   2.615
  855SOL    HW1 2581   0.945   1.906   2.546
  855SOL    HW2 2582   0.993   1.832   2.684
  856SOL     OW 2583   1.429   3.035   2.729
  856SOL    HW1 2584   1.374   2.951   2.722
  856SOL    HW2 2585   1.455   3.064   2.637
  857SOL     OW 2586   1.466   2.452   2.854
  857SOL    HW1 2587   1.436   2.357   2.861
  857SOL    HW2 2588   1.539   2.468   2.920
  858SOL     OW 2589   1.857   2.695   2.239
  858SOL    HW1 2590   1.899   2.631   2.303
  858SOL    HW2 2591   1.819   2.644   2.161
  859SOL     OW 2592   0.488   3.247   2.036
  859SOL    HW1 2593   0.401   3.232   2.083
  859SOL    HW2 2594   0.471   3.273   1.941
  860SOL     OW 2595   1.664   3.142   2.519
  860SOL    HW1 2596   1.763   3.150   2.533
  860SOL    HW2 2597   1.619   3.226   2.550
  861SOL     OW 2598   1.390   2.437   1.940
  861SOL    HW1 2599   1.336   2.416   2.021
  861SOL    HW2 2600   1.481   2.396   1.949
  862SOL     OW 2601   0.527   2.118   2.190
  862SOL    HW1 2602   0.554   2.059   2.115
  862SOL    HW2 2603   0.527   2.213   2.159
  863SOL     OW 2604   1.754   3.085   3.450
  863SOL    HW1 2605   1.845   3.046   3.437
  863SOL    HW2 2606   1.762   3.181   3.474
  864SOL     OW 2607   1.064   3.209   3.202
  864SOL    HW1 2608   0.984   3.186   3.257
  864SOL    HW2 2609   1.147   3.183   3.251
  865SOL     OW 2610   1.592   3.491   3.487
  865SOL    HW1 2611   1.619   3.525   3.397
  865SOL    HW2 2612   1.671   3.453   3.533
  866SOL     OW 2613   1.111   3.057   2.962
  866SOL    HW1 2614   1.071   3.101   3.043
  866SOL    HW2 2615   1.070   3.094   2.879
  867SOL     OW 2616   1.638   2.961   2.941
  867SOL    HW1 2617   1.643   3.042   3.000
  867SOL    HW2 2618   1.552   2.963   2.890
  868SOL     OW 2619   0.915   1.951   3.264
  868SOL    HW1 2620   0.940   1.931   3.169
  868SOL    HW2 2621   0.987   2.007   3.306
  869SOL     OW 2622   0.980   2.978   3.581
  869SOL    HW1 2623   0.881   2.984   3.591
  869SOL    HW2 2624   1.003   2.898   3.525
  870SOL     OW 2625   0.705   2.912   2.230
  870SOL    HW1 2626   0.691   2.919   2.329
  870SOL    HW2 2627   0.789   2.861   2.212
  871SOL     OW 2628   0.410   2.675   3.113
  871SOL    HW1 2629   0.496   2.687   3.163
  871SOL    HW2 2630   0.368   2.588   3.140
  872SOL     OW 2631   1.274   2.248   3.124
  872SOL    HW1 2632   1.295   2.322   3.188
  872SOL    HW2 2633   1.185   2.265   3.081
  873SOL     OW 2634   0.064   3.426   3.193
  873SOL    HW1 2635   0.018   3.508   3.159
  873SOL    HW2 2636   0.162   3.445   3.202
  874SOL     OW 2637   0.367   2.962   2.363
  874SOL    HW1 2638   0.360   3.045   2.307
  874SOL    HW2 2639   0.371   2.882   2.303
  875SOL     OW 2640   0.566   2.399   2.727
  875SOL    HW1 2641   0.578   2.465   2.653
  875SOL    HW2 2642   0.612   2.433   2.810
  876SOL     OW 2643   1.252   3.210   2.250
  876SOL    HW1 2644   1.302   3.287   2.290
  876SOL    HW2 2645   1.157   3.212   2.282
  877SOL     OW 2646   1.272   3.307   3.004
  877SOL    HW1 2647   1.319   3.320   3.091
  877SOL    HW2 2648   1.206   3.233   3.013
  878SOL     OW 2649   1.582   2.501   2.334
  878SOL    HW1 2650   1.551   2.562   2.407
  878SOL    HW2 2651   1.632   2.553   2.265
  879SOL     OW 2652   0.354   3.372   3.191
  879SOL    HW1 2653   0.333   3.328   3.104
  879SOL    HW2 2654   0.451   3.398   3.194
  880SOL     OW 2655   0.402   2.613   3.460
  880SOL    HW1 2656   0.470   2.668   3.413
  880SOL    HW2 2657   0.442   2.525   3.487
  881SOL     OW 2658   1.587   2.641   3.532
  881SOL    HW1 2659   1.495   2.679   3.527
  881SOL    HW2 2660   1.647   2.688   3.467
  882SOL     OW 2661   1.013   1.967   3.632
  882SOL    HW1 2662   1.019   2.052   3.580
  882SOL    HW2 2663   1.045   1.891   3.575
  883SOL     OW 2664   0.504   1.912   3.602
  883SOL    HW1 2665   0.462   1.855   3.532
  883SOL    HW2 2666   0.438   1.981   3.634
  884SOL     OW 2667   0.573   2.732   2.891
  884SOL    HW1 2668   0.617   2.821   2.882
  884SOL    HW2 2669   0.510   2.732   2.968
  885SOL     OW 2670   1.360   2.724   2.907
  885SOL    HW1 2671   1.285   2.724   2.841
  885SOL    HW2 2672   1.397   2.632   2.916
  886SOL     OW 2673   1.209   2.387   2.137
  886SOL    HW1 2674   1.222   2.303   2.191
  886SOL    HW2 2675   1.180   2.461   2.197
  887SOL     OW 2676   0.307   2.075   3.093
  887SOL    HW1 2677   0.284   2.112   3.183
  887SOL    HW2 2678   0.277   1.980   3.087
  888SOL     OW 2679   0.037   3.172   3.144
  888SOL    HW1 2680   0.090   3.123   3.212
  888SOL    HW2 2681   0.059   3.270   3.149
  889SOL     OW 2682   0.732   2.496   2.926
  889SOL    HW1 2683   0.791   2.470   2.850
  889SOL    HW2 2684   0.704   2.592   2.915
  890SOL     OW 2685   1.728   2.797   3.716
  890SOL    HW1 2686   1.682   2.790   3.627
  890SOL    HW2 2687   1.666   2.841   3.782
  891SOL     OW 2688   0.307   1.925   2.480
  891SOL    HW1 2689   0.296   2.019   2.513
  891SOL    HW2 2690   0.302   1.862   2.557
  892SOL     OW 2691   1.622   2.229   2.236
  892SOL    HW1 2692   1.624   2.153   2.300
  892SOL    HW2 2693   1.574   2.306   2.276
  893SOL     OW 2694   1.023   2.628   2.828
  893SOL    HW1 2695   1.038   2.649   2.924
  893SOL    HW2 2696   0.993   2.533   2.819
  894SOL     OW 2697   0.980   3.435   3.562
  894SOL    HW1 2698   0.960   3.479   3.474
  894SOL    HW2 2699   1.019   3.344   3.546
  895SOL     OW 2700   1.859   3.380   3.467
  895SOL    HW1 2701   1.873   3.407   3.372
  895SOL    HW2 2702   1.942   3.402   3.520
  896SOL     OW 2703   0.350   2.760   3.666
  896SOL    HW1 2704   0.426   2.804   3.714
  896SOL    HW2 2705   0.385   2.713   3.584
  897SOL     OW 2706   1.540   2.136   1.987
  897SOL    HW1 2707   1.479   2.061   2.010
  897SOL    HW2 2708   1.562   2.188   2.070
  898SOL     OW 2709   1.303   2.700   1.904
  898SOL    HW1 2710   1.337   2.607   1.919
  898SOL    HW2 2711   1.321   2.727   1.809
  899SOL     OW 2712   1.068   3.195   2.711
  899SOL    HW1 2713   1.075   3.111   2.656
  899SOL    HW2 2714   1.130   3.264   2.675
  900SOL     OW 2715   0.319   2.672   2.811
  900SOL    HW1 2716   0.412   2.708   2.816
  900SOL    HW2 2717   0.313   2.587   2.863
  901SOL     OW 2718   0.339   2.371   2.868
  901SOL    HW1 2719   0.287   2.288   2.851
  901SOL    HW2 2720   0.416   2.376   2.804
  902SOL     OW 2721   1.138   2.242   3.540
  902SOL    HW1 2722   1.093   2.305   3.604
  902SOL    HW2 2723   1.231   2.273   3.523
  903SOL     OW 2724   1.160   2.069   3.339
  903SOL    HW1 2725   1.160   2.133   3.416
  903SOL    HW2 2726   1.188   2.117   3.256
  904SOL     OW 2727   0.008   3.188   2.062
  904SOL    HW1 2728  -0.085   3.209   2.031
  904SOL    HW2 2729   0.018   3.089   2.075
  905SOL     OW 2730   0.088   3.663   2.789
  905SOL    HW1 2731   0.046   3.577   2.762
  905SOL    HW2 2732   0.182   3.666   2.755
  906SOL     OW 2733   0.504   3.430   2.772
  906SOL    HW1 2734   0.570   3.504   2.781
  906SOL    HW2 2735   0.548   3.351   2.730
  907SOL     OW 2736   1.002   2.658   3.100
  907SOL    HW1 2737   1.043   2.626   3.186
  907SOL    HW2 2738   0.906   2.631   3.097
  908SOL     OW 2739   0.040   2.406   2.976
  908SOL    HW1 2740   0.125   2.373   2.935
  908SOL    HW2 2741   0.053   2.421   3.074
  909SOL     OW 2742   0.189   2.382   3.584
  909SOL    HW1 2743   0.248   2.342   3.514
  909SOL    HW2 2744   0.131   2.453   3.543
  910SOL     OW 2745   1.369   2.812   3.522
  910SOL    HW1 2746   1.408   2.901   3.542
  910SOL    HW2 2747   1.379   2.792   3.425
  911SOL     OW 2748   0.815   2.434   2.187
  911SOL    HW1 2749   0.822   2.345   2.141
  911SOL    HW2 2750   0.721   2.468   2.179
  912SOL     OW 2751   1.657   2.466   3.068
  912SOL    HW1 2752   1.619   2.397   3.130
  912SOL    HW2 2753   1.739   2.430   3.024
  913SOL     OW 2754   0.252   3.426   3.606
  913SOL    HW1 2755   0.222   3.483   3.682
  913SOL    HW2 2756   0.245   3.329   3.632
  914SOL     OW 2757   0.671   2.326   3.131
  914SOL    HW1 2758   0.637   2.237   3.101
  914SOL    HW2 2759   0.697   2.380   3.051
  915SOL     OW 2760   0.930   3.540   3.327
  915SOL    HW1 2761   0.906   3.522   3.232
  915SOL    HW2 2762   0.960   3.634   3.337
  916SOL     OW 2763   0.473   2.362   2.053
  916SOL    HW1 2764   0.534   2.442   2.057
  916SOL    HW2 2765   0.378   2.393   2.060
  917SOL     OW 2766   0.159   2.999   3.328
  917SOL    HW1 2767   0.181   2.938   3.404
  917SOL    HW2 2768   0.169   2.950   3.242
  918SOL     OW 2769   1.347   2.921   3.096
  918SOL    HW1 2770   1.371   2.858   3.022
  918SOL    HW2 2771   1.257   2.961   3.078
  919SOL     OW 2772   1.302   2.717   2.171
  919SOL    HW1 2773   1.216   2.686   2.213
  919SOL    HW2 2774   1.298   2.703   2.072
  920SOL     OW 2775   1.759   3.609   3.016
  920SOL    HW1 2776   1.820   3.639   2.943
  920SOL    HW2 2777   1.721   3.520   2.994
  921SOL     OW 2778   1.252   3.593   2.990
  921SOL    HW1 2779   1.336   3.598   2.936
  921SOL    HW2 2780   1.229   3.497   3.008
  922SOL     OW 2781   0.083   3.120   2.884
  922SOL    HW1 2782   0.078   3.119   2.984
  922SOL    HW2 2783   0.000   3.079   2.846
  923SOL     OW 2784   0.688   3.524   3.578
  923SOL    HW1 2785   0.632   3.605   3.587
  923SOL    HW2 2786   0.740   3.528   3.492
  924SOL     OW 2787   1.726   1.997   2.385
  924SOL    HW1 2788   1.799   1.980   2.318
  924SOL    HW2 2789   1.695   1.910   2.423
  925SOL     OW 2790   1.388   3.435   2.339
  925SOL    HW1 2791   1.455   3.447   2.265
  925SOL    HW2 2792   1.348   3.524   2.362
  926SOL     OW 2793   0.130   3.656   3.713
  926SOL    HW1 2794   0.089   3.582   3.766
  926SOL    HW2 2795   0.194   3.707   3.771
  927SOL     OW 2796   1.280   2.789   2.534
  927SOL    HW1 2797   1.340   2.708   2.536
  927SOL    HW2 2798   1.320   2.858   2.474
  928SOL     OW 2799   0.830   3.135   3.284
  928SOL    HW1 2800   0.825   3.168   3.379
  928SOL    HW2 2801   0.744   3.154   3.238
  929SOL     OW 2802   0.672   3.478   2.016
  929SOL    HW1 2803   0.681   3.488   1.917
  929SOL    HW2 2804   0.632   3.389   2.037
  930SOL     OW 2805   1.650   3.582   3.256
  930SOL    HW1 2806   1.703   3.592   3.172
  930SOL    HW2 2807   1.623   3.672   3.290
  931SOL     OW 2808   1.841   2.037   2.825
  931SOL    HW1 2809   1.880   1.952   2.789
  931SOL    HW2 2810   1.743   2.039   2.806
  932SOL     OW 2811   0.263   2.188   2.582
  932SOL    HW1 2812   0.184   2.239   2.548
  932SOL    HW2 2813   0.254   2.173   2.680
  933SOL     OW 2814   1.194   3.474   1.893
  933SOL    HW1 2815   1.200   3.381   1.930
  933SOL    HW2 2816   1.135   3.474   1.813
  934SOL     OW 2817   0.822   2.864   3.234
  934SOL    HW1 2818   0.862   2.863   3.142
  934SOL    HW2 2819   0.832   2.956   3.274
  935SOL     OW 2820   0.916   2.772   2.153
  935SOL    HW1 2821   0.979   2.810   2.085
  935SOL    HW2 2822   0.956   2.689   2.192
  936SOL     OW 2823   1.504   3.469   1.906
  936SOL    HW1 2824   1.412   3.506   1.913
  936SOL    HW2 2825   1.542   3.489   1.816
  937SOL     OW 2826   0.372   3.150   3.352
  937SOL    HW1 2827   0.359   3.243   3.318
  937SOL    HW2 2828   0.288   3.098   3.339
  938SOL     OW 2829   1.614   3.154   3.151
  938SOL    HW1 2830   1.674   3.157   3.231
  938SOL    HW2 2831   1.539   3.218   3.164
  939SOL     OW 2832   1.039   2.960   2.558
  939SOL    HW1 2833   0.969   2.913   2.612
  939SOL    HW2 2834   1.098   2.892   2.515
  940SOL     OW 2835   1.014   2.098   2.833
  940SOL    HW1 2836   1.006   2.062   2.740
  940SOL    HW2 2837   1.012   2.022   2.898
  941SOL     OW 2838   0.590   3.349   2.353
  941SOL    HW1 2839   0.632   3.291   2.283
  941SOL    HW2 2840   0.546   3.428   2.309
  942SOL     OW 2841   1.709   2.247   3.243
  942SOL    HW1 2842   1.782   2.316   3.247
  942SOL    HW2 2843   1.737   2.172   3.184
  943SOL     OW 2844   0.255   3.210   2.152
  943SOL    HW1 2845   0.159   3.211   2.125
  943SOL    HW2 2846   0.267   3.263   2.236
  944SOL     OW 2847   0.105   2.875   3.588
  944SOL    HW1 2848   0.028   2.842   3.642
  944SOL    HW2 2849   0.190   2.845   3.630
  945SOL     OW 2850   0.672   2.065   3.351
  945SOL    HW1 2851   0.762   2.049   3.311
  945SOL    HW2 2852   0.680   2.070   3.450
  946SOL     OW 2853   0.075   2.207   1.895
  946SOL    HW1 2854  -0.017   2.179   1.866
  946SOL    HW2 2855   0.106   2.284   1.839
  947SOL     OW 2856   1.440   2.718   3.260
  947SOL    HW1 2857   1.383   2.770   3.197
  947SOL    HW2 2858   1.536   2.730   3.236
  948SOL     OW 2859   0.072   2.028   2.180
  948SOL    HW1 2860   0.055   2.111   2.126
  948SOL    HW2 2861   0.162   1.991   2.158
  949SOL     OW 2862   1.183   3.197   1.981
  949SOL    HW1 2863   1.084   3.186   1.983
  949SOL    HW2 2864   1.217   3.212   2.074
  950SOL     OW 2865   0.613   2.704   3.293
  950SOL    HW1 2866   0.669   2.785   3.276
  950SOL    HW2 2867   0.672   2.624   3.296
  951SOL     OW 2868   1.493   3.629   2.821
  951SOL    HW1 2869   1.526   3.693   2.752
  951SOL    HW2 2870   1.559   3.623   2.896
  952SOL     OW 2871   0.716   2.427   3.570
  952SOL    HW1 2872   0.735   2.492   3.644
  952SOL    HW2 2873   0.776   2.347   3.579
  953SOL     OW 2874   1.450   3.082   3.495
  953SOL    HW1 2875   1.441   3.072   3.594
  953SOL    HW2 2876   1.546   3.075   3.469
  954SOL     OW 2877   0.390   3.603   3.422
  954SOL    HW1 2878   0.299   3.644   3.420
  954SOL    HW2 2879   0.383   3.509   3.454
  955SOL     OW 2880   1.674   2.745   3.116
  955SOL    HW1 2881   1.647   2.656   3.079
  955SOL    HW2 2882   1.675   2.813   3.043
  956SOL     OW 2883   1.225   2.187   2.311
  956SOL    HW1 2884   1.290   2.113   2.300
  956SOL    HW2 2885   1.245   2.237   2.395
  957SOL     OW 2886   0.594   2.607   2.514
  957SOL    HW1 2887   0.644   2.692   2.495
  957SOL    HW2 2888   0.506   2.609   2.466
  958SOL     OW 2889   1.777   2.204   3.504
  958SOL    HW1 2890   1.760   2.235   3.410
  958SOL    HW2 2891   1.693   2.167   3.542
  959SOL     OW 2892   1.730   2.796   3.379
  959SOL    HW1 2893   1.768   2.887   3.394
  959SOL    HW2 2894   1.722   2.779   3.280
  960SOL     OW 2895   0.859   3.236   1.878
  960SOL    HW1 2896   0.813   3.251   1.966
  960SOL    HW2 2897   0.903   3.321   1.848
  961SOL     OW 2898   0.661   3.652   2.815
  961SOL    HW1 2899   0.615   3.740   2.802
  961SOL    HW2 2900   0.760   3.664   2.808
  962SOL     OW 2901   0.859   2.818   2.723
  962SOL    HW1 2902   0.913   2.749   2.771
  962SOL    HW2 2903   0.827   2.887   2.789
  963SOL     OW 2904   1.083   2.846   1.949
  963SOL    HW1 2905   1.060   2.899   1.867
  963SOL    HW2 2906   1.164   2.790   1.930
  964SOL     OW 2907   1.861   3.431   2.713
  964SOL    HW1 2908   1.790   3.419   2.643
  964SOL    HW2 2909   1.862   3.352   2.773
  965SOL     OW 2910   0.221   3.176   3.706
  965SOL    HW1 2911   0.156   3.103   3.685
  965SOL    HW2 2912   0.225   3.190   3.804
  966SOL     OW 2913   0.079   3.102   2.515
  966SOL    HW1 2914   0.078   3.055   2.603
  966SOL    HW2 2915   0.161   3.074   2.464
  967SOL     OW 2916   0.672   3.253   3.486
  967SOL    HW1 2917   0.594   3.203   3.524
  967SOL    HW2 2918   0.669   3.348   3.517
  968SOL     OW 2919   1.824   2.054   3.089
  968SOL    HW1 2920   1.820   1.964   3.133
  968SOL    HW2 2921   1.827   2.043   2.990
  969SOL     OW 2922   0.428   2.286   2.382
  969SOL    HW1 2923   0.458   2.214   2.320
  969SOL    HW2 2924   0.389   2.246   2.465
  970SOL     OW 2925   1.705   3.349   2.966
  970SOL    HW1 2926   1.612   3.324   2.939
  970SOL    HW2 2927   1.731   3.299   3.048
  971SOL     OW 2928   0.317   2.409   3.142
  971SOL    HW1 2929   0.355   2.350   3.214
  971SOL    HW2 2930   0.357   2.383   3.054
  972SOL     OW 2931   0.812   3.448   2.549
  972SOL    HW1 2932   0.844   3.458   2.455
  972SOL    HW2 2933   0.733   3.386   2.551
  973SOL     OW 2934   1.424   2.076   2.974
  973SOL    HW1 2935   1.476   2.011   3.029
  973SOL    HW2 2936   1.375   2.139   3.035
  974SOL     OW 2937   1.001   1.896   3.016
  974SOL    HW1 2938   0.938   1.824   2.985
  974SOL    HW2 2939   1.094   1.860   3.016
  975SOL     OW 2940   0.770   3.192   2.163
  975SOL    HW1 2941   0.724   3.105   2.180
  975SOL    HW2 2942   0.861   3.189   2.204
  976SOL     OW 2943   0.618   3.429   3.146
  976SOL    HW1 2944   0.613   3.511   3.203
  976SOL    HW2 2945   0.707   3.426   3.101
  977SOL     OW 2946   1.352   1.914   2.030
  977SOL    HW1 2947   1.387   1.873   1.946
  977SOL    HW2 2948   1.262   1.876   2.050
  978SOL     OW 2949   1.300   2.315   2.553
  978SOL    HW1 2950   1.241   2.395   2.557
  978SOL    HW2 2951   1.315   2.280   2.646
  979SOL     OW 2952   1.593   2.083   2.744
  979SOL    HW1 2953   1.509   2.082   2.798
  979SOL    HW2 2954   1.595   2.166   2.688
  980SOL     OW 2955   0.039   2.939   2.162
  980SOL    HW1 2956   0.138   2.928   2.153
  980SOL    HW2 2957  -0.001   2.853   2.194
  981SOL     OW 2958   0.875   3.508   2.199
  981SOL    HW1 2959   0.798   3.473   2.145
  981SOL    HW2 2960   0.843   3.579   2.261
  982SOL     OW 2961   0.230   2.490   3.837
  982SOL    HW1 2962   0.137   2.488   3.874
  982SOL    HW2 2963   0.231   2.451   3.745
  983SOL     OW 2964   0.225   2.137   4.720
  983SOL    HW1 2965   0.260   2.120   4.812
  983SOL    HW2 2966   0.137   2.092   4.708
  984SOL     OW 2967   0.019   2.230   4.371
  984SOL    HW1 2968  -0.063   2.273   4.410
  984SOL    HW2 2969  -0.009   2.157   4.308
  985SOL     OW 2970   1.555   3.373   4.427
  985SOL    HW1 2971   1.498   3.357   4.508
  985SOL    HW2 2972   1.496   3.383   4.347
  986SOL     OW 2973   1.135   2.565   4.441
  986SOL    HW1 2974   1.192   2.643   4.416
  986SOL    HW2 2975   1.075   2.591   4.517
  987SOL     OW 2976   1.755   2.469   3.955
  987SOL    HW1 2977   1.743   2.456   3.856
  987SOL    HW2 2978   1.725   2.388   4.004
  988SOL     OW 2979   0.768   3.006   4.747
  988SOL    HW1 2980   0.690   3.023   4.807
  988SOL    HW2 2981   0.802   3.093   4.711
  989SOL     OW 2982   0.685   2.874   4.389
  989SOL    HW1 2983   0.754   2.858   4.459
  989SOL    HW2 2984   0.612   2.931   4.427
  990SOL     OW 2985   0.335   3.297   4.785
  990SOL    HW1 2986   0.257   3.266   4.732
  990SOL    HW2 2987   0.393   3.355   4.728
  991SOL     OW 2988   1.603   2.309   4.461
  991SOL    HW1 2989   1.529   2.355   4.411
  991SOL    HW2 2990   1.654   2.377   4.514
  992SOL     OW 2991   0.231   3.575   4.207
  992SOL    HW1 2992   0.265   3.652   4.261
  992SOL    HW2 2993   0.275   3.575   4.117
  993SOL     OW 2994   0.230   3.296   4.262
  993SOL    HW1 2995   0.204   3.392   4.262
  993SOL    HW2 2996   0.159   3.242   4.307
  994SOL     OW 2997   0.240   2.953   4.610
  994SOL    HW1 2998   0.254   2.869   4.662
  994SOL    HW2 2999   0.185   3.017   4.665
  995SOL     OW 3000   0.606   2.826   3.847
  995SOL    HW1 3001   0.613   2.910   3.793
  995SOL    HW2 3002   0.652   2.839   3.935
  996SOL     OW 3003   0.122   2.505   4.287
  996SOL    HW1 3004   0.077   2.417   4.304
  996SOL    HW2 3005   0.121   2.559   4.371
  997SOL     OW 3006   1.842   3.629   4.083
  997SOL    HW1 3007   1.896   3.600   4.163
  997SOL    HW2 3008   1.872   3.719   4.054
  998SOL     OW 3009   0.027   3.458   3.841
  998SOL    HW1 3010   0.008   3.362   3.862
  998SOL    HW2 3011  -0.006   3.516   3.916
  999SOL     OW 3012   1.689   2.784   4.336
  999SOL    HW1 3013   1.784   2.755   4.344
  999SOL    HW2 3014   1.681   2.849   4.261
 1000SOL     OW 3015   1.641   2.970   4.156
 1000SOL    HW1 3016   1.727   2.972   4.104
 1000SOL    HW2 3017   1.655   3.017   4.244
 1001SOL     OW 3018   0.613   3.227   4.450
 1001SOL    HW1 3019   0.564   3.140   4.459
 1001SOL    HW2 3020   0.590   3.270   4.363
 1002SOL     OW 3021   0.809   1.866   4.226
 1002SOL    HW1 3022   0.849   1.957   4.217
 1002SOL    HW2 3023   0.709   1.874   4.232
 1003SOL     OW 3024   0.197   2.838   4.988
 1003SOL    HW1 3025   0.286   2.793   4.974
 1003SOL    HW2 3026   0.124   2.773   4.969
 1004SOL     OW 3027   1.525   2.861   3.914
 1004SOL    HW1 3028   1.462   2.785   3.927
 1004SOL    HW2 3029   1.573   2.879   4.000
 1005SOL     OW 3030   1.466   3.279   4.677
 1005SOL    HW1 3031   1.407   3.285   4.757
 1005SOL    HW2 3032   1.451   3.191   4.631
 1006SOL     OW 3033   1.667   3.576   4.296
 1006SOL    HW1 3034   1.626   3.553   4.208
 1006SOL    HW2 3035   1.649   3.502   4.361
 1007SOL     OW 3036   0.598   2.591   3.994
 1007SOL    HW1 3037   0.622   2.660   3.926
 1007SOL    HW2 3038   0.520   2.624   4.048
 1008SOL     OW 3039   1.281   2.207   4.668
 1008SOL    HW1 3040   1.195   2.157   4.655
 1008SOL    HW2 3041   1.343   2.153   4.724
 1009SOL     OW 3042   1.576   3.524   4.031
 1009SOL    HW1 3043   1.665   3.570   4.034
 1009SOL    HW2 3044   1.555   3.500   3.936
 1010SOL     OW 3045   1.041   2.563   4.153
 1010SOL    HW1 3046   1.067   2.559   4.249
 1010SOL    HW2 3047   0.956   2.512   4.139
 1011SOL     OW 3048   0.076   2.673   4.513
 1011SOL    HW1 3049   0.175   2.661   4.522
 1011SOL    HW2 3050   0.052   2.768   4.534
 1012SOL     OW 3051   0.865   2.210   3.919
 1012SOL    HW1 3052   0.924   2.273   3.870
 1012SOL    HW2 3053   0.884   2.116   3.890
 1013SOL     OW 3054   1.362   3.006   4.269
 1013SOL    HW1 3055   1.445   2.977   4.221
 1013SOL    HW2 3056   1.313   3.073   4.213
 1014SOL     OW 3057   0.550   2.058   4.609
 1014SOL    HW1 3058   0.545   2.053   4.709
 1014SOL    HW2 3059   0.552   2.154   4.580
 1015SOL     OW 3060   1.008   3.318   4.201
 1015SOL    HW1 3061   0.962   3.390   4.149
 1015SOL    HW2 3062   1.004   3.338   4.299
 1016SOL     OW 3063   0.351   3.663   4.577
 1016SOL    HW1 3064   0.401   3.577   4.583
 1016SOL    HW2 3065   0.416   3.740   4.574
 1017SOL     OW 3066   1.795   2.928   4.597
 1017SOL    HW1 3067   1.733   2.913   4.521
 1017SOL    HW2 3068   1.743   2.939   4.682
 1018SOL     OW 3069   0.321   2.805   3.966
 1018SOL    HW1 3070   0.403   2.844   3.924
 1018SOL    HW2 3071   0.294   2.723   3.917
 1019SOL     OW 3072   1.458   2.597   4.452
 1019SOL    HW1 3073   1.453   2.532   4.527
 1019SOL    HW2 3074   1.538   2.656   4.465
 1020SOL     OW 3075   1.111   3.638   3.961
 1020SOL    HW1 3076   1.051   3.576   4.011
 1020SOL    HW2 3077   1.142   3.594   3.876
 1021SOL     OW 3078   1.632   3.239   3.805
 1021SOL    HW1 3079   1.600   3.333   3.795
 1021SOL    HW2 3080   1.556   3.176   3.793
 1022SOL     OW 3081   0.464   3.605   4.047
 1022SOL    HW1 3082   0.497   3.644   4.133
 1022SOL    HW2 3083   0.540   3.598   3.982
 1023SOL     OW 3084   1.400   1.969   4.150
 1023SOL    HW1 3085   1.376   1.932   4.060
 1023SOL    HW2 3086   1.499   1.985   4.154
 1024SOL     OW 3087   0.249   3.647   4.965
 1024SOL    HW1 3088   0.306   3.582   5.015
 1024SOL    HW2 3089   0.233   3.614   4.872
 1025SOL     OW 3090   0.940   3.560   4.628
 1025SOL    HW1 3091   1.020   3.503   4.649
 1025SOL    HW2 3092   0.891   3.520   4.551
 1026SOL     OW 3093   0.382   2.562   4.204
 1026SOL    HW1 3094   0.427   2.472   4.201
 1026SOL    HW2 3095   0.288   2.551   4.237
 1027SOL     OW 3096   0.614   1.984   3.841
 1027SOL    HW1 3097   0.712   1.962   3.848
 1027SOL    HW2 3098   0.583   1.967   3.748
 1028SOL     OW 3099   0.803   3.264   4.648
 1028SOL    HW1 3100   0.893   3.278   4.606
 1028SOL    HW2 3101   0.732   3.266   4.577
 1029SOL     OW 3102   0.922   2.365   4.623
 1029SOL    HW1 3103   0.897   2.356   4.527
 1029SOL    HW2 3104   0.970   2.283   4.654
 1030SOL     OW 3105   0.539   1.926   4.236
 1030SOL    HW1 3106   0.458   1.927   4.294
 1030SOL    HW2 3107   0.542   2.009   4.181
 1031SOL     OW 3108   1.434   3.050   3.765
 1031SOL    HW1 3109   1.466   2.974   3.822
 1031SOL    HW2 3110   1.342   3.077   3.795
 1032SOL     OW 3111   0.297   1.897   3.895
 1032SOL    HW1 3112   0.346   1.981   3.874
 1032SOL    HW2 3113   0.359   1.832   3.940
 1033SOL     OW 3114   0.935   2.098   4.204
 1033SOL    HW1 3115   0.887   2.139   4.126
 1033SOL    HW2 3116   1.034   2.096   4.185
 1034SOL     OW 3117   1.227   3.432   4.517
 1034SOL    HW1 3118   1.248   3.506   4.452
 1034SOL    HW2 3119   1.295   3.432   4.590
 1035SOL     OW 3120   0.459   3.014   4.465
 1035SOL    HW1 3121   0.388   2.987   4.530
 1035SOL    HW2 3122   0.433   2.986   4.372
 1036SOL     OW 3123   1.271   3.659   4.315
 1036SOL    HW1 3124   1.315   3.723   4.251
 1036SOL    HW2 3125   1.221   3.711   4.385
 1037SOL     OW 3126   1.032   2.411   3.740
 1037SOL    HW1 3127   0.991   2.493   3.701
 1037SOL    HW2 3128   1.096   2.437   3.813
 1038SOL     OW 3129   0.866   2.316   4.366
 1038SOL    HW1 3130   0.834   2.388   4.304
 1038SOL    HW2 3131   0.890   2.235   4.313
 1039SOL     OW 3132   1.017   1.901   4.477
 1039SOL    HW1 3133   0.945   1.906   4.408
 1039SOL    HW2 3134   0.993   1.832   4.546
 1040SOL     OW 3135   1.429   3.035   4.591
 1040SOL    HW1 3136   1.374   2.951   4.584
 1040SOL    HW2 3137   1.455   3.064   4.499
 1041SOL     OW 3138   1.466   2.452   4.716
 1041SOL    HW1 3139   1.436   2.357   4.723
 1041SOL    HW2 3140   1.539   2.468   4.782
 1042SOL     OW 3141   1.857   2.695   4.101
 1042SOL    HW1 3142   1.899   2.631   4.165
 1042SOL    HW2 3143   1.819   2.644   4.023
 1043SOL     OW 3144   0.488   3.247   3.898
 1043SOL    HW1 3145   0.401   3.232   3.945
 1043SOL    HW2 3146   0.471   3.273   3.803
 1044SOL     OW 3147   1.664   3.142   4.381
 1044SOL    HW1 3148   1.763   3.150   4.395
 1044SOL    HW2 3149   1.619   3.226   4.412
 1045SOL     OW 3150   1.390   2.437   3.802
 1045SOL    HW1 3151   1.336   2.416   3.883
 1045SOL    HW2 3152   1.481   2.396   3.811
 1046SOL     OW 3153   0.527   2.118   4.052
 1046SOL    HW1 3154   0.554   2.059   3.977
 1046SOL    HW2 3155   0.527   2.213   4.021
 1047SOL     OW 3156   1.111   3.057   4.824
 1047SOL    HW1 3157   1.071   3.101   4.905
 1047SOL    HW2 3158   1.070   3.094   4.741
 1048SOL     OW 3159   1.638   2.961   4.803
 1048SOL    HW1 3160   1.643   3.042   4.862
 1048SOL    HW2 3161   1.552   2.963   4.752
 1049SOL     OW 3162   0.705   2.912   4.092
 1049SOL    HW1 3163   0.691   2.919   4.191
 1049SOL    HW2 3164   0.789   2.861   4.074
 1050SOL     OW 3165   0.410   2.675   4.975
 1050SOL    HW1 3166   0.496   2.687   5.025
 1050SOL    HW2 3167   0.368   2.588   5.002
 1051SOL     OW 3168   0.367   2.962   4.225
 1051SOL    HW1 3169   0.360   3.045   4.169
 1051SOL    HW2 3170   0.371   2.882   4.165
 1052SOL     OW 3171   0.566   2.399   4.589
 1052SOL    HW1 3172   0.578   2.465   4.515
 1052SOL    HW2 3173   0.612   2.433   4.672
 1053SOL     OW 3174   1.252   3.210   4.112
 1053SOL    HW1 3175   1.302   3.287   4.152
 1053SOL    HW2 3176   1.157   3.212   4.144
 1054SOL     OW 3177   1.582   2.501   4.196
 1054SOL    HW1 3178   1.551   2.562   4.269
 1054SOL    HW2 3179   1.632   2.553   4.127
 1055SOL     OW 3180   0.354   3.372   5.053
 1055SOL    HW1 3181   0.333   3.328   4.966
 1055SOL    HW2 3182   0.451   3.398   5.056
 1056SOL     OW 3183   0.573   2.732   4.753
 1056SOL    HW1 3184   0.617   2.821   4.744
 1056SOL    HW2 3185   0.510   2.732   4.830
 1057SOL     OW 3186   1.209   2.387   3.999
 1057SOL    HW1 3187   1.222   2.303   4.053
 1057SOL    HW2 3188   1.180   2.461   4.059
 1058SOL     OW 3189   0.307   2.075   4.955
 1058SOL    HW1 3190   0.284   2.112   5.045
 1058SOL    HW2 3191   0.277   1.980   4.949
 1059SOL     OW 3192   0.732   2.496   4.788
 1059SOL    HW1 3193   0.791   2.470   4.712
 1059SOL    HW2 3194   0.704   2.592   4.777
 1060SOL     OW 3195   0.307   1.925   4.342
 1060SOL    HW1 3196   0.296   2.019   4.375
 1060SOL    HW2 3197   0.302   1.862   4.419
 1061SOL     OW 3198   1.622   2.229   4.098
 1061SOL    HW1 3199   1.624   2.153   4.162
 1061SOL    HW2 3200   1.574   2.306   4.138
 1062SOL     OW 3201   1.023   2.628   4.690
 1062SOL    HW1 3202   1.038   2.649   4.786
 1062SOL    HW2 3203   0.993   2.533   4.681
 1063SOL     OW 3204   1.540   2.136   3.849
 1063SOL    HW1 3205   1.479   2.061   3.872
 1063SOL    HW2 3206   1.562   2.188   3.932
 1064SOL     OW 3207   1.303   2.700   3.766
 1064SOL    HW1 3208   1.337   2.607   3.781
 1064SOL    HW2 3209   1.321   2.727   3.671
 1065SOL     OW 3210   1.068   3.195   4.573
 1065SOL    HW1 3211   1.075   3.111   4.518
 1065SOL    HW2 3212   1.130   3.264   4.537
 1066SOL     OW 3213   0.319   2.672   4.673
 1066SOL    HW1 3214   0.412   2.708   4.678
 1066SOL    HW2 3215   0.313   2.587   4.725
 1067SOL     OW 3216   0.339   2.371   4.730
 1067SOL    HW1 3217   0.287   2.288   4.713
 1067SOL    HW2 3218   0.416   2.376   4.666
 1068SOL     OW 3219   0.008   3.188   3.924
 1068SOL    HW1 3220  -0.085   3.209   3.893
 1068SOL    HW2 3221   0.018   3.089   3.937
 1069SOL     OW 3222   0.088   3.663   4.651
 1069SOL    HW1 3223   0.046   3.577   4.624
 1069SOL    HW2 3224   0.182   3.666   4.617
 1070SOL     OW 3225   0.504   3.430   4.634
 1070SOL    HW1 3226   0.570   3.504   4.643
 1070SOL    HW2 3227   0.548   3.351   4.592
 1071SOL     OW 3228   1.002   2.658   4.962
 1071SOL    HW1 3229   1.043   2.626   5.048
 1071SOL    HW2 3230   0.906   2.631   4.959
 1072SOL     OW 3231   0.815   2.434   4.049
 1072SOL    HW1 3232   0.822   2.345   4.003
 1072SOL    HW2 3233   0.721   2.468   4.041
 1073SOL     OW 3234   0.671   2.326   4.993
 1073SOL    HW1 3235   0.637   2.237   4.963
 1073SOL    HW2 3236   0.697   2.380   4.913
 1074SOL     OW 3237   0.473   2.362   3.915
 1074SOL    HW1 3238   0.534   2.442   3.919
 1074SOL    HW2 3239   0.378   2.393   3.922
 1075SOL     OW 3240   1.302   2.717   4.033
 1075SOL    HW1 3241   1.216   2.686   4.075
 1075SOL    HW2 3242   1.298   2.703   3.934
 1076SOL     OW 3243   1.759   3.609   4.878
 1076SOL    HW1 3244   1.820   3.639   4.805
 1076SOL    HW2 3245   1.721   3.520   4.856
 1077SOL     OW 3246   0.083   3.120   4.746
 1077SOL    HW1 3247   0.078   3.119   4.846
 1077SOL    HW2 3248   0.000   3.079   4.708
 1078SOL     OW 3249   1.726   1.997   4.247
 1078SOL    HW1 3250   1.799   1.980   4.180
 1078SOL    HW2 3251   1.695   1.910   4.285
 1079SOL     OW 3252   1.388   3.435   4.201
 1079SOL    HW1 3253   1.455   3.447   4.127
 1079SOL    HW2 3254   1.348   3.524   4.224
 1080SOL     OW 3255   1.280   2.789   4.396
 1080SOL    HW1 3256   1.340   2.708   4.398
 1080SOL    HW2 3257   1.320   2.858   4.336
 1081SOL     OW 3258   0.672   3.478   3.878
 1081SOL    HW1 3259   0.681   3.488   3.779
 1081SOL    HW2 3260   0.632   3.389   3.899
 1082SOL     OW 3261   1.841   2.037   4.687
 1082SOL    HW1 3262   1.880   1.952   4.651
 1082SOL    HW2 3263   1.743   2.039   4.668
 1083SOL     OW 3264   0.263   2.188   4.444
 1083SOL    HW1 3265   0.184   2.239   4.410
 1083SOL    HW2 3266   0.254   2.173   4.542
 1084SOL     OW 3267   1.194   3.474   3.755
 1084SOL    HW1 3268   1.200   3.381   3.792
 1084SOL    HW2 3269   1.135   3.474   3.675
 1085SOL     OW 3270   0.916   2.772   4.015
 1085SOL    HW1 3271   0.979   2.810   3.947
 1085SOL    HW2 3272   0.956   2.689   4.054
 1086SOL     OW 3273   1.504   3.469   3.768
 1086SOL    HW1 3274   1.412   3.506   3.775
 1086SOL    HW2 3275   1.542   3.489   3.678
 1087SOL     OW 3276   1.039   2.960   4.420
 1087SOL    HW1 3277   0.969   2.913   4.474
 1087SOL    HW2 3278   1.098   2.892   4.377
 1088SOL     OW 3279   1.014   2.098   4.695
 1088SOL    HW1 3280   1.006   2.062   4.602
 1088SOL    HW2 3281   1.012   2.022   4.760
 1089SOL     OW 3282   0.590   3.349   4.215
 1089SOL    HW1 3283   0.632   3.291   4.145
 1089SOL    HW2 3284   0.546   3.428   4.171
 1090SOL     OW 3285   0.255   3.210   4.014
 1090SOL    HW1 3286   0.159   3.211   3.987
 1090SOL    HW2 3287   0.267   3.263   4.098
 1091SOL     OW 3288   0.075   2.207   3.757
 1091SOL    HW1 3289  -0.017   2.179   3.728
 1091SOL    HW2 3290   0.106   2.284   3.701
 1092SOL     OW 3291   0.072   2.028   4.042
 1092SOL    HW1 3292   0.055   2.111   3.988
 1092SOL    HW2 3293   0.162   1.991   4.020
 1093SOL     OW 3294   1.183   3.197   3.843
 1093SOL    HW1 3295   1.084   3.186   3.845
 1093SOL    HW2 3296   1.217   3.212   3.936
 1094SOL     OW 3297   1.493   3.629   4.683
 1094SOL    HW1 3298   1.526   3.693   4.614
 1094SOL    HW2 3299   1.559   3.623   4.758
 1095SOL     OW 3300   1.674   2.745   4.978
 1095SOL    HW1 3301   1.647   2.656   4.941
 1095SOL    HW2 3302   1.675   2.813   4.905
 1096SOL     OW 3303   1.225   2.187   4.173
 1096SOL    HW1 3304   1.290   2.113   4.162
 1096SOL    HW2 3305   1.245   2.237   4.257
 1097SOL     OW 3306   0.594   2.607   4.376
 1097SOL    HW1 3307   0.644   2.692   4.357
 1097SOL    HW2 3308   0.506   2.609   4.328
 1098SOL     OW 3309   0.859   3.236   3.740
 1098SOL    HW1 3310   0.813   3.251   3.828
 1098SOL    HW2 3311   0.903   3.321   3.710
 1099SOL     OW 3312   0.661   3.652   4.677
 1099SOL    HW1 3313   0.615   3.740   4.664
 1099SOL    HW2 3314   0.760   3.664   4.670
 1100SOL     OW 3315   0.859   2.818   4.585
 1100SOL    HW1 3316   0.913   2.749   4.633
 1100SOL    HW2 3317   0.827   2.887   4.651
 1101SOL     OW 3318   1.083   2.846   3.811
 1101SOL    HW1 3319   1.060   2.899   3.729
 1101SOL    HW2 3320   1.164   2.790   3.792
 1102SOL     OW 3321   1.861   3.431   4.575
 1102SOL    HW1 3322   1.790   3.419   4.505
 1102SOL    HW2 3323   1.862   3.352   4.635
 1103SOL     OW 3324   0.079   3.102   4.377
 1103SOL    HW1 3325   0.078   3.055   4.465
 1103SOL    HW2 3326   0.161   3.074   4.326
 1104SOL     OW 3327   1.824   2.054   4.951
 1104SOL    HW1 3328   1.820   1.964   4.995
 1104SOL    HW2 3329   1.827   2.043   4.852
 1105SOL     OW 3330   0.428   2.286   4.244
 1105SOL    HW1 3331   0.458   2.214   4.182
 1105SOL    HW2 3332   0.389   2.246   4.327
 1106SOL     OW 3333   0.812   3.448   4.411
 1106SOL    HW1 3334   0.844   3.458   4.317
 1106SOL    HW2 3335   0.733   3.386   4.413
 1107SOL     OW 3336   1.424   2.076   4.836
 1107SOL    HW1 3337   1.476   2.011   4.891
 1107SOL    HW2 3338   1.375   2.139   4.897
 1108SOL     OW 3339   0.770   3.192   4.025
 1108SOL    HW1 3340   0.724   3.105   4.042
 1108SOL    HW2 3341   0.861   3.189   4.066
 1109SOL     OW 3342   1.352   1.914   3.892
 1109SOL    HW1 3343   1.387   1.873   3.808
 1109SOL    HW2 3344   1.262   1.876   3.912
 1110SOL     OW 3345   1.300   2.315   4.415
 1110SOL    HW1 3346   1.241   2.395   4.419
 1110SOL    HW2 3347   1.315   2.280   4.508
 1111SOL     OW 3348   1.593   2.083   4.606
 1111SOL    HW1 3349   1.509   2.082   4.660
 1111SOL    HW2 3350   1.595   2.166   4.550
 1112SOL     OW 3351   0.039   2.939   4.024
 1112SOL    HW1 3352   0.138   2.928   4.015
 1112SOL    HW2 3353  -0.001   2.853   4.056
 1113SOL     OW 3354   0.875   3.508   4.061
 1113SOL    HW1 3355   0.798   3.473   4.007
 1113SOL    HW2 3356   0.843   3.579   4.123
 1114SOL     OW 3357   0.230   4.352   0.113
 1114SOL    HW1 3358   0.137   4.350   0.150
 1114SOL    HW2 3359   0.231   4.313   0.021
 1115SOL     OW 3360   0.225   3.999   0.996
 1115SOL    HW1 3361   0.260   3.982   1.088
 1115SOL    HW2 3362   0.137   3.954   0.984
 1116SOL     OW 3363   0.019   4.092   0.647
 1116SOL    HW1 3364  -0.063   4.135   0.686
 1116SOL    HW2 3365  -0.009   4.019   0.584
 1117SOL     OW 3366   1.135   4.427   0.717
 1117SOL    HW1 3367   1.192   4.505   0.692
 1117SOL    HW2 3368   1.075   4.453   0.793
 1118SOL     OW 3369   1.755   4.331   0.231
 1118SOL    HW1 3370   1.743   4.318   0.132
 1118SOL    HW2 3371   1.725   4.250   0.280
 1119SOL     OW 3372   0.768   4.868   1.023
 1119SOL    HW1 3373   0.690   4.885   1.083
 1119SOL    HW2 3374   0.802   4.955   0.987
 1120SOL     OW 3375   0.850   4.522   1.823
 1120SOL    HW1 3376   0.846   4.598   1.888
 1120SOL    HW2 3377   0.872   4.558   1.732
 1121SOL     OW 3378   0.685   4.736   0.665
 1121SOL    HW1 3379   0.754   4.720   0.735
 1121SOL    HW2 3380   0.612   4.793   0.703
 1122SOL     OW 3381   0.438   4.116   1.499
 1122SOL    HW1 3382   0.520   4.060   1.508
 1122SOL    HW2 3383   0.357   4.058   1.503
 1123SOL     OW 3384   1.603   4.171   0.737
 1123SOL    HW1 3385   1.529   4.217   0.687
 1123SOL    HW2 3386   1.654   4.239   0.790
 1124SOL     OW 3387   0.230   5.158   0.538
 1124SOL    HW1 3388   0.204   5.254   0.538
 1124SOL    HW2 3389   0.159   5.104   0.583
 1125SOL     OW 3390   0.240   4.815   0.886
 1125SOL    HW1 3391   0.254   4.731   0.938
 1125SOL    HW2 3392   0.185   4.879   0.941
 1126SOL     OW 3393   0.606   4.688   0.123
 1126SOL    HW1 3394   0.613   4.772   0.069
 1126SOL    HW2 3395   0.652   4.701   0.211
 1127SOL     OW 3396   1.594   3.838   1.480
 1127SOL    HW1 3397   1.576   3.905   1.408
 1127SOL    HW2 3398   1.591   3.884   1.569
 1128SOL     OW 3399   0.122   4.367   0.563
 1128SOL    HW1 3400   0.077   4.279   0.580
 1128SOL    HW2 3401   0.121   4.421   0.647
 1129SOL     OW 3402   1.689   4.646   0.612
 1129SOL    HW1 3403   1.784   4.617   0.620
 1129SOL    HW2 3404   1.681   4.711   0.537
 1130SOL     OW 3405   0.113   4.461   1.597
 1130SOL    HW1 3406   0.201   4.448   1.642
 1130SOL    HW2 3407   0.100   4.558   1.575
 1131SOL     OW 3408   1.293   4.952   1.423
 1131SOL    HW1 3409   1.330   4.879   1.365
 1131SOL    HW2 3410   1.345   4.957   1.508
 1132SOL     OW 3411   0.809   3.728   0.502
 1132SOL    HW1 3412   0.849   3.819   0.493
 1132SOL    HW2 3413   0.709   3.736   0.508
 1133SOL     OW 3414   0.197   4.700   1.264
 1133SOL    HW1 3415   0.286   4.655   1.250
 1133SOL    HW2 3416   0.124   4.635   1.245
 1134SOL     OW 3417   1.525   4.723   0.190
 1134SOL    HW1 3418   1.462   4.647   0.203
 1134SOL    HW2 3419   1.573   4.741   0.276
 1135SOL     OW 3420   0.317   3.975   1.801
 1135SOL    HW1 3421   0.388   4.046   1.807
 1135SOL    HW2 3422   0.229   4.014   1.829
 1136SOL     OW 3423   0.598   4.453   0.270
 1136SOL    HW1 3424   0.622   4.522   0.202
 1136SOL    HW2 3425   0.520   4.486   0.324
 1137SOL     OW 3426   1.281   4.069   0.944
 1137SOL    HW1 3427   1.195   4.019   0.931
 1137SOL    HW2 3428   1.343   4.015   1.000
 1138SOL     OW 3429   0.807   4.329   1.465
 1138SOL    HW1 3430   0.760   4.326   1.554
 1138SOL    HW2 3431   0.756   4.274   1.399
 1139SOL     OW 3432   1.394   4.193   1.674
 1139SOL    HW1 3433   1.374   4.236   1.762
 1139SOL    HW2 3434   1.472   4.131   1.683
 1140SOL     OW 3435   0.973   4.614   1.572
 1140SOL    HW1 3436   1.019   4.530   1.543
 1140SOL    HW2 3437   0.917   4.648   1.497
 1141SOL     OW 3438   0.991   4.134   1.242
 1141SOL    HW1 3439   0.914   4.168   1.296
 1141SOL    HW2 3440   0.957   4.083   1.163
 1142SOL     OW 3441   1.041   4.425   0.429
 1142SOL    HW1 3442   1.067   4.421   0.525
 1142SOL    HW2 3443   0.956   4.374   0.415
 1143SOL     OW 3444   0.076   4.535   0.789
 1143SOL    HW1 3445   0.175   4.523   0.798
 1143SOL    HW2 3446   0.052   4.630   0.810
 1144SOL     OW 3447   0.865   4.072   0.195
 1144SOL    HW1 3448   0.924   4.135   0.146
 1144SOL    HW2 3449   0.884   3.978   0.166
 1145SOL     OW 3450   1.719   4.309   1.831
 1145SOL    HW1 3451   1.693   4.398   1.795
 1145SOL    HW2 3452   1.717   4.241   1.758
 1146SOL     OW 3453   0.550   3.920   0.885
 1146SOL    HW1 3454   0.545   3.915   0.985
 1146SOL    HW2 3455   0.552   4.016   0.856
 1147SOL     OW 3456   1.795   4.790   0.873
 1147SOL    HW1 3457   1.733   4.775   0.797
 1147SOL    HW2 3458   1.743   4.801   0.958
 1148SOL     OW 3459   0.321   4.667   0.242
 1148SOL    HW1 3460   0.403   4.706   0.200
 1148SOL    HW2 3461   0.294   4.585   0.193
 1149SOL     OW 3462   1.458   4.459   0.728
 1149SOL    HW1 3463   1.453   4.394   0.803
 1149SOL    HW2 3464   1.538   4.518   0.741
 1150SOL     OW 3465   0.202   4.009   1.498
 1150SOL    HW1 3466   0.122   4.069   1.485
 1150SOL    HW2 3467   0.192   3.960   1.584
 1151SOL     OW 3468   1.400   3.831   0.426
 1151SOL    HW1 3469   1.376   3.794   0.336
 1151SOL    HW2 3470   1.499   3.847   0.430
 1152SOL     OW 3471   0.382   4.424   0.480
 1152SOL    HW1 3472   0.427   4.334   0.477
 1152SOL    HW2 3473   0.288   4.413   0.513
 1153SOL     OW 3474   1.547   3.946   1.729
 1153SOL    HW1 3475   1.542   3.983   1.821
 1153SOL    HW2 3476   1.475   3.877   1.717
 1154SOL     OW 3477   0.614   3.846   0.117
 1154SOL    HW1 3478   0.712   3.824   0.124
 1154SOL    HW2 3479   0.583   3.829   0.024
 1155SOL     OW 3480   0.781   3.988   1.749
 1155SOL    HW1 3481   0.848   3.927   1.792
 1155SOL    HW2 3482   0.708   4.007   1.814
 1156SOL     OW 3483   1.351   4.314   1.433
 1156SOL    HW1 3484   1.379   4.271   1.518
 1156SOL    HW2 3485   1.376   4.410   1.434
 1157SOL     OW 3486   0.922   4.227   0.899
 1157SOL    HW1 3487   0.897   4.218   0.803
 1157SOL    HW2 3488   0.970   4.145   0.930
 1158SOL     OW 3489   0.539   3.788   0.512
 1158SOL    HW1 3490   0.458   3.789   0.570
 1158SOL    HW2 3491   0.542   3.871   0.457
 1159SOL     OW 3492   0.935   3.960   0.480
 1159SOL    HW1 3493   0.887   4.001   0.402
 1159SOL    HW2 3494   1.034   3.958   0.461
 1160SOL     OW 3495   1.076   4.407   1.464
 1160SOL    HW1 3496   0.996   4.346   1.467
 1160SOL    HW2 3497   1.157   4.354   1.440
 1161SOL     OW 3498   0.459   4.876   0.741
 1161SOL    HW1 3499   0.388   4.849   0.806
 1161SOL    HW2 3500   0.433   4.848   0.648
 1162SOL     OW 3501   1.032   4.273   0.016
 1162SOL    HW1 3502   0.991   4.355  -0.023
 1162SOL    HW2 3503   1.096   4.299   0.089
 1163SOL     OW 3504   0.078   4.280   1.386
 1163SOL    HW1 3505   0.170   4.279   1.345
 1163SOL    HW2 3506   0.072   4.354   1.453
 1164SOL     OW 3507   0.561   3.946   1.147
 1164SOL    HW1 3508   0.599   3.862   1.184
 1164SOL    HW2 3509   0.473   3.965   1.191
 1165SOL     OW 3510   0.866   4.178   0.642
 1165SOL    HW1 3511   0.834   4.250   0.580
 1165SOL    HW2 3512   0.890   4.097   0.589
 1166SOL     OW 3513   1.017   3.763   0.753
 1166SOL    HW1 3514   0.945   3.768   0.684
 1166SOL    HW2 3515   0.993   3.694   0.822
 1167SOL     OW 3516   1.429   4.897   0.867
 1167SOL    HW1 3517   1.374   4.813   0.860
 1167SOL    HW2 3518   1.455   4.926   0.775
 1168SOL     OW 3519   1.466   4.314   0.992
 1168SOL    HW1 3520   1.436   4.219   0.999
 1168SOL    HW2 3521   1.539   4.330   1.058
 1169SOL     OW 3522   1.857   4.557   0.377
 1169SOL    HW1 3523   1.899   4.493   0.441
 1169SOL    HW2 3524   1.819   4.506   0.299
 1170SOL     OW 3525   1.390   4.299   0.078
 1170SOL    HW1 3526   1.336   4.278   0.159
 1170SOL    HW2 3527   1.481   4.258   0.087
 1171SOL     OW 3528   0.527   3.980   0.328
 1171SOL    HW1 3529   0.554   3.921   0.253
 1171SOL    HW2 3530   0.527   4.075   0.297
 1172SOL     OW 3531   1.754   4.947   1.588
 1172SOL    HW1 3532   1.845   4.908   1.575
 1172SOL    HW2 3533   1.762   5.043   1.612
 1173SOL     OW 3534   1.638   4.823   1.079
 1173SOL    HW1 3535   1.643   4.904   1.138
 1173SOL    HW2 3536   1.552   4.825   1.028
 1174SOL     OW 3537   0.915   3.813   1.402
 1174SOL    HW1 3538   0.940   3.793   1.307
 1174SOL    HW2 3539   0.987   3.869   1.444
 1175SOL     OW 3540   0.705   4.774   0.368
 1175SOL    HW1 3541   0.691   4.781   0.467
 1175SOL    HW2 3542   0.789   4.723   0.350
 1176SOL     OW 3543   0.410   4.537   1.251
 1176SOL    HW1 3544   0.496   4.549   1.301
 1176SOL    HW2 3545   0.368   4.450   1.278
 1177SOL     OW 3546   1.274   4.110   1.262
 1177SOL    HW1 3547   1.295   4.184   1.326
 1177SOL    HW2 3548   1.185   4.127   1.219
 1178SOL     OW 3549   0.367   4.824   0.501
 1178SOL    HW1 3550   0.360   4.907   0.445
 1178SOL    HW2 3551   0.371   4.744   0.441
 1179SOL     OW 3552   0.566   4.261   0.865
 1179SOL    HW1 3553   0.578   4.327   0.791
 1179SOL    HW2 3554   0.612   4.295   0.948
 1180SOL     OW 3555   1.582   4.363   0.472
 1180SOL    HW1 3556   1.551   4.424   0.545
 1180SOL    HW2 3557   1.632   4.415   0.403
 1181SOL     OW 3558   0.402   4.475   1.598
 1181SOL    HW1 3559   0.470   4.530   1.551
 1181SOL    HW2 3560   0.442   4.387   1.625
 1182SOL     OW 3561   1.587   4.503   1.670
 1182SOL    HW1 3562   1.495   4.541   1.665
 1182SOL    HW2 3563   1.647   4.550   1.605
 1183SOL     OW 3564   1.013   3.829   1.770
 1183SOL    HW1 3565   1.019   3.914   1.718
 1183SOL    HW2 3566   1.045   3.753   1.713
 1184SOL     OW 3567   0.504   3.774   1.740
 1184SOL    HW1 3568   0.462   3.717   1.670
 1184SOL    HW2 3569   0.438   3.843   1.772
 1185SOL     OW 3570   0.573   4.594   1.029
 1185SOL    HW1 3571   0.617   4.683   1.020
 1185SOL    HW2 3572   0.510   4.594   1.106
 1186SOL     OW 3573   1.360   4.586   1.045
 1186SOL    HW1 3574   1.285   4.586   0.979
 1186SOL    HW2 3575   1.397   4.494   1.054
 1187SOL     OW 3576   1.209   4.249   0.275
 1187SOL    HW1 3577   1.222   4.165   0.329
 1187SOL    HW2 3578   1.180   4.323   0.335
 1188SOL     OW 3579   0.307   3.937   1.231
 1188SOL    HW1 3580   0.284   3.974   1.321
 1188SOL    HW2 3581   0.277   3.842   1.225
 1189SOL     OW 3582   0.037   5.034   1.282
 1189SOL    HW1 3583   0.090   4.985   1.350
 1189SOL    HW2 3584   0.059   5.132   1.287
 1190SOL     OW 3585   0.732   4.358   1.064
 1190SOL    HW1 3586   0.791   4.332   0.988
 1190SOL    HW2 3587   0.704   4.454   1.053
 1191SOL     OW 3588   1.728   4.659   1.854
 1191SOL    HW1 3589   1.682   4.652   1.765
 1191SOL    HW2 3590   1.666   4.703   1.920
 1192SOL     OW 3591   0.307   3.787   0.618
 1192SOL    HW1 3592   0.296   3.881   0.651
 1192SOL    HW2 3593   0.302   3.724   0.695
 1193SOL     OW 3594   1.622   4.091   0.374
 1193SOL    HW1 3595   1.624   4.015   0.438
 1193SOL    HW2 3596   1.574   4.168   0.414
 1194SOL     OW 3597   1.023   4.490   0.966
 1194SOL    HW1 3598   1.038   4.511   1.062
 1194SOL    HW2 3599   0.993   4.395   0.957
 1195SOL     OW 3600   0.350   4.622   1.804
 1195SOL    HW1 3601   0.426   4.666   1.852
 1195SOL    HW2 3602   0.385   4.575   1.722
 1196SOL     OW 3603   1.540   3.998   0.125
 1196SOL    HW1 3604   1.479   3.923   0.148
 1196SOL    HW2 3605   1.562   4.050   0.208
 1197SOL     OW 3606   1.303   4.562   0.042
 1197SOL    HW1 3607   1.337   4.469   0.057
 1197SOL    HW2 3608   1.321   4.589  -0.053
 1198SOL     OW 3609   0.319   4.534   0.949
 1198SOL    HW1 3610   0.412   4.570   0.954
 1198SOL    HW2 3611   0.313   4.449   1.001
 1199SOL     OW 3612   0.339   4.233   1.006
 1199SOL    HW1 3613   0.287   4.150   0.989
 1199SOL    HW2 3614   0.416   4.238   0.942
 1200SOL     OW 3615   1.138   4.104   1.678
 1200SOL    HW1 3616   1.093   4.167   1.742
 1200SOL    HW2 3617   1.231   4.135   1.661
 1201SOL     OW 3618   1.160   3.931   1.477
 1201SOL    HW1 3619   1.160   3.995   1.554
 1201SOL    HW2 3620   1.188   3.979   1.394
 1202SOL     OW 3621   1.002   4.520   1.238
 1202SOL    HW1 3622   1.043   4.488   1.324
 1202SOL    HW2 3623   0.906   4.493   1.235
 1203SOL     OW 3624   0.040   4.268   1.114
 1203SOL    HW1 3625   0.125   4.235   1.073
 1203SOL    HW2 3626   0.053   4.283   1.212
 1204SOL     OW 3627   0.189   4.244   1.722
 1204SOL    HW1 3628   0.248   4.204   1.652
 1204SOL    HW2 3629   0.131   4.315   1.681
 1205SOL     OW 3630   1.369   4.674   1.660
 1205SOL    HW1 3631   1.408   4.763   1.680
 1205SOL    HW2 3632   1.379   4.654   1.563
 1206SOL     OW 3633   0.815   4.296   0.325
 1206SOL    HW1 3634   0.822   4.207   0.279
 1206SOL    HW2 3635   0.721   4.330   0.317
 1207SOL     OW 3636   1.657   4.328   1.206
 1207SOL    HW1 3637   1.619   4.259   1.268
 1207SOL    HW2 3638   1.739   4.292   1.162
 1208SOL     OW 3639   0.671   4.188   1.269
 1208SOL    HW1 3640   0.637   4.099   1.239
 1208SOL    HW2 3641   0.697   4.242   1.189
 1209SOL     OW 3642   0.473   4.224   0.191
 1209SOL    HW1 3643   0.534   4.304   0.195
 1209SOL    HW2 3644   0.378   4.255   0.198
 1210SOL     OW 3645   0.159   4.861   1.466
 1210SOL    HW1 3646   0.181   4.800   1.542
 1210SOL    HW2 3647   0.169   4.812   1.380
 1211SOL     OW 3648   1.347   4.783   1.234
 1211SOL    HW1 3649   1.371   4.720   1.160
 1211SOL    HW2 3650   1.257   4.823   1.216
 1212SOL     OW 3651   1.302   4.579   0.309
 1212SOL    HW1 3652   1.216   4.548   0.351
 1212SOL    HW2 3653   1.298   4.565   0.210
 1213SOL     OW 3654   0.083   4.982   1.022
 1213SOL    HW1 3655   0.078   4.981   1.122
 1213SOL    HW2 3656   0.000   4.941   0.984
 1214SOL     OW 3657   0.903   3.810   0.133
 1214SOL    HW1 3658   0.954   3.811   0.047
 1214SOL    HW2 3659   0.959   3.768   0.204
 1215SOL     OW 3660   1.726   3.859   0.523
 1215SOL    HW1 3661   1.799   3.842   0.456
 1215SOL    HW2 3662   1.695   3.772   0.561
 1216SOL     OW 3663   1.280   4.651   0.672
 1216SOL    HW1 3664   1.340   4.570   0.674
 1216SOL    HW2 3665   1.320   4.720   0.612
 1217SOL     OW 3666   1.841   3.899   0.963
 1217SOL    HW1 3667   1.880   3.814   0.927
 1217SOL    HW2 3668   1.743   3.901   0.944
 1218SOL     OW 3669   0.263   4.050   0.720
 1218SOL    HW1 3670   0.184   4.101   0.686
 1218SOL    HW2 3671   0.254   4.035   0.818
 1219SOL     OW 3672   0.822   4.726   1.372
 1219SOL    HW1 3673   0.862   4.725   1.280
 1219SOL    HW2 3674   0.832   4.818   1.412
 1220SOL     OW 3675   0.916   4.634   0.291
 1220SOL    HW1 3676   0.979   4.672   0.223
 1220SOL    HW2 3677   0.956   4.551   0.330
 1221SOL     OW 3678   0.372   5.012   1.490
 1221SOL    HW1 3679   0.359   5.105   1.456
 1221SOL    HW2 3680   0.288   4.960   1.477
 1222SOL     OW 3681   1.014   3.960   0.971
 1222SOL    HW1 3682   1.006   3.924   0.878
 1222SOL    HW2 3683   1.012   3.884   1.036
 1223SOL     OW 3684   1.709   4.109   1.381
 1223SOL    HW1 3685   1.782   4.178   1.385
 1223SOL    HW2 3686   1.737   4.034   1.322
 1224SOL     OW 3687   0.105   4.737   1.726
 1224SOL    HW1 3688   0.028   4.704   1.780
 1224SOL    HW2 3689   0.190   4.707   1.768
 1225SOL     OW 3690   0.672   3.927   1.489
 1225SOL    HW1 3691   0.762   3.911   1.449
 1225SOL    HW2 3692   0.680   3.932   1.588
 1226SOL     OW 3693   0.075   4.069   0.033
 1226SOL    HW1 3694  -0.017   4.041   0.004
 1226SOL    HW2 3695   0.106   4.146  -0.023
 1227SOL     OW 3696   1.440   4.580   1.398
 1227SOL    HW1 3697   1.383   4.632   1.335
 1227SOL    HW2 3698   1.536   4.592   1.374
 1228SOL     OW 3699   0.072   3.890   0.318
 1228SOL    HW1 3700   0.055   3.973   0.264
 1228SOL    HW2 3701   0.162   3.853   0.296
 1229SOL     OW 3702   1.183   5.059   0.119
 1229SOL    HW1 3703   1.084   5.048   0.121
 1229SOL    HW2 3704   1.217   5.074   0.212
 1230SOL     OW 3705   0.613   4.566   1.431
 1230SOL    HW1 3706   0.669   4.647   1.414
 1230SOL    HW2 3707   0.672   4.486   1.434
 1231SOL     OW 3708   0.716   4.289   1.708
 1231SOL    HW1 3709   0.735   4.354   1.782
 1231SOL    HW2 3710   0.776   4.209   1.717
 1232SOL     OW 3711   1.674   4.607   1.254
 1232SOL    HW1 3712   1.647   4.518   1.217
 1232SOL    HW2 3713   1.675   4.675   1.181
 1233SOL     OW 3714   1.225   4.049   0.449
 1233SOL    HW1 3715   1.290   3.975   0.438
 1233SOL    HW2 3716   1.245   4.099   0.533
 1234SOL     OW 3717   0.594   4.469   0.652
 1234SOL    HW1 3718   0.644   4.554   0.633
 1234SOL    HW2 3719   0.506   4.471   0.604
 1235SOL     OW 3720   1.777   4.066   1.642
 1235SOL    HW1 3721   1.760   4.097   1.548
 1235SOL    HW2 3722   1.693   4.029   1.680
 1236SOL     OW 3723   1.730   4.658   1.517
 1236SOL    HW1 3724   1.768   4.749   1.532
 1236SOL    HW2 3725   1.722   4.641   1.418
 1237SOL     OW 3726   0.859   4.680   0.861
 1237SOL    HW1 3727   0.913   4.611   0.909
 1237SOL    HW2 3728   0.827   4.749   0.927
 1238SOL     OW 3729   1.083   4.708   0.087
 1238SOL    HW1 3730   1.060   4.761   0.005
 1238SOL    HW2 3731   1.164   4.652   0.068
 1239SOL     OW 3732   1.824   3.916   1.227
 1239SOL    HW1 3733   1.820   3.826   1.271
 1239SOL    HW2 3734   1.827   3.905   1.128
 1240SOL     OW 3735   0.428   4.148   0.520
 1240SOL    HW1 3736   0.458   4.076   0.458
 1240SOL    HW2 3737   0.389   4.108   0.603
 1241SOL     OW 3738   0.317   4.271   1.280
 1241SOL    HW1 3739   0.355   4.212   1.352
 1241SOL    HW2 3740   0.357   4.245   1.192
 1242SOL     OW 3741   1.424   3.938   1.112
 1242SOL    HW1 3742   1.476   3.873   1.167
 1242SOL    HW2 3743   1.375   4.001   1.173
 1243SOL     OW 3744   1.001   3.758   1.154
 1243SOL    HW1 3745   0.938   3.686   1.123
 1243SOL    HW2 3746   1.094   3.722   1.154
 1244SOL     OW 3747   0.770   5.054   0.301
 1244SOL    HW1 3748   0.724   4.967   0.318
 1244SOL    HW2 3749   0.861   5.051   0.342
 1245SOL     OW 3750   1.352   3.776   0.168
 1245SOL    HW1 3751   1.387   3.735   0.084
 1245SOL    HW2 3752   1.262   3.738   0.188
 1246SOL     OW 3753   1.300   4.177   0.691
 1246SOL    HW1 3754   1.241   4.257   0.695
 1246SOL    HW2 3755   1.315   4.142   0.784
 1247SOL     OW 3756   1.593   3.945   0.882
 1247SOL    HW1 3757   1.509   3.944   0.936
 1247SOL    HW2 3758   1.595   4.028   0.826
 1248SOL     OW 3759   0.039   4.801   0.300
 1248SOL    HW1 3760   0.138   4.790   0.291
 1248SOL    HW2 3761  -0.001   4.715   0.332
 1249SOL     OW 3762   0.230   4.352   1.975
 1249SOL    HW1 3763   0.137   4.350   2.012
 1249SOL    HW2 3764   0.231   4.313   1.883
 1250SOL     OW 3765   0.225   3.999   2.858
 1250SOL    HW1 3766   0.260   3.982   2.950
 1250SOL    HW2 3767   0.137   3.954   2.846
 1251SOL     OW 3768   0.019   4.092   2.509
 1251SOL    HW1 3769  -0.063   4.135   2.548
 1251SOL    HW2 3770  -0.009   4.019   2.446
 1252SOL     OW 3771   1.135   4.427   2.579
 1252SOL    HW1 3772   1.192   4.505   2.554
 1252SOL    HW2 3773   1.075   4.453   2.655
 1253SOL     OW 3774   1.755   4.331   2.093
 1253SOL    HW1 3775   1.743   4.318   1.994
 1253SOL    HW2 3776   1.725   4.250   2.142
 1254SOL     OW 3777   0.768   4.868   2.885
 1254SOL    HW1 3778   0.690   4.885   2.945
 1254SOL    HW2 3779   0.802   4.955   2.849
 1255SOL     OW 3780   0.850   4.522   3.685
 1255SOL    HW1 3781   0.846   4.598   3.750
 1255SOL    HW2 3782   0.872   4.558   3.594
 1256SOL     OW 3783   0.685   4.736   2.527
 1256SOL    HW1 3784   0.754   4.720   2.597
 1256SOL    HW2 3785   0.612   4.793   2.565
 1257SOL     OW 3786   0.438   4.116   3.361
 1257SOL    HW1 3787   0.520   4.060   3.370
 1257SOL    HW2 3788   0.357   4.058   3.365
 1258SOL     OW 3789   1.603   4.171   2.599
 1258SOL    HW1 3790   1.529   4.217   2.549
 1258SOL    HW2 3791   1.654   4.239   2.652
 1259SOL     OW 3792   0.230   5.158   2.400
 1259SOL    HW1 3793   0.204   5.254   2.400
 1259SOL    HW2 3794   0.159   5.104   2.445
 1260SOL     OW 3795   0.240   4.815   2.748
 1260SOL    HW1 3796   0.254   4.731   2.800
 1260SOL    HW2 3797   0.185   4.879   2.803
 1261SOL     OW 3798   0.606   4.688   1.985
 1261SOL    HW1 3799   0.613   4.772   1.931
 1261SOL    HW2 3800   0.652   4.701   2.073
 1262SOL     OW 3801   1.594   3.838   3.342
 1262SOL    HW1 3802   1.576   3.905   3.270
 1262SOL    HW2 3803   1.591   3.884   3.431
 1263SOL     OW 3804   0.122   4.367   2.425
 1263SOL    HW1 3805   0.077   4.279   2.442
 1263SOL    HW2 3806   0.121   4.421   2.509
 1264SOL     OW 3807   1.689   4.646   2.474
 1264SOL    HW1 3808   1.784   4.617   2.482
 1264SOL    HW2 3809   1.681   4.711   2.399
 1265SOL     OW 3810   0.113   4.461   3.459
 1265SOL    HW1 3811   0.201   4.448   3.504
 1265SOL    HW2 3812   0.100   4.558   3.437
 1266SOL     OW 3813   1.293   4.952   3.285
 1266SOL    HW1 3814   1.330   4.879   3.227
 1266SOL    HW2 3815   1.345   4.957   3.370
 1267SOL     OW 3816   0.809   3.728   2.364
 1267SOL    HW1 3817   0.849   3.819   2.355
 1267SOL    HW2 3818   0.709   3.736   2.370
 1268SOL     OW 3819   0.197   4.700   3.126
 1268SOL    HW1 3820   0.286   4.655   3.112
 1268SOL    HW2 3821   0.124   4.635   3.107
 1269SOL     OW 3822   1.525   4.723   2.052
 1269SOL    HW1 3823   1.462   4.647   2.065
 1269SOL    HW2 3824   1.573   4.741   2.138
 1270SOL     OW 3825   0.317   3.975   3.663
 1270SOL    HW1 3826   0.388   4.046   3.669
 1270SOL    HW2 3827   0.229   4.014   3.691
 1271SOL     OW 3828   0.598   4.453   2.132
 1271SOL    HW1 3829   0.622   4.522   2.064
 1271SOL    HW2 3830   0.520   4.486   2.186
 1272SOL     OW 3831   1.281   4.069   2.806
 1272SOL    HW1 3832   1.195   4.019   2.793
 1272SOL    HW2 3833   1.343   4.015   2.862
 1273SOL     OW 3834   0.807   4.329   3.327
 1273SOL    HW1 3835   0.760   4.326   3.416
 1273SOL    HW2 3836   0.756   4.274   3.261
 1274SOL     OW 3837   1.394   4.193   3.536
 1274SOL    HW1 3838   1.374   4.236   3.624
 1274SOL    HW2 3839   1.472   4.131   3.545
 1275SOL     OW 3840   0.973   4.614   3.434
 1275SOL    HW1 3841   1.019   4.530   3.405
 1275SOL    HW2 3842   0.917   4.648   3.359
 1276SOL     OW 3843   0.991   4.134   3.104
 1276SOL    HW1 3844   0.914   4.168   3.158
 1276SOL    HW2 3845   0.957   4.083   3.025
 1277SOL     OW 3846   1.041   4.425   2.291
 1277SOL    HW1 3847   1.067   4.421   2.387
 1277SOL    HW2 3848   0.956   4.374   2.277
 1278SOL     OW 3849   0.076   4.535   2.651
 1278SOL    HW1 3850   0.175   4.523   2.660
 1278SOL    HW2 3851   0.052   4.630   2.672
 1279SOL     OW 3852   0.865   4.072   2.057
 1279SOL    HW1 3853   0.924   4.135   2.008
 1279SOL    HW2 3854   0.884   3.978   2.028
 1280SOL     OW 3855   1.719   4.309   3.693
 1280SOL    HW1 3856   1.693   4.398   3.657
 1280SOL    HW2 3857   1.717   4.241   3.620
 1281SOL     OW 3858   0.550   3.920   2.747
 1281SOL    HW1 3859   0.545   3.915   2.847
 1281SOL    HW2 3860   0.552   4.016   2.718
 1282SOL     OW 3861   1.795   4.790   2.735
 1282SOL    HW1 3862   1.733   4.775   2.659
 1282SOL    HW2 3863   1.743   4.801   2.820
 1283SOL     OW 3864   0.321   4.667   2.104
 1283SOL    HW1 3865   0.403   4.706   2.062
 1283SOL    HW2 3866   0.294   4.585   2.055
 1284SOL     OW 3867   1.458   4.459   2.590
 1284SOL    HW1 3868   1.453   4.394   2.665
 1284SOL    HW2 3869   1.538   4.518   2.603
 1285SOL     OW 3870   0.202   4.009   3.360
 1285SOL    HW1 3871   0.122   4.069   3.347
 1285SOL    HW2 3872   0.192   3.960   3.446
 1286SOL     OW 3873   1.400   3.831   2.288
 1286SOL    HW1 3874   1.376   3.794   2.198
 1286SOL    HW2 3875   1.499   3.847   2.292
 1287SOL     OW 3876   0.382   4.424   2.342
 1287SOL    HW1 3877   0.427   4.334   2.339
 1287SOL    HW2 3878   0.288   4.413   2.375
 1288SOL     OW 3879   1.547   3.946   3.591
 1288SOL    HW1 3880   1.542   3.983   3.683
 1288SOL    HW2 3881   1.475   3.877   3.579
 1289SOL     OW 3882   0.614   3.846   1.979
 1289SOL    HW1 3883   0.712   3.824   1.986
 1289SOL    HW2 3884   0.583   3.829   1.886
 1290SOL     OW 3885   0.781   3.988   3.611
 1290SOL    HW1 3886   0.848   3.927   3.654
 1290SOL    HW2 3887   0.708   4.007   3.676
 1291SOL     OW 3888   1.351   4.314   3.295
 1291SOL    HW1 3889   1.379   4.271   3.380
 1291SOL    HW2 3890   1.376   4.410   3.296
 1292SOL     OW 3891   0.922   4.227   2.761
 1292SOL    HW1 3892   0.897   4.218   2.665
 1292SOL    HW2 3893   0.970   4.145   2.792
 1293SOL     OW 3894   0.539   3.788   2.374
 1293SOL    HW1 3895   0.458   3.789   2.432
 1293SOL    HW2 3896   0.542   3.871   2.319
 1294SOL     OW 3897   0.297   3.759   2.033
 1294SOL    HW1 3898   0.346   3.843   2.012
 1294SOL    HW2 3899   0.359   3.694   2.078
 1295SOL     OW 3900   0.935   3.960   2.342
 1295SOL    HW1 3901   0.887   4.001   2.264
 1295SOL    HW2 3902   1.034   3.958   2.323
 1296SOL     OW 3903   1.076   4.407   3.326
 1296SOL    HW1 3904   0.996   4.346   3.329
 1296SOL    HW2 3905   1.157   4.354   3.302
 1297SOL     OW 3906   0.459   4.876   2.603
 1297SOL    HW1 3907   0.388   4.849   2.668
 1297SOL    HW2 3908   0.433   4.848   2.510
 1298SOL     OW 3909   1.032   4.273   1.878
 1298SOL    HW1 3910   0.991   4.355   1.839
 1298SOL    HW2 3911   1.096   4.299   1.951
 1299SOL     OW 3912   0.078   4.280   3.248
 1299SOL    HW1 3913   0.170   4.279   3.207
 1299SOL    HW2 3914   0.072   4.354   3.315
 1300SOL     OW 3915   0.561   3.946   3.009
 1300SOL    HW1 3916   0.599   3.862   3.046
 1300SOL    HW2 3917   0.473   3.965   3.053
 1301SOL     OW 3918   0.866   4.178   2.504
 1301SOL    HW1 3919   0.834   4.250   2.442
 1301SOL    HW2 3920   0.890   4.097   2.451
 1302SOL     OW 3921   1.017   3.763   2.615
 1302SOL    HW1 3922   0.945   3.768   2.546
 1302SOL    HW2 3923   0.993   3.694   2.684
 1303SOL     OW 3924   1.429   4.897   2.729
 1303SOL    HW1 3925   1.374   4.813   2.722
 1303SOL    HW2 3926   1.455   4.926   2.637
 1304SOL     OW 3927   1.466   4.314   2.854
 1304SOL    HW1 3928   1.436   4.219   2.861
 1304SOL    HW2 3929   1.539   4.330   2.920
 1305SOL     OW 3930   1.857   4.557   2.239
 1305SOL    HW1 3931   1.899   4.493   2.303
 1305SOL    HW2 3932   1.819   4.506   2.161
 1306SOL     OW 3933   1.390   4.299   1.940
 1306SOL    HW1 3934   1.336   4.278   2.021
 1306SOL    HW2 3935   1.481   4.258   1.949
 1307SOL     OW 3936   0.527   3.980   2.190
 1307SOL    HW1 3937   0.554   3.921   2.115
 1307SOL    HW2 3938   0.527   4.075   2.159
 1308SOL     OW 3939   1.754   4.947   3.450
 1308SOL    HW1 3940   1.845   4.908   3.437
 1308SOL    HW2 3941   1.762   5.043   3.474
 1309SOL     OW 3942   1.638   4.823   2.941
 1309SOL    HW1 3943   1.643   4.904   3.000
 1309SOL    HW2 3944   1.552   4.825   2.890
 1310SOL     OW 3945   0.915   3.813   3.264
 1310SOL    HW1 3946   0.940   3.793   3.169
 1310SOL    HW2 3947   0.987   3.869   3.306
 1311SOL     OW 3948   0.705   4.774   2.230
 1311SOL    HW1 3949   0.691   4.781   2.329
 1311SOL    HW2 3950   0.789   4.723   2.212
 1312SOL     OW 3951   0.410   4.537   3.113
 1312SOL    HW1 3952   0.496   4.549   3.163
 1312SOL    HW2 3953   0.368   4.450   3.140
 1313SOL     OW 3954   1.274   4.110   3.124
 1313SOL    HW1 3955   1.295   4.184   3.188
 1313SOL    HW2 3956   1.185   4.127   3.081
 1314SOL     OW 3957   0.367   4.824   2.363
 1314SOL    HW1 3958   0.360   4.907   2.307
 1314SOL    HW2 3959   0.371   4.744   2.303
 1315SOL     OW 3960   0.566   4.261   2.727
 1315SOL    HW1 3961   0.578   4.327   2.653
 1315SOL    HW2 3962   0.612   4.295   2.810
 1316SOL     OW 3963   1.582   4.363   2.334
 1316SOL    HW1 3964   1.551   4.424   2.407
 1316SOL    HW2 3965   1.632   4.415   2.265
 1317SOL     OW 3966   0.402   4.475   3.460
 1317SOL    HW1 3967   0.470   4.530   3.413
 1317SOL    HW2 3968   0.442   4.387   3.487
 1318SOL     OW 3969   1.587   4.503   3.532
 1318SOL    HW1 3970   1.495   4.541   3.527
 1318SOL    HW2 3971   1.647   4.550   3.467
 1319SOL     OW 3972   1.013   3.829   3.632
 1319SOL    HW1 3973   1.019   3.914   3.580
 1319SOL    HW2 3974   1.045   3.753   3.575
 1320SOL     OW 3975   0.504   3.774   3.602
 1320SOL    HW1 3976   0.462   3.717   3.532
 1320SOL    HW2 3977   0.438   3.843   3.634
 1321SOL     OW 3978   0.573   4.594   2.891
 1321SOL    HW1 3979   0.617   4.683   2.882
 1321SOL    HW2 3980   0.510   4.594   2.968
 1322SOL     OW 3981   1.360   4.586   2.907
 1322SOL    HW1 3982   1.285   4.586   2.841
 1322SOL    HW2 3983   1.397   4.494   2.916
 1323SOL     OW 3984   1.209   4.249   2.137
 1323SOL    HW1 3985   1.222   4.165   2.191
 1323SOL    HW2 3986   1.180   4.323   2.197
 1324SOL     OW 3987   0.307   3.937   3.093
 1324SOL    HW1 3988   0.284   3.974   3.183
 1324SOL    HW2 3989   0.277   3.842   3.087
 1325SOL     OW 3990   0.037   5.034   3.144
 1325SOL    HW1 3991   0.090   4.985   3.212
 1325SOL    HW2 3992   0.059   5.132   3.149
 1326SOL     OW 3993   0.732   4.358   2.926
 1326SOL    HW1 3994   0.791   4.332   2.850
 1326SOL    HW2 3995   0.704   4.454   2.915
 1327SOL     OW 3996   1.728   4.659   3.716
 1327SOL    HW1 3997   1.682   4.652   3.627
 1327SOL    HW2 3998   1.666   4.703   3.782
 1328SOL     OW 3999   0.307   3.787   2.480
 1328SOL    HW1 4000   0.296   3.881   2.513
 1328SOL    HW2 4001   0.302   3.724   2.557
 1329SOL     OW 4002   1.622   4.091   2.236
 1329SOL    HW1 4003   1.624   4.015   2.300
 1329SOL    HW2 4004   1.574   4.168   2.276
 1330SOL     OW 4005   1.023   4.490   2.828
 1330SOL    HW1 4006   1.038   4.511   2.924
 1330SOL    HW2 4007   0.993   4.395   2.819
 1331SOL     OW 4008   0.350   4.622   3.666
 1331SOL    HW1 4009   0.426   4.666   3.714
 1331SOL    HW2 4010   0.385   4.575   3.584
 1332SOL     OW 4011   1.540   3.998   1.987
 1332SOL    HW1 4012   1.479   3.923   2.010
 1332SOL    HW2 4013   1.562   4.050   2.070
 1333SOL     OW 4014   1.303   4.562   1.904
 1333SOL    HW1 4015   1.337   4.469   1.919
 1333SOL    HW2 4016   1.321   4.589   1.809
 1334SOL     OW 4017   0.319   4.534   2.811
 1334SOL    HW1 4018   0.412   4.570   2.816
 1334SOL    HW2 4019   0.313   4.449   2.863
 1335SOL     OW 4020   0.339   4.233   2.868
 1335SOL    HW1 4021   0.287   4.150   2.851
 1335SOL    HW2 4022   0.416   4.238   2.804
 1336SOL     OW 4023   1.138   4.104   3.540
 1336SOL    HW1 4024   1.093   4.167   3.604
 1336SOL    HW2 4025   1.231   4.135   3.523
 1337SOL     OW 4026   1.160   3.931   3.339
 1337SOL    HW1 4027   1.160   3.995   3.416
 1337SOL    HW2 4028   1.188   3.979   3.256
 1338SOL     OW 4029   1.002   4.520   3.100
 1338SOL    HW1 4030   1.043   4.488   3.186
 1338SOL    HW2 4031   0.906   4.493   3.097
 1339SOL     OW 4032   0.040   4.268   2.976
 1339SOL    HW1 4033   0.125   4.235   2.935
 1339SOL    HW2 4034   0.053   4.283   3.074
 1340SOL     OW 4035   0.189   4.244   3.584
 1340SOL    HW1 4036   0.248   4.204   3.514
 1340SOL    HW2 4037   0.131   4.315   3.543
 1341SOL     OW 4038   1.369   4.674   3.522
 1341SOL    HW1 4039   1.408   4.763   3.542
 1341SOL    HW2 4040   1.379   4.654   3.425
 1342SOL     OW 4041   0.815   4.296   2.187
 1342SOL    HW1 4042   0.822   4.207   2.141
 1342SOL    HW2 4043   0.721   4.330   2.179
 1343SOL     OW 4044   1.657   4.328   3.068
 1343SOL    HW1 4045   1.619   4.259   3.130
 1343SOL    HW2 4046   1.739   4.292   3.024
 1344SOL     OW 4047   0.671   4.188   3.131
 1344SOL    HW1 4048   0.637   4.099   3.101
 1344SOL    HW2 4049   0.697   4.242   3.051
 1345SOL     OW 4050   0.473   4.224   2.053
 1345SOL    HW1 4051   0.534   4.304   2.057
 1345SOL    HW2 4052   0.378   4.255   2.060
 1346SOL     OW 4053   0.159   4.861   3.328
 1346SOL    HW1 4054   0.181   4.800   3.404
 1346SOL    HW2 4055   0.169   4.812   3.242
 1347SOL     OW 4056   1.347   4.783   3.096
 1347SOL    HW1 4057   1.371   4.720   3.022
 1347SOL    HW2 4058   1.257   4.823   3.078
 1348SOL     OW 4059   1.302   4.579   2.171
 1348SOL    HW1 4060   1.216   4.548   2.213
 1348SOL    HW2 4061   1.298   4.565   2.072
 1349SOL     OW 4062   0.083   4.982   2.884
 1349SOL    HW1 4063   0.078   4.981   2.984
 1349SOL    HW2 4064   0.000   4.941   2.846
 1350SOL     OW 4065   1.726   3.859   2.385
 1350SOL    HW1 4066   1.799   3.842   2.318
 1350SOL    HW2 4067   1.695   3.772   2.423
 1351SOL     OW 4068   1.280   4.651   2.534
 1351SOL    HW1 4069   1.340   4.570   2.536
 1351SOL    HW2 4070   1.320   4.720   2.474
 1352SOL     OW 4071   1.841   3.899   2.825
 1352SOL    HW1 4072   1.880   3.814   2.789
 1352SOL    HW2 4073   1.743   3.901   2.806
 1353SOL     OW 4074   0.263   4.050   2.582
 1353SOL    HW1 4075   0.184   4.101   2.548
 1353SOL    HW2 4076   0.254   4.035   2.680
 1354SOL     OW 4077   0.822   4.726   3.234
 1354SOL    HW1 4078   0.862   4.725   3.142
 1354SOL    HW2 4079   0.832   4.818   3.274
 1355SOL     OW 4080   0.916   4.634   2.153
 1355SOL    HW1 4081   0.979   4.672   2.085
 1355SOL    HW2 4082   0.956   4.551   2.192
 1356SOL     OW 4083   0.372   5.012   3.352
 1356SOL    HW1 4084   0.359   5.105   3.318
 1356SOL    HW2 4085   0.288   4.960   3.339
 1357SOL     OW 4086   1.014   3.960   2.833
 1357SOL    HW1 4087   1.006   3.924   2.740
 1357SOL    HW2 4088   1.012   3.884   2.898
 1358SOL     OW 4089   1.709   4.109   3.243
 1358SOL    HW1 4090   1.782   4.178   3.247
 1358SOL    HW2 4091   1.737   4.034   3.184
 1359SOL     OW 4092   0.105   4.737   3.588
 1359SOL    HW1 4093   0.028   4.704   3.642
 1359SOL    HW2 4094   0.190   4.707   3.630
 1360SOL     OW 4095   0.672   3.927   3.351
 1360SOL    HW1 4096   0.762   3.911   3.311
 1360SOL    HW2 4097   0.680   3.932   3.450
 1361SOL     OW 4098   0.075   4.069   1.895
 1361SOL    HW1 4099  -0.017   4.041   1.866
 1361SOL    HW2 4100   0.106   4.146   1.839
 1362SOL     OW 4101   1.440   4.580   3.260
 1362SOL    HW1 4102   1.383   4.632   3.197
 1362SOL    HW2 4103   1.536   4.592   3.236
 1363SOL     OW 4104   0.072   3.890   2.180
 1363SOL    HW1 4105   0.055   3.973   2.126
 1363SOL    HW2 4106   0.162   3.853   2.158
 1364SOL     OW 4107   1.183   5.059   1.981
 1364SOL    HW1 4108   1.084   5.048   1.983
 1364SOL    HW2 4109   1.217   5.074   2.074
 1365SOL     OW 4110   0.613   4.566   3.293
 1365SOL    HW1 4111   0.669   4.647   3.276
 1365SOL    HW2 4112   0.672   4.486   3.296
 1366SOL     OW 4113   0.716   4.289   3.570
 1366SOL    HW1 4114   0.735   4.354   3.644
 1366SOL    HW2 4115   0.776   4.209   3.579
 1367SOL     OW 4116   1.674   4.607   3.116
 1367SOL    HW1 4117   1.647   4.518   3.079
 1367SOL    HW2 4118   1.675   4.675   3.043
 1368SOL     OW 4119   1.225   4.049   2.311
 1368SOL    HW1 4120   1.290   3.975   2.300
 1368SOL    HW2 4121   1.245   4.099   2.395
 1369SOL     OW 4122   0.594   4.469   2.514
 1369SOL    HW1 4123   0.644   4.554   2.495
 1369SOL    HW2 4124   0.506   4.471   2.466
 1370SOL     OW 4125   1.777   4.066   3.504
 1370SOL    HW1 4126   1.760   4.097   3.410
 1370SOL    HW2 4127   1.693   4.029   3.542
 1371SOL     OW 4128   1.730   4.658   3.379
 1371SOL    HW1 4129   1.768   4.749   3.394
 1371SOL    HW2 4130   1.722   4.641   3.280
 1372SOL     OW 4131   0.859   4.680   2.723
 1372SOL    HW1 4132   0.913   4.611   2.771
 1372SOL    HW2 4133   0.827   4.749   2.789
 1373SOL     OW 4134   1.083   4.708   1.949
 1373SOL    HW1 4135   1.060   4.761   1.867
 1373SOL    HW2 4136   1.164   4.652   1.930
 1374SOL     OW 4137   1.824   3.916   3.089
 1374SOL    HW1 4138   1.820   3.826   3.133
 1374SOL    HW2 4139   1.827   3.905   2.990
 1375SOL     OW 4140   0.428   4.148   2.382
 1375SOL    HW1 4141   0.458   4.076   2.320
 1375SOL    HW2 4142   0.389   4.108   2.465
 1376SOL     OW 4143   0.317   4.271   3.142
 1376SOL    HW1 4144   0.355   4.212   3.214
 1376SOL    HW2 4145   0.357   4.245   3.054
 1377SOL     OW 4146   1.424   3.938   2.974
 1377SOL    HW1 4147   1.476   3.873   3.029
 1377SOL    HW2 4148   1.375   4.001   3.035
 1378SOL     OW 4149   1.001   3.758   3.016
 1378SOL    HW1 4150   0.938   3.686   2.985
 1378SOL    HW2 4151   1.094   3.722   3.016
 1379SOL     OW 4152   0.770   5.054   2.163
 1379SOL    HW1 4153   0.724   4.967   2.180
 1379SOL    HW2 4154   0.861   5.051   2.204
 1380SOL     OW 4155   1.352   3.776   2.030
 1380SOL    HW1 4156   1.387   3.735   1.946
 1380SOL    HW2 4157   1.262   3.738   2.050
 1381SOL     OW 4158   1.300   4.177   2.553
 1381SOL    HW1 4159   1.241   4.257   2.557
 1381SOL    HW2 4160   1.315   4.142   2.646
 1382SOL     OW 4161   1.593   3.945   2.744
 1382SOL    HW1 4162   1.509   3.944   2.798
 1382SOL    HW2 4163   1.595   4.028   2.688
 1383SOL     OW 4164   0.039   4.801   2.162
 1383SOL    HW1 4165   0.138   4.790   2.153
 1383SOL    HW2 4166  -0.001   4.715   2.194
 1384SOL     OW 4167   0.230   4.352   3.837
 1384SOL    HW1 4168   0.137   4.350   3.874
 1384SOL    HW2 4169   0.231   4.313   3.745
 1385SOL     OW 4170   0.225   3.999   4.720
 1385SOL    HW1 4171   0.260   3.982   4.812
 1385SOL    HW2 4172   0.137   3.954   4.708
 1386SOL     OW 4173   0.019   4.092   4.371
 1386SOL    HW1 4174  -0.063   4.135   4.410
 1386SOL    HW2 4175  -0.009   4.019   4.308
 1387SOL     OW 4176   1.135   4.427   4.441
 1387SOL    HW1 4177   1.192   4.505   4.416
 1387SOL    HW2 4178   1.075   4.453   4.517
 1388SOL     OW 4179   1.755   4.331   3.955
 1388SOL    HW1 4180   1.743   4.318   3.856
 1388SOL    HW2 4181   1.725   4.250   4.004
 1389SOL     OW 4182   0.768   4.868   4.747
 1389SOL    HW1 4183   0.690   4.885   4.807
 1389SOL    HW2 4184   0.802   4.955   4.711
 1390SOL     OW 4185   0.685   4.736   4.389
 1390SOL    HW1 4186   0.754   4.720   4.459
 1390SOL    HW2 4187   0.612   4.793   4.427
 1391SOL     OW 4188   1.603   4.171   4.461
 1391SOL    HW1 4189   1.529   4.217   4.411
 1391SOL    HW2 4190   1.654   4.239   4.514
 1392SOL     OW 4191   0.230   5.158   4.262
 1392SOL    HW1 4192   0.204   5.254   4.262
 1392SOL    HW2 4193   0.159   5.104   4.307
 1393SOL     OW 4194   0.240   4.815   4.610
 1393SOL    HW1 4195   0.254   4.731   4.662
 1393SOL    HW2 4196   0.185   4.879   4.665
 1394SOL     OW 4197   0.606   4.688   3.847
 1394SOL    HW1 4198   0.613   4.772   3.793
 1394SOL    HW2 4199   0.652   4.701   3.935
 1395SOL     OW 4200   0.122   4.367   4.287
 1395SOL    HW1 4201   0.077   4.279   4.304
 1395SOL    HW2 4202   0.121   4.421   4.371
 1396SOL     OW 4203   1.689   4.646   4.336
 1396SOL    HW1 4204   1.784   4.617   4.344
 1396SOL    HW2 4205   1.681   4.711   4.261
 1397SOL     OW 4206   0.809   3.728   4.226
 1397SOL    HW1 4207   0.849   3.819   4.217
 1397SOL    HW2 4208   0.709   3.736   4.232
 1398SOL     OW 4209   0.197   4.700   4.988
 1398SOL    HW1 4210   0.286   4.655   4.974
 1398SOL    HW2 4211   0.124   4.635   4.969
 1399SOL     OW 4212   1.525   4.723   3.914
 1399SOL    HW1 4213   1.462   4.647   3.927
 1399SOL    HW2 4214   1.573   4.741   4.000
 1400SOL     OW 4215   0.598   4.453   3.994
 1400SOL    HW1 4216   0.622   4.522   3.926
 1400SOL    HW2 4217   0.520   4.486   4.048
 1401SOL     OW 4218   1.281   4.069   4.668
 1401SOL    HW1 4219   1.195   4.019   4.655
 1401SOL    HW2 4220   1.343   4.015   4.724
 1402SOL     OW 4221   1.041   4.425   4.153
 1402SOL    HW1 4222   1.067   4.421   4.249
 1402SOL    HW2 4223   0.956   4.374   4.139
 1403SOL     OW 4224   0.076   4.535   4.513
 1403SOL    HW1 4225   0.175   4.523   4.522
 1403SOL    HW2 4226   0.052   4.630   4.534
 1404SOL     OW 4227   0.865   4.072   3.919
 1404SOL    HW1 4228   0.924   4.135   3.870
 1404SOL    HW2 4229   0.884   3.978   3.890
 1405SOL     OW 4230   0.550   3.920   4.609
 1405SOL    HW1 4231   0.545   3.915   4.709
 1405SOL    HW2 4232   0.552   4.016   4.580
 1406SOL     OW 4233   1.795   4.790   4.597
 1406SOL    HW1 4234   1.733   4.775   4.521
 1406SOL    HW2 4235   1.743   4.801   4.682
 1407SOL     OW 4236   0.321   4.667   3.966
 1407SOL    HW1 4237   0.403   4.706   3.924
 1407SOL    HW2 4238   0.294   4.585   3.917
 1408SOL     OW 4239   1.458   4.459   4.452
 1408SOL    HW1 4240   1.453   4.394   4.527
 1408SOL    HW2 4241   1.538   4.518   4.465
 1409SOL     OW 4242   1.400   3.831   4.150
 1409SOL    HW1 4243   1.376   3.794   4.060
 1409SOL    HW2 4244   1.499   3.847   4.154
 1410SOL     OW 4245   0.382   4.424   4.204
 1410SOL    HW1 4246   0.427   4.334   4.201
 1410SOL    HW2 4247   0.288   4.413   4.237
 1411SOL     OW 4248   0.614   3.846   3.841
 1411SOL    HW1 4249   0.712   3.824   3.848
 1411SOL    HW2 4250   0.583   3.829   3.748
 1412SOL     OW 4251   0.888   5.238   4.919
 1412SOL    HW1 4252   0.865   5.213   4.825
 1412SOL    HW2 4253   0.949   5.169   4.958
 1413SOL     OW 4254   0.922   4.227   4.623
 1413SOL    HW1 4255   0.897   4.218   4.527
 1413SOL    HW2 4256   0.970   4.145   4.654
 1414SOL     OW 4257   0.539   3.788   4.236
 1414SOL    HW1 4258   0.458   3.789   4.294
 1414SOL    HW2 4259   0.542   3.871   4.181
 1415SOL     OW 4260   0.297   3.759   3.895
 1415SOL    HW1 4261   0.346   3.843   3.874
 1415SOL    HW2 4262   0.359   3.694   3.940
 1416SOL     OW 4263   0.935   3.960   4.204
 1416SOL    HW1 4264   0.887   4.001   4.126
 1416SOL    HW2 4265   1.034   3.958   4.185
 1417SOL     OW 4266   0.459   4.876   4.465
 1417SOL    HW1 4267   0.388   4.849   4.530
 1417SOL    HW2 4268   0.433   4.848   4.372
 1418SOL     OW 4269   1.032   4.273   3.740
 1418SOL    HW1 4270   0.991   4.355   3.701
 1418SOL    HW2 4271   1.096   4.299   3.813
 1419SOL     OW 4272   0.866   4.178   4.366
 1419SOL    HW1 4273   0.834   4.250   4.304
 1419SOL    HW2 4274   0.890   4.097   4.313
 1420SOL     OW 4275   1.017   3.763   4.477
 1420SOL    HW1 4276   0.945   3.768   4.408
 1420SOL    HW2 4277   0.993   3.694   4.546
 1421SOL     OW 4278   1.429   4.897   4.591
 1421SOL    HW1 4279   1.374   4.813   4.584
 1421SOL    HW2 4280   1.455   4.926   4.499
 1422SOL     OW 4281   1.466   4.314   4.716
 1422SOL    HW1 4282   1.436   4.219   4.723
 1422SOL    HW2 4283   1.539   4.330   4.782
 1423SOL     OW 4284   1.857   4.557   4.101
 1423SOL    HW1 4285   1.899   4.493   4.165
 1423SOL    HW2 4286   1.819   4.506   4.023
 1424SOL     OW 4287   1.390   4.299   3.802
 1424SOL    HW1 4288   1.336   4.278   3.883
 1424SOL    HW2 4289   1.481   4.258   3.811
 1425SOL     OW 4290   0.527   3.980   4.052
 1425SOL    HW1 4291   0.554   3.921   3.977
 1425SOL    HW2 4292   0.527   4.075   4.021
 1426SOL     OW 4293   1.638   4.823   4.803
 1426SOL    HW1 4294   1.643   4.904   4.862
 1426SOL    HW2 4295   1.552   4.825   4.752
 1427SOL     OW 4296   0.705   4.774   4.092
 1427SOL    HW1 4297   0.691   4.781   4.191
 1427SOL    HW2 4298   0.789   4.723   4.074
 1428SOL     OW 4299   0.410   4.537   4.975
 1428SOL    HW1 4300   0.496   4.549   5.025
 1428SOL    HW2 4301   0.368   4.450   5.002
 1429SOL     OW 4302   0.367   4.824   4.225
 1429SOL    HW1 4303   0.360   4.907   4.169
 1429SOL    HW2 4304   0.371   4.744   4.165
 1430SOL     OW 4305   0.566   4.261   4.589
 1430SOL    HW1 4306   0.578   4.327   4.515
 1430SOL    HW2 4307   0.612   4.295   4.672
 1431SOL     OW 4308   1.582   4.363   4.196
 1431SOL    HW1 4309   1.551   4.424   4.269
 1431SOL    HW2 4310   1.632   4.415   4.127
 1432SOL     OW 4311   0.573   4.594   4.753
 1432SOL    HW1 4312   0.617   4.683   4.744
 1432SOL    HW2 4313   0.510   4.594   4.830
 1433SOL     OW 4314   1.209   4.249   3.999
 1433SOL    HW1 4315   1.222   4.165   4.053
 1433SOL    HW2 4316   1.180   4.323   4.059
 1434SOL     OW 4317   0.307   3.937   4.955
 1434SOL    HW1 4318   0.284   3.974   5.045
 1434SOL    HW2 4319   0.277   3.842   4.949
 1435SOL     OW 4320   0.732   4.358   4.788
 1435SOL    HW1 4321   0.791   4.332   4.712
 1435SOL    HW2 4322   0.704   4.454   4.777
 1436SOL     OW 4323   0.307   3.787   4.342
 1436SOL    HW1 4324   0.296   3.881   4.375
 1436SOL    HW2 4325   0.302   3.724   4.419
 1437SOL     OW 4326   1.622   4.091   4.098
 1437SOL    HW1 4327   1.624   4.015   4.162
 1437SOL    HW2 4328   1.574   4.168   4.138
 1438SOL     OW 4329   1.023   4.490   4.690
 1438SOL    HW1 4330   1.038   4.511   4.786
 1438SOL    HW2 4331   0.993   4.395   4.681
 1439SOL     OW 4332   1.540   3.998   3.849
 1439SOL    HW1 4333   1.479   3.923   3.872
 1439SOL    HW2 4334   1.562   4.050   3.932
 1440SOL     OW 4335   1.303   4.562   3.766
 1440SOL    HW1 4336   1.337   4.469   3.781
 1440SOL    HW2 4337   1.321   4.589   3.671
 1441SOL     OW 4338   0.319   4.534   4.673
 1441SOL    HW1 4339   0.412   4.570   4.678
 1441SOL    HW2 4340   0.313   4.449   4.725
 1442SOL     OW 4341   0.339   4.233   4.730
 1442SOL    HW1 4342   0.287   4.150   4.713
 1442SOL    HW2 4343   0.416   4.238   4.666
 1443SOL     OW 4344   1.002   4.520   4.962
 1443SOL    HW1 4345   1.043   4.488   5.048
 1443SOL    HW2 4346   0.906   4.493   4.959
 1444SOL     OW 4347   0.815   4.296   4.049
 1444SOL    HW1 4348   0.822   4.207   4.003
 1444SOL    HW2 4349   0.721   4.330   4.041
 1445SOL     OW 4350   0.671   4.188   4.993
 1445SOL    HW1 4351   0.637   4.099   4.963
 1445SOL    HW2 4352   0.697   4.242   4.913
 1446SOL     OW 4353   0.473   4.224   3.915
 1446SOL    HW1 4354   0.534   4.304   3.919
 1446SOL    HW2 4355   0.378   4.255   3.922
 1447SOL     OW 4356   1.302   4.579   4.033
 1447SOL    HW1 4357   1.216   4.548   4.075
 1447SOL    HW2 4358   1.298   4.565   3.934
 1448SOL     OW 4359   0.083   4.982   4.746
 1448SOL    HW1 4360   0.078   4.981   4.846
 1448SOL    HW2 4361   0.000   4.941   4.708
 1449SOL     OW 4362   1.726   3.859   4.247
 1449SOL    HW1 4363   1.799   3.842   4.180
 1449SOL    HW2 4364   1.695   3.772   4.285
 1450SOL     OW 4365   1.280   4.651   4.396
 1450SOL    HW1 4366   1.340   4.570   4.398
 1450SOL    HW2 4367   1.320   4.720   4.336
 1451SOL     OW 4368   1.841   3.899   4.687
 1451SOL    HW1 4369   1.880   3.814   4.651
 1451SOL    HW2 4370   1.743   3.901   4.668
 1452SOL     OW 4371   0.263   4.050   4.444
 1452SOL    HW1 4372   0.184   4.101   4.410
 1452SOL    HW2 4373   0.254   4.035   4.542
 1453SOL     OW 4374   0.916   4.634   4.015
 1453SOL    HW1 4375   0.979   4.672   3.947
 1453SOL    HW2 4376   0.956   4.551   4.054
 1454SOL     OW 4377   1.014   3.960   4.695
 1454SOL    HW1 4378   1.006   3.924   4.602
 1454SOL    HW2 4379   1.012   3.884   4.760
 1455SOL     OW 4380   0.075   4.069   3.757
 1455SOL    HW1 4381  -0.017   4.041   3.728
 1455SOL    HW2 4382   0.106   4.146   3.701
 1456SOL     OW 4383   0.072   3.890   4.042
 1456SOL    HW1 4384   0.055   3.973   3.988
 1456SOL    HW2 4385   0.162   3.853   4.020
 1457SOL     OW 4386   1.183   5.059   3.843
 1457SOL    HW1 4387   1.084   5.048   3.845
 1457SOL    HW2 4388   1.217   5.074   3.936
 1458SOL     OW 4389   1.674   4.607   4.978
 1458SOL    HW1 4390   1.647   4.518   4.941
 1458SOL    HW2 4391   1.675   4.675   4.905
 1459SOL     OW 4392   1.225   4.049   4.173
 1459SOL    HW1 4393   1.290   3.975   4.162
 1459SOL    HW2 4394   1.245   4.099   4.257
 1460SOL     OW 4395   0.594   4.469   4.376
 1460SOL    HW1 4396   0.644   4.554   4.357
 1460SOL    HW2 4397   0.506   4.471   4.328
 1461SOL     OW 4398   0.859   4.680   4.585
 1461SOL    HW1 4399   0.913   4.611   4.633
 1461SOL    HW2 4400   0.827   4.749   4.651
 1462SOL     OW 4401   1.083   4.708   3.811
 1462SOL    HW1 4402   1.060   4.761   3.729
 1462SOL    HW2 4403   1.164   4.652   3.792
 1463SOL     OW 4404   1.824   3.916   4.951
 1463SOL    HW1 4405   1.820   3.826   4.995
 1463SOL    HW2 4406   1.827   3.905   4.852
 1464SOL     OW 4407   0.428   4.148   4.244
 1464SOL    HW1 4408   0.458   4.076   4.182
 1464SOL    HW2 4409   0.389   4.108   4.327
 1465SOL     OW 4410   1.424   3.938   4.836
 1465SOL    HW1 4411   1.476   3.873   4.891
 1465SOL    HW2 4412   1.375   4.001   4.897
 1466SOL     OW 4413   0.770   5.054   4.025
 1466SOL    HW1 4414   0.724   4.967   4.042
 1466SOL    HW2 4415   0.861   5.051   4.066
 1467SOL     OW 4416   1.352   3.776   3.892
 1467SOL    HW1 4417   1.387   3.735   3.808
 1467SOL    HW2 4418   1.262   3.738   3.912
 1468SOL     OW 4419   1.300   4.177   4.415
 1468SOL    HW1 4420   1.241   4.257   4.419
 1468SOL    HW2 4421   1.315   4.142   4.508
 1469SOL     OW 4422   1.593   3.945   4.606
 1469SOL    HW1 4423   1.509   3.944   4.660
 1469SOL    HW2 4424   1.595   4.028   4.550
 1470SOL     OW 4425   0.039   4.801   4.024
 1470SOL    HW1 4426   0.138   4.790   4.015
 1470SOL    HW2 4427  -0.001   4.715   4.056
 1471SOL     OW 4428   2.092   0.628   0.113
 1471SOL    HW1 4429   1.999   0.626   0.150
 1471SOL    HW2 4430   2.093   0.589   0.021
 1472SOL     OW 4431   2.087   0.275   0.996
 1472SOL    HW1 4432   2.122   0.258   1.088
 1472SOL    HW2 4433   1.999   0.230   0.984
 1473SOL     OW 4434   1.881   0.368   0.647
 1473SOL    HW1 4435   1.799   0.411   0.686
 1473SOL    HW2 4436   1.853   0.295   0.584
 1474SOL     OW 4437   2.431   1.275   1.165
 1474SOL    HW1 4438   2.338   1.268   1.128
 1474SOL    HW2 4439   2.442   1.364   1.209
 1475SOL     OW 4440   3.417   1.511   0.703
 1475SOL    HW1 4441   3.360   1.495   0.784
 1475SOL    HW2 4442   3.358   1.521   0.623
 1476SOL     OW 4443   2.997   0.703   0.717
 1476SOL    HW1 4444   3.054   0.781   0.692
 1476SOL    HW2 4445   2.937   0.729   0.793
 1477SOL     OW 4446   3.617   0.607   0.231
 1477SOL    HW1 4447   3.605   0.594   0.132
 1477SOL    HW2 4448   3.587   0.526   0.280
 1478SOL     OW 4449   2.630   1.144   1.023
 1478SOL    HW1 4450   2.552   1.161   1.083
 1478SOL    HW2 4451   2.664   1.231   0.987
 1479SOL     OW 4452   2.712   0.798   1.823
 1479SOL    HW1 4453   2.708   0.874   1.888
 1479SOL    HW2 4454   2.734   0.834   1.732
 1480SOL     OW 4455   2.547   1.012   0.665
 1480SOL    HW1 4456   2.616   0.996   0.735
 1480SOL    HW2 4457   2.474   1.069   0.703
 1481SOL     OW 4458   2.548   1.161   1.803
 1481SOL    HW1 4459   2.608   1.240   1.817
 1481SOL    HW2 4460   2.462   1.192   1.762
 1482SOL     OW 4461   2.197   1.435   1.061
 1482SOL    HW1 4462   2.119   1.404   1.008
 1482SOL    HW2 4463   2.255   1.493   1.004
 1483SOL     OW 4464   3.322   1.505   1.339
 1483SOL    HW1 4465   3.346   1.599   1.365
 1483SOL    HW2 4466   3.306   1.451   1.421
 1484SOL     OW 4467   2.300   0.392   1.499
 1484SOL    HW1 4468   2.382   0.336   1.508
 1484SOL    HW2 4469   2.219   0.334   1.503
 1485SOL     OW 4470   3.465   0.447   0.737
 1485SOL    HW1 4471   3.391   0.493   0.687
 1485SOL    HW2 4472   3.516   0.515   0.790
 1486SOL     OW 4473   2.093   1.713   0.483
 1486SOL    HW1 4474   2.127   1.790   0.537
 1486SOL    HW2 4475   2.137   1.713   0.393
 1487SOL     OW 4476   2.989   1.341   1.690
 1487SOL    HW1 4477   3.036   1.341   1.778
 1487SOL    HW2 4478   2.941   1.254   1.679
 1488SOL     OW 4479   2.092   1.434   0.538
 1488SOL    HW1 4480   2.066   1.530   0.538
 1488SOL    HW2 4481   2.021   1.380   0.583
 1489SOL     OW 4482   2.102   1.091   0.886
 1489SOL    HW1 4483   2.116   1.007   0.938
 1489SOL    HW2 4484   2.047   1.155   0.941
 1490SOL     OW 4485   2.482   1.786   1.439
 1490SOL    HW1 4486   2.390   1.769   1.474
 1490SOL    HW2 4487   2.510   1.878   1.465
 1491SOL     OW 4488   2.468   0.964   0.123
 1491SOL    HW1 4489   2.475   1.048   0.069
 1491SOL    HW2 4490   2.514   0.977   0.211
 1492SOL     OW 4491   3.456   0.114   1.480
 1492SOL    HW1 4492   3.438   0.181   1.408
 1492SOL    HW2 4493   3.453   0.160   1.569
 1493SOL     OW 4494   1.984   0.643   0.563
 1493SOL    HW1 4495   1.939   0.555   0.580
 1493SOL    HW2 4496   1.983   0.697   0.647
 1494SOL     OW 4497   3.704   1.767   0.359
 1494SOL    HW1 4498   3.758   1.738   0.439
 1494SOL    HW2 4499   3.734   1.857   0.330
 1495SOL     OW 4500   1.889   1.596   0.117
 1495SOL    HW1 4501   1.870   1.500   0.138
 1495SOL    HW2 4502   1.856   1.654   0.192
 1496SOL     OW 4503   3.551   0.922   0.612
 1496SOL    HW1 4504   3.646   0.893   0.620
 1496SOL    HW2 4505   3.543   0.987   0.537
 1497SOL     OW 4506   3.503   1.108   0.432
 1497SOL    HW1 4507   3.589   1.110   0.380
 1497SOL    HW2 4508   3.517   1.155   0.520
 1498SOL     OW 4509   1.975   0.737   1.597
 1498SOL    HW1 4510   2.063   0.724   1.642
 1498SOL    HW2 4511   1.962   0.834   1.575
 1499SOL     OW 4512   2.475   1.365   0.726
 1499SOL    HW1 4513   2.426   1.278   0.735
 1499SOL    HW2 4514   2.452   1.408   0.639
 1500SOL     OW 4515   3.155   1.228   1.423
 1500SOL    HW1 4516   3.192   1.155   1.365
 1500SOL    HW2 4517   3.207   1.233   1.508
 1501SOL     OW 4518   2.671   0.004   0.502
 1501SOL    HW1 4519   2.711   0.095   0.493
 1501SOL    HW2 4520   2.571   0.012   0.508
 1502SOL     OW 4521   2.059   0.976   1.264
 1502SOL    HW1 4522   2.148   0.931   1.250
 1502SOL    HW2 4523   1.986   0.911   1.245
 1503SOL     OW 4524   3.387   0.999   0.190
 1503SOL    HW1 4525   3.324   0.923   0.203
 1503SOL    HW2 4526   3.435   1.017   0.276
 1504SOL     OW 4527   3.049   1.792   1.616
 1504SOL    HW1 4528   3.073   1.852   1.540
 1504SOL    HW2 4529   3.056   1.697   1.586
 1505SOL     OW 4530   2.179   0.251   1.801
 1505SOL    HW1 4531   2.250   0.322   1.807
 1505SOL    HW2 4532   2.091   0.290   1.829
 1506SOL     OW 4533   3.328   1.417   0.953
 1506SOL    HW1 4534   3.269   1.423   1.033
 1506SOL    HW2 4535   3.313   1.329   0.907
 1507SOL     OW 4536   3.529   1.714   0.572
 1507SOL    HW1 4537   3.488   1.691   0.484
 1507SOL    HW2 4538   3.511   1.640   0.637
 1508SOL     OW 4539   2.460   0.729   0.270
 1508SOL    HW1 4540   2.484   0.798   0.202
 1508SOL    HW2 4541   2.382   0.762   0.324
 1509SOL     OW 4542   3.143   0.345   0.944
 1509SOL    HW1 4543   3.057   0.295   0.931
 1509SOL    HW2 4544   3.205   0.291   1.000
 1510SOL     OW 4545   3.438   1.662   0.307
 1510SOL    HW1 4546   3.527   1.708   0.310
 1510SOL    HW2 4547   3.417   1.638   0.212
 1511SOL     OW 4548   2.669   0.605   1.465
 1511SOL    HW1 4549   2.622   0.602   1.554
 1511SOL    HW2 4550   2.618   0.550   1.399
 1512SOL     OW 4551   3.256   0.469   1.674
 1512SOL    HW1 4552   3.236   0.512   1.762
 1512SOL    HW2 4553   3.334   0.407   1.683
 1513SOL     OW 4554   2.835   0.890   1.572
 1513SOL    HW1 4555   2.881   0.806   1.543
 1513SOL    HW2 4556   2.779   0.924   1.497
 1514SOL     OW 4557   2.853   0.410   1.242
 1514SOL    HW1 4558   2.776   0.444   1.296
 1514SOL    HW2 4559   2.819   0.359   1.163
 1515SOL     OW 4560   2.903   0.701   0.429
 1515SOL    HW1 4561   2.929   0.697   0.525
 1515SOL    HW2 4562   2.818   0.650   0.415
 1516SOL     OW 4563   1.938   0.811   0.789
 1516SOL    HW1 4564   2.037   0.799   0.798
 1516SOL    HW2 4565   1.914   0.906   0.810
 1517SOL     OW 4566   1.992   1.821   1.571
 1517SOL    HW1 4567   1.982   1.806   1.670
 1517SOL    HW2 4568   1.906   1.857   1.535
 1518SOL     OW 4569   2.727   0.348   0.195
 1518SOL    HW1 4570   2.786   0.411   0.146
 1518SOL    HW2 4571   2.746   0.254   0.166
 1519SOL     OW 4572   3.581   0.585   1.831
 1519SOL    HW1 4573   3.555   0.674   1.795
 1519SOL    HW2 4574   3.579   0.517   1.758
 1520SOL     OW 4575   3.224   1.144   0.545
 1520SOL    HW1 4576   3.307   1.115   0.497
 1520SOL    HW2 4577   3.175   1.211   0.489
 1521SOL     OW 4578   2.412   0.196   0.885
 1521SOL    HW1 4579   2.407   0.191   0.985
 1521SOL    HW2 4580   2.414   0.292   0.856
 1522SOL     OW 4581   2.870   1.456   0.477
 1522SOL    HW1 4582   2.824   1.528   0.425
 1522SOL    HW2 4583   2.866   1.476   0.575
 1523SOL     OW 4584   2.213   1.801   0.853
 1523SOL    HW1 4585   2.263   1.715   0.859
 1523SOL    HW2 4586   2.278   1.878   0.850
 1524SOL     OW 4587   3.657   1.066   0.873
 1524SOL    HW1 4588   3.595   1.051   0.797
 1524SOL    HW2 4589   3.605   1.077   0.958
 1525SOL     OW 4590   3.089   1.550   1.506
 1525SOL    HW1 4591   3.095   1.473   1.570
 1525SOL    HW2 4592   3.037   1.524   1.426
 1526SOL     OW 4593   2.183   0.943   0.242
 1526SOL    HW1 4594   2.265   0.982   0.200
 1526SOL    HW2 4595   2.156   0.861   0.193
 1527SOL     OW 4596   3.320   0.735   0.728
 1527SOL    HW1 4597   3.315   0.670   0.803
 1527SOL    HW2 4598   3.400   0.794   0.741
 1528SOL     OW 4599   2.323   1.266   1.727
 1528SOL    HW1 4600   2.273   1.267   1.641
 1528SOL    HW2 4601   2.260   1.248   1.803
 1529SOL     OW 4602   2.973   1.776   0.237
 1529SOL    HW1 4603   2.913   1.714   0.287
 1529SOL    HW2 4604   3.004   1.732   0.152
 1530SOL     OW 4605   2.064   0.285   1.498
 1530SOL    HW1 4606   1.984   0.345   1.485
 1530SOL    HW2 4607   2.054   0.236   1.584
 1531SOL     OW 4608   3.494   1.377   0.081
 1531SOL    HW1 4609   3.462   1.471   0.071
 1531SOL    HW2 4610   3.418   1.314   0.069
 1532SOL     OW 4611   2.326   1.743   0.323
 1532SOL    HW1 4612   2.359   1.782   0.409
 1532SOL    HW2 4613   2.402   1.736   0.258
 1533SOL     OW 4614   3.262   0.107   0.426
 1533SOL    HW1 4615   3.238   0.070   0.336
 1533SOL    HW2 4616   3.361   0.123   0.430
 1534SOL     OW 4617   2.111   1.785   1.241
 1534SOL    HW1 4618   2.168   1.720   1.291
 1534SOL    HW2 4619   2.095   1.752   1.148
 1535SOL     OW 4620   2.802   1.698   0.904
 1535SOL    HW1 4621   2.882   1.641   0.925
 1535SOL    HW2 4622   2.753   1.658   0.827
 1536SOL     OW 4623   2.244   0.700   0.480
 1536SOL    HW1 4624   2.289   0.610   0.477
 1536SOL    HW2 4625   2.150   0.689   0.513
 1537SOL     OW 4626   3.409   0.222   1.729
 1537SOL    HW1 4627   3.404   0.259   1.821
 1537SOL    HW2 4628   3.337   0.153   1.717
 1538SOL     OW 4629   2.476   0.122   0.117
 1538SOL    HW1 4630   2.574   0.100   0.124
 1538SOL    HW2 4631   2.445   0.105   0.024
 1539SOL     OW 4632   2.643   0.264   1.749
 1539SOL    HW1 4633   2.710   0.203   1.792
 1539SOL    HW2 4634   2.570   0.283   1.814
 1540SOL     OW 4635   2.750   1.514   1.195
 1540SOL    HW1 4636   2.727   1.489   1.101
 1540SOL    HW2 4637   2.811   1.445   1.234
 1541SOL     OW 4638   3.213   0.590   1.433
 1541SOL    HW1 4639   3.241   0.547   1.518
 1541SOL    HW2 4640   3.238   0.686   1.434
 1542SOL     OW 4641   2.665   1.402   0.924
 1542SOL    HW1 4642   2.755   1.416   0.882
 1542SOL    HW2 4643   2.594   1.404   0.853
 1543SOL     OW 4644   2.784   0.503   0.899
 1543SOL    HW1 4645   2.759   0.494   0.803
 1543SOL    HW2 4646   2.832   0.421   0.930
 1544SOL     OW 4647   2.401   0.064   0.512
 1544SOL    HW1 4648   2.320   0.065   0.570
 1544SOL    HW2 4649   2.404   0.147   0.457
 1545SOL     OW 4650   3.296   1.188   0.041
 1545SOL    HW1 4651   3.328   1.112   0.098
 1545SOL    HW2 4652   3.204   1.215   0.071
 1546SOL     OW 4653   2.159   0.035   0.171
 1546SOL    HW1 4654   2.208   0.119   0.150
 1546SOL    HW2 4655   2.221  -0.030   0.216
 1547SOL     OW 4656   2.797   0.236   0.480
 1547SOL    HW1 4657   2.749   0.277   0.402
 1547SOL    HW2 4658   2.896   0.234   0.461
 1548SOL     OW 4659   2.938   0.683   1.464
 1548SOL    HW1 4660   2.858   0.622   1.467
 1548SOL    HW2 4661   3.019   0.630   1.440
 1549SOL     OW 4662   3.089   1.570   0.793
 1549SOL    HW1 4663   3.110   1.644   0.728
 1549SOL    HW2 4664   3.157   1.570   0.866
 1550SOL     OW 4665   2.321   1.152   0.741
 1550SOL    HW1 4666   2.250   1.125   0.806
 1550SOL    HW2 4667   2.295   1.124   0.648
 1551SOL     OW 4668   3.133   1.797   0.591
 1551SOL    HW1 4669   3.177   1.861   0.527
 1551SOL    HW2 4670   3.083   1.849   0.661
 1552SOL     OW 4671   2.894   0.549   0.016
 1552SOL    HW1 4672   2.853   0.631  -0.023
 1552SOL    HW2 4673   2.958   0.575   0.089
 1553SOL     OW 4674   1.940   0.556   1.386
 1553SOL    HW1 4675   2.032   0.555   1.345
 1553SOL    HW2 4676   1.934   0.630   1.453
 1554SOL     OW 4677   2.423   0.222   1.147
 1554SOL    HW1 4678   2.461   0.138   1.184
 1554SOL    HW2 4679   2.335   0.241   1.191
 1555SOL     OW 4680   2.728   0.454   0.642
 1555SOL    HW1 4681   2.696   0.526   0.580
 1555SOL    HW2 4682   2.752   0.373   0.589
 1556SOL     OW 4683   2.879   0.039   0.753
 1556SOL    HW1 4684   2.807   0.044   0.684
 1556SOL    HW2 4685   2.855  -0.030   0.822
 1557SOL     OW 4686   3.291   1.173   0.867
 1557SOL    HW1 4687   3.236   1.089   0.860
 1557SOL    HW2 4688   3.317   1.202   0.775
 1558SOL     OW 4689   3.328   0.590   0.992
 1558SOL    HW1 4690   3.298   0.495   0.999
 1558SOL    HW2 4691   3.401   0.606   1.058
 1559SOL     OW 4692   3.719   0.833   0.377
 1559SOL    HW1 4693   3.761   0.769   0.441
 1559SOL    HW2 4694   3.681   0.782   0.299
 1560SOL     OW 4695   2.350   1.385   0.174
 1560SOL    HW1 4696   2.263   1.370   0.221
 1560SOL    HW2 4697   2.333   1.411   0.079
 1561SOL     OW 4698   3.526   1.280   0.657
 1561SOL    HW1 4699   3.625   1.288   0.671
 1561SOL    HW2 4700   3.481   1.364   0.688
 1562SOL     OW 4701   3.252   0.575   0.078
 1562SOL    HW1 4702   3.198   0.554   0.159
 1562SOL    HW2 4703   3.343   0.534   0.087
 1563SOL     OW 4704   2.389   0.256   0.328
 1563SOL    HW1 4705   2.416   0.197   0.253
 1563SOL    HW2 4706   2.389   0.351   0.297
 1564SOL     OW 4707   3.616   1.223   1.588
 1564SOL    HW1 4708   3.707   1.184   1.575
 1564SOL    HW2 4709   3.624   1.319   1.612
 1565SOL     OW 4710   2.926   1.347   1.340
 1565SOL    HW1 4711   2.846   1.324   1.395
 1565SOL    HW2 4712   3.009   1.321   1.389
 1566SOL     OW 4713   3.454   1.629   1.625
 1566SOL    HW1 4714   3.481   1.663   1.535
 1566SOL    HW2 4715   3.533   1.591   1.671
 1567SOL     OW 4716   2.973   1.195   1.100
 1567SOL    HW1 4717   2.933   1.239   1.181
 1567SOL    HW2 4718   2.932   1.232   1.017
 1568SOL     OW 4719   3.500   1.099   1.079
 1568SOL    HW1 4720   3.505   1.180   1.138
 1568SOL    HW2 4721   3.414   1.101   1.028
 1569SOL     OW 4722   2.777   0.089   1.402
 1569SOL    HW1 4723   2.802   0.069   1.307
 1569SOL    HW2 4724   2.849   0.145   1.444
 1570SOL     OW 4725   2.842   1.116   1.719
 1570SOL    HW1 4726   2.743   1.122   1.729
 1570SOL    HW2 4727   2.865   1.036   1.663
 1571SOL     OW 4728   2.567   1.050   0.368
 1571SOL    HW1 4729   2.553   1.057   0.467
 1571SOL    HW2 4730   2.651   0.999   0.350
 1572SOL     OW 4731   2.272   0.813   1.251
 1572SOL    HW1 4732   2.358   0.825   1.301
 1572SOL    HW2 4733   2.230   0.726   1.278
 1573SOL     OW 4734   3.136   0.386   1.262
 1573SOL    HW1 4735   3.157   0.460   1.326
 1573SOL    HW2 4736   3.047   0.403   1.219
 1574SOL     OW 4737   1.926   1.564   1.331
 1574SOL    HW1 4738   1.880   1.646   1.297
 1574SOL    HW2 4739   2.024   1.583   1.340
 1575SOL     OW 4740   2.229   1.100   0.501
 1575SOL    HW1 4741   2.222   1.183   0.445
 1575SOL    HW2 4742   2.233   1.020   0.441
 1576SOL     OW 4743   2.428   0.537   0.865
 1576SOL    HW1 4744   2.440   0.603   0.791
 1576SOL    HW2 4745   2.474   0.571   0.948
 1577SOL     OW 4746   3.114   1.348   0.388
 1577SOL    HW1 4747   3.164   1.425   0.428
 1577SOL    HW2 4748   3.019   1.350   0.420
 1578SOL     OW 4749   3.134   1.445   1.142
 1578SOL    HW1 4750   3.181   1.458   1.229
 1578SOL    HW2 4751   3.068   1.371   1.151
 1579SOL     OW 4752   3.444   0.639   0.472
 1579SOL    HW1 4753   3.413   0.700   0.545
 1579SOL    HW2 4754   3.494   0.691   0.403
 1580SOL     OW 4755   2.216   1.510   1.329
 1580SOL    HW1 4756   2.195   1.466   1.242
 1580SOL    HW2 4757   2.313   1.536   1.332
 1581SOL     OW 4758   2.264   0.751   1.598
 1581SOL    HW1 4759   2.332   0.806   1.551
 1581SOL    HW2 4760   2.304   0.663   1.625
 1582SOL     OW 4761   3.449   0.779   1.670
 1582SOL    HW1 4762   3.357   0.817   1.665
 1582SOL    HW2 4763   3.509   0.826   1.605
 1583SOL     OW 4764   2.875   0.105   1.770
 1583SOL    HW1 4765   2.881   0.190   1.718
 1583SOL    HW2 4766   2.907   0.029   1.713
 1584SOL     OW 4767   2.366   0.050   1.740
 1584SOL    HW1 4768   2.324  -0.007   1.670
 1584SOL    HW2 4769   2.300   0.119   1.772
 1585SOL     OW 4770   2.435   0.870   1.029
 1585SOL    HW1 4771   2.479   0.959   1.020
 1585SOL    HW2 4772   2.372   0.870   1.106
 1586SOL     OW 4773   3.222   0.862   1.045
 1586SOL    HW1 4774   3.147   0.862   0.979
 1586SOL    HW2 4775   3.259   0.770   1.054
 1587SOL     OW 4776   3.071   0.525   0.275
 1587SOL    HW1 4777   3.084   0.441   0.329
 1587SOL    HW2 4778   3.042   0.599   0.335
 1588SOL     OW 4779   2.169   0.213   1.231
 1588SOL    HW1 4780   2.146   0.250   1.321
 1588SOL    HW2 4781   2.139   0.118   1.225
 1589SOL     OW 4782   1.899   1.310   1.282
 1589SOL    HW1 4783   1.952   1.261   1.350
 1589SOL    HW2 4784   1.921   1.408   1.287
 1590SOL     OW 4785   2.594   0.634   1.064
 1590SOL    HW1 4786   2.653   0.608   0.988
 1590SOL    HW2 4787   2.566   0.730   1.053
 1591SOL     OW 4788   3.590   0.935   1.854
 1591SOL    HW1 4789   3.544   0.928   1.765
 1591SOL    HW2 4790   3.528   0.979   1.920
 1592SOL     OW 4791   2.169   0.063   0.618
 1592SOL    HW1 4792   2.158   0.157   0.651
 1592SOL    HW2 4793   2.164   0.000   0.695
 1593SOL     OW 4794   3.484   0.367   0.374
 1593SOL    HW1 4795   3.486   0.291   0.438
 1593SOL    HW2 4796   3.436   0.444   0.414
 1594SOL     OW 4797   2.885   0.766   0.966
 1594SOL    HW1 4798   2.900   0.787   1.062
 1594SOL    HW2 4799   2.855   0.671   0.957
 1595SOL     OW 4800   2.842   1.573   1.700
 1595SOL    HW1 4801   2.822   1.617   1.612
 1595SOL    HW2 4802   2.881   1.482   1.684
 1596SOL     OW 4803   3.721   1.518   1.605
 1596SOL    HW1 4804   3.735   1.545   1.510
 1596SOL    HW2 4805   3.804   1.540   1.658
 1597SOL     OW 4806   2.212   0.898   1.804
 1597SOL    HW1 4807   2.288   0.942   1.852
 1597SOL    HW2 4808   2.247   0.851   1.722
 1598SOL     OW 4809   3.402   0.274   0.125
 1598SOL    HW1 4810   3.341   0.199   0.148
 1598SOL    HW2 4811   3.424   0.326   0.208
 1599SOL     OW 4812   3.165   0.838   0.042
 1599SOL    HW1 4813   3.199   0.745   0.057
 1599SOL    HW2 4814   3.183   0.865  -0.053
 1600SOL     OW 4815   2.930   1.333   0.849
 1600SOL    HW1 4816   2.937   1.249   0.794
 1600SOL    HW2 4817   2.992   1.402   0.813
 1601SOL     OW 4818   2.181   0.810   0.949
 1601SOL    HW1 4819   2.274   0.846   0.954
 1601SOL    HW2 4820   2.175   0.725   1.001
 1602SOL     OW 4821   2.201   0.509   1.006
 1602SOL    HW1 4822   2.149   0.426   0.989
 1602SOL    HW2 4823   2.278   0.514   0.942
 1603SOL     OW 4824   3.000   0.380   1.678
 1603SOL    HW1 4825   2.955   0.443   1.742
 1603SOL    HW2 4826   3.093   0.411   1.661
 1604SOL     OW 4827   3.022   0.207   1.477
 1604SOL    HW1 4828   3.022   0.271   1.554
 1604SOL    HW2 4829   3.050   0.255   1.394
 1605SOL     OW 4830   1.870   1.326   0.200
 1605SOL    HW1 4831   1.777   1.347   0.169
 1605SOL    HW2 4832   1.880   1.227   0.213
 1606SOL     OW 4833   1.950   1.801   0.927
 1606SOL    HW1 4834   1.908   1.715   0.900
 1606SOL    HW2 4835   2.044   1.804   0.893
 1607SOL     OW 4836   2.366   1.568   0.910
 1607SOL    HW1 4837   2.432   1.642   0.919
 1607SOL    HW2 4838   2.410   1.489   0.868
 1608SOL     OW 4839   2.864   0.796   1.238
 1608SOL    HW1 4840   2.905   0.764   1.324
 1608SOL    HW2 4841   2.768   0.769   1.235
 1609SOL     OW 4842   1.902   0.544   1.114
 1609SOL    HW1 4843   1.987   0.511   1.073
 1609SOL    HW2 4844   1.915   0.559   1.212
 1610SOL     OW 4845   2.051   0.520   1.722
 1610SOL    HW1 4846   2.110   0.480   1.652
 1610SOL    HW2 4847   1.993   0.591   1.681
 1611SOL     OW 4848   3.231   0.950   1.660
 1611SOL    HW1 4849   3.270   1.039   1.680
 1611SOL    HW2 4850   3.241   0.930   1.563
 1612SOL     OW 4851   2.677   0.572   0.325
 1612SOL    HW1 4852   2.684   0.483   0.279
 1612SOL    HW2 4853   2.583   0.606   0.317
 1613SOL     OW 4854   3.519   0.604   1.206
 1613SOL    HW1 4855   3.481   0.535   1.268
 1613SOL    HW2 4856   3.601   0.568   1.162
 1614SOL     OW 4857   2.114   1.564   1.744
 1614SOL    HW1 4858   2.084   1.621   1.820
 1614SOL    HW2 4859   2.107   1.467   1.770
 1615SOL     OW 4860   2.533   0.464   1.269
 1615SOL    HW1 4861   2.499   0.375   1.239
 1615SOL    HW2 4862   2.559   0.518   1.189
 1616SOL     OW 4863   2.792   1.678   1.465
 1616SOL    HW1 4864   2.768   1.660   1.370
 1616SOL    HW2 4865   2.822   1.772   1.475
 1617SOL     OW 4866   2.335   0.500   0.191
 1617SOL    HW1 4867   2.396   0.580   0.195
 1617SOL    HW2 4868   2.240   0.531   0.198
 1618SOL     OW 4869   2.021   1.137   1.466
 1618SOL    HW1 4870   2.043   1.076   1.542
 1618SOL    HW2 4871   2.031   1.088   1.380
 1619SOL     OW 4872   3.209   1.059   1.234
 1619SOL    HW1 4873   3.233   0.996   1.160
 1619SOL    HW2 4874   3.119   1.099   1.216
 1620SOL     OW 4875   3.164   0.855   0.309
 1620SOL    HW1 4876   3.078   0.824   0.351
 1620SOL    HW2 4877   3.160   0.841   0.210
 1621SOL     OW 4878   3.621   1.747   1.154
 1621SOL    HW1 4879   3.682   1.777   1.081
 1621SOL    HW2 4880   3.583   1.658   1.132
 1622SOL     OW 4881   3.114   1.731   1.128
 1622SOL    HW1 4882   3.198   1.736   1.074
 1622SOL    HW2 4883   3.091   1.635   1.146
 1623SOL     OW 4884   1.945   1.258   1.022
 1623SOL    HW1 4885   1.940   1.257   1.122
 1623SOL    HW2 4886   1.862   1.217   0.984
 1624SOL     OW 4887   2.550   1.662   1.716
 1624SOL    HW1 4888   2.494   1.743   1.725
 1624SOL    HW2 4889   2.602   1.666   1.630
 1625SOL     OW 4890   2.765   0.086   0.133
 1625SOL    HW1 4891   2.816   0.087   0.047
 1625SOL    HW2 4892   2.821   0.044   0.204
 1626SOL     OW 4893   3.588   0.135   0.523
 1626SOL    HW1 4894   3.661   0.118   0.456
 1626SOL    HW2 4895   3.557   0.048   0.561
 1627SOL     OW 4896   3.250   1.573   0.477
 1627SOL    HW1 4897   3.317   1.585   0.403
 1627SOL    HW2 4898   3.210   1.662   0.500
 1628SOL     OW 4899   1.992   1.794   1.851
 1628SOL    HW1 4900   1.951   1.720   1.904
 1628SOL    HW2 4901   2.056   1.845   1.909
 1629SOL     OW 4902   3.142   0.927   0.672
 1629SOL    HW1 4903   3.202   0.846   0.674
 1629SOL    HW2 4904   3.182   0.996   0.612
 1630SOL     OW 4905   2.692   1.273   1.422
 1630SOL    HW1 4906   2.687   1.306   1.517
 1630SOL    HW2 4907   2.606   1.292   1.376
 1631SOL     OW 4908   2.534   1.616   0.154
 1631SOL    HW1 4909   2.543   1.626   0.055
 1631SOL    HW2 4910   2.494   1.527   0.175
 1632SOL     OW 4911   3.512   1.720   1.394
 1632SOL    HW1 4912   3.565   1.730   1.310
 1632SOL    HW2 4913   3.485   1.810   1.428
 1633SOL     OW 4914   3.703   0.175   0.963
 1633SOL    HW1 4915   3.742   0.090   0.927
 1633SOL    HW2 4916   3.605   0.177   0.944
 1634SOL     OW 4917   2.125   0.326   0.720
 1634SOL    HW1 4918   2.046   0.377   0.686
 1634SOL    HW2 4919   2.116   0.311   0.818
 1635SOL     OW 4920   3.056   1.612   0.031
 1635SOL    HW1 4921   3.062   1.519   0.068
 1635SOL    HW2 4922   2.997   1.612  -0.049
 1636SOL     OW 4923   2.684   1.002   1.372
 1636SOL    HW1 4924   2.724   1.001   1.280
 1636SOL    HW2 4925   2.694   1.094   1.412
 1637SOL     OW 4926   2.778   0.910   0.291
 1637SOL    HW1 4927   2.841   0.948   0.223
 1637SOL    HW2 4928   2.818   0.827   0.330
 1638SOL     OW 4929   3.366   1.607   0.044
 1638SOL    HW1 4930   3.274   1.644   0.051
 1638SOL    HW2 4931   3.404   1.627  -0.046
 1639SOL     OW 4932   2.234   1.288   1.490
 1639SOL    HW1 4933   2.221   1.381   1.456
 1639SOL    HW2 4934   2.150   1.236   1.477
 1640SOL     OW 4935   3.476   1.292   1.289
 1640SOL    HW1 4936   3.536   1.295   1.369
 1640SOL    HW2 4937   3.401   1.356   1.302
 1641SOL     OW 4938   2.901   1.098   0.696
 1641SOL    HW1 4939   2.831   1.051   0.750
 1641SOL    HW2 4940   2.960   1.030   0.653
 1642SOL     OW 4941   2.876   0.236   0.971
 1642SOL    HW1 4942   2.868   0.200   0.878
 1642SOL    HW2 4943   2.874   0.160   1.036
 1643SOL     OW 4944   2.452   1.487   0.491
 1643SOL    HW1 4945   2.494   1.429   0.421
 1643SOL    HW2 4946   2.408   1.566   0.447
 1644SOL     OW 4947   3.571   0.385   1.381
 1644SOL    HW1 4948   3.644   0.454   1.385
 1644SOL    HW2 4949   3.599   0.310   1.322
 1645SOL     OW 4950   2.117   1.348   0.290
 1645SOL    HW1 4951   2.021   1.349   0.263
 1645SOL    HW2 4952   2.129   1.401   0.374
 1646SOL     OW 4953   1.967   1.013   1.726
 1646SOL    HW1 4954   1.890   0.980   1.780
 1646SOL    HW2 4955   2.052   0.983   1.768
 1647SOL     OW 4956   2.534   0.203   1.489
 1647SOL    HW1 4957   2.624   0.187   1.449
 1647SOL    HW2 4958   2.542   0.208   1.588
 1648SOL     OW 4959   3.302   0.856   1.398
 1648SOL    HW1 4960   3.245   0.908   1.335
 1648SOL    HW2 4961   3.398   0.868   1.374
 1649SOL     OW 4962   1.934   0.166   0.318
 1649SOL    HW1 4963   1.917   0.249   0.264
 1649SOL    HW2 4964   2.024   0.129   0.296
 1650SOL     OW 4965   3.045   1.335   0.119
 1650SOL    HW1 4966   2.946   1.324   0.121
 1650SOL    HW2 4967   3.079   1.350   0.212
 1651SOL     OW 4968   2.475   0.842   1.431
 1651SOL    HW1 4969   2.531   0.923   1.414
 1651SOL    HW2 4970   2.534   0.762   1.434
 1652SOL     OW 4971   3.355   1.767   0.959
 1652SOL    HW1 4972   3.388   1.831   0.890
 1652SOL    HW2 4973   3.421   1.761   1.034
 1653SOL     OW 4974   2.578   0.565   1.708
 1653SOL    HW1 4975   2.597   0.630   1.782
 1653SOL    HW2 4976   2.638   0.485   1.717
 1654SOL     OW 4977   3.312   1.220   1.633
 1654SOL    HW1 4978   3.303   1.210   1.732
 1654SOL    HW2 4979   3.408   1.213   1.607
 1655SOL     OW 4980   2.252   1.741   1.560
 1655SOL    HW1 4981   2.161   1.782   1.558
 1655SOL    HW2 4982   2.245   1.647   1.592
 1656SOL     OW 4983   3.536   0.883   1.254
 1656SOL    HW1 4984   3.509   0.794   1.217
 1656SOL    HW2 4985   3.537   0.951   1.181
 1657SOL     OW 4986   3.087   0.325   0.449
 1657SOL    HW1 4987   3.152   0.251   0.438
 1657SOL    HW2 4988   3.107   0.375   0.533
 1658SOL     OW 4989   2.456   0.745   0.652
 1658SOL    HW1 4990   2.506   0.830   0.633
 1658SOL    HW2 4991   2.368   0.747   0.604
 1659SOL     OW 4992   3.639   0.342   1.642
 1659SOL    HW1 4993   3.622   0.373   1.548
 1659SOL    HW2 4994   3.555   0.305   1.680
 1660SOL     OW 4995   3.592   0.934   1.517
 1660SOL    HW1 4996   3.630   1.025   1.532
 1660SOL    HW2 4997   3.584   0.917   1.418
 1661SOL     OW 4998   2.721   1.374   0.016
 1661SOL    HW1 4999   2.675   1.389   0.104
 1661SOL    HW2 5000   2.765   1.459  -0.014
 1662SOL     OW 5001   2.523   1.790   0.953
 1662SOL    HW1 5002   2.477   1.878   0.940
 1662SOL    HW2 5003   2.622   1.802   0.946
 1663SOL     OW 5004   2.721   0.956   0.861
 1663SOL    HW1 5005   2.775   0.887   0.909
 1663SOL    HW2 5006   2.689   1.025   0.927
 1664SOL     OW 5007   2.945   0.984   0.087
 1664SOL    HW1 5008   2.922   1.037   0.005
 1664SOL    HW2 5009   3.026   0.928   0.068
 1665SOL     OW 5010   3.723   1.569   0.851
 1665SOL    HW1 5011   3.652   1.557   0.781
 1665SOL    HW2 5012   3.724   1.490   0.911
 1666SOL     OW 5013   2.083   1.314   1.844
 1666SOL    HW1 5014   2.018   1.241   1.823
 1666SOL    HW2 5015   2.087   1.328   1.942
 1667SOL     OW 5016   1.941   1.240   0.653
 1667SOL    HW1 5017   1.940   1.193   0.741
 1667SOL    HW2 5018   2.023   1.212   0.602
 1668SOL     OW 5019   2.534   1.391   1.624
 1668SOL    HW1 5020   2.456   1.341   1.662
 1668SOL    HW2 5021   2.531   1.486   1.655
 1669SOL     OW 5022   3.686   0.192   1.227
 1669SOL    HW1 5023   3.682   0.102   1.271
 1669SOL    HW2 5024   3.689   0.181   1.128
 1670SOL     OW 5025   2.290   0.424   0.520
 1670SOL    HW1 5026   2.320   0.352   0.458
 1670SOL    HW2 5027   2.251   0.384   0.603
 1671SOL     OW 5028   3.567   1.487   1.104
 1671SOL    HW1 5029   3.474   1.462   1.077
 1671SOL    HW2 5030   3.593   1.437   1.186
 1672SOL     OW 5031   2.179   0.547   1.280
 1672SOL    HW1 5032   2.217   0.488   1.352
 1672SOL    HW2 5033   2.219   0.521   1.192
 1673SOL     OW 5034   2.674   1.586   0.687
 1673SOL    HW1 5035   2.706   1.596   0.593
 1673SOL    HW2 5036   2.595   1.524   0.689
 1674SOL     OW 5037   3.286   0.214   1.112
 1674SOL    HW1 5038   3.338   0.149   1.167
 1674SOL    HW2 5039   3.237   0.277   1.173
 1675SOL     OW 5040   2.863   0.034   1.154
 1675SOL    HW1 5041   2.800  -0.038   1.123
 1675SOL    HW2 5042   2.956  -0.002   1.154
 1676SOL     OW 5043   2.632   1.330   0.301
 1676SOL    HW1 5044   2.586   1.243   0.318
 1676SOL    HW2 5045   2.723   1.327   0.342
 1677SOL     OW 5046   2.480   1.567   1.284
 1677SOL    HW1 5047   2.475   1.649   1.341
 1677SOL    HW2 5048   2.569   1.564   1.239
 1678SOL     OW 5049   3.214   0.052   0.168
 1678SOL    HW1 5050   3.249   0.011   0.084
 1678SOL    HW2 5051   3.124   0.014   0.188
 1679SOL     OW 5052   3.162   0.453   0.691
 1679SOL    HW1 5053   3.103   0.533   0.695
 1679SOL    HW2 5054   3.177   0.418   0.784
 1680SOL     OW 5055   3.455   0.221   0.882
 1680SOL    HW1 5056   3.371   0.220   0.936
 1680SOL    HW2 5057   3.457   0.304   0.826
 1681SOL     OW 5058   1.901   1.077   0.300
 1681SOL    HW1 5059   2.000   1.066   0.291
 1681SOL    HW2 5060   1.861   0.991   0.332
 1682SOL     OW 5061   2.737   1.646   0.337
 1682SOL    HW1 5062   2.660   1.611   0.283
 1682SOL    HW2 5063   2.705   1.717   0.399
 1683SOL     OW 5064   2.092   0.628   1.975
 1683SOL    HW1 5065   1.999   0.626   2.012
 1683SOL    HW2 5066   2.093   0.589   1.883
 1684SOL     OW 5067   2.087   0.275   2.858
 1684SOL    HW1 5068   2.122   0.258   2.950
 1684SOL    HW2 5069   1.999   0.230   2.846
 1685SOL     OW 5070   1.881   0.368   2.509
 1685SOL    HW1 5071   1.799   0.411   2.548
 1685SOL    HW2 5072   1.853   0.295   2.446
 1686SOL     OW 5073   2.431   1.275   3.027
 1686SOL    HW1 5074   2.338   1.268   2.990
 1686SOL    HW2 5075   2.442   1.364   3.071
 1687SOL     OW 5076   3.417   1.511   2.565
 1687SOL    HW1 5077   3.360   1.495   2.646
 1687SOL    HW2 5078   3.358   1.521   2.485
 1688SOL     OW 5079   2.997   0.703   2.579
 1688SOL    HW1 5080   3.054   0.781   2.554
 1688SOL    HW2 5081   2.937   0.729   2.655
 1689SOL     OW 5082   3.617   0.607   2.093
 1689SOL    HW1 5083   3.605   0.594   1.994
 1689SOL    HW2 5084   3.587   0.526   2.142
 1690SOL     OW 5085   2.630   1.144   2.885
 1690SOL    HW1 5086   2.552   1.161   2.945
 1690SOL    HW2 5087   2.664   1.231   2.849
 1691SOL     OW 5088   2.712   0.798   3.685
 1691SOL    HW1 5089   2.708   0.874   3.750
 1691SOL    HW2 5090   2.734   0.834   3.594
 1692SOL     OW 5091   2.547   1.012   2.527
 1692SOL    HW1 5092   2.616   0.996   2.597
 1692SOL    HW2 5093   2.474   1.069   2.565
 1693SOL     OW 5094   2.548   1.161   3.665
 1693SOL    HW1 5095   2.608   1.240   3.679
 1693SOL    HW2 5096   2.462   1.192   3.624
 1694SOL     OW 5097   2.197   1.435   2.923
 1694SOL    HW1 5098   2.119   1.404   2.870
 1694SOL    HW2 5099   2.255   1.493   2.866
 1695SOL     OW 5100   3.322   1.505   3.201
 1695SOL    HW1 5101   3.346   1.599   3.227
 1695SOL    HW2 5102   3.306   1.451   3.283
 1696SOL     OW 5103   2.300   0.392   3.361
 1696SOL    HW1 5104   2.382   0.336   3.370
 1696SOL    HW2 5105   2.219   0.334   3.365
 1697SOL     OW 5106   3.465   0.447   2.599
 1697SOL    HW1 5107   3.391   0.493   2.549
 1697SOL    HW2 5108   3.516   0.515   2.652
 1698SOL     OW 5109   2.093   1.713   2.345
 1698SOL    HW1 5110   2.127   1.790   2.399
 1698SOL    HW2 5111   2.137   1.713   2.255
 1699SOL     OW 5112   2.989   1.341   3.552
 1699SOL    HW1 5113   3.036   1.341   3.640
 1699SOL    HW2 5114   2.941   1.254   3.541
 1700SOL     OW 5115   2.092   1.434   2.400
 1700SOL    HW1 5116   2.066   1.530   2.400
 1700SOL    HW2 5117   2.021   1.380   2.445
 1701SOL     OW 5118   2.102   1.091   2.748
 1701SOL    HW1 5119   2.116   1.007   2.800
 1701SOL    HW2 5120   2.047   1.155   2.803
 1702SOL     OW 5121   2.482   1.786   3.301
 1702SOL    HW1 5122   2.390   1.769   3.336
 1702SOL    HW2 5123   2.510   1.878   3.327
 1703SOL     OW 5124   2.468   0.964   1.985
 1703SOL    HW1 5125   2.475   1.048   1.931
 1703SOL    HW2 5126   2.514   0.977   2.073
 1704SOL     OW 5127   3.456   0.114   3.342
 1704SOL    HW1 5128   3.438   0.181   3.270
 1704SOL    HW2 5129   3.453   0.160   3.431
 1705SOL     OW 5130   1.984   0.643   2.425
 1705SOL    HW1 5131   1.939   0.555   2.442
 1705SOL    HW2 5132   1.983   0.697   2.509
 1706SOL     OW 5133   3.704   1.767   2.221
 1706SOL    HW1 5134   3.758   1.738   2.301
 1706SOL    HW2 5135   3.734   1.857   2.192
 1707SOL     OW 5136   1.889   1.596   1.979
 1707SOL    HW1 5137   1.870   1.500   2.000
 1707SOL    HW2 5138   1.856   1.654   2.054
 1708SOL     OW 5139   3.551   0.922   2.474
 1708SOL    HW1 5140   3.646   0.893   2.482
 1708SOL    HW2 5141   3.543   0.987   2.399
 1709SOL     OW 5142   3.503   1.108   2.294
 1709SOL    HW1 5143   3.589   1.110   2.242
 1709SOL    HW2 5144   3.517   1.155   2.382
 1710SOL     OW 5145   1.975   0.737   3.459
 1710SOL    HW1 5146   2.063   0.724   3.504
 1710SOL    HW2 5147   1.962   0.834   3.437
 1711SOL     OW 5148   2.475   1.365   2.588
 1711SOL    HW1 5149   2.426   1.278   2.597
 1711SOL    HW2 5150   2.452   1.408   2.501
 1712SOL     OW 5151   3.155   1.228   3.285
 1712SOL    HW1 5152   3.192   1.155   3.227
 1712SOL    HW2 5153   3.207   1.233   3.370
 1713SOL     OW 5154   2.671   0.004   2.364
 1713SOL    HW1 5155   2.711   0.095   2.355
 1713SOL    HW2 5156   2.571   0.012   2.370
 1714SOL     OW 5157   2.059   0.976   3.126
 1714SOL    HW1 5158   2.148   0.931   3.112
 1714SOL    HW2 5159   1.986   0.911   3.107
 1715SOL     OW 5160   3.387   0.999   2.052
 1715SOL    HW1 5161   3.324   0.923   2.065
 1715SOL    HW2 5162   3.435   1.017   2.138
 1716SOL     OW 5163   3.049   1.792   3.478
 1716SOL    HW1 5164   3.073   1.852   3.402
 1716SOL    HW2 5165   3.056   1.697   3.448
 1717SOL     OW 5166   2.179   0.251   3.663
 1717SOL    HW1 5167   2.250   0.322   3.669
 1717SOL    HW2 5168   2.091   0.290   3.691
 1718SOL     OW 5169   3.328   1.417   2.815
 1718SOL    HW1 5170   3.269   1.423   2.895
 1718SOL    HW2 5171   3.313   1.329   2.769
 1719SOL     OW 5172   3.529   1.714   2.434
 1719SOL    HW1 5173   3.488   1.691   2.346
 1719SOL    HW2 5174   3.511   1.640   2.499
 1720SOL     OW 5175   2.460   0.729   2.132
 1720SOL    HW1 5176   2.484   0.798   2.064
 1720SOL    HW2 5177   2.382   0.762   2.186
 1721SOL     OW 5178   3.143   0.345   2.806
 1721SOL    HW1 5179   3.057   0.295   2.793
 1721SOL    HW2 5180   3.205   0.291   2.862
 1722SOL     OW 5181   3.438   1.662   2.169
 1722SOL    HW1 5182   3.527   1.708   2.172
 1722SOL    HW2 5183   3.417   1.638   2.074
 1723SOL     OW 5184   2.669   0.605   3.327
 1723SOL    HW1 5185   2.622   0.602   3.416
 1723SOL    HW2 5186   2.618   0.550   3.261
 1724SOL     OW 5187   3.256   0.469   3.536
 1724SOL    HW1 5188   3.236   0.512   3.624
 1724SOL    HW2 5189   3.334   0.407   3.545
 1725SOL     OW 5190   2.835   0.890   3.434
 1725SOL    HW1 5191   2.881   0.806   3.405
 1725SOL    HW2 5192   2.779   0.924   3.359
 1726SOL     OW 5193   2.853   0.410   3.104
 1726SOL    HW1 5194   2.776   0.444   3.158
 1726SOL    HW2 5195   2.819   0.359   3.025
 1727SOL     OW 5196   2.903   0.701   2.291
 1727SOL    HW1 5197   2.929   0.697   2.387
 1727SOL    HW2 5198   2.818   0.650   2.277
 1728SOL     OW 5199   1.938   0.811   2.651
 1728SOL    HW1 5200   2.037   0.799   2.660
 1728SOL    HW2 5201   1.914   0.906   2.672
 1729SOL     OW 5202   1.992   1.821   3.433
 1729SOL    HW1 5203   1.982   1.806   3.532
 1729SOL    HW2 5204   1.906   1.857   3.397
 1730SOL     OW 5205   2.727   0.348   2.057
 1730SOL    HW1 5206   2.786   0.411   2.008
 1730SOL    HW2 5207   2.746   0.254   2.028
 1731SOL     OW 5208   3.581   0.585   3.693
 1731SOL    HW1 5209   3.555   0.674   3.657
 1731SOL    HW2 5210   3.579   0.517   3.620
 1732SOL     OW 5211   3.224   1.144   2.407
 1732SOL    HW1 5212   3.307   1.115   2.359
 1732SOL    HW2 5213   3.175   1.211   2.351
 1733SOL     OW 5214   2.412   0.196   2.747
 1733SOL    HW1 5215   2.407   0.191   2.847
 1733SOL    HW2 5216   2.414   0.292   2.718
 1734SOL     OW 5217   2.870   1.456   2.339
 1734SOL    HW1 5218   2.824   1.528   2.287
 1734SOL    HW2 5219   2.866   1.476   2.437
 1735SOL     OW 5220   2.213   1.801   2.715
 1735SOL    HW1 5221   2.263   1.715   2.721
 1735SOL    HW2 5222   2.278   1.878   2.712
 1736SOL     OW 5223   3.657   1.066   2.735
 1736SOL    HW1 5224   3.595   1.051   2.659
 1736SOL    HW2 5225   3.605   1.077   2.820
 1737SOL     OW 5226   3.089   1.550   3.368
 1737SOL    HW1 5227   3.095   1.473   3.432
 1737SOL    HW2 5228   3.037   1.524   3.288
 1738SOL     OW 5229   2.183   0.943   2.104
 1738SOL    HW1 5230   2.265   0.982   2.062
 1738SOL    HW2 5231   2.156   0.861   2.055
 1739SOL     OW 5232   3.320   0.735   2.590
 1739SOL    HW1 5233   3.315   0.670   2.665
 1739SOL    HW2 5234   3.400   0.794   2.603
 1740SOL     OW 5235   2.323   1.266   3.589
 1740SOL    HW1 5236   2.273   1.267   3.503
 1740SOL    HW2 5237   2.260   1.248   3.665
 1741SOL     OW 5238   2.973   1.776   2.099
 1741SOL    HW1 5239   2.913   1.714   2.149
 1741SOL    HW2 5240   3.004   1.732   2.014
 1742SOL     OW 5241   2.064   0.285   3.360
 1742SOL    HW1 5242   1.984   0.345   3.347
 1742SOL    HW2 5243   2.054   0.236   3.446
 1743SOL     OW 5244   3.494   1.377   1.943
 1743SOL    HW1 5245   3.462   1.471   1.933
 1743SOL    HW2 5246   3.418   1.314   1.931
 1744SOL     OW 5247   2.326   1.743   2.185
 1744SOL    HW1 5248   2.359   1.782   2.271
 1744SOL    HW2 5249   2.402   1.736   2.120
 1745SOL     OW 5250   3.262   0.107   2.288
 1745SOL    HW1 5251   3.238   0.070   2.198
 1745SOL    HW2 5252   3.361   0.123   2.292
 1746SOL     OW 5253   2.111   1.785   3.103
 1746SOL    HW1 5254   2.168   1.720   3.153
 1746SOL    HW2 5255   2.095   1.752   3.010
 1747SOL     OW 5256   2.802   1.698   2.766
 1747SOL    HW1 5257   2.882   1.641   2.787
 1747SOL    HW2 5258   2.753   1.658   2.689
 1748SOL     OW 5259   2.244   0.700   2.342
 1748SOL    HW1 5260   2.289   0.610   2.339
 1748SOL    HW2 5261   2.150   0.689   2.375
 1749SOL     OW 5262   3.409   0.222   3.591
 1749SOL    HW1 5263   3.404   0.259   3.683
 1749SOL    HW2 5264   3.337   0.153   3.579
 1750SOL     OW 5265   2.476   0.122   1.979
 1750SOL    HW1 5266   2.574   0.100   1.986
 1750SOL    HW2 5267   2.445   0.105   1.886
 1751SOL     OW 5268   2.643   0.264   3.611
 1751SOL    HW1 5269   2.710   0.203   3.654
 1751SOL    HW2 5270   2.570   0.283   3.676
 1752SOL     OW 5271   2.750   1.514   3.057
 1752SOL    HW1 5272   2.727   1.489   2.963
 1752SOL    HW2 5273   2.811   1.445   3.096
 1753SOL     OW 5274   3.213   0.590   3.295
 1753SOL    HW1 5275   3.241   0.547   3.380
 1753SOL    HW2 5276   3.238   0.686   3.296
 1754SOL     OW 5277   2.665   1.402   2.786
 1754SOL    HW1 5278   2.755   1.416   2.744
 1754SOL    HW2 5279   2.594   1.404   2.715
 1755SOL     OW 5280   2.784   0.503   2.761
 1755SOL    HW1 5281   2.759   0.494   2.665
 1755SOL    HW2 5282   2.832   0.421   2.792
 1756SOL     OW 5283   2.401   0.064   2.374
 1756SOL    HW1 5284   2.320   0.065   2.432
 1756SOL    HW2 5285   2.404   0.147   2.319
 1757SOL     OW 5286   3.296   1.188   1.903
 1757SOL    HW1 5287   3.328   1.112   1.960
 1757SOL    HW2 5288   3.204   1.215   1.933
 1758SOL     OW 5289   2.159   0.035   2.033
 1758SOL    HW1 5290   2.208   0.119   2.012
 1758SOL    HW2 5291   2.221  -0.030   2.078
 1759SOL     OW 5292   2.797   0.236   2.342
 1759SOL    HW1 5293   2.749   0.277   2.264
 1759SOL    HW2 5294   2.896   0.234   2.323
 1760SOL     OW 5295   2.938   0.683   3.326
 1760SOL    HW1 5296   2.858   0.622   3.329
 1760SOL    HW2 5297   3.019   0.630   3.302
 1761SOL     OW 5298   3.089   1.570   2.655
 1761SOL    HW1 5299   3.110   1.644   2.590
 1761SOL    HW2 5300   3.157   1.570   2.728
 1762SOL     OW 5301   2.321   1.152   2.603
 1762SOL    HW1 5302   2.250   1.125   2.668
 1762SOL    HW2 5303   2.295   1.124   2.510
 1763SOL     OW 5304   3.133   1.797   2.453
 1763SOL    HW1 5305   3.177   1.861   2.389
 1763SOL    HW2 5306   3.083   1.849   2.523
 1764SOL     OW 5307   2.894   0.549   1.878
 1764SOL    HW1 5308   2.853   0.631   1.839
 1764SOL    HW2 5309   2.958   0.575   1.951
 1765SOL     OW 5310   1.940   0.556   3.248
 1765SOL    HW1 5311   2.032   0.555   3.207
 1765SOL    HW2 5312   1.934   0.630   3.315
 1766SOL     OW 5313   2.423   0.222   3.009
 1766SOL    HW1 5314   2.461   0.138   3.046
 1766SOL    HW2 5315   2.335   0.241   3.053
 1767SOL     OW 5316   2.728   0.454   2.504
 1767SOL    HW1 5317   2.696   0.526   2.442
 1767SOL    HW2 5318   2.752   0.373   2.451
 1768SOL     OW 5319   2.879   0.039   2.615
 1768SOL    HW1 5320   2.807   0.044   2.546
 1768SOL    HW2 5321   2.855  -0.030   2.684
 1769SOL     OW 5322   3.291   1.173   2.729
 1769SOL    HW1 5323   3.236   1.089   2.722
 1769SOL    HW2 5324   3.317   1.202   2.637
 1770SOL     OW 5325   3.328   0.590   2.854
 1770SOL    HW1 5326   3.298   0.495   2.861
 1770SOL    HW2 5327   3.401   0.606   2.920
 1771SOL     OW 5328   3.719   0.833   2.239
 1771SOL    HW1 5329   3.761   0.769   2.303
 1771SOL    HW2 5330   3.681   0.782   2.161
 1772SOL     OW 5331   2.350   1.385   2.036
 1772SOL    HW1 5332   2.263   1.370   2.083
 1772SOL    HW2 5333   2.333   1.411   1.941
 1773SOL     OW 5334   3.526   1.280   2.519
 1773SOL    HW1 5335   3.625   1.288   2.533
 1773SOL    HW2 5336   3.481   1.364   2.550
 1774SOL     OW 5337   3.252   0.575   1.940
 1774SOL    HW1 5338   3.198   0.554   2.021
 1774SOL    HW2 5339   3.343   0.534   1.949
 1775SOL     OW 5340   2.389   0.256   2.190
 1775SOL    HW1 5341   2.416   0.197   2.115
 1775SOL    HW2 5342   2.389   0.351   2.159
 1776SOL     OW 5343   3.616   1.223   3.450
 1776SOL    HW1 5344   3.707   1.184   3.437
 1776SOL    HW2 5345   3.624   1.319   3.474
 1777SOL     OW 5346   2.926   1.347   3.202
 1777SOL    HW1 5347   2.846   1.324   3.257
 1777SOL    HW2 5348   3.009   1.321   3.251
 1778SOL     OW 5349   3.454   1.629   3.487
 1778SOL    HW1 5350   3.481   1.663   3.397
 1778SOL    HW2 5351   3.533   1.591   3.533
 1779SOL     OW 5352   2.973   1.195   2.962
 1779SOL    HW1 5353   2.933   1.239   3.043
 1779SOL    HW2 5354   2.932   1.232   2.879
 1780SOL     OW 5355   3.500   1.099   2.941
 1780SOL    HW1 5356   3.505   1.180   3.000
 1780SOL    HW2 5357   3.414   1.101   2.890
 1781SOL     OW 5358   2.777   0.089   3.264
 1781SOL    HW1 5359   2.802   0.069   3.169
 1781SOL    HW2 5360   2.849   0.145   3.306
 1782SOL     OW 5361   2.842   1.116   3.581
 1782SOL    HW1 5362   2.743   1.122   3.591
 1782SOL    HW2 5363   2.865   1.036   3.525
 1783SOL     OW 5364   2.567   1.050   2.230
 1783SOL    HW1 5365   2.553   1.057   2.329
 1783SOL    HW2 5366   2.651   0.999   2.212
 1784SOL     OW 5367   2.272   0.813   3.113
 1784SOL    HW1 5368   2.358   0.825   3.163
 1784SOL    HW2 5369   2.230   0.726   3.140
 1785SOL     OW 5370   3.136   0.386   3.124
 1785SOL    HW1 5371   3.157   0.460   3.188
 1785SOL    HW2 5372   3.047   0.403   3.081
 1786SOL     OW 5373   1.926   1.564   3.193
 1786SOL    HW1 5374   1.880   1.646   3.159
 1786SOL    HW2 5375   2.024   1.583   3.202
 1787SOL     OW 5376   2.229   1.100   2.363
 1787SOL    HW1 5377   2.222   1.183   2.307
 1787SOL    HW2 5378   2.233   1.020   2.303
 1788SOL     OW 5379   2.428   0.537   2.727
 1788SOL    HW1 5380   2.440   0.603   2.653
 1788SOL    HW2 5381   2.474   0.571   2.810
 1789SOL     OW 5382   3.114   1.348   2.250
 1789SOL    HW1 5383   3.164   1.425   2.290
 1789SOL    HW2 5384   3.019   1.350   2.282
 1790SOL     OW 5385   3.134   1.445   3.004
 1790SOL    HW1 5386   3.181   1.458   3.091
 1790SOL    HW2 5387   3.068   1.371   3.013
 1791SOL     OW 5388   3.444   0.639   2.334
 1791SOL    HW1 5389   3.413   0.700   2.407
 1791SOL    HW2 5390   3.494   0.691   2.265
 1792SOL     OW 5391   2.216   1.510   3.191
 1792SOL    HW1 5392   2.195   1.466   3.104
 1792SOL    HW2 5393   2.313   1.536   3.194
 1793SOL     OW 5394   2.264   0.751   3.460
 1793SOL    HW1 5395   2.332   0.806   3.413
 1793SOL    HW2 5396   2.304   0.663   3.487
 1794SOL     OW 5397   3.449   0.779   3.532
 1794SOL    HW1 5398   3.357   0.817   3.527
 1794SOL    HW2 5399   3.509   0.826   3.467
 1795SOL     OW 5400   2.875   0.105   3.632
 1795SOL    HW1 5401   2.881   0.190   3.580
 1795SOL    HW2 5402   2.907   0.029   3.575
 1796SOL     OW 5403   2.366   0.050   3.602
 1796SOL    HW1 5404   2.324  -0.007   3.532
 1796SOL    HW2 5405   2.300   0.119   3.634
 1797SOL     OW 5406   2.435   0.870   2.891
 1797SOL    HW1 5407   2.479   0.959   2.882
 1797SOL    HW2 5408   2.372   0.870   2.968
 1798SOL     OW 5409   3.222   0.862   2.907
 1798SOL    HW1 5410   3.147   0.862   2.841
 1798SOL    HW2 5411   3.259   0.770   2.916
 1799SOL     OW 5412   3.071   0.525   2.137
 1799SOL    HW1 5413   3.084   0.441   2.191
 1799SOL    HW2 5414   3.042   0.599   2.197
 1800SOL     OW 5415   2.169   0.213   3.093
 1800SOL    HW1 5416   2.146   0.250   3.183
 1800SOL    HW2 5417   2.139   0.118   3.087
 1801SOL     OW 5418   1.899   1.310   3.144
 1801SOL    HW1 5419   1.952   1.261   3.212
 1801SOL    HW2 5420   1.921   1.408   3.149
 1802SOL     OW 5421   2.594   0.634   2.926
 1802SOL    HW1 5422   2.653   0.608   2.850
 1802SOL    HW2 5423   2.566   0.730   2.915
 1803SOL     OW 5424   3.590   0.935   3.716
 1803SOL    HW1 5425   3.544   0.928   3.627
 1803SOL    HW2 5426   3.528   0.979   3.782
 1804SOL     OW 5427   2.169   0.063   2.480
 1804SOL    HW1 5428   2.158   0.157   2.513
 1804SOL    HW2 5429   2.164   0.000   2.557
 1805SOL     OW 5430   3.484   0.367   2.236
 1805SOL    HW1 5431   3.486   0.291   2.300
 1805SOL    HW2 5432   3.436   0.444   2.276
 1806SOL     OW 5433   2.885   0.766   2.828
 1806SOL    HW1 5434   2.900   0.787   2.924
 1806SOL    HW2 5435   2.855   0.671   2.819
 1807SOL     OW 5436   2.842   1.573   3.562
 1807SOL    HW1 5437   2.822   1.617   3.474
 1807SOL    HW2 5438   2.881   1.482   3.546
 1808SOL     OW 5439   3.721   1.518   3.467
 1808SOL    HW1 5440   3.735   1.545   3.372
 1808SOL    HW2 5441   3.804   1.540   3.520
 1809SOL     OW 5442   2.212   0.898   3.666
 1809SOL    HW1 5443   2.288   0.942   3.714
 1809SOL    HW2 5444   2.247   0.851   3.584
 1810SOL     OW 5445   3.402   0.274   1.987
 1810SOL    HW1 5446   3.341   0.199   2.010
 1810SOL    HW2 5447   3.424   0.326   2.070
 1811SOL     OW 5448   3.165   0.838   1.904
 1811SOL    HW1 5449   3.199   0.745   1.919
 1811SOL    HW2 5450   3.183   0.865   1.809
 1812SOL     OW 5451   2.930   1.333   2.711
 1812SOL    HW1 5452   2.937   1.249   2.656
 1812SOL    HW2 5453   2.992   1.402   2.675
 1813SOL     OW 5454   2.181   0.810   2.811
 1813SOL    HW1 5455   2.274   0.846   2.816
 1813SOL    HW2 5456   2.175   0.725   2.863
 1814SOL     OW 5457   2.201   0.509   2.868
 1814SOL    HW1 5458   2.149   0.426   2.851
 1814SOL    HW2 5459   2.278   0.514   2.804
 1815SOL     OW 5460   3.000   0.380   3.540
 1815SOL    HW1 5461   2.955   0.443   3.604
 1815SOL    HW2 5462   3.093   0.411   3.523
 1816SOL     OW 5463   3.022   0.207   3.339
 1816SOL    HW1 5464   3.022   0.271   3.416
 1816SOL    HW2 5465   3.050   0.255   3.256
 1817SOL     OW 5466   1.870   1.326   2.062
 1817SOL    HW1 5467   1.777   1.347   2.031
 1817SOL    HW2 5468   1.880   1.227   2.075
 1818SOL     OW 5469   1.950   1.801   2.789
 1818SOL    HW1 5470   1.908   1.715   2.762
 1818SOL    HW2 5471   2.044   1.804   2.755
 1819SOL     OW 5472   2.366   1.568   2.772
 1819SOL    HW1 5473   2.432   1.642   2.781
 1819SOL    HW2 5474   2.410   1.489   2.730
 1820SOL     OW 5475   2.864   0.796   3.100
 1820SOL    HW1 5476   2.905   0.764   3.186
 1820SOL    HW2 5477   2.768   0.769   3.097
 1821SOL     OW 5478   1.902   0.544   2.976
 1821SOL    HW1 5479   1.987   0.511   2.935
 1821SOL    HW2 5480   1.915   0.559   3.074
 1822SOL     OW 5481   2.051   0.520   3.584
 1822SOL    HW1 5482   2.110   0.480   3.514
 1822SOL    HW2 5483   1.993   0.591   3.543
 1823SOL     OW 5484   3.231   0.950   3.522
 1823SOL    HW1 5485   3.270   1.039   3.542
 1823SOL    HW2 5486   3.241   0.930   3.425
 1824SOL     OW 5487   2.677   0.572   2.187
 1824SOL    HW1 5488   2.684   0.483   2.141
 1824SOL    HW2 5489   2.583   0.606   2.179
 1825SOL     OW 5490   3.519   0.604   3.068
 1825SOL    HW1 5491   3.481   0.535   3.130
 1825SOL    HW2 5492   3.601   0.568   3.024
 1826SOL     OW 5493   2.114   1.564   3.606
 1826SOL    HW1 5494   2.084   1.621   3.682
 1826SOL    HW2 5495   2.107   1.467   3.632
 1827SOL     OW 5496   2.533   0.464   3.131
 1827SOL    HW1 5497   2.499   0.375   3.101
 1827SOL    HW2 5498   2.559   0.518   3.051
 1828SOL     OW 5499   2.792   1.678   3.327
 1828SOL    HW1 5500   2.768   1.660   3.232
 1828SOL    HW2 5501   2.822   1.772   3.337
 1829SOL     OW 5502   2.335   0.500   2.053
 1829SOL    HW1 5503   2.396   0.580   2.057
 1829SOL    HW2 5504   2.240   0.531   2.060
 1830SOL     OW 5505   2.021   1.137   3.328
 1830SOL    HW1 5506   2.043   1.076   3.404
 1830SOL    HW2 5507   2.031   1.088   3.242
 1831SOL     OW 5508   3.209   1.059   3.096
 1831SOL    HW1 5509   3.233   0.996   3.022
 1831SOL    HW2 5510   3.119   1.099   3.078
 1832SOL     OW 5511   3.164   0.855   2.171
 1832SOL    HW1 5512   3.078   0.824   2.213
 1832SOL    HW2 5513   3.160   0.841   2.072
 1833SOL     OW 5514   3.621   1.747   3.016
 1833SOL    HW1 5515   3.682   1.777   2.943
 1833SOL    HW2 5516   3.583   1.658   2.994
 1834SOL     OW 5517   3.114   1.731   2.990
 1834SOL    HW1 5518   3.198   1.736   2.936
 1834SOL    HW2 5519   3.091   1.635   3.008
 1835SOL     OW 5520   1.945   1.258   2.884
 1835SOL    HW1 5521   1.940   1.257   2.984
 1835SOL    HW2 5522   1.862   1.217   2.846
 1836SOL     OW 5523   2.550   1.662   3.578
 1836SOL    HW1 5524   2.494   1.743   3.587
 1836SOL    HW2 5525   2.602   1.666   3.492
 1837SOL     OW 5526   3.588   0.135   2.385
 1837SOL    HW1 5527   3.661   0.118   2.318
 1837SOL    HW2 5528   3.557   0.048   2.423
 1838SOL     OW 5529   3.250   1.573   2.339
 1838SOL    HW1 5530   3.317   1.585   2.265
 1838SOL    HW2 5531   3.210   1.662   2.362
 1839SOL     OW 5532   1.992   1.794   3.713
 1839SOL    HW1 5533   1.951   1.720   3.766
 1839SOL    HW2 5534   2.056   1.845   3.771
 1840SOL     OW 5535   3.142   0.927   2.534
 1840SOL    HW1 5536   3.202   0.846   2.536
 1840SOL    HW2 5537   3.182   0.996   2.474
 1841SOL     OW 5538   2.692   1.273   3.284
 1841SOL    HW1 5539   2.687   1.306   3.379
 1841SOL    HW2 5540   2.606   1.292   3.238
 1842SOL     OW 5541   2.534   1.616   2.016
 1842SOL    HW1 5542   2.543   1.626   1.917
 1842SOL    HW2 5543   2.494   1.527   2.037
 1843SOL     OW 5544   3.512   1.720   3.256
 1843SOL    HW1 5545   3.565   1.730   3.172
 1843SOL    HW2 5546   3.485   1.810   3.290
 1844SOL     OW 5547   3.703   0.175   2.825
 1844SOL    HW1 5548   3.742   0.090   2.789
 1844SOL    HW2 5549   3.605   0.177   2.806
 1845SOL     OW 5550   2.125   0.326   2.582
 1845SOL    HW1 5551   2.046   0.377   2.548
 1845SOL    HW2 5552   2.116   0.311   2.680
 1846SOL     OW 5553   3.056   1.612   1.893
 1846SOL    HW1 5554   3.062   1.519   1.930
 1846SOL    HW2 5555   2.997   1.612   1.813
 1847SOL     OW 5556   2.684   1.002   3.234
 1847SOL    HW1 5557   2.724   1.001   3.142
 1847SOL    HW2 5558   2.694   1.094   3.274
 1848SOL     OW 5559   2.778   0.910   2.153
 1848SOL    HW1 5560   2.841   0.948   2.085
 1848SOL    HW2 5561   2.818   0.827   2.192
 1849SOL     OW 5562   3.366   1.607   1.906
 1849SOL    HW1 5563   3.274   1.644   1.913
 1849SOL    HW2 5564   3.404   1.627   1.816
 1850SOL     OW 5565   2.234   1.288   3.352
 1850SOL    HW1 5566   2.221   1.381   3.318
 1850SOL    HW2 5567   2.150   1.236   3.339
 1851SOL     OW 5568   3.476   1.292   3.151
 1851SOL    HW1 5569   3.536   1.295   3.231
 1851SOL    HW2 5570   3.401   1.356   3.164
 1852SOL     OW 5571   2.901   1.098   2.558
 1852SOL    HW1 5572   2.831   1.051   2.612
 1852SOL    HW2 5573   2.960   1.030   2.515
 1853SOL     OW 5574   2.876   0.236   2.833
 1853SOL    HW1 5575   2.868   0.200   2.740
 1853SOL    HW2 5576   2.874   0.160   2.898
 1854SOL     OW 5577   2.452   1.487   2.353
 1854SOL    HW1 5578   2.494   1.429   2.283
 1854SOL    HW2 5579   2.408   1.566   2.309
 1855SOL     OW 5580   3.571   0.385   3.243
 1855SOL    HW1 5581   3.644   0.454   3.247
 1855SOL    HW2 5582   3.599   0.310   3.184
 1856SOL     OW 5583   2.117   1.348   2.152
 1856SOL    HW1 5584   2.021   1.349   2.125
 1856SOL    HW2 5585   2.129   1.401   2.236
 1857SOL     OW 5586   1.967   1.013   3.588
 1857SOL    HW1 5587   1.890   0.980   3.642
 1857SOL    HW2 5588   2.052   0.983   3.630
 1858SOL     OW 5589   2.534   0.203   3.351
 1858SOL    HW1 5590   2.624   0.187   3.311
 1858SOL    HW2 5591   2.542   0.208   3.450
 1859SOL     OW 5592   1.937   0.345   1.895
 1859SOL    HW1 5593   1.845   0.317   1.866
 1859SOL    HW2 5594   1.968   0.422   1.839
 1860SOL     OW 5595   3.302   0.856   3.260
 1860SOL    HW1 5596   3.245   0.908   3.197
 1860SOL    HW2 5597   3.398   0.868   3.236
 1861SOL     OW 5598   1.934   0.166   2.180
 1861SOL    HW1 5599   1.917   0.249   2.126
 1861SOL    HW2 5600   2.024   0.129   2.158
 1862SOL     OW 5601   3.045   1.335   1.981
 1862SOL    HW1 5602   2.946   1.324   1.983
 1862SOL    HW2 5603   3.079   1.350   2.074
 1863SOL     OW 5604   2.475   0.842   3.293
 1863SOL    HW1 5605   2.531   0.923   3.276
 1863SOL    HW2 5606   2.534   0.762   3.296
 1864SOL     OW 5607   3.355   1.767   2.821
 1864SOL    HW1 5608   3.388   1.831   2.752
 1864SOL    HW2 5609   3.421   1.761   2.896
 1865SOL     OW 5610   2.578   0.565   3.570
 1865SOL    HW1 5611   2.597   0.630   3.644
 1865SOL    HW2 5612   2.638   0.485   3.579
 1866SOL     OW 5613   3.312   1.220   3.495
 1866SOL    HW1 5614   3.303   1.210   3.594
 1866SOL    HW2 5615   3.408   1.213   3.469
 1867SOL     OW 5616   2.252   1.741   3.422
 1867SOL    HW1 5617   2.161   1.782   3.420
 1867SOL    HW2 5618   2.245   1.647   3.454
 1868SOL     OW 5619   3.536   0.883   3.116
 1868SOL    HW1 5620   3.509   0.794   3.079
 1868SOL    HW2 5621   3.537   0.951   3.043
 1869SOL     OW 5622   3.087   0.325   2.311
 1869SOL    HW1 5623   3.152   0.251   2.300
 1869SOL    HW2 5624   3.107   0.375   2.395
 1870SOL     OW 5625   2.456   0.745   2.514
 1870SOL    HW1 5626   2.506   0.830   2.495
 1870SOL    HW2 5627   2.368   0.747   2.466
 1871SOL     OW 5628   3.639   0.342   3.504
 1871SOL    HW1 5629   3.622   0.373   3.410
 1871SOL    HW2 5630   3.555   0.305   3.542
 1872SOL     OW 5631   3.592   0.934   3.379
 1872SOL    HW1 5632   3.630   1.025   3.394
 1872SOL    HW2 5633   3.584   0.917   3.280
 1873SOL     OW 5634   2.721   1.374   1.878
 1873SOL    HW1 5635   2.675   1.389   1.966
 1873SOL    HW2 5636   2.765   1.459   1.848
 1874SOL     OW 5637   2.523   1.790   2.815
 1874SOL    HW1 5638   2.477   1.878   2.802
 1874SOL    HW2 5639   2.622   1.802   2.808
 1875SOL     OW 5640   2.721   0.956   2.723
 1875SOL    HW1 5641   2.775   0.887   2.771
 1875SOL    HW2 5642   2.689   1.025   2.789
 1876SOL     OW 5643   2.945   0.984   1.949
 1876SOL    HW1 5644   2.922   1.037   1.867
 1876SOL    HW2 5645   3.026   0.928   1.930
 1877SOL     OW 5646   3.723   1.569   2.713
 1877SOL    HW1 5647   3.652   1.557   2.643
 1877SOL    HW2 5648   3.724   1.490   2.773
 1878SOL     OW 5649   2.083   1.314   3.706
 1878SOL    HW1 5650   2.018   1.241   3.685
 1878SOL    HW2 5651   2.087   1.328   3.804
 1879SOL     OW 5652   1.941   1.240   2.515
 1879SOL    HW1 5653   1.940   1.193   2.603
 1879SOL    HW2 5654   2.023   1.212   2.464
 1880SOL     OW 5655   2.534   1.391   3.486
 1880SOL    HW1 5656   2.456   1.341   3.524
 1880SOL    HW2 5657   2.531   1.486   3.517
 1881SOL     OW 5658   3.686   0.192   3.089
 1881SOL    HW1 5659   3.682   0.102   3.133
 1881SOL    HW2 5660   3.689   0.181   2.990
 1882SOL     OW 5661   2.290   0.424   2.382
 1882SOL    HW1 5662   2.320   0.352   2.320
 1882SOL    HW2 5663   2.251   0.384   2.465
 1883SOL     OW 5664   3.567   1.487   2.966
 1883SOL    HW1 5665   3.474   1.462   2.939
 1883SOL    HW2 5666   3.593   1.437   3.048
 1884SOL     OW 5667   2.179   0.547   3.142
 1884SOL    HW1 5668   2.217   0.488   3.214
 1884SOL    HW2 5669   2.219   0.521   3.054
 1885SOL     OW 5670   2.674   1.586   2.549
 1885SOL    HW1 5671   2.706   1.596   2.455
 1885SOL    HW2 5672   2.595   1.524   2.551
 1886SOL     OW 5673   3.286   0.214   2.974
 1886SOL    HW1 5674   3.338   0.149   3.029
 1886SOL    HW2 5675   3.237   0.277   3.035
 1887SOL     OW 5676   2.863   0.034   3.016
 1887SOL    HW1 5677   2.800  -0.038   2.985
 1887SOL    HW2 5678   2.956  -0.002   3.016
 1888SOL     OW 5679   2.632   1.330   2.163
 1888SOL    HW1 5680   2.586   1.243   2.180
 1888SOL    HW2 5681   2.723   1.327   2.204
 1889SOL     OW 5682   2.480   1.567   3.146
 1889SOL    HW1 5683   2.475   1.649   3.203
 1889SOL    HW2 5684   2.569   1.564   3.101
 1890SOL     OW 5685   3.214   0.052   2.030
 1890SOL    HW1 5686   3.249   0.011   1.946
 1890SOL    HW2 5687   3.124   0.014   2.050
 1891SOL     OW 5688   3.162   0.453   2.553
 1891SOL    HW1 5689   3.103   0.533   2.557
 1891SOL    HW2 5690   3.177   0.418   2.646
 1892SOL     OW 5691   3.455   0.221   2.744
 1892SOL    HW1 5692   3.371   0.220   2.798
 1892SOL    HW2 5693   3.457   0.304   2.688
 1893SOL     OW 5694   1.901   1.077   2.162
 1893SOL    HW1 5695   2.000   1.066   2.153
 1893SOL    HW2 5696   1.861   0.991   2.194
 1894SOL     OW 5697   2.737   1.646   2.199
 1894SOL    HW1 5698   2.660   1.611   2.145
 1894SOL    HW2 5699   2.705   1.717   2.261
 1895SOL     OW 5700   2.092   0.628   3.837
 1895SOL    HW1 5701   1.999   0.626   3.874
 1895SOL    HW2 5702   2.093   0.589   3.745
 1896SOL     OW 5703   2.087   0.275   4.720
 1896SOL    HW1 5704   2.122   0.258   4.812
 1896SOL    HW2 5705   1.999   0.230   4.708
 1897SOL     OW 5706   1.881   0.368   4.371
 1897SOL    HW1 5707   1.799   0.411   4.410
 1897SOL    HW2 5708   1.853   0.295   4.308
 1898SOL     OW 5709   3.417   1.511   4.427
 1898SOL    HW1 5710   3.360   1.495   4.508
 1898SOL    HW2 5711   3.358   1.521   4.347
 1899SOL     OW 5712   2.997   0.703   4.441
 1899SOL    HW1 5713   3.054   0.781   4.416
 1899SOL    HW2 5714   2.937   0.729   4.517
 1900SOL     OW 5715   3.617   0.607   3.955
 1900SOL    HW1 5716   3.605   0.594   3.856
 1900SOL    HW2 5717   3.587   0.526   4.004
 1901SOL     OW 5718   2.630   1.144   4.747
 1901SOL    HW1 5719   2.552   1.161   4.807
 1901SOL    HW2 5720   2.664   1.231   4.711
 1902SOL     OW 5721   2.547   1.012   4.389
 1902SOL    HW1 5722   2.616   0.996   4.459
 1902SOL    HW2 5723   2.474   1.069   4.427
 1903SOL     OW 5724   2.197   1.435   4.785
 1903SOL    HW1 5725   2.119   1.404   4.732
 1903SOL    HW2 5726   2.255   1.493   4.728
 1904SOL     OW 5727   3.465   0.447   4.461
 1904SOL    HW1 5728   3.391   0.493   4.411
 1904SOL    HW2 5729   3.516   0.515   4.514
 1905SOL     OW 5730   2.093   1.713   4.207
 1905SOL    HW1 5731   2.127   1.790   4.261
 1905SOL    HW2 5732   2.137   1.713   4.117
 1906SOL     OW 5733   2.092   1.434   4.262
 1906SOL    HW1 5734   2.066   1.530   4.262
 1906SOL    HW2 5735   2.021   1.380   4.307
 1907SOL     OW 5736   2.102   1.091   4.610
 1907SOL    HW1 5737   2.116   1.007   4.662
 1907SOL    HW2 5738   2.047   1.155   4.665
 1908SOL     OW 5739   2.468   0.964   3.847
 1908SOL    HW1 5740   2.475   1.048   3.793
 1908SOL    HW2 5741   2.514   0.977   3.935
 1909SOL     OW 5742   1.984   0.643   4.287
 1909SOL    HW1 5743   1.939   0.555   4.304
 1909SOL    HW2 5744   1.983   0.697   4.371
 1910SOL     OW 5745   3.704   1.767   4.083
 1910SOL    HW1 5746   3.758   1.738   4.163
 1910SOL    HW2 5747   3.734   1.857   4.054
 1911SOL     OW 5748   1.889   1.596   3.841
 1911SOL    HW1 5749   1.870   1.500   3.862
 1911SOL    HW2 5750   1.856   1.654   3.916
 1912SOL     OW 5751   3.551   0.922   4.336
 1912SOL    HW1 5752   3.646   0.893   4.344
 1912SOL    HW2 5753   3.543   0.987   4.261
 1913SOL     OW 5754   3.503   1.108   4.156
 1913SOL    HW1 5755   3.589   1.110   4.104
 1913SOL    HW2 5756   3.517   1.155   4.244
 1914SOL     OW 5757   2.475   1.365   4.450
 1914SOL    HW1 5758   2.426   1.278   4.459
 1914SOL    HW2 5759   2.452   1.408   4.363
 1915SOL     OW 5760   2.671   0.004   4.226
 1915SOL    HW1 5761   2.711   0.095   4.217
 1915SOL    HW2 5762   2.571   0.012   4.232
 1916SOL     OW 5763   2.059   0.976   4.988
 1916SOL    HW1 5764   2.148   0.931   4.974
 1916SOL    HW2 5765   1.986   0.911   4.969
 1917SOL     OW 5766   3.387   0.999   3.914
 1917SOL    HW1 5767   3.324   0.923   3.927
 1917SOL    HW2 5768   3.435   1.017   4.000
 1918SOL     OW 5769   3.328   1.417   4.677
 1918SOL    HW1 5770   3.269   1.423   4.757
 1918SOL    HW2 5771   3.313   1.329   4.631
 1919SOL     OW 5772   3.529   1.714   4.296
 1919SOL    HW1 5773   3.488   1.691   4.208
 1919SOL    HW2 5774   3.511   1.640   4.361
 1920SOL     OW 5775   2.460   0.729   3.994
 1920SOL    HW1 5776   2.484   0.798   3.926
 1920SOL    HW2 5777   2.382   0.762   4.048
 1921SOL     OW 5778   3.143   0.345   4.668
 1921SOL    HW1 5779   3.057   0.295   4.655
 1921SOL    HW2 5780   3.205   0.291   4.724
 1922SOL     OW 5781   3.438   1.662   4.031
 1922SOL    HW1 5782   3.527   1.708   4.034
 1922SOL    HW2 5783   3.417   1.638   3.936
 1923SOL     OW 5784   2.903   0.701   4.153
 1923SOL    HW1 5785   2.929   0.697   4.249
 1923SOL    HW2 5786   2.818   0.650   4.139
 1924SOL     OW 5787   1.938   0.811   4.513
 1924SOL    HW1 5788   2.037   0.799   4.522
 1924SOL    HW2 5789   1.914   0.906   4.534
 1925SOL     OW 5790   2.727   0.348   3.919
 1925SOL    HW1 5791   2.786   0.411   3.870
 1925SOL    HW2 5792   2.746   0.254   3.890
 1926SOL     OW 5793   3.224   1.144   4.269
 1926SOL    HW1 5794   3.307   1.115   4.221
 1926SOL    HW2 5795   3.175   1.211   4.213
 1927SOL     OW 5796   2.412   0.196   4.609
 1927SOL    HW1 5797   2.407   0.191   4.709
 1927SOL    HW2 5798   2.414   0.292   4.580
 1928SOL     OW 5799   2.870   1.456   4.201
 1928SOL    HW1 5800   2.824   1.528   4.149
 1928SOL    HW2 5801   2.866   1.476   4.299
 1929SOL     OW 5802   2.213   1.801   4.577
 1929SOL    HW1 5803   2.263   1.715   4.583
 1929SOL    HW2 5804   2.278   1.878   4.574
 1930SOL     OW 5805   3.657   1.066   4.597
 1930SOL    HW1 5806   3.595   1.051   4.521
 1930SOL    HW2 5807   3.605   1.077   4.682
 1931SOL     OW 5808   2.183   0.943   3.966
 1931SOL    HW1 5809   2.265   0.982   3.924
 1931SOL    HW2 5810   2.156   0.861   3.917
 1932SOL     OW 5811   3.320   0.735   4.452
 1932SOL    HW1 5812   3.315   0.670   4.527
 1932SOL    HW2 5813   3.400   0.794   4.465
 1933SOL     OW 5814   2.973   1.776   3.961
 1933SOL    HW1 5815   2.913   1.714   4.011
 1933SOL    HW2 5816   3.004   1.732   3.876
 1934SOL     OW 5817   3.494   1.377   3.805
 1934SOL    HW1 5818   3.462   1.471   3.795
 1934SOL    HW2 5819   3.418   1.314   3.793
 1935SOL     OW 5820   2.326   1.743   4.047
 1935SOL    HW1 5821   2.359   1.782   4.133
 1935SOL    HW2 5822   2.402   1.736   3.982
 1936SOL     OW 5823   3.262   0.107   4.150
 1936SOL    HW1 5824   3.238   0.070   4.060
 1936SOL    HW2 5825   3.361   0.123   4.154
 1937SOL     OW 5826   2.111   1.785   4.965
 1937SOL    HW1 5827   2.168   1.720   5.015
 1937SOL    HW2 5828   2.095   1.752   4.872
 1938SOL     OW 5829   2.802   1.698   4.628
 1938SOL    HW1 5830   2.882   1.641   4.649
 1938SOL    HW2 5831   2.753   1.658   4.551
 1939SOL     OW 5832   2.244   0.700   4.204
 1939SOL    HW1 5833   2.289   0.610   4.201
 1939SOL    HW2 5834   2.150   0.689   4.237
 1940SOL     OW 5835   2.476   0.122   3.841
 1940SOL    HW1 5836   2.574   0.100   3.848
 1940SOL    HW2 5837   2.445   0.105   3.748
 1941SOL     OW 5838   2.665   1.402   4.648
 1941SOL    HW1 5839   2.755   1.416   4.606
 1941SOL    HW2 5840   2.594   1.404   4.577
 1942SOL     OW 5841   2.784   0.503   4.623
 1942SOL    HW1 5842   2.759   0.494   4.527
 1942SOL    HW2 5843   2.832   0.421   4.654
 1943SOL     OW 5844   2.401   0.064   4.236
 1943SOL    HW1 5845   2.320   0.065   4.294
 1943SOL    HW2 5846   2.404   0.147   4.181
 1944SOL     OW 5847   3.296   1.188   3.765
 1944SOL    HW1 5848   3.328   1.112   3.822
 1944SOL    HW2 5849   3.204   1.215   3.795
 1945SOL     OW 5850   2.159   0.035   3.895
 1945SOL    HW1 5851   2.208   0.119   3.874
 1945SOL    HW2 5852   2.221  -0.030   3.940
 1946SOL     OW 5853   2.797   0.236   4.204
 1946SOL    HW1 5854   2.749   0.277   4.126
 1946SOL    HW2 5855   2.896   0.234   4.185
 1947SOL     OW 5856   3.089   1.570   4.517
 1947SOL    HW1 5857   3.110   1.644   4.452
 1947SOL    HW2 5858   3.157   1.570   4.590
 1948SOL     OW 5859   2.321   1.152   4.465
 1948SOL    HW1 5860   2.250   1.125   4.530
 1948SOL    HW2 5861   2.295   1.124   4.372
 1949SOL     OW 5862   3.133   1.797   4.315
 1949SOL    HW1 5863   3.177   1.861   4.251
 1949SOL    HW2 5864   3.083   1.849   4.385
 1950SOL     OW 5865   2.894   0.549   3.740
 1950SOL    HW1 5866   2.853   0.631   3.701
 1950SOL    HW2 5867   2.958   0.575   3.813
 1951SOL     OW 5868   2.728   0.454   4.366
 1951SOL    HW1 5869   2.696   0.526   4.304
 1951SOL    HW2 5870   2.752   0.373   4.313
 1952SOL     OW 5871   2.879   0.039   4.477
 1952SOL    HW1 5872   2.807   0.044   4.408
 1952SOL    HW2 5873   2.855  -0.030   4.546
 1953SOL     OW 5874   3.291   1.173   4.591
 1953SOL    HW1 5875   3.236   1.089   4.584
 1953SOL    HW2 5876   3.317   1.202   4.499
 1954SOL     OW 5877   3.328   0.590   4.716
 1954SOL    HW1 5878   3.298   0.495   4.723
 1954SOL    HW2 5879   3.401   0.606   4.782
 1955SOL     OW 5880   3.719   0.833   4.101
 1955SOL    HW1 5881   3.761   0.769   4.165
 1955SOL    HW2 5882   3.681   0.782   4.023
 1956SOL     OW 5883   2.350   1.385   3.898
 1956SOL    HW1 5884   2.263   1.370   3.945
 1956SOL    HW2 5885   2.333   1.411   3.803
 1957SOL     OW 5886   3.526   1.280   4.381
 1957SOL    HW1 5887   3.625   1.288   4.395
 1957SOL    HW2 5888   3.481   1.364   4.412
 1958SOL     OW 5889   3.252   0.575   3.802
 1958SOL    HW1 5890   3.198   0.554   3.883
 1958SOL    HW2 5891   3.343   0.534   3.811
 1959SOL     OW 5892   2.389   0.256   4.052
 1959SOL    HW1 5893   2.416   0.197   3.977
 1959SOL    HW2 5894   2.389   0.351   4.021
 1960SOL     OW 5895   2.973   1.195   4.824
 1960SOL    HW1 5896   2.933   1.239   4.905
 1960SOL    HW2 5897   2.932   1.232   4.741
 1961SOL     OW 5898   3.500   1.099   4.803
 1961SOL    HW1 5899   3.505   1.180   4.862
 1961SOL    HW2 5900   3.414   1.101   4.752
 1962SOL     OW 5901   2.567   1.050   4.092
 1962SOL    HW1 5902   2.553   1.057   4.191
 1962SOL    HW2 5903   2.651   0.999   4.074
 1963SOL     OW 5904   2.272   0.813   4.975
 1963SOL    HW1 5905   2.358   0.825   5.025
 1963SOL    HW2 5906   2.230   0.726   5.002
 1964SOL     OW 5907   2.229   1.100   4.225
 1964SOL    HW1 5908   2.222   1.183   4.169
 1964SOL    HW2 5909   2.233   1.020   4.165
 1965SOL     OW 5910   2.428   0.537   4.589
 1965SOL    HW1 5911   2.440   0.603   4.515
 1965SOL    HW2 5912   2.474   0.571   4.672
 1966SOL     OW 5913   3.114   1.348   4.112
 1966SOL    HW1 5914   3.164   1.425   4.152
 1966SOL    HW2 5915   3.019   1.350   4.144
 1967SOL     OW 5916   3.444   0.639   4.196
 1967SOL    HW1 5917   3.413   0.700   4.269
 1967SOL    HW2 5918   3.494   0.691   4.127
 1968SOL     OW 5919   2.216   1.510   5.053
 1968SOL    HW1 5920   2.195   1.466   4.966
 1968SOL    HW2 5921   2.313   1.536   5.056
 1969SOL     OW 5922   2.435   0.870   4.753
 1969SOL    HW1 5923   2.479   0.959   4.744
 1969SOL    HW2 5924   2.372   0.870   4.830
 1970SOL     OW 5925   3.071   0.525   3.999
 1970SOL    HW1 5926   3.084   0.441   4.053
 1970SOL    HW2 5927   3.042   0.599   4.059
 1971SOL     OW 5928   2.594   0.634   4.788
 1971SOL    HW1 5929   2.653   0.608   4.712
 1971SOL    HW2 5930   2.566   0.730   4.777
 1972SOL     OW 5931   2.169   0.063   4.342
 1972SOL    HW1 5932   2.158   0.157   4.375
 1972SOL    HW2 5933   2.164   0.000   4.419
 1973SOL     OW 5934   3.484   0.367   4.098
 1973SOL    HW1 5935   3.486   0.291   4.162
 1973SOL    HW2 5936   3.436   0.444   4.138
 1974SOL     OW 5937   2.885   0.766   4.690
 1974SOL    HW1 5938   2.900   0.787   4.786
 1974SOL    HW2 5939   2.855   0.671   4.681
 1975SOL     OW 5940   3.402   0.274   3.849
 1975SOL    HW1 5941   3.341   0.199   3.872
 1975SOL    HW2 5942   3.424   0.326   3.932
 1976SOL     OW 5943   3.165   0.838   3.766
 1976SOL    HW1 5944   3.199   0.745   3.781
 1976SOL    HW2 5945   3.183   0.865   3.671
 1977SOL     OW 5946   2.930   1.333   4.573
 1977SOL    HW1 5947   2.937   1.249   4.518
 1977SOL    HW2 5948   2.992   1.402   4.537
 1978SOL     OW 5949   2.181   0.810   4.673
 1978SOL    HW1 5950   2.274   0.846   4.678
 1978SOL    HW2 5951   2.175   0.725   4.725
 1979SOL     OW 5952   2.201   0.509   4.730
 1979SOL    HW1 5953   2.149   0.426   4.713
 1979SOL    HW2 5954   2.278   0.514   4.666
 1980SOL     OW 5955   1.870   1.326   3.924
 1980SOL    HW1 5956   1.777   1.347   3.893
 1980SOL    HW2 5957   1.880   1.227   3.937
 1981SOL     OW 5958   1.950   1.801   4.651
 1981SOL    HW1 5959   1.908   1.715   4.624
 1981SOL    HW2 5960   2.044   1.804   4.617
 1982SOL     OW 5961   2.366   1.568   4.634
 1982SOL    HW1 5962   2.432   1.642   4.643
 1982SOL    HW2 5963   2.410   1.489   4.592
 1983SOL     OW 5964   2.864   0.796   4.962
 1983SOL    HW1 5965   2.905   0.764   5.048
 1983SOL    HW2 5966   2.768   0.769   4.959
 1984SOL     OW 5967   1.902   0.544   4.838
 1984SOL    HW1 5968   1.987   0.511   4.797
 1984SOL    HW2 5969   1.915   0.559   4.936
 1985SOL     OW 5970   2.677   0.572   4.049
 1985SOL    HW1 5971   2.684   0.483   4.003
 1985SOL    HW2 5972   2.583   0.606   4.041
 1986SOL     OW 5973   2.533   0.464   4.993
 1986SOL    HW1 5974   2.499   0.375   4.963
 1986SOL    HW2 5975   2.559   0.518   4.913
 1987SOL     OW 5976   2.335   0.500   3.915
 1987SOL    HW1 5977   2.396   0.580   3.919
 1987SOL    HW2 5978   2.240   0.531   3.922
 1988SOL     OW 5979   3.164   0.855   4.033
 1988SOL    HW1 5980   3.078   0.824   4.075
 1988SOL    HW2 5981   3.160   0.841   3.934
 1989SOL     OW 5982   3.621   1.747   4.878
 1989SOL    HW1 5983   3.682   1.777   4.805
 1989SOL    HW2 5984   3.583   1.658   4.856
 1990SOL     OW 5985   1.945   1.258   4.746
 1990SOL    HW1 5986   1.940   1.257   4.846
 1990SOL    HW2 5987   1.862   1.217   4.708
 1991SOL     OW 5988   3.588   0.135   4.247
 1991SOL    HW1 5989   3.661   0.118   4.180
 1991SOL    HW2 5990   3.557   0.048   4.285
 1992SOL     OW 5991   3.250   1.573   4.201
 1992SOL    HW1 5992   3.317   1.585   4.127
 1992SOL    HW2 5993   3.210   1.662   4.224
 1993SOL     OW 5994   3.142   0.927   4.396
 1993SOL    HW1 5995   3.202   0.846   4.398
 1993SOL    HW2 5996   3.182   0.996   4.336
 1994SOL     OW 5997   2.534   1.616   3.878
 1994SOL    HW1 5998   2.543   1.626   3.779
 1994SOL    HW2 5999   2.494   1.527   3.899
 1995SOL     OW 6000   3.703   0.175   4.687
 1995SOL    HW1 6001   3.742   0.090   4.651
 1995SOL    HW2 6002   3.605   0.177   4.668
 1996SOL     OW 6003   2.125   0.326   4.444
 1996SOL    HW1 6004   2.046   0.377   4.410
 1996SOL    HW2 6005   2.116   0.311   4.542
 1997SOL     OW 6006   3.056   1.612   3.755
 1997SOL    HW1 6007   3.062   1.519   3.792
 1997SOL    HW2 6008   2.997   1.612   3.675
 1998SOL     OW 6009   2.778   0.910   4.015
 1998SOL    HW1 6010   2.841   0.948   3.947
 1998SOL    HW2 6011   2.818   0.827   4.054
 1999SOL     OW 6012   3.366   1.607   3.768
 1999SOL    HW1 6013   3.274   1.644   3.775
 1999SOL    HW2 6014   3.404   1.627   3.678
 2000SOL     OW 6015   2.901   1.098   4.420
 2000SOL    HW1 6016   2.831   1.051   4.474
 2000SOL    HW2 6017   2.960   1.030   4.377
 2001SOL     OW 6018   2.876   0.236   4.695
 2001SOL    HW1 6019   2.868   0.200   4.602
 2001SOL    HW2 6020   2.874   0.160   4.760
 2002SOL     OW 6021   2.452   1.487   4.215
 2002SOL    HW1 6022   2.494   1.429   4.145
 2002SOL    HW2 6023   2.408   1.566   4.171
 2003SOL     OW 6024   2.117   1.348   4.014
 2003SOL    HW1 6025   2.021   1.349   3.987
 2003SOL    HW2 6026   2.129   1.401   4.098
 2004SOL     OW 6027   1.937   0.345   3.757
 2004SOL    HW1 6028   1.845   0.317   3.728
 2004SOL    HW2 6029   1.968   0.422   3.701
 2005SOL     OW 6030   1.934   0.166   4.042
 2005SOL    HW1 6031   1.917   0.249   3.988
 2005SOL    HW2 6032   2.024   0.129   4.020
 2006SOL     OW 6033   3.045   1.335   3.843
 2006SOL    HW1 6034   2.946   1.324   3.845
 2006SOL    HW2 6035   3.079   1.350   3.936
 2007SOL     OW 6036   3.355   1.767   4.683
 2007SOL    HW1 6037   3.388   1.831   4.614
 2007SOL    HW2 6038   3.421   1.761   4.758
 2008SOL     OW 6039   3.536   0.883   4.978
 2008SOL    HW1 6040   3.509   0.794   4.941
 2008SOL    HW2 6041   3.537   0.951   4.905
 2009SOL     OW 6042   3.087   0.325   4.173
 2009SOL    HW1 6043   3.152   0.251   4.162
 2009SOL    HW2 6044   3.107   0.375   4.257
 2010SOL     OW 6045   2.456   0.745   4.376
 2010SOL    HW1 6046   2.506   0.830   4.357
 2010SOL    HW2 6047   2.368   0.747   4.328
 2011SOL     OW 6048   2.721   1.374   3.740
 2011SOL    HW1 6049   2.675   1.389   3.828
 2011SOL    HW2 6050   2.765   1.459   3.710
 2012SOL     OW 6051   2.523   1.790   4.677
 2012SOL    HW1 6052   2.477   1.878   4.664
 2012SOL    HW2 6053   2.622   1.802   4.670
 2013SOL     OW 6054   2.721   0.956   4.585
 2013SOL    HW1 6055   2.775   0.887   4.633
 2013SOL    HW2 6056   2.689   1.025   4.651
 2014SOL     OW 6057   2.945   0.984   3.811
 2014SOL    HW1 6058   2.922   1.037   3.729
 2014SOL    HW2 6059   3.026   0.928   3.792
 2015SOL     OW 6060   3.723   1.569   4.575
 2015SOL    HW1 6061   3.652   1.557   4.505
 2015SOL    HW2 6062   3.724   1.490   4.635
 2016SOL     OW 6063   1.941   1.240   4.377
 2016SOL    HW1 6064   1.940   1.193   4.465
 2016SOL    HW2 6065   2.023   1.212   4.326
 2017SOL     OW 6066   3.686   0.192   4.951
 2017SOL    HW1 6067   3.682   0.102   4.995
 2017SOL    HW2 6068   3.689   0.181   4.852
 2018SOL     OW 6069   2.290   0.424   4.244
 2018SOL    HW1 6070   2.320   0.352   4.182
 2018SOL    HW2 6071   2.251   0.384   4.327
 2019SOL     OW 6072   2.674   1.586   4.411
 2019SOL    HW1 6073   2.706   1.596   4.317
 2019SOL    HW2 6074   2.595   1.524   4.413
 2020SOL     OW 6075   3.286   0.214   4.836
 2020SOL    HW1 6076   3.338   0.149   4.891
 2020SOL    HW2 6077   3.237   0.277   4.897
 2021SOL     OW 6078   2.632   1.330   4.025
 2021SOL    HW1 6079   2.586   1.243   4.042
 2021SOL    HW2 6080   2.723   1.327   4.066
 2022SOL     OW 6081   3.214   0.052   3.892
 2022SOL    HW1 6082   3.249   0.011   3.808
 2022SOL    HW2 6083   3.124   0.014   3.912
 2023SOL     OW 6084   3.162   0.453   4.415
 2023SOL    HW1 6085   3.103   0.533   4.419
 2023SOL    HW2 6086   3.177   0.418   4.508
 2024SOL     OW 6087   3.455   0.221   4.606
 2024SOL    HW1 6088   3.371   0.220   4.660
 2024SOL    HW2 6089   3.457   0.304   4.550
 2025SOL     OW 6090   1.901   1.077   4.024
 2025SOL    HW1 6091   2.000   1.066   4.015
 2025SOL    HW2 6092   1.861   0.991   4.056
 2026SOL     OW 6093   2.737   1.646   4.061
 2026SOL    HW1 6094   2.660   1.611   4.007
 2026SOL    HW2 6095   2.705   1.717   4.123
 2027SOL     OW 6096   2.092   2.490   0.113
 2027SOL    HW1 6097   1.999   2.488   0.150
 2027SOL    HW2 6098   2.093   2.451   0.021
 2028SOL     OW 6099   2.087   2.137   0.996
 2028SOL    HW1 6100   2.122   2.120   1.088
 2028SOL    HW2 6101   1.999   2.092   0.984
 2029SOL     OW 6102   1.881   2.230   0.647
 2029SOL    HW1 6103   1.799   2.273   0.686
 2029SOL    HW2 6104   1.853   2.157   0.584
 2030SOL     OW 6105   2.431   3.137   1.165
 2030SOL    HW1 6106   2.338   3.130   1.128
 2030SOL    HW2 6107   2.442   3.226   1.209
 2031SOL     OW 6108   3.417   3.373   0.703
 2031SOL    HW1 6109   3.360   3.357   0.784
 2031SOL    HW2 6110   3.358   3.383   0.623
 2032SOL     OW 6111   2.997   2.565   0.717
 2032SOL    HW1 6112   3.054   2.643   0.692
 2032SOL    HW2 6113   2.937   2.591   0.793
 2033SOL     OW 6114   3.617   2.469   0.231
 2033SOL    HW1 6115   3.605   2.456   0.132
 2033SOL    HW2 6116   3.587   2.388   0.280
 2034SOL     OW 6117   2.630   3.006   1.023
 2034SOL    HW1 6118   2.552   3.023   1.083
 2034SOL    HW2 6119   2.664   3.093   0.987
 2035SOL     OW 6120   2.712   2.660   1.823
 2035SOL    HW1 6121   2.708   2.736   1.888
 2035SOL    HW2 6122   2.734   2.696   1.732
 2036SOL     OW 6123   2.547   2.874   0.665
 2036SOL    HW1 6124   2.616   2.858   0.735
 2036SOL    HW2 6125   2.474   2.931   0.703
 2037SOL     OW 6126   2.548   3.023   1.803
 2037SOL    HW1 6127   2.608   3.102   1.817
 2037SOL    HW2 6128   2.462   3.054   1.762
 2038SOL     OW 6129   2.197   3.297   1.061
 2038SOL    HW1 6130   2.119   3.266   1.008
 2038SOL    HW2 6131   2.255   3.355   1.004
 2039SOL     OW 6132   3.322   3.367   1.339
 2039SOL    HW1 6133   3.346   3.461   1.365
 2039SOL    HW2 6134   3.306   3.313   1.421
 2040SOL     OW 6135   2.300   2.254   1.499
 2040SOL    HW1 6136   2.382   2.198   1.508
 2040SOL    HW2 6137   2.219   2.196   1.503
 2041SOL     OW 6138   3.465   2.309   0.737
 2041SOL    HW1 6139   3.391   2.355   0.687
 2041SOL    HW2 6140   3.516   2.377   0.790
 2042SOL     OW 6141   2.093   3.575   0.483
 2042SOL    HW1 6142   2.127   3.652   0.537
 2042SOL    HW2 6143   2.137   3.575   0.393
 2043SOL     OW 6144   2.989   3.203   1.690
 2043SOL    HW1 6145   3.036   3.203   1.778
 2043SOL    HW2 6146   2.941   3.116   1.679
 2044SOL     OW 6147   2.092   3.296   0.538
 2044SOL    HW1 6148   2.066   3.392   0.538
 2044SOL    HW2 6149   2.021   3.242   0.583
 2045SOL     OW 6150   2.102   2.953   0.886
 2045SOL    HW1 6151   2.116   2.869   0.938
 2045SOL    HW2 6152   2.047   3.017   0.941
 2046SOL     OW 6153   2.482   3.648   1.439
 2046SOL    HW1 6154   2.390   3.631   1.474
 2046SOL    HW2 6155   2.510   3.740   1.465
 2047SOL     OW 6156   2.468   2.826   0.123
 2047SOL    HW1 6157   2.475   2.910   0.069
 2047SOL    HW2 6158   2.514   2.839   0.211
 2048SOL     OW 6159   3.456   1.976   1.480
 2048SOL    HW1 6160   3.438   2.043   1.408
 2048SOL    HW2 6161   3.453   2.022   1.569
 2049SOL     OW 6162   1.984   2.505   0.563
 2049SOL    HW1 6163   1.939   2.417   0.580
 2049SOL    HW2 6164   1.983   2.559   0.647
 2050SOL     OW 6165   3.704   3.629   0.359
 2050SOL    HW1 6166   3.758   3.600   0.439
 2050SOL    HW2 6167   3.734   3.719   0.330
 2051SOL     OW 6168   1.889   3.458   0.117
 2051SOL    HW1 6169   1.870   3.362   0.138
 2051SOL    HW2 6170   1.856   3.516   0.192
 2052SOL     OW 6171   3.551   2.784   0.612
 2052SOL    HW1 6172   3.646   2.755   0.620
 2052SOL    HW2 6173   3.543   2.849   0.537
 2053SOL     OW 6174   3.503   2.970   0.432
 2053SOL    HW1 6175   3.589   2.972   0.380
 2053SOL    HW2 6176   3.517   3.017   0.520
 2054SOL     OW 6177   1.975   2.599   1.597
 2054SOL    HW1 6178   2.063   2.586   1.642
 2054SOL    HW2 6179   1.962   2.696   1.575
 2055SOL     OW 6180   2.475   3.227   0.726
 2055SOL    HW1 6181   2.426   3.140   0.735
 2055SOL    HW2 6182   2.452   3.270   0.639
 2056SOL     OW 6183   3.155   3.090   1.423
 2056SOL    HW1 6184   3.192   3.017   1.365
 2056SOL    HW2 6185   3.207   3.095   1.508
 2057SOL     OW 6186   2.671   1.866   0.502
 2057SOL    HW1 6187   2.711   1.957   0.493
 2057SOL    HW2 6188   2.571   1.874   0.508
 2058SOL     OW 6189   2.059   2.838   1.264
 2058SOL    HW1 6190   2.148   2.793   1.250
 2058SOL    HW2 6191   1.986   2.773   1.245
 2059SOL     OW 6192   3.387   2.861   0.190
 2059SOL    HW1 6193   3.324   2.785   0.203
 2059SOL    HW2 6194   3.435   2.879   0.276
 2060SOL     OW 6195   3.049   3.654   1.616
 2060SOL    HW1 6196   3.073   3.714   1.540
 2060SOL    HW2 6197   3.056   3.559   1.586
 2061SOL     OW 6198   2.179   2.113   1.801
 2061SOL    HW1 6199   2.250   2.184   1.807
 2061SOL    HW2 6200   2.091   2.152   1.829
 2062SOL     OW 6201   3.328   3.279   0.953
 2062SOL    HW1 6202   3.269   3.285   1.033
 2062SOL    HW2 6203   3.313   3.191   0.907
 2063SOL     OW 6204   3.529   3.576   0.572
 2063SOL    HW1 6205   3.488   3.553   0.484
 2063SOL    HW2 6206   3.511   3.502   0.637
 2064SOL     OW 6207   2.460   2.591   0.270
 2064SOL    HW1 6208   2.484   2.660   0.202
 2064SOL    HW2 6209   2.382   2.624   0.324
 2065SOL     OW 6210   3.143   2.207   0.944
 2065SOL    HW1 6211   3.057   2.157   0.931
 2065SOL    HW2 6212   3.205   2.153   1.000
 2066SOL     OW 6213   3.438   3.524   0.307
 2066SOL    HW1 6214   3.527   3.570   0.310
 2066SOL    HW2 6215   3.417   3.500   0.212
 2067SOL     OW 6216   2.669   2.467   1.465
 2067SOL    HW1 6217   2.622   2.464   1.554
 2067SOL    HW2 6218   2.618   2.412   1.399
 2068SOL     OW 6219   3.256   2.331   1.674
 2068SOL    HW1 6220   3.236   2.374   1.762
 2068SOL    HW2 6221   3.334   2.269   1.683
 2069SOL     OW 6222   2.835   2.752   1.572
 2069SOL    HW1 6223   2.881   2.668   1.543
 2069SOL    HW2 6224   2.779   2.786   1.497
 2070SOL     OW 6225   2.853   2.272   1.242
 2070SOL    HW1 6226   2.776   2.306   1.296
 2070SOL    HW2 6227   2.819   2.221   1.163
 2071SOL     OW 6228   2.903   2.563   0.429
 2071SOL    HW1 6229   2.929   2.559   0.525
 2071SOL    HW2 6230   2.818   2.512   0.415
 2072SOL     OW 6231   1.938   2.673   0.789
 2072SOL    HW1 6232   2.037   2.661   0.798
 2072SOL    HW2 6233   1.914   2.768   0.810
 2073SOL     OW 6234   1.992   3.683   1.571
 2073SOL    HW1 6235   1.982   3.668   1.670
 2073SOL    HW2 6236   1.906   3.719   1.535
 2074SOL     OW 6237   2.727   2.210   0.195
 2074SOL    HW1 6238   2.786   2.273   0.146
 2074SOL    HW2 6239   2.746   2.116   0.166
 2075SOL     OW 6240   3.581   2.447   1.831
 2075SOL    HW1 6241   3.555   2.536   1.795
 2075SOL    HW2 6242   3.579   2.379   1.758
 2076SOL     OW 6243   3.224   3.006   0.545
 2076SOL    HW1 6244   3.307   2.977   0.497
 2076SOL    HW2 6245   3.175   3.073   0.489
 2077SOL     OW 6246   2.412   2.058   0.885
 2077SOL    HW1 6247   2.407   2.053   0.985
 2077SOL    HW2 6248   2.414   2.154   0.856
 2078SOL     OW 6249   2.870   3.318   0.477
 2078SOL    HW1 6250   2.824   3.390   0.425
 2078SOL    HW2 6251   2.866   3.338   0.575
 2079SOL     OW 6252   2.213   3.663   0.853
 2079SOL    HW1 6253   2.263   3.577   0.859
 2079SOL    HW2 6254   2.278   3.740   0.850
 2080SOL     OW 6255   3.657   2.928   0.873
 2080SOL    HW1 6256   3.595   2.913   0.797
 2080SOL    HW2 6257   3.605   2.939   0.958
 2081SOL     OW 6258   3.089   3.412   1.506
 2081SOL    HW1 6259   3.095   3.335   1.570
 2081SOL    HW2 6260   3.037   3.386   1.426
 2082SOL     OW 6261   2.183   2.805   0.242
 2082SOL    HW1 6262   2.265   2.844   0.200
 2082SOL    HW2 6263   2.156   2.723   0.193
 2083SOL     OW 6264   3.320   2.597   0.728
 2083SOL    HW1 6265   3.315   2.532   0.803
 2083SOL    HW2 6266   3.400   2.656   0.741
 2084SOL     OW 6267   2.323   3.128   1.727
 2084SOL    HW1 6268   2.273   3.129   1.641
 2084SOL    HW2 6269   2.260   3.110   1.803
 2085SOL     OW 6270   2.973   3.638   0.237
 2085SOL    HW1 6271   2.913   3.576   0.287
 2085SOL    HW2 6272   3.004   3.594   0.152
 2086SOL     OW 6273   2.064   2.147   1.498
 2086SOL    HW1 6274   1.984   2.207   1.485
 2086SOL    HW2 6275   2.054   2.098   1.584
 2087SOL     OW 6276   3.494   3.239   0.081
 2087SOL    HW1 6277   3.462   3.333   0.071
 2087SOL    HW2 6278   3.418   3.176   0.069
 2088SOL     OW 6279   2.326   3.605   0.323
 2088SOL    HW1 6280   2.359   3.644   0.409
 2088SOL    HW2 6281   2.402   3.598   0.258
 2089SOL     OW 6282   3.262   1.969   0.426
 2089SOL    HW1 6283   3.238   1.932   0.336
 2089SOL    HW2 6284   3.361   1.985   0.430
 2090SOL     OW 6285   2.111   3.647   1.241
 2090SOL    HW1 6286   2.168   3.582   1.291
 2090SOL    HW2 6287   2.095   3.614   1.148
 2091SOL     OW 6288   2.802   3.560   0.904
 2091SOL    HW1 6289   2.882   3.503   0.925
 2091SOL    HW2 6290   2.753   3.520   0.827
 2092SOL     OW 6291   2.244   2.562   0.480
 2092SOL    HW1 6292   2.289   2.472   0.477
 2092SOL    HW2 6293   2.150   2.551   0.513
 2093SOL     OW 6294   3.409   2.084   1.729
 2093SOL    HW1 6295   3.404   2.121   1.821
 2093SOL    HW2 6296   3.337   2.015   1.717
 2094SOL     OW 6297   2.476   1.984   0.117
 2094SOL    HW1 6298   2.574   1.962   0.124
 2094SOL    HW2 6299   2.445   1.967   0.024
 2095SOL     OW 6300   2.643   2.126   1.749
 2095SOL    HW1 6301   2.710   2.065   1.792
 2095SOL    HW2 6302   2.570   2.145   1.814
 2096SOL     OW 6303   2.750   3.376   1.195
 2096SOL    HW1 6304   2.727   3.351   1.101
 2096SOL    HW2 6305   2.811   3.307   1.234
 2097SOL     OW 6306   3.213   2.452   1.433
 2097SOL    HW1 6307   3.241   2.409   1.518
 2097SOL    HW2 6308   3.238   2.548   1.434
 2098SOL     OW 6309   2.665   3.264   0.924
 2098SOL    HW1 6310   2.755   3.278   0.882
 2098SOL    HW2 6311   2.594   3.266   0.853
 2099SOL     OW 6312   2.784   2.365   0.899
 2099SOL    HW1 6313   2.759   2.356   0.803
 2099SOL    HW2 6314   2.832   2.283   0.930
 2100SOL     OW 6315   2.401   1.926   0.512
 2100SOL    HW1 6316   2.320   1.927   0.570
 2100SOL    HW2 6317   2.404   2.009   0.457
 2101SOL     OW 6318   3.296   3.050   0.041
 2101SOL    HW1 6319   3.328   2.974   0.098
 2101SOL    HW2 6320   3.204   3.077   0.071
 2102SOL     OW 6321   2.797   2.098   0.480
 2102SOL    HW1 6322   2.749   2.139   0.402
 2102SOL    HW2 6323   2.896   2.096   0.461
 2103SOL     OW 6324   2.938   2.545   1.464
 2103SOL    HW1 6325   2.858   2.484   1.467
 2103SOL    HW2 6326   3.019   2.492   1.440
 2104SOL     OW 6327   3.089   3.432   0.793
 2104SOL    HW1 6328   3.110   3.506   0.728
 2104SOL    HW2 6329   3.157   3.432   0.866
 2105SOL     OW 6330   2.321   3.014   0.741
 2105SOL    HW1 6331   2.250   2.987   0.806
 2105SOL    HW2 6332   2.295   2.986   0.648
 2106SOL     OW 6333   3.133   3.659   0.591
 2106SOL    HW1 6334   3.177   3.723   0.527
 2106SOL    HW2 6335   3.083   3.711   0.661
 2107SOL     OW 6336   2.894   2.411   0.016
 2107SOL    HW1 6337   2.853   2.493  -0.023
 2107SOL    HW2 6338   2.958   2.437   0.089
 2108SOL     OW 6339   1.940   2.418   1.386
 2108SOL    HW1 6340   2.032   2.417   1.345
 2108SOL    HW2 6341   1.934   2.492   1.453
 2109SOL     OW 6342   2.423   2.084   1.147
 2109SOL    HW1 6343   2.461   2.000   1.184
 2109SOL    HW2 6344   2.335   2.103   1.191
 2110SOL     OW 6345   2.728   2.316   0.642
 2110SOL    HW1 6346   2.696   2.388   0.580
 2110SOL    HW2 6347   2.752   2.235   0.589
 2111SOL     OW 6348   2.879   1.901   0.753
 2111SOL    HW1 6349   2.807   1.906   0.684
 2111SOL    HW2 6350   2.855   1.832   0.822
 2112SOL     OW 6351   3.291   3.035   0.867
 2112SOL    HW1 6352   3.236   2.951   0.860
 2112SOL    HW2 6353   3.317   3.064   0.775
 2113SOL     OW 6354   3.328   2.452   0.992
 2113SOL    HW1 6355   3.298   2.357   0.999
 2113SOL    HW2 6356   3.401   2.468   1.058
 2114SOL     OW 6357   3.719   2.695   0.377
 2114SOL    HW1 6358   3.761   2.631   0.441
 2114SOL    HW2 6359   3.681   2.644   0.299
 2115SOL     OW 6360   2.350   3.247   0.174
 2115SOL    HW1 6361   2.263   3.232   0.221
 2115SOL    HW2 6362   2.333   3.273   0.079
 2116SOL     OW 6363   3.526   3.142   0.657
 2116SOL    HW1 6364   3.625   3.150   0.671
 2116SOL    HW2 6365   3.481   3.226   0.688
 2117SOL     OW 6366   3.252   2.437   0.078
 2117SOL    HW1 6367   3.198   2.416   0.159
 2117SOL    HW2 6368   3.343   2.396   0.087
 2118SOL     OW 6369   2.389   2.118   0.328
 2118SOL    HW1 6370   2.416   2.059   0.253
 2118SOL    HW2 6371   2.389   2.213   0.297
 2119SOL     OW 6372   3.616   3.085   1.588
 2119SOL    HW1 6373   3.707   3.046   1.575
 2119SOL    HW2 6374   3.624   3.181   1.612
 2120SOL     OW 6375   2.926   3.209   1.340
 2120SOL    HW1 6376   2.846   3.186   1.395
 2120SOL    HW2 6377   3.009   3.183   1.389
 2121SOL     OW 6378   3.454   3.491   1.625
 2121SOL    HW1 6379   3.481   3.525   1.535
 2121SOL    HW2 6380   3.533   3.453   1.671
 2122SOL     OW 6381   2.973   3.057   1.100
 2122SOL    HW1 6382   2.933   3.101   1.181
 2122SOL    HW2 6383   2.932   3.094   1.017
 2123SOL     OW 6384   3.500   2.961   1.079
 2123SOL    HW1 6385   3.505   3.042   1.138
 2123SOL    HW2 6386   3.414   2.963   1.028
 2124SOL     OW 6387   2.777   1.951   1.402
 2124SOL    HW1 6388   2.802   1.931   1.307
 2124SOL    HW2 6389   2.849   2.007   1.444
 2125SOL     OW 6390   2.842   2.978   1.719
 2125SOL    HW1 6391   2.743   2.984   1.729
 2125SOL    HW2 6392   2.865   2.898   1.663
 2126SOL     OW 6393   2.567   2.912   0.368
 2126SOL    HW1 6394   2.553   2.919   0.467
 2126SOL    HW2 6395   2.651   2.861   0.350
 2127SOL     OW 6396   2.272   2.675   1.251
 2127SOL    HW1 6397   2.358   2.687   1.301
 2127SOL    HW2 6398   2.230   2.588   1.278
 2128SOL     OW 6399   3.136   2.248   1.262
 2128SOL    HW1 6400   3.157   2.322   1.326
 2128SOL    HW2 6401   3.047   2.265   1.219
 2129SOL     OW 6402   1.926   3.426   1.331
 2129SOL    HW1 6403   1.880   3.508   1.297
 2129SOL    HW2 6404   2.024   3.445   1.340
 2130SOL     OW 6405   2.229   2.962   0.501
 2130SOL    HW1 6406   2.222   3.045   0.445
 2130SOL    HW2 6407   2.233   2.882   0.441
 2131SOL     OW 6408   2.428   2.399   0.865
 2131SOL    HW1 6409   2.440   2.465   0.791
 2131SOL    HW2 6410   2.474   2.433   0.948
 2132SOL     OW 6411   3.114   3.210   0.388
 2132SOL    HW1 6412   3.164   3.287   0.428
 2132SOL    HW2 6413   3.019   3.212   0.420
 2133SOL     OW 6414   3.134   3.307   1.142
 2133SOL    HW1 6415   3.181   3.320   1.229
 2133SOL    HW2 6416   3.068   3.233   1.151
 2134SOL     OW 6417   3.444   2.501   0.472
 2134SOL    HW1 6418   3.413   2.562   0.545
 2134SOL    HW2 6419   3.494   2.553   0.403
 2135SOL     OW 6420   2.216   3.372   1.329
 2135SOL    HW1 6421   2.195   3.328   1.242
 2135SOL    HW2 6422   2.313   3.398   1.332
 2136SOL     OW 6423   2.264   2.613   1.598
 2136SOL    HW1 6424   2.332   2.668   1.551
 2136SOL    HW2 6425   2.304   2.525   1.625
 2137SOL     OW 6426   3.449   2.641   1.670
 2137SOL    HW1 6427   3.357   2.679   1.665
 2137SOL    HW2 6428   3.509   2.688   1.605
 2138SOL     OW 6429   2.875   1.967   1.770
 2138SOL    HW1 6430   2.881   2.052   1.718
 2138SOL    HW2 6431   2.907   1.891   1.713
 2139SOL     OW 6432   2.366   1.912   1.740
 2139SOL    HW1 6433   2.324   1.855   1.670
 2139SOL    HW2 6434   2.300   1.981   1.772
 2140SOL     OW 6435   2.435   2.732   1.029
 2140SOL    HW1 6436   2.479   2.821   1.020
 2140SOL    HW2 6437   2.372   2.732   1.106
 2141SOL     OW 6438   3.222   2.724   1.045
 2141SOL    HW1 6439   3.147   2.724   0.979
 2141SOL    HW2 6440   3.259   2.632   1.054
 2142SOL     OW 6441   3.071   2.387   0.275
 2142SOL    HW1 6442   3.084   2.303   0.329
 2142SOL    HW2 6443   3.042   2.461   0.335
 2143SOL     OW 6444   2.169   2.075   1.231
 2143SOL    HW1 6445   2.146   2.112   1.321
 2143SOL    HW2 6446   2.139   1.980   1.225
 2144SOL     OW 6447   1.899   3.172   1.282
 2144SOL    HW1 6448   1.952   3.123   1.350
 2144SOL    HW2 6449   1.921   3.270   1.287
 2145SOL     OW 6450   2.594   2.496   1.064
 2145SOL    HW1 6451   2.653   2.470   0.988
 2145SOL    HW2 6452   2.566   2.592   1.053
 2146SOL     OW 6453   3.590   2.797   1.854
 2146SOL    HW1 6454   3.544   2.790   1.765
 2146SOL    HW2 6455   3.528   2.841   1.920
 2147SOL     OW 6456   2.169   1.925   0.618
 2147SOL    HW1 6457   2.158   2.019   0.651
 2147SOL    HW2 6458   2.164   1.862   0.695
 2148SOL     OW 6459   3.484   2.229   0.374
 2148SOL    HW1 6460   3.486   2.153   0.438
 2148SOL    HW2 6461   3.436   2.306   0.414
 2149SOL     OW 6462   2.885   2.628   0.966
 2149SOL    HW1 6463   2.900   2.649   1.062
 2149SOL    HW2 6464   2.855   2.533   0.957
 2150SOL     OW 6465   2.842   3.435   1.700
 2150SOL    HW1 6466   2.822   3.479   1.612
 2150SOL    HW2 6467   2.881   3.344   1.684
 2151SOL     OW 6468   3.721   3.380   1.605
 2151SOL    HW1 6469   3.735   3.407   1.510
 2151SOL    HW2 6470   3.804   3.402   1.658
 2152SOL     OW 6471   2.212   2.760   1.804
 2152SOL    HW1 6472   2.288   2.804   1.852
 2152SOL    HW2 6473   2.247   2.713   1.722
 2153SOL     OW 6474   3.402   2.136   0.125
 2153SOL    HW1 6475   3.341   2.061   0.148
 2153SOL    HW2 6476   3.424   2.188   0.208
 2154SOL     OW 6477   3.165   2.700   0.042
 2154SOL    HW1 6478   3.199   2.607   0.057
 2154SOL    HW2 6479   3.183   2.727  -0.053
 2155SOL     OW 6480   2.930   3.195   0.849
 2155SOL    HW1 6481   2.937   3.111   0.794
 2155SOL    HW2 6482   2.992   3.264   0.813
 2156SOL     OW 6483   2.181   2.672   0.949
 2156SOL    HW1 6484   2.274   2.708   0.954
 2156SOL    HW2 6485   2.175   2.587   1.001
 2157SOL     OW 6486   2.201   2.371   1.006
 2157SOL    HW1 6487   2.149   2.288   0.989
 2157SOL    HW2 6488   2.278   2.376   0.942
 2158SOL     OW 6489   3.000   2.242   1.678
 2158SOL    HW1 6490   2.955   2.305   1.742
 2158SOL    HW2 6491   3.093   2.273   1.661
 2159SOL     OW 6492   3.022   2.069   1.477
 2159SOL    HW1 6493   3.022   2.133   1.554
 2159SOL    HW2 6494   3.050   2.117   1.394
 2160SOL     OW 6495   1.870   3.188   0.200
 2160SOL    HW1 6496   1.777   3.209   0.169
 2160SOL    HW2 6497   1.880   3.089   0.213
 2161SOL     OW 6498   1.950   3.663   0.927
 2161SOL    HW1 6499   1.908   3.577   0.900
 2161SOL    HW2 6500   2.044   3.666   0.893
 2162SOL     OW 6501   2.366   3.430   0.910
 2162SOL    HW1 6502   2.432   3.504   0.919
 2162SOL    HW2 6503   2.410   3.351   0.868
 2163SOL     OW 6504   2.864   2.658   1.238
 2163SOL    HW1 6505   2.905   2.626   1.324
 2163SOL    HW2 6506   2.768   2.631   1.235
 2164SOL     OW 6507   1.902   2.406   1.114
 2164SOL    HW1 6508   1.987   2.373   1.073
 2164SOL    HW2 6509   1.915   2.421   1.212
 2165SOL     OW 6510   2.051   2.382   1.722
 2165SOL    HW1 6511   2.110   2.342   1.652
 2165SOL    HW2 6512   1.993   2.453   1.681
 2166SOL     OW 6513   3.231   2.812   1.660
 2166SOL    HW1 6514   3.270   2.901   1.680
 2166SOL    HW2 6515   3.241   2.792   1.563
 2167SOL     OW 6516   2.677   2.434   0.325
 2167SOL    HW1 6517   2.684   2.345   0.279
 2167SOL    HW2 6518   2.583   2.468   0.317
 2168SOL     OW 6519   3.519   2.466   1.206
 2168SOL    HW1 6520   3.481   2.397   1.268
 2168SOL    HW2 6521   3.601   2.430   1.162
 2169SOL     OW 6522   2.114   3.426   1.744
 2169SOL    HW1 6523   2.084   3.483   1.820
 2169SOL    HW2 6524   2.107   3.329   1.770
 2170SOL     OW 6525   2.533   2.326   1.269
 2170SOL    HW1 6526   2.499   2.237   1.239
 2170SOL    HW2 6527   2.559   2.380   1.189
 2171SOL     OW 6528   2.792   3.540   1.465
 2171SOL    HW1 6529   2.768   3.522   1.370
 2171SOL    HW2 6530   2.822   3.634   1.475
 2172SOL     OW 6531   2.335   2.362   0.191
 2172SOL    HW1 6532   2.396   2.442   0.195
 2172SOL    HW2 6533   2.240   2.393   0.198
 2173SOL     OW 6534   2.021   2.999   1.466
 2173SOL    HW1 6535   2.043   2.938   1.542
 2173SOL    HW2 6536   2.031   2.950   1.380
 2174SOL     OW 6537   3.209   2.921   1.234
 2174SOL    HW1 6538   3.233   2.858   1.160
 2174SOL    HW2 6539   3.119   2.961   1.216
 2175SOL     OW 6540   3.164   2.717   0.309
 2175SOL    HW1 6541   3.078   2.686   0.351
 2175SOL    HW2 6542   3.160   2.703   0.210
 2176SOL     OW 6543   3.621   3.609   1.154
 2176SOL    HW1 6544   3.682   3.639   1.081
 2176SOL    HW2 6545   3.583   3.520   1.132
 2177SOL     OW 6546   3.114   3.593   1.128
 2177SOL    HW1 6547   3.198   3.598   1.074
 2177SOL    HW2 6548   3.091   3.497   1.146
 2178SOL     OW 6549   1.945   3.120   1.022
 2178SOL    HW1 6550   1.940   3.119   1.122
 2178SOL    HW2 6551   1.862   3.079   0.984
 2179SOL     OW 6552   2.550   3.524   1.716
 2179SOL    HW1 6553   2.494   3.605   1.725
 2179SOL    HW2 6554   2.602   3.528   1.630
 2180SOL     OW 6555   2.765   1.948   0.133
 2180SOL    HW1 6556   2.816   1.949   0.047
 2180SOL    HW2 6557   2.821   1.906   0.204
 2181SOL     OW 6558   3.588   1.997   0.523
 2181SOL    HW1 6559   3.661   1.980   0.456
 2181SOL    HW2 6560   3.557   1.910   0.561
 2182SOL     OW 6561   3.250   3.435   0.477
 2182SOL    HW1 6562   3.317   3.447   0.403
 2182SOL    HW2 6563   3.210   3.524   0.500
 2183SOL     OW 6564   1.992   3.656   1.851
 2183SOL    HW1 6565   1.951   3.582   1.904
 2183SOL    HW2 6566   2.056   3.707   1.909
 2184SOL     OW 6567   3.142   2.789   0.672
 2184SOL    HW1 6568   3.202   2.708   0.674
 2184SOL    HW2 6569   3.182   2.858   0.612
 2185SOL     OW 6570   2.692   3.135   1.422
 2185SOL    HW1 6571   2.687   3.168   1.517
 2185SOL    HW2 6572   2.606   3.154   1.376
 2186SOL     OW 6573   2.534   3.478   0.154
 2186SOL    HW1 6574   2.543   3.488   0.055
 2186SOL    HW2 6575   2.494   3.389   0.175
 2187SOL     OW 6576   3.512   3.582   1.394
 2187SOL    HW1 6577   3.565   3.592   1.310
 2187SOL    HW2 6578   3.485   3.672   1.428
 2188SOL     OW 6579   3.703   2.037   0.963
 2188SOL    HW1 6580   3.742   1.952   0.927
 2188SOL    HW2 6581   3.605   2.039   0.944
 2189SOL     OW 6582   2.125   2.188   0.720
 2189SOL    HW1 6583   2.046   2.239   0.686
 2189SOL    HW2 6584   2.116   2.173   0.818
 2190SOL     OW 6585   3.056   3.474   0.031
 2190SOL    HW1 6586   3.062   3.381   0.068
 2190SOL    HW2 6587   2.997   3.474  -0.049
 2191SOL     OW 6588   2.684   2.864   1.372
 2191SOL    HW1 6589   2.724   2.863   1.280
 2191SOL    HW2 6590   2.694   2.956   1.412
 2192SOL     OW 6591   2.778   2.772   0.291
 2192SOL    HW1 6592   2.841   2.810   0.223
 2192SOL    HW2 6593   2.818   2.689   0.330
 2193SOL     OW 6594   3.366   3.469   0.044
 2193SOL    HW1 6595   3.274   3.506   0.051
 2193SOL    HW2 6596   3.404   3.489  -0.046
 2194SOL     OW 6597   2.234   3.150   1.490
 2194SOL    HW1 6598   2.221   3.243   1.456
 2194SOL    HW2 6599   2.150   3.098   1.477
 2195SOL     OW 6600   3.476   3.154   1.289
 2195SOL    HW1 6601   3.536   3.157   1.369
 2195SOL    HW2 6602   3.401   3.218   1.302
 2196SOL     OW 6603   2.901   2.960   0.696
 2196SOL    HW1 6604   2.831   2.913   0.750
 2196SOL    HW2 6605   2.960   2.892   0.653
 2197SOL     OW 6606   2.876   2.098   0.971
 2197SOL    HW1 6607   2.868   2.062   0.878
 2197SOL    HW2 6608   2.874   2.022   1.036
 2198SOL     OW 6609   2.452   3.349   0.491
 2198SOL    HW1 6610   2.494   3.291   0.421
 2198SOL    HW2 6611   2.408   3.428   0.447
 2199SOL     OW 6612   3.571   2.247   1.381
 2199SOL    HW1 6613   3.644   2.316   1.385
 2199SOL    HW2 6614   3.599   2.172   1.322
 2200SOL     OW 6615   2.117   3.210   0.290
 2200SOL    HW1 6616   2.021   3.211   0.263
 2200SOL    HW2 6617   2.129   3.263   0.374
 2201SOL     OW 6618   1.967   2.875   1.726
 2201SOL    HW1 6619   1.890   2.842   1.780
 2201SOL    HW2 6620   2.052   2.845   1.768
 2202SOL     OW 6621   2.534   2.065   1.489
 2202SOL    HW1 6622   2.624   2.049   1.449
 2202SOL    HW2 6623   2.542   2.070   1.588
 2203SOL     OW 6624   3.302   2.718   1.398
 2203SOL    HW1 6625   3.245   2.770   1.335
 2203SOL    HW2 6626   3.398   2.730   1.374
 2204SOL     OW 6627   1.934   2.028   0.318
 2204SOL    HW1 6628   1.917   2.111   0.264
 2204SOL    HW2 6629   2.024   1.991   0.296
 2205SOL     OW 6630   3.045   3.197   0.119
 2205SOL    HW1 6631   2.946   3.186   0.121
 2205SOL    HW2 6632   3.079   3.212   0.212
 2206SOL     OW 6633   2.475   2.704   1.431
 2206SOL    HW1 6634   2.531   2.785   1.414
 2206SOL    HW2 6635   2.534   2.624   1.434
 2207SOL     OW 6636   3.355   3.629   0.959
 2207SOL    HW1 6637   3.388   3.693   0.890
 2207SOL    HW2 6638   3.421   3.623   1.034
 2208SOL     OW 6639   2.578   2.427   1.708
 2208SOL    HW1 6640   2.597   2.492   1.782
 2208SOL    HW2 6641   2.638   2.347   1.717
 2209SOL     OW 6642   3.312   3.082   1.633
 2209SOL    HW1 6643   3.303   3.072   1.732
 2209SOL    HW2 6644   3.408   3.075   1.607
 2210SOL     OW 6645   2.252   3.603   1.560
 2210SOL    HW1 6646   2.161   3.644   1.558
 2210SOL    HW2 6647   2.245   3.509   1.592
 2211SOL     OW 6648   3.536   2.745   1.254
 2211SOL    HW1 6649   3.509   2.656   1.217
 2211SOL    HW2 6650   3.537   2.813   1.181
 2212SOL     OW 6651   3.087   2.187   0.449
 2212SOL    HW1 6652   3.152   2.113   0.438
 2212SOL    HW2 6653   3.107   2.237   0.533
 2213SOL     OW 6654   2.456   2.607   0.652
 2213SOL    HW1 6655   2.506   2.692   0.633
 2213SOL    HW2 6656   2.368   2.609   0.604
 2214SOL     OW 6657   3.639   2.204   1.642
 2214SOL    HW1 6658   3.622   2.235   1.548
 2214SOL    HW2 6659   3.555   2.167   1.680
 2215SOL     OW 6660   3.592   2.796   1.517
 2215SOL    HW1 6661   3.630   2.887   1.532
 2215SOL    HW2 6662   3.584   2.779   1.418
 2216SOL     OW 6663   2.721   3.236   0.016
 2216SOL    HW1 6664   2.675   3.251   0.104
 2216SOL    HW2 6665   2.765   3.321  -0.014
 2217SOL     OW 6666   2.523   3.652   0.953
 2217SOL    HW1 6667   2.477   3.740   0.940
 2217SOL    HW2 6668   2.622   3.664   0.946
 2218SOL     OW 6669   2.721   2.818   0.861
 2218SOL    HW1 6670   2.775   2.749   0.909
 2218SOL    HW2 6671   2.689   2.887   0.927
 2219SOL     OW 6672   2.945   2.846   0.087
 2219SOL    HW1 6673   2.922   2.899   0.005
 2219SOL    HW2 6674   3.026   2.790   0.068
 2220SOL     OW 6675   3.723   3.431   0.851
 2220SOL    HW1 6676   3.652   3.419   0.781
 2220SOL    HW2 6677   3.724   3.352   0.911
 2221SOL     OW 6678   2.083   3.176   1.844
 2221SOL    HW1 6679   2.018   3.103   1.823
 2221SOL    HW2 6680   2.087   3.190   1.942
 2222SOL     OW 6681   1.941   3.102   0.653
 2222SOL    HW1 6682   1.940   3.055   0.741
 2222SOL    HW2 6683   2.023   3.074   0.602
 2223SOL     OW 6684   2.534   3.253   1.624
 2223SOL    HW1 6685   2.456   3.203   1.662
 2223SOL    HW2 6686   2.531   3.348   1.655
 2224SOL     OW 6687   3.686   2.054   1.227
 2224SOL    HW1 6688   3.682   1.964   1.271
 2224SOL    HW2 6689   3.689   2.043   1.128
 2225SOL     OW 6690   2.290   2.286   0.520
 2225SOL    HW1 6691   2.320   2.214   0.458
 2225SOL    HW2 6692   2.251   2.246   0.603
 2226SOL     OW 6693   3.567   3.349   1.104
 2226SOL    HW1 6694   3.474   3.324   1.077
 2226SOL    HW2 6695   3.593   3.299   1.186
 2227SOL     OW 6696   2.179   2.409   1.280
 2227SOL    HW1 6697   2.217   2.350   1.352
 2227SOL    HW2 6698   2.219   2.383   1.192
 2228SOL     OW 6699   2.674   3.448   0.687
 2228SOL    HW1 6700   2.706   3.458   0.593
 2228SOL    HW2 6701   2.595   3.386   0.689
 2229SOL     OW 6702   3.286   2.076   1.112
 2229SOL    HW1 6703   3.338   2.011   1.167
 2229SOL    HW2 6704   3.237   2.139   1.173
 2230SOL     OW 6705   2.863   1.896   1.154
 2230SOL    HW1 6706   2.800   1.824   1.123
 2230SOL    HW2 6707   2.956   1.860   1.154
 2231SOL     OW 6708   2.632   3.192   0.301
 2231SOL    HW1 6709   2.586   3.105   0.318
 2231SOL    HW2 6710   2.723   3.189   0.342
 2232SOL     OW 6711   2.480   3.429   1.284
 2232SOL    HW1 6712   2.475   3.511   1.341
 2232SOL    HW2 6713   2.569   3.426   1.239
 2233SOL     OW 6714   3.214   1.914   0.168
 2233SOL    HW1 6715   3.249   1.873   0.084
 2233SOL    HW2 6716   3.124   1.876   0.188
 2234SOL     OW 6717   3.162   2.315   0.691
 2234SOL    HW1 6718   3.103   2.395   0.695
 2234SOL    HW2 6719   3.177   2.280   0.784
 2235SOL     OW 6720   3.455   2.083   0.882
 2235SOL    HW1 6721   3.371   2.082   0.936
 2235SOL    HW2 6722   3.457   2.166   0.826
 2236SOL     OW 6723   1.901   2.939   0.300
 2236SOL    HW1 6724   2.000   2.928   0.291
 2236SOL    HW2 6725   1.861   2.853   0.332
 2237SOL     OW 6726   2.737   3.508   0.337
 2237SOL    HW1 6727   2.660   3.473   0.283
 2237SOL    HW2 6728   2.705   3.579   0.399
 2238SOL     OW 6729   2.092   2.490   1.975
 2238SOL    HW1 6730   1.999   2.488   2.012
 2238SOL    HW2 6731   2.093   2.451   1.883
 2239SOL     OW 6732   2.087   2.137   2.858
 2239SOL    HW1 6733   2.122   2.120   2.950
 2239SOL    HW2 6734   1.999   2.092   2.846
 2240SOL     OW 6735   1.881   2.230   2.509
 2240SOL    HW1 6736   1.799   2.273   2.548
 2240SOL    HW2 6737   1.853   2.157   2.446
 2241SOL     OW 6738   2.431   3.137   3.027
 2241SOL    HW1 6739   2.338   3.130   2.990
 2241SOL    HW2 6740   2.442   3.226   3.071
 2242SOL     OW 6741   3.417   3.373   2.565
 2242SOL    HW1 6742   3.360   3.357   2.646
 2242SOL    HW2 6743   3.358   3.383   2.485
 2243SOL     OW 6744   2.997   2.565   2.579
 2243SOL    HW1 6745   3.054   2.643   2.554
 2243SOL    HW2 6746   2.937   2.591   2.655
 2244SOL     OW 6747   3.617   2.469   2.093
 2244SOL    HW1 6748   3.605   2.456   1.994
 2244SOL    HW2 6749   3.587   2.388   2.142
 2245SOL     OW 6750   2.630   3.006   2.885
 2245SOL    HW1 6751   2.552   3.023   2.945
 2245SOL    HW2 6752   2.664   3.093   2.849
 2246SOL     OW 6753   2.712   2.660   3.685
 2246SOL    HW1 6754   2.708   2.736   3.750
 2246SOL    HW2 6755   2.734   2.696   3.594
 2247SOL     OW 6756   2.547   2.874   2.527
 2247SOL    HW1 6757   2.616   2.858   2.597
 2247SOL    HW2 6758   2.474   2.931   2.565
 2248SOL     OW 6759   2.548   3.023   3.665
 2248SOL    HW1 6760   2.608   3.102   3.679
 2248SOL    HW2 6761   2.462   3.054   3.624
 2249SOL     OW 6762   2.197   3.297   2.923
 2249SOL    HW1 6763   2.119   3.266   2.870
 2249SOL    HW2 6764   2.255   3.355   2.866
 2250SOL     OW 6765   3.322   3.367   3.201
 2250SOL    HW1 6766   3.346   3.461   3.227
 2250SOL    HW2 6767   3.306   3.313   3.283
 2251SOL     OW 6768   2.300   2.254   3.361
 2251SOL    HW1 6769   2.382   2.198   3.370
 2251SOL    HW2 6770   2.219   2.196   3.365
 2252SOL     OW 6771   3.465   2.309   2.599
 2252SOL    HW1 6772   3.391   2.355   2.549
 2252SOL    HW2 6773   3.516   2.377   2.652
 2253SOL     OW 6774   2.093   3.575   2.345
 2253SOL    HW1 6775   2.127   3.652   2.399
 2253SOL    HW2 6776   2.137   3.575   2.255
 2254SOL     OW 6777   2.989   3.203   3.552
 2254SOL    HW1 6778   3.036   3.203   3.640
 2254SOL    HW2 6779   2.941   3.116   3.541
 2255SOL     OW 6780   2.092   3.296   2.400
 2255SOL    HW1 6781   2.066   3.392   2.400
 2255SOL    HW2 6782   2.021   3.242   2.445
 2256SOL     OW 6783   2.102   2.953   2.748
 2256SOL    HW1 6784   2.116   2.869   2.800
 2256SOL    HW2 6785   2.047   3.017   2.803
 2257SOL     OW 6786   2.482   3.648   3.301
 2257SOL    HW1 6787   2.390   3.631   3.336
 2257SOL    HW2 6788   2.510   3.740   3.327
 2258SOL     OW 6789   2.468   2.826   1.985
 2258SOL    HW1 6790   2.475   2.910   1.931
 2258SOL    HW2 6791   2.514   2.839   2.073
 2259SOL     OW 6792   3.456   1.976   3.342
 2259SOL    HW1 6793   3.438   2.043   3.270
 2259SOL    HW2 6794   3.453   2.022   3.431
 2260SOL     OW 6795   3.704   3.629   2.221
 2260SOL    HW1 6796   3.758   3.600   2.301
 2260SOL    HW2 6797   3.734   3.719   2.192
 2261SOL     OW 6798   1.889   3.458   1.979
 2261SOL    HW1 6799   1.870   3.362   2.000
 2261SOL    HW2 6800   1.856   3.516   2.054
 2262SOL     OW 6801   3.551   2.784   2.474
 2262SOL    HW1 6802   3.646   2.755   2.482
 2262SOL    HW2 6803   3.543   2.849   2.399
 2263SOL     OW 6804   3.503   2.970   2.294
 2263SOL    HW1 6805   3.589   2.972   2.242
 2263SOL    HW2 6806   3.517   3.017   2.382
 2264SOL     OW 6807   1.975   2.599   3.459
 2264SOL    HW1 6808   2.063   2.586   3.504
 2264SOL    HW2 6809   1.962   2.696   3.437
 2265SOL     OW 6810   2.475   3.227   2.588
 2265SOL    HW1 6811   2.426   3.140   2.597
 2265SOL    HW2 6812   2.452   3.270   2.501
 2266SOL     OW 6813   3.155   3.090   3.285
 2266SOL    HW1 6814   3.192   3.017   3.227
 2266SOL    HW2 6815   3.207   3.095   3.370
 2267SOL     OW 6816   2.671   1.866   2.364
 2267SOL    HW1 6817   2.711   1.957   2.355
 2267SOL    HW2 6818   2.571   1.874   2.370
 2268SOL     OW 6819   2.059   2.838   3.126
 2268SOL    HW1 6820   2.148   2.793   3.112
 2268SOL    HW2 6821   1.986   2.773   3.107
 2269SOL     OW 6822   3.387   2.861   2.052
 2269SOL    HW1 6823   3.324   2.785   2.065
 2269SOL    HW2 6824   3.435   2.879   2.138
 2270SOL     OW 6825   3.049   3.654   3.478
 2270SOL    HW1 6826   3.073   3.714   3.402
 2270SOL    HW2 6827   3.056   3.559   3.448
 2271SOL     OW 6828   2.179   2.113   3.663
 2271SOL    HW1 6829   2.250   2.184   3.669
 2271SOL    HW2 6830   2.091   2.152   3.691
 2272SOL     OW 6831   3.328   3.279   2.815
 2272SOL    HW1 6832   3.269   3.285   2.895
 2272SOL    HW2 6833   3.313   3.191   2.769
 2273SOL     OW 6834   3.529   3.576   2.434
 2273SOL    HW1 6835   3.488   3.553   2.346
 2273SOL    HW2 6836   3.511   3.502   2.499
 2274SOL     OW 6837   2.460   2.591   2.132
 2274SOL    HW1 6838   2.484   2.660   2.064
 2274SOL    HW2 6839   2.382   2.624   2.186
 2275SOL     OW 6840   3.143   2.207   2.806
 2275SOL    HW1 6841   3.057   2.157   2.793
 2275SOL    HW2 6842   3.205   2.153   2.862
 2276SOL     OW 6843   3.438   3.524   2.169
 2276SOL    HW1 6844   3.527   3.570   2.172
 2276SOL    HW2 6845   3.417   3.500   2.074
 2277SOL     OW 6846   2.669   2.467   3.327
 2277SOL    HW1 6847   2.622   2.464   3.416
 2277SOL    HW2 6848   2.618   2.412   3.261
 2278SOL     OW 6849   3.256   2.331   3.536
 2278SOL    HW1 6850   3.236   2.374   3.624
 2278SOL    HW2 6851   3.334   2.269   3.545
 2279SOL     OW 6852   2.835   2.752   3.434
 2279SOL    HW1 6853   2.881   2.668   3.405
 2279SOL    HW2 6854   2.779   2.786   3.359
 2280SOL     OW 6855   2.853   2.272   3.104
 2280SOL    HW1 6856   2.776   2.306   3.158
 2280SOL    HW2 6857   2.819   2.221   3.025
 2281SOL     OW 6858   2.903   2.563   2.291
 2281SOL    HW1 6859   2.929   2.559   2.387
 2281SOL    HW2 6860   2.818   2.512   2.277
 2282SOL     OW 6861   1.938   2.673   2.651
 2282SOL    HW1 6862   2.037   2.661   2.660
 2282SOL    HW2 6863   1.914   2.768   2.672
 2283SOL     OW 6864   1.992   3.683   3.433
 2283SOL    HW1 6865   1.982   3.668   3.532
 2283SOL    HW2 6866   1.906   3.719   3.397
 2284SOL     OW 6867   2.727   2.210   2.057
 2284SOL    HW1 6868   2.786   2.273   2.008
 2284SOL    HW2 6869   2.746   2.116   2.028
 2285SOL     OW 6870   3.581   2.447   3.693
 2285SOL    HW1 6871   3.555   2.536   3.657
 2285SOL    HW2 6872   3.579   2.379   3.620
 2286SOL     OW 6873   3.224   3.006   2.407
 2286SOL    HW1 6874   3.307   2.977   2.359
 2286SOL    HW2 6875   3.175   3.073   2.351
 2287SOL     OW 6876   2.412   2.058   2.747
 2287SOL    HW1 6877   2.407   2.053   2.847
 2287SOL    HW2 6878   2.414   2.154   2.718
 2288SOL     OW 6879   2.870   3.318   2.339
 2288SOL    HW1 6880   2.824   3.390   2.287
 2288SOL    HW2 6881   2.866   3.338   2.437
 2289SOL     OW 6882   2.213   3.663   2.715
 2289SOL    HW1 6883   2.263   3.577   2.721
 2289SOL    HW2 6884   2.278   3.740   2.712
 2290SOL     OW 6885   3.657   2.928   2.735
 2290SOL    HW1 6886   3.595   2.913   2.659
 2290SOL    HW2 6887   3.605   2.939   2.820
 2291SOL     OW 6888   3.089   3.412   3.368
 2291SOL    HW1 6889   3.095   3.335   3.432
 2291SOL    HW2 6890   3.037   3.386   3.288
 2292SOL     OW 6891   2.183   2.805   2.104
 2292SOL    HW1 6892   2.265   2.844   2.062
 2292SOL    HW2 6893   2.156   2.723   2.055
 2293SOL     OW 6894   3.320   2.597   2.590
 2293SOL    HW1 6895   3.315   2.532   2.665
 2293SOL    HW2 6896   3.400   2.656   2.603
 2294SOL     OW 6897   2.323   3.128   3.589
 2294SOL    HW1 6898   2.273   3.129   3.503
 2294SOL    HW2 6899   2.260   3.110   3.665
 2295SOL     OW 6900   2.973   3.638   2.099
 2295SOL    HW1 6901   2.913   3.576   2.149
 2295SOL    HW2 6902   3.004   3.594   2.014
 2296SOL     OW 6903   2.064   2.147   3.360
 2296SOL    HW1 6904   1.984   2.207   3.347
 2296SOL    HW2 6905   2.054   2.098   3.446
 2297SOL     OW 6906   3.494   3.239   1.943
 2297SOL    HW1 6907   3.462   3.333   1.933
 2297SOL    HW2 6908   3.418   3.176   1.931
 2298SOL     OW 6909   2.326   3.605   2.185
 2298SOL    HW1 6910   2.359   3.644   2.271
 2298SOL    HW2 6911   2.402   3.598   2.120
 2299SOL     OW 6912   3.262   1.969   2.288
 2299SOL    HW1 6913   3.238   1.932   2.198
 2299SOL    HW2 6914   3.361   1.985   2.292
 2300SOL     OW 6915   2.111   3.647   3.103
 2300SOL    HW1 6916   2.168   3.582   3.153
 2300SOL    HW2 6917   2.095   3.614   3.010
 2301SOL     OW 6918   2.802   3.560   2.766
 2301SOL    HW1 6919   2.882   3.503   2.787
 2301SOL    HW2 6920   2.753   3.520   2.689
 2302SOL     OW 6921   3.409   2.084   3.591
 2302SOL    HW1 6922   3.404   2.121   3.683
 2302SOL    HW2 6923   3.337   2.015   3.579
 2303SOL     OW 6924   2.476   1.984   1.979
 2303SOL    HW1 6925   2.574   1.962   1.986
 2303SOL    HW2 6926   2.445   1.967   1.886
 2304SOL     OW 6927   2.643   2.126   3.611
 2304SOL    HW1 6928   2.710   2.065   3.654
 2304SOL    HW2 6929   2.570   2.145   3.676
 2305SOL     OW 6930   2.750   3.376   3.057
 2305SOL    HW1 6931   2.727   3.351   2.963
 2305SOL    HW2 6932   2.811   3.307   3.096
 2306SOL     OW 6933   3.213   2.452   3.295
 2306SOL    HW1 6934   3.241   2.409   3.380
 2306SOL    HW2 6935   3.238   2.548   3.296
 2307SOL     OW 6936   2.665   3.264   2.786
 2307SOL    HW1 6937   2.755   3.278   2.744
 2307SOL    HW2 6938   2.594   3.266   2.715
 2308SOL     OW 6939   2.401   1.926   2.374
 2308SOL    HW1 6940   2.320   1.927   2.432
 2308SOL    HW2 6941   2.404   2.009   2.319
 2309SOL     OW 6942   3.296   3.050   1.903
 2309SOL    HW1 6943   3.328   2.974   1.960
 2309SOL    HW2 6944   3.204   3.077   1.933
 2310SOL     OW 6945   2.159   1.897   2.033
 2310SOL    HW1 6946   2.208   1.981   2.012
 2310SOL    HW2 6947   2.221   1.832   2.078
 2311SOL     OW 6948   2.797   2.098   2.342
 2311SOL    HW1 6949   2.749   2.139   2.264
 2311SOL    HW2 6950   2.896   2.096   2.323
 2312SOL     OW 6951   2.938   2.545   3.326
 2312SOL    HW1 6952   2.858   2.484   3.329
 2312SOL    HW2 6953   3.019   2.492   3.302
 2313SOL     OW 6954   3.089   3.432   2.655
 2313SOL    HW1 6955   3.110   3.506   2.590
 2313SOL    HW2 6956   3.157   3.432   2.728
 2314SOL     OW 6957   2.321   3.014   2.603
 2314SOL    HW1 6958   2.250   2.987   2.668
 2314SOL    HW2 6959   2.295   2.986   2.510
 2315SOL     OW 6960   3.133   3.659   2.453
 2315SOL    HW1 6961   3.177   3.723   2.389
 2315SOL    HW2 6962   3.083   3.711   2.523
 2316SOL     OW 6963   2.894   2.411   1.878
 2316SOL    HW1 6964   2.853   2.493   1.839
 2316SOL    HW2 6965   2.958   2.437   1.951
 2317SOL     OW 6966   1.940   2.418   3.248
 2317SOL    HW1 6967   2.032   2.417   3.207
 2317SOL    HW2 6968   1.934   2.492   3.315
 2318SOL     OW 6969   2.423   2.084   3.009
 2318SOL    HW1 6970   2.461   2.000   3.046
 2318SOL    HW2 6971   2.335   2.103   3.053
 2319SOL     OW 6972   2.879   1.901   2.615
 2319SOL    HW1 6973   2.807   1.906   2.546
 2319SOL    HW2 6974   2.855   1.832   2.684
 2320SOL     OW 6975   3.291   3.035   2.729
 2320SOL    HW1 6976   3.236   2.951   2.722
 2320SOL    HW2 6977   3.317   3.064   2.637
 2321SOL     OW 6978   3.328   2.452   2.854
 2321SOL    HW1 6979   3.298   2.357   2.861
 2321SOL    HW2 6980   3.401   2.468   2.920
 2322SOL     OW 6981   3.719   2.695   2.239
 2322SOL    HW1 6982   3.761   2.631   2.303
 2322SOL    HW2 6983   3.681   2.644   2.161
 2323SOL     OW 6984   2.350   3.247   2.036
 2323SOL    HW1 6985   2.263   3.232   2.083
 2323SOL    HW2 6986   2.333   3.273   1.941
 2324SOL     OW 6987   3.526   3.142   2.519
 2324SOL    HW1 6988   3.625   3.150   2.533
 2324SOL    HW2 6989   3.481   3.226   2.550
 2325SOL     OW 6990   3.252   2.437   1.940
 2325SOL    HW1 6991   3.198   2.416   2.021
 2325SOL    HW2 6992   3.343   2.396   1.949
 2326SOL     OW 6993   2.389   2.118   2.190
 2326SOL    HW1 6994   2.416   2.059   2.115
 2326SOL    HW2 6995   2.389   2.213   2.159
 2327SOL     OW 6996   3.616   3.085   3.450
 2327SOL    HW1 6997   3.707   3.046   3.437
 2327SOL    HW2 6998   3.624   3.181   3.474
 2328SOL     OW 6999   2.926   3.209   3.202
 2328SOL    HW1 7000   2.846   3.186   3.257
 2328SOL    HW2 7001   3.009   3.183   3.251
 2329SOL     OW 7002   3.454   3.491   3.487
 2329SOL    HW1 7003   3.481   3.525   3.397
 2329SOL    HW2 7004   3.533   3.453   3.533
 2330SOL     OW 7005   2.973   3.057   2.962
 2330SOL    HW1 7006   2.933   3.101   3.043
 2330SOL    HW2 7007   2.932   3.094   2.879
 2331SOL     OW 7008   3.500   2.961   2.941
 2331SOL    HW1 7009   3.505   3.042   3.000
 2331SOL    HW2 7010   3.414   2.963   2.890
 2332SOL     OW 7011   2.777   1.951   3.264
 2332SOL    HW1 7012   2.802   1.931   3.169
 2332SOL    HW2 7013   2.849   2.007   3.306
 2333SOL     OW 7014   2.842   2.978   3.581
 2333SOL    HW1 7015   2.743   2.984   3.591
 2333SOL    HW2 7016   2.865   2.898   3.525
 2334SOL     OW 7017   2.567   2.912   2.230
 2334SOL    HW1 7018   2.553   2.919   2.329
 2334SOL    HW2 7019   2.651   2.861   2.212
 2335SOL     OW 7020   2.272   2.675   3.113
 2335SOL    HW1 7021   2.358   2.687   3.163
 2335SOL    HW2 7022   2.230   2.588   3.140
 2336SOL     OW 7023   3.136   2.248   3.124
 2336SOL    HW1 7024   3.157   2.322   3.188
 2336SOL    HW2 7025   3.047   2.265   3.081
 2337SOL     OW 7026   1.926   3.426   3.193
 2337SOL    HW1 7027   1.880   3.508   3.159
 2337SOL    HW2 7028   2.024   3.445   3.202
 2338SOL     OW 7029   2.229   2.962   2.363
 2338SOL    HW1 7030   2.222   3.045   2.307
 2338SOL    HW2 7031   2.233   2.882   2.303
 2339SOL     OW 7032   3.114   3.210   2.250
 2339SOL    HW1 7033   3.164   3.287   2.290
 2339SOL    HW2 7034   3.019   3.212   2.282
 2340SOL     OW 7035   3.134   3.307   3.004
 2340SOL    HW1 7036   3.181   3.320   3.091
 2340SOL    HW2 7037   3.068   3.233   3.013
 2341SOL     OW 7038   3.444   2.501   2.334
 2341SOL    HW1 7039   3.413   2.562   2.407
 2341SOL    HW2 7040   3.494   2.553   2.265
 2342SOL     OW 7041   2.216   3.372   3.191
 2342SOL    HW1 7042   2.195   3.328   3.104
 2342SOL    HW2 7043   2.313   3.398   3.194
 2343SOL     OW 7044   2.264   2.613   3.460
 2343SOL    HW1 7045   2.332   2.668   3.413
 2343SOL    HW2 7046   2.304   2.525   3.487
 2344SOL     OW 7047   3.449   2.641   3.532
 2344SOL    HW1 7048   3.357   2.679   3.527
 2344SOL    HW2 7049   3.509   2.688   3.467
 2345SOL     OW 7050   2.875   1.967   3.632
 2345SOL    HW1 7051   2.881   2.052   3.580
 2345SOL    HW2 7052   2.907   1.891   3.575
 2346SOL     OW 7053   2.366   1.912   3.602
 2346SOL    HW1 7054   2.324   1.855   3.532
 2346SOL    HW2 7055   2.300   1.981   3.634
 2347SOL     OW 7056   2.435   2.732   2.891
 2347SOL    HW1 7057   2.479   2.821   2.882
 2347SOL    HW2 7058   2.372   2.732   2.968
 2348SOL     OW 7059   3.222   2.724   2.907
 2348SOL    HW1 7060   3.147   2.724   2.841
 2348SOL    HW2 7061   3.259   2.632   2.916
 2349SOL     OW 7062   3.071   2.387   2.137
 2349SOL    HW1 7063   3.084   2.303   2.191
 2349SOL    HW2 7064   3.042   2.461   2.197
 2350SOL     OW 7065   2.169   2.075   3.093
 2350SOL    HW1 7066   2.146   2.112   3.183
 2350SOL    HW2 7067   2.139   1.980   3.087
 2351SOL     OW 7068   1.899   3.172   3.144
 2351SOL    HW1 7069   1.952   3.123   3.212
 2351SOL    HW2 7070   1.921   3.270   3.149
 2352SOL     OW 7071   2.594   2.496   2.926
 2352SOL    HW1 7072   2.653   2.470   2.850
 2352SOL    HW2 7073   2.566   2.592   2.915
 2353SOL     OW 7074   3.590   2.797   3.716
 2353SOL    HW1 7075   3.544   2.790   3.627
 2353SOL    HW2 7076   3.528   2.841   3.782
 2354SOL     OW 7077   2.169   1.925   2.480
 2354SOL    HW1 7078   2.158   2.019   2.513
 2354SOL    HW2 7079   2.164   1.862   2.557
 2355SOL     OW 7080   3.484   2.229   2.236
 2355SOL    HW1 7081   3.486   2.153   2.300
 2355SOL    HW2 7082   3.436   2.306   2.276
 2356SOL     OW 7083   2.885   2.628   2.828
 2356SOL    HW1 7084   2.900   2.649   2.924
 2356SOL    HW2 7085   2.855   2.533   2.819
 2357SOL     OW 7086   2.842   3.435   3.562
 2357SOL    HW1 7087   2.822   3.479   3.474
 2357SOL    HW2 7088   2.881   3.344   3.546
 2358SOL     OW 7089   3.721   3.380   3.467
 2358SOL    HW1 7090   3.735   3.407   3.372
 2358SOL    HW2 7091   3.804   3.402   3.520
 2359SOL     OW 7092   2.212   2.760   3.666
 2359SOL    HW1 7093   2.288   2.804   3.714
 2359SOL    HW2 7094   2.247   2.713   3.584
 2360SOL     OW 7095   3.402   2.136   1.987
 2360SOL    HW1 7096   3.341   2.061   2.010
 2360SOL    HW2 7097   3.424   2.188   2.070
 2361SOL     OW 7098   3.165   2.700   1.904
 2361SOL    HW1 7099   3.199   2.607   1.919
 2361SOL    HW2 7100   3.183   2.727   1.809
 2362SOL     OW 7101   2.930   3.195   2.711
 2362SOL    HW1 7102   2.937   3.111   2.656
 2362SOL    HW2 7103   2.992   3.264   2.675
 2363SOL     OW 7104   2.181   2.672   2.811
 2363SOL    HW1 7105   2.274   2.708   2.816
 2363SOL    HW2 7106   2.175   2.587   2.863
 2364SOL     OW 7107   2.201   2.371   2.868
 2364SOL    HW1 7108   2.149   2.288   2.851
 2364SOL    HW2 7109   2.278   2.376   2.804
 2365SOL     OW 7110   3.000   2.242   3.540
 2365SOL    HW1 7111   2.955   2.305   3.604
 2365SOL    HW2 7112   3.093   2.273   3.523
 2366SOL     OW 7113   3.022   2.069   3.339
 2366SOL    HW1 7114   3.022   2.133   3.416
 2366SOL    HW2 7115   3.050   2.117   3.256
 2367SOL     OW 7116   1.870   3.188   2.062
 2367SOL    HW1 7117   1.777   3.209   2.031
 2367SOL    HW2 7118   1.880   3.089   2.075
 2368SOL     OW 7119   1.950   3.663   2.789
 2368SOL    HW1 7120   1.908   3.577   2.762
 2368SOL    HW2 7121   2.044   3.666   2.755
 2369SOL     OW 7122   2.366   3.430   2.772
 2369SOL    HW1 7123   2.432   3.504   2.781
 2369SOL    HW2 7124   2.410   3.351   2.730
 2370SOL     OW 7125   2.864   2.658   3.100
 2370SOL    HW1 7126   2.905   2.626   3.186
 2370SOL    HW2 7127   2.768   2.631   3.097
 2371SOL     OW 7128   1.902   2.406   2.976
 2371SOL    HW1 7129   1.987   2.373   2.935
 2371SOL    HW2 7130   1.915   2.421   3.074
 2372SOL     OW 7131   2.051   2.382   3.584
 2372SOL    HW1 7132   2.110   2.342   3.514
 2372SOL    HW2 7133   1.993   2.453   3.543
 2373SOL     OW 7134   3.231   2.812   3.522
 2373SOL    HW1 7135   3.270   2.901   3.542
 2373SOL    HW2 7136   3.241   2.792   3.425
 2374SOL     OW 7137   2.677   2.434   2.187
 2374SOL    HW1 7138   2.684   2.345   2.141
 2374SOL    HW2 7139   2.583   2.468   2.179
 2375SOL     OW 7140   3.519   2.466   3.068
 2375SOL    HW1 7141   3.481   2.397   3.130
 2375SOL    HW2 7142   3.601   2.430   3.024
 2376SOL     OW 7143   2.114   3.426   3.606
 2376SOL    HW1 7144   2.084   3.483   3.682
 2376SOL    HW2 7145   2.107   3.329   3.632
 2377SOL     OW 7146   2.533   2.326   3.131
 2377SOL    HW1 7147   2.499   2.237   3.101
 2377SOL    HW2 7148   2.559   2.380   3.051
 2378SOL     OW 7149   2.792   3.540   3.327
 2378SOL    HW1 7150   2.768   3.522   3.232
 2378SOL    HW2 7151   2.822   3.634   3.337
 2379SOL     OW 7152   2.335   2.362   2.053
 2379SOL    HW1 7153   2.396   2.442   2.057
 2379SOL    HW2 7154   2.240   2.393   2.060
 2380SOL     OW 7155   2.021   2.999   3.328
 2380SOL    HW1 7156   2.043   2.938   3.404
 2380SOL    HW2 7157   2.031   2.950   3.242
 2381SOL     OW 7158   3.209   2.921   3.096
 2381SOL    HW1 7159   3.233   2.858   3.022
 2381SOL    HW2 7160   3.119   2.961   3.078
 2382SOL     OW 7161   3.164   2.717   2.171
 2382SOL    HW1 7162   3.078   2.686   2.213
 2382SOL    HW2 7163   3.160   2.703   2.072
 2383SOL     OW 7164   3.621   3.609   3.016
 2383SOL    HW1 7165   3.682   3.639   2.943
 2383SOL    HW2 7166   3.583   3.520   2.994
 2384SOL     OW 7167   3.114   3.593   2.990
 2384SOL    HW1 7168   3.198   3.598   2.936
 2384SOL    HW2 7169   3.091   3.497   3.008
 2385SOL     OW 7170   1.945   3.120   2.884
 2385SOL    HW1 7171   1.940   3.119   2.984
 2385SOL    HW2 7172   1.862   3.079   2.846
 2386SOL     OW 7173   2.550   3.524   3.578
 2386SOL    HW1 7174   2.494   3.605   3.587
 2386SOL    HW2 7175   2.602   3.528   3.492
 2387SOL     OW 7176   3.588   1.997   2.385
 2387SOL    HW1 7177   3.661   1.980   2.318
 2387SOL    HW2 7178   3.557   1.910   2.423
 2388SOL     OW 7179   3.250   3.435   2.339
 2388SOL    HW1 7180   3.317   3.447   2.265
 2388SOL    HW2 7181   3.210   3.524   2.362
 2389SOL     OW 7182   1.992   3.656   3.713
 2389SOL    HW1 7183   1.951   3.582   3.766
 2389SOL    HW2 7184   2.056   3.707   3.771
 2390SOL     OW 7185   3.142   2.789   2.534
 2390SOL    HW1 7186   3.202   2.708   2.536
 2390SOL    HW2 7187   3.182   2.858   2.474
 2391SOL     OW 7188   2.692   3.135   3.284
 2391SOL    HW1 7189   2.687   3.168   3.379
 2391SOL    HW2 7190   2.606   3.154   3.238
 2392SOL     OW 7191   2.534   3.478   2.016
 2392SOL    HW1 7192   2.543   3.488   1.917
 2392SOL    HW2 7193   2.494   3.389   2.037
 2393SOL     OW 7194   3.512   3.582   3.256
 2393SOL    HW1 7195   3.565   3.592   3.172
 2393SOL    HW2 7196   3.485   3.672   3.290
 2394SOL     OW 7197   3.703   2.037   2.825
 2394SOL    HW1 7198   3.742   1.952   2.789
 2394SOL    HW2 7199   3.605   2.039   2.806
 2395SOL     OW 7200   2.125   2.188   2.582
 2395SOL    HW1 7201   2.046   2.239   2.548
 2395SOL    HW2 7202   2.116   2.173   2.680
 2396SOL     OW 7203   3.056   3.474   1.893
 2396SOL    HW1 7204   3.062   3.381   1.930
 2396SOL    HW2 7205   2.997   3.474   1.813
 2397SOL     OW 7206   2.684   2.864   3.234
 2397SOL    HW1 7207   2.724   2.863   3.142
 2397SOL    HW2 7208   2.694   2.956   3.274
 2398SOL     OW 7209   2.778   2.772   2.153
 2398SOL    HW1 7210   2.841   2.810   2.085
 2398SOL    HW2 7211   2.818   2.689   2.192
 2399SOL     OW 7212   3.366   3.469   1.906
 2399SOL    HW1 7213   3.274   3.506   1.913
 2399SOL    HW2 7214   3.404   3.489   1.816
 2400SOL     OW 7215   2.234   3.150   3.352
 2400SOL    HW1 7216   2.221   3.243   3.318
 2400SOL    HW2 7217   2.150   3.098   3.339
 2401SOL     OW 7218   3.476   3.154   3.151
 2401SOL    HW1 7219   3.536   3.157   3.231
 2401SOL    HW2 7220   3.401   3.218   3.164
 2402SOL     OW 7221   2.901   2.960   2.558
 2402SOL    HW1 7222   2.831   2.913   2.612
 2402SOL    HW2 7223   2.960   2.892   2.515
 2403SOL     OW 7224   2.876   2.098   2.833
 2403SOL    HW1 7225   2.868   2.062   2.740
 2403SOL    HW2 7226   2.874   2.022   2.898
 2404SOL     OW 7227   2.452   3.349   2.353
 2404SOL    HW1 7228   2.494   3.291   2.283
 2404SOL    HW2 7229   2.408   3.428   2.309
 2405SOL     OW 7230   3.571   2.247   3.243
 2405SOL    HW1 7231   3.644   2.316   3.247
 2405SOL    HW2 7232   3.599   2.172   3.184
 2406SOL     OW 7233   2.117   3.210   2.152
 2406SOL    HW1 7234   2.021   3.211   2.125
 2406SOL    HW2 7235   2.129   3.263   2.236
 2407SOL     OW 7236   1.967   2.875   3.588
 2407SOL    HW1 7237   1.890   2.842   3.642
 2407SOL    HW2 7238   2.052   2.845   3.630
 2408SOL     OW 7239   2.534   2.065   3.351
 2408SOL    HW1 7240   2.624   2.049   3.311
 2408SOL    HW2 7241   2.542   2.070   3.450
 2409SOL     OW 7242   1.937   2.207   1.895
 2409SOL    HW1 7243   1.845   2.179   1.866
 2409SOL    HW2 7244   1.968   2.284   1.839
 2410SOL     OW 7245   3.302   2.718   3.260
 2410SOL    HW1 7246   3.245   2.770   3.197
 2410SOL    HW2 7247   3.398   2.730   3.236
 2411SOL     OW 7248   1.934   2.028   2.180
 2411SOL    HW1 7249   1.917   2.111   2.126
 2411SOL    HW2 7250   2.024   1.991   2.158
 2412SOL     OW 7251   3.045   3.197   1.981
 2412SOL    HW1 7252   2.946   3.186   1.983
 2412SOL    HW2 7253   3.079   3.212   2.074
 2413SOL     OW 7254   2.475   2.704   3.293
 2413SOL    HW1 7255   2.531   2.785   3.276
 2413SOL    HW2 7256   2.534   2.624   3.296
 2414SOL     OW 7257   3.355   3.629   2.821
 2414SOL    HW1 7258   3.388   3.693   2.752
 2414SOL    HW2 7259   3.421   3.623   2.896
 2415SOL     OW 7260   2.578   2.427   3.570
 2415SOL    HW1 7261   2.597   2.492   3.644
 2415SOL    HW2 7262   2.638   2.347   3.579
 2416SOL     OW 7263   3.312   3.082   3.495
 2416SOL    HW1 7264   3.303   3.072   3.594
 2416SOL    HW2 7265   3.408   3.075   3.469
 2417SOL     OW 7266   2.252   3.603   3.422
 2417SOL    HW1 7267   2.161   3.644   3.420
 2417SOL    HW2 7268   2.245   3.509   3.454
 2418SOL     OW 7269   3.536   2.745   3.116
 2418SOL    HW1 7270   3.509   2.656   3.079
 2418SOL    HW2 7271   3.537   2.813   3.043
 2419SOL     OW 7272   3.087   2.187   2.311
 2419SOL    HW1 7273   3.152   2.113   2.300
 2419SOL    HW2 7274   3.107   2.237   2.395
 2420SOL     OW 7275   3.639   2.204   3.504
 2420SOL    HW1 7276   3.622   2.235   3.410
 2420SOL    HW2 7277   3.555   2.167   3.542
 2421SOL     OW 7278   3.592   2.796   3.379
 2421SOL    HW1 7279   3.630   2.887   3.394
 2421SOL    HW2 7280   3.584   2.779   3.280
 2422SOL     OW 7281   2.721   3.236   1.878
 2422SOL    HW1 7282   2.675   3.251   1.966
 2422SOL    HW2 7283   2.765   3.321   1.848
 2423SOL     OW 7284   2.523   3.652   2.815
 2423SOL    HW1 7285   2.477   3.740   2.802
 2423SOL    HW2 7286   2.622   3.664   2.808
 2424SOL     OW 7287   2.721   2.818   2.723
 2424SOL    HW1 7288   2.775   2.749   2.771
 2424SOL    HW2 7289   2.689   2.887   2.789
 2425SOL     OW 7290   2.945   2.846   1.949
 2425SOL    HW1 7291   2.922   2.899   1.867
 2425SOL    HW2 7292   3.026   2.790   1.930
 2426SOL     OW 7293   3.723   3.431   2.713
 2426SOL    HW1 7294   3.652   3.419   2.643
 2426SOL    HW2 7295   3.724   3.352   2.773
 2427SOL     OW 7296   2.083   3.176   3.706
 2427SOL    HW1 7297   2.018   3.103   3.685
 2427SOL    HW2 7298   2.087   3.190   3.804
 2428SOL     OW 7299   1.941   3.102   2.515
 2428SOL    HW1 7300   1.940   3.055   2.603
 2428SOL    HW2 7301   2.023   3.074   2.464
 2429SOL     OW 7302   2.534   3.253   3.486
 2429SOL    HW1 7303   2.456   3.203   3.524
 2429SOL    HW2 7304   2.531   3.348   3.517
 2430SOL     OW 7305   3.686   2.054   3.089
 2430SOL    HW1 7306   3.682   1.964   3.133
 2430SOL    HW2 7307   3.689   2.043   2.990
 2431SOL     OW 7308   3.567   3.349   2.966
 2431SOL    HW1 7309   3.474   3.324   2.939
 2431SOL    HW2 7310   3.593   3.299   3.048
 2432SOL     OW 7311   2.179   2.409   3.142
 2432SOL    HW1 7312   2.217   2.350   3.214
 2432SOL    HW2 7313   2.219   2.383   3.054
 2433SOL     OW 7314   2.674   3.448   2.549
 2433SOL    HW1 7315   2.706   3.458   2.455
 2433SOL    HW2 7316   2.595   3.386   2.551
 2434SOL     OW 7317   3.286   2.076   2.974
 2434SOL    HW1 7318   3.338   2.011   3.029
 2434SOL    HW2 7319   3.237   2.139   3.035
 2435SOL     OW 7320   2.863   1.896   3.016
 2435SOL    HW1 7321   2.800   1.824   2.985
 2435SOL    HW2 7322   2.956   1.860   3.016
 2436SOL     OW 7323   2.632   3.192   2.163
 2436SOL    HW1 7324   2.586   3.105   2.180
 2436SOL    HW2 7325   2.723   3.189   2.204
 2437SOL     OW 7326   2.480   3.429   3.146
 2437SOL    HW1 7327   2.475   3.511   3.203
 2437SOL    HW2 7328   2.569   3.426   3.101
 2438SOL     OW 7329   3.214   1.914   2.030
 2438SOL    HW1 7330   3.249   1.873   1.946
 2438SOL    HW2 7331   3.124   1.876   2.050
 2439SOL     OW 7332   3.162   2.315   2.553
 2439SOL    HW1 7333   3.103   2.395   2.557
 2439SOL    HW2 7334   3.177   2.280   2.646
 2440SOL     OW 7335   3.455   2.083   2.744
 2440SOL    HW1 7336   3.371   2.082   2.798
 2440SOL    HW2 7337   3.457   2.166   2.688
 2441SOL     OW 7338   1.901   2.939   2.162
 2441SOL    HW1 7339   2.000   2.928   2.153
 2441SOL    HW2 7340   1.861   2.853   2.194
 2442SOL     OW 7341   2.737   3.508   2.199
 2442SOL    HW1 7342   2.660   3.473   2.145
 2442SOL    HW2 7343   2.705   3.579   2.261
 2443SOL     OW 7344   2.092   2.490   3.837
 2443SOL    HW1 7345   1.999   2.488   3.874
 2443SOL    HW2 7346   2.093   2.451   3.745
 2444SOL     OW 7347   2.087   2.137   4.720
 2444SOL    HW1 7348   2.122   2.120   4.812
 2444SOL    HW2 7349   1.999   2.092   4.708
 2445SOL     OW 7350   1.881   2.230   4.371
 2445SOL    HW1 7351   1.799   2.273   4.410
 2445SOL    HW2 7352   1.853   2.157   4.308
 2446SOL     OW 7353   3.417   3.373   4.427
 2446SOL    HW1 7354   3.360   3.357   4.508
 2446SOL    HW2 7355   3.358   3.383   4.347
 2447SOL     OW 7356   2.997   2.565   4.441
 2447SOL    HW1 7357   3.054   2.643   4.416
 2447SOL    HW2 7358   2.937   2.591   4.517
 2448SOL     OW 7359   3.617   2.469   3.955
 2448SOL    HW1 7360   3.605   2.456   3.856
 2448SOL    HW2 7361   3.587   2.388   4.004
 2449SOL     OW 7362   2.630   3.006   4.747
 2449SOL    HW1 7363   2.552   3.023   4.807
 2449SOL    HW2 7364   2.664   3.093   4.711
 2450SOL     OW 7365   2.547   2.874   4.389
 2450SOL    HW1 7366   2.616   2.858   4.459
 2450SOL    HW2 7367   2.474   2.931   4.427
 2451SOL     OW 7368   2.197   3.297   4.785
 2451SOL    HW1 7369   2.119   3.266   4.732
 2451SOL    HW2 7370   2.255   3.355   4.728
 2452SOL     OW 7371   3.465   2.309   4.461
 2452SOL    HW1 7372   3.391   2.355   4.411
 2452SOL    HW2 7373   3.516   2.377   4.514
 2453SOL     OW 7374   2.093   3.575   4.207
 2453SOL    HW1 7375   2.127   3.652   4.261
 2453SOL    HW2 7376   2.137   3.575   4.117
 2454SOL     OW 7377   2.092   3.296   4.262
 2454SOL    HW1 7378   2.066   3.392   4.262
 2454SOL    HW2 7379   2.021   3.242   4.307
 2455SOL     OW 7380   2.102   2.953   4.610
 2455SOL    HW1 7381   2.116   2.869   4.662
 2455SOL    HW2 7382   2.047   3.017   4.665
 2456SOL     OW 7383   2.468   2.826   3.847
 2456SOL    HW1 7384   2.475   2.910   3.793
 2456SOL    HW2 7385   2.514   2.839   3.935
 2457SOL     OW 7386   1.984   2.505   4.287
 2457SOL    HW1 7387   1.939   2.417   4.304
 2457SOL    HW2 7388   1.983   2.559   4.371
 2458SOL     OW 7389   3.704   3.629   4.083
 2458SOL    HW1 7390   3.758   3.600   4.163
 2458SOL    HW2 7391   3.734   3.719   4.054
 2459SOL     OW 7392   1.889   3.458   3.841
 2459SOL    HW1 7393   1.870   3.362   3.862
 2459SOL    HW2 7394   1.856   3.516   3.916
 2460SOL     OW 7395   3.551   2.784   4.336
 2460SOL    HW1 7396   3.646   2.755   4.344
 2460SOL    HW2 7397   3.543   2.849   4.261
 2461SOL     OW 7398   3.503   2.970   4.156
 2461SOL    HW1 7399   3.589   2.972   4.104
 2461SOL    HW2 7400   3.517   3.017   4.244
 2462SOL     OW 7401   2.475   3.227   4.450
 2462SOL    HW1 7402   2.426   3.140   4.459
 2462SOL    HW2 7403   2.452   3.270   4.363
 2463SOL     OW 7404   2.671   1.866   4.226
 2463SOL    HW1 7405   2.711   1.957   4.217
 2463SOL    HW2 7406   2.571   1.874   4.232
 2464SOL     OW 7407   2.059   2.838   4.988
 2464SOL    HW1 7408   2.148   2.793   4.974
 2464SOL    HW2 7409   1.986   2.773   4.969
 2465SOL     OW 7410   3.387   2.861   3.914
 2465SOL    HW1 7411   3.324   2.785   3.927
 2465SOL    HW2 7412   3.435   2.879   4.000
 2466SOL     OW 7413   3.328   3.279   4.677
 2466SOL    HW1 7414   3.269   3.285   4.757
 2466SOL    HW2 7415   3.313   3.191   4.631
 2467SOL     OW 7416   3.529   3.576   4.296
 2467SOL    HW1 7417   3.488   3.553   4.208
 2467SOL    HW2 7418   3.511   3.502   4.361
 2468SOL     OW 7419   2.460   2.591   3.994
 2468SOL    HW1 7420   2.484   2.660   3.926
 2468SOL    HW2 7421   2.382   2.624   4.048
 2469SOL     OW 7422   3.143   2.207   4.668
 2469SOL    HW1 7423   3.057   2.157   4.655
 2469SOL    HW2 7424   3.205   2.153   4.724
 2470SOL     OW 7425   3.438   3.524   4.031
 2470SOL    HW1 7426   3.527   3.570   4.034
 2470SOL    HW2 7427   3.417   3.500   3.936
 2471SOL     OW 7428   2.903   2.563   4.153
 2471SOL    HW1 7429   2.929   2.559   4.249
 2471SOL    HW2 7430   2.818   2.512   4.139
 2472SOL     OW 7431   1.938   2.673   4.513
 2472SOL    HW1 7432   2.037   2.661   4.522
 2472SOL    HW2 7433   1.914   2.768   4.534
 2473SOL     OW 7434   2.727   2.210   3.919
 2473SOL    HW1 7435   2.786   2.273   3.870
 2473SOL    HW2 7436   2.746   2.116   3.890
 2474SOL     OW 7437   3.224   3.006   4.269
 2474SOL    HW1 7438   3.307   2.977   4.221
 2474SOL    HW2 7439   3.175   3.073   4.213
 2475SOL     OW 7440   2.412   2.058   4.609
 2475SOL    HW1 7441   2.407   2.053   4.709
 2475SOL    HW2 7442   2.414   2.154   4.580
 2476SOL     OW 7443   2.870   3.318   4.201
 2476SOL    HW1 7444   2.824   3.390   4.149
 2476SOL    HW2 7445   2.866   3.338   4.299
 2477SOL     OW 7446   2.213   3.663   4.577
 2477SOL    HW1 7447   2.263   3.577   4.583
 2477SOL    HW2 7448   2.278   3.740   4.574
 2478SOL     OW 7449   3.657   2.928   4.597
 2478SOL    HW1 7450   3.595   2.913   4.521
 2478SOL    HW2 7451   3.605   2.939   4.682
 2479SOL     OW 7452   2.183   2.805   3.966
 2479SOL    HW1 7453   2.265   2.844   3.924
 2479SOL    HW2 7454   2.156   2.723   3.917
 2480SOL     OW 7455   3.320   2.597   4.452
 2480SOL    HW1 7456   3.315   2.532   4.527
 2480SOL    HW2 7457   3.400   2.656   4.465
 2481SOL     OW 7458   2.973   3.638   3.961
 2481SOL    HW1 7459   2.913   3.576   4.011
 2481SOL    HW2 7460   3.004   3.594   3.876
 2482SOL     OW 7461   3.494   3.239   3.805
 2482SOL    HW1 7462   3.462   3.333   3.795
 2482SOL    HW2 7463   3.418   3.176   3.793
 2483SOL     OW 7464   2.326   3.605   4.047
 2483SOL    HW1 7465   2.359   3.644   4.133
 2483SOL    HW2 7466   2.402   3.598   3.982
 2484SOL     OW 7467   3.262   1.969   4.150
 2484SOL    HW1 7468   3.238   1.932   4.060
 2484SOL    HW2 7469   3.361   1.985   4.154
 2485SOL     OW 7470   2.111   3.647   4.965
 2485SOL    HW1 7471   2.168   3.582   5.015
 2485SOL    HW2 7472   2.095   3.614   4.872
 2486SOL     OW 7473   2.802   3.560   4.628
 2486SOL    HW1 7474   2.882   3.503   4.649
 2486SOL    HW2 7475   2.753   3.520   4.551
 2487SOL     OW 7476   2.244   2.562   4.204
 2487SOL    HW1 7477   2.289   2.472   4.201
 2487SOL    HW2 7478   2.150   2.551   4.237
 2488SOL     OW 7479   2.476   1.984   3.841
 2488SOL    HW1 7480   2.574   1.962   3.848
 2488SOL    HW2 7481   2.445   1.967   3.748
 2489SOL     OW 7482   2.665   3.264   4.648
 2489SOL    HW1 7483   2.755   3.278   4.606
 2489SOL    HW2 7484   2.594   3.266   4.577
 2490SOL     OW 7485   2.784   2.365   4.623
 2490SOL    HW1 7486   2.759   2.356   4.527
 2490SOL    HW2 7487   2.832   2.283   4.654
 2491SOL     OW 7488   2.401   1.926   4.236
 2491SOL    HW1 7489   2.320   1.927   4.294
 2491SOL    HW2 7490   2.404   2.009   4.181
 2492SOL     OW 7491   3.296   3.050   3.765
 2492SOL    HW1 7492   3.328   2.974   3.822
 2492SOL    HW2 7493   3.204   3.077   3.795
 2493SOL     OW 7494   2.159   1.897   3.895
 2493SOL    HW1 7495   2.208   1.981   3.874
 2493SOL    HW2 7496   2.221   1.832   3.940
 2494SOL     OW 7497   2.797   2.098   4.204
 2494SOL    HW1 7498   2.749   2.139   4.126
 2494SOL    HW2 7499   2.896   2.096   4.185
 2495SOL     OW 7500   3.089   3.432   4.517
 2495SOL    HW1 7501   3.110   3.506   4.452
 2495SOL    HW2 7502   3.157   3.432   4.590
 2496SOL     OW 7503   2.321   3.014   4.465
 2496SOL    HW1 7504   2.250   2.987   4.530
 2496SOL    HW2 7505   2.295   2.986   4.372
 2497SOL     OW 7506   3.133   3.659   4.315
 2497SOL    HW1 7507   3.177   3.723   4.251
 2497SOL    HW2 7508   3.083   3.711   4.385
 2498SOL     OW 7509   2.894   2.411   3.740
 2498SOL    HW1 7510   2.853   2.493   3.701
 2498SOL    HW2 7511   2.958   2.437   3.813
 2499SOL     OW 7512   2.728   2.316   4.366
 2499SOL    HW1 7513   2.696   2.388   4.304
 2499SOL    HW2 7514   2.752   2.235   4.313
 2500SOL     OW 7515   2.879   1.901   4.477
 2500SOL    HW1 7516   2.807   1.906   4.408
 2500SOL    HW2 7517   2.855   1.832   4.546
 2501SOL     OW 7518   3.291   3.035   4.591
 2501SOL    HW1 7519   3.236   2.951   4.584
 2501SOL    HW2 7520   3.317   3.064   4.499
 2502SOL     OW 7521   3.328   2.452   4.716
 2502SOL    HW1 7522   3.298   2.357   4.723
 2502SOL    HW2 7523   3.401   2.468   4.782
 2503SOL     OW 7524   3.719   2.695   4.101
 2503SOL    HW1 7525   3.761   2.631   4.165
 2503SOL    HW2 7526   3.681   2.644   4.023
 2504SOL     OW 7527   2.350   3.247   3.898
 2504SOL    HW1 7528   2.263   3.232   3.945
 2504SOL    HW2 7529   2.333   3.273   3.803
 2505SOL     OW 7530   3.526   3.142   4.381
 2505SOL    HW1 7531   3.625   3.150   4.395
 2505SOL    HW2 7532   3.481   3.226   4.412
 2506SOL     OW 7533   3.252   2.437   3.802
 2506SOL    HW1 7534   3.198   2.416   3.883
 2506SOL    HW2 7535   3.343   2.396   3.811
 2507SOL     OW 7536   2.389   2.118   4.052
 2507SOL    HW1 7537   2.416   2.059   3.977
 2507SOL    HW2 7538   2.389   2.213   4.021
 2508SOL     OW 7539   2.973   3.057   4.824
 2508SOL    HW1 7540   2.933   3.101   4.905
 2508SOL    HW2 7541   2.932   3.094   4.741
 2509SOL     OW 7542   3.500   2.961   4.803
 2509SOL    HW1 7543   3.505   3.042   4.862
 2509SOL    HW2 7544   3.414   2.963   4.752
 2510SOL     OW 7545   2.567   2.912   4.092
 2510SOL    HW1 7546   2.553   2.919   4.191
 2510SOL    HW2 7547   2.651   2.861   4.074
 2511SOL     OW 7548   2.272   2.675   4.975
 2511SOL    HW1 7549   2.358   2.687   5.025
 2511SOL    HW2 7550   2.230   2.588   5.002
 2512SOL     OW 7551   2.229   2.962   4.225
 2512SOL    HW1 7552   2.222   3.045   4.169
 2512SOL    HW2 7553   2.233   2.882   4.165
 2513SOL     OW 7554   2.428   2.399   4.589
 2513SOL    HW1 7555   2.440   2.465   4.515
 2513SOL    HW2 7556   2.474   2.433   4.672
 2514SOL     OW 7557   3.114   3.210   4.112
 2514SOL    HW1 7558   3.164   3.287   4.152
 2514SOL    HW2 7559   3.019   3.212   4.144
 2515SOL     OW 7560   3.444   2.501   4.196
 2515SOL    HW1 7561   3.413   2.562   4.269
 2515SOL    HW2 7562   3.494   2.553   4.127
 2516SOL     OW 7563   2.216   3.372   5.053
 2516SOL    HW1 7564   2.195   3.328   4.966
 2516SOL    HW2 7565   2.313   3.398   5.056
 2517SOL     OW 7566   2.435   2.732   4.753
 2517SOL    HW1 7567   2.479   2.821   4.744
 2517SOL    HW2 7568   2.372   2.732   4.830
 2518SOL     OW 7569   3.071   2.387   3.999
 2518SOL    HW1 7570   3.084   2.303   4.053
 2518SOL    HW2 7571   3.042   2.461   4.059
 2519SOL     OW 7572   2.169   2.075   4.955
 2519SOL    HW1 7573   2.146   2.112   5.045
 2519SOL    HW2 7574   2.139   1.980   4.949
 2520SOL     OW 7575   2.594   2.496   4.788
 2520SOL    HW1 7576   2.653   2.470   4.712
 2520SOL    HW2 7577   2.566   2.592   4.777
 2521SOL     OW 7578   2.169   1.925   4.342
 2521SOL    HW1 7579   2.158   2.019   4.375
 2521SOL    HW2 7580   2.164   1.862   4.419
 2522SOL     OW 7581   3.484   2.229   4.098
 2522SOL    HW1 7582   3.486   2.153   4.162
 2522SOL    HW2 7583   3.436   2.306   4.138
 2523SOL     OW 7584   2.885   2.628   4.690
 2523SOL    HW1 7585   2.900   2.649   4.786
 2523SOL    HW2 7586   2.855   2.533   4.681
 2524SOL     OW 7587   3.402   2.136   3.849
 2524SOL    HW1 7588   3.341   2.061   3.872
 2524SOL    HW2 7589   3.424   2.188   3.932
 2525SOL     OW 7590   3.165   2.700   3.766
 2525SOL    HW1 7591   3.199   2.607   3.781
 2525SOL    HW2 7592   3.183   2.727   3.671
 2526SOL     OW 7593   2.930   3.195   4.573
 2526SOL    HW1 7594   2.937   3.111   4.518
 2526SOL    HW2 7595   2.992   3.264   4.537
 2527SOL     OW 7596   2.181   2.672   4.673
 2527SOL    HW1 7597   2.274   2.708   4.678
 2527SOL    HW2 7598   2.175   2.587   4.725
 2528SOL     OW 7599   2.201   2.371   4.730
 2528SOL    HW1 7600   2.149   2.288   4.713
 2528SOL    HW2 7601   2.278   2.376   4.666
 2529SOL     OW 7602   1.870   3.188   3.924
 2529SOL    HW1 7603   1.777   3.209   3.893
 2529SOL    HW2 7604   1.880   3.089   3.937
 2530SOL     OW 7605   1.950   3.663   4.651
 2530SOL    HW1 7606   1.908   3.577   4.624
 2530SOL    HW2 7607   2.044   3.666   4.617
 2531SOL     OW 7608   2.366   3.430   4.634
 2531SOL    HW1 7609   2.432   3.504   4.643
 2531SOL    HW2 7610   2.410   3.351   4.592
 2532SOL     OW 7611   2.864   2.658   4.962
 2532SOL    HW1 7612   2.905   2.626   5.048
 2532SOL    HW2 7613   2.768   2.631   4.959
 2533SOL     OW 7614   1.902   2.406   4.838
 2533SOL    HW1 7615   1.987   2.373   4.797
 2533SOL    HW2 7616   1.915   2.421   4.936
 2534SOL     OW 7617   2.677   2.434   4.049
 2534SOL    HW1 7618   2.684   2.345   4.003
 2534SOL    HW2 7619   2.583   2.468   4.041
 2535SOL     OW 7620   2.533   2.326   4.993
 2535SOL    HW1 7621   2.499   2.237   4.963
 2535SOL    HW2 7622   2.559   2.380   4.913
 2536SOL     OW 7623   2.335   2.362   3.915
 2536SOL    HW1 7624   2.396   2.442   3.919
 2536SOL    HW2 7625   2.240   2.393   3.922
 2537SOL     OW 7626   3.164   2.717   4.033
 2537SOL    HW1 7627   3.078   2.686   4.075
 2537SOL    HW2 7628   3.160   2.703   3.934
 2538SOL     OW 7629   3.621   3.609   4.878
 2538SOL    HW1 7630   3.682   3.639   4.805
 2538SOL    HW2 7631   3.583   3.520   4.856
 2539SOL     OW 7632   1.945   3.120   4.746
 2539SOL    HW1 7633   1.940   3.119   4.846
 2539SOL    HW2 7634   1.862   3.079   4.708
 2540SOL     OW 7635   3.588   1.997   4.247
 2540SOL    HW1 7636   3.661   1.980   4.180
 2540SOL    HW2 7637   3.557   1.910   4.285
 2541SOL     OW 7638   3.250   3.435   4.201
 2541SOL    HW1 7639   3.317   3.447   4.127
 2541SOL    HW2 7640   3.210   3.524   4.224
 2542SOL     OW 7641   3.142   2.789   4.396
 2542SOL    HW1 7642   3.202   2.708   4.398
 2542SOL    HW2 7643   3.182   2.858   4.336
 2543SOL     OW 7644   2.534   3.478   3.878
 2543SOL    HW1 7645   2.543   3.488   3.779
 2543SOL    HW2 7646   2.494   3.389   3.899
 2544SOL     OW 7647   3.703   2.037   4.687
 2544SOL    HW1 7648   3.742   1.952   4.651
 2544SOL    HW2 7649   3.605   2.039   4.668
 2545SOL     OW 7650   2.125   2.188   4.444
 2545SOL    HW1 7651   2.046   2.239   4.410
 2545SOL    HW2 7652   2.116   2.173   4.542
 2546SOL     OW 7653   3.056   3.474   3.755
 2546SOL    HW1 7654   3.062   3.381   3.792
 2546SOL    HW2 7655   2.997   3.474   3.675
 2547SOL     OW 7656   2.778   2.772   4.015
 2547SOL    HW1 7657   2.841   2.810   3.947
 2547SOL    HW2 7658   2.818   2.689   4.054
 2548SOL     OW 7659   3.366   3.469   3.768
 2548SOL    HW1 7660   3.274   3.506   3.775
 2548SOL    HW2 7661   3.404   3.489   3.678
 2549SOL     OW 7662   2.901   2.960   4.420
 2549SOL    HW1 7663   2.831   2.913   4.474
 2549SOL    HW2 7664   2.960   2.892   4.377
 2550SOL     OW 7665   2.876   2.098   4.695
 2550SOL    HW1 7666   2.868   2.062   4.602
 2550SOL    HW2 7667   2.874   2.022   4.760
 2551SOL     OW 7668   2.452   3.349   4.215
 2551SOL    HW1 7669   2.494   3.291   4.145
 2551SOL    HW2 7670   2.408   3.428   4.171
 2552SOL     OW 7671   2.117   3.210   4.014
 2552SOL    HW1 7672   2.021   3.211   3.987
 2552SOL    HW2 7673   2.129   3.263   4.098
 2553SOL     OW 7674   1.937   2.207   3.757
 2553SOL    HW1 7675   1.845   2.179   3.728
 2553SOL    HW2 7676   1.968   2.284   3.701
 2554SOL     OW 7677   1.934   2.028   4.042
 2554SOL    HW1 7678   1.917   2.111   3.988
 2554SOL    HW2 7679   2.024   1.991   4.020
 2555SOL     OW 7680   3.045   3.197   3.843
 2555SOL    HW1 7681   2.946   3.186   3.845
 2555SOL    HW2 7682   3.079   3.212   3.936
 2556SOL     OW 7683   3.355   3.629   4.683
 2556SOL    HW1 7684   3.388   3.693   4.614
 2556SOL    HW2 7685   3.421   3.623   4.758
 2557SOL     OW 7686   3.536   2.745   4.978
 2557SOL    HW1 7687   3.509   2.656   4.941
 2557SOL    HW2 7688   3.537   2.813   4.905
 2558SOL     OW 7689   3.087   2.187   4.173
 2558SOL    HW1 7690   3.152   2.113   4.162
 2558SOL    HW2 7691   3.107   2.237   4.257
 2559SOL     OW 7692   2.456   2.607   4.376
 2559SOL    HW1 7693   2.506   2.692   4.357
 2559SOL    HW2 7694   2.368   2.609   4.328
 2560SOL     OW 7695   2.721   3.236   3.740
 2560SOL    HW1 7696   2.675   3.251   3.828
 2560SOL    HW2 7697   2.765   3.321   3.710
 2561SOL     OW 7698   2.523   3.652   4.677
 2561SOL    HW1 7699   2.477   3.740   4.664
 2561SOL    HW2 7700   2.622   3.664   4.670
 2562SOL     OW 7701   2.721   2.818   4.585
 2562SOL    HW1 7702   2.775   2.749   4.633
 2562SOL    HW2 7703   2.689   2.887   4.651
 2563SOL     OW 7704   2.945   2.846   3.811
 2563SOL    HW1 7705   2.922   2.899   3.729
 2563SOL    HW2 7706   3.026   2.790   3.792
 2564SOL     OW 7707   3.723   3.431   4.575
 2564SOL    HW1 7708   3.652   3.419   4.505
 2564SOL    HW2 7709   3.724   3.352   4.635
 2565SOL     OW 7710   1.941   3.102   4.377
 2565SOL    HW1 7711   1.940   3.055   4.465
 2565SOL    HW2 7712   2.023   3.074   4.326
 2566SOL     OW 7713   3.686   2.054   4.951
 2566SOL    HW1 7714   3.682   1.964   4.995
 2566SOL    HW2 7715   3.689   2.043   4.852
 2567SOL     OW 7716   2.290   2.286   4.244
 2567SOL    HW1 7717   2.320   2.214   4.182
 2567SOL    HW2 7718   2.251   2.246   4.327
 2568SOL     OW 7719   2.674   3.448   4.411
 2568SOL    HW1 7720   2.706   3.458   4.317
 2568SOL    HW2 7721   2.595   3.386   4.413
 2569SOL     OW 7722   3.286   2.076   4.836
 2569SOL    HW1 7723   3.338   2.011   4.891
 2569SOL    HW2 7724   3.237   2.139   4.897
 2570SOL     OW 7725   2.632   3.192   4.025
 2570SOL    HW1 7726   2.586   3.105   4.042
 2570SOL    HW2 7727   2.723   3.189   4.066
 2571SOL     OW 7728   3.214   1.914   3.892
 2571SOL    HW1 7729   3.249   1.873   3.808
 2571SOL    HW2 7730   3.124   1.876   3.912
 2572SOL     OW 7731   3.162   2.315   4.415
 2572SOL    HW1 7732   3.103   2.395   4.419
 2572SOL    HW2 7733   3.177   2.280   4.508
 2573SOL     OW 7734   3.455   2.083   4.606
 2573SOL    HW1 7735   3.371   2.082   4.660
 2573SOL    HW2 7736   3.457   2.166   4.550
 2574SOL     OW 7737   1.901   2.939   4.024
 2574SOL    HW1 7738   2.000   2.928   4.015
 2574SOL    HW2 7739   1.861   2.853   4.056
 2575SOL     OW 7740   2.737   3.508   4.061
 2575SOL    HW1 7741   2.660   3.473   4.007
 2575SOL    HW2 7742   2.705   3.579   4.123
 2576SOL     OW 7743   2.092   4.352   0.113
 2576SOL    HW1 7744   1.999   4.350   0.150
 2576SOL    HW2 7745   2.093   4.313   0.021
 2577SOL     OW 7746   2.087   3.999   0.996
 2577SOL    HW1 7747   2.122   3.982   1.088
 2577SOL    HW2 7748   1.999   3.954   0.984
 2578SOL     OW 7749   1.881   4.092   0.647
 2578SOL    HW1 7750   1.799   4.135   0.686
 2578SOL    HW2 7751   1.853   4.019   0.584
 2579SOL     OW 7752   2.997   4.427   0.717
 2579SOL    HW1 7753   3.054   4.505   0.692
 2579SOL    HW2 7754   2.937   4.453   0.793
 2580SOL     OW 7755   3.617   4.331   0.231
 2580SOL    HW1 7756   3.605   4.318   0.132
 2580SOL    HW2 7757   3.587   4.250   0.280
 2581SOL     OW 7758   2.630   4.868   1.023
 2581SOL    HW1 7759   2.552   4.885   1.083
 2581SOL    HW2 7760   2.664   4.955   0.987
 2582SOL     OW 7761   2.712   4.522   1.823
 2582SOL    HW1 7762   2.708   4.598   1.888
 2582SOL    HW2 7763   2.734   4.558   1.732
 2583SOL     OW 7764   2.547   4.736   0.665
 2583SOL    HW1 7765   2.616   4.720   0.735
 2583SOL    HW2 7766   2.474   4.793   0.703
 2584SOL     OW 7767   2.300   4.116   1.499
 2584SOL    HW1 7768   2.382   4.060   1.508
 2584SOL    HW2 7769   2.219   4.058   1.503
 2585SOL     OW 7770   3.465   4.171   0.737
 2585SOL    HW1 7771   3.391   4.217   0.687
 2585SOL    HW2 7772   3.516   4.239   0.790
 2586SOL     OW 7773   2.092   5.158   0.538
 2586SOL    HW1 7774   2.066   5.254   0.538
 2586SOL    HW2 7775   2.021   5.104   0.583
 2587SOL     OW 7776   2.102   4.815   0.886
 2587SOL    HW1 7777   2.116   4.731   0.938
 2587SOL    HW2 7778   2.047   4.879   0.941
 2588SOL     OW 7779   2.468   4.688   0.123
 2588SOL    HW1 7780   2.475   4.772   0.069
 2588SOL    HW2 7781   2.514   4.701   0.211
 2589SOL     OW 7782   3.456   3.838   1.480
 2589SOL    HW1 7783   3.438   3.905   1.408
 2589SOL    HW2 7784   3.453   3.884   1.569
 2590SOL     OW 7785   1.984   4.367   0.563
 2590SOL    HW1 7786   1.939   4.279   0.580
 2590SOL    HW2 7787   1.983   4.421   0.647
 2591SOL     OW 7788   3.551   4.646   0.612
 2591SOL    HW1 7789   3.646   4.617   0.620
 2591SOL    HW2 7790   3.543   4.711   0.537
 2592SOL     OW 7791   1.975   4.461   1.597
 2592SOL    HW1 7792   2.063   4.448   1.642
 2592SOL    HW2 7793   1.962   4.558   1.575
 2593SOL     OW 7794   3.155   4.952   1.423
 2593SOL    HW1 7795   3.192   4.879   1.365
 2593SOL    HW2 7796   3.207   4.957   1.508
 2594SOL     OW 7797   2.671   3.728   0.502
 2594SOL    HW1 7798   2.711   3.819   0.493
 2594SOL    HW2 7799   2.571   3.736   0.508
 2595SOL     OW 7800   2.059   4.700   1.264
 2595SOL    HW1 7801   2.148   4.655   1.250
 2595SOL    HW2 7802   1.986   4.635   1.245
 2596SOL     OW 7803   3.387   4.723   0.190
 2596SOL    HW1 7804   3.324   4.647   0.203
 2596SOL    HW2 7805   3.435   4.741   0.276
 2597SOL     OW 7806   2.179   3.975   1.801
 2597SOL    HW1 7807   2.250   4.046   1.807
 2597SOL    HW2 7808   2.091   4.014   1.829
 2598SOL     OW 7809   2.460   4.453   0.270
 2598SOL    HW1 7810   2.484   4.522   0.202
 2598SOL    HW2 7811   2.382   4.486   0.324
 2599SOL     OW 7812   3.143   4.069   0.944
 2599SOL    HW1 7813   3.057   4.019   0.931
 2599SOL    HW2 7814   3.205   4.015   1.000
 2600SOL     OW 7815   2.669   4.329   1.465
 2600SOL    HW1 7816   2.622   4.326   1.554
 2600SOL    HW2 7817   2.618   4.274   1.399
 2601SOL     OW 7818   3.256   4.193   1.674
 2601SOL    HW1 7819   3.236   4.236   1.762
 2601SOL    HW2 7820   3.334   4.131   1.683
 2602SOL     OW 7821   2.835   4.614   1.572
 2602SOL    HW1 7822   2.881   4.530   1.543
 2602SOL    HW2 7823   2.779   4.648   1.497
 2603SOL     OW 7824   2.853   4.134   1.242
 2603SOL    HW1 7825   2.776   4.168   1.296
 2603SOL    HW2 7826   2.819   4.083   1.163
 2604SOL     OW 7827   2.903   4.425   0.429
 2604SOL    HW1 7828   2.929   4.421   0.525
 2604SOL    HW2 7829   2.818   4.374   0.415
 2605SOL     OW 7830   1.938   4.535   0.789
 2605SOL    HW1 7831   2.037   4.523   0.798
 2605SOL    HW2 7832   1.914   4.630   0.810
 2606SOL     OW 7833   2.727   4.072   0.195
 2606SOL    HW1 7834   2.786   4.135   0.146
 2606SOL    HW2 7835   2.746   3.978   0.166
 2607SOL     OW 7836   3.581   4.309   1.831
 2607SOL    HW1 7837   3.555   4.398   1.795
 2607SOL    HW2 7838   3.579   4.241   1.758
 2608SOL     OW 7839   2.412   3.920   0.885
 2608SOL    HW1 7840   2.407   3.915   0.985
 2608SOL    HW2 7841   2.414   4.016   0.856
 2609SOL     OW 7842   3.657   4.790   0.873
 2609SOL    HW1 7843   3.595   4.775   0.797
 2609SOL    HW2 7844   3.605   4.801   0.958
 2610SOL     OW 7845   2.183   4.667   0.242
 2610SOL    HW1 7846   2.265   4.706   0.200
 2610SOL    HW2 7847   2.156   4.585   0.193
 2611SOL     OW 7848   3.320   4.459   0.728
 2611SOL    HW1 7849   3.315   4.394   0.803
 2611SOL    HW2 7850   3.400   4.518   0.741
 2612SOL     OW 7851   2.064   4.009   1.498
 2612SOL    HW1 7852   1.984   4.069   1.485
 2612SOL    HW2 7853   2.054   3.960   1.584
 2613SOL     OW 7854   3.262   3.831   0.426
 2613SOL    HW1 7855   3.238   3.794   0.336
 2613SOL    HW2 7856   3.361   3.847   0.430
 2614SOL     OW 7857   2.244   4.424   0.480
 2614SOL    HW1 7858   2.289   4.334   0.477
 2614SOL    HW2 7859   2.150   4.413   0.513
 2615SOL     OW 7860   3.409   3.946   1.729
 2615SOL    HW1 7861   3.404   3.983   1.821
 2615SOL    HW2 7862   3.337   3.877   1.717
 2616SOL     OW 7863   2.476   3.846   0.117
 2616SOL    HW1 7864   2.574   3.824   0.124
 2616SOL    HW2 7865   2.445   3.829   0.024
 2617SOL     OW 7866   2.643   3.988   1.749
 2617SOL    HW1 7867   2.710   3.927   1.792
 2617SOL    HW2 7868   2.570   4.007   1.814
 2618SOL     OW 7869   3.213   4.314   1.433
 2618SOL    HW1 7870   3.241   4.271   1.518
 2618SOL    HW2 7871   3.238   4.410   1.434
 2619SOL     OW 7872   2.784   4.227   0.899
 2619SOL    HW1 7873   2.759   4.218   0.803
 2619SOL    HW2 7874   2.832   4.145   0.930
 2620SOL     OW 7875   2.401   3.788   0.512
 2620SOL    HW1 7876   2.320   3.789   0.570
 2620SOL    HW2 7877   2.404   3.871   0.457
 2621SOL     OW 7878   2.797   3.960   0.480
 2621SOL    HW1 7879   2.749   4.001   0.402
 2621SOL    HW2 7880   2.896   3.958   0.461
 2622SOL     OW 7881   2.938   4.407   1.464
 2622SOL    HW1 7882   2.858   4.346   1.467
 2622SOL    HW2 7883   3.019   4.354   1.440
 2623SOL     OW 7884   2.321   4.876   0.741
 2623SOL    HW1 7885   2.250   4.849   0.806
 2623SOL    HW2 7886   2.295   4.848   0.648
 2624SOL     OW 7887   2.894   4.273   0.016
 2624SOL    HW1 7888   2.853   4.355  -0.023
 2624SOL    HW2 7889   2.958   4.299   0.089
 2625SOL     OW 7890   1.940   4.280   1.386
 2625SOL    HW1 7891   2.032   4.279   1.345
 2625SOL    HW2 7892   1.934   4.354   1.453
 2626SOL     OW 7893   2.423   3.946   1.147
 2626SOL    HW1 7894   2.461   3.862   1.184
 2626SOL    HW2 7895   2.335   3.965   1.191
 2627SOL     OW 7896   2.728   4.178   0.642
 2627SOL    HW1 7897   2.696   4.250   0.580
 2627SOL    HW2 7898   2.752   4.097   0.589
 2628SOL     OW 7899   2.879   3.763   0.753
 2628SOL    HW1 7900   2.807   3.768   0.684
 2628SOL    HW2 7901   2.855   3.694   0.822
 2629SOL     OW 7902   3.291   4.897   0.867
 2629SOL    HW1 7903   3.236   4.813   0.860
 2629SOL    HW2 7904   3.317   4.926   0.775
 2630SOL     OW 7905   3.328   4.314   0.992
 2630SOL    HW1 7906   3.298   4.219   0.999
 2630SOL    HW2 7907   3.401   4.330   1.058
 2631SOL     OW 7908   3.719   4.557   0.377
 2631SOL    HW1 7909   3.761   4.493   0.441
 2631SOL    HW2 7910   3.681   4.506   0.299
 2632SOL     OW 7911   3.252   4.299   0.078
 2632SOL    HW1 7912   3.198   4.278   0.159
 2632SOL    HW2 7913   3.343   4.258   0.087
 2633SOL     OW 7914   2.389   3.980   0.328
 2633SOL    HW1 7915   2.416   3.921   0.253
 2633SOL    HW2 7916   2.389   4.075   0.297
 2634SOL     OW 7917   3.616   4.947   1.588
 2634SOL    HW1 7918   3.707   4.908   1.575
 2634SOL    HW2 7919   3.624   5.043   1.612
 2635SOL     OW 7920   3.500   4.823   1.079
 2635SOL    HW1 7921   3.505   4.904   1.138
 2635SOL    HW2 7922   3.414   4.825   1.028
 2636SOL     OW 7923   2.777   3.813   1.402
 2636SOL    HW1 7924   2.802   3.793   1.307
 2636SOL    HW2 7925   2.849   3.869   1.444
 2637SOL     OW 7926   2.567   4.774   0.368
 2637SOL    HW1 7927   2.553   4.781   0.467
 2637SOL    HW2 7928   2.651   4.723   0.350
 2638SOL     OW 7929   2.272   4.537   1.251
 2638SOL    HW1 7930   2.358   4.549   1.301
 2638SOL    HW2 7931   2.230   4.450   1.278
 2639SOL     OW 7932   3.136   4.110   1.262
 2639SOL    HW1 7933   3.157   4.184   1.326
 2639SOL    HW2 7934   3.047   4.127   1.219
 2640SOL     OW 7935   2.229   4.824   0.501
 2640SOL    HW1 7936   2.222   4.907   0.445
 2640SOL    HW2 7937   2.233   4.744   0.441
 2641SOL     OW 7938   2.428   4.261   0.865
 2641SOL    HW1 7939   2.440   4.327   0.791
 2641SOL    HW2 7940   2.474   4.295   0.948
 2642SOL     OW 7941   3.444   4.363   0.472
 2642SOL    HW1 7942   3.413   4.424   0.545
 2642SOL    HW2 7943   3.494   4.415   0.403
 2643SOL     OW 7944   2.264   4.475   1.598
 2643SOL    HW1 7945   2.332   4.530   1.551
 2643SOL    HW2 7946   2.304   4.387   1.625
 2644SOL     OW 7947   3.449   4.503   1.670
 2644SOL    HW1 7948   3.357   4.541   1.665
 2644SOL    HW2 7949   3.509   4.550   1.605
 2645SOL     OW 7950   2.875   3.829   1.770
 2645SOL    HW1 7951   2.881   3.914   1.718
 2645SOL    HW2 7952   2.907   3.753   1.713
 2646SOL     OW 7953   2.366   3.774   1.740
 2646SOL    HW1 7954   2.324   3.717   1.670
 2646SOL    HW2 7955   2.300   3.843   1.772
 2647SOL     OW 7956   2.435   4.594   1.029
 2647SOL    HW1 7957   2.479   4.683   1.020
 2647SOL    HW2 7958   2.372   4.594   1.106
 2648SOL     OW 7959   3.222   4.586   1.045
 2648SOL    HW1 7960   3.147   4.586   0.979
 2648SOL    HW2 7961   3.259   4.494   1.054
 2649SOL     OW 7962   3.071   4.249   0.275
 2649SOL    HW1 7963   3.084   4.165   0.329
 2649SOL    HW2 7964   3.042   4.323   0.335
 2650SOL     OW 7965   2.169   3.937   1.231
 2650SOL    HW1 7966   2.146   3.974   1.321
 2650SOL    HW2 7967   2.139   3.842   1.225
 2651SOL     OW 7968   2.594   4.358   1.064
 2651SOL    HW1 7969   2.653   4.332   0.988
 2651SOL    HW2 7970   2.566   4.454   1.053
 2652SOL     OW 7971   3.590   4.659   1.854
 2652SOL    HW1 7972   3.544   4.652   1.765
 2652SOL    HW2 7973   3.528   4.703   1.920
 2653SOL     OW 7974   2.169   3.787   0.618
 2653SOL    HW1 7975   2.158   3.881   0.651
 2653SOL    HW2 7976   2.164   3.724   0.695
 2654SOL     OW 7977   3.484   4.091   0.374
 2654SOL    HW1 7978   3.486   4.015   0.438
 2654SOL    HW2 7979   3.436   4.168   0.414
 2655SOL     OW 7980   2.885   4.490   0.966
 2655SOL    HW1 7981   2.900   4.511   1.062
 2655SOL    HW2 7982   2.855   4.395   0.957
 2656SOL     OW 7983   2.212   4.622   1.804
 2656SOL    HW1 7984   2.288   4.666   1.852
 2656SOL    HW2 7985   2.247   4.575   1.722
 2657SOL     OW 7986   3.402   3.998   0.125
 2657SOL    HW1 7987   3.341   3.923   0.148
 2657SOL    HW2 7988   3.424   4.050   0.208
 2658SOL     OW 7989   3.165   4.562   0.042
 2658SOL    HW1 7990   3.199   4.469   0.057
 2658SOL    HW2 7991   3.183   4.589  -0.053
 2659SOL     OW 7992   2.181   4.534   0.949
 2659SOL    HW1 7993   2.274   4.570   0.954
 2659SOL    HW2 7994   2.175   4.449   1.001
 2660SOL     OW 7995   2.201   4.233   1.006
 2660SOL    HW1 7996   2.149   4.150   0.989
 2660SOL    HW2 7997   2.278   4.238   0.942
 2661SOL     OW 7998   3.000   4.104   1.678
 2661SOL    HW1 7999   2.955   4.167   1.742
 2661SOL    HW2 8000   3.093   4.135   1.661
 2662SOL     OW 8001   3.022   3.931   1.477
 2662SOL    HW1 8002   3.022   3.995   1.554
 2662SOL    HW2 8003   3.050   3.979   1.394
 2663SOL     OW 8004   2.864   4.520   1.238
 2663SOL    HW1 8005   2.905   4.488   1.324
 2663SOL    HW2 8006   2.768   4.493   1.235
 2664SOL     OW 8007   1.902   4.268   1.114
 2664SOL    HW1 8008   1.987   4.235   1.073
 2664SOL    HW2 8009   1.915   4.283   1.212
 2665SOL     OW 8010   2.051   4.244   1.722
 2665SOL    HW1 8011   2.110   4.204   1.652
 2665SOL    HW2 8012   1.993   4.315   1.681
 2666SOL     OW 8013   3.231   4.674   1.660
 2666SOL    HW1 8014   3.270   4.763   1.680
 2666SOL    HW2 8015   3.241   4.654   1.563
 2667SOL     OW 8016   2.677   4.296   0.325
 2667SOL    HW1 8017   2.684   4.207   0.279
 2667SOL    HW2 8018   2.583   4.330   0.317
 2668SOL     OW 8019   3.519   4.328   1.206
 2668SOL    HW1 8020   3.481   4.259   1.268
 2668SOL    HW2 8021   3.601   4.292   1.162
 2669SOL     OW 8022   2.533   4.188   1.269
 2669SOL    HW1 8023   2.499   4.099   1.239
 2669SOL    HW2 8024   2.559   4.242   1.189
 2670SOL     OW 8025   2.335   4.224   0.191
 2670SOL    HW1 8026   2.396   4.304   0.195
 2670SOL    HW2 8027   2.240   4.255   0.198
 2671SOL     OW 8028   2.021   4.861   1.466
 2671SOL    HW1 8029   2.043   4.800   1.542
 2671SOL    HW2 8030   2.031   4.812   1.380
 2672SOL     OW 8031   3.209   4.783   1.234
 2672SOL    HW1 8032   3.233   4.720   1.160
 2672SOL    HW2 8033   3.119   4.823   1.216
 2673SOL     OW 8034   3.164   4.579   0.309
 2673SOL    HW1 8035   3.078   4.548   0.351
 2673SOL    HW2 8036   3.160   4.565   0.210
 2674SOL     OW 8037   2.765   3.810   0.133
 2674SOL    HW1 8038   2.816   3.811   0.047
 2674SOL    HW2 8039   2.821   3.768   0.204
 2675SOL     OW 8040   3.588   3.859   0.523
 2675SOL    HW1 8041   3.661   3.842   0.456
 2675SOL    HW2 8042   3.557   3.772   0.561
 2676SOL     OW 8043   3.142   4.651   0.672
 2676SOL    HW1 8044   3.202   4.570   0.674
 2676SOL    HW2 8045   3.182   4.720   0.612
 2677SOL     OW 8046   3.703   3.899   0.963
 2677SOL    HW1 8047   3.742   3.814   0.927
 2677SOL    HW2 8048   3.605   3.901   0.944
 2678SOL     OW 8049   2.125   4.050   0.720
 2678SOL    HW1 8050   2.046   4.101   0.686
 2678SOL    HW2 8051   2.116   4.035   0.818
 2679SOL     OW 8052   2.684   4.726   1.372
 2679SOL    HW1 8053   2.724   4.725   1.280
 2679SOL    HW2 8054   2.694   4.818   1.412
 2680SOL     OW 8055   2.778   4.634   0.291
 2680SOL    HW1 8056   2.841   4.672   0.223
 2680SOL    HW2 8057   2.818   4.551   0.330
 2681SOL     OW 8058   2.234   5.012   1.490
 2681SOL    HW1 8059   2.221   5.105   1.456
 2681SOL    HW2 8060   2.150   4.960   1.477
 2682SOL     OW 8061   2.876   3.960   0.971
 2682SOL    HW1 8062   2.868   3.924   0.878
 2682SOL    HW2 8063   2.874   3.884   1.036
 2683SOL     OW 8064   3.571   4.109   1.381
 2683SOL    HW1 8065   3.644   4.178   1.385
 2683SOL    HW2 8066   3.599   4.034   1.322
 2684SOL     OW 8067   1.967   4.737   1.726
 2684SOL    HW1 8068   1.890   4.704   1.780
 2684SOL    HW2 8069   2.052   4.707   1.768
 2685SOL     OW 8070   2.534   3.927   1.489
 2685SOL    HW1 8071   2.624   3.911   1.449
 2685SOL    HW2 8072   2.542   3.932   1.588
 2686SOL     OW 8073   3.302   4.580   1.398
 2686SOL    HW1 8074   3.245   4.632   1.335
 2686SOL    HW2 8075   3.398   4.592   1.374
 2687SOL     OW 8076   1.934   3.890   0.318
 2687SOL    HW1 8077   1.917   3.973   0.264
 2687SOL    HW2 8078   2.024   3.853   0.296
 2688SOL     OW 8079   3.045   5.059   0.119
 2688SOL    HW1 8080   2.946   5.048   0.121
 2688SOL    HW2 8081   3.079   5.074   0.212
 2689SOL     OW 8082   2.475   4.566   1.431
 2689SOL    HW1 8083   2.531   4.647   1.414
 2689SOL    HW2 8084   2.534   4.486   1.434
 2690SOL     OW 8085   2.578   4.289   1.708
 2690SOL    HW1 8086   2.597   4.354   1.782
 2690SOL    HW2 8087   2.638   4.209   1.717
 2691SOL     OW 8088   3.536   4.607   1.254
 2691SOL    HW1 8089   3.509   4.518   1.217
 2691SOL    HW2 8090   3.537   4.675   1.181
 2692SOL     OW 8091   3.087   4.049   0.449
 2692SOL    HW1 8092   3.152   3.975   0.438
 2692SOL    HW2 8093   3.107   4.099   0.533
 2693SOL     OW 8094   2.456   4.469   0.652
 2693SOL    HW1 8095   2.506   4.554   0.633
 2693SOL    HW2 8096   2.368   4.471   0.604
 2694SOL     OW 8097   3.639   4.066   1.642
 2694SOL    HW1 8098   3.622   4.097   1.548
 2694SOL    HW2 8099   3.555   4.029   1.680
 2695SOL     OW 8100   3.592   4.658   1.517
 2695SOL    HW1 8101   3.630   4.749   1.532
 2695SOL    HW2 8102   3.584   4.641   1.418
 2696SOL     OW 8103   2.721   4.680   0.861
 2696SOL    HW1 8104   2.775   4.611   0.909
 2696SOL    HW2 8105   2.689   4.749   0.927
 2697SOL     OW 8106   2.945   4.708   0.087
 2697SOL    HW1 8107   2.922   4.761   0.005
 2697SOL    HW2 8108   3.026   4.652   0.068
 2698SOL     OW 8109   3.686   3.916   1.227
 2698SOL    HW1 8110   3.682   3.826   1.271
 2698SOL    HW2 8111   3.689   3.905   1.128
 2699SOL     OW 8112   2.290   4.148   0.520
 2699SOL    HW1 8113   2.320   4.076   0.458
 2699SOL    HW2 8114   2.251   4.108   0.603
 2700SOL     OW 8115   2.179   4.271   1.280
 2700SOL    HW1 8116   2.217   4.212   1.352
 2700SOL    HW2 8117   2.219   4.245   1.192
 2701SOL     OW 8118   3.286   3.938   1.112
 2701SOL    HW1 8119   3.338   3.873   1.167
 2701SOL    HW2 8120   3.237   4.001   1.173
 2702SOL     OW 8121   2.863   3.758   1.154
 2702SOL    HW1 8122   2.800   3.686   1.123
 2702SOL    HW2 8123   2.956   3.722   1.154
 2703SOL     OW 8124   2.632   5.054   0.301
 2703SOL    HW1 8125   2.586   4.967   0.318
 2703SOL    HW2 8126   2.723   5.051   0.342
 2704SOL     OW 8127   3.214   3.776   0.168
 2704SOL    HW1 8128   3.249   3.735   0.084
 2704SOL    HW2 8129   3.124   3.738   0.188
 2705SOL     OW 8130   3.162   4.177   0.691
 2705SOL    HW1 8131   3.103   4.257   0.695
 2705SOL    HW2 8132   3.177   4.142   0.784
 2706SOL     OW 8133   3.455   3.945   0.882
 2706SOL    HW1 8134   3.371   3.944   0.936
 2706SOL    HW2 8135   3.457   4.028   0.826
 2707SOL     OW 8136   1.901   4.801   0.300
 2707SOL    HW1 8137   2.000   4.790   0.291
 2707SOL    HW2 8138   1.861   4.715   0.332
 2708SOL     OW 8139   2.092   4.352   1.975
 2708SOL    HW1 8140   1.999   4.350   2.012
 2708SOL    HW2 8141   2.093   4.313   1.883
 2709SOL     OW 8142   2.087   3.999   2.858
 2709SOL    HW1 8143   2.122   3.982   2.950
 2709SOL    HW2 8144   1.999   3.954   2.846
 2710SOL     OW 8145   1.881   4.092   2.509
 2710SOL    HW1 8146   1.799   4.135   2.548
 2710SOL    HW2 8147   1.853   4.019   2.446
 2711SOL     OW 8148   2.997   4.427   2.579
 2711SOL    HW1 8149   3.054   4.505   2.554
 2711SOL    HW2 8150   2.937   4.453   2.655
 2712SOL     OW 8151   3.617   4.331   2.093
 2712SOL    HW1 8152   3.605   4.318   1.994
 2712SOL    HW2 8153   3.587   4.250   2.142
 2713SOL     OW 8154   2.630   4.868   2.885
 2713SOL    HW1 8155   2.552   4.885   2.945
 2713SOL    HW2 8156   2.664   4.955   2.849
 2714SOL     OW 8157   2.712   4.522   3.685
 2714SOL    HW1 8158   2.708   4.598   3.750
 2714SOL    HW2 8159   2.734   4.558   3.594
 2715SOL     OW 8160   2.547   4.736   2.527
 2715SOL    HW1 8161   2.616   4.720   2.597
 2715SOL    HW2 8162   2.474   4.793   2.565
 2716SOL     OW 8163   2.300   4.116   3.361
 2716SOL    HW1 8164   2.382   4.060   3.370
 2716SOL    HW2 8165   2.219   4.058   3.365
 2717SOL     OW 8166   3.465   4.171   2.599
 2717SOL    HW1 8167   3.391   4.217   2.549
 2717SOL    HW2 8168   3.516   4.239   2.652
 2718SOL     OW 8169   2.092   5.158   2.400
 2718SOL    HW1 8170   2.066   5.254   2.400
 2718SOL    HW2 8171   2.021   5.104   2.445
 2719SOL     OW 8172   2.102   4.815   2.748
 2719SOL    HW1 8173   2.116   4.731   2.800
 2719SOL    HW2 8174   2.047   4.879   2.803
 2720SOL     OW 8175   2.468   4.688   1.985
 2720SOL    HW1 8176   2.475   4.772   1.931
 2720SOL    HW2 8177   2.514   4.701   2.073
 2721SOL     OW 8178   3.456   3.838   3.342
 2721SOL    HW1 8179   3.438   3.905   3.270
 2721SOL    HW2 8180   3.453   3.884   3.431
 2722SOL     OW 8181   1.984   4.367   2.425
 2722SOL    HW1 8182   1.939   4.279   2.442
 2722SOL    HW2 8183   1.983   4.421   2.509
 2723SOL     OW 8184   3.551   4.646   2.474
 2723SOL    HW1 8185   3.646   4.617   2.482
 2723SOL    HW2 8186   3.543   4.711   2.399
 2724SOL     OW 8187   1.975   4.461   3.459
 2724SOL    HW1 8188   2.063   4.448   3.504
 2724SOL    HW2 8189   1.962   4.558   3.437
 2725SOL     OW 8190   3.155   4.952   3.285
 2725SOL    HW1 8191   3.192   4.879   3.227
 2725SOL    HW2 8192   3.207   4.957   3.370
 2726SOL     OW 8193   2.671   3.728   2.364
 2726SOL    HW1 8194   2.711   3.819   2.355
 2726SOL    HW2 8195   2.571   3.736   2.370
 2727SOL     OW 8196   2.059   4.700   3.126
 2727SOL    HW1 8197   2.148   4.655   3.112
 2727SOL    HW2 8198   1.986   4.635   3.107
 2728SOL     OW 8199   3.387   4.723   2.052
 2728SOL    HW1 8200   3.324   4.647   2.065
 2728SOL    HW2 8201   3.435   4.741   2.138
 2729SOL     OW 8202   2.179   3.975   3.663
 2729SOL    HW1 8203   2.250   4.046   3.669
 2729SOL    HW2 8204   2.091   4.014   3.691
 2730SOL     OW 8205   2.460   4.453   2.132
 2730SOL    HW1 8206   2.484   4.522   2.064
 2730SOL    HW2 8207   2.382   4.486   2.186
 2731SOL     OW 8208   3.143   4.069   2.806
 2731SOL    HW1 8209   3.057   4.019   2.793
 2731SOL    HW2 8210   3.205   4.015   2.862
 2732SOL     OW 8211   2.669   4.329   3.327
 2732SOL    HW1 8212   2.622   4.326   3.416
 2732SOL    HW2 8213   2.618   4.274   3.261
 2733SOL     OW 8214   3.256   4.193   3.536
 2733SOL    HW1 8215   3.236   4.236   3.624
 2733SOL    HW2 8216   3.334   4.131   3.545
 2734SOL     OW 8217   2.835   4.614   3.434
 2734SOL    HW1 8218   2.881   4.530   3.405
 2734SOL    HW2 8219   2.779   4.648   3.359
 2735SOL     OW 8220   2.853   4.134   3.104
 2735SOL    HW1 8221   2.776   4.168   3.158
 2735SOL    HW2 8222   2.819   4.083   3.025
 2736SOL     OW 8223   2.903   4.425   2.291
 2736SOL    HW1 8224   2.929   4.421   2.387
 2736SOL    HW2 8225   2.818   4.374   2.277
 2737SOL     OW 8226   1.938   4.535   2.651
 2737SOL    HW1 8227   2.037   4.523   2.660
 2737SOL    HW2 8228   1.914   4.630   2.672
 2738SOL     OW 8229   2.727   4.072   2.057
 2738SOL    HW1 8230   2.786   4.135   2.008
 2738SOL    HW2 8231   2.746   3.978   2.028
 2739SOL     OW 8232   3.581   4.309   3.693
 2739SOL    HW1 8233   3.555   4.398   3.657
 2739SOL    HW2 8234   3.579   4.241   3.620
 2740SOL     OW 8235   2.412   3.920   2.747
 2740SOL    HW1 8236   2.407   3.915   2.847
 2740SOL    HW2 8237   2.414   4.016   2.718
 2741SOL     OW 8238   3.657   4.790   2.735
 2741SOL    HW1 8239   3.595   4.775   2.659
 2741SOL    HW2 8240   3.605   4.801   2.820
 2742SOL     OW 8241   2.183   4.667   2.104
 2742SOL    HW1 8242   2.265   4.706   2.062
 2742SOL    HW2 8243   2.156   4.585   2.055
 2743SOL     OW 8244   3.320   4.459   2.590
 2743SOL    HW1 8245   3.315   4.394   2.665
 2743SOL    HW2 8246   3.400   4.518   2.603
 2744SOL     OW 8247   2.064   4.009   3.360
 2744SOL    HW1 8248   1.984   4.069   3.347
 2744SOL    HW2 8249   2.054   3.960   3.446
 2745SOL     OW 8250   3.262   3.831   2.288
 2745SOL    HW1 8251   3.238   3.794   2.198
 2745SOL    HW2 8252   3.361   3.847   2.292
 2746SOL     OW 8253   2.244   4.424   2.342
 2746SOL    HW1 8254   2.289   4.334   2.339
 2746SOL    HW2 8255   2.150   4.413   2.375
 2747SOL     OW 8256   3.409   3.946   3.591
 2747SOL    HW1 8257   3.404   3.983   3.683
 2747SOL    HW2 8258   3.337   3.877   3.579
 2748SOL     OW 8259   2.476   3.846   1.979
 2748SOL    HW1 8260   2.574   3.824   1.986
 2748SOL    HW2 8261   2.445   3.829   1.886
 2749SOL     OW 8262   2.643   3.988   3.611
 2749SOL    HW1 8263   2.710   3.927   3.654
 2749SOL    HW2 8264   2.570   4.007   3.676
 2750SOL     OW 8265   3.213   4.314   3.295
 2750SOL    HW1 8266   3.241   4.271   3.380
 2750SOL    HW2 8267   3.238   4.410   3.296
 2751SOL     OW 8268   2.784   4.227   2.761
 2751SOL    HW1 8269   2.759   4.218   2.665
 2751SOL    HW2 8270   2.832   4.145   2.792
 2752SOL     OW 8271   2.401   3.788   2.374
 2752SOL    HW1 8272   2.320   3.789   2.432
 2752SOL    HW2 8273   2.404   3.871   2.319
 2753SOL     OW 8274   2.159   3.759   2.033
 2753SOL    HW1 8275   2.208   3.843   2.012
 2753SOL    HW2 8276   2.221   3.694   2.078
 2754SOL     OW 8277   2.797   3.960   2.342
 2754SOL    HW1 8278   2.749   4.001   2.264
 2754SOL    HW2 8279   2.896   3.958   2.323
 2755SOL     OW 8280   2.938   4.407   3.326
 2755SOL    HW1 8281   2.858   4.346   3.329
 2755SOL    HW2 8282   3.019   4.354   3.302
 2756SOL     OW 8283   2.321   4.876   2.603
 2756SOL    HW1 8284   2.250   4.849   2.668
 2756SOL    HW2 8285   2.295   4.848   2.510
 2757SOL     OW 8286   2.894   4.273   1.878
 2757SOL    HW1 8287   2.853   4.355   1.839
 2757SOL    HW2 8288   2.958   4.299   1.951
 2758SOL     OW 8289   1.940   4.280   3.248
 2758SOL    HW1 8290   2.032   4.279   3.207
 2758SOL    HW2 8291   1.934   4.354   3.315
 2759SOL     OW 8292   2.423   3.946   3.009
 2759SOL    HW1 8293   2.461   3.862   3.046
 2759SOL    HW2 8294   2.335   3.965   3.053
 2760SOL     OW 8295   2.728   4.178   2.504
 2760SOL    HW1 8296   2.696   4.250   2.442
 2760SOL    HW2 8297   2.752   4.097   2.451
 2761SOL     OW 8298   2.879   3.763   2.615
 2761SOL    HW1 8299   2.807   3.768   2.546
 2761SOL    HW2 8300   2.855   3.694   2.684
 2762SOL     OW 8301   3.291   4.897   2.729
 2762SOL    HW1 8302   3.236   4.813   2.722
 2762SOL    HW2 8303   3.317   4.926   2.637
 2763SOL     OW 8304   3.328   4.314   2.854
 2763SOL    HW1 8305   3.298   4.219   2.861
 2763SOL    HW2 8306   3.401   4.330   2.920
 2764SOL     OW 8307   3.719   4.557   2.239
 2764SOL    HW1 8308   3.761   4.493   2.303
 2764SOL    HW2 8309   3.681   4.506   2.161
 2765SOL     OW 8310   3.252   4.299   1.940
 2765SOL    HW1 8311   3.198   4.278   2.021
 2765SOL    HW2 8312   3.343   4.258   1.949
 2766SOL     OW 8313   2.389   3.980   2.190
 2766SOL    HW1 8314   2.416   3.921   2.115
 2766SOL    HW2 8315   2.389   4.075   2.159
 2767SOL     OW 8316   3.616   4.947   3.450
 2767SOL    HW1 8317   3.707   4.908   3.437
 2767SOL    HW2 8318   3.624   5.043   3.474
 2768SOL     OW 8319   3.500   4.823   2.941
 2768SOL    HW1 8320   3.505   4.904   3.000
 2768SOL    HW2 8321   3.414   4.825   2.890
 2769SOL     OW 8322   2.777   3.813   3.264
 2769SOL    HW1 8323   2.802   3.793   3.169
 2769SOL    HW2 8324   2.849   3.869   3.306
 2770SOL     OW 8325   2.567   4.774   2.230
 2770SOL    HW1 8326   2.553   4.781   2.329
 2770SOL    HW2 8327   2.651   4.723   2.212
 2771SOL     OW 8328   2.272   4.537   3.113
 2771SOL    HW1 8329   2.358   4.549   3.163
 2771SOL    HW2 8330   2.230   4.450   3.140
 2772SOL     OW 8331   3.136   4.110   3.124
 2772SOL    HW1 8332   3.157   4.184   3.188
 2772SOL    HW2 8333   3.047   4.127   3.081
 2773SOL     OW 8334   2.229   4.824   2.363
 2773SOL    HW1 8335   2.222   4.907   2.307
 2773SOL    HW2 8336   2.233   4.744   2.303
 2774SOL     OW 8337   2.428   4.261   2.727
 2774SOL    HW1 8338   2.440   4.327   2.653
 2774SOL    HW2 8339   2.474   4.295   2.810
 2775SOL     OW 8340   3.444   4.363   2.334
 2775SOL    HW1 8341   3.413   4.424   2.407
 2775SOL    HW2 8342   3.494   4.415   2.265
 2776SOL     OW 8343   2.264   4.475   3.460
 2776SOL    HW1 8344   2.332   4.530   3.413
 2776SOL    HW2 8345   2.304   4.387   3.487
 2777SOL     OW 8346   3.449   4.503   3.532
 2777SOL    HW1 8347   3.357   4.541   3.527
 2777SOL    HW2 8348   3.509   4.550   3.467
 2778SOL     OW 8349   2.875   3.829   3.632
 2778SOL    HW1 8350   2.881   3.914   3.580
 2778SOL    HW2 8351   2.907   3.753   3.575
 2779SOL     OW 8352   2.366   3.774   3.602
 2779SOL    HW1 8353   2.324   3.717   3.532
 2779SOL    HW2 8354   2.300   3.843   3.634
 2780SOL     OW 8355   2.435   4.594   2.891
 2780SOL    HW1 8356   2.479   4.683   2.882
 2780SOL    HW2 8357   2.372   4.594   2.968
 2781SOL     OW 8358   3.222   4.586   2.907
 2781SOL    HW1 8359   3.147   4.586   2.841
 2781SOL    HW2 8360   3.259   4.494   2.916
 2782SOL     OW 8361   3.071   4.249   2.137
 2782SOL    HW1 8362   3.084   4.165   2.191
 2782SOL    HW2 8363   3.042   4.323   2.197
 2783SOL     OW 8364   2.169   3.937   3.093
 2783SOL    HW1 8365   2.146   3.974   3.183
 2783SOL    HW2 8366   2.139   3.842   3.087
 2784SOL     OW 8367   2.594   4.358   2.926
 2784SOL    HW1 8368   2.653   4.332   2.850
 2784SOL    HW2 8369   2.566   4.454   2.915
 2785SOL     OW 8370   3.590   4.659   3.716
 2785SOL    HW1 8371   3.544   4.652   3.627
 2785SOL    HW2 8372   3.528   4.703   3.782
 2786SOL     OW 8373   2.169   3.787   2.480
 2786SOL    HW1 8374   2.158   3.881   2.513
 2786SOL    HW2 8375   2.164   3.724   2.557
 2787SOL     OW 8376   3.484   4.091   2.236
 2787SOL    HW1 8377   3.486   4.015   2.300
 2787SOL    HW2 8378   3.436   4.168   2.276
 2788SOL     OW 8379   2.885   4.490   2.828
 2788SOL    HW1 8380   2.900   4.511   2.924
 2788SOL    HW2 8381   2.855   4.395   2.819
 2789SOL     OW 8382   2.212   4.622   3.666
 2789SOL    HW1 8383   2.288   4.666   3.714
 2789SOL    HW2 8384   2.247   4.575   3.584
 2790SOL     OW 8385   3.402   3.998   1.987
 2790SOL    HW1 8386   3.341   3.923   2.010
 2790SOL    HW2 8387   3.424   4.050   2.070
 2791SOL     OW 8388   3.165   4.562   1.904
 2791SOL    HW1 8389   3.199   4.469   1.919
 2791SOL    HW2 8390   3.183   4.589   1.809
 2792SOL     OW 8391   2.181   4.534   2.811
 2792SOL    HW1 8392   2.274   4.570   2.816
 2792SOL    HW2 8393   2.175   4.449   2.863
 2793SOL     OW 8394   2.201   4.233   2.868
 2793SOL    HW1 8395   2.149   4.150   2.851
 2793SOL    HW2 8396   2.278   4.238   2.804
 2794SOL     OW 8397   3.000   4.104   3.540
 2794SOL    HW1 8398   2.955   4.167   3.604
 2794SOL    HW2 8399   3.093   4.135   3.523
 2795SOL     OW 8400   3.022   3.931   3.339
 2795SOL    HW1 8401   3.022   3.995   3.416
 2795SOL    HW2 8402   3.050   3.979   3.256
 2796SOL     OW 8403   2.864   4.520   3.100
 2796SOL    HW1 8404   2.905   4.488   3.186
 2796SOL    HW2 8405   2.768   4.493   3.097
 2797SOL     OW 8406   1.902   4.268   2.976
 2797SOL    HW1 8407   1.987   4.235   2.935
 2797SOL    HW2 8408   1.915   4.283   3.074
 2798SOL     OW 8409   2.051   4.244   3.584
 2798SOL    HW1 8410   2.110   4.204   3.514
 2798SOL    HW2 8411   1.993   4.315   3.543
 2799SOL     OW 8412   3.231   4.674   3.522
 2799SOL    HW1 8413   3.270   4.763   3.542
 2799SOL    HW2 8414   3.241   4.654   3.425
 2800SOL     OW 8415   2.677   4.296   2.187
 2800SOL    HW1 8416   2.684   4.207   2.141
 2800SOL    HW2 8417   2.583   4.330   2.179
 2801SOL     OW 8418   3.519   4.328   3.068
 2801SOL    HW1 8419   3.481   4.259   3.130
 2801SOL    HW2 8420   3.601   4.292   3.024
 2802SOL     OW 8421   2.533   4.188   3.131
 2802SOL    HW1 8422   2.499   4.099   3.101
 2802SOL    HW2 8423   2.559   4.242   3.051
 2803SOL     OW 8424   2.335   4.224   2.053
 2803SOL    HW1 8425   2.396   4.304   2.057
 2803SOL    HW2 8426   2.240   4.255   2.060
 2804SOL     OW 8427   2.021   4.861   3.328
 2804SOL    HW1 8428   2.043   4.800   3.404
 2804SOL    HW2 8429   2.031   4.812   3.242
 2805SOL     OW 8430   3.209   4.783   3.096
 2805SOL    HW1 8431   3.233   4.720   3.022
 2805SOL    HW2 8432   3.119   4.823   3.078
 2806SOL     OW 8433   3.164   4.579   2.171
 2806SOL    HW1 8434   3.078   4.548   2.213
 2806SOL    HW2 8435   3.160   4.565   2.072
 2807SOL     OW 8436   3.588   3.859   2.385
 2807SOL    HW1 8437   3.661   3.842   2.318
 2807SOL    HW2 8438   3.557   3.772   2.423
 2808SOL     OW 8439   3.142   4.651   2.534
 2808SOL    HW1 8440   3.202   4.570   2.536
 2808SOL    HW2 8441   3.182   4.720   2.474
 2809SOL     OW 8442   3.703   3.899   2.825
 2809SOL    HW1 8443   3.742   3.814   2.789
 2809SOL    HW2 8444   3.605   3.901   2.806
 2810SOL     OW 8445   2.125   4.050   2.582
 2810SOL    HW1 8446   2.046   4.101   2.548
 2810SOL    HW2 8447   2.116   4.035   2.680
 2811SOL     OW 8448   2.684   4.726   3.234
 2811SOL    HW1 8449   2.724   4.725   3.142
 2811SOL    HW2 8450   2.694   4.818   3.274
 2812SOL     OW 8451   2.778   4.634   2.153
 2812SOL    HW1 8452   2.841   4.672   2.085
 2812SOL    HW2 8453   2.818   4.551   2.192
 2813SOL     OW 8454   2.234   5.012   3.352
 2813SOL    HW1 8455   2.221   5.105   3.318
 2813SOL    HW2 8456   2.150   4.960   3.339
 2814SOL     OW 8457   2.876   3.960   2.833
 2814SOL    HW1 8458   2.868   3.924   2.740
 2814SOL    HW2 8459   2.874   3.884   2.898
 2815SOL     OW 8460   3.571   4.109   3.243
 2815SOL    HW1 8461   3.644   4.178   3.247
 2815SOL    HW2 8462   3.599   4.034   3.184
 2816SOL     OW 8463   1.967   4.737   3.588
 2816SOL    HW1 8464   1.890   4.704   3.642
 2816SOL    HW2 8465   2.052   4.707   3.630
 2817SOL     OW 8466   2.534   3.927   3.351
 2817SOL    HW1 8467   2.624   3.911   3.311
 2817SOL    HW2 8468   2.542   3.932   3.450
 2818SOL     OW 8469   1.937   4.069   1.895
 2818SOL    HW1 8470   1.845   4.041   1.866
 2818SOL    HW2 8471   1.968   4.146   1.839
 2819SOL     OW 8472   3.302   4.580   3.260
 2819SOL    HW1 8473   3.245   4.632   3.197
 2819SOL    HW2 8474   3.398   4.592   3.236
 2820SOL     OW 8475   1.934   3.890   2.180
 2820SOL    HW1 8476   1.917   3.973   2.126
 2820SOL    HW2 8477   2.024   3.853   2.158
 2821SOL     OW 8478   3.045   5.059   1.981
 2821SOL    HW1 8479   2.946   5.048   1.983
 2821SOL    HW2 8480   3.079   5.074   2.074
 2822SOL     OW 8481   2.475   4.566   3.293
 2822SOL    HW1 8482   2.531   4.647   3.276
 2822SOL    HW2 8483   2.534   4.486   3.296
 2823SOL     OW 8484   2.578   4.289   3.570
 2823SOL    HW1 8485   2.597   4.354   3.644
 2823SOL    HW2 8486   2.638   4.209   3.579
 2824SOL     OW 8487   3.536   4.607   3.116
 2824SOL    HW1 8488   3.509   4.518   3.079
 2824SOL    HW2 8489   3.537   4.675   3.043
 2825SOL     OW 8490   3.087   4.049   2.311
 2825SOL    HW1 8491   3.152   3.975   2.300
 2825SOL    HW2 8492   3.107   4.099   2.395
 2826SOL     OW 8493   2.456   4.469   2.514
 2826SOL    HW1 8494   2.506   4.554   2.495
 2826SOL    HW2 8495   2.368   4.471   2.466
 2827SOL     OW 8496   3.639   4.066   3.504
 2827SOL    HW1 8497   3.622   4.097   3.410
 2827SOL    HW2 8498   3.555   4.029   3.542
 2828SOL     OW 8499   3.592   4.658   3.379
 2828SOL    HW1 8500   3.630   4.749   3.394
 2828SOL    HW2 8501   3.584   4.641   3.280
 2829SOL     OW 8502   2.721   4.680   2.723
 2829SOL    HW1 8503   2.775   4.611   2.771
 2829SOL    HW2 8504   2.689   4.749   2.789
 2830SOL     OW 8505   2.945   4.708   1.949
 2830SOL    HW1 8506   2.922   4.761   1.867
 2830SOL    HW2 8507   3.026   4.652   1.930
 2831SOL     OW 8508   3.686   3.916   3.089
 2831SOL    HW1 8509   3.682   3.826   3.133
 2831SOL    HW2 8510   3.689   3.905   2.990
 2832SOL     OW 8511   2.290   4.148   2.382
 2832SOL    HW1 8512   2.320   4.076   2.320
 2832SOL    HW2 8513   2.251   4.108   2.465
 2833SOL     OW 8514   2.179   4.271   3.142
 2833SOL    HW1 8515   2.217   4.212   3.214
 2833SOL    HW2 8516   2.219   4.245   3.054
 2834SOL     OW 8517   3.286   3.938   2.974
 2834SOL    HW1 8518   3.338   3.873   3.029
 2834SOL    HW2 8519   3.237   4.001   3.035
 2835SOL     OW 8520   2.863   3.758   3.016
 2835SOL    HW1 8521   2.800   3.686   2.985
 2835SOL    HW2 8522   2.956   3.722   3.016
 2836SOL     OW 8523   2.632   5.054   2.163
 2836SOL    HW1 8524   2.586   4.967   2.180
 2836SOL    HW2 8525   2.723   5.051   2.204
 2837SOL     OW 8526   3.214   3.776   2.030
 2837SOL    HW1 8527   3.249   3.735   1.946
 2837SOL    HW2 8528   3.124   3.738   2.050
 2838SOL     OW 8529   3.162   4.177   2.553
 2838SOL    HW1 8530   3.103   4.257   2.557
 2838SOL    HW2 8531   3.177   4.142   2.646
 2839SOL     OW 8532   3.455   3.945   2.744
 2839SOL    HW1 8533   3.371   3.944   2.798
 2839SOL    HW2 8534   3.457   4.028   2.688
 2840SOL     OW 8535   1.901   4.801   2.162
 2840SOL    HW1 8536   2.000   4.790   2.153
 2840SOL    HW2 8537   1.861   4.715   2.194
 2841SOL     OW 8538   2.092   4.352   3.837
 2841SOL    HW1 8539   1.999   4.350   3.874
 2841SOL    HW2 8540   2.093   4.313   3.745
 2842SOL     OW 8541   2.087   3.999   4.720
 2842SOL    HW1 8542   2.122   3.982   4.812
 2842SOL    HW2 8543   1.999   3.954   4.708
 2843SOL     OW 8544   1.881   4.092   4.371
 2843SOL    HW1 8545   1.799   4.135   4.410
 2843SOL    HW2 8546   1.853   4.019   4.308
 2844SOL     OW 8547   2.997   4.427   4.441
 2844SOL    HW1 8548   3.054   4.505   4.416
 2844SOL    HW2 8549   2.937   4.453   4.517
 2845SOL     OW 8550   3.617   4.331   3.955
 2845SOL    HW1 8551   3.605   4.318   3.856
 2845SOL    HW2 8552   3.587   4.250   4.004
 2846SOL     OW 8553   2.630   4.868   4.747
 2846SOL    HW1 8554   2.552   4.885   4.807
 2846SOL    HW2 8555   2.664   4.955   4.711
 2847SOL     OW 8556   2.547   4.736   4.389
 2847SOL    HW1 8557   2.616   4.720   4.459
 2847SOL    HW2 8558   2.474   4.793   4.427
 2848SOL     OW 8559   3.465   4.171   4.461
 2848SOL    HW1 8560   3.391   4.217   4.411
 2848SOL    HW2 8561   3.516   4.239   4.514
 2849SOL     OW 8562   2.092   5.158   4.262
 2849SOL    HW1 8563   2.066   5.254   4.262
 2849SOL    HW2 8564   2.021   5.104   4.307
 2850SOL     OW 8565   2.102   4.815   4.610
 2850SOL    HW1 8566   2.116   4.731   4.662
 2850SOL    HW2 8567   2.047   4.879   4.665
 2851SOL     OW 8568   2.468   4.688   3.847
 2851SOL    HW1 8569   2.475   4.772   3.793
 2851SOL    HW2 8570   2.514   4.701   3.935
 2852SOL     OW 8571   1.984   4.367   4.287
 2852SOL    HW1 8572   1.939   4.279   4.304
 2852SOL    HW2 8573   1.983   4.421   4.371
 2853SOL     OW 8574   3.551   4.646   4.336
 2853SOL    HW1 8575   3.646   4.617   4.344
 2853SOL    HW2 8576   3.543   4.711   4.261
 2854SOL     OW 8577   2.671   3.728   4.226
 2854SOL    HW1 8578   2.711   3.819   4.217
 2854SOL    HW2 8579   2.571   3.736   4.232
 2855SOL     OW 8580   2.059   4.700   4.988
 2855SOL    HW1 8581   2.148   4.655   4.974
 2855SOL    HW2 8582   1.986   4.635   4.969
 2856SOL     OW 8583   3.387   4.723   3.914
 2856SOL    HW1 8584   3.324   4.647   3.927
 2856SOL    HW2 8585   3.435   4.741   4.000
 2857SOL     OW 8586   2.460   4.453   3.994
 2857SOL    HW1 8587   2.484   4.522   3.926
 2857SOL    HW2 8588   2.382   4.486   4.048
 2858SOL     OW 8589   3.143   4.069   4.668
 2858SOL    HW1 8590   3.057   4.019   4.655
 2858SOL    HW2 8591   3.205   4.015   4.724
 2859SOL     OW 8592   2.903   4.425   4.153
 2859SOL    HW1 8593   2.929   4.421   4.249
 2859SOL    HW2 8594   2.818   4.374   4.139
 2860SOL     OW 8595   1.938   4.535   4.513
 2860SOL    HW1 8596   2.037   4.523   4.522
 2860SOL    HW2 8597   1.914   4.630   4.534
 2861SOL     OW 8598   2.727   4.072   3.919
 2861SOL    HW1 8599   2.786   4.135   3.870
 2861SOL    HW2 8600   2.746   3.978   3.890
 2862SOL     OW 8601   2.412   3.920   4.609
 2862SOL    HW1 8602   2.407   3.915   4.709
 2862SOL    HW2 8603   2.414   4.016   4.580
 2863SOL     OW 8604   3.657   4.790   4.597
 2863SOL    HW1 8605   3.595   4.775   4.521
 2863SOL    HW2 8606   3.605   4.801   4.682
 2864SOL     OW 8607   2.183   4.667   3.966
 2864SOL    HW1 8608   2.265   4.706   3.924
 2864SOL    HW2 8609   2.156   4.585   3.917
 2865SOL     OW 8610   3.320   4.459   4.452
 2865SOL    HW1 8611   3.315   4.394   4.527
 2865SOL    HW2 8612   3.400   4.518   4.465
 2866SOL     OW 8613   3.262   3.831   4.150
 2866SOL    HW1 8614   3.238   3.794   4.060
 2866SOL    HW2 8615   3.361   3.847   4.154
 2867SOL     OW 8616   2.244   4.424   4.204
 2867SOL    HW1 8617   2.289   4.334   4.201
 2867SOL    HW2 8618   2.150   4.413   4.237
 2868SOL     OW 8619   2.476   3.846   3.841
 2868SOL    HW1 8620   2.574   3.824   3.848
 2868SOL    HW2 8621   2.445   3.829   3.748
 2869SOL     OW 8622   2.750   5.238   4.919
 2869SOL    HW1 8623   2.727   5.213   4.825
 2869SOL    HW2 8624   2.811   5.169   4.958
 2870SOL     OW 8625   2.784   4.227   4.623
 2870SOL    HW1 8626   2.759   4.218   4.527
 2870SOL    HW2 8627   2.832   4.145   4.654
 2871SOL     OW 8628   2.401   3.788   4.236
 2871SOL    HW1 8629   2.320   3.789   4.294
 2871SOL    HW2 8630   2.404   3.871   4.181
 2872SOL     OW 8631   2.159   3.759   3.895
 2872SOL    HW1 8632   2.208   3.843   3.874
 2872SOL    HW2 8633   2.221   3.694   3.940
 2873SOL     OW 8634   2.797   3.960   4.204
 2873SOL    HW1 8635   2.749   4.001   4.126
 2873SOL    HW2 8636   2.896   3.958   4.185
 2874SOL     OW 8637   2.321   4.876   4.465
 2874SOL    HW1 8638   2.250   4.849   4.530
 2874SOL    HW2 8639   2.295   4.848   4.372
 2875SOL     OW 8640   2.894   4.273   3.740
 2875SOL    HW1 8641   2.853   4.355   3.701
 2875SOL    HW2 8642   2.958   4.299   3.813
 2876SOL     OW 8643   2.728   4.178   4.366
 2876SOL    HW1 8644   2.696   4.250   4.304
 2876SOL    HW2 8645   2.752   4.097   4.313
 2877SOL     OW 8646   2.879   3.763   4.477
 2877SOL    HW1 8647   2.807   3.768   4.408
 2877SOL    HW2 8648   2.855   3.694   4.546
 2878SOL     OW 8649   3.291   4.897   4.591
 2878SOL    HW1 8650   3.236   4.813   4.584
 2878SOL    HW2 8651   3.317   4.926   4.499
 2879SOL     OW 8652   3.328   4.314   4.716
 2879SOL    HW1 8653   3.298   4.219   4.723
 2879SOL    HW2 8654   3.401   4.330   4.782
 2880SOL     OW 8655   3.719   4.557   4.101
 2880SOL    HW1 8656   3.761   4.493   4.165
 2880SOL    HW2 8657   3.681   4.506   4.023
 2881SOL     OW 8658   3.252   4.299   3.802
 2881SOL    HW1 8659   3.198   4.278   3.883
 2881SOL    HW2 8660   3.343   4.258   3.811
 2882SOL     OW 8661   2.389   3.980   4.052
 2882SOL    HW1 8662   2.416   3.921   3.977
 2882SOL    HW2 8663   2.389   4.075   4.021
 2883SOL     OW 8664   3.500   4.823   4.803
 2883SOL    HW1 8665   3.505   4.904   4.862
 2883SOL    HW2 8666   3.414   4.825   4.752
 2884SOL     OW 8667   2.567   4.774   4.092
 2884SOL    HW1 8668   2.553   4.781   4.191
 2884SOL    HW2 8669   2.651   4.723   4.074
 2885SOL     OW 8670   2.272   4.537   4.975
 2885SOL    HW1 8671   2.358   4.549   5.025
 2885SOL    HW2 8672   2.230   4.450   5.002
 2886SOL     OW 8673   2.229   4.824   4.225
 2886SOL    HW1 8674   2.222   4.907   4.169
 2886SOL    HW2 8675   2.233   4.744   4.165
 2887SOL     OW 8676   2.428   4.261   4.589
 2887SOL    HW1 8677   2.440   4.327   4.515
 2887SOL    HW2 8678   2.474   4.295   4.672
 2888SOL     OW 8679   3.444   4.363   4.196
 2888SOL    HW1 8680   3.413   4.424   4.269
 2888SOL    HW2 8681   3.494   4.415   4.127
 2889SOL     OW 8682   2.435   4.594   4.753
 2889SOL    HW1 8683   2.479   4.683   4.744
 2889SOL    HW2 8684   2.372   4.594   4.830
 2890SOL     OW 8685   3.071   4.249   3.999
 2890SOL    HW1 8686   3.084   4.165   4.053
 2890SOL    HW2 8687   3.042   4.323   4.059
 2891SOL     OW 8688   2.169   3.937   4.955
 2891SOL    HW1 8689   2.146   3.974   5.045
 2891SOL    HW2 8690   2.139   3.842   4.949
 2892SOL     OW 8691   2.594   4.358   4.788
 2892SOL    HW1 8692   2.653   4.332   4.712
 2892SOL    HW2 8693   2.566   4.454   4.777
 2893SOL     OW 8694   2.169   3.787   4.342
 2893SOL    HW1 8695   2.158   3.881   4.375
 2893SOL    HW2 8696   2.164   3.724   4.419
 2894SOL     OW 8697   3.484   4.091   4.098
 2894SOL    HW1 8698   3.486   4.015   4.162
 2894SOL    HW2 8699   3.436   4.168   4.138
 2895SOL     OW 8700   2.885   4.490   4.690
 2895SOL    HW1 8701   2.900   4.511   4.786
 2895SOL    HW2 8702   2.855   4.395   4.681
 2896SOL     OW 8703   3.402   3.998   3.849
 2896SOL    HW1 8704   3.341   3.923   3.872
 2896SOL    HW2 8705   3.424   4.050   3.932
 2897SOL     OW 8706   3.165   4.562   3.766
 2897SOL    HW1 8707   3.199   4.469   3.781
 2897SOL    HW2 8708   3.183   4.589   3.671
 2898SOL     OW 8709   2.181   4.534   4.673
 2898SOL    HW1 8710   2.274   4.570   4.678
 2898SOL    HW2 8711   2.175   4.449   4.725
 2899SOL     OW 8712   2.201   4.233   4.730
 2899SOL    HW1 8713   2.149   4.150   4.713
 2899SOL    HW2 8714   2.278   4.238   4.666
 2900SOL     OW 8715   2.864   4.520   4.962
 2900SOL    HW1 8716   2.905   4.488   5.048
 2900SOL    HW2 8717   2.768   4.493   4.959
 2901SOL     OW 8718   1.902   4.268   4.838
 2901SOL    HW1 8719   1.987   4.235   4.797
 2901SOL    HW2 8720   1.915   4.283   4.936
 2902SOL     OW 8721   2.677   4.296   4.049
 2902SOL    HW1 8722   2.684   4.207   4.003
 2902SOL    HW2 8723   2.583   4.330   4.041
 2903SOL     OW 8724   2.533   4.188   4.993
 2903SOL    HW1 8725   2.499   4.099   4.963
 2903SOL    HW2 8726   2.559   4.242   4.913
 2904SOL     OW 8727   2.335   4.224   3.915
 2904SOL    HW1 8728   2.396   4.304   3.919
 2904SOL    HW2 8729   2.240   4.255   3.922
 2905SOL     OW 8730   3.164   4.579   4.033
 2905SOL    HW1 8731   3.078   4.548   4.075
 2905SOL    HW2 8732   3.160   4.565   3.934
 2906SOL     OW 8733   3.588   3.859   4.247
 2906SOL    HW1 8734   3.661   3.842   4.180
 2906SOL    HW2 8735   3.557   3.772   4.285
 2907SOL     OW 8736   3.142   4.651   4.396
 2907SOL    HW1 8737   3.202   4.570   4.398
 2907SOL    HW2 8738   3.182   4.720   4.336
 2908SOL     OW 8739   3.703   3.899   4.687
 2908SOL    HW1 8740   3.742   3.814   4.651
 2908SOL    HW2 8741   3.605   3.901   4.668
 2909SOL     OW 8742   2.125   4.050   4.444
 2909SOL    HW1 8743   2.046   4.101   4.410
 2909SOL    HW2 8744   2.116   4.035   4.542
 2910SOL     OW 8745   2.778   4.634   4.015
 2910SOL    HW1 8746   2.841   4.672   3.947
 2910SOL    HW2 8747   2.818   4.551   4.054
 2911SOL     OW 8748   2.876   3.960   4.695
 2911SOL    HW1 8749   2.868   3.924   4.602
 2911SOL    HW2 8750   2.874   3.884   4.760
 2912SOL     OW 8751   1.937   4.069   3.757
 2912SOL    HW1 8752   1.845   4.041   3.728
 2912SOL    HW2 8753   1.968   4.146   3.701
 2913SOL     OW 8754   1.934   3.890   4.042
 2913SOL    HW1 8755   1.917   3.973   3.988
 2913SOL    HW2 8756   2.024   3.853   4.020
 2914SOL     OW 8757   3.045   5.059   3.843
 2914SOL    HW1 8758   2.946   5.048   3.845
 2914SOL    HW2 8759   3.079   5.074   3.936
 2915SOL     OW 8760   3.536   4.607   4.978
 2915SOL    HW1 8761   3.509   4.518   4.941
 2915SOL    HW2 8762   3.537   4.675   4.905
 2916SOL     OW 8763   3.087   4.049   4.173
 2916SOL    HW1 8764   3.152   3.975   4.162
 2916SOL    HW2 8765   3.107   4.099   4.257
 2917SOL     OW 8766   2.456   4.469   4.376
 2917SOL    HW1 8767   2.506   4.554   4.357
 2917SOL    HW2 8768   2.368   4.471   4.328
 2918SOL     OW 8769   2.721   4.680   4.585
 2918SOL    HW1 8770   2.775   4.611   4.633
 2918SOL    HW2 8771   2.689   4.749   4.651
 2919SOL     OW 8772   2.945   4.708   3.811
 2919SOL    HW1 8773   2.922   4.761   3.729
 2919SOL    HW2 8774   3.026   4.652   3.792
 2920SOL     OW 8775   3.686   3.916   4.951
 2920SOL    HW1 8776   3.682   3.826   4.995
 2920SOL    HW2 8777   3.689   3.905   4.852
 2921SOL     OW 8778   2.290   4.148   4.244
 2921SOL    HW1 8779   2.320   4.076   4.182
 2921SOL    HW2 8780   2.251   4.108   4.327
 2922SOL     OW 8781   3.286   3.938   4.836
 2922SOL    HW1 8782   3.338   3.873   4.891
 2922SOL    HW2 8783   3.237   4.001   4.897
 2923SOL     OW 8784   2.632   5.054   4.025
 2923SOL    HW1 8785   2.586   4.967   4.042
 2923SOL    HW2 8786   2.723   5.051   4.066
 2924SOL     OW 8787   3.214   3.776   3.892
 2924SOL    HW1 8788   3.249   3.735   3.808
 2924SOL    HW2 8789   3.124   3.738   3.912
 2925SOL     OW 8790   3.162   4.177   4.415
 2925SOL    HW1 8791   3.103   4.257   4.419
 2925SOL    HW2 8792   3.177   4.142   4.508
 2926SOL     OW 8793   3.455   3.945   4.606
 2926SOL    HW1 8794   3.371   3.944   4.660
 2926SOL    HW2 8795   3.457   4.028   4.550
 2927SOL     OW 8796   1.901   4.801   4.024
 2927SOL    HW1 8797   2.000   4.790   4.015
 2927SOL    HW2 8798   1.861   4.715   4.056
 2928SOL     OW 8799   3.954   0.628   0.113
 2928SOL    HW1 8800   3.861   0.626   0.150
 2928SOL    HW2 8801   3.955   0.589   0.021
 2929SOL     OW 8802   3.949   0.275   0.996
 2929SOL    HW1 8803   3.984   0.258   1.088
 2929SOL    HW2 8804   3.861   0.230   0.984
 2930SOL     OW 8805   3.743   0.368   0.647
 2930SOL    HW1 8806   3.661   0.411   0.686
 2930SOL    HW2 8807   3.715   0.295   0.584
 2931SOL     OW 8808   4.293   1.275   1.165
 2931SOL    HW1 8809   4.200   1.268   1.128
 2931SOL    HW2 8810   4.304   1.364   1.209
 2932SOL     OW 8811   4.492   1.144   1.023
 2932SOL    HW1 8812   4.414   1.161   1.083
 2932SOL    HW2 8813   4.526   1.231   0.987
 2933SOL     OW 8814   4.574   0.798   1.823
 2933SOL    HW1 8815   4.570   0.874   1.888
 2933SOL    HW2 8816   4.596   0.834   1.732
 2934SOL     OW 8817   4.409   1.012   0.665
 2934SOL    HW1 8818   4.478   0.996   0.735
 2934SOL    HW2 8819   4.336   1.069   0.703
 2935SOL     OW 8820   4.410   1.161   1.803
 2935SOL    HW1 8821   4.470   1.240   1.817
 2935SOL    HW2 8822   4.324   1.192   1.762
 2936SOL     OW 8823   4.059   1.435   1.061
 2936SOL    HW1 8824   3.981   1.404   1.008
 2936SOL    HW2 8825   4.117   1.493   1.004
 2937SOL     OW 8826   4.162   0.392   1.499
 2937SOL    HW1 8827   4.244   0.336   1.508
 2937SOL    HW2 8828   4.081   0.334   1.503
 2938SOL     OW 8829   3.955   1.713   0.483
 2938SOL    HW1 8830   3.989   1.790   0.537
 2938SOL    HW2 8831   3.999   1.713   0.393
 2939SOL     OW 8832   4.851   1.341   1.690
 2939SOL    HW1 8833   4.898   1.341   1.778
 2939SOL    HW2 8834   4.803   1.254   1.679
 2940SOL     OW 8835   3.954   1.434   0.538
 2940SOL    HW1 8836   3.928   1.530   0.538
 2940SOL    HW2 8837   3.883   1.380   0.583
 2941SOL     OW 8838   3.964   1.091   0.886
 2941SOL    HW1 8839   3.978   1.007   0.938
 2941SOL    HW2 8840   3.909   1.155   0.941
 2942SOL     OW 8841   4.344   1.786   1.439
 2942SOL    HW1 8842   4.252   1.769   1.474
 2942SOL    HW2 8843   4.372   1.878   1.465
 2943SOL     OW 8844   4.330   0.964   0.123
 2943SOL    HW1 8845   4.337   1.048   0.069
 2943SOL    HW2 8846   4.376   0.977   0.211
 2944SOL     OW 8847   3.846   0.643   0.563
 2944SOL    HW1 8848   3.801   0.555   0.580
 2944SOL    HW2 8849   3.845   0.697   0.647
 2945SOL     OW 8850   3.751   1.596   0.117
 2945SOL    HW1 8851   3.732   1.500   0.138
 2945SOL    HW2 8852   3.718   1.654   0.192
 2946SOL     OW 8853   3.837   0.737   1.597
 2946SOL    HW1 8854   3.925   0.724   1.642
 2946SOL    HW2 8855   3.824   0.834   1.575
 2947SOL     OW 8856   4.337   1.365   0.726
 2947SOL    HW1 8857   4.288   1.278   0.735
 2947SOL    HW2 8858   4.314   1.408   0.639
 2948SOL     OW 8859   4.533   0.004   0.502
 2948SOL    HW1 8860   4.573   0.095   0.493
 2948SOL    HW2 8861   4.433   0.012   0.508
 2949SOL     OW 8862   3.921   0.976   1.264
 2949SOL    HW1 8863   4.010   0.931   1.250
 2949SOL    HW2 8864   3.848   0.911   1.245
 2950SOL     OW 8865   4.041   0.251   1.801
 2950SOL    HW1 8866   4.112   0.322   1.807
 2950SOL    HW2 8867   3.953   0.290   1.829
 2951SOL     OW 8868   4.322   0.729   0.270
 2951SOL    HW1 8869   4.346   0.798   0.202
 2951SOL    HW2 8870   4.244   0.762   0.324
 2952SOL     OW 8871   4.531   0.605   1.465
 2952SOL    HW1 8872   4.484   0.602   1.554
 2952SOL    HW2 8873   4.480   0.550   1.399
 2953SOL     OW 8874   4.697   0.890   1.572
 2953SOL    HW1 8875   4.743   0.806   1.543
 2953SOL    HW2 8876   4.641   0.924   1.497
 2954SOL     OW 8877   4.715   0.410   1.242
 2954SOL    HW1 8878   4.638   0.444   1.296
 2954SOL    HW2 8879   4.681   0.359   1.163
 2955SOL     OW 8880   4.765   0.701   0.429
 2955SOL    HW1 8881   4.791   0.697   0.525
 2955SOL    HW2 8882   4.680   0.650   0.415
 2956SOL     OW 8883   3.800   0.811   0.789
 2956SOL    HW1 8884   3.899   0.799   0.798
 2956SOL    HW2 8885   3.776   0.906   0.810
 2957SOL     OW 8886   3.854   1.821   1.571
 2957SOL    HW1 8887   3.844   1.806   1.670
 2957SOL    HW2 8888   3.768   1.857   1.535
 2958SOL     OW 8889   4.589   0.348   0.195
 2958SOL    HW1 8890   4.648   0.411   0.146
 2958SOL    HW2 8891   4.608   0.254   0.166
 2959SOL     OW 8892   4.274   0.196   0.885
 2959SOL    HW1 8893   4.269   0.191   0.985
 2959SOL    HW2 8894   4.276   0.292   0.856
 2960SOL     OW 8895   4.732   1.456   0.477
 2960SOL    HW1 8896   4.686   1.528   0.425
 2960SOL    HW2 8897   4.728   1.476   0.575
 2961SOL     OW 8898   4.075   1.801   0.853
 2961SOL    HW1 8899   4.125   1.715   0.859
 2961SOL    HW2 8900   4.140   1.878   0.850
 2962SOL     OW 8901   4.045   0.943   0.242
 2962SOL    HW1 8902   4.127   0.982   0.200
 2962SOL    HW2 8903   4.018   0.861   0.193
 2963SOL     OW 8904   4.185   1.266   1.727
 2963SOL    HW1 8905   4.135   1.267   1.641
 2963SOL    HW2 8906   4.122   1.248   1.803
 2964SOL     OW 8907   3.926   0.285   1.498
 2964SOL    HW1 8908   3.846   0.345   1.485
 2964SOL    HW2 8909   3.916   0.236   1.584
 2965SOL     OW 8910   4.188   1.743   0.323
 2965SOL    HW1 8911   4.221   1.782   0.409
 2965SOL    HW2 8912   4.264   1.736   0.258
 2966SOL     OW 8913   3.973   1.785   1.241
 2966SOL    HW1 8914   4.030   1.720   1.291
 2966SOL    HW2 8915   3.957   1.752   1.148
 2967SOL     OW 8916   4.664   1.698   0.904
 2967SOL    HW1 8917   4.744   1.641   0.925
 2967SOL    HW2 8918   4.615   1.658   0.827
 2968SOL     OW 8919   4.106   0.700   0.480
 2968SOL    HW1 8920   4.151   0.610   0.477
 2968SOL    HW2 8921   4.012   0.689   0.513
 2969SOL     OW 8922   4.338   0.122   0.117
 2969SOL    HW1 8923   4.436   0.100   0.124
 2969SOL    HW2 8924   4.307   0.105   0.024
 2970SOL     OW 8925   4.505   0.264   1.749
 2970SOL    HW1 8926   4.572   0.203   1.792
 2970SOL    HW2 8927   4.432   0.283   1.814
 2971SOL     OW 8928   4.612   1.514   1.195
 2971SOL    HW1 8929   4.589   1.489   1.101
 2971SOL    HW2 8930   4.673   1.445   1.234
 2972SOL     OW 8931   4.527   1.402   0.924
 2972SOL    HW1 8932   4.617   1.416   0.882
 2972SOL    HW2 8933   4.456   1.404   0.853
 2973SOL     OW 8934   4.646   0.503   0.899
 2973SOL    HW1 8935   4.621   0.494   0.803
 2973SOL    HW2 8936   4.694   0.421   0.930
 2974SOL     OW 8937   4.263   0.064   0.512
 2974SOL    HW1 8938   4.182   0.065   0.570
 2974SOL    HW2 8939   4.266   0.147   0.457
 2975SOL     OW 8940   5.158   1.188   0.041
 2975SOL    HW1 8941   5.190   1.112   0.098
 2975SOL    HW2 8942   5.066   1.215   0.071
 2976SOL     OW 8943   4.021   0.035   0.171
 2976SOL    HW1 8944   4.070   0.119   0.150
 2976SOL    HW2 8945   4.083  -0.030   0.216
 2977SOL     OW 8946   4.659   0.236   0.480
 2977SOL    HW1 8947   4.611   0.277   0.402
 2977SOL    HW2 8948   4.758   0.234   0.461
 2978SOL     OW 8949   4.951   1.570   0.793
 2978SOL    HW1 8950   4.972   1.644   0.728
 2978SOL    HW2 8951   5.019   1.570   0.866
 2979SOL     OW 8952   4.183   1.152   0.741
 2979SOL    HW1 8953   4.112   1.125   0.806
 2979SOL    HW2 8954   4.157   1.124   0.648
 2980SOL     OW 8955   4.995   1.797   0.591
 2980SOL    HW1 8956   5.039   1.861   0.527
 2980SOL    HW2 8957   4.945   1.849   0.661
 2981SOL     OW 8958   4.756   0.549   0.016
 2981SOL    HW1 8959   4.715   0.631  -0.023
 2981SOL    HW2 8960   4.820   0.575   0.089
 2982SOL     OW 8961   3.802   0.556   1.386
 2982SOL    HW1 8962   3.894   0.555   1.345
 2982SOL    HW2 8963   3.796   0.630   1.453
 2983SOL     OW 8964   4.285   0.222   1.147
 2983SOL    HW1 8965   4.323   0.138   1.184
 2983SOL    HW2 8966   4.197   0.241   1.191
 2984SOL     OW 8967   4.590   0.454   0.642
 2984SOL    HW1 8968   4.558   0.526   0.580
 2984SOL    HW2 8969   4.614   0.373   0.589
 2985SOL     OW 8970   4.741   0.039   0.753
 2985SOL    HW1 8971   4.669   0.044   0.684
 2985SOL    HW2 8972   4.717  -0.030   0.822
 2986SOL     OW 8973   4.212   1.385   0.174
 2986SOL    HW1 8974   4.125   1.370   0.221
 2986SOL    HW2 8975   4.195   1.411   0.079
 2987SOL     OW 8976   4.251   0.256   0.328
 2987SOL    HW1 8977   4.278   0.197   0.253
 2987SOL    HW2 8978   4.251   0.351   0.297
 2988SOL     OW 8979   4.639   0.089   1.402
 2988SOL    HW1 8980   4.664   0.069   1.307
 2988SOL    HW2 8981   4.711   0.145   1.444
 2989SOL     OW 8982   4.704   1.116   1.719
 2989SOL    HW1 8983   4.605   1.122   1.729
 2989SOL    HW2 8984   4.727   1.036   1.663
 2990SOL     OW 8985   4.429   1.050   0.368
 2990SOL    HW1 8986   4.415   1.057   0.467
 2990SOL    HW2 8987   4.513   0.999   0.350
 2991SOL     OW 8988   4.134   0.813   1.251
 2991SOL    HW1 8989   4.220   0.825   1.301
 2991SOL    HW2 8990   4.092   0.726   1.278
 2992SOL     OW 8991   3.788   1.564   1.331
 2992SOL    HW1 8992   3.742   1.646   1.297
 2992SOL    HW2 8993   3.886   1.583   1.340
 2993SOL     OW 8994   4.091   1.100   0.501
 2993SOL    HW1 8995   4.084   1.183   0.445
 2993SOL    HW2 8996   4.095   1.020   0.441
 2994SOL     OW 8997   4.290   0.537   0.865
 2994SOL    HW1 8998   4.302   0.603   0.791
 2994SOL    HW2 8999   4.336   0.571   0.948
 2995SOL     OW 9000   4.976   1.348   0.388
 2995SOL    HW1 9001   5.026   1.425   0.428
 2995SOL    HW2 9002   4.881   1.350   0.420
 2996SOL     OW 9003   4.078   1.510   1.329
 2996SOL    HW1 9004   4.057   1.466   1.242
 2996SOL    HW2 9005   4.175   1.536   1.332
 2997SOL     OW 9006   4.126   0.751   1.598
 2997SOL    HW1 9007   4.194   0.806   1.551
 2997SOL    HW2 9008   4.166   0.663   1.625
 2998SOL     OW 9009   4.737   0.105   1.770
 2998SOL    HW1 9010   4.743   0.190   1.718
 2998SOL    HW2 9011   4.769   0.029   1.713
 2999SOL     OW 9012   4.228   0.050   1.740
 2999SOL    HW1 9013   4.186  -0.007   1.670
 2999SOL    HW2 9014   4.162   0.119   1.772
 3000SOL     OW 9015   4.297   0.870   1.029
 3000SOL    HW1 9016   4.341   0.959   1.020
 3000SOL    HW2 9017   4.234   0.870   1.106
 3001SOL     OW 9018   4.933   0.525   0.275
 3001SOL    HW1 9019   4.946   0.441   0.329
 3001SOL    HW2 9020   4.904   0.599   0.335
 3002SOL     OW 9021   4.031   0.213   1.231
 3002SOL    HW1 9022   4.008   0.250   1.321
 3002SOL    HW2 9023   4.001   0.118   1.225
 3003SOL     OW 9024   3.761   1.310   1.282
 3003SOL    HW1 9025   3.814   1.261   1.350
 3003SOL    HW2 9026   3.783   1.408   1.287
 3004SOL     OW 9027   4.456   0.634   1.064
 3004SOL    HW1 9028   4.515   0.608   0.988
 3004SOL    HW2 9029   4.428   0.730   1.053
 3005SOL     OW 9030   4.031   0.063   0.618
 3005SOL    HW1 9031   4.020   0.157   0.651
 3005SOL    HW2 9032   4.026   0.000   0.695
 3006SOL     OW 9033   4.747   0.766   0.966
 3006SOL    HW1 9034   4.762   0.787   1.062
 3006SOL    HW2 9035   4.717   0.671   0.957
 3007SOL     OW 9036   4.704   1.573   1.700
 3007SOL    HW1 9037   4.684   1.617   1.612
 3007SOL    HW2 9038   4.743   1.482   1.684
 3008SOL     OW 9039   4.074   0.898   1.804
 3008SOL    HW1 9040   4.150   0.942   1.852
 3008SOL    HW2 9041   4.109   0.851   1.722
 3009SOL     OW 9042   4.792   1.333   0.849
 3009SOL    HW1 9043   4.799   1.249   0.794
 3009SOL    HW2 9044   4.854   1.402   0.813
 3010SOL     OW 9045   4.043   0.810   0.949
 3010SOL    HW1 9046   4.136   0.846   0.954
 3010SOL    HW2 9047   4.037   0.725   1.001
 3011SOL     OW 9048   4.063   0.509   1.006
 3011SOL    HW1 9049   4.011   0.426   0.989
 3011SOL    HW2 9050   4.140   0.514   0.942
 3012SOL     OW 9051   4.862   0.380   1.678
 3012SOL    HW1 9052   4.817   0.443   1.742
 3012SOL    HW2 9053   4.955   0.411   1.661
 3013SOL     OW 9054   3.732   1.326   0.200
 3013SOL    HW1 9055   3.639   1.347   0.169
 3013SOL    HW2 9056   3.742   1.227   0.213
 3014SOL     OW 9057   3.812   1.801   0.927
 3014SOL    HW1 9058   3.770   1.715   0.900
 3014SOL    HW2 9059   3.906   1.804   0.893
 3015SOL     OW 9060   4.228   1.568   0.910
 3015SOL    HW1 9061   4.294   1.642   0.919
 3015SOL    HW2 9062   4.272   1.489   0.868
 3016SOL     OW 9063   4.726   0.796   1.238
 3016SOL    HW1 9064   4.767   0.764   1.324
 3016SOL    HW2 9065   4.630   0.769   1.235
 3017SOL     OW 9066   3.764   0.544   1.114
 3017SOL    HW1 9067   3.849   0.511   1.073
 3017SOL    HW2 9068   3.777   0.559   1.212
 3018SOL     OW 9069   3.913   0.520   1.722
 3018SOL    HW1 9070   3.972   0.480   1.652
 3018SOL    HW2 9071   3.855   0.591   1.681
 3019SOL     OW 9072   4.539   0.572   0.325
 3019SOL    HW1 9073   4.546   0.483   0.279
 3019SOL    HW2 9074   4.445   0.606   0.317
 3020SOL     OW 9075   3.976   1.564   1.744
 3020SOL    HW1 9076   3.946   1.621   1.820
 3020SOL    HW2 9077   3.969   1.467   1.770
 3021SOL     OW 9078   4.395   0.464   1.269
 3021SOL    HW1 9079   4.361   0.375   1.239
 3021SOL    HW2 9080   4.421   0.518   1.189
 3022SOL     OW 9081   4.654   1.678   1.465
 3022SOL    HW1 9082   4.630   1.660   1.370
 3022SOL    HW2 9083   4.684   1.772   1.475
 3023SOL     OW 9084   4.197   0.500   0.191
 3023SOL    HW1 9085   4.258   0.580   0.195
 3023SOL    HW2 9086   4.102   0.531   0.198
 3024SOL     OW 9087   3.883   1.137   1.466
 3024SOL    HW1 9088   3.905   1.076   1.542
 3024SOL    HW2 9089   3.893   1.088   1.380
 3025SOL     OW 9090   5.026   0.855   0.309
 3025SOL    HW1 9091   4.940   0.824   0.351
 3025SOL    HW2 9092   5.022   0.841   0.210
 3026SOL     OW 9093   3.807   1.258   1.022
 3026SOL    HW1 9094   3.802   1.257   1.122
 3026SOL    HW2 9095   3.724   1.217   0.984
 3027SOL     OW 9096   4.412   1.662   1.716
 3027SOL    HW1 9097   4.356   1.743   1.725
 3027SOL    HW2 9098   4.464   1.666   1.630
 3028SOL     OW 9099   4.627   0.086   0.133
 3028SOL    HW1 9100   4.678   0.087   0.047
 3028SOL    HW2 9101   4.683   0.044   0.204
 3029SOL     OW 9102   3.854   1.794   1.851
 3029SOL    HW1 9103   3.813   1.720   1.904
 3029SOL    HW2 9104   3.918   1.845   1.909
 3030SOL     OW 9105   4.554   1.273   1.422
 3030SOL    HW1 9106   4.549   1.306   1.517
 3030SOL    HW2 9107   4.468   1.292   1.376
 3031SOL     OW 9108   4.396   1.616   0.154
 3031SOL    HW1 9109   4.405   1.626   0.055
 3031SOL    HW2 9110   4.356   1.527   0.175
 3032SOL     OW 9111   3.987   0.326   0.720
 3032SOL    HW1 9112   3.908   0.377   0.686
 3032SOL    HW2 9113   3.978   0.311   0.818
 3033SOL     OW 9114   4.546   1.002   1.372
 3033SOL    HW1 9115   4.586   1.001   1.280
 3033SOL    HW2 9116   4.556   1.094   1.412
 3034SOL     OW 9117   4.640   0.910   0.291
 3034SOL    HW1 9118   4.703   0.948   0.223
 3034SOL    HW2 9119   4.680   0.827   0.330
 3035SOL     OW 9120   4.096   1.288   1.490
 3035SOL    HW1 9121   4.083   1.381   1.456
 3035SOL    HW2 9122   4.012   1.236   1.477
 3036SOL     OW 9123   4.763   1.098   0.696
 3036SOL    HW1 9124   4.693   1.051   0.750
 3036SOL    HW2 9125   4.822   1.030   0.653
 3037SOL     OW 9126   4.738   0.236   0.971
 3037SOL    HW1 9127   4.730   0.200   0.878
 3037SOL    HW2 9128   4.736   0.160   1.036
 3038SOL     OW 9129   4.314   1.487   0.491
 3038SOL    HW1 9130   4.356   1.429   0.421
 3038SOL    HW2 9131   4.270   1.566   0.447
 3039SOL     OW 9132   3.979   1.348   0.290
 3039SOL    HW1 9133   3.883   1.349   0.263
 3039SOL    HW2 9134   3.991   1.401   0.374
 3040SOL     OW 9135   3.829   1.013   1.726
 3040SOL    HW1 9136   3.752   0.980   1.780
 3040SOL    HW2 9137   3.914   0.983   1.768
 3041SOL     OW 9138   4.396   0.203   1.489
 3041SOL    HW1 9139   4.486   0.187   1.449
 3041SOL    HW2 9140   4.404   0.208   1.588
 3042SOL     OW 9141   3.796   0.166   0.318
 3042SOL    HW1 9142   3.779   0.249   0.264
 3042SOL    HW2 9143   3.886   0.129   0.296
 3043SOL     OW 9144   4.337   0.842   1.431
 3043SOL    HW1 9145   4.393   0.923   1.414
 3043SOL    HW2 9146   4.396   0.762   1.434
 3044SOL     OW 9147   4.440   0.565   1.708
 3044SOL    HW1 9148   4.459   0.630   1.782
 3044SOL    HW2 9149   4.500   0.485   1.717
 3045SOL     OW 9150   4.114   1.741   1.560
 3045SOL    HW1 9151   4.023   1.782   1.558
 3045SOL    HW2 9152   4.107   1.647   1.592
 3046SOL     OW 9153   4.318   0.745   0.652
 3046SOL    HW1 9154   4.368   0.830   0.633
 3046SOL    HW2 9155   4.230   0.747   0.604
 3047SOL     OW 9156   4.583   1.374   0.016
 3047SOL    HW1 9157   4.537   1.389   0.104
 3047SOL    HW2 9158   4.627   1.459  -0.014
 3048SOL     OW 9159   4.385   1.790   0.953
 3048SOL    HW1 9160   4.339   1.878   0.940
 3048SOL    HW2 9161   4.484   1.802   0.946
 3049SOL     OW 9162   4.583   0.956   0.861
 3049SOL    HW1 9163   4.637   0.887   0.909
 3049SOL    HW2 9164   4.551   1.025   0.927
 3050SOL     OW 9165   4.807   0.984   0.087
 3050SOL    HW1 9166   4.784   1.037   0.005
 3050SOL    HW2 9167   4.888   0.928   0.068
 3051SOL     OW 9168   3.945   1.314   1.844
 3051SOL    HW1 9169   3.880   1.241   1.823
 3051SOL    HW2 9170   3.949   1.328   1.942
 3052SOL     OW 9171   3.803   1.240   0.653
 3052SOL    HW1 9172   3.802   1.193   0.741
 3052SOL    HW2 9173   3.885   1.212   0.602
 3053SOL     OW 9174   4.396   1.391   1.624
 3053SOL    HW1 9175   4.318   1.341   1.662
 3053SOL    HW2 9176   4.393   1.486   1.655
 3054SOL     OW 9177   4.152   0.424   0.520
 3054SOL    HW1 9178   4.182   0.352   0.458
 3054SOL    HW2 9179   4.113   0.384   0.603
 3055SOL     OW 9180   4.041   0.547   1.280
 3055SOL    HW1 9181   4.079   0.488   1.352
 3055SOL    HW2 9182   4.081   0.521   1.192
 3056SOL     OW 9183   4.536   1.586   0.687
 3056SOL    HW1 9184   4.568   1.596   0.593
 3056SOL    HW2 9185   4.457   1.524   0.689
 3057SOL     OW 9186   4.725   0.034   1.154
 3057SOL    HW1 9187   4.662  -0.038   1.123
 3057SOL    HW2 9188   4.818  -0.002   1.154
 3058SOL     OW 9189   4.494   1.330   0.301
 3058SOL    HW1 9190   4.448   1.243   0.318
 3058SOL    HW2 9191   4.585   1.327   0.342
 3059SOL     OW 9192   4.342   1.567   1.284
 3059SOL    HW1 9193   4.337   1.649   1.341
 3059SOL    HW2 9194   4.431   1.564   1.239
 3060SOL     OW 9195   3.763   1.077   0.300
 3060SOL    HW1 9196   3.862   1.066   0.291
 3060SOL    HW2 9197   3.723   0.991   0.332
 3061SOL     OW 9198   4.599   1.646   0.337
 3061SOL    HW1 9199   4.522   1.611   0.283
 3061SOL    HW2 9200   4.567   1.717   0.399
 3062SOL     OW 9201   3.954   0.628   1.975
 3062SOL    HW1 9202   3.861   0.626   2.012
 3062SOL    HW2 9203   3.955   0.589   1.883
 3063SOL     OW 9204   3.949   0.275   2.858
 3063SOL    HW1 9205   3.984   0.258   2.950
 3063SOL    HW2 9206   3.861   0.230   2.846
 3064SOL     OW 9207   3.743   0.368   2.509
 3064SOL    HW1 9208   3.661   0.411   2.548
 3064SOL    HW2 9209   3.715   0.295   2.446
 3065SOL     OW 9210   4.293   1.275   3.027
 3065SOL    HW1 9211   4.200   1.268   2.990
 3065SOL    HW2 9212   4.304   1.364   3.071
 3066SOL     OW 9213   4.492   1.144   2.885
 3066SOL    HW1 9214   4.414   1.161   2.945
 3066SOL    HW2 9215   4.526   1.231   2.849
 3067SOL     OW 9216   4.574   0.798   3.685
 3067SOL    HW1 9217   4.570   0.874   3.750
 3067SOL    HW2 9218   4.596   0.834   3.594
 3068SOL     OW 9219   4.409   1.012   2.527
 3068SOL    HW1 9220   4.478   0.996   2.597
 3068SOL    HW2 9221   4.336   1.069   2.565
 3069SOL     OW 9222   4.410   1.161   3.665
 3069SOL    HW1 9223   4.470   1.240   3.679
 3069SOL    HW2 9224   4.324   1.192   3.624
 3070SOL     OW 9225   4.059   1.435   2.923
 3070SOL    HW1 9226   3.981   1.404   2.870
 3070SOL    HW2 9227   4.117   1.493   2.866
 3071SOL     OW 9228   4.162   0.392   3.361
 3071SOL    HW1 9229   4.244   0.336   3.370
 3071SOL    HW2 9230   4.081   0.334   3.365
 3072SOL     OW 9231   3.955   1.713   2.345
 3072SOL    HW1 9232   3.989   1.790   2.399
 3072SOL    HW2 9233   3.999   1.713   2.255
 3073SOL     OW 9234   4.851   1.341   3.552
 3073SOL    HW1 9235   4.898   1.341   3.640
 3073SOL    HW2 9236   4.803   1.254   3.541
 3074SOL     OW 9237   3.954   1.434   2.400
 3074SOL    HW1 9238   3.928   1.530   2.400
 3074SOL    HW2 9239   3.883   1.380   2.445
 3075SOL     OW 9240   3.964   1.091   2.748
 3075SOL    HW1 9241   3.978   1.007   2.800
 3075SOL    HW2 9242   3.909   1.155   2.803
 3076SOL     OW 9243   4.344   1.786   3.301
 3076SOL    HW1 9244   4.252   1.769   3.336
 3076SOL    HW2 9245   4.372   1.878   3.327
 3077SOL     OW 9246   4.330   0.964   1.985
 3077SOL    HW1 9247   4.337   1.048   1.931
 3077SOL    HW2 9248   4.376   0.977   2.073
 3078SOL     OW 9249   3.846   0.643   2.425
 3078SOL    HW1 9250   3.801   0.555   2.442
 3078SOL    HW2 9251   3.845   0.697   2.509
 3079SOL     OW 9252   3.751   1.596   1.979
 3079SOL    HW1 9253   3.732   1.500   2.000
 3079SOL    HW2 9254   3.718   1.654   2.054
 3080SOL     OW 9255   3.837   0.737   3.459
 3080SOL    HW1 9256   3.925   0.724   3.504
 3080SOL    HW2 9257   3.824   0.834   3.437
 3081SOL     OW 9258   4.337   1.365   2.588
 3081SOL    HW1 9259   4.288   1.278   2.597
 3081SOL    HW2 9260   4.314   1.408   2.501
 3082SOL     OW 9261   4.533   0.004   2.364
 3082SOL    HW1 9262   4.573   0.095   2.355
 3082SOL    HW2 9263   4.433   0.012   2.370
 3083SOL     OW 9264   3.921   0.976   3.126
 3083SOL    HW1 9265   4.010   0.931   3.112
 3083SOL    HW2 9266   3.848   0.911   3.107
 3084SOL     OW 9267   4.041   0.251   3.663
 3084SOL    HW1 9268   4.112   0.322   3.669
 3084SOL    HW2 9269   3.953   0.290   3.691
 3085SOL     OW 9270   4.322   0.729   2.132
 3085SOL    HW1 9271   4.346   0.798   2.064
 3085SOL    HW2 9272   4.244   0.762   2.186
 3086SOL     OW 9273   4.531   0.605   3.327
 3086SOL    HW1 9274   4.484   0.602   3.416
 3086SOL    HW2 9275   4.480   0.550   3.261
 3087SOL     OW 9276   4.697   0.890   3.434
 3087SOL    HW1 9277   4.743   0.806   3.405
 3087SOL    HW2 9278   4.641   0.924   3.359
 3088SOL     OW 9279   4.715   0.410   3.104
 3088SOL    HW1 9280   4.638   0.444   3.158
 3088SOL    HW2 9281   4.681   0.359   3.025
 3089SOL     OW 9282   4.765   0.701   2.291
 3089SOL    HW1 9283   4.791   0.697   2.387
 3089SOL    HW2 9284   4.680   0.650   2.277
 3090SOL     OW 9285   3.800   0.811   2.651
 3090SOL    HW1 9286   3.899   0.799   2.660
 3090SOL    HW2 9287   3.776   0.906   2.672
 3091SOL     OW 9288   3.854   1.821   3.433
 3091SOL    HW1 9289   3.844   1.806   3.532
 3091SOL    HW2 9290   3.768   1.857   3.397
 3092SOL     OW 9291   4.589   0.348   2.057
 3092SOL    HW1 9292   4.648   0.411   2.008
 3092SOL    HW2 9293   4.608   0.254   2.028
 3093SOL     OW 9294   4.274   0.196   2.747
 3093SOL    HW1 9295   4.269   0.191   2.847
 3093SOL    HW2 9296   4.276   0.292   2.718
 3094SOL     OW 9297   4.732   1.456   2.339
 3094SOL    HW1 9298   4.686   1.528   2.287
 3094SOL    HW2 9299   4.728   1.476   2.437
 3095SOL     OW 9300   4.075   1.801   2.715
 3095SOL    HW1 9301   4.125   1.715   2.721
 3095SOL    HW2 9302   4.140   1.878   2.712
 3096SOL     OW 9303   4.045   0.943   2.104
 3096SOL    HW1 9304   4.127   0.982   2.062
 3096SOL    HW2 9305   4.018   0.861   2.055
 3097SOL     OW 9306   4.185   1.266   3.589
 3097SOL    HW1 9307   4.135   1.267   3.503
 3097SOL    HW2 9308   4.122   1.248   3.665
 3098SOL     OW 9309   3.926   0.285   3.360
 3098SOL    HW1 9310   3.846   0.345   3.347
 3098SOL    HW2 9311   3.916   0.236   3.446
 3099SOL     OW 9312   4.188   1.743   2.185
 3099SOL    HW1 9313   4.221   1.782   2.271
 3099SOL    HW2 9314   4.264   1.736   2.120
 3100SOL     OW 9315   3.973   1.785   3.103
 3100SOL    HW1 9316   4.030   1.720   3.153
 3100SOL    HW2 9317   3.957   1.752   3.010
 3101SOL     OW 9318   4.664   1.698   2.766
 3101SOL    HW1 9319   4.744   1.641   2.787
 3101SOL    HW2 9320   4.615   1.658   2.689
 3102SOL     OW 9321   4.106   0.700   2.342
 3102SOL    HW1 9322   4.151   0.610   2.339
 3102SOL    HW2 9323   4.012   0.689   2.375
 3103SOL     OW 9324   4.338   0.122   1.979
 3103SOL    HW1 9325   4.436   0.100   1.986
 3103SOL    HW2 9326   4.307   0.105   1.886
 3104SOL     OW 9327   4.505   0.264   3.611
 3104SOL    HW1 9328   4.572   0.203   3.654
 3104SOL    HW2 9329   4.432   0.283   3.676
 3105SOL     OW 9330   4.612   1.514   3.057
 3105SOL    HW1 9331   4.589   1.489   2.963
 3105SOL    HW2 9332   4.673   1.445   3.096
 3106SOL     OW 9333   4.527   1.402   2.786
 3106SOL    HW1 9334   4.617   1.416   2.744
 3106SOL    HW2 9335   4.456   1.404   2.715
 3107SOL     OW 9336   4.646   0.503   2.761
 3107SOL    HW1 9337   4.621   0.494   2.665
 3107SOL    HW2 9338   4.694   0.421   2.792
 3108SOL     OW 9339   4.263   0.064   2.374
 3108SOL    HW1 9340   4.182   0.065   2.432
 3108SOL    HW2 9341   4.266   0.147   2.319
 3109SOL     OW 9342   4.021   0.035   2.033
 3109SOL    HW1 9343   4.070   0.119   2.012
 3109SOL    HW2 9344   4.083  -0.030   2.078
 3110SOL     OW 9345   4.659   0.236   2.342
 3110SOL    HW1 9346   4.611   0.277   2.264
 3110SOL    HW2 9347   4.758   0.234   2.323
 3111SOL     OW 9348   4.951   1.570   2.655
 3111SOL    HW1 9349   4.972   1.644   2.590
 3111SOL    HW2 9350   5.019   1.570   2.728
 3112SOL     OW 9351   4.183   1.152   2.603
 3112SOL    HW1 9352   4.112   1.125   2.668
 3112SOL    HW2 9353   4.157   1.124   2.510
 3113SOL     OW 9354   4.995   1.797   2.453
 3113SOL    HW1 9355   5.039   1.861   2.389
 3113SOL    HW2 9356   4.945   1.849   2.523
 3114SOL     OW 9357   4.756   0.549   1.878
 3114SOL    HW1 9358   4.715   0.631   1.839
 3114SOL    HW2 9359   4.820   0.575   1.951
 3115SOL     OW 9360   3.802   0.556   3.248
 3115SOL    HW1 9361   3.894   0.555   3.207
 3115SOL    HW2 9362   3.796   0.630   3.315
 3116SOL     OW 9363   4.285   0.222   3.009
 3116SOL    HW1 9364   4.323   0.138   3.046
 3116SOL    HW2 9365   4.197   0.241   3.053
 3117SOL     OW 9366   4.590   0.454   2.504
 3117SOL    HW1 9367   4.558   0.526   2.442
 3117SOL    HW2 9368   4.614   0.373   2.451
 3118SOL     OW 9369   4.741   0.039   2.615
 3118SOL    HW1 9370   4.669   0.044   2.546
 3118SOL    HW2 9371   4.717  -0.030   2.684
 3119SOL     OW 9372   4.212   1.385   2.036
 3119SOL    HW1 9373   4.125   1.370   2.083
 3119SOL    HW2 9374   4.195   1.411   1.941
 3120SOL     OW 9375   4.251   0.256   2.190
 3120SOL    HW1 9376   4.278   0.197   2.115
 3120SOL    HW2 9377   4.251   0.351   2.159
 3121SOL     OW 9378   4.639   0.089   3.264
 3121SOL    HW1 9379   4.664   0.069   3.169
 3121SOL    HW2 9380   4.711   0.145   3.306
 3122SOL     OW 9381   4.704   1.116   3.581
 3122SOL    HW1 9382   4.605   1.122   3.591
 3122SOL    HW2 9383   4.727   1.036   3.525
 3123SOL     OW 9384   4.429   1.050   2.230
 3123SOL    HW1 9385   4.415   1.057   2.329
 3123SOL    HW2 9386   4.513   0.999   2.212
 3124SOL     OW 9387   4.134   0.813   3.113
 3124SOL    HW1 9388   4.220   0.825   3.163
 3124SOL    HW2 9389   4.092   0.726   3.140
 3125SOL     OW 9390   3.788   1.564   3.193
 3125SOL    HW1 9391   3.742   1.646   3.159
 3125SOL    HW2 9392   3.886   1.583   3.202
 3126SOL     OW 9393   4.091   1.100   2.363
 3126SOL    HW1 9394   4.084   1.183   2.307
 3126SOL    HW2 9395   4.095   1.020   2.303
 3127SOL     OW 9396   4.290   0.537   2.727
 3127SOL    HW1 9397   4.302   0.603   2.653
 3127SOL    HW2 9398   4.336   0.571   2.810
 3128SOL     OW 9399   4.976   1.348   2.250
 3128SOL    HW1 9400   5.026   1.425   2.290
 3128SOL    HW2 9401   4.881   1.350   2.282
 3129SOL     OW 9402   4.078   1.510   3.191
 3129SOL    HW1 9403   4.057   1.466   3.104
 3129SOL    HW2 9404   4.175   1.536   3.194
 3130SOL     OW 9405   4.126   0.751   3.460
 3130SOL    HW1 9406   4.194   0.806   3.413
 3130SOL    HW2 9407   4.166   0.663   3.487
 3131SOL     OW 9408   4.737   0.105   3.632
 3131SOL    HW1 9409   4.743   0.190   3.580
 3131SOL    HW2 9410   4.769   0.029   3.575
 3132SOL     OW 9411   4.228   0.050   3.602
 3132SOL    HW1 9412   4.186  -0.007   3.532
 3132SOL    HW2 9413   4.162   0.119   3.634
 3133SOL     OW 9414   4.297   0.870   2.891
 3133SOL    HW1 9415   4.341   0.959   2.882
 3133SOL    HW2 9416   4.234   0.870   2.968
 3134SOL     OW 9417   4.933   0.525   2.137
 3134SOL    HW1 9418   4.946   0.441   2.191
 3134SOL    HW2 9419   4.904   0.599   2.197
 3135SOL     OW 9420   4.031   0.213   3.093
 3135SOL    HW1 9421   4.008   0.250   3.183
 3135SOL    HW2 9422   4.001   0.118   3.087
 3136SOL     OW 9423   3.761   1.310   3.144
 3136SOL    HW1 9424   3.814   1.261   3.212
 3136SOL    HW2 9425   3.783   1.408   3.149
 3137SOL     OW 9426   4.456   0.634   2.926
 3137SOL    HW1 9427   4.515   0.608   2.850
 3137SOL    HW2 9428   4.428   0.730   2.915
 3138SOL     OW 9429   4.031   0.063   2.480
 3138SOL    HW1 9430   4.020   0.157   2.513
 3138SOL    HW2 9431   4.026   0.000   2.557
 3139SOL     OW 9432   4.747   0.766   2.828
 3139SOL    HW1 9433   4.762   0.787   2.924
 3139SOL    HW2 9434   4.717   0.671   2.819
 3140SOL     OW 9435   4.704   1.573   3.562
 3140SOL    HW1 9436   4.684   1.617   3.474
 3140SOL    HW2 9437   4.743   1.482   3.546
 3141SOL     OW 9438   4.074   0.898   3.666
 3141SOL    HW1 9439   4.150   0.942   3.714
 3141SOL    HW2 9440   4.109   0.851   3.584
 3142SOL     OW 9441   4.792   1.333   2.711
 3142SOL    HW1 9442   4.799   1.249   2.656
 3142SOL    HW2 9443   4.854   1.402   2.675
 3143SOL     OW 9444   4.043   0.810   2.811
 3143SOL    HW1 9445   4.136   0.846   2.816
 3143SOL    HW2 9446   4.037   0.725   2.863
 3144SOL     OW 9447   4.063   0.509   2.868
 3144SOL    HW1 9448   4.011   0.426   2.851
 3144SOL    HW2 9449   4.140   0.514   2.804
 3145SOL     OW 9450   4.862   0.380   3.540
 3145SOL    HW1 9451   4.817   0.443   3.604
 3145SOL    HW2 9452   4.955   0.411   3.523
 3146SOL     OW 9453   3.732   1.326   2.062
 3146SOL    HW1 9454   3.639   1.347   2.031
 3146SOL    HW2 9455   3.742   1.227   2.075
 3147SOL     OW 9456   3.812   1.801   2.789
 3147SOL    HW1 9457   3.770   1.715   2.762
 3147SOL    HW2 9458   3.906   1.804   2.755
 3148SOL     OW 9459   4.228   1.568   2.772
 3148SOL    HW1 9460   4.294   1.642   2.781
 3148SOL    HW2 9461   4.272   1.489   2.730
 3149SOL     OW 9462   4.726   0.796   3.100
 3149SOL    HW1 9463   4.767   0.764   3.186
 3149SOL    HW2 9464   4.630   0.769   3.097
 3150SOL     OW 9465   3.764   0.544   2.976
 3150SOL    HW1 9466   3.849   0.511   2.935
 3150SOL    HW2 9467   3.777   0.559   3.074
 3151SOL     OW 9468   3.913   0.520   3.584
 3151SOL    HW1 9469   3.972   0.480   3.514
 3151SOL    HW2 9470   3.855   0.591   3.543
 3152SOL     OW 9471   4.539   0.572   2.187
 3152SOL    HW1 9472   4.546   0.483   2.141
 3152SOL    HW2 9473   4.445   0.606   2.179
 3153SOL     OW 9474   3.976   1.564   3.606
 3153SOL    HW1 9475   3.946   1.621   3.682
 3153SOL    HW2 9476   3.969   1.467   3.632
 3154SOL     OW 9477   4.395   0.464   3.131
 3154SOL    HW1 9478   4.361   0.375   3.101
 3154SOL    HW2 9479   4.421   0.518   3.051
 3155SOL     OW 9480   4.654   1.678   3.327
 3155SOL    HW1 9481   4.630   1.660   3.232
 3155SOL    HW2 9482   4.684   1.772   3.337
 3156SOL     OW 9483   4.197   0.500   2.053
 3156SOL    HW1 9484   4.258   0.580   2.057
 3156SOL    HW2 9485   4.102   0.531   2.060
 3157SOL     OW 9486   3.883   1.137   3.328
 3157SOL    HW1 9487   3.905   1.076   3.404
 3157SOL    HW2 9488   3.893   1.088   3.242
 3158SOL     OW 9489   5.026   0.855   2.171
 3158SOL    HW1 9490   4.940   0.824   2.213
 3158SOL    HW2 9491   5.022   0.841   2.072
 3159SOL     OW 9492   3.807   1.258   2.884
 3159SOL    HW1 9493   3.802   1.257   2.984
 3159SOL    HW2 9494   3.724   1.217   2.846
 3160SOL     OW 9495   4.412   1.662   3.578
 3160SOL    HW1 9496   4.356   1.743   3.587
 3160SOL    HW2 9497   4.464   1.666   3.492
 3161SOL     OW 9498   3.854   1.794   3.713
 3161SOL    HW1 9499   3.813   1.720   3.766
 3161SOL    HW2 9500   3.918   1.845   3.771
 3162SOL     OW 9501   4.554   1.273   3.284
 3162SOL    HW1 9502   4.549   1.306   3.379
 3162SOL    HW2 9503   4.468   1.292   3.238
 3163SOL     OW 9504   4.396   1.616   2.016
 3163SOL    HW1 9505   4.405   1.626   1.917
 3163SOL    HW2 9506   4.356   1.527   2.037
 3164SOL     OW 9507   3.987   0.326   2.582
 3164SOL    HW1 9508   3.908   0.377   2.548
 3164SOL    HW2 9509   3.978   0.311   2.680
 3165SOL     OW 9510   4.546   1.002   3.234
 3165SOL    HW1 9511   4.586   1.001   3.142
 3165SOL    HW2 9512   4.556   1.094   3.274
 3166SOL     OW 9513   4.640   0.910   2.153
 3166SOL    HW1 9514   4.703   0.948   2.085
 3166SOL    HW2 9515   4.680   0.827   2.192
 3167SOL     OW 9516   4.096   1.288   3.352
 3167SOL    HW1 9517   4.083   1.381   3.318
 3167SOL    HW2 9518   4.012   1.236   3.339
 3168SOL     OW 9519   4.763   1.098   2.558
 3168SOL    HW1 9520   4.693   1.051   2.612
 3168SOL    HW2 9521   4.822   1.030   2.515
 3169SOL     OW 9522   4.738   0.236   2.833
 3169SOL    HW1 9523   4.730   0.200   2.740
 3169SOL    HW2 9524   4.736   0.160   2.898
 3170SOL     OW 9525   4.314   1.487   2.353
 3170SOL    HW1 9526   4.356   1.429   2.283
 3170SOL    HW2 9527   4.270   1.566   2.309
 3171SOL     OW 9528   3.979   1.348   2.152
 3171SOL    HW1 9529   3.883   1.349   2.125
 3171SOL    HW2 9530   3.991   1.401   2.236
 3172SOL     OW 9531   3.829   1.013   3.588
 3172SOL    HW1 9532   3.752   0.980   3.642
 3172SOL    HW2 9533   3.914   0.983   3.630
 3173SOL     OW 9534   4.396   0.203   3.351
 3173SOL    HW1 9535   4.486   0.187   3.311
 3173SOL    HW2 9536   4.404   0.208   3.450
 3174SOL     OW 9537   3.799   0.345   1.895
 3174SOL    HW1 9538   3.707   0.317   1.866
 3174SOL    HW2 9539   3.830   0.422   1.839
 3175SOL     OW 9540   3.796   0.166   2.180
 3175SOL    HW1 9541   3.779   0.249   2.126
 3175SOL    HW2 9542   3.886   0.129   2.158
 3176SOL     OW 9543   4.337   0.842   3.293
 3176SOL    HW1 9544   4.393   0.923   3.276
 3176SOL    HW2 9545   4.396   0.762   3.296
 3177SOL     OW 9546   4.440   0.565   3.570
 3177SOL    HW1 9547   4.459   0.630   3.644
 3177SOL    HW2 9548   4.500   0.485   3.579
 3178SOL     OW 9549   4.114   1.741   3.422
 3178SOL    HW1 9550   4.023   1.782   3.420
 3178SOL    HW2 9551   4.107   1.647   3.454
 3179SOL     OW 9552   4.318   0.745   2.514
 3179SOL    HW1 9553   4.368   0.830   2.495
 3179SOL    HW2 9554   4.230   0.747   2.466
 3180SOL     OW 9555   4.583   1.374   1.878
 3180SOL    HW1 9556   4.537   1.389   1.966
 3180SOL    HW2 9557   4.627   1.459   1.848
 3181SOL     OW 9558   4.385   1.790   2.815
 3181SOL    HW1 9559   4.339   1.878   2.802
 3181SOL    HW2 9560   4.484   1.802   2.808
 3182SOL     OW 9561   4.583   0.956   2.723
 3182SOL    HW1 9562   4.637   0.887   2.771
 3182SOL    HW2 9563   4.551   1.025   2.789
 3183SOL     OW 9564   4.807   0.984   1.949
 3183SOL    HW1 9565   4.784   1.037   1.867
 3183SOL    HW2 9566   4.888   0.928   1.930
 3184SOL     OW 9567   3.945   1.314   3.706
 3184SOL    HW1 9568   3.880   1.241   3.685
 3184SOL    HW2 9569   3.949   1.328   3.804
 3185SOL     OW 9570   3.803   1.240   2.515
 3185SOL    HW1 9571   3.802   1.193   2.603
 3185SOL    HW2 9572   3.885   1.212   2.464
 3186SOL     OW 9573   4.396   1.391   3.486
 3186SOL    HW1 9574   4.318   1.341   3.524
 3186SOL    HW2 9575   4.393   1.486   3.517
 3187SOL     OW 9576   4.152   0.424   2.382
 3187SOL    HW1 9577   4.182   0.352   2.320
 3187SOL    HW2 9578   4.113   0.384   2.465
 3188SOL     OW 9579   4.041   0.547   3.142
 3188SOL    HW1 9580   4.079   0.488   3.214
 3188SOL    HW2 9581   4.081   0.521   3.054
 3189SOL     OW 9582   4.536   1.586   2.549
 3189SOL    HW1 9583   4.568   1.596   2.455
 3189SOL    HW2 9584   4.457   1.524   2.551
 3190SOL     OW 9585   4.725   0.034   3.016
 3190SOL    HW1 9586   4.662  -0.038   2.985
 3190SOL    HW2 9587   4.818  -0.002   3.016
 3191SOL     OW 9588   4.494   1.330   2.163
 3191SOL    HW1 9589   4.448   1.243   2.180
 3191SOL    HW2 9590   4.585   1.327   2.204
 3192SOL     OW 9591   4.342   1.567   3.146
 3192SOL    HW1 9592   4.337   1.649   3.203
 3192SOL    HW2 9593   4.431   1.564   3.101
 3193SOL     OW 9594   3.763   1.077   2.162
 3193SOL    HW1 9595   3.862   1.066   2.153
 3193SOL    HW2 9596   3.723   0.991   2.194
 3194SOL     OW 9597   4.599   1.646   2.199
 3194SOL    HW1 9598   4.522   1.611   2.145
 3194SOL    HW2 9599   4.567   1.717   2.261
 3195SOL     OW 9600   3.954   0.628   3.837
 3195SOL    HW1 9601   3.861   0.626   3.874
 3195SOL    HW2 9602   3.955   0.589   3.745
 3196SOL     OW 9603   3.949   0.275   4.720
 3196SOL    HW1 9604   3.984   0.258   4.812
 3196SOL    HW2 9605   3.861   0.230   4.708
 3197SOL     OW 9606   3.743   0.368   4.371
 3197SOL    HW1 9607   3.661   0.411   4.410
 3197SOL    HW2 9608   3.715   0.295   4.308
 3198SOL     OW 9609   4.492   1.144   4.747
 3198SOL    HW1 9610   4.414   1.161   4.807
 3198SOL    HW2 9611   4.526   1.231   4.711
 3199SOL     OW 9612   4.409   1.012   4.389
 3199SOL    HW1 9613   4.478   0.996   4.459
 3199SOL    HW2 9614   4.336   1.069   4.427
 3200SOL     OW 9615   4.059   1.435   4.785
 3200SOL    HW1 9616   3.981   1.404   4.732
 3200SOL    HW2 9617   4.117   1.493   4.728
 3201SOL     OW 9618   3.955   1.713   4.207
 3201SOL    HW1 9619   3.989   1.790   4.261
 3201SOL    HW2 9620   3.999   1.713   4.117
 3202SOL     OW 9621   3.954   1.434   4.262
 3202SOL    HW1 9622   3.928   1.530   4.262
 3202SOL    HW2 9623   3.883   1.380   4.307
 3203SOL     OW 9624   3.964   1.091   4.610
 3203SOL    HW1 9625   3.978   1.007   4.662
 3203SOL    HW2 9626   3.909   1.155   4.665
 3204SOL     OW 9627   4.330   0.964   3.847
 3204SOL    HW1 9628   4.337   1.048   3.793
 3204SOL    HW2 9629   4.376   0.977   3.935
 3205SOL     OW 9630   3.846   0.643   4.287
 3205SOL    HW1 9631   3.801   0.555   4.304
 3205SOL    HW2 9632   3.845   0.697   4.371
 3206SOL     OW 9633   3.751   1.596   3.841
 3206SOL    HW1 9634   3.732   1.500   3.862
 3206SOL    HW2 9635   3.718   1.654   3.916
 3207SOL     OW 9636   4.337   1.365   4.450
 3207SOL    HW1 9637   4.288   1.278   4.459
 3207SOL    HW2 9638   4.314   1.408   4.363
 3208SOL     OW 9639   4.533   0.004   4.226
 3208SOL    HW1 9640   4.573   0.095   4.217
 3208SOL    HW2 9641   4.433   0.012   4.232
 3209SOL     OW 9642   3.921   0.976   4.988
 3209SOL    HW1 9643   4.010   0.931   4.974
 3209SOL    HW2 9644   3.848   0.911   4.969
 3210SOL     OW 9645   4.322   0.729   3.994
 3210SOL    HW1 9646   4.346   0.798   3.926
 3210SOL    HW2 9647   4.244   0.762   4.048
 3211SOL     OW 9648   4.765   0.701   4.153
 3211SOL    HW1 9649   4.791   0.697   4.249
 3211SOL    HW2 9650   4.680   0.650   4.139
 3212SOL     OW 9651   3.800   0.811   4.513
 3212SOL    HW1 9652   3.899   0.799   4.522
 3212SOL    HW2 9653   3.776   0.906   4.534
 3213SOL     OW 9654   4.589   0.348   3.919
 3213SOL    HW1 9655   4.648   0.411   3.870
 3213SOL    HW2 9656   4.608   0.254   3.890
 3214SOL     OW 9657   4.274   0.196   4.609
 3214SOL    HW1 9658   4.269   0.191   4.709
 3214SOL    HW2 9659   4.276   0.292   4.580
 3215SOL     OW 9660   4.732   1.456   4.201
 3215SOL    HW1 9661   4.686   1.528   4.149
 3215SOL    HW2 9662   4.728   1.476   4.299
 3216SOL     OW 9663   4.075   1.801   4.577
 3216SOL    HW1 9664   4.125   1.715   4.583
 3216SOL    HW2 9665   4.140   1.878   4.574
 3217SOL     OW 9666   4.045   0.943   3.966
 3217SOL    HW1 9667   4.127   0.982   3.924
 3217SOL    HW2 9668   4.018   0.861   3.917
 3218SOL     OW 9669   4.188   1.743   4.047
 3218SOL    HW1 9670   4.221   1.782   4.133
 3218SOL    HW2 9671   4.264   1.736   3.982
 3219SOL     OW 9672   3.973   1.785   4.965
 3219SOL    HW1 9673   4.030   1.720   5.015
 3219SOL    HW2 9674   3.957   1.752   4.872
 3220SOL     OW 9675   4.664   1.698   4.628
 3220SOL    HW1 9676   4.744   1.641   4.649
 3220SOL    HW2 9677   4.615   1.658   4.551
 3221SOL     OW 9678   4.106   0.700   4.204
 3221SOL    HW1 9679   4.151   0.610   4.201
 3221SOL    HW2 9680   4.012   0.689   4.237
 3222SOL     OW 9681   4.338   0.122   3.841
 3222SOL    HW1 9682   4.436   0.100   3.848
 3222SOL    HW2 9683   4.307   0.105   3.748
 3223SOL     OW 9684   4.527   1.402   4.648
 3223SOL    HW1 9685   4.617   1.416   4.606
 3223SOL    HW2 9686   4.456   1.404   4.577
 3224SOL     OW 9687   4.646   0.503   4.623
 3224SOL    HW1 9688   4.621   0.494   4.527
 3224SOL    HW2 9689   4.694   0.421   4.654
 3225SOL     OW 9690   4.263   0.064   4.236
 3225SOL    HW1 9691   4.182   0.065   4.294
 3225SOL    HW2 9692   4.266   0.147   4.181
 3226SOL     OW 9693   4.021   0.035   3.895
 3226SOL    HW1 9694   4.070   0.119   3.874
 3226SOL    HW2 9695   4.083  -0.030   3.940
 3227SOL     OW 9696   4.659   0.236   4.204
 3227SOL    HW1 9697   4.611   0.277   4.126
 3227SOL    HW2 9698   4.758   0.234   4.185
 3228SOL     OW 9699   4.951   1.570   4.517
 3228SOL    HW1 9700   4.972   1.644   4.452
 3228SOL    HW2 9701   5.019   1.570   4.590
 3229SOL     OW 9702   4.183   1.152   4.465
 3229SOL    HW1 9703   4.112   1.125   4.530
 3229SOL    HW2 9704   4.157   1.124   4.372
 3230SOL     OW 9705   4.995   1.797   4.315
 3230SOL    HW1 9706   5.039   1.861   4.251
 3230SOL    HW2 9707   4.945   1.849   4.385
 3231SOL     OW 9708   4.756   0.549   3.740
 3231SOL    HW1 9709   4.715   0.631   3.701
 3231SOL    HW2 9710   4.820   0.575   3.813
 3232SOL     OW 9711   4.590   0.454   4.366
 3232SOL    HW1 9712   4.558   0.526   4.304
 3232SOL    HW2 9713   4.614   0.373   4.313
 3233SOL     OW 9714   4.741   0.039   4.477
 3233SOL    HW1 9715   4.669   0.044   4.408
 3233SOL    HW2 9716   4.717  -0.030   4.546
 3234SOL     OW 9717   4.212   1.385   3.898
 3234SOL    HW1 9718   4.125   1.370   3.945
 3234SOL    HW2 9719   4.195   1.411   3.803
 3235SOL     OW 9720   4.251   0.256   4.052
 3235SOL    HW1 9721   4.278   0.197   3.977
 3235SOL    HW2 9722   4.251   0.351   4.021
 3236SOL     OW 9723   4.429   1.050   4.092
 3236SOL    HW1 9724   4.415   1.057   4.191
 3236SOL    HW2 9725   4.513   0.999   4.074
 3237SOL     OW 9726   4.134   0.813   4.975
 3237SOL    HW1 9727   4.220   0.825   5.025
 3237SOL    HW2 9728   4.092   0.726   5.002
 3238SOL     OW 9729   4.091   1.100   4.225
 3238SOL    HW1 9730   4.084   1.183   4.169
 3238SOL    HW2 9731   4.095   1.020   4.165
 3239SOL     OW 9732   4.290   0.537   4.589
 3239SOL    HW1 9733   4.302   0.603   4.515
 3239SOL    HW2 9734   4.336   0.571   4.672
 3240SOL     OW 9735   4.976   1.348   4.112
 3240SOL    HW1 9736   5.026   1.425   4.152
 3240SOL    HW2 9737   4.881   1.350   4.144
 3241SOL     OW 9738   4.078   1.510   5.053
 3241SOL    HW1 9739   4.057   1.466   4.966
 3241SOL    HW2 9740   4.175   1.536   5.056
 3242SOL     OW 9741   4.297   0.870   4.753
 3242SOL    HW1 9742   4.341   0.959   4.744
 3242SOL    HW2 9743   4.234   0.870   4.830
 3243SOL     OW 9744   4.933   0.525   3.999
 3243SOL    HW1 9745   4.946   0.441   4.053
 3243SOL    HW2 9746   4.904   0.599   4.059
 3244SOL     OW 9747   4.456   0.634   4.788
 3244SOL    HW1 9748   4.515   0.608   4.712
 3244SOL    HW2 9749   4.428   0.730   4.777
 3245SOL     OW 9750   4.031   0.063   4.342
 3245SOL    HW1 9751   4.020   0.157   4.375
 3245SOL    HW2 9752   4.026   0.000   4.419
 3246SOL     OW 9753   4.747   0.766   4.690
 3246SOL    HW1 9754   4.762   0.787   4.786
 3246SOL    HW2 9755   4.717   0.671   4.681
 3247SOL     OW 9756   4.792   1.333   4.573
 3247SOL    HW1 9757   4.799   1.249   4.518
 3247SOL    HW2 9758   4.854   1.402   4.537
 3248SOL     OW 9759   4.043   0.810   4.673
 3248SOL    HW1 9760   4.136   0.846   4.678
 3248SOL    HW2 9761   4.037   0.725   4.725
 3249SOL     OW 9762   4.063   0.509   4.730
 3249SOL    HW1 9763   4.011   0.426   4.713
 3249SOL    HW2 9764   4.140   0.514   4.666
 3250SOL     OW 9765   3.732   1.326   3.924
 3250SOL    HW1 9766   3.639   1.347   3.893
 3250SOL    HW2 9767   3.742   1.227   3.937
 3251SOL     OW 9768   3.812   1.801   4.651
 3251SOL    HW1 9769   3.770   1.715   4.624
 3251SOL    HW2 9770   3.906   1.804   4.617
 3252SOL     OW 9771   4.228   1.568   4.634
 3252SOL    HW1 9772   4.294   1.642   4.643
 3252SOL    HW2 9773   4.272   1.489   4.592
 3253SOL     OW 9774   4.726   0.796   4.962
 3253SOL    HW1 9775   4.767   0.764   5.048
 3253SOL    HW2 9776   4.630   0.769   4.959
 3254SOL     OW 9777   3.764   0.544   4.838
 3254SOL    HW1 9778   3.849   0.511   4.797
 3254SOL    HW2 9779   3.777   0.559   4.936
 3255SOL     OW 9780   4.539   0.572   4.049
 3255SOL    HW1 9781   4.546   0.483   4.003
 3255SOL    HW2 9782   4.445   0.606   4.041
 3256SOL     OW 9783   4.395   0.464   4.993
 3256SOL    HW1 9784   4.361   0.375   4.963
 3256SOL    HW2 9785   4.421   0.518   4.913
 3257SOL     OW 9786   4.197   0.500   3.915
 3257SOL    HW1 9787   4.258   0.580   3.919
 3257SOL    HW2 9788   4.102   0.531   3.922
 3258SOL     OW 9789   5.026   0.855   4.033
 3258SOL    HW1 9790   4.940   0.824   4.075
 3258SOL    HW2 9791   5.022   0.841   3.934
 3259SOL     OW 9792   3.807   1.258   4.746
 3259SOL    HW1 9793   3.802   1.257   4.846
 3259SOL    HW2 9794   3.724   1.217   4.708
 3260SOL     OW 9795   4.396   1.616   3.878
 3260SOL    HW1 9796   4.405   1.626   3.779
 3260SOL    HW2 9797   4.356   1.527   3.899
 3261SOL     OW 9798   3.987   0.326   4.444
 3261SOL    HW1 9799   3.908   0.377   4.410
 3261SOL    HW2 9800   3.978   0.311   4.542
 3262SOL     OW 9801   4.640   0.910   4.015
 3262SOL    HW1 9802   4.703   0.948   3.947
 3262SOL    HW2 9803   4.680   0.827   4.054
 3263SOL     OW 9804   4.763   1.098   4.420
 3263SOL    HW1 9805   4.693   1.051   4.474
 3263SOL    HW2 9806   4.822   1.030   4.377
 3264SOL     OW 9807   4.738   0.236   4.695
 3264SOL    HW1 9808   4.730   0.200   4.602
 3264SOL    HW2 9809   4.736   0.160   4.760
 3265SOL     OW 9810   4.314   1.487   4.215
 3265SOL    HW1 9811   4.356   1.429   4.145
 3265SOL    HW2 9812   4.270   1.566   4.171
 3266SOL     OW 9813   3.979   1.348   4.014
 3266SOL    HW1 9814   3.883   1.349   3.987
 3266SOL    HW2 9815   3.991   1.401   4.098
 3267SOL     OW 9816   3.799   0.345   3.757
 3267SOL    HW1 9817   3.707   0.317   3.728
 3267SOL    HW2 9818   3.830   0.422   3.701
 3268SOL     OW 9819   3.796   0.166   4.042
 3268SOL    HW1 9820   3.779   0.249   3.988
 3268SOL    HW2 9821   3.886   0.129   4.020
 3269SOL     OW 9822   4.318   0.745   4.376
 3269SOL    HW1 9823   4.368   0.830   4.357
 3269SOL    HW2 9824   4.230   0.747   4.328
 3270SOL     OW 9825   4.583   1.374   3.740
 3270SOL    HW1 9826   4.537   1.389   3.828
 3270SOL    HW2 9827   4.627   1.459   3.710
 3271SOL     OW 9828   4.385   1.790   4.677
 3271SOL    HW1 9829   4.339   1.878   4.664
 3271SOL    HW2 9830   4.484   1.802   4.670
 3272SOL     OW 9831   4.583   0.956   4.585
 3272SOL    HW1 9832   4.637   0.887   4.633
 3272SOL    HW2 9833   4.551   1.025   4.651
 3273SOL     OW 9834   4.807   0.984   3.811
 3273SOL    HW1 9835   4.784   1.037   3.729
 3273SOL    HW2 9836   4.888   0.928   3.792
 3274SOL     OW 9837   3.803   1.240   4.377
 3274SOL    HW1 9838   3.802   1.193   4.465
 3274SOL    HW2 9839   3.885   1.212   4.326
 3275SOL     OW 9840   4.152   0.424   4.244
 3275SOL    HW1 9841   4.182   0.352   4.182
 3275SOL    HW2 9842   4.113   0.384   4.327
 3276SOL     OW 9843   4.536   1.586   4.411
 3276SOL    HW1 9844   4.568   1.596   4.317
 3276SOL    HW2 9845   4.457   1.524   4.413
 3277SOL     OW 9846   4.494   1.330   4.025
 3277SOL    HW1 9847   4.448   1.243   4.042
 3277SOL    HW2 9848   4.585   1.327   4.066
 3278SOL     OW 9849   3.763   1.077   4.024
 3278SOL    HW1 9850   3.862   1.066   4.015
 3278SOL    HW2 9851   3.723   0.991   4.056
 3279SOL     OW 9852   4.599   1.646   4.061
 3279SOL    HW1 9853   4.522   1.611   4.007
 3279SOL    HW2 9854   4.567   1.717   4.123
 3280SOL     OW 9855   3.954   2.490   0.113
 3280SOL    HW1 9856   3.861   2.488   0.150
 3280SOL    HW2 9857   3.955   2.451   0.021
 3281SOL     OW 9858   3.949   2.137   0.996
 3281SOL    HW1 9859   3.984   2.120   1.088
 3281SOL    HW2 9860   3.861   2.092   0.984
 3282SOL     OW 9861   3.743   2.230   0.647
 3282SOL    HW1 9862   3.661   2.273   0.686
 3282SOL    HW2 9863   3.715   2.157   0.584
 3283SOL     OW 9864   4.293   3.137   1.165
 3283SOL    HW1 9865   4.200   3.130   1.128
 3283SOL    HW2 9866   4.304   3.226   1.209
 3284SOL     OW 9867   4.492   3.006   1.023
 3284SOL    HW1 9868   4.414   3.023   1.083
 3284SOL    HW2 9869   4.526   3.093   0.987
 3285SOL     OW 9870   4.574   2.660   1.823
 3285SOL    HW1 9871   4.570   2.736   1.888
 3285SOL    HW2 9872   4.596   2.696   1.732
 3286SOL     OW 9873   4.409   2.874   0.665
 3286SOL    HW1 9874   4.478   2.858   0.735
 3286SOL    HW2 9875   4.336   2.931   0.703
 3287SOL     OW 9876   4.410   3.023   1.803
 3287SOL    HW1 9877   4.470   3.102   1.817
 3287SOL    HW2 9878   4.324   3.054   1.762
 3288SOL     OW 9879   4.059   3.297   1.061
 3288SOL    HW1 9880   3.981   3.266   1.008
 3288SOL    HW2 9881   4.117   3.355   1.004
 3289SOL     OW 9882   4.162   2.254   1.499
 3289SOL    HW1 9883   4.244   2.198   1.508
 3289SOL    HW2 9884   4.081   2.196   1.503
 3290SOL     OW 9885   3.955   3.575   0.483
 3290SOL    HW1 9886   3.989   3.652   0.537
 3290SOL    HW2 9887   3.999   3.575   0.393
 3291SOL     OW 9888   4.851   3.203   1.690
 3291SOL    HW1 9889   4.898   3.203   1.778
 3291SOL    HW2 9890   4.803   3.116   1.679
 3292SOL     OW 9891   3.954   3.296   0.538
 3292SOL    HW1 9892   3.928   3.392   0.538
 3292SOL    HW2 9893   3.883   3.242   0.583
 3293SOL     OW 9894   3.964   2.953   0.886
 3293SOL    HW1 9895   3.978   2.869   0.938
 3293SOL    HW2 9896   3.909   3.017   0.941
 3294SOL     OW 9897   4.344   3.648   1.439
 3294SOL    HW1 9898   4.252   3.631   1.474
 3294SOL    HW2 9899   4.372   3.740   1.465
 3295SOL     OW 9900   4.330   2.826   0.123
 3295SOL    HW1 9901   4.337   2.910   0.069
 3295SOL    HW2 9902   4.376   2.839   0.211
 3296SOL     OW 9903   3.846   2.505   0.563
 3296SOL    HW1 9904   3.801   2.417   0.580
 3296SOL    HW2 9905   3.845   2.559   0.647
 3297SOL     OW 9906   3.751   3.458   0.117
 3297SOL    HW1 9907   3.732   3.362   0.138
 3297SOL    HW2 9908   3.718   3.516   0.192
 3298SOL     OW 9909   3.837   2.599   1.597
 3298SOL    HW1 9910   3.925   2.586   1.642
 3298SOL    HW2 9911   3.824   2.696   1.575
 3299SOL     OW 9912   4.337   3.227   0.726
 3299SOL    HW1 9913   4.288   3.140   0.735
 3299SOL    HW2 9914   4.314   3.270   0.639
 3300SOL     OW 9915   4.533   1.866   0.502
 3300SOL    HW1 9916   4.573   1.957   0.493
 3300SOL    HW2 9917   4.433   1.874   0.508
 3301SOL     OW 9918   3.921   2.838   1.264
 3301SOL    HW1 9919   4.010   2.793   1.250
 3301SOL    HW2 9920   3.848   2.773   1.245
 3302SOL     OW 9921   4.041   2.113   1.801
 3302SOL    HW1 9922   4.112   2.184   1.807
 3302SOL    HW2 9923   3.953   2.152   1.829
 3303SOL     OW 9924   4.322   2.591   0.270
 3303SOL    HW1 9925   4.346   2.660   0.202
 3303SOL    HW2 9926   4.244   2.624   0.324
 3304SOL     OW 9927   4.531   2.467   1.465
 3304SOL    HW1 9928   4.484   2.464   1.554
 3304SOL    HW2 9929   4.480   2.412   1.399
 3305SOL     OW 9930   4.697   2.752   1.572
 3305SOL    HW1 9931   4.743   2.668   1.543
 3305SOL    HW2 9932   4.641   2.786   1.497
 3306SOL     OW 9933   4.715   2.272   1.242
 3306SOL    HW1 9934   4.638   2.306   1.296
 3306SOL    HW2 9935   4.681   2.221   1.163
 3307SOL     OW 9936   4.765   2.563   0.429
 3307SOL    HW1 9937   4.791   2.559   0.525
 3307SOL    HW2 9938   4.680   2.512   0.415
 3308SOL     OW 9939   3.800   2.673   0.789
 3308SOL    HW1 9940   3.899   2.661   0.798
 3308SOL    HW2 9941   3.776   2.768   0.810
 3309SOL     OW 9942   3.854   3.683   1.571
 3309SOL    HW1 9943   3.844   3.668   1.670
 3309SOL    HW2 9944   3.768   3.719   1.535
 3310SOL     OW 9945   4.589   2.210   0.195
 3310SOL    HW1 9946   4.648   2.273   0.146
 3310SOL    HW2 9947   4.608   2.116   0.166
 3311SOL     OW 9948   4.274   2.058   0.885
 3311SOL    HW1 9949   4.269   2.053   0.985
 3311SOL    HW2 9950   4.276   2.154   0.856
 3312SOL     OW 9951   4.732   3.318   0.477
 3312SOL    HW1 9952   4.686   3.390   0.425
 3312SOL    HW2 9953   4.728   3.338   0.575
 3313SOL     OW 9954   4.075   3.663   0.853
 3313SOL    HW1 9955   4.125   3.577   0.859
 3313SOL    HW2 9956   4.140   3.740   0.850
 3314SOL     OW 9957   4.045   2.805   0.242
 3314SOL    HW1 9958   4.127   2.844   0.200
 3314SOL    HW2 9959   4.018   2.723   0.193
 3315SOL     OW 9960   4.185   3.128   1.727
 3315SOL    HW1 9961   4.135   3.129   1.641
 3315SOL    HW2 9962   4.122   3.110   1.803
 3316SOL     OW 9963   3.926   2.147   1.498
 3316SOL    HW1 9964   3.846   2.207   1.485
 3316SOL    HW2 9965   3.916   2.098   1.584
 3317SOL     OW 9966   4.188   3.605   0.323
 3317SOL    HW1 9967   4.221   3.644   0.409
 3317SOL    HW2 9968   4.264   3.598   0.258
 3318SOL     OW 9969   3.973   3.647   1.241
 3318SOL    HW1 9970   4.030   3.582   1.291
 3318SOL    HW2 9971   3.957   3.614   1.148
 3319SOL     OW 9972   4.664   3.560   0.904
 3319SOL    HW1 9973   4.744   3.503   0.925
 3319SOL    HW2 9974   4.615   3.520   0.827
 3320SOL     OW 9975   4.106   2.562   0.480
 3320SOL    HW1 9976   4.151   2.472   0.477
 3320SOL    HW2 9977   4.012   2.551   0.513
 3321SOL     OW 9978   4.338   1.984   0.117
 3321SOL    HW1 9979   4.436   1.962   0.124
 3321SOL    HW2 9980   4.307   1.967   0.024
 3322SOL     OW 9981   4.505   2.126   1.749
 3322SOL    HW1 9982   4.572   2.065   1.792
 3322SOL    HW2 9983   4.432   2.145   1.814
 3323SOL     OW 9984   4.612   3.376   1.195
 3323SOL    HW1 9985   4.589   3.351   1.101
 3323SOL    HW2 9986   4.673   3.307   1.234
 3324SOL     OW 9987   4.527   3.264   0.924
 3324SOL    HW1 9988   4.617   3.278   0.882
 3324SOL    HW2 9989   4.456   3.266   0.853
 3325SOL     OW 9990   4.646   2.365   0.899
 3325SOL    HW1 9991   4.621   2.356   0.803
 3325SOL    HW2 9992   4.694   2.283   0.930
 3326SOL     OW 9993   4.263   1.926   0.512
 3326SOL    HW1 9994   4.182   1.927   0.570
 3326SOL    HW2 9995   4.266   2.009   0.457
 3327SOL     OW 9996   5.158   3.050   0.041
 3327SOL    HW1 9997   5.190   2.974   0.098
 3327SOL    HW2 9998   5.066   3.077   0.071
 3328SOL     OW 9999   4.659   2.098   0.480
 3328SOL    HW110000   4.611   2.139   0.402
 3328SOL    HW210001   4.758   2.096   0.461
 3329SOL     OW10002   4.951   3.432   0.793
 3329SOL    HW110003   4.972   3.506   0.728
 3329SOL    HW210004   5.019   3.432   0.866
 3330SOL     OW10005   4.183   3.014   0.741
 3330SOL    HW110006   4.112   2.987   0.806
 3330SOL    HW210007   4.157   2.986   0.648
 3331SOL     OW10008   4.995   3.659   0.591
 3331SOL    HW110009   5.039   3.723   0.527
 3331SOL    HW210010   4.945   3.711   0.661
 3332SOL     OW10011   4.756   2.411   0.016
 3332SOL    HW110012   4.715   2.493  -0.023
 3332SOL    HW210013   4.820   2.437   0.089
 3333SOL     OW10014   3.802   2.418   1.386
 3333SOL    HW110015   3.894   2.417   1.345
 3333SOL    HW210016   3.796   2.492   1.453
 3334SOL     OW10017   4.285   2.084   1.147
 3334SOL    HW110018   4.323   2.000   1.184
 3334SOL    HW210019   4.197   2.103   1.191
 3335SOL     OW10020   4.590   2.316   0.642
 3335SOL    HW110021   4.558   2.388   0.580
 3335SOL    HW210022   4.614   2.235   0.589
 3336SOL     OW10023   4.741   1.901   0.753
 3336SOL    HW110024   4.669   1.906   0.684
 3336SOL    HW210025   4.717   1.832   0.822
 3337SOL     OW10026   4.212   3.247   0.174
 3337SOL    HW110027   4.125   3.232   0.221
 3337SOL    HW210028   4.195   3.273   0.079
 3338SOL     OW10029   4.251   2.118   0.328
 3338SOL    HW110030   4.278   2.059   0.253
 3338SOL    HW210031   4.251   2.213   0.297
 3339SOL     OW10032   4.639   1.951   1.402
 3339SOL    HW110033   4.664   1.931   1.307
 3339SOL    HW210034   4.711   2.007   1.444
 3340SOL     OW10035   4.704   2.978   1.719
 3340SOL    HW110036   4.605   2.984   1.729
 3340SOL    HW210037   4.727   2.898   1.663
 3341SOL     OW10038   4.429   2.912   0.368
 3341SOL    HW110039   4.415   2.919   0.467
 3341SOL    HW210040   4.513   2.861   0.350
 3342SOL     OW10041   4.134   2.675   1.251
 3342SOL    HW110042   4.220   2.687   1.301
 3342SOL    HW210043   4.092   2.588   1.278
 3343SOL     OW10044   3.788   3.426   1.331
 3343SOL    HW110045   3.742   3.508   1.297
 3343SOL    HW210046   3.886   3.445   1.340
 3344SOL     OW10047   4.091   2.962   0.501
 3344SOL    HW110048   4.084   3.045   0.445
 3344SOL    HW210049   4.095   2.882   0.441
 3345SOL     OW10050   4.290   2.399   0.865
 3345SOL    HW110051   4.302   2.465   0.791
 3345SOL    HW210052   4.336   2.433   0.948
 3346SOL     OW10053   4.976   3.210   0.388
 3346SOL    HW110054   5.026   3.287   0.428
 3346SOL    HW210055   4.881   3.212   0.420
 3347SOL     OW10056   4.078   3.372   1.329
 3347SOL    HW110057   4.057   3.328   1.242
 3347SOL    HW210058   4.175   3.398   1.332
 3348SOL     OW10059   4.126   2.613   1.598
 3348SOL    HW110060   4.194   2.668   1.551
 3348SOL    HW210061   4.166   2.525   1.625
 3349SOL     OW10062   4.737   1.967   1.770
 3349SOL    HW110063   4.743   2.052   1.718
 3349SOL    HW210064   4.769   1.891   1.713
 3350SOL     OW10065   4.228   1.912   1.740
 3350SOL    HW110066   4.186   1.855   1.670
 3350SOL    HW210067   4.162   1.981   1.772
 3351SOL     OW10068   4.297   2.732   1.029
 3351SOL    HW110069   4.341   2.821   1.020
 3351SOL    HW210070   4.234   2.732   1.106
 3352SOL     OW10071   4.933   2.387   0.275
 3352SOL    HW110072   4.946   2.303   0.329
 3352SOL    HW210073   4.904   2.461   0.335
 3353SOL     OW10074   4.031   2.075   1.231
 3353SOL    HW110075   4.008   2.112   1.321
 3353SOL    HW210076   4.001   1.980   1.225
 3354SOL     OW10077   3.761   3.172   1.282
 3354SOL    HW110078   3.814   3.123   1.350
 3354SOL    HW210079   3.783   3.270   1.287
 3355SOL     OW10080   4.456   2.496   1.064
 3355SOL    HW110081   4.515   2.470   0.988
 3355SOL    HW210082   4.428   2.592   1.053
 3356SOL     OW10083   4.031   1.925   0.618
 3356SOL    HW110084   4.020   2.019   0.651
 3356SOL    HW210085   4.026   1.862   0.695
 3357SOL     OW10086   4.747   2.628   0.966
 3357SOL    HW110087   4.762   2.649   1.062
 3357SOL    HW210088   4.717   2.533   0.957
 3358SOL     OW10089   4.704   3.435   1.700
 3358SOL    HW110090   4.684   3.479   1.612
 3358SOL    HW210091   4.743   3.344   1.684
 3359SOL     OW10092   4.074   2.760   1.804
 3359SOL    HW110093   4.150   2.804   1.852
 3359SOL    HW210094   4.109   2.713   1.722
 3360SOL     OW10095   4.792   3.195   0.849
 3360SOL    HW110096   4.799   3.111   0.794
 3360SOL    HW210097   4.854   3.264   0.813
 3361SOL     OW10098   4.043   2.672   0.949
 3361SOL    HW110099   4.136   2.708   0.954
 3361SOL    HW210100   4.037   2.587   1.001
 3362SOL     OW10101   4.063   2.371   1.006
 3362SOL    HW110102   4.011   2.288   0.989
 3362SOL    HW210103   4.140   2.376   0.942
 3363SOL     OW10104   4.862   2.242   1.678
 3363SOL    HW110105   4.817   2.305   1.742
 3363SOL    HW210106   4.955   2.273   1.661
 3364SOL     OW10107   4.884   2.069   1.477
 3364SOL    HW110108   4.884   2.133   1.554
 3364SOL    HW210109   4.912   2.117   1.394
 3365SOL     OW10110   3.732   3.188   0.200
 3365SOL    HW110111   3.639   3.209   0.169
 3365SOL    HW210112   3.742   3.089   0.213
 3366SOL     OW10113   3.812   3.663   0.927
 3366SOL    HW110114   3.770   3.577   0.900
 3366SOL    HW210115   3.906   3.666   0.893
 3367SOL     OW10116   4.228   3.430   0.910
 3367SOL    HW110117   4.294   3.504   0.919
 3367SOL    HW210118   4.272   3.351   0.868
 3368SOL     OW10119   4.726   2.658   1.238
 3368SOL    HW110120   4.767   2.626   1.324
 3368SOL    HW210121   4.630   2.631   1.235
 3369SOL     OW10122   3.764   2.406   1.114
 3369SOL    HW110123   3.849   2.373   1.073
 3369SOL    HW210124   3.777   2.421   1.212
 3370SOL     OW10125   3.913   2.382   1.722
 3370SOL    HW110126   3.972   2.342   1.652
 3370SOL    HW210127   3.855   2.453   1.681
 3371SOL     OW10128   4.539   2.434   0.325
 3371SOL    HW110129   4.546   2.345   0.279
 3371SOL    HW210130   4.445   2.468   0.317
 3372SOL     OW10131   3.976   3.426   1.744
 3372SOL    HW110132   3.946   3.483   1.820
 3372SOL    HW210133   3.969   3.329   1.770
 3373SOL     OW10134   4.395   2.326   1.269
 3373SOL    HW110135   4.361   2.237   1.239
 3373SOL    HW210136   4.421   2.380   1.189
 3374SOL     OW10137   4.654   3.540   1.465
 3374SOL    HW110138   4.630   3.522   1.370
 3374SOL    HW210139   4.684   3.634   1.475
 3375SOL     OW10140   4.197   2.362   0.191
 3375SOL    HW110141   4.258   2.442   0.195
 3375SOL    HW210142   4.102   2.393   0.198
 3376SOL     OW10143   3.883   2.999   1.466
 3376SOL    HW110144   3.905   2.938   1.542
 3376SOL    HW210145   3.893   2.950   1.380
 3377SOL     OW10146   5.026   2.717   0.309
 3377SOL    HW110147   4.940   2.686   0.351
 3377SOL    HW210148   5.022   2.703   0.210
 3378SOL     OW10149   3.807   3.120   1.022
 3378SOL    HW110150   3.802   3.119   1.122
 3378SOL    HW210151   3.724   3.079   0.984
 3379SOL     OW10152   4.412   3.524   1.716
 3379SOL    HW110153   4.356   3.605   1.725
 3379SOL    HW210154   4.464   3.528   1.630
 3380SOL     OW10155   4.627   1.948   0.133
 3380SOL    HW110156   4.678   1.949   0.047
 3380SOL    HW210157   4.683   1.906   0.204
 3381SOL     OW10158   3.854   3.656   1.851
 3381SOL    HW110159   3.813   3.582   1.904
 3381SOL    HW210160   3.918   3.707   1.909
 3382SOL     OW10161   4.554   3.135   1.422
 3382SOL    HW110162   4.549   3.168   1.517
 3382SOL    HW210163   4.468   3.154   1.376
 3383SOL     OW10164   4.396   3.478   0.154
 3383SOL    HW110165   4.405   3.488   0.055
 3383SOL    HW210166   4.356   3.389   0.175
 3384SOL     OW10167   3.987   2.188   0.720
 3384SOL    HW110168   3.908   2.239   0.686
 3384SOL    HW210169   3.978   2.173   0.818
 3385SOL     OW10170   4.546   2.864   1.372
 3385SOL    HW110171   4.586   2.863   1.280
 3385SOL    HW210172   4.556   2.956   1.412
 3386SOL     OW10173   4.640   2.772   0.291
 3386SOL    HW110174   4.703   2.810   0.223
 3386SOL    HW210175   4.680   2.689   0.330
 3387SOL     OW10176   4.096   3.150   1.490
 3387SOL    HW110177   4.083   3.243   1.456
 3387SOL    HW210178   4.012   3.098   1.477
 3388SOL     OW10179   4.763   2.960   0.696
 3388SOL    HW110180   4.693   2.913   0.750
 3388SOL    HW210181   4.822   2.892   0.653
 3389SOL     OW10182   4.738   2.098   0.971
 3389SOL    HW110183   4.730   2.062   0.878
 3389SOL    HW210184   4.736   2.022   1.036
 3390SOL     OW10185   4.314   3.349   0.491
 3390SOL    HW110186   4.356   3.291   0.421
 3390SOL    HW210187   4.270   3.428   0.447
 3391SOL     OW10188   3.979   3.210   0.290
 3391SOL    HW110189   3.883   3.211   0.263
 3391SOL    HW210190   3.991   3.263   0.374
 3392SOL     OW10191   3.829   2.875   1.726
 3392SOL    HW110192   3.752   2.842   1.780
 3392SOL    HW210193   3.914   2.845   1.768
 3393SOL     OW10194   4.396   2.065   1.489
 3393SOL    HW110195   4.486   2.049   1.449
 3393SOL    HW210196   4.404   2.070   1.588
 3394SOL     OW10197   3.796   2.028   0.318
 3394SOL    HW110198   3.779   2.111   0.264
 3394SOL    HW210199   3.886   1.991   0.296
 3395SOL     OW10200   4.337   2.704   1.431
 3395SOL    HW110201   4.393   2.785   1.414
 3395SOL    HW210202   4.396   2.624   1.434
 3396SOL     OW10203   4.440   2.427   1.708
 3396SOL    HW110204   4.459   2.492   1.782
 3396SOL    HW210205   4.500   2.347   1.717
 3397SOL     OW10206   4.114   3.603   1.560
 3397SOL    HW110207   4.023   3.644   1.558
 3397SOL    HW210208   4.107   3.509   1.592
 3398SOL     OW10209   4.318   2.607   0.652
 3398SOL    HW110210   4.368   2.692   0.633
 3398SOL    HW210211   4.230   2.609   0.604
 3399SOL     OW10212   4.583   3.236   0.016
 3399SOL    HW110213   4.537   3.251   0.104
 3399SOL    HW210214   4.627   3.321  -0.014
 3400SOL     OW10215   4.385   3.652   0.953
 3400SOL    HW110216   4.339   3.740   0.940
 3400SOL    HW210217   4.484   3.664   0.946
 3401SOL     OW10218   4.583   2.818   0.861
 3401SOL    HW110219   4.637   2.749   0.909
 3401SOL    HW210220   4.551   2.887   0.927
 3402SOL     OW10221   4.807   2.846   0.087
 3402SOL    HW110222   4.784   2.899   0.005
 3402SOL    HW210223   4.888   2.790   0.068
 3403SOL     OW10224   3.945   3.176   1.844
 3403SOL    HW110225   3.880   3.103   1.823
 3403SOL    HW210226   3.949   3.190   1.942
 3404SOL     OW10227   3.803   3.102   0.653
 3404SOL    HW110228   3.802   3.055   0.741
 3404SOL    HW210229   3.885   3.074   0.602
 3405SOL     OW10230   4.396   3.253   1.624
 3405SOL    HW110231   4.318   3.203   1.662
 3405SOL    HW210232   4.393   3.348   1.655
 3406SOL     OW10233   4.152   2.286   0.520
 3406SOL    HW110234   4.182   2.214   0.458
 3406SOL    HW210235   4.113   2.246   0.603
 3407SOL     OW10236   4.041   2.409   1.280
 3407SOL    HW110237   4.079   2.350   1.352
 3407SOL    HW210238   4.081   2.383   1.192
 3408SOL     OW10239   4.536   3.448   0.687
 3408SOL    HW110240   4.568   3.458   0.593
 3408SOL    HW210241   4.457   3.386   0.689
 3409SOL     OW10242   4.725   1.896   1.154
 3409SOL    HW110243   4.662   1.824   1.123
 3409SOL    HW210244   4.818   1.860   1.154
 3410SOL     OW10245   4.494   3.192   0.301
 3410SOL    HW110246   4.448   3.105   0.318
 3410SOL    HW210247   4.585   3.189   0.342
 3411SOL     OW10248   4.342   3.429   1.284
 3411SOL    HW110249   4.337   3.511   1.341
 3411SOL    HW210250   4.431   3.426   1.239
 3412SOL     OW10251   3.763   2.939   0.300
 3412SOL    HW110252   3.862   2.928   0.291
 3412SOL    HW210253   3.723   2.853   0.332
 3413SOL     OW10254   4.599   3.508   0.337
 3413SOL    HW110255   4.522   3.473   0.283
 3413SOL    HW210256   4.567   3.579   0.399
 3414SOL     OW10257   3.954   2.490   1.975
 3414SOL    HW110258   3.861   2.488   2.012
 3414SOL    HW210259   3.955   2.451   1.883
 3415SOL     OW10260   3.949   2.137   2.858
 3415SOL    HW110261   3.984   2.120   2.950
 3415SOL    HW210262   3.861   2.092   2.846
 3416SOL     OW10263   3.743   2.230   2.509
 3416SOL    HW110264   3.661   2.273   2.548
 3416SOL    HW210265   3.715   2.157   2.446
 3417SOL     OW10266   4.293   3.137   3.027
 3417SOL    HW110267   4.200   3.130   2.990
 3417SOL    HW210268   4.304   3.226   3.071
 3418SOL     OW10269   4.492   3.006   2.885
 3418SOL    HW110270   4.414   3.023   2.945
 3418SOL    HW210271   4.526   3.093   2.849
 3419SOL     OW10272   4.574   2.660   3.685
 3419SOL    HW110273   4.570   2.736   3.750
 3419SOL    HW210274   4.596   2.696   3.594
 3420SOL     OW10275   4.409   2.874   2.527
 3420SOL    HW110276   4.478   2.858   2.597
 3420SOL    HW210277   4.336   2.931   2.565
 3421SOL     OW10278   4.410   3.023   3.665
 3421SOL    HW110279   4.470   3.102   3.679
 3421SOL    HW210280   4.324   3.054   3.624
 3422SOL     OW10281   4.059   3.297   2.923
 3422SOL    HW110282   3.981   3.266   2.870
 3422SOL    HW210283   4.117   3.355   2.866
 3423SOL     OW10284   4.162   2.254   3.361
 3423SOL    HW110285   4.244   2.198   3.370
 3423SOL    HW210286   4.081   2.196   3.365
 3424SOL     OW10287   3.955   3.575   2.345
 3424SOL    HW110288   3.989   3.652   2.399
 3424SOL    HW210289   3.999   3.575   2.255
 3425SOL     OW10290   4.851   3.203   3.552
 3425SOL    HW110291   4.898   3.203   3.640
 3425SOL    HW210292   4.803   3.116   3.541
 3426SOL     OW10293   3.954   3.296   2.400
 3426SOL    HW110294   3.928   3.392   2.400
 3426SOL    HW210295   3.883   3.242   2.445
 3427SOL     OW10296   3.964   2.953   2.748
 3427SOL    HW110297   3.978   2.869   2.800
 3427SOL    HW210298   3.909   3.017   2.803
 3428SOL     OW10299   4.344   3.648   3.301
 3428SOL    HW110300   4.252   3.631   3.336
 3428SOL    HW210301   4.372   3.740   3.327
 3429SOL     OW10302   4.330   2.826   1.985
 3429SOL    HW110303   4.337   2.910   1.931
 3429SOL    HW210304   4.376   2.839   2.073
 3430SOL     OW10305   3.846   2.505   2.425
 3430SOL    HW110306   3.801   2.417   2.442
 3430SOL    HW210307   3.845   2.559   2.509
 3431SOL     OW10308   3.751   3.458   1.979
 3431SOL    HW110309   3.732   3.362   2.000
 3431SOL    HW210310   3.718   3.516   2.054
 3432SOL     OW10311   3.837   2.599   3.459
 3432SOL    HW110312   3.925   2.586   3.504
 3432SOL    HW210313   3.824   2.696   3.437
 3433SOL     OW10314   4.337   3.227   2.588
 3433SOL    HW110315   4.288   3.140   2.597
 3433SOL    HW210316   4.314   3.270   2.501
 3434SOL     OW10317   4.533   1.866   2.364
 3434SOL    HW110318   4.573   1.957   2.355
 3434SOL    HW210319   4.433   1.874   2.370
 3435SOL     OW10320   3.921   2.838   3.126
 3435SOL    HW110321   4.010   2.793   3.112
 3435SOL    HW210322   3.848   2.773   3.107
 3436SOL     OW10323   4.041   2.113   3.663
 3436SOL    HW110324   4.112   2.184   3.669
 3436SOL    HW210325   3.953   2.152   3.691
 3437SOL     OW10326   4.322   2.591   2.132
 3437SOL    HW110327   4.346   2.660   2.064
 3437SOL    HW210328   4.244   2.624   2.186
 3438SOL     OW10329   4.531   2.467   3.327
 3438SOL    HW110330   4.484   2.464   3.416
 3438SOL    HW210331   4.480   2.412   3.261
 3439SOL     OW10332   4.697   2.752   3.434
 3439SOL    HW110333   4.743   2.668   3.405
 3439SOL    HW210334   4.641   2.786   3.359
 3440SOL     OW10335   4.715   2.272   3.104
 3440SOL    HW110336   4.638   2.306   3.158
 3440SOL    HW210337   4.681   2.221   3.025
 3441SOL     OW10338   4.765   2.563   2.291
 3441SOL    HW110339   4.791   2.559   2.387
 3441SOL    HW210340   4.680   2.512   2.277
 3442SOL     OW10341   3.800   2.673   2.651
 3442SOL    HW110342   3.899   2.661   2.660
 3442SOL    HW210343   3.776   2.768   2.672
 3443SOL     OW10344   3.854   3.683   3.433
 3443SOL    HW110345   3.844   3.668   3.532
 3443SOL    HW210346   3.768   3.719   3.397
 3444SOL     OW10347   4.589   2.210   2.057
 3444SOL    HW110348   4.648   2.273   2.008
 3444SOL    HW210349   4.608   2.116   2.028
 3445SOL     OW10350   4.274   2.058   2.747
 3445SOL    HW110351   4.269   2.053   2.847
 3445SOL    HW210352   4.276   2.154   2.718
 3446SOL     OW10353   4.732   3.318   2.339
 3446SOL    HW110354   4.686   3.390   2.287
 3446SOL    HW210355   4.728   3.338   2.437
 3447SOL     OW10356   4.075   3.663   2.715
 3447SOL    HW110357   4.125   3.577   2.721
 3447SOL    HW210358   4.140   3.740   2.712
 3448SOL     OW10359   4.045   2.805   2.104
 3448SOL    HW110360   4.127   2.844   2.062
 3448SOL    HW210361   4.018   2.723   2.055
 3449SOL     OW10362   4.185   3.128   3.589
 3449SOL    HW110363   4.135   3.129   3.503
 3449SOL    HW210364   4.122   3.110   3.665
 3450SOL     OW10365   3.926   2.147   3.360
 3450SOL    HW110366   3.846   2.207   3.347
 3450SOL    HW210367   3.916   2.098   3.446
 3451SOL     OW10368   4.188   3.605   2.185
 3451SOL    HW110369   4.221   3.644   2.271
 3451SOL    HW210370   4.264   3.598   2.120
 3452SOL     OW10371   3.973   3.647   3.103
 3452SOL    HW110372   4.030   3.582   3.153
 3452SOL    HW210373   3.957   3.614   3.010
 3453SOL     OW10374   4.664   3.560   2.766
 3453SOL    HW110375   4.744   3.503   2.787
 3453SOL    HW210376   4.615   3.520   2.689
 3454SOL     OW10377   4.106   2.562   2.342
 3454SOL    HW110378   4.151   2.472   2.339
 3454SOL    HW210379   4.012   2.551   2.375
 3455SOL     OW10380   4.338   1.984   1.979
 3455SOL    HW110381   4.436   1.962   1.986
 3455SOL    HW210382   4.307   1.967   1.886
 3456SOL     OW10383   4.505   2.126   3.611
 3456SOL    HW110384   4.572   2.065   3.654
 3456SOL    HW210385   4.432   2.145   3.676
 3457SOL     OW10386   4.612   3.376   3.057
 3457SOL    HW110387   4.589   3.351   2.963
 3457SOL    HW210388   4.673   3.307   3.096
 3458SOL     OW10389   4.527   3.264   2.786
 3458SOL    HW110390   4.617   3.278   2.744
 3458SOL    HW210391   4.456   3.266   2.715
 3459SOL     OW10392   4.646   2.365   2.761
 3459SOL    HW110393   4.621   2.356   2.665
 3459SOL    HW210394   4.694   2.283   2.792
 3460SOL     OW10395   4.263   1.926   2.374
 3460SOL    HW110396   4.182   1.927   2.432
 3460SOL    HW210397   4.266   2.009   2.319
 3461SOL     OW10398   4.021   1.897   2.033
 3461SOL    HW110399   4.070   1.981   2.012
 3461SOL    HW210400   4.083   1.832   2.078
 3462SOL     OW10401   4.659   2.098   2.342
 3462SOL    HW110402   4.611   2.139   2.264
 3462SOL    HW210403   4.758   2.096   2.323
 3463SOL     OW10404   4.951   3.432   2.655
 3463SOL    HW110405   4.972   3.506   2.590
 3463SOL    HW210406   5.019   3.432   2.728
 3464SOL     OW10407   4.183   3.014   2.603
 3464SOL    HW110408   4.112   2.987   2.668
 3464SOL    HW210409   4.157   2.986   2.510
 3465SOL     OW10410   4.995   3.659   2.453
 3465SOL    HW110411   5.039   3.723   2.389
 3465SOL    HW210412   4.945   3.711   2.523
 3466SOL     OW10413   4.756   2.411   1.878
 3466SOL    HW110414   4.715   2.493   1.839
 3466SOL    HW210415   4.820   2.437   1.951
 3467SOL     OW10416   3.802   2.418   3.248
 3467SOL    HW110417   3.894   2.417   3.207
 3467SOL    HW210418   3.796   2.492   3.315
 3468SOL     OW10419   4.285   2.084   3.009
 3468SOL    HW110420   4.323   2.000   3.046
 3468SOL    HW210421   4.197   2.103   3.053
 3469SOL     OW10422   4.590   2.316   2.504
 3469SOL    HW110423   4.558   2.388   2.442
 3469SOL    HW210424   4.614   2.235   2.451
 3470SOL     OW10425   4.741   1.901   2.615
 3470SOL    HW110426   4.669   1.906   2.546
 3470SOL    HW210427   4.717   1.832   2.684
 3471SOL     OW10428   4.212   3.247   2.036
 3471SOL    HW110429   4.125   3.232   2.083
 3471SOL    HW210430   4.195   3.273   1.941
 3472SOL     OW10431   4.251   2.118   2.190
 3472SOL    HW110432   4.278   2.059   2.115
 3472SOL    HW210433   4.251   2.213   2.159
 3473SOL     OW10434   4.639   1.951   3.264
 3473SOL    HW110435   4.664   1.931   3.169
 3473SOL    HW210436   4.711   2.007   3.306
 3474SOL     OW10437   4.704   2.978   3.581
 3474SOL    HW110438   4.605   2.984   3.591
 3474SOL    HW210439   4.727   2.898   3.525
 3475SOL     OW10440   4.429   2.912   2.230
 3475SOL    HW110441   4.415   2.919   2.329
 3475SOL    HW210442   4.513   2.861   2.212
 3476SOL     OW10443   4.134   2.675   3.113
 3476SOL    HW110444   4.220   2.687   3.163
 3476SOL    HW210445   4.092   2.588   3.140
 3477SOL     OW10446   3.788   3.426   3.193
 3477SOL    HW110447   3.742   3.508   3.159
 3477SOL    HW210448   3.886   3.445   3.202
 3478SOL     OW10449   4.091   2.962   2.363
 3478SOL    HW110450   4.084   3.045   2.307
 3478SOL    HW210451   4.095   2.882   2.303
 3479SOL     OW10452   4.290   2.399   2.727
 3479SOL    HW110453   4.302   2.465   2.653
 3479SOL    HW210454   4.336   2.433   2.810
 3480SOL     OW10455   4.976   3.210   2.250
 3480SOL    HW110456   5.026   3.287   2.290
 3480SOL    HW210457   4.881   3.212   2.282
 3481SOL     OW10458   4.078   3.372   3.191
 3481SOL    HW110459   4.057   3.328   3.104
 3481SOL    HW210460   4.175   3.398   3.194
 3482SOL     OW10461   4.126   2.613   3.460
 3482SOL    HW110462   4.194   2.668   3.413
 3482SOL    HW210463   4.166   2.525   3.487
 3483SOL     OW10464   4.737   1.967   3.632
 3483SOL    HW110465   4.743   2.052   3.580
 3483SOL    HW210466   4.769   1.891   3.575
 3484SOL     OW10467   4.228   1.912   3.602
 3484SOL    HW110468   4.186   1.855   3.532
 3484SOL    HW210469   4.162   1.981   3.634
 3485SOL     OW10470   4.297   2.732   2.891
 3485SOL    HW110471   4.341   2.821   2.882
 3485SOL    HW210472   4.234   2.732   2.968
 3486SOL     OW10473   4.933   2.387   2.137
 3486SOL    HW110474   4.946   2.303   2.191
 3486SOL    HW210475   4.904   2.461   2.197
 3487SOL     OW10476   4.031   2.075   3.093
 3487SOL    HW110477   4.008   2.112   3.183
 3487SOL    HW210478   4.001   1.980   3.087
 3488SOL     OW10479   3.761   3.172   3.144
 3488SOL    HW110480   3.814   3.123   3.212
 3488SOL    HW210481   3.783   3.270   3.149
 3489SOL     OW10482   4.456   2.496   2.926
 3489SOL    HW110483   4.515   2.470   2.850
 3489SOL    HW210484   4.428   2.592   2.915
 3490SOL     OW10485   4.031   1.925   2.480
 3490SOL    HW110486   4.020   2.019   2.513
 3490SOL    HW210487   4.026   1.862   2.557
 3491SOL     OW10488   4.747   2.628   2.828
 3491SOL    HW110489   4.762   2.649   2.924
 3491SOL    HW210490   4.717   2.533   2.819
 3492SOL     OW10491   4.704   3.435   3.562
 3492SOL    HW110492   4.684   3.479   3.474
 3492SOL    HW210493   4.743   3.344   3.546
 3493SOL     OW10494   4.074   2.760   3.666
 3493SOL    HW110495   4.150   2.804   3.714
 3493SOL    HW210496   4.109   2.713   3.584
 3494SOL     OW10497   4.792   3.195   2.711
 3494SOL    HW110498   4.799   3.111   2.656
 3494SOL    HW210499   4.854   3.264   2.675
 3495SOL     OW10500   4.043   2.672   2.811
 3495SOL    HW110501   4.136   2.708   2.816
 3495SOL    HW210502   4.037   2.587   2.863
 3496SOL     OW10503   4.063   2.371   2.868
 3496SOL    HW110504   4.011   2.288   2.851
 3496SOL    HW210505   4.140   2.376   2.804
 3497SOL     OW10506   4.862   2.242   3.540
 3497SOL    HW110507   4.817   2.305   3.604
 3497SOL    HW210508   4.955   2.273   3.523
 3498SOL     OW10509   4.884   2.069   3.339
 3498SOL    HW110510   4.884   2.133   3.416
 3498SOL    HW210511   4.912   2.117   3.256
 3499SOL     OW10512   3.732   3.188   2.062
 3499SOL    HW110513   3.639   3.209   2.031
 3499SOL    HW210514   3.742   3.089   2.075
 3500SOL     OW10515   3.812   3.663   2.789
 3500SOL    HW110516   3.770   3.577   2.762
 3500SOL    HW210517   3.906   3.666   2.755
 3501SOL     OW10518   4.228   3.430   2.772
 3501SOL    HW110519   4.294   3.504   2.781
 3501SOL    HW210520   4.272   3.351   2.730
 3502SOL     OW10521   4.726   2.658   3.100
 3502SOL    HW110522   4.767   2.626   3.186
 3502SOL    HW210523   4.630   2.631   3.097
 3503SOL     OW10524   3.764   2.406   2.976
 3503SOL    HW110525   3.849   2.373   2.935
 3503SOL    HW210526   3.777   2.421   3.074
 3504SOL     OW10527   3.913   2.382   3.584
 3504SOL    HW110528   3.972   2.342   3.514
 3504SOL    HW210529   3.855   2.453   3.543
 3505SOL     OW10530   4.539   2.434   2.187
 3505SOL    HW110531   4.546   2.345   2.141
 3505SOL    HW210532   4.445   2.468   2.179
 3506SOL     OW10533   3.976   3.426   3.606
 3506SOL    HW110534   3.946   3.483   3.682
 3506SOL    HW210535   3.969   3.329   3.632
 3507SOL     OW10536   4.395   2.326   3.131
 3507SOL    HW110537   4.361   2.237   3.101
 3507SOL    HW210538   4.421   2.380   3.051
 3508SOL     OW10539   4.654   3.540   3.327
 3508SOL    HW110540   4.630   3.522   3.232
 3508SOL    HW210541   4.684   3.634   3.337
 3509SOL     OW10542   4.197   2.362   2.053
 3509SOL    HW110543   4.258   2.442   2.057
 3509SOL    HW210544   4.102   2.393   2.060
 3510SOL     OW10545   3.883   2.999   3.328
 3510SOL    HW110546   3.905   2.938   3.404
 3510SOL    HW210547   3.893   2.950   3.242
 3511SOL     OW10548   5.026   2.717   2.171
 3511SOL    HW110549   4.940   2.686   2.213
 3511SOL    HW210550   5.022   2.703   2.072
 3512SOL     OW10551   3.807   3.120   2.884
 3512SOL    HW110552   3.802   3.119   2.984
 3512SOL    HW210553   3.724   3.079   2.846
 3513SOL     OW10554   4.412   3.524   3.578
 3513SOL    HW110555   4.356   3.605   3.587
 3513SOL    HW210556   4.464   3.528   3.492
 3514SOL     OW10557   3.854   3.656   3.713
 3514SOL    HW110558   3.813   3.582   3.766
 3514SOL    HW210559   3.918   3.707   3.771
 3515SOL     OW10560   4.554   3.135   3.284
 3515SOL    HW110561   4.549   3.168   3.379
 3515SOL    HW210562   4.468   3.154   3.238
 3516SOL     OW10563   4.396   3.478   2.016
 3516SOL    HW110564   4.405   3.488   1.917
 3516SOL    HW210565   4.356   3.389   2.037
 3517SOL     OW10566   3.987   2.188   2.582
 3517SOL    HW110567   3.908   2.239   2.548
 3517SOL    HW210568   3.978   2.173   2.680
 3518SOL     OW10569   4.546   2.864   3.234
 3518SOL    HW110570   4.586   2.863   3.142
 3518SOL    HW210571   4.556   2.956   3.274
 3519SOL     OW10572   4.640   2.772   2.153
 3519SOL    HW110573   4.703   2.810   2.085
 3519SOL    HW210574   4.680   2.689   2.192
 3520SOL     OW10575   4.096   3.150   3.352
 3520SOL    HW110576   4.083   3.243   3.318
 3520SOL    HW210577   4.012   3.098   3.339
 3521SOL     OW10578   4.763   2.960   2.558
 3521SOL    HW110579   4.693   2.913   2.612
 3521SOL    HW210580   4.822   2.892   2.515
 3522SOL     OW10581   4.738   2.098   2.833
 3522SOL    HW110582   4.730   2.062   2.740
 3522SOL    HW210583   4.736   2.022   2.898
 3523SOL     OW10584   4.314   3.349   2.353
 3523SOL    HW110585   4.356   3.291   2.283
 3523SOL    HW210586   4.270   3.428   2.309
 3524SOL     OW10587   3.979   3.210   2.152
 3524SOL    HW110588   3.883   3.211   2.125
 3524SOL    HW210589   3.991   3.263   2.236
 3525SOL     OW10590   3.829   2.875   3.588
 3525SOL    HW110591   3.752   2.842   3.642
 3525SOL    HW210592   3.914   2.845   3.630
 3526SOL     OW10593   4.396   2.065   3.351
 3526SOL    HW110594   4.486   2.049   3.311
 3526SOL    HW210595   4.404   2.070   3.450
 3527SOL     OW10596   3.799   2.207   1.895
 3527SOL    HW110597   3.707   2.179   1.866
 3527SOL    HW210598   3.830   2.284   1.839
 3528SOL     OW10599   3.796   2.028   2.180
 3528SOL    HW110600   3.779   2.111   2.126
 3528SOL    HW210601   3.886   1.991   2.158
 3529SOL     OW10602   4.337   2.704   3.293
 3529SOL    HW110603   4.393   2.785   3.276
 3529SOL    HW210604   4.396   2.624   3.296
 3530SOL     OW10605   4.440   2.427   3.570
 3530SOL    HW110606   4.459   2.492   3.644
 3530SOL    HW210607   4.500   2.347   3.579
 3531SOL     OW10608   4.114   3.603   3.422
 3531SOL    HW110609   4.023   3.644   3.420
 3531SOL    HW210610   4.107   3.509   3.454
 3532SOL     OW10611   4.318   2.607   2.514
 3532SOL    HW110612   4.368   2.692   2.495
 3532SOL    HW210613   4.230   2.609   2.466
 3533SOL     OW10614   4.583   3.236   1.878
 3533SOL    HW110615   4.537   3.251   1.966
 3533SOL    HW210616   4.627   3.321   1.848
 3534SOL     OW10617   4.385   3.652   2.815
 3534SOL    HW110618   4.339   3.740   2.802
 3534SOL    HW210619   4.484   3.664   2.808
 3535SOL     OW10620   4.583   2.818   2.723
 3535SOL    HW110621   4.637   2.749   2.771
 3535SOL    HW210622   4.551   2.887   2.789
 3536SOL     OW10623   4.807   2.846   1.949
 3536SOL    HW110624   4.784   2.899   1.867
 3536SOL    HW210625   4.888   2.790   1.930
 3537SOL     OW10626   3.945   3.176   3.706
 3537SOL    HW110627   3.880   3.103   3.685
 3537SOL    HW210628   3.949   3.190   3.804
 3538SOL     OW10629   3.803   3.102   2.515
 3538SOL    HW110630   3.802   3.055   2.603
 3538SOL    HW210631   3.885   3.074   2.464
 3539SOL     OW10632   4.396   3.253   3.486
 3539SOL    HW110633   4.318   3.203   3.524
 3539SOL    HW210634   4.393   3.348   3.517
 3540SOL     OW10635   4.152   2.286   2.382
 3540SOL    HW110636   4.182   2.214   2.320
 3540SOL    HW210637   4.113   2.246   2.465
 3541SOL     OW10638   4.041   2.409   3.142
 3541SOL    HW110639   4.079   2.350   3.214
 3541SOL    HW210640   4.081   2.383   3.054
 3542SOL     OW10641   4.536   3.448   2.549
 3542SOL    HW110642   4.568   3.458   2.455
 3542SOL    HW210643   4.457   3.386   2.551
 3543SOL     OW10644   4.725   1.896   3.016
 3543SOL    HW110645   4.662   1.824   2.985
 3543SOL    HW210646   4.818   1.860   3.016
 3544SOL     OW10647   4.494   3.192   2.163
 3544SOL    HW110648   4.448   3.105   2.180
 3544SOL    HW210649   4.585   3.189   2.204
 3545SOL     OW10650   4.342   3.429   3.146
 3545SOL    HW110651   4.337   3.511   3.203
 3545SOL    HW210652   4.431   3.426   3.101
 3546SOL     OW10653   3.763   2.939   2.162
 3546SOL    HW110654   3.862   2.928   2.153
 3546SOL    HW210655   3.723   2.853   2.194
 3547SOL     OW10656   4.599   3.508   2.199
 3547SOL    HW110657   4.522   3.473   2.145
 3547SOL    HW210658   4.567   3.579   2.261
 3548SOL     OW10659   3.954   2.490   3.837
 3548SOL    HW110660   3.861   2.488   3.874
 3548SOL    HW210661   3.955   2.451   3.745
 3549SOL     OW10662   3.949   2.137   4.720
 3549SOL    HW110663   3.984   2.120   4.812
 3549SOL    HW210664   3.861   2.092   4.708
 3550SOL     OW10665   3.743   2.230   4.371
 3550SOL    HW110666   3.661   2.273   4.410
 3550SOL    HW210667   3.715   2.157   4.308
 3551SOL     OW10668   4.492   3.006   4.747
 3551SOL    HW110669   4.414   3.023   4.807
 3551SOL    HW210670   4.526   3.093   4.711
 3552SOL     OW10671   4.409   2.874   4.389
 3552SOL    HW110672   4.478   2.858   4.459
 3552SOL    HW210673   4.336   2.931   4.427
 3553SOL     OW10674   4.059   3.297   4.785
 3553SOL    HW110675   3.981   3.266   4.732
 3553SOL    HW210676   4.117   3.355   4.728
 3554SOL     OW10677   3.955   3.575   4.207
 3554SOL    HW110678   3.989   3.652   4.261
 3554SOL    HW210679   3.999   3.575   4.117
 3555SOL     OW10680   3.954   3.296   4.262
 3555SOL    HW110681   3.928   3.392   4.262
 3555SOL    HW210682   3.883   3.242   4.307
 3556SOL     OW10683   3.964   2.953   4.610
 3556SOL    HW110684   3.978   2.869   4.662
 3556SOL    HW210685   3.909   3.017   4.665
 3557SOL     OW10686   4.330   2.826   3.847
 3557SOL    HW110687   4.337   2.910   3.793
 3557SOL    HW210688   4.376   2.839   3.935
 3558SOL     OW10689   3.846   2.505   4.287
 3558SOL    HW110690   3.801   2.417   4.304
 3558SOL    HW210691   3.845   2.559   4.371
 3559SOL     OW10692   3.751   3.458   3.841
 3559SOL    HW110693   3.732   3.362   3.862
 3559SOL    HW210694   3.718   3.516   3.916
 3560SOL     OW10695   4.337   3.227   4.450
 3560SOL    HW110696   4.288   3.140   4.459
 3560SOL    HW210697   4.314   3.270   4.363
 3561SOL     OW10698   4.533   1.866   4.226
 3561SOL    HW110699   4.573   1.957   4.217
 3561SOL    HW210700   4.433   1.874   4.232
 3562SOL     OW10701   3.921   2.838   4.988
 3562SOL    HW110702   4.010   2.793   4.974
 3562SOL    HW210703   3.848   2.773   4.969
 3563SOL     OW10704   4.322   2.591   3.994
 3563SOL    HW110705   4.346   2.660   3.926
 3563SOL    HW210706   4.244   2.624   4.048
 3564SOL     OW10707   4.765   2.563   4.153
 3564SOL    HW110708   4.791   2.559   4.249
 3564SOL    HW210709   4.680   2.512   4.139
 3565SOL     OW10710   3.800   2.673   4.513
 3565SOL    HW110711   3.899   2.661   4.522
 3565SOL    HW210712   3.776   2.768   4.534
 3566SOL     OW10713   4.589   2.210   3.919
 3566SOL    HW110714   4.648   2.273   3.870
 3566SOL    HW210715   4.608   2.116   3.890
 3567SOL     OW10716   4.274   2.058   4.609
 3567SOL    HW110717   4.269   2.053   4.709
 3567SOL    HW210718   4.276   2.154   4.580
 3568SOL     OW10719   4.732   3.318   4.201
 3568SOL    HW110720   4.686   3.390   4.149
 3568SOL    HW210721   4.728   3.338   4.299
 3569SOL     OW10722   4.075   3.663   4.577
 3569SOL    HW110723   4.125   3.577   4.583
 3569SOL    HW210724   4.140   3.740   4.574
 3570SOL     OW10725   4.045   2.805   3.966
 3570SOL    HW110726   4.127   2.844   3.924
 3570SOL    HW210727   4.018   2.723   3.917
 3571SOL     OW10728   4.188   3.605   4.047
 3571SOL    HW110729   4.221   3.644   4.133
 3571SOL    HW210730   4.264   3.598   3.982
 3572SOL     OW10731   3.973   3.647   4.965
 3572SOL    HW110732   4.030   3.582   5.015
 3572SOL    HW210733   3.957   3.614   4.872
 3573SOL     OW10734   4.664   3.560   4.628
 3573SOL    HW110735   4.744   3.503   4.649
 3573SOL    HW210736   4.615   3.520   4.551
 3574SOL     OW10737   4.106   2.562   4.204
 3574SOL    HW110738   4.151   2.472   4.201
 3574SOL    HW210739   4.012   2.551   4.237
 3575SOL     OW10740   4.338   1.984   3.841
 3575SOL    HW110741   4.436   1.962   3.848
 3575SOL    HW210742   4.307   1.967   3.748
 3576SOL     OW10743   4.527   3.264   4.648
 3576SOL    HW110744   4.617   3.278   4.606
 3576SOL    HW210745   4.456   3.266   4.577
 3577SOL     OW10746   4.646   2.365   4.623
 3577SOL    HW110747   4.621   2.356   4.527
 3577SOL    HW210748   4.694   2.283   4.654
 3578SOL     OW10749   4.263   1.926   4.236
 3578SOL    HW110750   4.182   1.927   4.294
 3578SOL    HW210751   4.266   2.009   4.181
 3579SOL     OW10752   4.021   1.897   3.895
 3579SOL    HW110753   4.070   1.981   3.874
 3579SOL    HW210754   4.083   1.832   3.940
 3580SOL     OW10755   4.659   2.098   4.204
 3580SOL    HW110756   4.611   2.139   4.126
 3580SOL    HW210757   4.758   2.096   4.185
 3581SOL     OW10758   4.951   3.432   4.517
 3581SOL    HW110759   4.972   3.506   4.452
 3581SOL    HW210760   5.019   3.432   4.590
 3582SOL     OW10761   4.183   3.014   4.465
 3582SOL    HW110762   4.112   2.987   4.530
 3582SOL    HW210763   4.157   2.986   4.372
 3583SOL     OW10764   4.995   3.659   4.315
 3583SOL    HW110765   5.039   3.723   4.251
 3583SOL    HW210766   4.945   3.711   4.385
 3584SOL     OW10767   4.756   2.411   3.740
 3584SOL    HW110768   4.715   2.493   3.701
 3584SOL    HW210769   4.820   2.437   3.813
 3585SOL     OW10770   4.590   2.316   4.366
 3585SOL    HW110771   4.558   2.388   4.304
 3585SOL    HW210772   4.614   2.235   4.313
 3586SOL     OW10773   4.741   1.901   4.477
 3586SOL    HW110774   4.669   1.906   4.408
 3586SOL    HW210775   4.717   1.832   4.546
 3587SOL     OW10776   4.212   3.247   3.898
 3587SOL    HW110777   4.125   3.232   3.945
 3587SOL    HW210778   4.195   3.273   3.803
 3588SOL     OW10779   4.251   2.118   4.052
 3588SOL    HW110780   4.278   2.059   3.977
 3588SOL    HW210781   4.251   2.213   4.021
 3589SOL     OW10782   4.429   2.912   4.092
 3589SOL    HW110783   4.415   2.919   4.191
 3589SOL    HW210784   4.513   2.861   4.074
 3590SOL     OW10785   4.134   2.675   4.975
 3590SOL    HW110786   4.220   2.687   5.025
 3590SOL    HW210787   4.092   2.588   5.002
 3591SOL     OW10788   4.091   2.962   4.225
 3591SOL    HW110789   4.084   3.045   4.169
 3591SOL    HW210790   4.095   2.882   4.165
 3592SOL     OW10791   4.290   2.399   4.589
 3592SOL    HW110792   4.302   2.465   4.515
 3592SOL    HW210793   4.336   2.433   4.672
 3593SOL     OW10794   4.976   3.210   4.112
 3593SOL    HW110795   5.026   3.287   4.152
 3593SOL    HW210796   4.881   3.212   4.144
 3594SOL     OW10797   4.078   3.372   5.053
 3594SOL    HW110798   4.057   3.328   4.966
 3594SOL    HW210799   4.175   3.398   5.056
 3595SOL     OW10800   4.297   2.732   4.753
 3595SOL    HW110801   4.341   2.821   4.744
 3595SOL    HW210802   4.234   2.732   4.830
 3596SOL     OW10803   4.933   2.387   3.999
 3596SOL    HW110804   4.946   2.303   4.053
 3596SOL    HW210805   4.904   2.461   4.059
 3597SOL     OW10806   4.031   2.075   4.955
 3597SOL    HW110807   4.008   2.112   5.045
 3597SOL    HW210808   4.001   1.980   4.949
 3598SOL     OW10809   4.456   2.496   4.788
 3598SOL    HW110810   4.515   2.470   4.712
 3598SOL    HW210811   4.428   2.592   4.777
 3599SOL     OW10812   4.031   1.925   4.342
 3599SOL    HW110813   4.020   2.019   4.375
 3599SOL    HW210814   4.026   1.862   4.419
 3600SOL     OW10815   4.747   2.628   4.690
 3600SOL    HW110816   4.762   2.649   4.786
 3600SOL    HW210817   4.717   2.533   4.681
 3601SOL     OW10818   4.792   3.195   4.573
 3601SOL    HW110819   4.799   3.111   4.518
 3601SOL    HW210820   4.854   3.264   4.537
 3602SOL     OW10821   4.043   2.672   4.673
 3602SOL    HW110822   4.136   2.708   4.678
 3602SOL    HW210823   4.037   2.587   4.725
 3603SOL     OW10824   4.063   2.371   4.730
 3603SOL    HW110825   4.011   2.288   4.713
 3603SOL    HW210826   4.140   2.376   4.666
 3604SOL     OW10827   3.732   3.188   3.924
 3604SOL    HW110828   3.639   3.209   3.893
 3604SOL    HW210829   3.742   3.089   3.937
 3605SOL     OW10830   3.812   3.663   4.651
 3605SOL    HW110831   3.770   3.577   4.624
 3605SOL    HW210832   3.906   3.666   4.617
 3606SOL     OW10833   4.228   3.430   4.634
 3606SOL    HW110834   4.294   3.504   4.643
 3606SOL    HW210835   4.272   3.351   4.592
 3607SOL     OW10836   4.726   2.658   4.962
 3607SOL    HW110837   4.767   2.626   5.048
 3607SOL    HW210838   4.630   2.631   4.959
 3608SOL     OW10839   3.764   2.406   4.838
 3608SOL    HW110840   3.849   2.373   4.797
 3608SOL    HW210841   3.777   2.421   4.936
 3609SOL     OW10842   4.539   2.434   4.049
 3609SOL    HW110843   4.546   2.345   4.003
 3609SOL    HW210844   4.445   2.468   4.041
 3610SOL     OW10845   4.395   2.326   4.993
 3610SOL    HW110846   4.361   2.237   4.963
 3610SOL    HW210847   4.421   2.380   4.913
 3611SOL     OW10848   4.197   2.362   3.915
 3611SOL    HW110849   4.258   2.442   3.919
 3611SOL    HW210850   4.102   2.393   3.922
 3612SOL     OW10851   5.026   2.717   4.033
 3612SOL    HW110852   4.940   2.686   4.075
 3612SOL    HW210853   5.022   2.703   3.934
 3613SOL     OW10854   3.807   3.120   4.746
 3613SOL    HW110855   3.802   3.119   4.846
 3613SOL    HW210856   3.724   3.079   4.708
 3614SOL     OW10857   4.396   3.478   3.878
 3614SOL    HW110858   4.405   3.488   3.779
 3614SOL    HW210859   4.356   3.389   3.899
 3615SOL     OW10860   3.987   2.188   4.444
 3615SOL    HW110861   3.908   2.239   4.410
 3615SOL    HW210862   3.978   2.173   4.542
 3616SOL     OW10863   4.640   2.772   4.015
 3616SOL    HW110864   4.703   2.810   3.947
 3616SOL    HW210865   4.680   2.689   4.054
 3617SOL     OW10866   4.763   2.960   4.420
 3617SOL    HW110867   4.693   2.913   4.474
 3617SOL    HW210868   4.822   2.892   4.377
 3618SOL     OW10869   4.738   2.098   4.695
 3618SOL    HW110870   4.730   2.062   4.602
 3618SOL    HW210871   4.736   2.022   4.760
 3619SOL     OW10872   4.314   3.349   4.215
 3619SOL    HW110873   4.356   3.291   4.145
 3619SOL    HW210874   4.270   3.428   4.171
 3620SOL     OW10875   3.979   3.210   4.014
 3620SOL    HW110876   3.883   3.211   3.987
 3620SOL    HW210877   3.991   3.263   4.098
 3621SOL     OW10878   3.799   2.207   3.757
 3621SOL    HW110879   3.707   2.179   3.728
 3621SOL    HW210880   3.830   2.284   3.701
 3622SOL     OW10881   3.796   2.028   4.042
 3622SOL    HW110882   3.779   2.111   3.988
 3622SOL    HW210883   3.886   1.991   4.020
 3623SOL     OW10884   4.318   2.607   4.376
 3623SOL    HW110885   4.368   2.692   4.357
 3623SOL    HW210886   4.230   2.609   4.328
 3624SOL     OW10887   4.583   3.236   3.740
 3624SOL    HW110888   4.537   3.251   3.828
 3624SOL    HW210889   4.627   3.321   3.710
 3625SOL     OW10890   4.385   3.652   4.677
 3625SOL    HW110891   4.339   3.740   4.664
 3625SOL    HW210892   4.484   3.664   4.670
 3626SOL     OW10893   4.583   2.818   4.585
 3626SOL    HW110894   4.637   2.749   4.633
 3626SOL    HW210895   4.551   2.887   4.651
 3627SOL     OW10896   4.807   2.846   3.811
 3627SOL    HW110897   4.784   2.899   3.729
 3627SOL    HW210898   4.888   2.790   3.792
 3628SOL     OW10899   3.803   3.102   4.377
 3628SOL    HW110900   3.802   3.055   4.465
 3628SOL    HW210901   3.885   3.074   4.326
 3629SOL     OW10902   4.152   2.286   4.244
 3629SOL    HW110903   4.182   2.214   4.182
 3629SOL    HW210904   4.113   2.246   4.327
 3630SOL     OW10905   4.536   3.448   4.411
 3630SOL    HW110906   4.568   3.458   4.317
 3630SOL    HW210907   4.457   3.386   4.413
 3631SOL     OW10908   4.494   3.192   4.025
 3631SOL    HW110909   4.448   3.105   4.042
 3631SOL    HW210910   4.585   3.189   4.066
 3632SOL     OW10911   3.763   2.939   4.024
 3632SOL    HW110912   3.862   2.928   4.015
 3632SOL    HW210913   3.723   2.853   4.056
 3633SOL     OW10914   4.599   3.508   4.061
 3633SOL    HW110915   4.522   3.473   4.007
 3633SOL    HW210916   4.567   3.579   4.123
 3634SOL     OW10917   3.954   4.352   0.113
 3634SOL    HW110918   3.861   4.350   0.150
 3634SOL    HW210919   3.955   4.313   0.021
 3635SOL     OW10920   3.949   3.999   0.996
 3635SOL    HW110921   3.984   3.982   1.088
 3635SOL    HW210922   3.861   3.954   0.984
 3636SOL     OW10923   3.743   4.092   0.647
 3636SOL    HW110924   3.661   4.135   0.686
 3636SOL    HW210925   3.715   4.019   0.584
 3637SOL     OW10926   4.492   4.868   1.023
 3637SOL    HW110927   4.414   4.885   1.083
 3637SOL    HW210928   4.526   4.955   0.987
 3638SOL     OW10929   4.574   4.522   1.823
 3638SOL    HW110930   4.570   4.598   1.888
 3638SOL    HW210931   4.596   4.558   1.732
 3639SOL     OW10932   4.409   4.736   0.665
 3639SOL    HW110933   4.478   4.720   0.735
 3639SOL    HW210934   4.336   4.793   0.703
 3640SOL     OW10935   4.162   4.116   1.499
 3640SOL    HW110936   4.244   4.060   1.508
 3640SOL    HW210937   4.081   4.058   1.503
 3641SOL     OW10938   3.954   5.158   0.538
 3641SOL    HW110939   3.928   5.254   0.538
 3641SOL    HW210940   3.883   5.104   0.583
 3642SOL     OW10941   3.964   4.815   0.886
 3642SOL    HW110942   3.978   4.731   0.938
 3642SOL    HW210943   3.909   4.879   0.941
 3643SOL     OW10944   4.330   4.688   0.123
 3643SOL    HW110945   4.337   4.772   0.069
 3643SOL    HW210946   4.376   4.701   0.211
 3644SOL     OW10947   3.846   4.367   0.563
 3644SOL    HW110948   3.801   4.279   0.580
 3644SOL    HW210949   3.845   4.421   0.647
 3645SOL     OW10950   3.837   4.461   1.597
 3645SOL    HW110951   3.925   4.448   1.642
 3645SOL    HW210952   3.824   4.558   1.575
 3646SOL     OW10953   4.533   3.728   0.502
 3646SOL    HW110954   4.573   3.819   0.493
 3646SOL    HW210955   4.433   3.736   0.508
 3647SOL     OW10956   3.921   4.700   1.264
 3647SOL    HW110957   4.010   4.655   1.250
 3647SOL    HW210958   3.848   4.635   1.245
 3648SOL     OW10959   4.041   3.975   1.801
 3648SOL    HW110960   4.112   4.046   1.807
 3648SOL    HW210961   3.953   4.014   1.829
 3649SOL     OW10962   4.322   4.453   0.270
 3649SOL    HW110963   4.346   4.522   0.202
 3649SOL    HW210964   4.244   4.486   0.324
 3650SOL     OW10965   4.531   4.329   1.465
 3650SOL    HW110966   4.484   4.326   1.554
 3650SOL    HW210967   4.480   4.274   1.399
 3651SOL     OW10968   4.697   4.614   1.572
 3651SOL    HW110969   4.743   4.530   1.543
 3651SOL    HW210970   4.641   4.648   1.497
 3652SOL     OW10971   4.715   4.134   1.242
 3652SOL    HW110972   4.638   4.168   1.296
 3652SOL    HW210973   4.681   4.083   1.163
 3653SOL     OW10974   4.765   4.425   0.429
 3653SOL    HW110975   4.791   4.421   0.525
 3653SOL    HW210976   4.680   4.374   0.415
 3654SOL     OW10977   3.800   4.535   0.789
 3654SOL    HW110978   3.899   4.523   0.798
 3654SOL    HW210979   3.776   4.630   0.810
 3655SOL     OW10980   4.589   4.072   0.195
 3655SOL    HW110981   4.648   4.135   0.146
 3655SOL    HW210982   4.608   3.978   0.166
 3656SOL     OW10983   4.274   3.920   0.885
 3656SOL    HW110984   4.269   3.915   0.985
 3656SOL    HW210985   4.276   4.016   0.856
 3657SOL     OW10986   4.045   4.667   0.242
 3657SOL    HW110987   4.127   4.706   0.200
 3657SOL    HW210988   4.018   4.585   0.193
 3658SOL     OW10989   3.926   4.009   1.498
 3658SOL    HW110990   3.846   4.069   1.485
 3658SOL    HW210991   3.916   3.960   1.584
 3659SOL     OW10992   4.106   4.424   0.480
 3659SOL    HW110993   4.151   4.334   0.477
 3659SOL    HW210994   4.012   4.413   0.513
 3660SOL     OW10995   4.338   3.846   0.117
 3660SOL    HW110996   4.436   3.824   0.124
 3660SOL    HW210997   4.307   3.829   0.024
 3661SOL     OW10998   4.505   3.988   1.749
 3661SOL    HW110999   4.572   3.927   1.792
 3661SOL    HW211000   4.432   4.007   1.814
 3662SOL     OW11001   4.646   4.227   0.899
 3662SOL    HW111002   4.621   4.218   0.803
 3662SOL    HW211003   4.694   4.145   0.930
 3663SOL     OW11004   4.263   3.788   0.512
 3663SOL    HW111005   4.182   3.789   0.570
 3663SOL    HW211006   4.266   3.871   0.457
 3664SOL     OW11007   4.659   3.960   0.480
 3664SOL    HW111008   4.611   4.001   0.402
 3664SOL    HW211009   4.758   3.958   0.461
 3665SOL     OW11010   4.183   4.876   0.741
 3665SOL    HW111011   4.112   4.849   0.806
 3665SOL    HW211012   4.157   4.848   0.648
 3666SOL     OW11013   4.756   4.273   0.016
 3666SOL    HW111014   4.715   4.355  -0.023
 3666SOL    HW211015   4.820   4.299   0.089
 3667SOL     OW11016   3.802   4.280   1.386
 3667SOL    HW111017   3.894   4.279   1.345
 3667SOL    HW211018   3.796   4.354   1.453
 3668SOL     OW11019   4.285   3.946   1.147
 3668SOL    HW111020   4.323   3.862   1.184
 3668SOL    HW211021   4.197   3.965   1.191
 3669SOL     OW11022   4.590   4.178   0.642
 3669SOL    HW111023   4.558   4.250   0.580
 3669SOL    HW211024   4.614   4.097   0.589
 3670SOL     OW11025   4.741   3.763   0.753
 3670SOL    HW111026   4.669   3.768   0.684
 3670SOL    HW211027   4.717   3.694   0.822
 3671SOL     OW11028   4.251   3.980   0.328
 3671SOL    HW111029   4.278   3.921   0.253
 3671SOL    HW211030   4.251   4.075   0.297
 3672SOL     OW11031   4.639   3.813   1.402
 3672SOL    HW111032   4.664   3.793   1.307
 3672SOL    HW211033   4.711   3.869   1.444
 3673SOL     OW11034   4.429   4.774   0.368
 3673SOL    HW111035   4.415   4.781   0.467
 3673SOL    HW211036   4.513   4.723   0.350
 3674SOL     OW11037   4.134   4.537   1.251
 3674SOL    HW111038   4.220   4.549   1.301
 3674SOL    HW211039   4.092   4.450   1.278
 3675SOL     OW11040   4.091   4.824   0.501
 3675SOL    HW111041   4.084   4.907   0.445
 3675SOL    HW211042   4.095   4.744   0.441
 3676SOL     OW11043   4.290   4.261   0.865
 3676SOL    HW111044   4.302   4.327   0.791
 3676SOL    HW211045   4.336   4.295   0.948
 3677SOL     OW11046   4.126   4.475   1.598
 3677SOL    HW111047   4.194   4.530   1.551
 3677SOL    HW211048   4.166   4.387   1.625
 3678SOL     OW11049   4.737   3.829   1.770
 3678SOL    HW111050   4.743   3.914   1.718
 3678SOL    HW211051   4.769   3.753   1.713
 3679SOL     OW11052   4.228   3.774   1.740
 3679SOL    HW111053   4.186   3.717   1.670
 3679SOL    HW211054   4.162   3.843   1.772
 3680SOL     OW11055   4.297   4.594   1.029
 3680SOL    HW111056   4.341   4.683   1.020
 3680SOL    HW211057   4.234   4.594   1.106
 3681SOL     OW11058   4.933   4.249   0.275
 3681SOL    HW111059   4.946   4.165   0.329
 3681SOL    HW211060   4.904   4.323   0.335
 3682SOL     OW11061   4.031   3.937   1.231
 3682SOL    HW111062   4.008   3.974   1.321
 3682SOL    HW211063   4.001   3.842   1.225
 3683SOL     OW11064   4.456   4.358   1.064
 3683SOL    HW111065   4.515   4.332   0.988
 3683SOL    HW211066   4.428   4.454   1.053
 3684SOL     OW11067   4.031   3.787   0.618
 3684SOL    HW111068   4.020   3.881   0.651
 3684SOL    HW211069   4.026   3.724   0.695
 3685SOL     OW11070   4.747   4.490   0.966
 3685SOL    HW111071   4.762   4.511   1.062
 3685SOL    HW211072   4.717   4.395   0.957
 3686SOL     OW11073   4.074   4.622   1.804
 3686SOL    HW111074   4.150   4.666   1.852
 3686SOL    HW211075   4.109   4.575   1.722
 3687SOL     OW11076   4.043   4.534   0.949
 3687SOL    HW111077   4.136   4.570   0.954
 3687SOL    HW211078   4.037   4.449   1.001
 3688SOL     OW11079   4.063   4.233   1.006
 3688SOL    HW111080   4.011   4.150   0.989
 3688SOL    HW211081   4.140   4.238   0.942
 3689SOL     OW11082   4.862   4.104   1.678
 3689SOL    HW111083   4.817   4.167   1.742
 3689SOL    HW211084   4.955   4.135   1.661
 3690SOL     OW11085   4.884   3.931   1.477
 3690SOL    HW111086   4.884   3.995   1.554
 3690SOL    HW211087   4.912   3.979   1.394
 3691SOL     OW11088   4.726   4.520   1.238
 3691SOL    HW111089   4.767   4.488   1.324
 3691SOL    HW211090   4.630   4.493   1.235
 3692SOL     OW11091   3.764   4.268   1.114
 3692SOL    HW111092   3.849   4.235   1.073
 3692SOL    HW211093   3.777   4.283   1.212
 3693SOL     OW11094   3.913   4.244   1.722
 3693SOL    HW111095   3.972   4.204   1.652
 3693SOL    HW211096   3.855   4.315   1.681
 3694SOL     OW11097   4.539   4.296   0.325
 3694SOL    HW111098   4.546   4.207   0.279
 3694SOL    HW211099   4.445   4.330   0.317
 3695SOL     OW11100   4.395   4.188   1.269
 3695SOL    HW111101   4.361   4.099   1.239
 3695SOL    HW211102   4.421   4.242   1.189
 3696SOL     OW11103   4.197   4.224   0.191
 3696SOL    HW111104   4.258   4.304   0.195
 3696SOL    HW211105   4.102   4.255   0.198
 3697SOL     OW11106   3.883   4.861   1.466
 3697SOL    HW111107   3.905   4.800   1.542
 3697SOL    HW211108   3.893   4.812   1.380
 3698SOL     OW11109   5.026   4.579   0.309
 3698SOL    HW111110   4.940   4.548   0.351
 3698SOL    HW211111   5.022   4.565   0.210
 3699SOL     OW11112   4.627   3.810   0.133
 3699SOL    HW111113   4.678   3.811   0.047
 3699SOL    HW211114   4.683   3.768   0.204
 3700SOL     OW11115   3.987   4.050   0.720
 3700SOL    HW111116   3.908   4.101   0.686
 3700SOL    HW211117   3.978   4.035   0.818
 3701SOL     OW11118   4.546   4.726   1.372
 3701SOL    HW111119   4.586   4.725   1.280
 3701SOL    HW211120   4.556   4.818   1.412
 3702SOL     OW11121   4.640   4.634   0.291
 3702SOL    HW111122   4.703   4.672   0.223
 3702SOL    HW211123   4.680   4.551   0.330
 3703SOL     OW11124   4.096   5.012   1.490
 3703SOL    HW111125   4.083   5.105   1.456
 3703SOL    HW211126   4.012   4.960   1.477
 3704SOL     OW11127   4.738   3.960   0.971
 3704SOL    HW111128   4.730   3.924   0.878
 3704SOL    HW211129   4.736   3.884   1.036
 3705SOL     OW11130   3.829   4.737   1.726
 3705SOL    HW111131   3.752   4.704   1.780
 3705SOL    HW211132   3.914   4.707   1.768
 3706SOL     OW11133   4.396   3.927   1.489
 3706SOL    HW111134   4.486   3.911   1.449
 3706SOL    HW211135   4.404   3.932   1.588
 3707SOL     OW11136   3.796   3.890   0.318
 3707SOL    HW111137   3.779   3.973   0.264
 3707SOL    HW211138   3.886   3.853   0.296
 3708SOL     OW11139   4.337   4.566   1.431
 3708SOL    HW111140   4.393   4.647   1.414
 3708SOL    HW211141   4.396   4.486   1.434
 3709SOL     OW11142   4.440   4.289   1.708
 3709SOL    HW111143   4.459   4.354   1.782
 3709SOL    HW211144   4.500   4.209   1.717
 3710SOL     OW11145   4.318   4.469   0.652
 3710SOL    HW111146   4.368   4.554   0.633
 3710SOL    HW211147   4.230   4.471   0.604
 3711SOL     OW11148   4.583   4.680   0.861
 3711SOL    HW111149   4.637   4.611   0.909
 3711SOL    HW211150   4.551   4.749   0.927
 3712SOL     OW11151   4.807   4.708   0.087
 3712SOL    HW111152   4.784   4.761   0.005
 3712SOL    HW211153   4.888   4.652   0.068
 3713SOL     OW11154   4.152   4.148   0.520
 3713SOL    HW111155   4.182   4.076   0.458
 3713SOL    HW211156   4.113   4.108   0.603
 3714SOL     OW11157   4.041   4.271   1.280
 3714SOL    HW111158   4.079   4.212   1.352
 3714SOL    HW211159   4.081   4.245   1.192
 3715SOL     OW11160   4.725   3.758   1.154
 3715SOL    HW111161   4.662   3.686   1.123
 3715SOL    HW211162   4.818   3.722   1.154
 3716SOL     OW11163   4.494   5.054   0.301
 3716SOL    HW111164   4.448   4.967   0.318
 3716SOL    HW211165   4.585   5.051   0.342
 3717SOL     OW11166   3.763   4.801   0.300
 3717SOL    HW111167   3.862   4.790   0.291
 3717SOL    HW211168   3.723   4.715   0.332
 3718SOL     OW11169   3.954   4.352   1.975
 3718SOL    HW111170   3.861   4.350   2.012
 3718SOL    HW211171   3.955   4.313   1.883
 3719SOL     OW11172   3.949   3.999   2.858
 3719SOL    HW111173   3.984   3.982   2.950
 3719SOL    HW211174   3.861   3.954   2.846
 3720SOL     OW11175   3.743   4.092   2.509
 3720SOL    HW111176   3.661   4.135   2.548
 3720SOL    HW211177   3.715   4.019   2.446
 3721SOL     OW11178   4.492   4.868   2.885
 3721SOL    HW111179   4.414   4.885   2.945
 3721SOL    HW211180   4.526   4.955   2.849
 3722SOL     OW11181   4.574   4.522   3.685
 3722SOL    HW111182   4.570   4.598   3.750
 3722SOL    HW211183   4.596   4.558   3.594
 3723SOL     OW11184   4.409   4.736   2.527
 3723SOL    HW111185   4.478   4.720   2.597
 3723SOL    HW211186   4.336   4.793   2.565
 3724SOL     OW11187   4.162   4.116   3.361
 3724SOL    HW111188   4.244   4.060   3.370
 3724SOL    HW211189   4.081   4.058   3.365
 3725SOL     OW11190   3.954   5.158   2.400
 3725SOL    HW111191   3.928   5.254   2.400
 3725SOL    HW211192   3.883   5.104   2.445
 3726SOL     OW11193   3.964   4.815   2.748
 3726SOL    HW111194   3.978   4.731   2.800
 3726SOL    HW211195   3.909   4.879   2.803
 3727SOL     OW11196   4.330   4.688   1.985
 3727SOL    HW111197   4.337   4.772   1.931
 3727SOL    HW211198   4.376   4.701   2.073
 3728SOL     OW11199   3.846   4.367   2.425
 3728SOL    HW111200   3.801   4.279   2.442
 3728SOL    HW211201   3.845   4.421   2.509
 3729SOL     OW11202   3.837   4.461   3.459
 3729SOL    HW111203   3.925   4.448   3.504
 3729SOL    HW211204   3.824   4.558   3.437
 3730SOL     OW11205   4.533   3.728   2.364
 3730SOL    HW111206   4.573   3.819   2.355
 3730SOL    HW211207   4.433   3.736   2.370
 3731SOL     OW11208   3.921   4.700   3.126
 3731SOL    HW111209   4.010   4.655   3.112
 3731SOL    HW211210   3.848   4.635   3.107
 3732SOL     OW11211   4.041   3.975   3.663
 3732SOL    HW111212   4.112   4.046   3.669
 3732SOL    HW211213   3.953   4.014   3.691
 3733SOL     OW11214   4.322   4.453   2.132
 3733SOL    HW111215   4.346   4.522   2.064
 3733SOL    HW211216   4.244   4.486   2.186
 3734SOL     OW11217   4.531   4.329   3.327
 3734SOL    HW111218   4.484   4.326   3.416
 3734SOL    HW211219   4.480   4.274   3.261
 3735SOL     OW11220   4.697   4.614   3.434
 3735SOL    HW111221   4.743   4.530   3.405
 3735SOL    HW211222   4.641   4.648   3.359
 3736SOL     OW11223   4.715   4.134   3.104
 3736SOL    HW111224   4.638   4.168   3.158
 3736SOL    HW211225   4.681   4.083   3.025
 3737SOL     OW11226   4.765   4.425   2.291
 3737SOL    HW111227   4.791   4.421   2.387
 3737SOL    HW211228   4.680   4.374   2.277
 3738SOL     OW11229   3.800   4.535   2.651
 3738SOL    HW111230   3.899   4.523   2.660
 3738SOL    HW211231   3.776   4.630   2.672
 3739SOL     OW11232   4.589   4.072   2.057
 3739SOL    HW111233   4.648   4.135   2.008
 3739SOL    HW211234   4.608   3.978   2.028
 3740SOL     OW11235   4.274   3.920   2.747
 3740SOL    HW111236   4.269   3.915   2.847
 3740SOL    HW211237   4.276   4.016   2.718
 3741SOL     OW11238   4.045   4.667   2.104
 3741SOL    HW111239   4.127   4.706   2.062
 3741SOL    HW211240   4.018   4.585   2.055
 3742SOL     OW11241   3.926   4.009   3.360
 3742SOL    HW111242   3.846   4.069   3.347
 3742SOL    HW211243   3.916   3.960   3.446
 3743SOL     OW11244   4.106   4.424   2.342
 3743SOL    HW111245   4.151   4.334   2.339
 3743SOL    HW211246   4.012   4.413   2.375
 3744SOL     OW11247   4.338   3.846   1.979
 3744SOL    HW111248   4.436   3.824   1.986
 3744SOL    HW211249   4.307   3.829   1.886
 3745SOL     OW11250   4.505   3.988   3.611
 3745SOL    HW111251   4.572   3.927   3.654
 3745SOL    HW211252   4.432   4.007   3.676
 3746SOL     OW11253   4.646   4.227   2.761
 3746SOL    HW111254   4.621   4.218   2.665
 3746SOL    HW211255   4.694   4.145   2.792
 3747SOL     OW11256   4.263   3.788   2.374
 3747SOL    HW111257   4.182   3.789   2.432
 3747SOL    HW211258   4.266   3.871   2.319
 3748SOL     OW11259   4.021   3.759   2.033
 3748SOL    HW111260   4.070   3.843   2.012
 3748SOL    HW211261   4.083   3.694   2.078
 3749SOL     OW11262   4.659   3.960   2.342
 3749SOL    HW111263   4.611   4.001   2.264
 3749SOL    HW211264   4.758   3.958   2.323
 3750SOL     OW11265   4.183   4.876   2.603
 3750SOL    HW111266   4.112   4.849   2.668
 3750SOL    HW211267   4.157   4.848   2.510
 3751SOL     OW11268   4.756   4.273   1.878
 3751SOL    HW111269   4.715   4.355   1.839
 3751SOL    HW211270   4.820   4.299   1.951
 3752SOL     OW11271   3.802   4.280   3.248
 3752SOL    HW111272   3.894   4.279   3.207
 3752SOL    HW211273   3.796   4.354   3.315
 3753SOL     OW11274   4.285   3.946   3.009
 3753SOL    HW111275   4.323   3.862   3.046
 3753SOL    HW211276   4.197   3.965   3.053
 3754SOL     OW11277   4.590   4.178   2.504
 3754SOL    HW111278   4.558   4.250   2.442
 3754SOL    HW211279   4.614   4.097   2.451
 3755SOL     OW11280   4.741   3.763   2.615
 3755SOL    HW111281   4.669   3.768   2.546
 3755SOL    HW211282   4.717   3.694   2.684
 3756SOL     OW11283   4.251   3.980   2.190
 3756SOL    HW111284   4.278   3.921   2.115
 3756SOL    HW211285   4.251   4.075   2.159
 3757SOL     OW11286   4.639   3.813   3.264
 3757SOL    HW111287   4.664   3.793   3.169
 3757SOL    HW211288   4.711   3.869   3.306
 3758SOL     OW11289   4.429   4.774   2.230
 3758SOL    HW111290   4.415   4.781   2.329
 3758SOL    HW211291   4.513   4.723   2.212
 3759SOL     OW11292   4.134   4.537   3.113
 3759SOL    HW111293   4.220   4.549   3.163
 3759SOL    HW211294   4.092   4.450   3.140
 3760SOL     OW11295   4.091   4.824   2.363
 3760SOL    HW111296   4.084   4.907   2.307
 3760SOL    HW211297   4.095   4.744   2.303
 3761SOL     OW11298   4.290   4.261   2.727
 3761SOL    HW111299   4.302   4.327   2.653
 3761SOL    HW211300   4.336   4.295   2.810
 3762SOL     OW11301   4.126   4.475   3.460
 3762SOL    HW111302   4.194   4.530   3.413
 3762SOL    HW211303   4.166   4.387   3.487
 3763SOL     OW11304   4.737   3.829   3.632
 3763SOL    HW111305   4.743   3.914   3.580
 3763SOL    HW211306   4.769   3.753   3.575
 3764SOL     OW11307   4.228   3.774   3.602
 3764SOL    HW111308   4.186   3.717   3.532
 3764SOL    HW211309   4.162   3.843   3.634
 3765SOL     OW11310   4.297   4.594   2.891
 3765SOL    HW111311   4.341   4.683   2.882
 3765SOL    HW211312   4.234   4.594   2.968
 3766SOL     OW11313   4.933   4.249   2.137
 3766SOL    HW111314   4.946   4.165   2.191
 3766SOL    HW211315   4.904   4.323   2.197
 3767SOL     OW11316   4.031   3.937   3.093
 3767SOL    HW111317   4.008   3.974   3.183
 3767SOL    HW211318   4.001   3.842   3.087
 3768SOL     OW11319   4.456   4.358   2.926
 3768SOL    HW111320   4.515   4.332   2.850
 3768SOL    HW211321   4.428   4.454   2.915
 3769SOL     OW11322   4.031   3.787   2.480
 3769SOL    HW111323   4.020   3.881   2.513
 3769SOL    HW211324   4.026   3.724   2.557
 3770SOL     OW11325   4.747   4.490   2.828
 3770SOL    HW111326   4.762   4.511   2.924
 3770SOL    HW211327   4.717   4.395   2.819
 3771SOL     OW11328   4.074   4.622   3.666
 3771SOL    HW111329   4.150   4.666   3.714
 3771SOL    HW211330   4.109   4.575   3.584
 3772SOL     OW11331   4.043   4.534   2.811
 3772SOL    HW111332   4.136   4.570   2.816
 3772SOL    HW211333   4.037   4.449   2.863
 3773SOL     OW11334   4.063   4.233   2.868
 3773SOL    HW111335   4.011   4.150   2.851
 3773SOL    HW211336   4.140   4.238   2.804
 3774SOL     OW11337   4.862   4.104   3.540
 3774SOL    HW111338   4.817   4.167   3.604
 3774SOL    HW211339   4.955   4.135   3.523
 3775SOL     OW11340   4.884   3.931   3.339
 3775SOL    HW111341   4.884   3.995   3.416
 3775SOL    HW211342   4.912   3.979   3.256
 3776SOL     OW11343   4.726   4.520   3.100
 3776SOL    HW111344   4.767   4.488   3.186
 3776SOL    HW211345   4.630   4.493   3.097
 3777SOL     OW11346   3.764   4.268   2.976
 3777SOL    HW111347   3.849   4.235   2.935
 3777SOL    HW211348   3.777   4.283   3.074
 3778SOL     OW11349   3.913   4.244   3.584
 3778SOL    HW111350   3.972   4.204   3.514
 3778SOL    HW211351   3.855   4.315   3.543
 3779SOL     OW11352   4.539   4.296   2.187
 3779SOL    HW111353   4.546   4.207   2.141
 3779SOL    HW211354   4.445   4.330   2.179
 3780SOL     OW11355   4.395   4.188   3.131
 3780SOL    HW111356   4.361   4.099   3.101
 3780SOL    HW211357   4.421   4.242   3.051
 3781SOL     OW11358   4.197   4.224   2.053
 3781SOL    HW111359   4.258   4.304   2.057
 3781SOL    HW211360   4.102   4.255   2.060
 3782SOL     OW11361   3.883   4.861   3.328
 3782SOL    HW111362   3.905   4.800   3.404
 3782SOL    HW211363   3.893   4.812   3.242
 3783SOL     OW11364   5.026   4.579   2.171
 3783SOL    HW111365   4.940   4.548   2.213
 3783SOL    HW211366   5.022   4.565   2.072
 3784SOL     OW11367   3.987   4.050   2.582
 3784SOL    HW111368   3.908   4.101   2.548
 3784SOL    HW211369   3.978   4.035   2.680
 3785SOL     OW11370   4.546   4.726   3.234
 3785SOL    HW111371   4.586   4.725   3.142
 3785SOL    HW211372   4.556   4.818   3.274
 3786SOL     OW11373   4.640   4.634   2.153
 3786SOL    HW111374   4.703   4.672   2.085
 3786SOL    HW211375   4.680   4.551   2.192
 3787SOL     OW11376   4.096   5.012   3.352
 3787SOL    HW111377   4.083   5.105   3.318
 3787SOL    HW211378   4.012   4.960   3.339
 3788SOL     OW11379   4.738   3.960   2.833
 3788SOL    HW111380   4.730   3.924   2.740
 3788SOL    HW211381   4.736   3.884   2.898
 3789SOL     OW11382   3.829   4.737   3.588
 3789SOL    HW111383   3.752   4.704   3.642
 3789SOL    HW211384   3.914   4.707   3.630
 3790SOL     OW11385   4.396   3.927   3.351
 3790SOL    HW111386   4.486   3.911   3.311
 3790SOL    HW211387   4.404   3.932   3.450
 3791SOL     OW11388   3.799   4.069   1.895
 3791SOL    HW111389   3.707   4.041   1.866
 3791SOL    HW211390   3.830   4.146   1.839
 3792SOL     OW11391   3.796   3.890   2.180
 3792SOL    HW111392   3.779   3.973   2.126
 3792SOL    HW211393   3.886   3.853   2.158
 3793SOL     OW11394   4.337   4.566   3.293
 3793SOL    HW111395   4.393   4.647   3.276
 3793SOL    HW211396   4.396   4.486   3.296
 3794SOL     OW11397   4.440   4.289   3.570
 3794SOL    HW111398   4.459   4.354   3.644
 3794SOL    HW211399   4.500   4.209   3.579
 3795SOL     OW11400   4.318   4.469   2.514
 3795SOL    HW111401   4.368   4.554   2.495
 3795SOL    HW211402   4.230   4.471   2.466
 3796SOL     OW11403   4.583   4.680   2.723
 3796SOL    HW111404   4.637   4.611   2.771
 3796SOL    HW211405   4.551   4.749   2.789
 3797SOL     OW11406   4.807   4.708   1.949
 3797SOL    HW111407   4.784   4.761   1.867
 3797SOL    HW211408   4.888   4.652   1.930
 3798SOL     OW11409   4.152   4.148   2.382
 3798SOL    HW111410   4.182   4.076   2.320
 3798SOL    HW211411   4.113   4.108   2.465
 3799SOL     OW11412   4.041   4.271   3.142
 3799SOL    HW111413   4.079   4.212   3.214
 3799SOL    HW211414   4.081   4.245   3.054
 3800SOL     OW11415   4.725   3.758   3.016
 3800SOL    HW111416   4.662   3.686   2.985
 3800SOL    HW211417   4.818   3.722   3.016
 3801SOL     OW11418   4.494   5.054   2.163
 3801SOL    HW111419   4.448   4.967   2.180
 3801SOL    HW211420   4.585   5.051   2.204
 3802SOL     OW11421   3.763   4.801   2.162
 3802SOL    HW111422   3.862   4.790   2.153
 3802SOL    HW211423   3.723   4.715   2.194
 3803SOL     OW11424   3.954   4.352   3.837
 3803SOL    HW111425   3.861   4.350   3.874
 3803SOL    HW211426   3.955   4.313   3.745
 3804SOL     OW11427   3.949   3.999   4.720
 3804SOL    HW111428   3.984   3.982   4.812
 3804SOL    HW211429   3.861   3.954   4.708
 3805SOL     OW11430   3.743   4.092   4.371
 3805SOL    HW111431   3.661   4.135   4.410
 3805SOL    HW211432   3.715   4.019   4.308
 3806SOL     OW11433   4.492   4.868   4.747
 3806SOL    HW111434   4.414   4.885   4.807
 3806SOL    HW211435   4.526   4.955   4.711
 3807SOL     OW11436   4.409   4.736   4.389
 3807SOL    HW111437   4.478   4.720   4.459
 3807SOL    HW211438   4.336   4.793   4.427
 3808SOL     OW11439   3.954   5.158   4.262
 3808SOL    HW111440   3.928   5.254   4.262
 3808SOL    HW211441   3.883   5.104   4.307
 3809SOL     OW11442   3.964   4.815   4.610
 3809SOL    HW111443   3.978   4.731   4.662
 3809SOL    HW211444   3.909   4.879   4.665
 3810SOL     OW11445   4.330   4.688   3.847
 3810SOL    HW111446   4.337   4.772   3.793
 3810SOL    HW211447   4.376   4.701   3.935
 3811SOL     OW11448   3.846   4.367   4.287
 3811SOL    HW111449   3.801   4.279   4.304
 3811SOL    HW211450   3.845   4.421   4.371
 3812SOL     OW11451   4.533   3.728   4.226
 3812SOL    HW111452   4.573   3.819   4.217
 3812SOL    HW211453   4.433   3.736   4.232
 3813SOL     OW11454   3.921   4.700   4.988
 3813SOL    HW111455   4.010   4.655   4.974
 3813SOL    HW211456   3.848   4.635   4.969
 3814SOL     OW11457   4.322   4.453   3.994
 3814SOL    HW111458   4.346   4.522   3.926
 3814SOL    HW211459   4.244   4.486   4.048
 3815SOL     OW11460   4.765   4.425   4.153
 3815SOL    HW111461   4.791   4.421   4.249
 3815SOL    HW211462   4.680   4.374   4.139
 3816SOL     OW11463   3.800   4.535   4.513
 3816SOL    HW111464   3.899   4.523   4.522
 3816SOL    HW211465   3.776   4.630   4.534
 3817SOL     OW11466   4.589   4.072   3.919
 3817SOL    HW111467   4.648   4.135   3.870
 3817SOL    HW211468   4.608   3.978   3.890
 3818SOL     OW11469   4.274   3.920   4.609
 3818SOL    HW111470   4.269   3.915   4.709
 3818SOL    HW211471   4.276   4.016   4.580
 3819SOL     OW11472   4.045   4.667   3.966
 3819SOL    HW111473   4.127   4.706   3.924
 3819SOL    HW211474   4.018   4.585   3.917
 3820SOL     OW11475   4.106   4.424   4.204
 3820SOL    HW111476   4.151   4.334   4.201
 3820SOL    HW211477   4.012   4.413   4.237
 3821SOL     OW11478   4.338   3.846   3.841
 3821SOL    HW111479   4.436   3.824   3.848
 3821SOL    HW211480   4.307   3.829   3.748
 3822SOL     OW11481   4.612   5.238   4.919
 3822SOL    HW111482   4.589   5.213   4.825
 3822SOL    HW211483   4.673   5.169   4.958
 3823SOL     OW11484   4.646   4.227   4.623
 3823SOL    HW111485   4.621   4.218   4.527
 3823SOL    HW211486   4.694   4.145   4.654
 3824SOL     OW11487   4.263   3.788   4.236
 3824SOL    HW111488   4.182   3.789   4.294
 3824SOL    HW211489   4.266   3.871   4.181
 3825SOL     OW11490   4.021   3.759   3.895
 3825SOL    HW111491   4.070   3.843   3.874
 3825SOL    HW211492   4.083   3.694   3.940
 3826SOL     OW11493   4.659   3.960   4.204
 3826SOL    HW111494   4.611   4.001   4.126
 3826SOL    HW211495   4.758   3.958   4.185
 3827SOL     OW11496   4.183   4.876   4.465
 3827SOL    HW111497   4.112   4.849   4.530
 3827SOL    HW211498   4.157   4.848   4.372
 3828SOL     OW11499   4.756   4.273   3.740
 3828SOL    HW111500   4.715   4.355   3.701
 3828SOL    HW211501   4.820   4.299   3.813
 3829SOL     OW11502   4.590   4.178   4.366
 3829SOL    HW111503   4.558   4.250   4.304
 3829SOL    HW211504   4.614   4.097   4.313
 3830SOL     OW11505   4.741   3.763   4.477
 3830SOL    HW111506   4.669   3.768   4.408
 3830SOL    HW211507   4.717   3.694   4.546
 3831SOL     OW11508   4.251   3.980   4.052
 3831SOL    HW111509   4.278   3.921   3.977
 3831SOL    HW211510   4.251   4.075   4.021
 3832SOL     OW11511   4.429   4.774   4.092
 3832SOL    HW111512   4.415   4.781   4.191
 3832SOL    HW211513   4.513   4.723   4.074
 3833SOL     OW11514   4.134   4.537   4.975
 3833SOL    HW111515   4.220   4.549   5.025
 3833SOL    HW211516   4.092   4.450   5.002
 3834SOL     OW11517   4.091   4.824   4.225
 3834SOL    HW111518   4.084   4.907   4.169
 3834SOL    HW211519   4.095   4.744   4.165
 3835SOL     OW11520   4.290   4.261   4.589
 3835SOL    HW111521   4.302   4.327   4.515
 3835SOL    HW211522   4.336   4.295   4.672
 3836SOL     OW11523   4.297   4.594   4.753
 3836SOL    HW111524   4.341   4.683   4.744
 3836SOL    HW211525   4.234   4.594   4.830
 3837SOL     OW11526   4.933   4.249   3.999
 3837SOL    HW111527   4.946   4.165   4.053
 3837SOL    HW211528   4.904   4.323   4.059
 3838SOL     OW11529   4.031   3.937   4.955
 3838SOL    HW111530   4.008   3.974   5.045
 3838SOL    HW211531   4.001   3.842   4.949
 3839SOL     OW11532   4.456   4.358   4.788
 3839SOL    HW111533   4.515   4.332   4.712
 3839SOL    HW211534   4.428   4.454   4.777
 3840SOL     OW11535   4.031   3.787   4.342
 3840SOL    HW111536   4.020   3.881   4.375
 3840SOL    HW211537   4.026   3.724   4.419
 3841SOL     OW11538   4.747   4.490   4.690
 3841SOL    HW111539   4.762   4.511   4.786
 3841SOL    HW211540   4.717   4.395   4.681
 3842SOL     OW11541   4.043   4.534   4.673
 3842SOL    HW111542   4.136   4.570   4.678
 3842SOL    HW211543   4.037   4.449   4.725
 3843SOL     OW11544   4.063   4.233   4.730
 3843SOL    HW111545   4.011   4.150   4.713
 3843SOL    HW211546   4.140   4.238   4.666
 3844SOL     OW11547   4.726   4.520   4.962
 3844SOL    HW111548   4.767   4.488   5.048
 3844SOL    HW211549   4.630   4.493   4.959
 3845SOL     OW11550   3.764   4.268   4.838
 3845SOL    HW111551   3.849   4.235   4.797
 3845SOL    HW211552   3.777   4.283   4.936
 3846SOL     OW11553   4.539   4.296   4.049
 3846SOL    HW111554   4.546   4.207   4.003
 3846SOL    HW211555   4.445   4.330   4.041
 3847SOL     OW11556   4.395   4.188   4.993
 3847SOL    HW111557   4.361   4.099   4.963
 3847SOL    HW211558   4.421   4.242   4.913
 3848SOL     OW11559   4.197   4.224   3.915
 3848SOL    HW111560   4.258   4.304   3.919
 3848SOL    HW211561   4.102   4.255   3.922
 3849SOL     OW11562   5.026   4.579   4.033
 3849SOL    HW111563   4.940   4.548   4.075
 3849SOL    HW211564   5.022   4.565   3.934
 3850SOL     OW11565   3.987   4.050   4.444
 3850SOL    HW111566   3.908   4.101   4.410
 3850SOL    HW211567   3.978   4.035   4.542
 3851SOL     OW11568   4.640   4.634   4.015
 3851SOL    HW111569   4.703   4.672   3.947
 3851SOL    HW211570   4.680   4.551   4.054
 3852SOL     OW11571   4.738   3.960   4.695
 3852SOL    HW111572   4.730   3.924   4.602
 3852SOL    HW211573   4.736   3.884   4.760
 3853SOL     OW11574   3.799   4.069   3.757
 3853SOL    HW111575   3.707   4.041   3.728
 3853SOL    HW211576   3.830   4.146   3.701
 3854SOL     OW11577   3.796   3.890   4.042
 3854SOL    HW111578   3.779   3.973   3.988
 3854SOL    HW211579   3.886   3.853   4.020
 3855SOL     OW11580   4.318   4.469   4.376
 3855SOL    HW111581   4.368   4.554   4.357
 3855SOL    HW211582   4.230   4.471   4.328
 3856SOL     OW11583   4.583   4.680   4.585
 3856SOL    HW111584   4.637   4.611   4.633
 3856SOL    HW211585   4.551   4.749   4.651
 3857SOL     OW11586   4.807   4.708   3.811
 3857SOL    HW111587   4.784   4.761   3.729
 3857SOL    HW211588   4.888   4.652   3.792
 3858SOL     OW11589   4.152   4.148   4.244
 3858SOL    HW111590   4.182   4.076   4.182
 3858SOL    HW211591   4.113   4.108   4.327
 3859SOL     OW11592   4.494   5.054   4.025
 3859SOL    HW111593   4.448   4.967   4.042
 3859SOL    HW211594   4.585   5.051   4.066
 3860SOL     OW11595   3.763   4.801   4.024
 3860SOL    HW111596   3.862   4.790   4.015
 3860SOL    HW211597   3.723   4.715   4.056
   4.91253   4.91253   4.91253
