1_nitrobutane
    16
   1.0480000   0.0900000  -0.1320000   1.5530000   1.5130000   0.0480000
   0.8700000   2.4770000  -0.9210000   1.3510000   3.9010000  -0.7040000
   0.6060000   4.7770000  -1.6220000  -0.4510000   5.2850000  -1.2080000
   1.0900000   4.9710000  -2.7510000   1.5500000  -0.5820000   0.5710000
  -0.0300000   0.0300000   0.0510000   1.2450000  -0.2710000  -1.1470000
   1.3700000   1.8310000   1.0810000   2.6370000   1.5320000  -0.1110000
   1.0720000   2.1660000  -1.9550000  -0.2190000   2.4240000  -0.7870000
   1.1470000   4.2640000   0.3070000   2.4100000   4.0280000  -0.9430000
