; mobley_6006813_GMX_OPLS.itp created by acpype (v: 2023.10.27) on Wed May 20 23:53:43 2026

; For OPLS atomtypes manual fine tuning
; AC_at:OPLS_at:OPLScode: Possible_Alternatives (see ffoplsaa.atp and ffoplsaanb.itp)
; c3:CT:opls_135: ['136', '137', '149', '157', '158', '206', '209', '210', '223B', '224B', '245', '246', '274', '283', '284', '285', '292', '292B', '293B', '296', '307', '308', '505']
; no:x:opls_x: []
; o:O:opls_236: ['272']
; hc:HC:opls_140: []
; h1:HC:opls_140: []

[ moleculetype ]
;name            nrexcl
 mobley_6006813   3

[ atoms ]
;   nr  type  resi  res  atom  cgnr     charge      mass       ; qtot   bond_type
     1 opls_135     1   MOL    C1    1    -0.094100     12.01100 ; qtot -0.094  CT  
     2 opls_135     1   MOL    C2    2    -0.078400     12.01100 ; qtot -0.172  CT  
     3 opls_135     1   MOL    C3    3    -0.094400     12.01100 ; qtot -0.267  CT  
     4 opls_135     1   MOL    C4    4    -0.077700     12.01100 ; qtot -0.345  CT  
     5 opls_x     1   MOL    N1    5     0.228299      0.00000 ; qtot -0.116  x   
     6 opls_236     1   MOL    O1    6    -0.211500     15.99940 ; qtot -0.328  O   
     7 opls_236     1   MOL    O2    7    -0.211500     15.99940 ; qtot -0.539  O   
     8 opls_140     1   MOL    H1    8     0.040367      1.00800 ; qtot -0.499  HC  
     9 opls_140     1   MOL    H2    9     0.040367      1.00800 ; qtot -0.459  HC  
    10 opls_140     1   MOL    H3   10     0.040367      1.00800 ; qtot -0.418  HC  
    11 opls_140     1   MOL    H4   11     0.044200      1.00800 ; qtot -0.374  HC  
    12 opls_140     1   MOL    H5   12     0.044200      1.00800 ; qtot -0.330  HC  
    13 opls_140     1   MOL    H6   13     0.070200      1.00800 ; qtot -0.260  HC  
    14 opls_140     1   MOL    H7   14     0.070200      1.00800 ; qtot -0.189  HC  
    15 opls_140     1   MOL    H8   15     0.094700      1.00800 ; qtot -0.095  HC  
    16 opls_140     1   MOL    H9   16     0.094700      1.00800 ; qtot -0.000  HC  

[ bonds ]
;   ai     aj funct   r             k
     1      2   1 ;    1.5354e-01    1.9154e+05 ;     C1 - C2         CT - CT    
     1      8   1 ;    1.0962e-01    2.8891e+05 ;     C1 - H1         CT - HC    
     1      9   1 ;    1.0962e-01    2.8891e+05 ;     C1 - H2         CT - HC    
     1     10   1 ;    1.0962e-01    2.8891e+05 ;     C1 - H3         CT - HC    
     2      3   1 ;    1.5354e-01    1.9154e+05 ;     C2 - C3         CT - CT    
     2     11   1 ;    1.0962e-01    2.8891e+05 ;     C2 - H4         CT - HC    
     2     12   1 ;    1.0962e-01    2.8891e+05 ;     C2 - H5         CT - HC    
     3      4   1 ;    1.5354e-01    1.9154e+05 ;     C3 - C4         CT - CT    
     3     13   1 ;    1.0962e-01    2.8891e+05 ;     C3 - H6         CT - HC    
     3     14   1 ;    1.0962e-01    2.8891e+05 ;     C3 - H7         CT - HC    
     4      5   1 ;    1.5232e-01    1.7705e+05 ;     C4 - N1         CT - x     
     4     15   1 ;    1.0969e-01    2.8804e+05 ;     C4 - H8         CT - HC    
     4     16   1 ;    1.0969e-01    2.8804e+05 ;     C4 - H9         CT - HC    
     5      6   1 ;    1.2311e-01    3.0270e+05 ;     N1 - O1          x - O     
     5      7   1 ;    1.2311e-01    3.0270e+05 ;     N1 - O2          x - O     

[ pairs ]
;   ai     aj    funct
     1      4      1 ;     C1 - C4    
     1     13      1 ;     C1 - H6    
     1     14      1 ;     C1 - H7    
     2      5      1 ;     C2 - N1    
     2     15      1 ;     C2 - H8    
     2     16      1 ;     C2 - H9    
     3      6      1 ;     C3 - O1    
     3      7      1 ;     C3 - O2    
     4     11      1 ;     C4 - H4    
     4     12      1 ;     C4 - H5    
     5     13      1 ;     N1 - H6    
     5     14      1 ;     N1 - H7    
     6     15      1 ;     O1 - H8    
     6     16      1 ;     O1 - H9    
     7     15      1 ;     O2 - H8    
     7     16      1 ;     O2 - H9    
     8      3      1 ;     H1 - C3    
     8     11      1 ;     H1 - H4    
     8     12      1 ;     H1 - H5    
     9      3      1 ;     H2 - C3    
     9     11      1 ;     H2 - H4    
     9     12      1 ;     H2 - H5    
    10      3      1 ;     H3 - C3    
    10     11      1 ;     H3 - H4    
    10     12      1 ;     H3 - H5    
    11     13      1 ;     H4 - H6    
    11     14      1 ;     H4 - H7    
    12     13      1 ;     H5 - H6    
    12     14      1 ;     H5 - H7    
    13     15      1 ;     H6 - H8    
    13     16      1 ;     H6 - H9    
    14     15      1 ;     H7 - H8    
    14     16      1 ;     H7 - H9    

[ angles ]
;   ai     aj     ak    funct   theta         cth
     1      2      3      1 ;    1.1263e+02    5.0099e+02 ;     C1 - C2   - C3       CT -   CT - CT  
     1      2     11      1 ;    1.0968e+02    3.6208e+02 ;     C1 - C2   - H4       CT -   CT - HC  
     1      2     12      1 ;    1.0968e+02    3.6208e+02 ;     C1 - C2   - H5       CT -   CT - HC  
     2      1      8      1 ;    1.0968e+02    3.6208e+02 ;     C2 - C1   - H1       CT -   CT - HC  
     2      1      9      1 ;    1.0968e+02    3.6208e+02 ;     C2 - C1   - H2       CT -   CT - HC  
     2      1     10      1 ;    1.0968e+02    3.6208e+02 ;     C2 - C1   - H3       CT -   CT - HC  
     2      3      4      1 ;    1.1263e+02    5.0099e+02 ;     C2 - C3   - C4       CT -   CT - CT  
     2      3     13      1 ;    1.0968e+02    3.6208e+02 ;     C2 - C3   - H6       CT -   CT - HC  
     2      3     14      1 ;    1.0968e+02    3.6208e+02 ;     C2 - C3   - H7       CT -   CT - HC  
     3      2     11      1 ;    1.0968e+02    3.6208e+02 ;     C3 - C2   - H4       CT -   CT - HC  
     3      2     12      1 ;    1.0968e+02    3.6208e+02 ;     C3 - C2   - H5       CT -   CT - HC  
     3      4      5      1 ;    1.0962e+02    5.4124e+02 ;     C3 - C4   - N1       CT -   CT - x   
     3      4     15      1 ;    1.0959e+02    3.6217e+02 ;     C3 - C4   - H8       CT -   CT - HC  
     3      4     16      1 ;    1.0959e+02    3.6217e+02 ;     C3 - C4   - H9       CT -   CT - HC  
     4      3     13      1 ;    1.0968e+02    3.6208e+02 ;     C4 - C3   - H6       CT -   CT - HC  
     4      3     14      1 ;    1.0968e+02    3.6208e+02 ;     C4 - C3   - H7       CT -   CT - HC  
     4      5      6      1 ;    1.1693e+02    8.1027e+02 ;     C4 - N1   - O1       CT -    x - O   
     4      5      7      1 ;    1.1693e+02    8.1027e+02 ;     C4 - N1   - O2       CT -    x - O   
     5      4     15      1 ;    1.0556e+02    3.9455e+02 ;     N1 - C4   - H8        x -   CT - HC  
     5      4     16      1 ;    1.0556e+02    3.9455e+02 ;     N1 - C4   - H9        x -   CT - HC  
     6      5      7      1 ;    1.2505e+02    1.0964e+03 ;     O1 - N1   - O2        O -    x - O   
     8      1      9      1 ;    1.0773e+02    2.9957e+02 ;     H1 - C1   - H2       HC -   CT - HC  
     8      1     10      1 ;    1.0773e+02    2.9957e+02 ;     H1 - C1   - H3       HC -   CT - HC  
     9      1     10      1 ;    1.0773e+02    2.9957e+02 ;     H2 - C1   - H3       HC -   CT - HC  
    11      2     12      1 ;    1.0773e+02    2.9957e+02 ;     H4 - C2   - H5       HC -   CT - HC  
    13      3     14      1 ;    1.0773e+02    2.9957e+02 ;     H6 - C3   - H7       HC -   CT - HC  
    15      4     16      1 ;    1.0855e+02    2.9824e+02 ;     H8 - C4   - H9       HC -   CT - HC  

[ dihedrals ] ; propers
; for gromacs 4.5 or higher, using funct 9
;    i      j      k      l   func   phase     kd      pn
     1      2      3      4      9 ;     0.00   2.17568   3 ;     C1-    C2-    C3-    C4
     1      2      3     13      9 ;     0.00   0.54392   3 ;     C1-    C2-    C3-    H6
     1      2      3     14      9 ;     0.00   0.54392   3 ;     C1-    C2-    C3-    H7
     2      3      4      5      9 ;     0.00   0.65084   3 ;     C2-    C3-    C4-    N1
     2      3      4     15      9 ;     0.00   0.65084   3 ;     C2-    C3-    C4-    H8
     2      3      4     16      9 ;     0.00   0.65084   3 ;     C2-    C3-    C4-    H9
     3      4      5      6      9 ;     0.00   0.00000   0 ;     C3-    C4-    N1-    O1
     3      4      5      7      9 ;     0.00   0.00000   0 ;     C3-    C4-    N1-    O2
     4      3      2     11      9 ;     0.00   0.54392   3 ;     C4-    C3-    C2-    H4
     4      3      2     12      9 ;     0.00   0.54392   3 ;     C4-    C3-    C2-    H5
     5      4      3     13      9 ;     0.00   0.65084   3 ;     N1-    C4-    C3-    H6
     5      4      3     14      9 ;     0.00   0.65084   3 ;     N1-    C4-    C3-    H7
     6      5      4     15      9 ;     0.00   0.00000   0 ;     O1-    N1-    C4-    H8
     6      5      4     16      9 ;     0.00   0.00000   0 ;     O1-    N1-    C4-    H9
     7      5      4     15      9 ;     0.00   0.00000   0 ;     O2-    N1-    C4-    H8
     7      5      4     16      9 ;     0.00   0.00000   0 ;     O2-    N1-    C4-    H9
     8      1      2      3      9 ;     0.00   0.54392   3 ;     H1-    C1-    C2-    C3
     8      1      2     11      9 ;     0.00   0.50208   3 ;     H1-    C1-    C2-    H4
     8      1      2     12      9 ;     0.00   0.50208   3 ;     H1-    C1-    C2-    H5
     9      1      2      3      9 ;     0.00   0.54392   3 ;     H2-    C1-    C2-    C3
     9      1      2     11      9 ;     0.00   0.50208   3 ;     H2-    C1-    C2-    H4
     9      1      2     12      9 ;     0.00   0.50208   3 ;     H2-    C1-    C2-    H5
    10      1      2      3      9 ;     0.00   0.54392   3 ;     H3-    C1-    C2-    C3
    10      1      2     11      9 ;     0.00   0.50208   3 ;     H3-    C1-    C2-    H4
    10      1      2     12      9 ;     0.00   0.50208   3 ;     H3-    C1-    C2-    H5
    11      2      3     13      9 ;     0.00   0.50208   3 ;     H4-    C2-    C3-    H6
    11      2      3     14      9 ;     0.00   0.50208   3 ;     H4-    C2-    C3-    H7
    12      2      3     13      9 ;     0.00   0.50208   3 ;     H5-    C2-    C3-    H6
    12      2      3     14      9 ;     0.00   0.50208   3 ;     H5-    C2-    C3-    H7
    13      3      4     15      9 ;     0.00   0.65084   3 ;     H6-    C3-    C4-    H8
    13      3      4     16      9 ;     0.00   0.65084   3 ;     H6-    C3-    C4-    H9
    14      3      4     15      9 ;     0.00   0.65084   3 ;     H7-    C3-    C4-    H8
    14      3      4     16      9 ;     0.00   0.65084   3 ;     H7-    C3-    C4-    H9

[ dihedrals ] ; impropers
; treated as propers in GROMACS to use correct AMBER analytical function
;    i      j      k      l   func   phase     kd      pn
     4      6      5      7      4 ;   180.00   4.60240   2 ;     C4-    O1-    N1-    O2
