; mobley_6006813_GMX_OPLS.top created by acpype (v: 2023.10.27) on Wed May 20 23:53:43 2026

; Include forcefield parameters
#include "ffoplsaa.itp"

; Include mobley_6006813_GMX.itp topology
#include "mobley_6006813_GMX.itp"

; Ligand position restraints
#ifdef POSRES_LIG
#include "posre_mobley_6006813.itp"
#endif

[ system ]
 mobley_6006813

[ molecules ]
; Compound        nmols
 mobley_6006813   1     
