mobley_9794857_GMX.gro created by acpype (v: 2023.10.27) on Wed May 20 23:44:36 2026
   18
    1MOL     C1    1   2.188   2.322   2.153
    1MOL     C2    2   2.398   2.398   2.270
    1MOL     C3    3   2.355   2.153   2.235
    1MOL     C4    4   2.122   2.186   2.388
    1MOL     C5    5   2.291   2.289   2.261
    1MOL     O1    6   2.224   2.284   2.387
    1MOL     H1    7   2.139   2.418   2.174
    1MOL     H2    8   2.235   2.329   2.054
    1MOL     H3    9   2.109   2.247   2.149
    1MOL     H4   10   2.469   2.377   2.350
    1MOL     H5   11   2.353   2.495   2.293
    1MOL     H6   12   2.454   2.407   2.176
    1MOL     H7   13   2.280   2.074   2.233
    1MOL     H8   14   2.410   2.152   2.140
    1MOL     H9   15   2.425   2.127   2.316
    1MOL    H10   16   2.157   2.097   2.442
    1MOL    H11   17   2.096   2.159   2.285
    1MOL    H12   18   2.034   2.226   2.438
   4.52707   4.52707   4.52707
