mobley_9794857_GMX.gro created by acpype (v: 2023.10.27) on Wed May 20 23:44:36 2026
 9024
    1MOL     C1    1   2.188   2.322   2.153
    1MOL     C2    2   2.398   2.398   2.270
    1MOL     C3    3   2.355   2.153   2.235
    1MOL     C4    4   2.122   2.186   2.388
    1MOL     C5    5   2.291   2.289   2.261
    1MOL     O1    6   2.224   2.284   2.387
    1MOL     H1    7   2.139   2.418   2.174
    1MOL     H2    8   2.235   2.329   2.054
    1MOL     H3    9   2.109   2.247   2.149
    1MOL     H4   10   2.469   2.377   2.350
    1MOL     H5   11   2.353   2.495   2.293
    1MOL     H6   12   2.454   2.407   2.176
    1MOL     H7   13   2.280   2.074   2.233
    1MOL     H8   14   2.410   2.152   2.140
    1MOL     H9   15   2.425   2.127   2.316
    1MOL    H10   16   2.157   2.097   2.442
    1MOL    H11   17   2.096   2.159   2.285
    1MOL    H12   18   2.034   2.226   2.438
    2SOL     OW   19   0.230   0.628   0.113
    2SOL    HW1   20   0.137   0.626   0.150
    2SOL    HW2   21   0.231   0.589   0.021
    3SOL     OW   22   0.225   0.275   0.996
    3SOL    HW1   23   0.260   0.258   1.088
    3SOL    HW2   24   0.137   0.230   0.984
    4SOL     OW   25   0.019   0.368   0.647
    4SOL    HW1   26  -0.063   0.411   0.686
    4SOL    HW2   27  -0.009   0.295   0.584
    5SOL     OW   28   0.569   1.275   1.165
    5SOL    HW1   29   0.476   1.268   1.128
    5SOL    HW2   30   0.580   1.364   1.209
    6SOL     OW   31   1.555   1.511   0.703
    6SOL    HW1   32   1.498   1.495   0.784
    6SOL    HW2   33   1.496   1.521   0.623
    7SOL     OW   34   1.135   0.703   0.717
    7SOL    HW1   35   1.192   0.781   0.692
    7SOL    HW2   36   1.075   0.729   0.793
    8SOL     OW   37   1.755   0.607   0.231
    8SOL    HW1   38   1.743   0.594   0.132
    8SOL    HW2   39   1.725   0.526   0.280
    9SOL     OW   40   0.768   1.144   1.023
    9SOL    HW1   41   0.690   1.161   1.083
    9SOL    HW2   42   0.802   1.231   0.987
   10SOL     OW   43   0.850   0.798   1.823
   10SOL    HW1   44   0.846   0.874   1.888
   10SOL    HW2   45   0.872   0.834   1.732
   11SOL     OW   46   0.685   1.012   0.665
   11SOL    HW1   47   0.754   0.996   0.735
   11SOL    HW2   48   0.612   1.069   0.703
   12SOL     OW   49   0.686   1.161   1.803
   12SOL    HW1   50   0.746   1.240   1.817
   12SOL    HW2   51   0.600   1.192   1.762
   13SOL     OW   52   0.335   1.435   1.061
   13SOL    HW1   53   0.257   1.404   1.008
   13SOL    HW2   54   0.393   1.493   1.004
   14SOL     OW   55   1.460   1.505   1.339
   14SOL    HW1   56   1.484   1.599   1.365
   14SOL    HW2   57   1.444   1.451   1.421
   15SOL     OW   58   0.438   0.392   1.499
   15SOL    HW1   59   0.520   0.336   1.508
   15SOL    HW2   60   0.357   0.334   1.503
   16SOL     OW   61   1.603   0.447   0.737
   16SOL    HW1   62   1.529   0.493   0.687
   16SOL    HW2   63   1.654   0.515   0.790
   17SOL     OW   64   0.231   1.713   0.483
   17SOL    HW1   65   0.265   1.790   0.537
   17SOL    HW2   66   0.275   1.713   0.393
   18SOL     OW   67   1.127   1.341   1.690
   18SOL    HW1   68   1.174   1.341   1.778
   18SOL    HW2   69   1.079   1.254   1.679
   19SOL     OW   70   0.230   1.434   0.538
   19SOL    HW1   71   0.204   1.530   0.538
   19SOL    HW2   72   0.159   1.380   0.583
   20SOL     OW   73   0.240   1.091   0.886
   20SOL    HW1   74   0.254   1.007   0.938
   20SOL    HW2   75   0.185   1.155   0.941
   21SOL     OW   76   0.620   1.786   1.439
   21SOL    HW1   77   0.528   1.769   1.474
   21SOL    HW2   78   0.648   1.878   1.465
   22SOL     OW   79   0.606   0.964   0.123
   22SOL    HW1   80   0.613   1.048   0.069
   22SOL    HW2   81   0.652   0.977   0.211
   23SOL     OW   82   1.594   0.114   1.480
   23SOL    HW1   83   1.576   0.181   1.408
   23SOL    HW2   84   1.591   0.160   1.569
   24SOL     OW   85   0.122   0.643   0.563
   24SOL    HW1   86   0.077   0.555   0.580
   24SOL    HW2   87   0.121   0.697   0.647
   25SOL     OW   88   1.842   1.767   0.359
   25SOL    HW1   89   1.896   1.738   0.439
   25SOL    HW2   90   1.872   1.857   0.330
   26SOL     OW   91   0.027   1.596   0.117
   26SOL    HW1   92   0.008   1.500   0.138
   26SOL    HW2   93  -0.006   1.654   0.192
   27SOL     OW   94   1.689   0.922   0.612
   27SOL    HW1   95   1.784   0.893   0.620
   27SOL    HW2   96   1.681   0.987   0.537
   28SOL     OW   97   1.641   1.108   0.432
   28SOL    HW1   98   1.727   1.110   0.380
   28SOL    HW2   99   1.655   1.155   0.520
   29SOL     OW  100   0.113   0.737   1.597
   29SOL    HW1  101   0.201   0.724   1.642
   29SOL    HW2  102   0.100   0.834   1.575
   30SOL     OW  103   0.613   1.365   0.726
   30SOL    HW1  104   0.564   1.278   0.735
   30SOL    HW2  105   0.590   1.408   0.639
   31SOL     OW  106   1.293   1.228   1.423
   31SOL    HW1  107   1.330   1.155   1.365
   31SOL    HW2  108   1.345   1.233   1.508
   32SOL     OW  109   0.809   0.004   0.502
   32SOL    HW1  110   0.849   0.095   0.493
   32SOL    HW2  111   0.709   0.012   0.508
   33SOL     OW  112   0.197   0.976   1.264
   33SOL    HW1  113   0.286   0.931   1.250
   33SOL    HW2  114   0.124   0.911   1.245
   34SOL     OW  115   1.525   0.999   0.190
   34SOL    HW1  116   1.462   0.923   0.203
   34SOL    HW2  117   1.573   1.017   0.276
   35SOL     OW  118   1.187   1.792   1.616
   35SOL    HW1  119   1.211   1.852   1.540
   35SOL    HW2  120   1.194   1.697   1.586
   36SOL     OW  121   0.317   0.251   1.801
   36SOL    HW1  122   0.388   0.322   1.807
   36SOL    HW2  123   0.229   0.290   1.829
   37SOL     OW  124   1.466   1.417   0.953
   37SOL    HW1  125   1.407   1.423   1.033
   37SOL    HW2  126   1.451   1.329   0.907
   38SOL     OW  127   1.667   1.714   0.572
   38SOL    HW1  128   1.626   1.691   0.484
   38SOL    HW2  129   1.649   1.640   0.637
   39SOL     OW  130   0.598   0.729   0.270
   39SOL    HW1  131   0.622   0.798   0.202
   39SOL    HW2  132   0.520   0.762   0.324
   40SOL     OW  133   1.281   0.345   0.944
   40SOL    HW1  134   1.195   0.295   0.931
   40SOL    HW2  135   1.343   0.291   1.000
   41SOL     OW  136   1.576   1.662   0.307
   41SOL    HW1  137   1.665   1.708   0.310
   41SOL    HW2  138   1.555   1.638   0.212
   42SOL     OW  139   0.807   0.605   1.465
   42SOL    HW1  140   0.760   0.602   1.554
   42SOL    HW2  141   0.756   0.550   1.399
   43SOL     OW  142   1.394   0.469   1.674
   43SOL    HW1  143   1.374   0.512   1.762
   43SOL    HW2  144   1.472   0.407   1.683
   44SOL     OW  145   0.973   0.890   1.572
   44SOL    HW1  146   1.019   0.806   1.543
   44SOL    HW2  147   0.917   0.924   1.497
   45SOL     OW  148   0.991   0.410   1.242
   45SOL    HW1  149   0.914   0.444   1.296
   45SOL    HW2  150   0.957   0.359   1.163
   46SOL     OW  151   1.041   0.701   0.429
   46SOL    HW1  152   1.067   0.697   0.525
   46SOL    HW2  153   0.956   0.650   0.415
   47SOL     OW  154   0.076   0.811   0.789
   47SOL    HW1  155   0.175   0.799   0.798
   47SOL    HW2  156   0.052   0.906   0.810
   48SOL     OW  157   0.130   1.821   1.571
   48SOL    HW1  158   0.120   1.806   1.670
   48SOL    HW2  159   0.044   1.857   1.535
   49SOL     OW  160   0.865   0.348   0.195
   49SOL    HW1  161   0.924   0.411   0.146
   49SOL    HW2  162   0.884   0.254   0.166
   50SOL     OW  163   1.719   0.585   1.831
   50SOL    HW1  164   1.693   0.674   1.795
   50SOL    HW2  165   1.717   0.517   1.758
   51SOL     OW  166   1.362   1.144   0.545
   51SOL    HW1  167   1.445   1.115   0.497
   51SOL    HW2  168   1.313   1.211   0.489
   52SOL     OW  169   0.550   0.196   0.885
   52SOL    HW1  170   0.545   0.191   0.985
   52SOL    HW2  171   0.552   0.292   0.856
   53SOL     OW  172   1.008   1.456   0.477
   53SOL    HW1  173   0.962   1.528   0.425
   53SOL    HW2  174   1.004   1.476   0.575
   54SOL     OW  175   0.351   1.801   0.853
   54SOL    HW1  176   0.401   1.715   0.859
   54SOL    HW2  177   0.416   1.878   0.850
   55SOL     OW  178   1.795   1.066   0.873
   55SOL    HW1  179   1.733   1.051   0.797
   55SOL    HW2  180   1.743   1.077   0.958
   56SOL     OW  181   1.227   1.550   1.506
   56SOL    HW1  182   1.233   1.473   1.570
   56SOL    HW2  183   1.175   1.524   1.426
   57SOL     OW  184   0.321   0.943   0.242
   57SOL    HW1  185   0.403   0.982   0.200
   57SOL    HW2  186   0.294   0.861   0.193
   58SOL     OW  187   1.458   0.735   0.728
   58SOL    HW1  188   1.453   0.670   0.803
   58SOL    HW2  189   1.538   0.794   0.741
   59SOL     OW  190   0.461   1.266   1.727
   59SOL    HW1  191   0.411   1.267   1.641
   59SOL    HW2  192   0.398   1.248   1.803
   60SOL     OW  193   1.111   1.776   0.237
   60SOL    HW1  194   1.051   1.714   0.287
   60SOL    HW2  195   1.142   1.732   0.152
   61SOL     OW  196   0.202   0.285   1.498
   61SOL    HW1  197   0.122   0.345   1.485
   61SOL    HW2  198   0.192   0.236   1.584
   62SOL     OW  199   1.632   1.377   0.081
   62SOL    HW1  200   1.600   1.471   0.071
   62SOL    HW2  201   1.556   1.314   0.069
   63SOL     OW  202   0.464   1.743   0.323
   63SOL    HW1  203   0.497   1.782   0.409
   63SOL    HW2  204   0.540   1.736   0.258
   64SOL     OW  205   1.400   0.107   0.426
   64SOL    HW1  206   1.376   0.070   0.336
   64SOL    HW2  207   1.499   0.123   0.430
   65SOL     OW  208   0.249   1.785   1.241
   65SOL    HW1  209   0.306   1.720   1.291
   65SOL    HW2  210   0.233   1.752   1.148
   66SOL     OW  211   0.940   1.698   0.904
   66SOL    HW1  212   1.020   1.641   0.925
   66SOL    HW2  213   0.891   1.658   0.827
   67SOL     OW  214   0.382   0.700   0.480
   67SOL    HW1  215   0.427   0.610   0.477
   67SOL    HW2  216   0.288   0.689   0.513
   68SOL     OW  217   1.547   0.222   1.729
   68SOL    HW1  218   1.542   0.259   1.821
   68SOL    HW2  219   1.475   0.153   1.717
   69SOL     OW  220   0.614   0.122   0.117
   69SOL    HW1  221   0.712   0.100   0.124
   69SOL    HW2  222   0.583   0.105   0.024
   70SOL     OW  223   0.781   0.264   1.749
   70SOL    HW1  224   0.848   0.203   1.792
   70SOL    HW2  225   0.708   0.283   1.814
   71SOL     OW  226   0.888   1.514   1.195
   71SOL    HW1  227   0.865   1.489   1.101
   71SOL    HW2  228   0.949   1.445   1.234
   72SOL     OW  229   1.351   0.590   1.433
   72SOL    HW1  230   1.379   0.547   1.518
   72SOL    HW2  231   1.376   0.686   1.434
   73SOL     OW  232   0.803   1.402   0.924
   73SOL    HW1  233   0.893   1.416   0.882
   73SOL    HW2  234   0.732   1.404   0.853
   74SOL     OW  235   0.922   0.503   0.899
   74SOL    HW1  236   0.897   0.494   0.803
   74SOL    HW2  237   0.970   0.421   0.930
   75SOL     OW  238   0.539   0.064   0.512
   75SOL    HW1  239   0.458   0.065   0.570
   75SOL    HW2  240   0.542   0.147   0.457
   76SOL     OW  241   1.434   1.188   0.041
   76SOL    HW1  242   1.466   1.112   0.098
   76SOL    HW2  243   1.342   1.215   0.071
   77SOL     OW  244   0.297   0.035   0.171
   77SOL    HW1  245   0.346   0.119   0.150
   77SOL    HW2  246   0.359  -0.030   0.216
   78SOL     OW  247   0.935   0.236   0.480
   78SOL    HW1  248   0.887   0.277   0.402
   78SOL    HW2  249   1.034   0.234   0.461
   79SOL     OW  250   1.076   0.683   1.464
   79SOL    HW1  251   0.996   0.622   1.467
   79SOL    HW2  252   1.157   0.630   1.440
   80SOL     OW  253   1.227   1.570   0.793
   80SOL    HW1  254   1.248   1.644   0.728
   80SOL    HW2  255   1.295   1.570   0.866
   81SOL     OW  256   0.459   1.152   0.741
   81SOL    HW1  257   0.388   1.125   0.806
   81SOL    HW2  258   0.433   1.124   0.648
   82SOL     OW  259   1.271   1.797   0.591
   82SOL    HW1  260   1.315   1.861   0.527
   82SOL    HW2  261   1.221   1.849   0.661
   83SOL     OW  262   1.032   0.549   0.016
   83SOL    HW1  263   0.991   0.631  -0.023
   83SOL    HW2  264   1.096   0.575   0.089
   84SOL     OW  265   0.078   0.556   1.386
   84SOL    HW1  266   0.170   0.555   1.345
   84SOL    HW2  267   0.072   0.630   1.453
   85SOL     OW  268   0.561   0.222   1.147
   85SOL    HW1  269   0.599   0.138   1.184
   85SOL    HW2  270   0.473   0.241   1.191
   86SOL     OW  271   0.866   0.454   0.642
   86SOL    HW1  272   0.834   0.526   0.580
   86SOL    HW2  273   0.890   0.373   0.589
   87SOL     OW  274   1.017   0.039   0.753
   87SOL    HW1  275   0.945   0.044   0.684
   87SOL    HW2  276   0.993  -0.030   0.822
   88SOL     OW  277   1.429   1.173   0.867
   88SOL    HW1  278   1.374   1.089   0.860
   88SOL    HW2  279   1.455   1.202   0.775
   89SOL     OW  280   1.466   0.590   0.992
   89SOL    HW1  281   1.436   0.495   0.999
   89SOL    HW2  282   1.539   0.606   1.058
   90SOL     OW  283   1.857   0.833   0.377
   90SOL    HW1  284   1.899   0.769   0.441
   90SOL    HW2  285   1.819   0.782   0.299
   91SOL     OW  286   0.488   1.385   0.174
   91SOL    HW1  287   0.401   1.370   0.221
   91SOL    HW2  288   0.471   1.411   0.079
   92SOL     OW  289   1.664   1.280   0.657
   92SOL    HW1  290   1.763   1.288   0.671
   92SOL    HW2  291   1.619   1.364   0.688
   93SOL     OW  292   1.390   0.575   0.078
   93SOL    HW1  293   1.336   0.554   0.159
   93SOL    HW2  294   1.481   0.534   0.087
   94SOL     OW  295   0.527   0.256   0.328
   94SOL    HW1  296   0.554   0.197   0.253
   94SOL    HW2  297   0.527   0.351   0.297
   95SOL     OW  298   1.754   1.223   1.588
   95SOL    HW1  299   1.845   1.184   1.575
   95SOL    HW2  300   1.762   1.319   1.612
   96SOL     OW  301   1.064   1.347   1.340
   96SOL    HW1  302   0.984   1.324   1.395
   96SOL    HW2  303   1.147   1.321   1.389
   97SOL     OW  304   1.592   1.629   1.625
   97SOL    HW1  305   1.619   1.663   1.535
   97SOL    HW2  306   1.671   1.591   1.671
   98SOL     OW  307   1.111   1.195   1.100
   98SOL    HW1  308   1.071   1.239   1.181
   98SOL    HW2  309   1.070   1.232   1.017
   99SOL     OW  310   1.638   1.099   1.079
   99SOL    HW1  311   1.643   1.180   1.138
   99SOL    HW2  312   1.552   1.101   1.028
  100SOL     OW  313   0.915   0.089   1.402
  100SOL    HW1  314   0.940   0.069   1.307
  100SOL    HW2  315   0.987   0.145   1.444
  101SOL     OW  316   0.980   1.116   1.719
  101SOL    HW1  317   0.881   1.122   1.729
  101SOL    HW2  318   1.003   1.036   1.663
  102SOL     OW  319   0.705   1.050   0.368
  102SOL    HW1  320   0.691   1.057   0.467
  102SOL    HW2  321   0.789   0.999   0.350
  103SOL     OW  322   0.410   0.813   1.251
  103SOL    HW1  323   0.496   0.825   1.301
  103SOL    HW2  324   0.368   0.726   1.278
  104SOL     OW  325   1.274   0.386   1.262
  104SOL    HW1  326   1.295   0.460   1.326
  104SOL    HW2  327   1.185   0.403   1.219
  105SOL     OW  328   0.064   1.564   1.331
  105SOL    HW1  329   0.018   1.646   1.297
  105SOL    HW2  330   0.162   1.583   1.340
  106SOL     OW  331   0.367   1.100   0.501
  106SOL    HW1  332   0.360   1.183   0.445
  106SOL    HW2  333   0.371   1.020   0.441
  107SOL     OW  334   0.566   0.537   0.865
  107SOL    HW1  335   0.578   0.603   0.791
  107SOL    HW2  336   0.612   0.571   0.948
  108SOL     OW  337   1.252   1.348   0.388
  108SOL    HW1  338   1.302   1.425   0.428
  108SOL    HW2  339   1.157   1.350   0.420
  109SOL     OW  340   1.272   1.445   1.142
  109SOL    HW1  341   1.319   1.458   1.229
  109SOL    HW2  342   1.206   1.371   1.151
  110SOL     OW  343   1.582   0.639   0.472
  110SOL    HW1  344   1.551   0.700   0.545
  110SOL    HW2  345   1.632   0.691   0.403
  111SOL     OW  346   0.354   1.510   1.329
  111SOL    HW1  347   0.333   1.466   1.242
  111SOL    HW2  348   0.451   1.536   1.332
  112SOL     OW  349   0.402   0.751   1.598
  112SOL    HW1  350   0.470   0.806   1.551
  112SOL    HW2  351   0.442   0.663   1.625
  113SOL     OW  352   1.587   0.779   1.670
  113SOL    HW1  353   1.495   0.817   1.665
  113SOL    HW2  354   1.647   0.826   1.605
  114SOL     OW  355   1.013   0.105   1.770
  114SOL    HW1  356   1.019   0.190   1.718
  114SOL    HW2  357   1.045   0.029   1.713
  115SOL     OW  358   0.504   0.050   1.740
  115SOL    HW1  359   0.462  -0.007   1.670
  115SOL    HW2  360   0.438   0.119   1.772
  116SOL     OW  361   0.573   0.870   1.029
  116SOL    HW1  362   0.617   0.959   1.020
  116SOL    HW2  363   0.510   0.870   1.106
  117SOL     OW  364   1.360   0.862   1.045
  117SOL    HW1  365   1.285   0.862   0.979
  117SOL    HW2  366   1.397   0.770   1.054
  118SOL     OW  367   1.209   0.525   0.275
  118SOL    HW1  368   1.222   0.441   0.329
  118SOL    HW2  369   1.180   0.599   0.335
  119SOL     OW  370   0.307   0.213   1.231
  119SOL    HW1  371   0.284   0.250   1.321
  119SOL    HW2  372   0.277   0.118   1.225
  120SOL     OW  373   0.037   1.310   1.282
  120SOL    HW1  374   0.090   1.261   1.350
  120SOL    HW2  375   0.059   1.408   1.287
  121SOL     OW  376   0.732   0.634   1.064
  121SOL    HW1  377   0.791   0.608   0.988
  121SOL    HW2  378   0.704   0.730   1.053
  122SOL     OW  379   1.728   0.935   1.854
  122SOL    HW1  380   1.682   0.928   1.765
  122SOL    HW2  381   1.666   0.979   1.920
  123SOL     OW  382   0.307   0.063   0.618
  123SOL    HW1  383   0.296   0.157   0.651
  123SOL    HW2  384   0.302   0.000   0.695
  124SOL     OW  385   1.622   0.367   0.374
  124SOL    HW1  386   1.624   0.291   0.438
  124SOL    HW2  387   1.574   0.444   0.414
  125SOL     OW  388   1.023   0.766   0.966
  125SOL    HW1  389   1.038   0.787   1.062
  125SOL    HW2  390   0.993   0.671   0.957
  126SOL     OW  391   0.980   1.573   1.700
  126SOL    HW1  392   0.960   1.617   1.612
  126SOL    HW2  393   1.019   1.482   1.684
  127SOL     OW  394   1.859   1.518   1.605
  127SOL    HW1  395   1.873   1.545   1.510
  127SOL    HW2  396   1.942   1.540   1.658
  128SOL     OW  397   0.350   0.898   1.804
  128SOL    HW1  398   0.426   0.942   1.852
  128SOL    HW2  399   0.385   0.851   1.722
  129SOL     OW  400   1.540   0.274   0.125
  129SOL    HW1  401   1.479   0.199   0.148
  129SOL    HW2  402   1.562   0.326   0.208
  130SOL     OW  403   1.303   0.838   0.042
  130SOL    HW1  404   1.337   0.745   0.057
  130SOL    HW2  405   1.321   0.865  -0.053
  131SOL     OW  406   1.068   1.333   0.849
  131SOL    HW1  407   1.075   1.249   0.794
  131SOL    HW2  408   1.130   1.402   0.813
  132SOL     OW  409   0.319   0.810   0.949
  132SOL    HW1  410   0.412   0.846   0.954
  132SOL    HW2  411   0.313   0.725   1.001
  133SOL     OW  412   0.339   0.509   1.006
  133SOL    HW1  413   0.287   0.426   0.989
  133SOL    HW2  414   0.416   0.514   0.942
  134SOL     OW  415   1.138   0.380   1.678
  134SOL    HW1  416   1.093   0.443   1.742
  134SOL    HW2  417   1.231   0.411   1.661
  135SOL     OW  418   1.160   0.207   1.477
  135SOL    HW1  419   1.160   0.271   1.554
  135SOL    HW2  420   1.188   0.255   1.394
  136SOL     OW  421   0.008   1.326   0.200
  136SOL    HW1  422  -0.085   1.347   0.169
  136SOL    HW2  423   0.018   1.227   0.213
  137SOL     OW  424   0.088   1.801   0.927
  137SOL    HW1  425   0.046   1.715   0.900
  137SOL    HW2  426   0.182   1.804   0.893
  138SOL     OW  427   0.504   1.568   0.910
  138SOL    HW1  428   0.570   1.642   0.919
  138SOL    HW2  429   0.548   1.489   0.868
  139SOL     OW  430   1.002   0.796   1.238
  139SOL    HW1  431   1.043   0.764   1.324
  139SOL    HW2  432   0.906   0.769   1.235
  140SOL     OW  433   0.040   0.544   1.114
  140SOL    HW1  434   0.125   0.511   1.073
  140SOL    HW2  435   0.053   0.559   1.212
  141SOL     OW  436   0.189   0.520   1.722
  141SOL    HW1  437   0.248   0.480   1.652
  141SOL    HW2  438   0.131   0.591   1.681
  142SOL     OW  439   1.369   0.950   1.660
  142SOL    HW1  440   1.408   1.039   1.680
  142SOL    HW2  441   1.379   0.930   1.563
  143SOL     OW  442   0.815   0.572   0.325
  143SOL    HW1  443   0.822   0.483   0.279
  143SOL    HW2  444   0.721   0.606   0.317
  144SOL     OW  445   1.657   0.604   1.206
  144SOL    HW1  446   1.619   0.535   1.268
  144SOL    HW2  447   1.739   0.568   1.162
  145SOL     OW  448   0.252   1.564   1.744
  145SOL    HW1  449   0.222   1.621   1.820
  145SOL    HW2  450   0.245   1.467   1.770
  146SOL     OW  451   0.671   0.464   1.269
  146SOL    HW1  452   0.637   0.375   1.239
  146SOL    HW2  453   0.697   0.518   1.189
  147SOL     OW  454   0.930   1.678   1.465
  147SOL    HW1  455   0.906   1.660   1.370
  147SOL    HW2  456   0.960   1.772   1.475
  148SOL     OW  457   0.473   0.500   0.191
  148SOL    HW1  458   0.534   0.580   0.195
  148SOL    HW2  459   0.378   0.531   0.198
  149SOL     OW  460   0.159   1.137   1.466
  149SOL    HW1  461   0.181   1.076   1.542
  149SOL    HW2  462   0.169   1.088   1.380
  150SOL     OW  463   1.347   1.059   1.234
  150SOL    HW1  464   1.371   0.996   1.160
  150SOL    HW2  465   1.257   1.099   1.216
  151SOL     OW  466   1.302   0.855   0.309
  151SOL    HW1  467   1.216   0.824   0.351
  151SOL    HW2  468   1.298   0.841   0.210
  152SOL     OW  469   1.759   1.747   1.154
  152SOL    HW1  470   1.820   1.777   1.081
  152SOL    HW2  471   1.721   1.658   1.132
  153SOL     OW  472   1.252   1.731   1.128
  153SOL    HW1  473   1.336   1.736   1.074
  153SOL    HW2  474   1.229   1.635   1.146
  154SOL     OW  475   0.083   1.258   1.022
  154SOL    HW1  476   0.078   1.257   1.122
  154SOL    HW2  477   0.000   1.217   0.984
  155SOL     OW  478   0.688   1.662   1.716
  155SOL    HW1  479   0.632   1.743   1.725
  155SOL    HW2  480   0.740   1.666   1.630
  156SOL     OW  481   0.903   0.086   0.133
  156SOL    HW1  482   0.954   0.087   0.047
  156SOL    HW2  483   0.959   0.044   0.204
  157SOL     OW  484   1.726   0.135   0.523
  157SOL    HW1  485   1.799   0.118   0.456
  157SOL    HW2  486   1.695   0.048   0.561
  158SOL     OW  487   1.388   1.573   0.477
  158SOL    HW1  488   1.455   1.585   0.403
  158SOL    HW2  489   1.348   1.662   0.500
  159SOL     OW  490   0.130   1.794   1.851
  159SOL    HW1  491   0.089   1.720   1.904
  159SOL    HW2  492   0.194   1.845   1.909
  160SOL     OW  493   1.280   0.927   0.672
  160SOL    HW1  494   1.340   0.846   0.674
  160SOL    HW2  495   1.320   0.996   0.612
  161SOL     OW  496   0.830   1.273   1.422
  161SOL    HW1  497   0.825   1.306   1.517
  161SOL    HW2  498   0.744   1.292   1.376
  162SOL     OW  499   0.672   1.616   0.154
  162SOL    HW1  500   0.681   1.626   0.055
  162SOL    HW2  501   0.632   1.527   0.175
  163SOL     OW  502   1.650   1.720   1.394
  163SOL    HW1  503   1.703   1.730   1.310
  163SOL    HW2  504   1.623   1.810   1.428
  164SOL     OW  505   1.841   0.175   0.963
  164SOL    HW1  506   1.880   0.090   0.927
  164SOL    HW2  507   1.743   0.177   0.944
  165SOL     OW  508   0.263   0.326   0.720
  165SOL    HW1  509   0.184   0.377   0.686
  165SOL    HW2  510   0.254   0.311   0.818
  166SOL     OW  511   1.194   1.612   0.031
  166SOL    HW1  512   1.200   1.519   0.068
  166SOL    HW2  513   1.135   1.612  -0.049
  167SOL     OW  514   0.822   1.002   1.372
  167SOL    HW1  515   0.862   1.001   1.280
  167SOL    HW2  516   0.832   1.094   1.412
  168SOL     OW  517   0.916   0.910   0.291
  168SOL    HW1  518   0.979   0.948   0.223
  168SOL    HW2  519   0.956   0.827   0.330
  169SOL     OW  520   1.504   1.607   0.044
  169SOL    HW1  521   1.412   1.644   0.051
  169SOL    HW2  522   1.542   1.627  -0.046
  170SOL     OW  523   0.372   1.288   1.490
  170SOL    HW1  524   0.359   1.381   1.456
  170SOL    HW2  525   0.288   1.236   1.477
  171SOL     OW  526   1.614   1.292   1.289
  171SOL    HW1  527   1.674   1.295   1.369
  171SOL    HW2  528   1.539   1.356   1.302
  172SOL     OW  529   1.039   1.098   0.696
  172SOL    HW1  530   0.969   1.051   0.750
  172SOL    HW2  531   1.098   1.030   0.653
  173SOL     OW  532   1.014   0.236   0.971
  173SOL    HW1  533   1.006   0.200   0.878
  173SOL    HW2  534   1.012   0.160   1.036
  174SOL     OW  535   0.590   1.487   0.491
  174SOL    HW1  536   0.632   1.429   0.421
  174SOL    HW2  537   0.546   1.566   0.447
  175SOL     OW  538   1.709   0.385   1.381
  175SOL    HW1  539   1.782   0.454   1.385
  175SOL    HW2  540   1.737   0.310   1.322
  176SOL     OW  541   0.255   1.348   0.290
  176SOL    HW1  542   0.159   1.349   0.263
  176SOL    HW2  543   0.267   1.401   0.374
  177SOL     OW  544   0.105   1.013   1.726
  177SOL    HW1  545   0.028   0.980   1.780
  177SOL    HW2  546   0.190   0.983   1.768
  178SOL     OW  547   0.672   0.203   1.489
  178SOL    HW1  548   0.762   0.187   1.449
  178SOL    HW2  549   0.680   0.208   1.588
  179SOL     OW  550   0.075   0.345   0.033
  179SOL    HW1  551  -0.017   0.317   0.004
  179SOL    HW2  552   0.106   0.422  -0.023
  180SOL     OW  553   1.440   0.856   1.398
  180SOL    HW1  554   1.383   0.908   1.335
  180SOL    HW2  555   1.536   0.868   1.374
  181SOL     OW  556   0.072   0.166   0.318
  181SOL    HW1  557   0.055   0.249   0.264
  181SOL    HW2  558   0.162   0.129   0.296
  182SOL     OW  559   1.183   1.335   0.119
  182SOL    HW1  560   1.084   1.324   0.121
  182SOL    HW2  561   1.217   1.350   0.212
  183SOL     OW  562   0.613   0.842   1.431
  183SOL    HW1  563   0.669   0.923   1.414
  183SOL    HW2  564   0.672   0.762   1.434
  184SOL     OW  565   1.493   1.767   0.959
  184SOL    HW1  566   1.526   1.831   0.890
  184SOL    HW2  567   1.559   1.761   1.034
  185SOL     OW  568   0.716   0.565   1.708
  185SOL    HW1  569   0.735   0.630   1.782
  185SOL    HW2  570   0.776   0.485   1.717
  186SOL     OW  571   1.450   1.220   1.633
  186SOL    HW1  572   1.441   1.210   1.732
  186SOL    HW2  573   1.546   1.213   1.607
  187SOL     OW  574   0.390   1.741   1.560
  187SOL    HW1  575   0.299   1.782   1.558
  187SOL    HW2  576   0.383   1.647   1.592
  188SOL     OW  577   1.674   0.883   1.254
  188SOL    HW1  578   1.647   0.794   1.217
  188SOL    HW2  579   1.675   0.951   1.181
  189SOL     OW  580   1.225   0.325   0.449
  189SOL    HW1  581   1.290   0.251   0.438
  189SOL    HW2  582   1.245   0.375   0.533
  190SOL     OW  583   0.594   0.745   0.652
  190SOL    HW1  584   0.644   0.830   0.633
  190SOL    HW2  585   0.506   0.747   0.604
  191SOL     OW  586   1.777   0.342   1.642
  191SOL    HW1  587   1.760   0.373   1.548
  191SOL    HW2  588   1.693   0.305   1.680
  192SOL     OW  589   1.730   0.934   1.517
  192SOL    HW1  590   1.768   1.025   1.532
  192SOL    HW2  591   1.722   0.917   1.418
  193SOL     OW  592   0.859   1.374   0.016
  193SOL    HW1  593   0.813   1.389   0.104
  193SOL    HW2  594   0.903   1.459  -0.014
  194SOL     OW  595   0.661   1.790   0.953
  194SOL    HW1  596   0.615   1.878   0.940
  194SOL    HW2  597   0.760   1.802   0.946
  195SOL     OW  598   0.859   0.956   0.861
  195SOL    HW1  599   0.913   0.887   0.909
  195SOL    HW2  600   0.827   1.025   0.927
  196SOL     OW  601   1.083   0.984   0.087
  196SOL    HW1  602   1.060   1.037   0.005
  196SOL    HW2  603   1.164   0.928   0.068
  197SOL     OW  604   1.861   1.569   0.851
  197SOL    HW1  605   1.790   1.557   0.781
  197SOL    HW2  606   1.862   1.490   0.911
  198SOL     OW  607   0.221   1.314   1.844
  198SOL    HW1  608   0.156   1.241   1.823
  198SOL    HW2  609   0.225   1.328   1.942
  199SOL     OW  610   0.079   1.240   0.653
  199SOL    HW1  611   0.078   1.193   0.741
  199SOL    HW2  612   0.161   1.212   0.602
  200SOL     OW  613   0.672   1.391   1.624
  200SOL    HW1  614   0.594   1.341   1.662
  200SOL    HW2  615   0.669   1.486   1.655
  201SOL     OW  616   1.824   0.192   1.227
  201SOL    HW1  617   1.820   0.102   1.271
  201SOL    HW2  618   1.827   0.181   1.128
  202SOL     OW  619   0.428   0.424   0.520
  202SOL    HW1  620   0.458   0.352   0.458
  202SOL    HW2  621   0.389   0.384   0.603
  203SOL     OW  622   1.705   1.487   1.104
  203SOL    HW1  623   1.612   1.462   1.077
  203SOL    HW2  624   1.731   1.437   1.186
  204SOL     OW  625   0.317   0.547   1.280
  204SOL    HW1  626   0.355   0.488   1.352
  204SOL    HW2  627   0.357   0.521   1.192
  205SOL     OW  628   0.812   1.586   0.687
  205SOL    HW1  629   0.844   1.596   0.593
  205SOL    HW2  630   0.733   1.524   0.689
  206SOL     OW  631   1.424   0.214   1.112
  206SOL    HW1  632   1.476   0.149   1.167
  206SOL    HW2  633   1.375   0.277   1.173
  207SOL     OW  634   1.001   0.034   1.154
  207SOL    HW1  635   0.938  -0.038   1.123
  207SOL    HW2  636   1.094  -0.002   1.154
  208SOL     OW  637   0.770   1.330   0.301
  208SOL    HW1  638   0.724   1.243   0.318
  208SOL    HW2  639   0.861   1.327   0.342
  209SOL     OW  640   0.618   1.567   1.284
  209SOL    HW1  641   0.613   1.649   1.341
  209SOL    HW2  642   0.707   1.564   1.239
  210SOL     OW  643   1.352   0.052   0.168
  210SOL    HW1  644   1.387   0.011   0.084
  210SOL    HW2  645   1.262   0.014   0.188
  211SOL     OW  646   1.300   0.453   0.691
  211SOL    HW1  647   1.241   0.533   0.695
  211SOL    HW2  648   1.315   0.418   0.784
  212SOL     OW  649   1.593   0.221   0.882
  212SOL    HW1  650   1.509   0.220   0.936
  212SOL    HW2  651   1.595   0.304   0.826
  213SOL     OW  652   0.039   1.077   0.300
  213SOL    HW1  653   0.138   1.066   0.291
  213SOL    HW2  654  -0.001   0.991   0.332
  214SOL     OW  655   0.875   1.646   0.337
  214SOL    HW1  656   0.798   1.611   0.283
  214SOL    HW2  657   0.843   1.717   0.399
  215SOL     OW  658   0.230   0.628   1.975
  215SOL    HW1  659   0.137   0.626   2.012
  215SOL    HW2  660   0.231   0.589   1.883
  216SOL     OW  661   0.225   0.275   2.858
  216SOL    HW1  662   0.260   0.258   2.950
  216SOL    HW2  663   0.137   0.230   2.846
  217SOL     OW  664   0.019   0.368   2.509
  217SOL    HW1  665  -0.063   0.411   2.548
  217SOL    HW2  666  -0.009   0.295   2.446
  218SOL     OW  667   0.569   1.275   3.027
  218SOL    HW1  668   0.476   1.268   2.990
  218SOL    HW2  669   0.580   1.364   3.071
  219SOL     OW  670   1.555   1.511   2.565
  219SOL    HW1  671   1.498   1.495   2.646
  219SOL    HW2  672   1.496   1.521   2.485
  220SOL     OW  673   1.135   0.703   2.579
  220SOL    HW1  674   1.192   0.781   2.554
  220SOL    HW2  675   1.075   0.729   2.655
  221SOL     OW  676   1.755   0.607   2.093
  221SOL    HW1  677   1.743   0.594   1.994
  221SOL    HW2  678   1.725   0.526   2.142
  222SOL     OW  679   0.768   1.144   2.885
  222SOL    HW1  680   0.690   1.161   2.945
  222SOL    HW2  681   0.802   1.231   2.849
  223SOL     OW  682   0.850   0.798   3.685
  223SOL    HW1  683   0.846   0.874   3.750
  223SOL    HW2  684   0.872   0.834   3.594
  224SOL     OW  685   0.685   1.012   2.527
  224SOL    HW1  686   0.754   0.996   2.597
  224SOL    HW2  687   0.612   1.069   2.565
  225SOL     OW  688   0.686   1.161   3.665
  225SOL    HW1  689   0.746   1.240   3.679
  225SOL    HW2  690   0.600   1.192   3.624
  226SOL     OW  691   0.335   1.435   2.923
  226SOL    HW1  692   0.257   1.404   2.870
  226SOL    HW2  693   0.393   1.493   2.866
  227SOL     OW  694   1.460   1.505   3.201
  227SOL    HW1  695   1.484   1.599   3.227
  227SOL    HW2  696   1.444   1.451   3.283
  228SOL     OW  697   0.438   0.392   3.361
  228SOL    HW1  698   0.520   0.336   3.370
  228SOL    HW2  699   0.357   0.334   3.365
  229SOL     OW  700   1.603   0.447   2.599
  229SOL    HW1  701   1.529   0.493   2.549
  229SOL    HW2  702   1.654   0.515   2.652
  230SOL     OW  703   0.231   1.713   2.345
  230SOL    HW1  704   0.265   1.790   2.399
  230SOL    HW2  705   0.275   1.713   2.255
  231SOL     OW  706   1.127   1.341   3.552
  231SOL    HW1  707   1.174   1.341   3.640
  231SOL    HW2  708   1.079   1.254   3.541
  232SOL     OW  709   0.230   1.434   2.400
  232SOL    HW1  710   0.204   1.530   2.400
  232SOL    HW2  711   0.159   1.380   2.445
  233SOL     OW  712   0.240   1.091   2.748
  233SOL    HW1  713   0.254   1.007   2.800
  233SOL    HW2  714   0.185   1.155   2.803
  234SOL     OW  715   0.620   1.786   3.301
  234SOL    HW1  716   0.528   1.769   3.336
  234SOL    HW2  717   0.648   1.878   3.327
  235SOL     OW  718   0.606   0.964   1.985
  235SOL    HW1  719   0.613   1.048   1.931
  235SOL    HW2  720   0.652   0.977   2.073
  236SOL     OW  721   1.594   0.114   3.342
  236SOL    HW1  722   1.576   0.181   3.270
  236SOL    HW2  723   1.591   0.160   3.431
  237SOL     OW  724   0.122   0.643   2.425
  237SOL    HW1  725   0.077   0.555   2.442
  237SOL    HW2  726   0.121   0.697   2.509
  238SOL     OW  727   1.842   1.767   2.221
  238SOL    HW1  728   1.896   1.738   2.301
  238SOL    HW2  729   1.872   1.857   2.192
  239SOL     OW  730   0.027   1.596   1.979
  239SOL    HW1  731   0.008   1.500   2.000
  239SOL    HW2  732  -0.006   1.654   2.054
  240SOL     OW  733   1.689   0.922   2.474
  240SOL    HW1  734   1.784   0.893   2.482
  240SOL    HW2  735   1.681   0.987   2.399
  241SOL     OW  736   1.641   1.108   2.294
  241SOL    HW1  737   1.727   1.110   2.242
  241SOL    HW2  738   1.655   1.155   2.382
  242SOL     OW  739   0.113   0.737   3.459
  242SOL    HW1  740   0.201   0.724   3.504
  242SOL    HW2  741   0.100   0.834   3.437
  243SOL     OW  742   0.613   1.365   2.588
  243SOL    HW1  743   0.564   1.278   2.597
  243SOL    HW2  744   0.590   1.408   2.501
  244SOL     OW  745   1.293   1.228   3.285
  244SOL    HW1  746   1.330   1.155   3.227
  244SOL    HW2  747   1.345   1.233   3.370
  245SOL     OW  748   0.809   0.004   2.364
  245SOL    HW1  749   0.849   0.095   2.355
  245SOL    HW2  750   0.709   0.012   2.370
  246SOL     OW  751   0.197   0.976   3.126
  246SOL    HW1  752   0.286   0.931   3.112
  246SOL    HW2  753   0.124   0.911   3.107
  247SOL     OW  754   1.525   0.999   2.052
  247SOL    HW1  755   1.462   0.923   2.065
  247SOL    HW2  756   1.573   1.017   2.138
  248SOL     OW  757   1.187   1.792   3.478
  248SOL    HW1  758   1.211   1.852   3.402
  248SOL    HW2  759   1.194   1.697   3.448
  249SOL     OW  760   0.317   0.251   3.663
  249SOL    HW1  761   0.388   0.322   3.669
  249SOL    HW2  762   0.229   0.290   3.691
  250SOL     OW  763   1.466   1.417   2.815
  250SOL    HW1  764   1.407   1.423   2.895
  250SOL    HW2  765   1.451   1.329   2.769
  251SOL     OW  766   1.667   1.714   2.434
  251SOL    HW1  767   1.626   1.691   2.346
  251SOL    HW2  768   1.649   1.640   2.499
  252SOL     OW  769   0.598   0.729   2.132
  252SOL    HW1  770   0.622   0.798   2.064
  252SOL    HW2  771   0.520   0.762   2.186
  253SOL     OW  772   1.281   0.345   2.806
  253SOL    HW1  773   1.195   0.295   2.793
  253SOL    HW2  774   1.343   0.291   2.862
  254SOL     OW  775   1.576   1.662   2.169
  254SOL    HW1  776   1.665   1.708   2.172
  254SOL    HW2  777   1.555   1.638   2.074
  255SOL     OW  778   0.807   0.605   3.327
  255SOL    HW1  779   0.760   0.602   3.416
  255SOL    HW2  780   0.756   0.550   3.261
  256SOL     OW  781   1.394   0.469   3.536
  256SOL    HW1  782   1.374   0.512   3.624
  256SOL    HW2  783   1.472   0.407   3.545
  257SOL     OW  784   0.973   0.890   3.434
  257SOL    HW1  785   1.019   0.806   3.405
  257SOL    HW2  786   0.917   0.924   3.359
  258SOL     OW  787   0.991   0.410   3.104
  258SOL    HW1  788   0.914   0.444   3.158
  258SOL    HW2  789   0.957   0.359   3.025
  259SOL     OW  790   1.041   0.701   2.291
  259SOL    HW1  791   1.067   0.697   2.387
  259SOL    HW2  792   0.956   0.650   2.277
  260SOL     OW  793   0.076   0.811   2.651
  260SOL    HW1  794   0.175   0.799   2.660
  260SOL    HW2  795   0.052   0.906   2.672
  261SOL     OW  796   0.130   1.821   3.433
  261SOL    HW1  797   0.120   1.806   3.532
  261SOL    HW2  798   0.044   1.857   3.397
  262SOL     OW  799   0.865   0.348   2.057
  262SOL    HW1  800   0.924   0.411   2.008
  262SOL    HW2  801   0.884   0.254   2.028
  263SOL     OW  802   1.719   0.585   3.693
  263SOL    HW1  803   1.693   0.674   3.657
  263SOL    HW2  804   1.717   0.517   3.620
  264SOL     OW  805   1.362   1.144   2.407
  264SOL    HW1  806   1.445   1.115   2.359
  264SOL    HW2  807   1.313   1.211   2.351
  265SOL     OW  808   0.550   0.196   2.747
  265SOL    HW1  809   0.545   0.191   2.847
  265SOL    HW2  810   0.552   0.292   2.718
  266SOL     OW  811   1.008   1.456   2.339
  266SOL    HW1  812   0.962   1.528   2.287
  266SOL    HW2  813   1.004   1.476   2.437
  267SOL     OW  814   0.351   1.801   2.715
  267SOL    HW1  815   0.401   1.715   2.721
  267SOL    HW2  816   0.416   1.878   2.712
  268SOL     OW  817   1.795   1.066   2.735
  268SOL    HW1  818   1.733   1.051   2.659
  268SOL    HW2  819   1.743   1.077   2.820
  269SOL     OW  820   1.227   1.550   3.368
  269SOL    HW1  821   1.233   1.473   3.432
  269SOL    HW2  822   1.175   1.524   3.288
  270SOL     OW  823   0.321   0.943   2.104
  270SOL    HW1  824   0.403   0.982   2.062
  270SOL    HW2  825   0.294   0.861   2.055
  271SOL     OW  826   1.458   0.735   2.590
  271SOL    HW1  827   1.453   0.670   2.665
  271SOL    HW2  828   1.538   0.794   2.603
  272SOL     OW  829   0.461   1.266   3.589
  272SOL    HW1  830   0.411   1.267   3.503
  272SOL    HW2  831   0.398   1.248   3.665
  273SOL     OW  832   1.111   1.776   2.099
  273SOL    HW1  833   1.051   1.714   2.149
  273SOL    HW2  834   1.142   1.732   2.014
  274SOL     OW  835   0.202   0.285   3.360
  274SOL    HW1  836   0.122   0.345   3.347
  274SOL    HW2  837   0.192   0.236   3.446
  275SOL     OW  838   1.632   1.377   1.943
  275SOL    HW1  839   1.600   1.471   1.933
  275SOL    HW2  840   1.556   1.314   1.931
  276SOL     OW  841   0.464   1.743   2.185
  276SOL    HW1  842   0.497   1.782   2.271
  276SOL    HW2  843   0.540   1.736   2.120
  277SOL     OW  844   1.400   0.107   2.288
  277SOL    HW1  845   1.376   0.070   2.198
  277SOL    HW2  846   1.499   0.123   2.292
  278SOL     OW  847   0.249   1.785   3.103
  278SOL    HW1  848   0.306   1.720   3.153
  278SOL    HW2  849   0.233   1.752   3.010
  279SOL     OW  850   0.940   1.698   2.766
  279SOL    HW1  851   1.020   1.641   2.787
  279SOL    HW2  852   0.891   1.658   2.689
  280SOL     OW  853   0.382   0.700   2.342
  280SOL    HW1  854   0.427   0.610   2.339
  280SOL    HW2  855   0.288   0.689   2.375
  281SOL     OW  856   1.547   0.222   3.591
  281SOL    HW1  857   1.542   0.259   3.683
  281SOL    HW2  858   1.475   0.153   3.579
  282SOL     OW  859   0.614   0.122   1.979
  282SOL    HW1  860   0.712   0.100   1.986
  282SOL    HW2  861   0.583   0.105   1.886
  283SOL     OW  862   0.781   0.264   3.611
  283SOL    HW1  863   0.848   0.203   3.654
  283SOL    HW2  864   0.708   0.283   3.676
  284SOL     OW  865   0.888   1.514   3.057
  284SOL    HW1  866   0.865   1.489   2.963
  284SOL    HW2  867   0.949   1.445   3.096
  285SOL     OW  868   1.351   0.590   3.295
  285SOL    HW1  869   1.379   0.547   3.380
  285SOL    HW2  870   1.376   0.686   3.296
  286SOL     OW  871   0.803   1.402   2.786
  286SOL    HW1  872   0.893   1.416   2.744
  286SOL    HW2  873   0.732   1.404   2.715
  287SOL     OW  874   0.922   0.503   2.761
  287SOL    HW1  875   0.897   0.494   2.665
  287SOL    HW2  876   0.970   0.421   2.792
  288SOL     OW  877   0.539   0.064   2.374
  288SOL    HW1  878   0.458   0.065   2.432
  288SOL    HW2  879   0.542   0.147   2.319
  289SOL     OW  880   1.434   1.188   1.903
  289SOL    HW1  881   1.466   1.112   1.960
  289SOL    HW2  882   1.342   1.215   1.933
  290SOL     OW  883   0.297   0.035   2.033
  290SOL    HW1  884   0.346   0.119   2.012
  290SOL    HW2  885   0.359  -0.030   2.078
  291SOL     OW  886   0.935   0.236   2.342
  291SOL    HW1  887   0.887   0.277   2.264
  291SOL    HW2  888   1.034   0.234   2.323
  292SOL     OW  889   1.076   0.683   3.326
  292SOL    HW1  890   0.996   0.622   3.329
  292SOL    HW2  891   1.157   0.630   3.302
  293SOL     OW  892   1.227   1.570   2.655
  293SOL    HW1  893   1.248   1.644   2.590
  293SOL    HW2  894   1.295   1.570   2.728
  294SOL     OW  895   0.459   1.152   2.603
  294SOL    HW1  896   0.388   1.125   2.668
  294SOL    HW2  897   0.433   1.124   2.510
  295SOL     OW  898   1.271   1.797   2.453
  295SOL    HW1  899   1.315   1.861   2.389
  295SOL    HW2  900   1.221   1.849   2.523
  296SOL     OW  901   1.032   0.549   1.878
  296SOL    HW1  902   0.991   0.631   1.839
  296SOL    HW2  903   1.096   0.575   1.951
  297SOL     OW  904   0.078   0.556   3.248
  297SOL    HW1  905   0.170   0.555   3.207
  297SOL    HW2  906   0.072   0.630   3.315
  298SOL     OW  907   0.561   0.222   3.009
  298SOL    HW1  908   0.599   0.138   3.046
  298SOL    HW2  909   0.473   0.241   3.053
  299SOL     OW  910   0.866   0.454   2.504
  299SOL    HW1  911   0.834   0.526   2.442
  299SOL    HW2  912   0.890   0.373   2.451
  300SOL     OW  913   1.017   0.039   2.615
  300SOL    HW1  914   0.945   0.044   2.546
  300SOL    HW2  915   0.993  -0.030   2.684
  301SOL     OW  916   1.429   1.173   2.729
  301SOL    HW1  917   1.374   1.089   2.722
  301SOL    HW2  918   1.455   1.202   2.637
  302SOL     OW  919   1.466   0.590   2.854
  302SOL    HW1  920   1.436   0.495   2.861
  302SOL    HW2  921   1.539   0.606   2.920
  303SOL     OW  922   1.857   0.833   2.239
  303SOL    HW1  923   1.899   0.769   2.303
  303SOL    HW2  924   1.819   0.782   2.161
  304SOL     OW  925   0.488   1.385   2.036
  304SOL    HW1  926   0.401   1.370   2.083
  304SOL    HW2  927   0.471   1.411   1.941
  305SOL     OW  928   1.664   1.280   2.519
  305SOL    HW1  929   1.763   1.288   2.533
  305SOL    HW2  930   1.619   1.364   2.550
  306SOL     OW  931   1.390   0.575   1.940
  306SOL    HW1  932   1.336   0.554   2.021
  306SOL    HW2  933   1.481   0.534   1.949
  307SOL     OW  934   0.527   0.256   2.190
  307SOL    HW1  935   0.554   0.197   2.115
  307SOL    HW2  936   0.527   0.351   2.159
  308SOL     OW  937   1.754   1.223   3.450
  308SOL    HW1  938   1.845   1.184   3.437
  308SOL    HW2  939   1.762   1.319   3.474
  309SOL     OW  940   1.064   1.347   3.202
  309SOL    HW1  941   0.984   1.324   3.257
  309SOL    HW2  942   1.147   1.321   3.251
  310SOL     OW  943   1.592   1.629   3.487
  310SOL    HW1  944   1.619   1.663   3.397
  310SOL    HW2  945   1.671   1.591   3.533
  311SOL     OW  946   1.111   1.195   2.962
  311SOL    HW1  947   1.071   1.239   3.043
  311SOL    HW2  948   1.070   1.232   2.879
  312SOL     OW  949   1.638   1.099   2.941
  312SOL    HW1  950   1.643   1.180   3.000
  312SOL    HW2  951   1.552   1.101   2.890
  313SOL     OW  952   0.915   0.089   3.264
  313SOL    HW1  953   0.940   0.069   3.169
  313SOL    HW2  954   0.987   0.145   3.306
  314SOL     OW  955   0.980   1.116   3.581
  314SOL    HW1  956   0.881   1.122   3.591
  314SOL    HW2  957   1.003   1.036   3.525
  315SOL     OW  958   0.705   1.050   2.230
  315SOL    HW1  959   0.691   1.057   2.329
  315SOL    HW2  960   0.789   0.999   2.212
  316SOL     OW  961   0.410   0.813   3.113
  316SOL    HW1  962   0.496   0.825   3.163
  316SOL    HW2  963   0.368   0.726   3.140
  317SOL     OW  964   1.274   0.386   3.124
  317SOL    HW1  965   1.295   0.460   3.188
  317SOL    HW2  966   1.185   0.403   3.081
  318SOL     OW  967   0.064   1.564   3.193
  318SOL    HW1  968   0.018   1.646   3.159
  318SOL    HW2  969   0.162   1.583   3.202
  319SOL     OW  970   0.367   1.100   2.363
  319SOL    HW1  971   0.360   1.183   2.307
  319SOL    HW2  972   0.371   1.020   2.303
  320SOL     OW  973   0.566   0.537   2.727
  320SOL    HW1  974   0.578   0.603   2.653
  320SOL    HW2  975   0.612   0.571   2.810
  321SOL     OW  976   1.252   1.348   2.250
  321SOL    HW1  977   1.302   1.425   2.290
  321SOL    HW2  978   1.157   1.350   2.282
  322SOL     OW  979   1.272   1.445   3.004
  322SOL    HW1  980   1.319   1.458   3.091
  322SOL    HW2  981   1.206   1.371   3.013
  323SOL     OW  982   1.582   0.639   2.334
  323SOL    HW1  983   1.551   0.700   2.407
  323SOL    HW2  984   1.632   0.691   2.265
  324SOL     OW  985   0.354   1.510   3.191
  324SOL    HW1  986   0.333   1.466   3.104
  324SOL    HW2  987   0.451   1.536   3.194
  325SOL     OW  988   0.402   0.751   3.460
  325SOL    HW1  989   0.470   0.806   3.413
  325SOL    HW2  990   0.442   0.663   3.487
  326SOL     OW  991   1.587   0.779   3.532
  326SOL    HW1  992   1.495   0.817   3.527
  326SOL    HW2  993   1.647   0.826   3.467
  327SOL     OW  994   1.013   0.105   3.632
  327SOL    HW1  995   1.019   0.190   3.580
  327SOL    HW2  996   1.045   0.029   3.575
  328SOL     OW  997   0.504   0.050   3.602
  328SOL    HW1  998   0.462  -0.007   3.532
  328SOL    HW2  999   0.438   0.119   3.634
  329SOL     OW 1000   0.573   0.870   2.891
  329SOL    HW1 1001   0.617   0.959   2.882
  329SOL    HW2 1002   0.510   0.870   2.968
  330SOL     OW 1003   1.360   0.862   2.907
  330SOL    HW1 1004   1.285   0.862   2.841
  330SOL    HW2 1005   1.397   0.770   2.916
  331SOL     OW 1006   1.209   0.525   2.137
  331SOL    HW1 1007   1.222   0.441   2.191
  331SOL    HW2 1008   1.180   0.599   2.197
  332SOL     OW 1009   0.307   0.213   3.093
  332SOL    HW1 1010   0.284   0.250   3.183
  332SOL    HW2 1011   0.277   0.118   3.087
  333SOL     OW 1012   0.037   1.310   3.144
  333SOL    HW1 1013   0.090   1.261   3.212
  333SOL    HW2 1014   0.059   1.408   3.149
  334SOL     OW 1015   0.732   0.634   2.926
  334SOL    HW1 1016   0.791   0.608   2.850
  334SOL    HW2 1017   0.704   0.730   2.915
  335SOL     OW 1018   1.728   0.935   3.716
  335SOL    HW1 1019   1.682   0.928   3.627
  335SOL    HW2 1020   1.666   0.979   3.782
  336SOL     OW 1021   0.307   0.063   2.480
  336SOL    HW1 1022   0.296   0.157   2.513
  336SOL    HW2 1023   0.302   0.000   2.557
  337SOL     OW 1024   1.622   0.367   2.236
  337SOL    HW1 1025   1.624   0.291   2.300
  337SOL    HW2 1026   1.574   0.444   2.276
  338SOL     OW 1027   1.023   0.766   2.828
  338SOL    HW1 1028   1.038   0.787   2.924
  338SOL    HW2 1029   0.993   0.671   2.819
  339SOL     OW 1030   0.980   1.573   3.562
  339SOL    HW1 1031   0.960   1.617   3.474
  339SOL    HW2 1032   1.019   1.482   3.546
  340SOL     OW 1033   1.859   1.518   3.467
  340SOL    HW1 1034   1.873   1.545   3.372
  340SOL    HW2 1035   1.942   1.540   3.520
  341SOL     OW 1036   0.350   0.898   3.666
  341SOL    HW1 1037   0.426   0.942   3.714
  341SOL    HW2 1038   0.385   0.851   3.584
  342SOL     OW 1039   1.540   0.274   1.987
  342SOL    HW1 1040   1.479   0.199   2.010
  342SOL    HW2 1041   1.562   0.326   2.070
  343SOL     OW 1042   1.303   0.838   1.904
  343SOL    HW1 1043   1.337   0.745   1.919
  343SOL    HW2 1044   1.321   0.865   1.809
  344SOL     OW 1045   1.068   1.333   2.711
  344SOL    HW1 1046   1.075   1.249   2.656
  344SOL    HW2 1047   1.130   1.402   2.675
  345SOL     OW 1048   0.319   0.810   2.811
  345SOL    HW1 1049   0.412   0.846   2.816
  345SOL    HW2 1050   0.313   0.725   2.863
  346SOL     OW 1051   0.339   0.509   2.868
  346SOL    HW1 1052   0.287   0.426   2.851
  346SOL    HW2 1053   0.416   0.514   2.804
  347SOL     OW 1054   1.138   0.380   3.540
  347SOL    HW1 1055   1.093   0.443   3.604
  347SOL    HW2 1056   1.231   0.411   3.523
  348SOL     OW 1057   1.160   0.207   3.339
  348SOL    HW1 1058   1.160   0.271   3.416
  348SOL    HW2 1059   1.188   0.255   3.256
  349SOL     OW 1060   0.008   1.326   2.062
  349SOL    HW1 1061  -0.085   1.347   2.031
  349SOL    HW2 1062   0.018   1.227   2.075
  350SOL     OW 1063   0.088   1.801   2.789
  350SOL    HW1 1064   0.046   1.715   2.762
  350SOL    HW2 1065   0.182   1.804   2.755
  351SOL     OW 1066   0.504   1.568   2.772
  351SOL    HW1 1067   0.570   1.642   2.781
  351SOL    HW2 1068   0.548   1.489   2.730
  352SOL     OW 1069   1.002   0.796   3.100
  352SOL    HW1 1070   1.043   0.764   3.186
  352SOL    HW2 1071   0.906   0.769   3.097
  353SOL     OW 1072   0.040   0.544   2.976
  353SOL    HW1 1073   0.125   0.511   2.935
  353SOL    HW2 1074   0.053   0.559   3.074
  354SOL     OW 1075   0.189   0.520   3.584
  354SOL    HW1 1076   0.248   0.480   3.514
  354SOL    HW2 1077   0.131   0.591   3.543
  355SOL     OW 1078   1.369   0.950   3.522
  355SOL    HW1 1079   1.408   1.039   3.542
  355SOL    HW2 1080   1.379   0.930   3.425
  356SOL     OW 1081   0.815   0.572   2.187
  356SOL    HW1 1082   0.822   0.483   2.141
  356SOL    HW2 1083   0.721   0.606   2.179
  357SOL     OW 1084   1.657   0.604   3.068
  357SOL    HW1 1085   1.619   0.535   3.130
  357SOL    HW2 1086   1.739   0.568   3.024
  358SOL     OW 1087   0.252   1.564   3.606
  358SOL    HW1 1088   0.222   1.621   3.682
  358SOL    HW2 1089   0.245   1.467   3.632
  359SOL     OW 1090   0.671   0.464   3.131
  359SOL    HW1 1091   0.637   0.375   3.101
  359SOL    HW2 1092   0.697   0.518   3.051
  360SOL     OW 1093   0.930   1.678   3.327
  360SOL    HW1 1094   0.906   1.660   3.232
  360SOL    HW2 1095   0.960   1.772   3.337
  361SOL     OW 1096   0.473   0.500   2.053
  361SOL    HW1 1097   0.534   0.580   2.057
  361SOL    HW2 1098   0.378   0.531   2.060
  362SOL     OW 1099   0.159   1.137   3.328
  362SOL    HW1 1100   0.181   1.076   3.404
  362SOL    HW2 1101   0.169   1.088   3.242
  363SOL     OW 1102   1.347   1.059   3.096
  363SOL    HW1 1103   1.371   0.996   3.022
  363SOL    HW2 1104   1.257   1.099   3.078
  364SOL     OW 1105   1.302   0.855   2.171
  364SOL    HW1 1106   1.216   0.824   2.213
  364SOL    HW2 1107   1.298   0.841   2.072
  365SOL     OW 1108   1.759   1.747   3.016
  365SOL    HW1 1109   1.820   1.777   2.943
  365SOL    HW2 1110   1.721   1.658   2.994
  366SOL     OW 1111   1.252   1.731   2.990
  366SOL    HW1 1112   1.336   1.736   2.936
  366SOL    HW2 1113   1.229   1.635   3.008
  367SOL     OW 1114   0.083   1.258   2.884
  367SOL    HW1 1115   0.078   1.257   2.984
  367SOL    HW2 1116   0.000   1.217   2.846
  368SOL     OW 1117   0.688   1.662   3.578
  368SOL    HW1 1118   0.632   1.743   3.587
  368SOL    HW2 1119   0.740   1.666   3.492
  369SOL     OW 1120   1.726   0.135   2.385
  369SOL    HW1 1121   1.799   0.118   2.318
  369SOL    HW2 1122   1.695   0.048   2.423
  370SOL     OW 1123   1.388   1.573   2.339
  370SOL    HW1 1124   1.455   1.585   2.265
  370SOL    HW2 1125   1.348   1.662   2.362
  371SOL     OW 1126   0.130   1.794   3.713
  371SOL    HW1 1127   0.089   1.720   3.766
  371SOL    HW2 1128   0.194   1.845   3.771
  372SOL     OW 1129   1.280   0.927   2.534
  372SOL    HW1 1130   1.340   0.846   2.536
  372SOL    HW2 1131   1.320   0.996   2.474
  373SOL     OW 1132   0.830   1.273   3.284
  373SOL    HW1 1133   0.825   1.306   3.379
  373SOL    HW2 1134   0.744   1.292   3.238
  374SOL     OW 1135   0.672   1.616   2.016
  374SOL    HW1 1136   0.681   1.626   1.917
  374SOL    HW2 1137   0.632   1.527   2.037
  375SOL     OW 1138   1.650   1.720   3.256
  375SOL    HW1 1139   1.703   1.730   3.172
  375SOL    HW2 1140   1.623   1.810   3.290
  376SOL     OW 1141   1.841   0.175   2.825
  376SOL    HW1 1142   1.880   0.090   2.789
  376SOL    HW2 1143   1.743   0.177   2.806
  377SOL     OW 1144   0.263   0.326   2.582
  377SOL    HW1 1145   0.184   0.377   2.548
  377SOL    HW2 1146   0.254   0.311   2.680
  378SOL     OW 1147   1.194   1.612   1.893
  378SOL    HW1 1148   1.200   1.519   1.930
  378SOL    HW2 1149   1.135   1.612   1.813
  379SOL     OW 1150   0.822   1.002   3.234
  379SOL    HW1 1151   0.862   1.001   3.142
  379SOL    HW2 1152   0.832   1.094   3.274
  380SOL     OW 1153   0.916   0.910   2.153
  380SOL    HW1 1154   0.979   0.948   2.085
  380SOL    HW2 1155   0.956   0.827   2.192
  381SOL     OW 1156   1.504   1.607   1.906
  381SOL    HW1 1157   1.412   1.644   1.913
  381SOL    HW2 1158   1.542   1.627   1.816
  382SOL     OW 1159   0.372   1.288   3.352
  382SOL    HW1 1160   0.359   1.381   3.318
  382SOL    HW2 1161   0.288   1.236   3.339
  383SOL     OW 1162   1.614   1.292   3.151
  383SOL    HW1 1163   1.674   1.295   3.231
  383SOL    HW2 1164   1.539   1.356   3.164
  384SOL     OW 1165   1.039   1.098   2.558
  384SOL    HW1 1166   0.969   1.051   2.612
  384SOL    HW2 1167   1.098   1.030   2.515
  385SOL     OW 1168   1.014   0.236   2.833
  385SOL    HW1 1169   1.006   0.200   2.740
  385SOL    HW2 1170   1.012   0.160   2.898
  386SOL     OW 1171   0.590   1.487   2.353
  386SOL    HW1 1172   0.632   1.429   2.283
  386SOL    HW2 1173   0.546   1.566   2.309
  387SOL     OW 1174   1.709   0.385   3.243
  387SOL    HW1 1175   1.782   0.454   3.247
  387SOL    HW2 1176   1.737   0.310   3.184
  388SOL     OW 1177   0.255   1.348   2.152
  388SOL    HW1 1178   0.159   1.349   2.125
  388SOL    HW2 1179   0.267   1.401   2.236
  389SOL     OW 1180   0.105   1.013   3.588
  389SOL    HW1 1181   0.028   0.980   3.642
  389SOL    HW2 1182   0.190   0.983   3.630
  390SOL     OW 1183   0.672   0.203   3.351
  390SOL    HW1 1184   0.762   0.187   3.311
  390SOL    HW2 1185   0.680   0.208   3.450
  391SOL     OW 1186   0.075   0.345   1.895
  391SOL    HW1 1187  -0.017   0.317   1.866
  391SOL    HW2 1188   0.106   0.422   1.839
  392SOL     OW 1189   1.440   0.856   3.260
  392SOL    HW1 1190   1.383   0.908   3.197
  392SOL    HW2 1191   1.536   0.868   3.236
  393SOL     OW 1192   0.072   0.166   2.180
  393SOL    HW1 1193   0.055   0.249   2.126
  393SOL    HW2 1194   0.162   0.129   2.158
  394SOL     OW 1195   1.183   1.335   1.981
  394SOL    HW1 1196   1.084   1.324   1.983
  394SOL    HW2 1197   1.217   1.350   2.074
  395SOL     OW 1198   0.613   0.842   3.293
  395SOL    HW1 1199   0.669   0.923   3.276
  395SOL    HW2 1200   0.672   0.762   3.296
  396SOL     OW 1201   1.493   1.767   2.821
  396SOL    HW1 1202   1.526   1.831   2.752
  396SOL    HW2 1203   1.559   1.761   2.896
  397SOL     OW 1204   0.716   0.565   3.570
  397SOL    HW1 1205   0.735   0.630   3.644
  397SOL    HW2 1206   0.776   0.485   3.579
  398SOL     OW 1207   1.450   1.220   3.495
  398SOL    HW1 1208   1.441   1.210   3.594
  398SOL    HW2 1209   1.546   1.213   3.469
  399SOL     OW 1210   0.390   1.741   3.422
  399SOL    HW1 1211   0.299   1.782   3.420
  399SOL    HW2 1212   0.383   1.647   3.454
  400SOL     OW 1213   1.674   0.883   3.116
  400SOL    HW1 1214   1.647   0.794   3.079
  400SOL    HW2 1215   1.675   0.951   3.043
  401SOL     OW 1216   1.225   0.325   2.311
  401SOL    HW1 1217   1.290   0.251   2.300
  401SOL    HW2 1218   1.245   0.375   2.395
  402SOL     OW 1219   0.594   0.745   2.514
  402SOL    HW1 1220   0.644   0.830   2.495
  402SOL    HW2 1221   0.506   0.747   2.466
  403SOL     OW 1222   1.777   0.342   3.504
  403SOL    HW1 1223   1.760   0.373   3.410
  403SOL    HW2 1224   1.693   0.305   3.542
  404SOL     OW 1225   1.730   0.934   3.379
  404SOL    HW1 1226   1.768   1.025   3.394
  404SOL    HW2 1227   1.722   0.917   3.280
  405SOL     OW 1228   0.859   1.374   1.878
  405SOL    HW1 1229   0.813   1.389   1.966
  405SOL    HW2 1230   0.903   1.459   1.848
  406SOL     OW 1231   0.661   1.790   2.815
  406SOL    HW1 1232   0.615   1.878   2.802
  406SOL    HW2 1233   0.760   1.802   2.808
  407SOL     OW 1234   0.859   0.956   2.723
  407SOL    HW1 1235   0.913   0.887   2.771
  407SOL    HW2 1236   0.827   1.025   2.789
  408SOL     OW 1237   1.083   0.984   1.949
  408SOL    HW1 1238   1.060   1.037   1.867
  408SOL    HW2 1239   1.164   0.928   1.930
  409SOL     OW 1240   1.861   1.569   2.713
  409SOL    HW1 1241   1.790   1.557   2.643
  409SOL    HW2 1242   1.862   1.490   2.773
  410SOL     OW 1243   0.221   1.314   3.706
  410SOL    HW1 1244   0.156   1.241   3.685
  410SOL    HW2 1245   0.225   1.328   3.804
  411SOL     OW 1246   0.079   1.240   2.515
  411SOL    HW1 1247   0.078   1.193   2.603
  411SOL    HW2 1248   0.161   1.212   2.464
  412SOL     OW 1249   0.672   1.391   3.486
  412SOL    HW1 1250   0.594   1.341   3.524
  412SOL    HW2 1251   0.669   1.486   3.517
  413SOL     OW 1252   1.824   0.192   3.089
  413SOL    HW1 1253   1.820   0.102   3.133
  413SOL    HW2 1254   1.827   0.181   2.990
  414SOL     OW 1255   0.428   0.424   2.382
  414SOL    HW1 1256   0.458   0.352   2.320
  414SOL    HW2 1257   0.389   0.384   2.465
  415SOL     OW 1258   1.705   1.487   2.966
  415SOL    HW1 1259   1.612   1.462   2.939
  415SOL    HW2 1260   1.731   1.437   3.048
  416SOL     OW 1261   0.317   0.547   3.142
  416SOL    HW1 1262   0.355   0.488   3.214
  416SOL    HW2 1263   0.357   0.521   3.054
  417SOL     OW 1264   0.812   1.586   2.549
  417SOL    HW1 1265   0.844   1.596   2.455
  417SOL    HW2 1266   0.733   1.524   2.551
  418SOL     OW 1267   1.424   0.214   2.974
  418SOL    HW1 1268   1.476   0.149   3.029
  418SOL    HW2 1269   1.375   0.277   3.035
  419SOL     OW 1270   1.001   0.034   3.016
  419SOL    HW1 1271   0.938  -0.038   2.985
  419SOL    HW2 1272   1.094  -0.002   3.016
  420SOL     OW 1273   0.770   1.330   2.163
  420SOL    HW1 1274   0.724   1.243   2.180
  420SOL    HW2 1275   0.861   1.327   2.204
  421SOL     OW 1276   0.618   1.567   3.146
  421SOL    HW1 1277   0.613   1.649   3.203
  421SOL    HW2 1278   0.707   1.564   3.101
  422SOL     OW 1279   1.352   0.052   2.030
  422SOL    HW1 1280   1.387   0.011   1.946
  422SOL    HW2 1281   1.262   0.014   2.050
  423SOL     OW 1282   1.300   0.453   2.553
  423SOL    HW1 1283   1.241   0.533   2.557
  423SOL    HW2 1284   1.315   0.418   2.646
  424SOL     OW 1285   1.593   0.221   2.744
  424SOL    HW1 1286   1.509   0.220   2.798
  424SOL    HW2 1287   1.595   0.304   2.688
  425SOL     OW 1288   0.039   1.077   2.162
  425SOL    HW1 1289   0.138   1.066   2.153
  425SOL    HW2 1290  -0.001   0.991   2.194
  426SOL     OW 1291   0.875   1.646   2.199
  426SOL    HW1 1292   0.798   1.611   2.145
  426SOL    HW2 1293   0.843   1.717   2.261
  427SOL     OW 1294   0.230   0.628   3.837
  427SOL    HW1 1295   0.137   0.626   3.874
  427SOL    HW2 1296   0.231   0.589   3.745
  428SOL     OW 1297   0.019   0.368   4.371
  428SOL    HW1 1298  -0.063   0.411   4.410
  428SOL    HW2 1299  -0.009   0.295   4.308
  429SOL     OW 1300   1.755   0.607   3.955
  429SOL    HW1 1301   1.743   0.594   3.856
  429SOL    HW2 1302   1.725   0.526   4.004
  430SOL     OW 1303   0.685   1.012   4.389
  430SOL    HW1 1304   0.754   0.996   4.459
  430SOL    HW2 1305   0.612   1.069   4.427
  431SOL     OW 1306   1.603   0.447   4.461
  431SOL    HW1 1307   1.529   0.493   4.411
  431SOL    HW2 1308   1.654   0.515   4.514
  432SOL     OW 1309   0.231   1.713   4.207
  432SOL    HW1 1310   0.265   1.790   4.261
  432SOL    HW2 1311   0.275   1.713   4.117
  433SOL     OW 1312   0.230   1.434   4.262
  433SOL    HW1 1313   0.204   1.530   4.262
  433SOL    HW2 1314   0.159   1.380   4.307
  434SOL     OW 1315   0.606   0.964   3.847
  434SOL    HW1 1316   0.613   1.048   3.793
  434SOL    HW2 1317   0.652   0.977   3.935
  435SOL     OW 1318   0.122   0.643   4.287
  435SOL    HW1 1319   0.077   0.555   4.304
  435SOL    HW2 1320   0.121   0.697   4.371
  436SOL     OW 1321   1.842   1.767   4.083
  436SOL    HW1 1322   1.896   1.738   4.163
  436SOL    HW2 1323   1.872   1.857   4.054
  437SOL     OW 1324   0.027   1.596   3.841
  437SOL    HW1 1325   0.008   1.500   3.862
  437SOL    HW2 1326  -0.006   1.654   3.916
  438SOL     OW 1327   1.689   0.922   4.336
  438SOL    HW1 1328   1.784   0.893   4.344
  438SOL    HW2 1329   1.681   0.987   4.261
  439SOL     OW 1330   1.641   1.108   4.156
  439SOL    HW1 1331   1.727   1.110   4.104
  439SOL    HW2 1332   1.655   1.155   4.244
  440SOL     OW 1333   0.613   1.365   4.450
  440SOL    HW1 1334   0.564   1.278   4.459
  440SOL    HW2 1335   0.590   1.408   4.363
  441SOL     OW 1336   0.809   0.004   4.226
  441SOL    HW1 1337   0.849   0.095   4.217
  441SOL    HW2 1338   0.709   0.012   4.232
  442SOL     OW 1339   1.525   0.999   3.914
  442SOL    HW1 1340   1.462   0.923   3.927
  442SOL    HW2 1341   1.573   1.017   4.000
  443SOL     OW 1342   1.667   1.714   4.296
  443SOL    HW1 1343   1.626   1.691   4.208
  443SOL    HW2 1344   1.649   1.640   4.361
  444SOL     OW 1345   0.598   0.729   3.994
  444SOL    HW1 1346   0.622   0.798   3.926
  444SOL    HW2 1347   0.520   0.762   4.048
  445SOL     OW 1348   1.281   0.345   4.668
  445SOL    HW1 1349   1.195   0.295   4.655
  445SOL    HW2 1350   1.343   0.291   4.724
  446SOL     OW 1351   1.576   1.662   4.031
  446SOL    HW1 1352   1.665   1.708   4.034
  446SOL    HW2 1353   1.555   1.638   3.936
  447SOL     OW 1354   1.041   0.701   4.153
  447SOL    HW1 1355   1.067   0.697   4.249
  447SOL    HW2 1356   0.956   0.650   4.139
  448SOL     OW 1357   0.076   0.811   4.513
  448SOL    HW1 1358   0.175   0.799   4.522
  448SOL    HW2 1359   0.052   0.906   4.534
  449SOL     OW 1360   0.865   0.348   3.919
  449SOL    HW1 1361   0.924   0.411   3.870
  449SOL    HW2 1362   0.884   0.254   3.890
  450SOL     OW 1363   1.362   1.144   4.269
  450SOL    HW1 1364   1.445   1.115   4.221
  450SOL    HW2 1365   1.313   1.211   4.213
  451SOL     OW 1366   1.008   1.456   4.201
  451SOL    HW1 1367   0.962   1.528   4.149
  451SOL    HW2 1368   1.004   1.476   4.299
  452SOL     OW 1369   0.351   1.801   4.577
  452SOL    HW1 1370   0.401   1.715   4.583
  452SOL    HW2 1371   0.416   1.878   4.574
  453SOL     OW 1372   1.795   1.066   4.597
  453SOL    HW1 1373   1.733   1.051   4.521
  453SOL    HW2 1374   1.743   1.077   4.682
  454SOL     OW 1375   0.321   0.943   3.966
  454SOL    HW1 1376   0.403   0.982   3.924
  454SOL    HW2 1377   0.294   0.861   3.917
  455SOL     OW 1378   1.111   1.776   3.961
  455SOL    HW1 1379   1.051   1.714   4.011
  455SOL    HW2 1380   1.142   1.732   3.876
  456SOL     OW 1381   1.632   1.377   3.805
  456SOL    HW1 1382   1.600   1.471   3.795
  456SOL    HW2 1383   1.556   1.314   3.793
  457SOL     OW 1384   0.464   1.743   4.047
  457SOL    HW1 1385   0.497   1.782   4.133
  457SOL    HW2 1386   0.540   1.736   3.982
  458SOL     OW 1387   1.400   0.107   4.150
  458SOL    HW1 1388   1.376   0.070   4.060
  458SOL    HW2 1389   1.499   0.123   4.154
  459SOL     OW 1390   0.940   1.698   4.628
  459SOL    HW1 1391   1.020   1.641   4.649
  459SOL    HW2 1392   0.891   1.658   4.551
  460SOL     OW 1393   0.382   0.700   4.204
  460SOL    HW1 1394   0.427   0.610   4.201
  460SOL    HW2 1395   0.288   0.689   4.237
  461SOL     OW 1396   0.614   0.122   3.841
  461SOL    HW1 1397   0.712   0.100   3.848
  461SOL    HW2 1398   0.583   0.105   3.748
  462SOL     OW 1399   0.539   0.064   4.236
  462SOL    HW1 1400   0.458   0.065   4.294
  462SOL    HW2 1401   0.542   0.147   4.181
  463SOL     OW 1402   1.434   1.188   3.765
  463SOL    HW1 1403   1.466   1.112   3.822
  463SOL    HW2 1404   1.342   1.215   3.795
  464SOL     OW 1405   0.297   0.035   3.895
  464SOL    HW1 1406   0.346   0.119   3.874
  464SOL    HW2 1407   0.359  -0.030   3.940
  465SOL     OW 1408   0.935   0.236   4.204
  465SOL    HW1 1409   0.887   0.277   4.126
  465SOL    HW2 1410   1.034   0.234   4.185
  466SOL     OW 1411   0.459   1.152   4.465
  466SOL    HW1 1412   0.388   1.125   4.530
  466SOL    HW2 1413   0.433   1.124   4.372
  467SOL     OW 1414   1.271   1.797   4.315
  467SOL    HW1 1415   1.315   1.861   4.251
  467SOL    HW2 1416   1.221   1.849   4.385
  468SOL     OW 1417   1.032   0.549   3.740
  468SOL    HW1 1418   0.991   0.631   3.701
  468SOL    HW2 1419   1.096   0.575   3.813
  469SOL     OW 1420   0.866   0.454   4.366
  469SOL    HW1 1421   0.834   0.526   4.304
  469SOL    HW2 1422   0.890   0.373   4.313
  470SOL     OW 1423   1.857   0.833   4.101
  470SOL    HW1 1424   1.899   0.769   4.165
  470SOL    HW2 1425   1.819   0.782   4.023
  471SOL     OW 1426   0.488   1.385   3.898
  471SOL    HW1 1427   0.401   1.370   3.945
  471SOL    HW2 1428   0.471   1.411   3.803
  472SOL     OW 1429   1.664   1.280   4.381
  472SOL    HW1 1430   1.763   1.288   4.395
  472SOL    HW2 1431   1.619   1.364   4.412
  473SOL     OW 1432   1.390   0.575   3.802
  473SOL    HW1 1433   1.336   0.554   3.883
  473SOL    HW2 1434   1.481   0.534   3.811
  474SOL     OW 1435   0.527   0.256   4.052
  474SOL    HW1 1436   0.554   0.197   3.977
  474SOL    HW2 1437   0.527   0.351   4.021
  475SOL     OW 1438   0.705   1.050   4.092
  475SOL    HW1 1439   0.691   1.057   4.191
  475SOL    HW2 1440   0.789   0.999   4.074
  476SOL     OW 1441   0.367   1.100   4.225
  476SOL    HW1 1442   0.360   1.183   4.169
  476SOL    HW2 1443   0.371   1.020   4.165
  477SOL     OW 1444   1.252   1.348   4.112
  477SOL    HW1 1445   1.302   1.425   4.152
  477SOL    HW2 1446   1.157   1.350   4.144
  478SOL     OW 1447   1.582   0.639   4.196
  478SOL    HW1 1448   1.551   0.700   4.269
  478SOL    HW2 1449   1.632   0.691   4.127
  479SOL     OW 1450   1.209   0.525   3.999
  479SOL    HW1 1451   1.222   0.441   4.053
  479SOL    HW2 1452   1.180   0.599   4.059
  480SOL     OW 1453   0.307   0.063   4.342
  480SOL    HW1 1454   0.296   0.157   4.375
  480SOL    HW2 1455   0.302   0.000   4.419
  481SOL     OW 1456   1.622   0.367   4.098
  481SOL    HW1 1457   1.624   0.291   4.162
  481SOL    HW2 1458   1.574   0.444   4.138
  482SOL     OW 1459   1.540   0.274   3.849
  482SOL    HW1 1460   1.479   0.199   3.872
  482SOL    HW2 1461   1.562   0.326   3.932
  483SOL     OW 1462   1.303   0.838   3.766
  483SOL    HW1 1463   1.337   0.745   3.781
  483SOL    HW2 1464   1.321   0.865   3.671
  484SOL     OW 1465   0.008   1.326   3.924
  484SOL    HW1 1466  -0.085   1.347   3.893
  484SOL    HW2 1467   0.018   1.227   3.937
  485SOL     OW 1468   0.815   0.572   4.049
  485SOL    HW1 1469   0.822   0.483   4.003
  485SOL    HW2 1470   0.721   0.606   4.041
  486SOL     OW 1471   0.473   0.500   3.915
  486SOL    HW1 1472   0.534   0.580   3.919
  486SOL    HW2 1473   0.378   0.531   3.922
  487SOL     OW 1474   1.302   0.855   4.033
  487SOL    HW1 1475   1.216   0.824   4.075
  487SOL    HW2 1476   1.298   0.841   3.934
  488SOL     OW 1477   1.726   0.135   4.247
  488SOL    HW1 1478   1.799   0.118   4.180
  488SOL    HW2 1479   1.695   0.048   4.285
  489SOL     OW 1480   1.388   1.573   4.201
  489SOL    HW1 1481   1.455   1.585   4.127
  489SOL    HW2 1482   1.348   1.662   4.224
  490SOL     OW 1483   0.672   1.616   3.878
  490SOL    HW1 1484   0.681   1.626   3.779
  490SOL    HW2 1485   0.632   1.527   3.899
  491SOL     OW 1486   1.194   1.612   3.755
  491SOL    HW1 1487   1.200   1.519   3.792
  491SOL    HW2 1488   1.135   1.612   3.675
  492SOL     OW 1489   0.916   0.910   4.015
  492SOL    HW1 1490   0.979   0.948   3.947
  492SOL    HW2 1491   0.956   0.827   4.054
  493SOL     OW 1492   1.504   1.607   3.768
  493SOL    HW1 1493   1.412   1.644   3.775
  493SOL    HW2 1494   1.542   1.627   3.678
  494SOL     OW 1495   0.590   1.487   4.215
  494SOL    HW1 1496   0.632   1.429   4.145
  494SOL    HW2 1497   0.546   1.566   4.171
  495SOL     OW 1498   0.255   1.348   4.014
  495SOL    HW1 1499   0.159   1.349   3.987
  495SOL    HW2 1500   0.267   1.401   4.098
  496SOL     OW 1501   0.075   0.345   3.757
  496SOL    HW1 1502  -0.017   0.317   3.728
  496SOL    HW2 1503   0.106   0.422   3.701
  497SOL     OW 1504   0.072   0.166   4.042
  497SOL    HW1 1505   0.055   0.249   3.988
  497SOL    HW2 1506   0.162   0.129   4.020
  498SOL     OW 1507   1.183   1.335   3.843
  498SOL    HW1 1508   1.084   1.324   3.845
  498SOL    HW2 1509   1.217   1.350   3.936
  499SOL     OW 1510   1.225   0.325   4.173
  499SOL    HW1 1511   1.290   0.251   4.162
  499SOL    HW2 1512   1.245   0.375   4.257
  500SOL     OW 1513   0.594   0.745   4.376
  500SOL    HW1 1514   0.644   0.830   4.357
  500SOL    HW2 1515   0.506   0.747   4.328
  501SOL     OW 1516   0.859   1.374   3.740
  501SOL    HW1 1517   0.813   1.389   3.828
  501SOL    HW2 1518   0.903   1.459   3.710
  502SOL     OW 1519   0.661   1.790   4.677
  502SOL    HW1 1520   0.615   1.878   4.664
  502SOL    HW2 1521   0.760   1.802   4.670
  503SOL     OW 1522   0.859   0.956   4.585
  503SOL    HW1 1523   0.913   0.887   4.633
  503SOL    HW2 1524   0.827   1.025   4.651
  504SOL     OW 1525   1.083   0.984   3.811
  504SOL    HW1 1526   1.060   1.037   3.729
  504SOL    HW2 1527   1.164   0.928   3.792
  505SOL     OW 1528   0.079   1.240   4.377
  505SOL    HW1 1529   0.078   1.193   4.465
  505SOL    HW2 1530   0.161   1.212   4.326
  506SOL     OW 1531   0.428   0.424   4.244
  506SOL    HW1 1532   0.458   0.352   4.182
  506SOL    HW2 1533   0.389   0.384   4.327
  507SOL     OW 1534   0.812   1.586   4.411
  507SOL    HW1 1535   0.844   1.596   4.317
  507SOL    HW2 1536   0.733   1.524   4.413
  508SOL     OW 1537   0.770   1.330   4.025
  508SOL    HW1 1538   0.724   1.243   4.042
  508SOL    HW2 1539   0.861   1.327   4.066
  509SOL     OW 1540   1.352   0.052   3.892
  509SOL    HW1 1541   1.387   0.011   3.808
  509SOL    HW2 1542   1.262   0.014   3.912
  510SOL     OW 1543   1.300   0.453   4.415
  510SOL    HW1 1544   1.241   0.533   4.419
  510SOL    HW2 1545   1.315   0.418   4.508
  511SOL     OW 1546   0.039   1.077   4.024
  511SOL    HW1 1547   0.138   1.066   4.015
  511SOL    HW2 1548  -0.001   0.991   4.056
  512SOL     OW 1549   0.875   1.646   4.061
  512SOL    HW1 1550   0.798   1.611   4.007
  512SOL    HW2 1551   0.843   1.717   4.123
  513SOL     OW 1552   0.230   2.490   0.113
  513SOL    HW1 1553   0.137   2.488   0.150
  513SOL    HW2 1554   0.231   2.451   0.021
  514SOL     OW 1555   0.225   2.137   0.996
  514SOL    HW1 1556   0.260   2.120   1.088
  514SOL    HW2 1557   0.137   2.092   0.984
  515SOL     OW 1558   0.019   2.230   0.647
  515SOL    HW1 1559  -0.063   2.273   0.686
  515SOL    HW2 1560  -0.009   2.157   0.584
  516SOL     OW 1561   0.569   3.137   1.165
  516SOL    HW1 1562   0.476   3.130   1.128
  516SOL    HW2 1563   0.580   3.226   1.209
  517SOL     OW 1564   1.555   3.373   0.703
  517SOL    HW1 1565   1.498   3.357   0.784
  517SOL    HW2 1566   1.496   3.383   0.623
  518SOL     OW 1567   1.135   2.565   0.717
  518SOL    HW1 1568   1.192   2.643   0.692
  518SOL    HW2 1569   1.075   2.591   0.793
  519SOL     OW 1570   1.755   2.469   0.231
  519SOL    HW1 1571   1.743   2.456   0.132
  519SOL    HW2 1572   1.725   2.388   0.280
  520SOL     OW 1573   0.768   3.006   1.023
  520SOL    HW1 1574   0.690   3.023   1.083
  520SOL    HW2 1575   0.802   3.093   0.987
  521SOL     OW 1576   0.850   2.660   1.823
  521SOL    HW1 1577   0.846   2.736   1.888
  521SOL    HW2 1578   0.872   2.696   1.732
  522SOL     OW 1579   0.685   2.874   0.665
  522SOL    HW1 1580   0.754   2.858   0.735
  522SOL    HW2 1581   0.612   2.931   0.703
  523SOL     OW 1582   0.686   3.023   1.803
  523SOL    HW1 1583   0.746   3.102   1.817
  523SOL    HW2 1584   0.600   3.054   1.762
  524SOL     OW 1585   0.335   3.297   1.061
  524SOL    HW1 1586   0.257   3.266   1.008
  524SOL    HW2 1587   0.393   3.355   1.004
  525SOL     OW 1588   1.460   3.367   1.339
  525SOL    HW1 1589   1.484   3.461   1.365
  525SOL    HW2 1590   1.444   3.313   1.421
  526SOL     OW 1591   0.438   2.254   1.499
  526SOL    HW1 1592   0.520   2.198   1.508
  526SOL    HW2 1593   0.357   2.196   1.503
  527SOL     OW 1594   1.603   2.309   0.737
  527SOL    HW1 1595   1.529   2.355   0.687
  527SOL    HW2 1596   1.654   2.377   0.790
  528SOL     OW 1597   0.231   3.575   0.483
  528SOL    HW1 1598   0.265   3.652   0.537
  528SOL    HW2 1599   0.275   3.575   0.393
  529SOL     OW 1600   1.127   3.203   1.690
  529SOL    HW1 1601   1.174   3.203   1.778
  529SOL    HW2 1602   1.079   3.116   1.679
  530SOL     OW 1603   0.230   3.296   0.538
  530SOL    HW1 1604   0.204   3.392   0.538
  530SOL    HW2 1605   0.159   3.242   0.583
  531SOL     OW 1606   0.240   2.953   0.886
  531SOL    HW1 1607   0.254   2.869   0.938
  531SOL    HW2 1608   0.185   3.017   0.941
  532SOL     OW 1609   0.620   3.648   1.439
  532SOL    HW1 1610   0.528   3.631   1.474
  532SOL    HW2 1611   0.648   3.740   1.465
  533SOL     OW 1612   0.606   2.826   0.123
  533SOL    HW1 1613   0.613   2.910   0.069
  533SOL    HW2 1614   0.652   2.839   0.211
  534SOL     OW 1615   1.594   1.976   1.480
  534SOL    HW1 1616   1.576   2.043   1.408
  534SOL    HW2 1617   1.591   2.022   1.569
  535SOL     OW 1618   0.122   2.505   0.563
  535SOL    HW1 1619   0.077   2.417   0.580
  535SOL    HW2 1620   0.121   2.559   0.647
  536SOL     OW 1621   1.842   3.629   0.359
  536SOL    HW1 1622   1.896   3.600   0.439
  536SOL    HW2 1623   1.872   3.719   0.330
  537SOL     OW 1624   0.027   3.458   0.117
  537SOL    HW1 1625   0.008   3.362   0.138
  537SOL    HW2 1626  -0.006   3.516   0.192
  538SOL     OW 1627   1.689   2.784   0.612
  538SOL    HW1 1628   1.784   2.755   0.620
  538SOL    HW2 1629   1.681   2.849   0.537
  539SOL     OW 1630   1.641   2.970   0.432
  539SOL    HW1 1631   1.727   2.972   0.380
  539SOL    HW2 1632   1.655   3.017   0.520
  540SOL     OW 1633   0.113   2.599   1.597
  540SOL    HW1 1634   0.201   2.586   1.642
  540SOL    HW2 1635   0.100   2.696   1.575
  541SOL     OW 1636   0.613   3.227   0.726
  541SOL    HW1 1637   0.564   3.140   0.735
  541SOL    HW2 1638   0.590   3.270   0.639
  542SOL     OW 1639   1.293   3.090   1.423
  542SOL    HW1 1640   1.330   3.017   1.365
  542SOL    HW2 1641   1.345   3.095   1.508
  543SOL     OW 1642   0.809   1.866   0.502
  543SOL    HW1 1643   0.849   1.957   0.493
  543SOL    HW2 1644   0.709   1.874   0.508
  544SOL     OW 1645   0.197   2.838   1.264
  544SOL    HW1 1646   0.286   2.793   1.250
  544SOL    HW2 1647   0.124   2.773   1.245
  545SOL     OW 1648   1.525   2.861   0.190
  545SOL    HW1 1649   1.462   2.785   0.203
  545SOL    HW2 1650   1.573   2.879   0.276
  546SOL     OW 1651   1.187   3.654   1.616
  546SOL    HW1 1652   1.211   3.714   1.540
  546SOL    HW2 1653   1.194   3.559   1.586
  547SOL     OW 1654   0.317   2.113   1.801
  547SOL    HW1 1655   0.388   2.184   1.807
  547SOL    HW2 1656   0.229   2.152   1.829
  548SOL     OW 1657   1.466   3.279   0.953
  548SOL    HW1 1658   1.407   3.285   1.033
  548SOL    HW2 1659   1.451   3.191   0.907
  549SOL     OW 1660   1.667   3.576   0.572
  549SOL    HW1 1661   1.626   3.553   0.484
  549SOL    HW2 1662   1.649   3.502   0.637
  550SOL     OW 1663   0.598   2.591   0.270
  550SOL    HW1 1664   0.622   2.660   0.202
  550SOL    HW2 1665   0.520   2.624   0.324
  551SOL     OW 1666   1.281   2.207   0.944
  551SOL    HW1 1667   1.195   2.157   0.931
  551SOL    HW2 1668   1.343   2.153   1.000
  552SOL     OW 1669   1.576   3.524   0.307
  552SOL    HW1 1670   1.665   3.570   0.310
  552SOL    HW2 1671   1.555   3.500   0.212
  553SOL     OW 1672   0.807   2.467   1.465
  553SOL    HW1 1673   0.760   2.464   1.554
  553SOL    HW2 1674   0.756   2.412   1.399
  554SOL     OW 1675   1.394   2.331   1.674
  554SOL    HW1 1676   1.374   2.374   1.762
  554SOL    HW2 1677   1.472   2.269   1.683
  555SOL     OW 1678   0.973   2.752   1.572
  555SOL    HW1 1679   1.019   2.668   1.543
  555SOL    HW2 1680   0.917   2.786   1.497
  556SOL     OW 1681   0.991   2.272   1.242
  556SOL    HW1 1682   0.914   2.306   1.296
  556SOL    HW2 1683   0.957   2.221   1.163
  557SOL     OW 1684   1.041   2.563   0.429
  557SOL    HW1 1685   1.067   2.559   0.525
  557SOL    HW2 1686   0.956   2.512   0.415
  558SOL     OW 1687   0.076   2.673   0.789
  558SOL    HW1 1688   0.175   2.661   0.798
  558SOL    HW2 1689   0.052   2.768   0.810
  559SOL     OW 1690   0.130   3.683   1.571
  559SOL    HW1 1691   0.120   3.668   1.670
  559SOL    HW2 1692   0.044   3.719   1.535
  560SOL     OW 1693   0.865   2.210   0.195
  560SOL    HW1 1694   0.924   2.273   0.146
  560SOL    HW2 1695   0.884   2.116   0.166
  561SOL     OW 1696   1.719   2.447   1.831
  561SOL    HW1 1697   1.693   2.536   1.795
  561SOL    HW2 1698   1.717   2.379   1.758
  562SOL     OW 1699   1.362   3.006   0.545
  562SOL    HW1 1700   1.445   2.977   0.497
  562SOL    HW2 1701   1.313   3.073   0.489
  563SOL     OW 1702   0.550   2.058   0.885
  563SOL    HW1 1703   0.545   2.053   0.985
  563SOL    HW2 1704   0.552   2.154   0.856
  564SOL     OW 1705   1.008   3.318   0.477
  564SOL    HW1 1706   0.962   3.390   0.425
  564SOL    HW2 1707   1.004   3.338   0.575
  565SOL     OW 1708   0.351   3.663   0.853
  565SOL    HW1 1709   0.401   3.577   0.859
  565SOL    HW2 1710   0.416   3.740   0.850
  566SOL     OW 1711   1.795   2.928   0.873
  566SOL    HW1 1712   1.733   2.913   0.797
  566SOL    HW2 1713   1.743   2.939   0.958
  567SOL     OW 1714   1.227   3.412   1.506
  567SOL    HW1 1715   1.233   3.335   1.570
  567SOL    HW2 1716   1.175   3.386   1.426
  568SOL     OW 1717   0.321   2.805   0.242
  568SOL    HW1 1718   0.403   2.844   0.200
  568SOL    HW2 1719   0.294   2.723   0.193
  569SOL     OW 1720   1.458   2.597   0.728
  569SOL    HW1 1721   1.453   2.532   0.803
  569SOL    HW2 1722   1.538   2.656   0.741
  570SOL     OW 1723   0.461   3.128   1.727
  570SOL    HW1 1724   0.411   3.129   1.641
  570SOL    HW2 1725   0.398   3.110   1.803
  571SOL     OW 1726   1.111   3.638   0.237
  571SOL    HW1 1727   1.051   3.576   0.287
  571SOL    HW2 1728   1.142   3.594   0.152
  572SOL     OW 1729   0.202   2.147   1.498
  572SOL    HW1 1730   0.122   2.207   1.485
  572SOL    HW2 1731   0.192   2.098   1.584
  573SOL     OW 1732   1.632   3.239   0.081
  573SOL    HW1 1733   1.600   3.333   0.071
  573SOL    HW2 1734   1.556   3.176   0.069
  574SOL     OW 1735   0.464   3.605   0.323
  574SOL    HW1 1736   0.497   3.644   0.409
  574SOL    HW2 1737   0.540   3.598   0.258
  575SOL     OW 1738   1.400   1.969   0.426
  575SOL    HW1 1739   1.376   1.932   0.336
  575SOL    HW2 1740   1.499   1.985   0.430
  576SOL     OW 1741   0.249   3.647   1.241
  576SOL    HW1 1742   0.306   3.582   1.291
  576SOL    HW2 1743   0.233   3.614   1.148
  577SOL     OW 1744   0.940   3.560   0.904
  577SOL    HW1 1745   1.020   3.503   0.925
  577SOL    HW2 1746   0.891   3.520   0.827
  578SOL     OW 1747   0.382   2.562   0.480
  578SOL    HW1 1748   0.427   2.472   0.477
  578SOL    HW2 1749   0.288   2.551   0.513
  579SOL     OW 1750   1.547   2.084   1.729
  579SOL    HW1 1751   1.542   2.121   1.821
  579SOL    HW2 1752   1.475   2.015   1.717
  580SOL     OW 1753   0.781   2.126   1.749
  580SOL    HW1 1754   0.848   2.065   1.792
  580SOL    HW2 1755   0.708   2.145   1.814
  581SOL     OW 1756   0.888   3.376   1.195
  581SOL    HW1 1757   0.865   3.351   1.101
  581SOL    HW2 1758   0.949   3.307   1.234
  582SOL     OW 1759   1.351   2.452   1.433
  582SOL    HW1 1760   1.379   2.409   1.518
  582SOL    HW2 1761   1.376   2.548   1.434
  583SOL     OW 1762   0.803   3.264   0.924
  583SOL    HW1 1763   0.893   3.278   0.882
  583SOL    HW2 1764   0.732   3.266   0.853
  584SOL     OW 1765   0.922   2.365   0.899
  584SOL    HW1 1766   0.897   2.356   0.803
  584SOL    HW2 1767   0.970   2.283   0.930
  585SOL     OW 1768   0.539   1.926   0.512
  585SOL    HW1 1769   0.458   1.927   0.570
  585SOL    HW2 1770   0.542   2.009   0.457
  586SOL     OW 1771   1.434   3.050   0.041
  586SOL    HW1 1772   1.466   2.974   0.098
  586SOL    HW2 1773   1.342   3.077   0.071
  587SOL     OW 1774   0.935   2.098   0.480
  587SOL    HW1 1775   0.887   2.139   0.402
  587SOL    HW2 1776   1.034   2.096   0.461
  588SOL     OW 1777   1.076   2.545   1.464
  588SOL    HW1 1778   0.996   2.484   1.467
  588SOL    HW2 1779   1.157   2.492   1.440
  589SOL     OW 1780   1.227   3.432   0.793
  589SOL    HW1 1781   1.248   3.506   0.728
  589SOL    HW2 1782   1.295   3.432   0.866
  590SOL     OW 1783   0.459   3.014   0.741
  590SOL    HW1 1784   0.388   2.987   0.806
  590SOL    HW2 1785   0.433   2.986   0.648
  591SOL     OW 1786   1.271   3.659   0.591
  591SOL    HW1 1787   1.315   3.723   0.527
  591SOL    HW2 1788   1.221   3.711   0.661
  592SOL     OW 1789   1.032   2.411   0.016
  592SOL    HW1 1790   0.991   2.493  -0.023
  592SOL    HW2 1791   1.096   2.437   0.089
  593SOL     OW 1792   0.078   2.418   1.386
  593SOL    HW1 1793   0.170   2.417   1.345
  593SOL    HW2 1794   0.072   2.492   1.453
  594SOL     OW 1795   0.561   2.084   1.147
  594SOL    HW1 1796   0.599   2.000   1.184
  594SOL    HW2 1797   0.473   2.103   1.191
  595SOL     OW 1798   0.866   2.316   0.642
  595SOL    HW1 1799   0.834   2.388   0.580
  595SOL    HW2 1800   0.890   2.235   0.589
  596SOL     OW 1801   1.017   1.901   0.753
  596SOL    HW1 1802   0.945   1.906   0.684
  596SOL    HW2 1803   0.993   1.832   0.822
  597SOL     OW 1804   1.429   3.035   0.867
  597SOL    HW1 1805   1.374   2.951   0.860
  597SOL    HW2 1806   1.455   3.064   0.775
  598SOL     OW 1807   1.466   2.452   0.992
  598SOL    HW1 1808   1.436   2.357   0.999
  598SOL    HW2 1809   1.539   2.468   1.058
  599SOL     OW 1810   1.857   2.695   0.377
  599SOL    HW1 1811   1.899   2.631   0.441
  599SOL    HW2 1812   1.819   2.644   0.299
  600SOL     OW 1813   0.488   3.247   0.174
  600SOL    HW1 1814   0.401   3.232   0.221
  600SOL    HW2 1815   0.471   3.273   0.079
  601SOL     OW 1816   1.664   3.142   0.657
  601SOL    HW1 1817   1.763   3.150   0.671
  601SOL    HW2 1818   1.619   3.226   0.688
  602SOL     OW 1819   1.390   2.437   0.078
  602SOL    HW1 1820   1.336   2.416   0.159
  602SOL    HW2 1821   1.481   2.396   0.087
  603SOL     OW 1822   0.527   2.118   0.328
  603SOL    HW1 1823   0.554   2.059   0.253
  603SOL    HW2 1824   0.527   2.213   0.297
  604SOL     OW 1825   1.754   3.085   1.588
  604SOL    HW1 1826   1.845   3.046   1.575
  604SOL    HW2 1827   1.762   3.181   1.612
  605SOL     OW 1828   1.064   3.209   1.340
  605SOL    HW1 1829   0.984   3.186   1.395
  605SOL    HW2 1830   1.147   3.183   1.389
  606SOL     OW 1831   1.592   3.491   1.625
  606SOL    HW1 1832   1.619   3.525   1.535
  606SOL    HW2 1833   1.671   3.453   1.671
  607SOL     OW 1834   1.111   3.057   1.100
  607SOL    HW1 1835   1.071   3.101   1.181
  607SOL    HW2 1836   1.070   3.094   1.017
  608SOL     OW 1837   1.638   2.961   1.079
  608SOL    HW1 1838   1.643   3.042   1.138
  608SOL    HW2 1839   1.552   2.963   1.028
  609SOL     OW 1840   0.915   1.951   1.402
  609SOL    HW1 1841   0.940   1.931   1.307
  609SOL    HW2 1842   0.987   2.007   1.444
  610SOL     OW 1843   0.980   2.978   1.719
  610SOL    HW1 1844   0.881   2.984   1.729
  610SOL    HW2 1845   1.003   2.898   1.663
  611SOL     OW 1846   0.705   2.912   0.368
  611SOL    HW1 1847   0.691   2.919   0.467
  611SOL    HW2 1848   0.789   2.861   0.350
  612SOL     OW 1849   0.410   2.675   1.251
  612SOL    HW1 1850   0.496   2.687   1.301
  612SOL    HW2 1851   0.368   2.588   1.278
  613SOL     OW 1852   1.274   2.248   1.262
  613SOL    HW1 1853   1.295   2.322   1.326
  613SOL    HW2 1854   1.185   2.265   1.219
  614SOL     OW 1855   0.064   3.426   1.331
  614SOL    HW1 1856   0.018   3.508   1.297
  614SOL    HW2 1857   0.162   3.445   1.340
  615SOL     OW 1858   0.367   2.962   0.501
  615SOL    HW1 1859   0.360   3.045   0.445
  615SOL    HW2 1860   0.371   2.882   0.441
  616SOL     OW 1861   0.566   2.399   0.865
  616SOL    HW1 1862   0.578   2.465   0.791
  616SOL    HW2 1863   0.612   2.433   0.948
  617SOL     OW 1864   1.252   3.210   0.388
  617SOL    HW1 1865   1.302   3.287   0.428
  617SOL    HW2 1866   1.157   3.212   0.420
  618SOL     OW 1867   1.272   3.307   1.142
  618SOL    HW1 1868   1.319   3.320   1.229
  618SOL    HW2 1869   1.206   3.233   1.151
  619SOL     OW 1870   1.582   2.501   0.472
  619SOL    HW1 1871   1.551   2.562   0.545
  619SOL    HW2 1872   1.632   2.553   0.403
  620SOL     OW 1873   0.354   3.372   1.329
  620SOL    HW1 1874   0.333   3.328   1.242
  620SOL    HW2 1875   0.451   3.398   1.332
  621SOL     OW 1876   0.402   2.613   1.598
  621SOL    HW1 1877   0.470   2.668   1.551
  621SOL    HW2 1878   0.442   2.525   1.625
  622SOL     OW 1879   1.587   2.641   1.670
  622SOL    HW1 1880   1.495   2.679   1.665
  622SOL    HW2 1881   1.647   2.688   1.605
  623SOL     OW 1882   1.013   1.967   1.770
  623SOL    HW1 1883   1.019   2.052   1.718
  623SOL    HW2 1884   1.045   1.891   1.713
  624SOL     OW 1885   0.504   1.912   1.740
  624SOL    HW1 1886   0.462   1.855   1.670
  624SOL    HW2 1887   0.438   1.981   1.772
  625SOL     OW 1888   0.573   2.732   1.029
  625SOL    HW1 1889   0.617   2.821   1.020
  625SOL    HW2 1890   0.510   2.732   1.106
  626SOL     OW 1891   1.360   2.724   1.045
  626SOL    HW1 1892   1.285   2.724   0.979
  626SOL    HW2 1893   1.397   2.632   1.054
  627SOL     OW 1894   1.209   2.387   0.275
  627SOL    HW1 1895   1.222   2.303   0.329
  627SOL    HW2 1896   1.180   2.461   0.335
  628SOL     OW 1897   0.307   2.075   1.231
  628SOL    HW1 1898   0.284   2.112   1.321
  628SOL    HW2 1899   0.277   1.980   1.225
  629SOL     OW 1900   0.037   3.172   1.282
  629SOL    HW1 1901   0.090   3.123   1.350
  629SOL    HW2 1902   0.059   3.270   1.287
  630SOL     OW 1903   0.732   2.496   1.064
  630SOL    HW1 1904   0.791   2.470   0.988
  630SOL    HW2 1905   0.704   2.592   1.053
  631SOL     OW 1906   1.728   2.797   1.854
  631SOL    HW1 1907   1.682   2.790   1.765
  631SOL    HW2 1908   1.666   2.841   1.920
  632SOL     OW 1909   0.307   1.925   0.618
  632SOL    HW1 1910   0.296   2.019   0.651
  632SOL    HW2 1911   0.302   1.862   0.695
  633SOL     OW 1912   1.622   2.229   0.374
  633SOL    HW1 1913   1.624   2.153   0.438
  633SOL    HW2 1914   1.574   2.306   0.414
  634SOL     OW 1915   1.023   2.628   0.966
  634SOL    HW1 1916   1.038   2.649   1.062
  634SOL    HW2 1917   0.993   2.533   0.957
  635SOL     OW 1918   0.980   3.435   1.700
  635SOL    HW1 1919   0.960   3.479   1.612
  635SOL    HW2 1920   1.019   3.344   1.684
  636SOL     OW 1921   1.859   3.380   1.605
  636SOL    HW1 1922   1.873   3.407   1.510
  636SOL    HW2 1923   1.942   3.402   1.658
  637SOL     OW 1924   0.350   2.760   1.804
  637SOL    HW1 1925   0.426   2.804   1.852
  637SOL    HW2 1926   0.385   2.713   1.722
  638SOL     OW 1927   1.540   2.136   0.125
  638SOL    HW1 1928   1.479   2.061   0.148
  638SOL    HW2 1929   1.562   2.188   0.208
  639SOL     OW 1930   1.303   2.700   0.042
  639SOL    HW1 1931   1.337   2.607   0.057
  639SOL    HW2 1932   1.321   2.727  -0.053
  640SOL     OW 1933   1.068   3.195   0.849
  640SOL    HW1 1934   1.075   3.111   0.794
  640SOL    HW2 1935   1.130   3.264   0.813
  641SOL     OW 1936   0.319   2.672   0.949
  641SOL    HW1 1937   0.412   2.708   0.954
  641SOL    HW2 1938   0.313   2.587   1.001
  642SOL     OW 1939   0.339   2.371   1.006
  642SOL    HW1 1940   0.287   2.288   0.989
  642SOL    HW2 1941   0.416   2.376   0.942
  643SOL     OW 1942   1.138   2.242   1.678
  643SOL    HW1 1943   1.093   2.305   1.742
  643SOL    HW2 1944   1.231   2.273   1.661
  644SOL     OW 1945   1.160   2.069   1.477
  644SOL    HW1 1946   1.160   2.133   1.554
  644SOL    HW2 1947   1.188   2.117   1.394
  645SOL     OW 1948   0.008   3.188   0.200
  645SOL    HW1 1949  -0.085   3.209   0.169
  645SOL    HW2 1950   0.018   3.089   0.213
  646SOL     OW 1951   0.088   3.663   0.927
  646SOL    HW1 1952   0.046   3.577   0.900
  646SOL    HW2 1953   0.182   3.666   0.893
  647SOL     OW 1954   0.504   3.430   0.910
  647SOL    HW1 1955   0.570   3.504   0.919
  647SOL    HW2 1956   0.548   3.351   0.868
  648SOL     OW 1957   1.002   2.658   1.238
  648SOL    HW1 1958   1.043   2.626   1.324
  648SOL    HW2 1959   0.906   2.631   1.235
  649SOL     OW 1960   0.040   2.406   1.114
  649SOL    HW1 1961   0.125   2.373   1.073
  649SOL    HW2 1962   0.053   2.421   1.212
  650SOL     OW 1963   0.189   2.382   1.722
  650SOL    HW1 1964   0.248   2.342   1.652
  650SOL    HW2 1965   0.131   2.453   1.681
  651SOL     OW 1966   1.369   2.812   1.660
  651SOL    HW1 1967   1.408   2.901   1.680
  651SOL    HW2 1968   1.379   2.792   1.563
  652SOL     OW 1969   0.815   2.434   0.325
  652SOL    HW1 1970   0.822   2.345   0.279
  652SOL    HW2 1971   0.721   2.468   0.317
  653SOL     OW 1972   1.657   2.466   1.206
  653SOL    HW1 1973   1.619   2.397   1.268
  653SOL    HW2 1974   1.739   2.430   1.162
  654SOL     OW 1975   0.252   3.426   1.744
  654SOL    HW1 1976   0.222   3.483   1.820
  654SOL    HW2 1977   0.245   3.329   1.770
  655SOL     OW 1978   0.671   2.326   1.269
  655SOL    HW1 1979   0.637   2.237   1.239
  655SOL    HW2 1980   0.697   2.380   1.189
  656SOL     OW 1981   0.930   3.540   1.465
  656SOL    HW1 1982   0.906   3.522   1.370
  656SOL    HW2 1983   0.960   3.634   1.475
  657SOL     OW 1984   0.473   2.362   0.191
  657SOL    HW1 1985   0.534   2.442   0.195
  657SOL    HW2 1986   0.378   2.393   0.198
  658SOL     OW 1987   0.159   2.999   1.466
  658SOL    HW1 1988   0.181   2.938   1.542
  658SOL    HW2 1989   0.169   2.950   1.380
  659SOL     OW 1990   1.347   2.921   1.234
  659SOL    HW1 1991   1.371   2.858   1.160
  659SOL    HW2 1992   1.257   2.961   1.216
  660SOL     OW 1993   1.302   2.717   0.309
  660SOL    HW1 1994   1.216   2.686   0.351
  660SOL    HW2 1995   1.298   2.703   0.210
  661SOL     OW 1996   1.759   3.609   1.154
  661SOL    HW1 1997   1.820   3.639   1.081
  661SOL    HW2 1998   1.721   3.520   1.132
  662SOL     OW 1999   1.252   3.593   1.128
  662SOL    HW1 2000   1.336   3.598   1.074
  662SOL    HW2 2001   1.229   3.497   1.146
  663SOL     OW 2002   0.083   3.120   1.022
  663SOL    HW1 2003   0.078   3.119   1.122
  663SOL    HW2 2004   0.000   3.079   0.984
  664SOL     OW 2005   0.688   3.524   1.716
  664SOL    HW1 2006   0.632   3.605   1.725
  664SOL    HW2 2007   0.740   3.528   1.630
  665SOL     OW 2008   0.903   1.948   0.133
  665SOL    HW1 2009   0.954   1.949   0.047
  665SOL    HW2 2010   0.959   1.906   0.204
  666SOL     OW 2011   1.726   1.997   0.523
  666SOL    HW1 2012   1.799   1.980   0.456
  666SOL    HW2 2013   1.695   1.910   0.561
  667SOL     OW 2014   1.388   3.435   0.477
  667SOL    HW1 2015   1.455   3.447   0.403
  667SOL    HW2 2016   1.348   3.524   0.500
  668SOL     OW 2017   0.130   3.656   1.851
  668SOL    HW1 2018   0.089   3.582   1.904
  668SOL    HW2 2019   0.194   3.707   1.909
  669SOL     OW 2020   1.280   2.789   0.672
  669SOL    HW1 2021   1.340   2.708   0.674
  669SOL    HW2 2022   1.320   2.858   0.612
  670SOL     OW 2023   0.830   3.135   1.422
  670SOL    HW1 2024   0.825   3.168   1.517
  670SOL    HW2 2025   0.744   3.154   1.376
  671SOL     OW 2026   0.672   3.478   0.154
  671SOL    HW1 2027   0.681   3.488   0.055
  671SOL    HW2 2028   0.632   3.389   0.175
  672SOL     OW 2029   1.650   3.582   1.394
  672SOL    HW1 2030   1.703   3.592   1.310
  672SOL    HW2 2031   1.623   3.672   1.428
  673SOL     OW 2032   1.841   2.037   0.963
  673SOL    HW1 2033   1.880   1.952   0.927
  673SOL    HW2 2034   1.743   2.039   0.944
  674SOL     OW 2035   0.263   2.188   0.720
  674SOL    HW1 2036   0.184   2.239   0.686
  674SOL    HW2 2037   0.254   2.173   0.818
  675SOL     OW 2038   1.194   3.474   0.031
  675SOL    HW1 2039   1.200   3.381   0.068
  675SOL    HW2 2040   1.135   3.474  -0.049
  676SOL     OW 2041   0.822   2.864   1.372
  676SOL    HW1 2042   0.862   2.863   1.280
  676SOL    HW2 2043   0.832   2.956   1.412
  677SOL     OW 2044   0.916   2.772   0.291
  677SOL    HW1 2045   0.979   2.810   0.223
  677SOL    HW2 2046   0.956   2.689   0.330
  678SOL     OW 2047   1.504   3.469   0.044
  678SOL    HW1 2048   1.412   3.506   0.051
  678SOL    HW2 2049   1.542   3.489  -0.046
  679SOL     OW 2050   0.372   3.150   1.490
  679SOL    HW1 2051   0.359   3.243   1.456
  679SOL    HW2 2052   0.288   3.098   1.477
  680SOL     OW 2053   1.614   3.154   1.289
  680SOL    HW1 2054   1.674   3.157   1.369
  680SOL    HW2 2055   1.539   3.218   1.302
  681SOL     OW 2056   1.039   2.960   0.696
  681SOL    HW1 2057   0.969   2.913   0.750
  681SOL    HW2 2058   1.098   2.892   0.653
  682SOL     OW 2059   1.014   2.098   0.971
  682SOL    HW1 2060   1.006   2.062   0.878
  682SOL    HW2 2061   1.012   2.022   1.036
  683SOL     OW 2062   0.590   3.349   0.491
  683SOL    HW1 2063   0.632   3.291   0.421
  683SOL    HW2 2064   0.546   3.428   0.447
  684SOL     OW 2065   1.709   2.247   1.381
  684SOL    HW1 2066   1.782   2.316   1.385
  684SOL    HW2 2067   1.737   2.172   1.322
  685SOL     OW 2068   0.255   3.210   0.290
  685SOL    HW1 2069   0.159   3.211   0.263
  685SOL    HW2 2070   0.267   3.263   0.374
  686SOL     OW 2071   0.105   2.875   1.726
  686SOL    HW1 2072   0.028   2.842   1.780
  686SOL    HW2 2073   0.190   2.845   1.768
  687SOL     OW 2074   0.672   2.065   1.489
  687SOL    HW1 2075   0.762   2.049   1.449
  687SOL    HW2 2076   0.680   2.070   1.588
  688SOL     OW 2077   0.075   2.207   0.033
  688SOL    HW1 2078  -0.017   2.179   0.004
  688SOL    HW2 2079   0.106   2.284  -0.023
  689SOL     OW 2080   1.440   2.718   1.398
  689SOL    HW1 2081   1.383   2.770   1.335
  689SOL    HW2 2082   1.536   2.730   1.374
  690SOL     OW 2083   0.072   2.028   0.318
  690SOL    HW1 2084   0.055   2.111   0.264
  690SOL    HW2 2085   0.162   1.991   0.296
  691SOL     OW 2086   1.183   3.197   0.119
  691SOL    HW1 2087   1.084   3.186   0.121
  691SOL    HW2 2088   1.217   3.212   0.212
  692SOL     OW 2089   0.613   2.704   1.431
  692SOL    HW1 2090   0.669   2.785   1.414
  692SOL    HW2 2091   0.672   2.624   1.434
  693SOL     OW 2092   1.493   3.629   0.959
  693SOL    HW1 2093   1.526   3.693   0.890
  693SOL    HW2 2094   1.559   3.623   1.034
  694SOL     OW 2095   0.716   2.427   1.708
  694SOL    HW1 2096   0.735   2.492   1.782
  694SOL    HW2 2097   0.776   2.347   1.717
  695SOL     OW 2098   1.450   3.082   1.633
  695SOL    HW1 2099   1.441   3.072   1.732
  695SOL    HW2 2100   1.546   3.075   1.607
  696SOL     OW 2101   0.390   3.603   1.560
  696SOL    HW1 2102   0.299   3.644   1.558
  696SOL    HW2 2103   0.383   3.509   1.592
  697SOL     OW 2104   1.674   2.745   1.254
  697SOL    HW1 2105   1.647   2.656   1.217
  697SOL    HW2 2106   1.675   2.813   1.181
  698SOL     OW 2107   1.225   2.187   0.449
  698SOL    HW1 2108   1.290   2.113   0.438
  698SOL    HW2 2109   1.245   2.237   0.533
  699SOL     OW 2110   0.594   2.607   0.652
  699SOL    HW1 2111   0.644   2.692   0.633
  699SOL    HW2 2112   0.506   2.609   0.604
  700SOL     OW 2113   1.777   2.204   1.642
  700SOL    HW1 2114   1.760   2.235   1.548
  700SOL    HW2 2115   1.693   2.167   1.680
  701SOL     OW 2116   1.730   2.796   1.517
  701SOL    HW1 2117   1.768   2.887   1.532
  701SOL    HW2 2118   1.722   2.779   1.418
  702SOL     OW 2119   0.859   3.236   0.016
  702SOL    HW1 2120   0.813   3.251   0.104
  702SOL    HW2 2121   0.903   3.321  -0.014
  703SOL     OW 2122   0.661   3.652   0.953
  703SOL    HW1 2123   0.615   3.740   0.940
  703SOL    HW2 2124   0.760   3.664   0.946
  704SOL     OW 2125   0.859   2.818   0.861
  704SOL    HW1 2126   0.913   2.749   0.909
  704SOL    HW2 2127   0.827   2.887   0.927
  705SOL     OW 2128   1.083   2.846   0.087
  705SOL    HW1 2129   1.060   2.899   0.005
  705SOL    HW2 2130   1.164   2.790   0.068
  706SOL     OW 2131   1.861   3.431   0.851
  706SOL    HW1 2132   1.790   3.419   0.781
  706SOL    HW2 2133   1.862   3.352   0.911
  707SOL     OW 2134   0.221   3.176   1.844
  707SOL    HW1 2135   0.156   3.103   1.823
  707SOL    HW2 2136   0.225   3.190   1.942
  708SOL     OW 2137   0.079   3.102   0.653
  708SOL    HW1 2138   0.078   3.055   0.741
  708SOL    HW2 2139   0.161   3.074   0.602
  709SOL     OW 2140   0.672   3.253   1.624
  709SOL    HW1 2141   0.594   3.203   1.662
  709SOL    HW2 2142   0.669   3.348   1.655
  710SOL     OW 2143   1.824   2.054   1.227
  710SOL    HW1 2144   1.820   1.964   1.271
  710SOL    HW2 2145   1.827   2.043   1.128
  711SOL     OW 2146   0.428   2.286   0.520
  711SOL    HW1 2147   0.458   2.214   0.458
  711SOL    HW2 2148   0.389   2.246   0.603
  712SOL     OW 2149   1.705   3.349   1.104
  712SOL    HW1 2150   1.612   3.324   1.077
  712SOL    HW2 2151   1.731   3.299   1.186
  713SOL     OW 2152   0.317   2.409   1.280
  713SOL    HW1 2153   0.355   2.350   1.352
  713SOL    HW2 2154   0.357   2.383   1.192
  714SOL     OW 2155   0.812   3.448   0.687
  714SOL    HW1 2156   0.844   3.458   0.593
  714SOL    HW2 2157   0.733   3.386   0.689
  715SOL     OW 2158   1.424   2.076   1.112
  715SOL    HW1 2159   1.476   2.011   1.167
  715SOL    HW2 2160   1.375   2.139   1.173
  716SOL     OW 2161   1.001   1.896   1.154
  716SOL    HW1 2162   0.938   1.824   1.123
  716SOL    HW2 2163   1.094   1.860   1.154
  717SOL     OW 2164   0.770   3.192   0.301
  717SOL    HW1 2165   0.724   3.105   0.318
  717SOL    HW2 2166   0.861   3.189   0.342
  718SOL     OW 2167   0.618   3.429   1.284
  718SOL    HW1 2168   0.613   3.511   1.341
  718SOL    HW2 2169   0.707   3.426   1.239
  719SOL     OW 2170   1.352   1.914   0.168
  719SOL    HW1 2171   1.387   1.873   0.084
  719SOL    HW2 2172   1.262   1.876   0.188
  720SOL     OW 2173   1.300   2.315   0.691
  720SOL    HW1 2174   1.241   2.395   0.695
  720SOL    HW2 2175   1.315   2.280   0.784
  721SOL     OW 2176   1.593   2.083   0.882
  721SOL    HW1 2177   1.509   2.082   0.936
  721SOL    HW2 2178   1.595   2.166   0.826
  722SOL     OW 2179   0.039   2.939   0.300
  722SOL    HW1 2180   0.138   2.928   0.291
  722SOL    HW2 2181  -0.001   2.853   0.332
  723SOL     OW 2182   0.875   3.508   0.337
  723SOL    HW1 2183   0.798   3.473   0.283
  723SOL    HW2 2184   0.843   3.579   0.399
  724SOL     OW 2185   0.230   2.490   1.975
  724SOL    HW1 2186   0.137   2.488   2.012
  724SOL    HW2 2187   0.231   2.451   1.883
  725SOL     OW 2188   0.225   2.137   2.858
  725SOL    HW1 2189   0.260   2.120   2.950
  725SOL    HW2 2190   0.137   2.092   2.846
  726SOL     OW 2191   0.019   2.230   2.509
  726SOL    HW1 2192  -0.063   2.273   2.548
  726SOL    HW2 2193  -0.009   2.157   2.446
  727SOL     OW 2194   0.569   3.137   3.027
  727SOL    HW1 2195   0.476   3.130   2.990
  727SOL    HW2 2196   0.580   3.226   3.071
  728SOL     OW 2197   1.555   3.373   2.565
  728SOL    HW1 2198   1.498   3.357   2.646
  728SOL    HW2 2199   1.496   3.383   2.485
  729SOL     OW 2200   1.135   2.565   2.579
  729SOL    HW1 2201   1.192   2.643   2.554
  729SOL    HW2 2202   1.075   2.591   2.655
  730SOL     OW 2203   1.755   2.469   2.093
  730SOL    HW1 2204   1.743   2.456   1.994
  730SOL    HW2 2205   1.725   2.388   2.142
  731SOL     OW 2206   0.768   3.006   2.885
  731SOL    HW1 2207   0.690   3.023   2.945
  731SOL    HW2 2208   0.802   3.093   2.849
  732SOL     OW 2209   0.850   2.660   3.685
  732SOL    HW1 2210   0.846   2.736   3.750
  732SOL    HW2 2211   0.872   2.696   3.594
  733SOL     OW 2212   0.685   2.874   2.527
  733SOL    HW1 2213   0.754   2.858   2.597
  733SOL    HW2 2214   0.612   2.931   2.565
  734SOL     OW 2215   0.686   3.023   3.665
  734SOL    HW1 2216   0.746   3.102   3.679
  734SOL    HW2 2217   0.600   3.054   3.624
  735SOL     OW 2218   0.335   3.297   2.923
  735SOL    HW1 2219   0.257   3.266   2.870
  735SOL    HW2 2220   0.393   3.355   2.866
  736SOL     OW 2221   1.460   3.367   3.201
  736SOL    HW1 2222   1.484   3.461   3.227
  736SOL    HW2 2223   1.444   3.313   3.283
  737SOL     OW 2224   0.438   2.254   3.361
  737SOL    HW1 2225   0.520   2.198   3.370
  737SOL    HW2 2226   0.357   2.196   3.365
  738SOL     OW 2227   1.603   2.309   2.599
  738SOL    HW1 2228   1.529   2.355   2.549
  738SOL    HW2 2229   1.654   2.377   2.652
  739SOL     OW 2230   0.231   3.575   2.345
  739SOL    HW1 2231   0.265   3.652   2.399
  739SOL    HW2 2232   0.275   3.575   2.255
  740SOL     OW 2233   1.127   3.203   3.552
  740SOL    HW1 2234   1.174   3.203   3.640
  740SOL    HW2 2235   1.079   3.116   3.541
  741SOL     OW 2236   0.230   3.296   2.400
  741SOL    HW1 2237   0.204   3.392   2.400
  741SOL    HW2 2238   0.159   3.242   2.445
  742SOL     OW 2239   0.240   2.953   2.748
  742SOL    HW1 2240   0.254   2.869   2.800
  742SOL    HW2 2241   0.185   3.017   2.803
  743SOL     OW 2242   0.620   3.648   3.301
  743SOL    HW1 2243   0.528   3.631   3.336
  743SOL    HW2 2244   0.648   3.740   3.327
  744SOL     OW 2245   0.606   2.826   1.985
  744SOL    HW1 2246   0.613   2.910   1.931
  744SOL    HW2 2247   0.652   2.839   2.073
  745SOL     OW 2248   1.594   1.976   3.342
  745SOL    HW1 2249   1.576   2.043   3.270
  745SOL    HW2 2250   1.591   2.022   3.431
  746SOL     OW 2251   0.122   2.505   2.425
  746SOL    HW1 2252   0.077   2.417   2.442
  746SOL    HW2 2253   0.121   2.559   2.509
  747SOL     OW 2254   1.842   3.629   2.221
  747SOL    HW1 2255   1.896   3.600   2.301
  747SOL    HW2 2256   1.872   3.719   2.192
  748SOL     OW 2257   0.027   3.458   1.979
  748SOL    HW1 2258   0.008   3.362   2.000
  748SOL    HW2 2259  -0.006   3.516   2.054
  749SOL     OW 2260   1.689   2.784   2.474
  749SOL    HW1 2261   1.784   2.755   2.482
  749SOL    HW2 2262   1.681   2.849   2.399
  750SOL     OW 2263   1.641   2.970   2.294
  750SOL    HW1 2264   1.727   2.972   2.242
  750SOL    HW2 2265   1.655   3.017   2.382
  751SOL     OW 2266   0.113   2.599   3.459
  751SOL    HW1 2267   0.201   2.586   3.504
  751SOL    HW2 2268   0.100   2.696   3.437
  752SOL     OW 2269   0.613   3.227   2.588
  752SOL    HW1 2270   0.564   3.140   2.597
  752SOL    HW2 2271   0.590   3.270   2.501
  753SOL     OW 2272   1.293   3.090   3.285
  753SOL    HW1 2273   1.330   3.017   3.227
  753SOL    HW2 2274   1.345   3.095   3.370
  754SOL     OW 2275   0.809   1.866   2.364
  754SOL    HW1 2276   0.849   1.957   2.355
  754SOL    HW2 2277   0.709   1.874   2.370
  755SOL     OW 2278   0.197   2.838   3.126
  755SOL    HW1 2279   0.286   2.793   3.112
  755SOL    HW2 2280   0.124   2.773   3.107
  756SOL     OW 2281   1.525   2.861   2.052
  756SOL    HW1 2282   1.462   2.785   2.065
  756SOL    HW2 2283   1.573   2.879   2.138
  757SOL     OW 2284   1.187   3.654   3.478
  757SOL    HW1 2285   1.211   3.714   3.402
  757SOL    HW2 2286   1.194   3.559   3.448
  758SOL     OW 2287   0.317   2.113   3.663
  758SOL    HW1 2288   0.388   2.184   3.669
  758SOL    HW2 2289   0.229   2.152   3.691
  759SOL     OW 2290   1.466   3.279   2.815
  759SOL    HW1 2291   1.407   3.285   2.895
  759SOL    HW2 2292   1.451   3.191   2.769
  760SOL     OW 2293   1.667   3.576   2.434
  760SOL    HW1 2294   1.626   3.553   2.346
  760SOL    HW2 2295   1.649   3.502   2.499
  761SOL     OW 2296   0.598   2.591   2.132
  761SOL    HW1 2297   0.622   2.660   2.064
  761SOL    HW2 2298   0.520   2.624   2.186
  762SOL     OW 2299   1.281   2.207   2.806
  762SOL    HW1 2300   1.195   2.157   2.793
  762SOL    HW2 2301   1.343   2.153   2.862
  763SOL     OW 2302   1.576   3.524   2.169
  763SOL    HW1 2303   1.665   3.570   2.172
  763SOL    HW2 2304   1.555   3.500   2.074
  764SOL     OW 2305   0.807   2.467   3.327
  764SOL    HW1 2306   0.760   2.464   3.416
  764SOL    HW2 2307   0.756   2.412   3.261
  765SOL     OW 2308   1.394   2.331   3.536
  765SOL    HW1 2309   1.374   2.374   3.624
  765SOL    HW2 2310   1.472   2.269   3.545
  766SOL     OW 2311   0.973   2.752   3.434
  766SOL    HW1 2312   1.019   2.668   3.405
  766SOL    HW2 2313   0.917   2.786   3.359
  767SOL     OW 2314   0.991   2.272   3.104
  767SOL    HW1 2315   0.914   2.306   3.158
  767SOL    HW2 2316   0.957   2.221   3.025
  768SOL     OW 2317   1.041   2.563   2.291
  768SOL    HW1 2318   1.067   2.559   2.387
  768SOL    HW2 2319   0.956   2.512   2.277
  769SOL     OW 2320   0.076   2.673   2.651
  769SOL    HW1 2321   0.175   2.661   2.660
  769SOL    HW2 2322   0.052   2.768   2.672
  770SOL     OW 2323   0.130   3.683   3.433
  770SOL    HW1 2324   0.120   3.668   3.532
  770SOL    HW2 2325   0.044   3.719   3.397
  771SOL     OW 2326   0.865   2.210   2.057
  771SOL    HW1 2327   0.924   2.273   2.008
  771SOL    HW2 2328   0.884   2.116   2.028
  772SOL     OW 2329   1.719   2.447   3.693
  772SOL    HW1 2330   1.693   2.536   3.657
  772SOL    HW2 2331   1.717   2.379   3.620
  773SOL     OW 2332   1.362   3.006   2.407
  773SOL    HW1 2333   1.445   2.977   2.359
  773SOL    HW2 2334   1.313   3.073   2.351
  774SOL     OW 2335   0.550   2.058   2.747
  774SOL    HW1 2336   0.545   2.053   2.847
  774SOL    HW2 2337   0.552   2.154   2.718
  775SOL     OW 2338   1.008   3.318   2.339
  775SOL    HW1 2339   0.962   3.390   2.287
  775SOL    HW2 2340   1.004   3.338   2.437
  776SOL     OW 2341   0.351   3.663   2.715
  776SOL    HW1 2342   0.401   3.577   2.721
  776SOL    HW2 2343   0.416   3.740   2.712
  777SOL     OW 2344   1.795   2.928   2.735
  777SOL    HW1 2345   1.733   2.913   2.659
  777SOL    HW2 2346   1.743   2.939   2.820
  778SOL     OW 2347   1.227   3.412   3.368
  778SOL    HW1 2348   1.233   3.335   3.432
  778SOL    HW2 2349   1.175   3.386   3.288
  779SOL     OW 2350   0.321   2.805   2.104
  779SOL    HW1 2351   0.403   2.844   2.062
  779SOL    HW2 2352   0.294   2.723   2.055
  780SOL     OW 2353   1.458   2.597   2.590
  780SOL    HW1 2354   1.453   2.532   2.665
  780SOL    HW2 2355   1.538   2.656   2.603
  781SOL     OW 2356   0.461   3.128   3.589
  781SOL    HW1 2357   0.411   3.129   3.503
  781SOL    HW2 2358   0.398   3.110   3.665
  782SOL     OW 2359   1.111   3.638   2.099
  782SOL    HW1 2360   1.051   3.576   2.149
  782SOL    HW2 2361   1.142   3.594   2.014
  783SOL     OW 2362   0.202   2.147   3.360
  783SOL    HW1 2363   0.122   2.207   3.347
  783SOL    HW2 2364   0.192   2.098   3.446
  784SOL     OW 2365   1.632   3.239   1.943
  784SOL    HW1 2366   1.600   3.333   1.933
  784SOL    HW2 2367   1.556   3.176   1.931
  785SOL     OW 2368   0.464   3.605   2.185
  785SOL    HW1 2369   0.497   3.644   2.271
  785SOL    HW2 2370   0.540   3.598   2.120
  786SOL     OW 2371   1.400   1.969   2.288
  786SOL    HW1 2372   1.376   1.932   2.198
  786SOL    HW2 2373   1.499   1.985   2.292
  787SOL     OW 2374   0.249   3.647   3.103
  787SOL    HW1 2375   0.306   3.582   3.153
  787SOL    HW2 2376   0.233   3.614   3.010
  788SOL     OW 2377   0.940   3.560   2.766
  788SOL    HW1 2378   1.020   3.503   2.787
  788SOL    HW2 2379   0.891   3.520   2.689
  789SOL     OW 2380   0.382   2.562   2.342
  789SOL    HW1 2381   0.427   2.472   2.339
  789SOL    HW2 2382   0.288   2.551   2.375
  790SOL     OW 2383   1.547   2.084   3.591
  790SOL    HW1 2384   1.542   2.121   3.683
  790SOL    HW2 2385   1.475   2.015   3.579
  791SOL     OW 2386   0.614   1.984   1.979
  791SOL    HW1 2387   0.712   1.962   1.986
  791SOL    HW2 2388   0.583   1.967   1.886
  792SOL     OW 2389   0.781   2.126   3.611
  792SOL    HW1 2390   0.848   2.065   3.654
  792SOL    HW2 2391   0.708   2.145   3.676
  793SOL     OW 2392   0.888   3.376   3.057
  793SOL    HW1 2393   0.865   3.351   2.963
  793SOL    HW2 2394   0.949   3.307   3.096
  794SOL     OW 2395   1.351   2.452   3.295
  794SOL    HW1 2396   1.379   2.409   3.380
  794SOL    HW2 2397   1.376   2.548   3.296
  795SOL     OW 2398   0.803   3.264   2.786
  795SOL    HW1 2399   0.893   3.278   2.744
  795SOL    HW2 2400   0.732   3.266   2.715
  796SOL     OW 2401   0.922   2.365   2.761
  796SOL    HW1 2402   0.897   2.356   2.665
  796SOL    HW2 2403   0.970   2.283   2.792
  797SOL     OW 2404   0.539   1.926   2.374
  797SOL    HW1 2405   0.458   1.927   2.432
  797SOL    HW2 2406   0.542   2.009   2.319
  798SOL     OW 2407   1.434   3.050   1.903
  798SOL    HW1 2408   1.466   2.974   1.960
  798SOL    HW2 2409   1.342   3.077   1.933
  799SOL     OW 2410   0.297   1.897   2.033
  799SOL    HW1 2411   0.346   1.981   2.012
  799SOL    HW2 2412   0.359   1.832   2.078
  800SOL     OW 2413   0.935   2.098   2.342
  800SOL    HW1 2414   0.887   2.139   2.264
  800SOL    HW2 2415   1.034   2.096   2.323
  801SOL     OW 2416   1.076   2.545   3.326
  801SOL    HW1 2417   0.996   2.484   3.329
  801SOL    HW2 2418   1.157   2.492   3.302
  802SOL     OW 2419   1.227   3.432   2.655
  802SOL    HW1 2420   1.248   3.506   2.590
  802SOL    HW2 2421   1.295   3.432   2.728
  803SOL     OW 2422   0.459   3.014   2.603
  803SOL    HW1 2423   0.388   2.987   2.668
  803SOL    HW2 2424   0.433   2.986   2.510
  804SOL     OW 2425   1.271   3.659   2.453
  804SOL    HW1 2426   1.315   3.723   2.389
  804SOL    HW2 2427   1.221   3.711   2.523
  805SOL     OW 2428   1.032   2.411   1.878
  805SOL    HW1 2429   0.991   2.493   1.839
  805SOL    HW2 2430   1.096   2.437   1.951
  806SOL     OW 2431   0.078   2.418   3.248
  806SOL    HW1 2432   0.170   2.417   3.207
  806SOL    HW2 2433   0.072   2.492   3.315
  807SOL     OW 2434   0.561   2.084   3.009
  807SOL    HW1 2435   0.599   2.000   3.046
  807SOL    HW2 2436   0.473   2.103   3.053
  808SOL     OW 2437   0.866   2.316   2.504
  808SOL    HW1 2438   0.834   2.388   2.442
  808SOL    HW2 2439   0.890   2.235   2.451
  809SOL     OW 2440   1.017   1.901   2.615
  809SOL    HW1 2441   0.945   1.906   2.546
  809SOL    HW2 2442   0.993   1.832   2.684
  810SOL     OW 2443   1.429   3.035   2.729
  810SOL    HW1 2444   1.374   2.951   2.722
  810SOL    HW2 2445   1.455   3.064   2.637
  811SOL     OW 2446   1.466   2.452   2.854
  811SOL    HW1 2447   1.436   2.357   2.861
  811SOL    HW2 2448   1.539   2.468   2.920
  812SOL     OW 2449   1.857   2.695   2.239
  812SOL    HW1 2450   1.899   2.631   2.303
  812SOL    HW2 2451   1.819   2.644   2.161
  813SOL     OW 2452   0.488   3.247   2.036
  813SOL    HW1 2453   0.401   3.232   2.083
  813SOL    HW2 2454   0.471   3.273   1.941
  814SOL     OW 2455   1.664   3.142   2.519
  814SOL    HW1 2456   1.763   3.150   2.533
  814SOL    HW2 2457   1.619   3.226   2.550
  815SOL     OW 2458   1.390   2.437   1.940
  815SOL    HW1 2459   1.336   2.416   2.021
  815SOL    HW2 2460   1.481   2.396   1.949
  816SOL     OW 2461   0.527   2.118   2.190
  816SOL    HW1 2462   0.554   2.059   2.115
  816SOL    HW2 2463   0.527   2.213   2.159
  817SOL     OW 2464   1.754   3.085   3.450
  817SOL    HW1 2465   1.845   3.046   3.437
  817SOL    HW2 2466   1.762   3.181   3.474
  818SOL     OW 2467   1.064   3.209   3.202
  818SOL    HW1 2468   0.984   3.186   3.257
  818SOL    HW2 2469   1.147   3.183   3.251
  819SOL     OW 2470   1.592   3.491   3.487
  819SOL    HW1 2471   1.619   3.525   3.397
  819SOL    HW2 2472   1.671   3.453   3.533
  820SOL     OW 2473   1.111   3.057   2.962
  820SOL    HW1 2474   1.071   3.101   3.043
  820SOL    HW2 2475   1.070   3.094   2.879
  821SOL     OW 2476   1.638   2.961   2.941
  821SOL    HW1 2477   1.643   3.042   3.000
  821SOL    HW2 2478   1.552   2.963   2.890
  822SOL     OW 2479   0.915   1.951   3.264
  822SOL    HW1 2480   0.940   1.931   3.169
  822SOL    HW2 2481   0.987   2.007   3.306
  823SOL     OW 2482   0.980   2.978   3.581
  823SOL    HW1 2483   0.881   2.984   3.591
  823SOL    HW2 2484   1.003   2.898   3.525
  824SOL     OW 2485   0.705   2.912   2.230
  824SOL    HW1 2486   0.691   2.919   2.329
  824SOL    HW2 2487   0.789   2.861   2.212
  825SOL     OW 2488   0.410   2.675   3.113
  825SOL    HW1 2489   0.496   2.687   3.163
  825SOL    HW2 2490   0.368   2.588   3.140
  826SOL     OW 2491   1.274   2.248   3.124
  826SOL    HW1 2492   1.295   2.322   3.188
  826SOL    HW2 2493   1.185   2.265   3.081
  827SOL     OW 2494   0.064   3.426   3.193
  827SOL    HW1 2495   0.018   3.508   3.159
  827SOL    HW2 2496   0.162   3.445   3.202
  828SOL     OW 2497   0.367   2.962   2.363
  828SOL    HW1 2498   0.360   3.045   2.307
  828SOL    HW2 2499   0.371   2.882   2.303
  829SOL     OW 2500   0.566   2.399   2.727
  829SOL    HW1 2501   0.578   2.465   2.653
  829SOL    HW2 2502   0.612   2.433   2.810
  830SOL     OW 2503   1.252   3.210   2.250
  830SOL    HW1 2504   1.302   3.287   2.290
  830SOL    HW2 2505   1.157   3.212   2.282
  831SOL     OW 2506   1.272   3.307   3.004
  831SOL    HW1 2507   1.319   3.320   3.091
  831SOL    HW2 2508   1.206   3.233   3.013
  832SOL     OW 2509   1.582   2.501   2.334
  832SOL    HW1 2510   1.551   2.562   2.407
  832SOL    HW2 2511   1.632   2.553   2.265
  833SOL     OW 2512   0.354   3.372   3.191
  833SOL    HW1 2513   0.333   3.328   3.104
  833SOL    HW2 2514   0.451   3.398   3.194
  834SOL     OW 2515   0.402   2.613   3.460
  834SOL    HW1 2516   0.470   2.668   3.413
  834SOL    HW2 2517   0.442   2.525   3.487
  835SOL     OW 2518   1.587   2.641   3.532
  835SOL    HW1 2519   1.495   2.679   3.527
  835SOL    HW2 2520   1.647   2.688   3.467
  836SOL     OW 2521   1.013   1.967   3.632
  836SOL    HW1 2522   1.019   2.052   3.580
  836SOL    HW2 2523   1.045   1.891   3.575
  837SOL     OW 2524   0.504   1.912   3.602
  837SOL    HW1 2525   0.462   1.855   3.532
  837SOL    HW2 2526   0.438   1.981   3.634
  838SOL     OW 2527   0.573   2.732   2.891
  838SOL    HW1 2528   0.617   2.821   2.882
  838SOL    HW2 2529   0.510   2.732   2.968
  839SOL     OW 2530   1.360   2.724   2.907
  839SOL    HW1 2531   1.285   2.724   2.841
  839SOL    HW2 2532   1.397   2.632   2.916
  840SOL     OW 2533   1.209   2.387   2.137
  840SOL    HW1 2534   1.222   2.303   2.191
  840SOL    HW2 2535   1.180   2.461   2.197
  841SOL     OW 2536   0.307   2.075   3.093
  841SOL    HW1 2537   0.284   2.112   3.183
  841SOL    HW2 2538   0.277   1.980   3.087
  842SOL     OW 2539   0.037   3.172   3.144
  842SOL    HW1 2540   0.090   3.123   3.212
  842SOL    HW2 2541   0.059   3.270   3.149
  843SOL     OW 2542   0.732   2.496   2.926
  843SOL    HW1 2543   0.791   2.470   2.850
  843SOL    HW2 2544   0.704   2.592   2.915
  844SOL     OW 2545   1.728   2.797   3.716
  844SOL    HW1 2546   1.682   2.790   3.627
  844SOL    HW2 2547   1.666   2.841   3.782
  845SOL     OW 2548   0.307   1.925   2.480
  845SOL    HW1 2549   0.296   2.019   2.513
  845SOL    HW2 2550   0.302   1.862   2.557
  846SOL     OW 2551   1.622   2.229   2.236
  846SOL    HW1 2552   1.624   2.153   2.300
  846SOL    HW2 2553   1.574   2.306   2.276
  847SOL     OW 2554   1.023   2.628   2.828
  847SOL    HW1 2555   1.038   2.649   2.924
  847SOL    HW2 2556   0.993   2.533   2.819
  848SOL     OW 2557   0.980   3.435   3.562
  848SOL    HW1 2558   0.960   3.479   3.474
  848SOL    HW2 2559   1.019   3.344   3.546
  849SOL     OW 2560   1.859   3.380   3.467
  849SOL    HW1 2561   1.873   3.407   3.372
  849SOL    HW2 2562   1.942   3.402   3.520
  850SOL     OW 2563   0.350   2.760   3.666
  850SOL    HW1 2564   0.426   2.804   3.714
  850SOL    HW2 2565   0.385   2.713   3.584
  851SOL     OW 2566   1.540   2.136   1.987
  851SOL    HW1 2567   1.479   2.061   2.010
  851SOL    HW2 2568   1.562   2.188   2.070
  852SOL     OW 2569   1.303   2.700   1.904
  852SOL    HW1 2570   1.337   2.607   1.919
  852SOL    HW2 2571   1.321   2.727   1.809
  853SOL     OW 2572   1.068   3.195   2.711
  853SOL    HW1 2573   1.075   3.111   2.656
  853SOL    HW2 2574   1.130   3.264   2.675
  854SOL     OW 2575   0.319   2.672   2.811
  854SOL    HW1 2576   0.412   2.708   2.816
  854SOL    HW2 2577   0.313   2.587   2.863
  855SOL     OW 2578   0.339   2.371   2.868
  855SOL    HW1 2579   0.287   2.288   2.851
  855SOL    HW2 2580   0.416   2.376   2.804
  856SOL     OW 2581   1.138   2.242   3.540
  856SOL    HW1 2582   1.093   2.305   3.604
  856SOL    HW2 2583   1.231   2.273   3.523
  857SOL     OW 2584   1.160   2.069   3.339
  857SOL    HW1 2585   1.160   2.133   3.416
  857SOL    HW2 2586   1.188   2.117   3.256
  858SOL     OW 2587   0.008   3.188   2.062
  858SOL    HW1 2588  -0.085   3.209   2.031
  858SOL    HW2 2589   0.018   3.089   2.075
  859SOL     OW 2590   0.088   3.663   2.789
  859SOL    HW1 2591   0.046   3.577   2.762
  859SOL    HW2 2592   0.182   3.666   2.755
  860SOL     OW 2593   0.504   3.430   2.772
  860SOL    HW1 2594   0.570   3.504   2.781
  860SOL    HW2 2595   0.548   3.351   2.730
  861SOL     OW 2596   1.002   2.658   3.100
  861SOL    HW1 2597   1.043   2.626   3.186
  861SOL    HW2 2598   0.906   2.631   3.097
  862SOL     OW 2599   0.040   2.406   2.976
  862SOL    HW1 2600   0.125   2.373   2.935
  862SOL    HW2 2601   0.053   2.421   3.074
  863SOL     OW 2602   0.189   2.382   3.584
  863SOL    HW1 2603   0.248   2.342   3.514
  863SOL    HW2 2604   0.131   2.453   3.543
  864SOL     OW 2605   1.369   2.812   3.522
  864SOL    HW1 2606   1.408   2.901   3.542
  864SOL    HW2 2607   1.379   2.792   3.425
  865SOL     OW 2608   0.815   2.434   2.187
  865SOL    HW1 2609   0.822   2.345   2.141
  865SOL    HW2 2610   0.721   2.468   2.179
  866SOL     OW 2611   1.657   2.466   3.068
  866SOL    HW1 2612   1.619   2.397   3.130
  866SOL    HW2 2613   1.739   2.430   3.024
  867SOL     OW 2614   0.252   3.426   3.606
  867SOL    HW1 2615   0.222   3.483   3.682
  867SOL    HW2 2616   0.245   3.329   3.632
  868SOL     OW 2617   0.671   2.326   3.131
  868SOL    HW1 2618   0.637   2.237   3.101
  868SOL    HW2 2619   0.697   2.380   3.051
  869SOL     OW 2620   0.930   3.540   3.327
  869SOL    HW1 2621   0.906   3.522   3.232
  869SOL    HW2 2622   0.960   3.634   3.337
  870SOL     OW 2623   0.473   2.362   2.053
  870SOL    HW1 2624   0.534   2.442   2.057
  870SOL    HW2 2625   0.378   2.393   2.060
  871SOL     OW 2626   0.159   2.999   3.328
  871SOL    HW1 2627   0.181   2.938   3.404
  871SOL    HW2 2628   0.169   2.950   3.242
  872SOL     OW 2629   1.347   2.921   3.096
  872SOL    HW1 2630   1.371   2.858   3.022
  872SOL    HW2 2631   1.257   2.961   3.078
  873SOL     OW 2632   1.302   2.717   2.171
  873SOL    HW1 2633   1.216   2.686   2.213
  873SOL    HW2 2634   1.298   2.703   2.072
  874SOL     OW 2635   1.759   3.609   3.016
  874SOL    HW1 2636   1.820   3.639   2.943
  874SOL    HW2 2637   1.721   3.520   2.994
  875SOL     OW 2638   1.252   3.593   2.990
  875SOL    HW1 2639   1.336   3.598   2.936
  875SOL    HW2 2640   1.229   3.497   3.008
  876SOL     OW 2641   0.083   3.120   2.884
  876SOL    HW1 2642   0.078   3.119   2.984
  876SOL    HW2 2643   0.000   3.079   2.846
  877SOL     OW 2644   0.688   3.524   3.578
  877SOL    HW1 2645   0.632   3.605   3.587
  877SOL    HW2 2646   0.740   3.528   3.492
  878SOL     OW 2647   1.726   1.997   2.385
  878SOL    HW1 2648   1.799   1.980   2.318
  878SOL    HW2 2649   1.695   1.910   2.423
  879SOL     OW 2650   1.388   3.435   2.339
  879SOL    HW1 2651   1.455   3.447   2.265
  879SOL    HW2 2652   1.348   3.524   2.362
  880SOL     OW 2653   0.130   3.656   3.713
  880SOL    HW1 2654   0.089   3.582   3.766
  880SOL    HW2 2655   0.194   3.707   3.771
  881SOL     OW 2656   1.280   2.789   2.534
  881SOL    HW1 2657   1.340   2.708   2.536
  881SOL    HW2 2658   1.320   2.858   2.474
  882SOL     OW 2659   0.830   3.135   3.284
  882SOL    HW1 2660   0.825   3.168   3.379
  882SOL    HW2 2661   0.744   3.154   3.238
  883SOL     OW 2662   0.672   3.478   2.016
  883SOL    HW1 2663   0.681   3.488   1.917
  883SOL    HW2 2664   0.632   3.389   2.037
  884SOL     OW 2665   1.650   3.582   3.256
  884SOL    HW1 2666   1.703   3.592   3.172
  884SOL    HW2 2667   1.623   3.672   3.290
  885SOL     OW 2668   1.841   2.037   2.825
  885SOL    HW1 2669   1.880   1.952   2.789
  885SOL    HW2 2670   1.743   2.039   2.806
  886SOL     OW 2671   0.263   2.188   2.582
  886SOL    HW1 2672   0.184   2.239   2.548
  886SOL    HW2 2673   0.254   2.173   2.680
  887SOL     OW 2674   1.194   3.474   1.893
  887SOL    HW1 2675   1.200   3.381   1.930
  887SOL    HW2 2676   1.135   3.474   1.813
  888SOL     OW 2677   0.822   2.864   3.234
  888SOL    HW1 2678   0.862   2.863   3.142
  888SOL    HW2 2679   0.832   2.956   3.274
  889SOL     OW 2680   0.916   2.772   2.153
  889SOL    HW1 2681   0.979   2.810   2.085
  889SOL    HW2 2682   0.956   2.689   2.192
  890SOL     OW 2683   1.504   3.469   1.906
  890SOL    HW1 2684   1.412   3.506   1.913
  890SOL    HW2 2685   1.542   3.489   1.816
  891SOL     OW 2686   0.372   3.150   3.352
  891SOL    HW1 2687   0.359   3.243   3.318
  891SOL    HW2 2688   0.288   3.098   3.339
  892SOL     OW 2689   1.614   3.154   3.151
  892SOL    HW1 2690   1.674   3.157   3.231
  892SOL    HW2 2691   1.539   3.218   3.164
  893SOL     OW 2692   1.039   2.960   2.558
  893SOL    HW1 2693   0.969   2.913   2.612
  893SOL    HW2 2694   1.098   2.892   2.515
  894SOL     OW 2695   1.014   2.098   2.833
  894SOL    HW1 2696   1.006   2.062   2.740
  894SOL    HW2 2697   1.012   2.022   2.898
  895SOL     OW 2698   0.590   3.349   2.353
  895SOL    HW1 2699   0.632   3.291   2.283
  895SOL    HW2 2700   0.546   3.428   2.309
  896SOL     OW 2701   1.709   2.247   3.243
  896SOL    HW1 2702   1.782   2.316   3.247
  896SOL    HW2 2703   1.737   2.172   3.184
  897SOL     OW 2704   0.255   3.210   2.152
  897SOL    HW1 2705   0.159   3.211   2.125
  897SOL    HW2 2706   0.267   3.263   2.236
  898SOL     OW 2707   0.105   2.875   3.588
  898SOL    HW1 2708   0.028   2.842   3.642
  898SOL    HW2 2709   0.190   2.845   3.630
  899SOL     OW 2710   0.672   2.065   3.351
  899SOL    HW1 2711   0.762   2.049   3.311
  899SOL    HW2 2712   0.680   2.070   3.450
  900SOL     OW 2713   0.075   2.207   1.895
  900SOL    HW1 2714  -0.017   2.179   1.866
  900SOL    HW2 2715   0.106   2.284   1.839
  901SOL     OW 2716   1.440   2.718   3.260
  901SOL    HW1 2717   1.383   2.770   3.197
  901SOL    HW2 2718   1.536   2.730   3.236
  902SOL     OW 2719   0.072   2.028   2.180
  902SOL    HW1 2720   0.055   2.111   2.126
  902SOL    HW2 2721   0.162   1.991   2.158
  903SOL     OW 2722   1.183   3.197   1.981
  903SOL    HW1 2723   1.084   3.186   1.983
  903SOL    HW2 2724   1.217   3.212   2.074
  904SOL     OW 2725   0.613   2.704   3.293
  904SOL    HW1 2726   0.669   2.785   3.276
  904SOL    HW2 2727   0.672   2.624   3.296
  905SOL     OW 2728   1.493   3.629   2.821
  905SOL    HW1 2729   1.526   3.693   2.752
  905SOL    HW2 2730   1.559   3.623   2.896
  906SOL     OW 2731   0.716   2.427   3.570
  906SOL    HW1 2732   0.735   2.492   3.644
  906SOL    HW2 2733   0.776   2.347   3.579
  907SOL     OW 2734   1.450   3.082   3.495
  907SOL    HW1 2735   1.441   3.072   3.594
  907SOL    HW2 2736   1.546   3.075   3.469
  908SOL     OW 2737   0.390   3.603   3.422
  908SOL    HW1 2738   0.299   3.644   3.420
  908SOL    HW2 2739   0.383   3.509   3.454
  909SOL     OW 2740   1.674   2.745   3.116
  909SOL    HW1 2741   1.647   2.656   3.079
  909SOL    HW2 2742   1.675   2.813   3.043
  910SOL     OW 2743   1.225   2.187   2.311
  910SOL    HW1 2744   1.290   2.113   2.300
  910SOL    HW2 2745   1.245   2.237   2.395
  911SOL     OW 2746   0.594   2.607   2.514
  911SOL    HW1 2747   0.644   2.692   2.495
  911SOL    HW2 2748   0.506   2.609   2.466
  912SOL     OW 2749   1.777   2.204   3.504
  912SOL    HW1 2750   1.760   2.235   3.410
  912SOL    HW2 2751   1.693   2.167   3.542
  913SOL     OW 2752   1.730   2.796   3.379
  913SOL    HW1 2753   1.768   2.887   3.394
  913SOL    HW2 2754   1.722   2.779   3.280
  914SOL     OW 2755   0.859   3.236   1.878
  914SOL    HW1 2756   0.813   3.251   1.966
  914SOL    HW2 2757   0.903   3.321   1.848
  915SOL     OW 2758   0.661   3.652   2.815
  915SOL    HW1 2759   0.615   3.740   2.802
  915SOL    HW2 2760   0.760   3.664   2.808
  916SOL     OW 2761   0.859   2.818   2.723
  916SOL    HW1 2762   0.913   2.749   2.771
  916SOL    HW2 2763   0.827   2.887   2.789
  917SOL     OW 2764   1.083   2.846   1.949
  917SOL    HW1 2765   1.060   2.899   1.867
  917SOL    HW2 2766   1.164   2.790   1.930
  918SOL     OW 2767   1.861   3.431   2.713
  918SOL    HW1 2768   1.790   3.419   2.643
  918SOL    HW2 2769   1.862   3.352   2.773
  919SOL     OW 2770   0.221   3.176   3.706
  919SOL    HW1 2771   0.156   3.103   3.685
  919SOL    HW2 2772   0.225   3.190   3.804
  920SOL     OW 2773   0.079   3.102   2.515
  920SOL    HW1 2774   0.078   3.055   2.603
  920SOL    HW2 2775   0.161   3.074   2.464
  921SOL     OW 2776   0.672   3.253   3.486
  921SOL    HW1 2777   0.594   3.203   3.524
  921SOL    HW2 2778   0.669   3.348   3.517
  922SOL     OW 2779   1.824   2.054   3.089
  922SOL    HW1 2780   1.820   1.964   3.133
  922SOL    HW2 2781   1.827   2.043   2.990
  923SOL     OW 2782   0.428   2.286   2.382
  923SOL    HW1 2783   0.458   2.214   2.320
  923SOL    HW2 2784   0.389   2.246   2.465
  924SOL     OW 2785   1.705   3.349   2.966
  924SOL    HW1 2786   1.612   3.324   2.939
  924SOL    HW2 2787   1.731   3.299   3.048
  925SOL     OW 2788   0.317   2.409   3.142
  925SOL    HW1 2789   0.355   2.350   3.214
  925SOL    HW2 2790   0.357   2.383   3.054
  926SOL     OW 2791   0.812   3.448   2.549
  926SOL    HW1 2792   0.844   3.458   2.455
  926SOL    HW2 2793   0.733   3.386   2.551
  927SOL     OW 2794   1.424   2.076   2.974
  927SOL    HW1 2795   1.476   2.011   3.029
  927SOL    HW2 2796   1.375   2.139   3.035
  928SOL     OW 2797   1.001   1.896   3.016
  928SOL    HW1 2798   0.938   1.824   2.985
  928SOL    HW2 2799   1.094   1.860   3.016
  929SOL     OW 2800   0.770   3.192   2.163
  929SOL    HW1 2801   0.724   3.105   2.180
  929SOL    HW2 2802   0.861   3.189   2.204
  930SOL     OW 2803   0.618   3.429   3.146
  930SOL    HW1 2804   0.613   3.511   3.203
  930SOL    HW2 2805   0.707   3.426   3.101
  931SOL     OW 2806   1.352   1.914   2.030
  931SOL    HW1 2807   1.387   1.873   1.946
  931SOL    HW2 2808   1.262   1.876   2.050
  932SOL     OW 2809   1.300   2.315   2.553
  932SOL    HW1 2810   1.241   2.395   2.557
  932SOL    HW2 2811   1.315   2.280   2.646
  933SOL     OW 2812   1.593   2.083   2.744
  933SOL    HW1 2813   1.509   2.082   2.798
  933SOL    HW2 2814   1.595   2.166   2.688
  934SOL     OW 2815   0.039   2.939   2.162
  934SOL    HW1 2816   0.138   2.928   2.153
  934SOL    HW2 2817  -0.001   2.853   2.194
  935SOL     OW 2818   0.875   3.508   2.199
  935SOL    HW1 2819   0.798   3.473   2.145
  935SOL    HW2 2820   0.843   3.579   2.261
  936SOL     OW 2821   0.230   2.490   3.837
  936SOL    HW1 2822   0.137   2.488   3.874
  936SOL    HW2 2823   0.231   2.451   3.745
  937SOL     OW 2824   0.019   2.230   4.371
  937SOL    HW1 2825  -0.063   2.273   4.410
  937SOL    HW2 2826  -0.009   2.157   4.308
  938SOL     OW 2827   1.755   2.469   3.955
  938SOL    HW1 2828   1.743   2.456   3.856
  938SOL    HW2 2829   1.725   2.388   4.004
  939SOL     OW 2830   0.685   2.874   4.389
  939SOL    HW1 2831   0.754   2.858   4.459
  939SOL    HW2 2832   0.612   2.931   4.427
  940SOL     OW 2833   1.603   2.309   4.461
  940SOL    HW1 2834   1.529   2.355   4.411
  940SOL    HW2 2835   1.654   2.377   4.514
  941SOL     OW 2836   0.231   3.575   4.207
  941SOL    HW1 2837   0.265   3.652   4.261
  941SOL    HW2 2838   0.275   3.575   4.117
  942SOL     OW 2839   0.230   3.296   4.262
  942SOL    HW1 2840   0.204   3.392   4.262
  942SOL    HW2 2841   0.159   3.242   4.307
  943SOL     OW 2842   0.606   2.826   3.847
  943SOL    HW1 2843   0.613   2.910   3.793
  943SOL    HW2 2844   0.652   2.839   3.935
  944SOL     OW 2845   0.122   2.505   4.287
  944SOL    HW1 2846   0.077   2.417   4.304
  944SOL    HW2 2847   0.121   2.559   4.371
  945SOL     OW 2848   1.842   3.629   4.083
  945SOL    HW1 2849   1.896   3.600   4.163
  945SOL    HW2 2850   1.872   3.719   4.054
  946SOL     OW 2851   0.027   3.458   3.841
  946SOL    HW1 2852   0.008   3.362   3.862
  946SOL    HW2 2853  -0.006   3.516   3.916
  947SOL     OW 2854   1.689   2.784   4.336
  947SOL    HW1 2855   1.784   2.755   4.344
  947SOL    HW2 2856   1.681   2.849   4.261
  948SOL     OW 2857   1.641   2.970   4.156
  948SOL    HW1 2858   1.727   2.972   4.104
  948SOL    HW2 2859   1.655   3.017   4.244
  949SOL     OW 2860   0.613   3.227   4.450
  949SOL    HW1 2861   0.564   3.140   4.459
  949SOL    HW2 2862   0.590   3.270   4.363
  950SOL     OW 2863   0.809   1.866   4.226
  950SOL    HW1 2864   0.849   1.957   4.217
  950SOL    HW2 2865   0.709   1.874   4.232
  951SOL     OW 2866   1.525   2.861   3.914
  951SOL    HW1 2867   1.462   2.785   3.927
  951SOL    HW2 2868   1.573   2.879   4.000
  952SOL     OW 2869   1.667   3.576   4.296
  952SOL    HW1 2870   1.626   3.553   4.208
  952SOL    HW2 2871   1.649   3.502   4.361
  953SOL     OW 2872   0.598   2.591   3.994
  953SOL    HW1 2873   0.622   2.660   3.926
  953SOL    HW2 2874   0.520   2.624   4.048
  954SOL     OW 2875   1.281   2.207   4.668
  954SOL    HW1 2876   1.195   2.157   4.655
  954SOL    HW2 2877   1.343   2.153   4.724
  955SOL     OW 2878   1.576   3.524   4.031
  955SOL    HW1 2879   1.665   3.570   4.034
  955SOL    HW2 2880   1.555   3.500   3.936
  956SOL     OW 2881   1.041   2.563   4.153
  956SOL    HW1 2882   1.067   2.559   4.249
  956SOL    HW2 2883   0.956   2.512   4.139
  957SOL     OW 2884   0.076   2.673   4.513
  957SOL    HW1 2885   0.175   2.661   4.522
  957SOL    HW2 2886   0.052   2.768   4.534
  958SOL     OW 2887   0.865   2.210   3.919
  958SOL    HW1 2888   0.924   2.273   3.870
  958SOL    HW2 2889   0.884   2.116   3.890
  959SOL     OW 2890   1.362   3.006   4.269
  959SOL    HW1 2891   1.445   2.977   4.221
  959SOL    HW2 2892   1.313   3.073   4.213
  960SOL     OW 2893   1.008   3.318   4.201
  960SOL    HW1 2894   0.962   3.390   4.149
  960SOL    HW2 2895   1.004   3.338   4.299
  961SOL     OW 2896   0.351   3.663   4.577
  961SOL    HW1 2897   0.401   3.577   4.583
  961SOL    HW2 2898   0.416   3.740   4.574
  962SOL     OW 2899   1.795   2.928   4.597
  962SOL    HW1 2900   1.733   2.913   4.521
  962SOL    HW2 2901   1.743   2.939   4.682
  963SOL     OW 2902   0.321   2.805   3.966
  963SOL    HW1 2903   0.403   2.844   3.924
  963SOL    HW2 2904   0.294   2.723   3.917
  964SOL     OW 2905   1.111   3.638   3.961
  964SOL    HW1 2906   1.051   3.576   4.011
  964SOL    HW2 2907   1.142   3.594   3.876
  965SOL     OW 2908   1.632   3.239   3.805
  965SOL    HW1 2909   1.600   3.333   3.795
  965SOL    HW2 2910   1.556   3.176   3.793
  966SOL     OW 2911   0.464   3.605   4.047
  966SOL    HW1 2912   0.497   3.644   4.133
  966SOL    HW2 2913   0.540   3.598   3.982
  967SOL     OW 2914   1.400   1.969   4.150
  967SOL    HW1 2915   1.376   1.932   4.060
  967SOL    HW2 2916   1.499   1.985   4.154
  968SOL     OW 2917   0.940   3.560   4.628
  968SOL    HW1 2918   1.020   3.503   4.649
  968SOL    HW2 2919   0.891   3.520   4.551
  969SOL     OW 2920   0.382   2.562   4.204
  969SOL    HW1 2921   0.427   2.472   4.201
  969SOL    HW2 2922   0.288   2.551   4.237
  970SOL     OW 2923   0.614   1.984   3.841
  970SOL    HW1 2924   0.712   1.962   3.848
  970SOL    HW2 2925   0.583   1.967   3.748
  971SOL     OW 2926   0.539   1.926   4.236
  971SOL    HW1 2927   0.458   1.927   4.294
  971SOL    HW2 2928   0.542   2.009   4.181
  972SOL     OW 2929   1.434   3.050   3.765
  972SOL    HW1 2930   1.466   2.974   3.822
  972SOL    HW2 2931   1.342   3.077   3.795
  973SOL     OW 2932   0.297   1.897   3.895
  973SOL    HW1 2933   0.346   1.981   3.874
  973SOL    HW2 2934   0.359   1.832   3.940
  974SOL     OW 2935   0.935   2.098   4.204
  974SOL    HW1 2936   0.887   2.139   4.126
  974SOL    HW2 2937   1.034   2.096   4.185
  975SOL     OW 2938   0.459   3.014   4.465
  975SOL    HW1 2939   0.388   2.987   4.530
  975SOL    HW2 2940   0.433   2.986   4.372
  976SOL     OW 2941   1.271   3.659   4.315
  976SOL    HW1 2942   1.315   3.723   4.251
  976SOL    HW2 2943   1.221   3.711   4.385
  977SOL     OW 2944   1.032   2.411   3.740
  977SOL    HW1 2945   0.991   2.493   3.701
  977SOL    HW2 2946   1.096   2.437   3.813
  978SOL     OW 2947   0.866   2.316   4.366
  978SOL    HW1 2948   0.834   2.388   4.304
  978SOL    HW2 2949   0.890   2.235   4.313
  979SOL     OW 2950   1.857   2.695   4.101
  979SOL    HW1 2951   1.899   2.631   4.165
  979SOL    HW2 2952   1.819   2.644   4.023
  980SOL     OW 2953   0.488   3.247   3.898
  980SOL    HW1 2954   0.401   3.232   3.945
  980SOL    HW2 2955   0.471   3.273   3.803
  981SOL     OW 2956   1.664   3.142   4.381
  981SOL    HW1 2957   1.763   3.150   4.395
  981SOL    HW2 2958   1.619   3.226   4.412
  982SOL     OW 2959   1.390   2.437   3.802
  982SOL    HW1 2960   1.336   2.416   3.883
  982SOL    HW2 2961   1.481   2.396   3.811
  983SOL     OW 2962   0.527   2.118   4.052
  983SOL    HW1 2963   0.554   2.059   3.977
  983SOL    HW2 2964   0.527   2.213   4.021
  984SOL     OW 2965   0.705   2.912   4.092
  984SOL    HW1 2966   0.691   2.919   4.191
  984SOL    HW2 2967   0.789   2.861   4.074
  985SOL     OW 2968   0.367   2.962   4.225
  985SOL    HW1 2969   0.360   3.045   4.169
  985SOL    HW2 2970   0.371   2.882   4.165
  986SOL     OW 2971   1.252   3.210   4.112
  986SOL    HW1 2972   1.302   3.287   4.152
  986SOL    HW2 2973   1.157   3.212   4.144
  987SOL     OW 2974   1.582   2.501   4.196
  987SOL    HW1 2975   1.551   2.562   4.269
  987SOL    HW2 2976   1.632   2.553   4.127
  988SOL     OW 2977   1.209   2.387   3.999
  988SOL    HW1 2978   1.222   2.303   4.053
  988SOL    HW2 2979   1.180   2.461   4.059
  989SOL     OW 2980   0.307   1.925   4.342
  989SOL    HW1 2981   0.296   2.019   4.375
  989SOL    HW2 2982   0.302   1.862   4.419
  990SOL     OW 2983   1.622   2.229   4.098
  990SOL    HW1 2984   1.624   2.153   4.162
  990SOL    HW2 2985   1.574   2.306   4.138
  991SOL     OW 2986   1.540   2.136   3.849
  991SOL    HW1 2987   1.479   2.061   3.872
  991SOL    HW2 2988   1.562   2.188   3.932
  992SOL     OW 2989   1.303   2.700   3.766
  992SOL    HW1 2990   1.337   2.607   3.781
  992SOL    HW2 2991   1.321   2.727   3.671
  993SOL     OW 2992   0.008   3.188   3.924
  993SOL    HW1 2993  -0.085   3.209   3.893
  993SOL    HW2 2994   0.018   3.089   3.937
  994SOL     OW 2995   0.815   2.434   4.049
  994SOL    HW1 2996   0.822   2.345   4.003
  994SOL    HW2 2997   0.721   2.468   4.041
  995SOL     OW 2998   0.473   2.362   3.915
  995SOL    HW1 2999   0.534   2.442   3.919
  995SOL    HW2 3000   0.378   2.393   3.922
  996SOL     OW 3001   1.302   2.717   4.033
  996SOL    HW1 3002   1.216   2.686   4.075
  996SOL    HW2 3003   1.298   2.703   3.934
  997SOL     OW 3004   1.726   1.997   4.247
  997SOL    HW1 3005   1.799   1.980   4.180
  997SOL    HW2 3006   1.695   1.910   4.285
  998SOL     OW 3007   1.388   3.435   4.201
  998SOL    HW1 3008   1.455   3.447   4.127
  998SOL    HW2 3009   1.348   3.524   4.224
  999SOL     OW 3010   0.672   3.478   3.878
  999SOL    HW1 3011   0.681   3.488   3.779
  999SOL    HW2 3012   0.632   3.389   3.899
 1000SOL     OW 3013   1.194   3.474   3.755
 1000SOL    HW1 3014   1.200   3.381   3.792
 1000SOL    HW2 3015   1.135   3.474   3.675
 1001SOL     OW 3016   0.916   2.772   4.015
 1001SOL    HW1 3017   0.979   2.810   3.947
 1001SOL    HW2 3018   0.956   2.689   4.054
 1002SOL     OW 3019   1.504   3.469   3.768
 1002SOL    HW1 3020   1.412   3.506   3.775
 1002SOL    HW2 3021   1.542   3.489   3.678
 1003SOL     OW 3022   0.590   3.349   4.215
 1003SOL    HW1 3023   0.632   3.291   4.145
 1003SOL    HW2 3024   0.546   3.428   4.171
 1004SOL     OW 3025   0.255   3.210   4.014
 1004SOL    HW1 3026   0.159   3.211   3.987
 1004SOL    HW2 3027   0.267   3.263   4.098
 1005SOL     OW 3028   0.075   2.207   3.757
 1005SOL    HW1 3029  -0.017   2.179   3.728
 1005SOL    HW2 3030   0.106   2.284   3.701
 1006SOL     OW 3031   0.072   2.028   4.042
 1006SOL    HW1 3032   0.055   2.111   3.988
 1006SOL    HW2 3033   0.162   1.991   4.020
 1007SOL     OW 3034   1.183   3.197   3.843
 1007SOL    HW1 3035   1.084   3.186   3.845
 1007SOL    HW2 3036   1.217   3.212   3.936
 1008SOL     OW 3037   1.225   2.187   4.173
 1008SOL    HW1 3038   1.290   2.113   4.162
 1008SOL    HW2 3039   1.245   2.237   4.257
 1009SOL     OW 3040   0.594   2.607   4.376
 1009SOL    HW1 3041   0.644   2.692   4.357
 1009SOL    HW2 3042   0.506   2.609   4.328
 1010SOL     OW 3043   0.859   3.236   3.740
 1010SOL    HW1 3044   0.813   3.251   3.828
 1010SOL    HW2 3045   0.903   3.321   3.710
 1011SOL     OW 3046   0.661   3.652   4.677
 1011SOL    HW1 3047   0.615   3.740   4.664
 1011SOL    HW2 3048   0.760   3.664   4.670
 1012SOL     OW 3049   0.859   2.818   4.585
 1012SOL    HW1 3050   0.913   2.749   4.633
 1012SOL    HW2 3051   0.827   2.887   4.651
 1013SOL     OW 3052   1.083   2.846   3.811
 1013SOL    HW1 3053   1.060   2.899   3.729
 1013SOL    HW2 3054   1.164   2.790   3.792
 1014SOL     OW 3055   0.079   3.102   4.377
 1014SOL    HW1 3056   0.078   3.055   4.465
 1014SOL    HW2 3057   0.161   3.074   4.326
 1015SOL     OW 3058   0.428   2.286   4.244
 1015SOL    HW1 3059   0.458   2.214   4.182
 1015SOL    HW2 3060   0.389   2.246   4.327
 1016SOL     OW 3061   0.812   3.448   4.411
 1016SOL    HW1 3062   0.844   3.458   4.317
 1016SOL    HW2 3063   0.733   3.386   4.413
 1017SOL     OW 3064   0.770   3.192   4.025
 1017SOL    HW1 3065   0.724   3.105   4.042
 1017SOL    HW2 3066   0.861   3.189   4.066
 1018SOL     OW 3067   1.352   1.914   3.892
 1018SOL    HW1 3068   1.387   1.873   3.808
 1018SOL    HW2 3069   1.262   1.876   3.912
 1019SOL     OW 3070   1.300   2.315   4.415
 1019SOL    HW1 3071   1.241   2.395   4.419
 1019SOL    HW2 3072   1.315   2.280   4.508
 1020SOL     OW 3073   0.039   2.939   4.024
 1020SOL    HW1 3074   0.138   2.928   4.015
 1020SOL    HW2 3075  -0.001   2.853   4.056
 1021SOL     OW 3076   0.875   3.508   4.061
 1021SOL    HW1 3077   0.798   3.473   4.007
 1021SOL    HW2 3078   0.843   3.579   4.123
 1022SOL     OW 3079   0.230   4.352   0.113
 1022SOL    HW1 3080   0.137   4.350   0.150
 1022SOL    HW2 3081   0.231   4.313   0.021
 1023SOL     OW 3082   0.225   3.999   0.996
 1023SOL    HW1 3083   0.260   3.982   1.088
 1023SOL    HW2 3084   0.137   3.954   0.984
 1024SOL     OW 3085   0.019   4.092   0.647
 1024SOL    HW1 3086  -0.063   4.135   0.686
 1024SOL    HW2 3087  -0.009   4.019   0.584
 1025SOL     OW 3088   1.755   4.331   0.231
 1025SOL    HW1 3089   1.743   4.318   0.132
 1025SOL    HW2 3090   1.725   4.250   0.280
 1026SOL     OW 3091   0.850   4.522   1.823
 1026SOL    HW1 3092   0.846   4.598   1.888
 1026SOL    HW2 3093   0.872   4.558   1.732
 1027SOL     OW 3094   0.685   4.736   0.665
 1027SOL    HW1 3095   0.754   4.720   0.735
 1027SOL    HW2 3096   0.612   4.793   0.703
 1028SOL     OW 3097   0.438   4.116   1.499
 1028SOL    HW1 3098   0.520   4.060   1.508
 1028SOL    HW2 3099   0.357   4.058   1.503
 1029SOL     OW 3100   1.603   4.171   0.737
 1029SOL    HW1 3101   1.529   4.217   0.687
 1029SOL    HW2 3102   1.654   4.239   0.790
 1030SOL     OW 3103   1.594   3.838   1.480
 1030SOL    HW1 3104   1.576   3.905   1.408
 1030SOL    HW2 3105   1.591   3.884   1.569
 1031SOL     OW 3106   0.122   4.367   0.563
 1031SOL    HW1 3107   0.077   4.279   0.580
 1031SOL    HW2 3108   0.121   4.421   0.647
 1032SOL     OW 3109   0.113   4.461   1.597
 1032SOL    HW1 3110   0.201   4.448   1.642
 1032SOL    HW2 3111   0.100   4.558   1.575
 1033SOL     OW 3112   0.809   3.728   0.502
 1033SOL    HW1 3113   0.849   3.819   0.493
 1033SOL    HW2 3114   0.709   3.736   0.508
 1034SOL     OW 3115   0.317   3.975   1.801
 1034SOL    HW1 3116   0.388   4.046   1.807
 1034SOL    HW2 3117   0.229   4.014   1.829
 1035SOL     OW 3118   1.281   4.069   0.944
 1035SOL    HW1 3119   1.195   4.019   0.931
 1035SOL    HW2 3120   1.343   4.015   1.000
 1036SOL     OW 3121   0.807   4.329   1.465
 1036SOL    HW1 3122   0.760   4.326   1.554
 1036SOL    HW2 3123   0.756   4.274   1.399
 1037SOL     OW 3124   1.394   4.193   1.674
 1037SOL    HW1 3125   1.374   4.236   1.762
 1037SOL    HW2 3126   1.472   4.131   1.683
 1038SOL     OW 3127   0.991   4.134   1.242
 1038SOL    HW1 3128   0.914   4.168   1.296
 1038SOL    HW2 3129   0.957   4.083   1.163
 1039SOL     OW 3130   1.041   4.425   0.429
 1039SOL    HW1 3131   1.067   4.421   0.525
 1039SOL    HW2 3132   0.956   4.374   0.415
 1040SOL     OW 3133   0.076   4.535   0.789
 1040SOL    HW1 3134   0.175   4.523   0.798
 1040SOL    HW2 3135   0.052   4.630   0.810
 1041SOL     OW 3136   0.865   4.072   0.195
 1041SOL    HW1 3137   0.924   4.135   0.146
 1041SOL    HW2 3138   0.884   3.978   0.166
 1042SOL     OW 3139   1.719   4.309   1.831
 1042SOL    HW1 3140   1.693   4.398   1.795
 1042SOL    HW2 3141   1.717   4.241   1.758
 1043SOL     OW 3142   0.550   3.920   0.885
 1043SOL    HW1 3143   0.545   3.915   0.985
 1043SOL    HW2 3144   0.552   4.016   0.856
 1044SOL     OW 3145   1.458   4.459   0.728
 1044SOL    HW1 3146   1.453   4.394   0.803
 1044SOL    HW2 3147   1.538   4.518   0.741
 1045SOL     OW 3148   0.202   4.009   1.498
 1045SOL    HW1 3149   0.122   4.069   1.485
 1045SOL    HW2 3150   0.192   3.960   1.584
 1046SOL     OW 3151   1.400   3.831   0.426
 1046SOL    HW1 3152   1.376   3.794   0.336
 1046SOL    HW2 3153   1.499   3.847   0.430
 1047SOL     OW 3154   0.382   4.424   0.480
 1047SOL    HW1 3155   0.427   4.334   0.477
 1047SOL    HW2 3156   0.288   4.413   0.513
 1048SOL     OW 3157   1.547   3.946   1.729
 1048SOL    HW1 3158   1.542   3.983   1.821
 1048SOL    HW2 3159   1.475   3.877   1.717
 1049SOL     OW 3160   0.781   3.988   1.749
 1049SOL    HW1 3161   0.848   3.927   1.792
 1049SOL    HW2 3162   0.708   4.007   1.814
 1050SOL     OW 3163   1.351   4.314   1.433
 1050SOL    HW1 3164   1.379   4.271   1.518
 1050SOL    HW2 3165   1.376   4.410   1.434
 1051SOL     OW 3166   0.922   4.227   0.899
 1051SOL    HW1 3167   0.897   4.218   0.803
 1051SOL    HW2 3168   0.970   4.145   0.930
 1052SOL     OW 3169   0.539   3.788   0.512
 1052SOL    HW1 3170   0.458   3.789   0.570
 1052SOL    HW2 3171   0.542   3.871   0.457
 1053SOL     OW 3172   0.935   3.960   0.480
 1053SOL    HW1 3173   0.887   4.001   0.402
 1053SOL    HW2 3174   1.034   3.958   0.461
 1054SOL     OW 3175   1.076   4.407   1.464
 1054SOL    HW1 3176   0.996   4.346   1.467
 1054SOL    HW2 3177   1.157   4.354   1.440
 1055SOL     OW 3178   1.032   4.273   0.016
 1055SOL    HW1 3179   0.991   4.355  -0.023
 1055SOL    HW2 3180   1.096   4.299   0.089
 1056SOL     OW 3181   0.078   4.280   1.386
 1056SOL    HW1 3182   0.170   4.279   1.345
 1056SOL    HW2 3183   0.072   4.354   1.453
 1057SOL     OW 3184   0.561   3.946   1.147
 1057SOL    HW1 3185   0.599   3.862   1.184
 1057SOL    HW2 3186   0.473   3.965   1.191
 1058SOL     OW 3187   0.866   4.178   0.642
 1058SOL    HW1 3188   0.834   4.250   0.580
 1058SOL    HW2 3189   0.890   4.097   0.589
 1059SOL     OW 3190   1.017   3.763   0.753
 1059SOL    HW1 3191   0.945   3.768   0.684
 1059SOL    HW2 3192   0.993   3.694   0.822
 1060SOL     OW 3193   1.466   4.314   0.992
 1060SOL    HW1 3194   1.436   4.219   0.999
 1060SOL    HW2 3195   1.539   4.330   1.058
 1061SOL     OW 3196   1.390   4.299   0.078
 1061SOL    HW1 3197   1.336   4.278   0.159
 1061SOL    HW2 3198   1.481   4.258   0.087
 1062SOL     OW 3199   0.527   3.980   0.328
 1062SOL    HW1 3200   0.554   3.921   0.253
 1062SOL    HW2 3201   0.527   4.075   0.297
 1063SOL     OW 3202   0.915   3.813   1.402
 1063SOL    HW1 3203   0.940   3.793   1.307
 1063SOL    HW2 3204   0.987   3.869   1.444
 1064SOL     OW 3205   0.705   4.774   0.368
 1064SOL    HW1 3206   0.691   4.781   0.467
 1064SOL    HW2 3207   0.789   4.723   0.350
 1065SOL     OW 3208   0.410   4.537   1.251
 1065SOL    HW1 3209   0.496   4.549   1.301
 1065SOL    HW2 3210   0.368   4.450   1.278
 1066SOL     OW 3211   1.274   4.110   1.262
 1066SOL    HW1 3212   1.295   4.184   1.326
 1066SOL    HW2 3213   1.185   4.127   1.219
 1067SOL     OW 3214   0.566   4.261   0.865
 1067SOL    HW1 3215   0.578   4.327   0.791
 1067SOL    HW2 3216   0.612   4.295   0.948
 1068SOL     OW 3217   1.582   4.363   0.472
 1068SOL    HW1 3218   1.551   4.424   0.545
 1068SOL    HW2 3219   1.632   4.415   0.403
 1069SOL     OW 3220   1.587   4.503   1.670
 1069SOL    HW1 3221   1.495   4.541   1.665
 1069SOL    HW2 3222   1.647   4.550   1.605
 1070SOL     OW 3223   1.013   3.829   1.770
 1070SOL    HW1 3224   1.019   3.914   1.718
 1070SOL    HW2 3225   1.045   3.753   1.713
 1071SOL     OW 3226   0.504   3.774   1.740
 1071SOL    HW1 3227   0.462   3.717   1.670
 1071SOL    HW2 3228   0.438   3.843   1.772
 1072SOL     OW 3229   1.360   4.586   1.045
 1072SOL    HW1 3230   1.285   4.586   0.979
 1072SOL    HW2 3231   1.397   4.494   1.054
 1073SOL     OW 3232   1.209   4.249   0.275
 1073SOL    HW1 3233   1.222   4.165   0.329
 1073SOL    HW2 3234   1.180   4.323   0.335
 1074SOL     OW 3235   0.307   3.937   1.231
 1074SOL    HW1 3236   0.284   3.974   1.321
 1074SOL    HW2 3237   0.277   3.842   1.225
 1075SOL     OW 3238   0.732   4.358   1.064
 1075SOL    HW1 3239   0.791   4.332   0.988
 1075SOL    HW2 3240   0.704   4.454   1.053
 1076SOL     OW 3241   1.728   4.659   1.854
 1076SOL    HW1 3242   1.682   4.652   1.765
 1076SOL    HW2 3243   1.666   4.703   1.920
 1077SOL     OW 3244   0.307   3.787   0.618
 1077SOL    HW1 3245   0.296   3.881   0.651
 1077SOL    HW2 3246   0.302   3.724   0.695
 1078SOL     OW 3247   1.622   4.091   0.374
 1078SOL    HW1 3248   1.624   4.015   0.438
 1078SOL    HW2 3249   1.574   4.168   0.414
 1079SOL     OW 3250   1.540   3.998   0.125
 1079SOL    HW1 3251   1.479   3.923   0.148
 1079SOL    HW2 3252   1.562   4.050   0.208
 1080SOL     OW 3253   0.319   4.534   0.949
 1080SOL    HW1 3254   0.412   4.570   0.954
 1080SOL    HW2 3255   0.313   4.449   1.001
 1081SOL     OW 3256   0.339   4.233   1.006
 1081SOL    HW1 3257   0.287   4.150   0.989
 1081SOL    HW2 3258   0.416   4.238   0.942
 1082SOL     OW 3259   1.138   4.104   1.678
 1082SOL    HW1 3260   1.093   4.167   1.742
 1082SOL    HW2 3261   1.231   4.135   1.661
 1083SOL     OW 3262   1.160   3.931   1.477
 1083SOL    HW1 3263   1.160   3.995   1.554
 1083SOL    HW2 3264   1.188   3.979   1.394
 1084SOL     OW 3265   0.040   4.268   1.114
 1084SOL    HW1 3266   0.125   4.235   1.073
 1084SOL    HW2 3267   0.053   4.283   1.212
 1085SOL     OW 3268   0.189   4.244   1.722
 1085SOL    HW1 3269   0.248   4.204   1.652
 1085SOL    HW2 3270   0.131   4.315   1.681
 1086SOL     OW 3271   0.815   4.296   0.325
 1086SOL    HW1 3272   0.822   4.207   0.279
 1086SOL    HW2 3273   0.721   4.330   0.317
 1087SOL     OW 3274   1.657   4.328   1.206
 1087SOL    HW1 3275   1.619   4.259   1.268
 1087SOL    HW2 3276   1.739   4.292   1.162
 1088SOL     OW 3277   0.671   4.188   1.269
 1088SOL    HW1 3278   0.637   4.099   1.239
 1088SOL    HW2 3279   0.697   4.242   1.189
 1089SOL     OW 3280   0.473   4.224   0.191
 1089SOL    HW1 3281   0.534   4.304   0.195
 1089SOL    HW2 3282   0.378   4.255   0.198
 1090SOL     OW 3283   0.903   3.810   0.133
 1090SOL    HW1 3284   0.954   3.811   0.047
 1090SOL    HW2 3285   0.959   3.768   0.204
 1091SOL     OW 3286   1.726   3.859   0.523
 1091SOL    HW1 3287   1.799   3.842   0.456
 1091SOL    HW2 3288   1.695   3.772   0.561
 1092SOL     OW 3289   1.280   4.651   0.672
 1092SOL    HW1 3290   1.340   4.570   0.674
 1092SOL    HW2 3291   1.320   4.720   0.612
 1093SOL     OW 3292   1.841   3.899   0.963
 1093SOL    HW1 3293   1.880   3.814   0.927
 1093SOL    HW2 3294   1.743   3.901   0.944
 1094SOL     OW 3295   0.263   4.050   0.720
 1094SOL    HW1 3296   0.184   4.101   0.686
 1094SOL    HW2 3297   0.254   4.035   0.818
 1095SOL     OW 3298   1.039   4.822   0.696
 1095SOL    HW1 3299   0.969   4.775   0.750
 1095SOL    HW2 3300   1.098   4.754   0.653
 1096SOL     OW 3301   1.014   3.960   0.971
 1096SOL    HW1 3302   1.006   3.924   0.878
 1096SOL    HW2 3303   1.012   3.884   1.036
 1097SOL     OW 3304   1.709   4.109   1.381
 1097SOL    HW1 3305   1.782   4.178   1.385
 1097SOL    HW2 3306   1.737   4.034   1.322
 1098SOL     OW 3307   0.672   3.927   1.489
 1098SOL    HW1 3308   0.762   3.911   1.449
 1098SOL    HW2 3309   0.680   3.932   1.588
 1099SOL     OW 3310   0.075   4.069   0.033
 1099SOL    HW1 3311  -0.017   4.041   0.004
 1099SOL    HW2 3312   0.106   4.146  -0.023
 1100SOL     OW 3313   0.072   3.890   0.318
 1100SOL    HW1 3314   0.055   3.973   0.264
 1100SOL    HW2 3315   0.162   3.853   0.296
 1101SOL     OW 3316   0.716   4.289   1.708
 1101SOL    HW1 3317   0.735   4.354   1.782
 1101SOL    HW2 3318   0.776   4.209   1.717
 1102SOL     OW 3319   1.225   4.049   0.449
 1102SOL    HW1 3320   1.290   3.975   0.438
 1102SOL    HW2 3321   1.245   4.099   0.533
 1103SOL     OW 3322   1.777   4.066   1.642
 1103SOL    HW1 3323   1.760   4.097   1.548
 1103SOL    HW2 3324   1.693   4.029   1.680
 1104SOL     OW 3325   0.859   4.680   0.861
 1104SOL    HW1 3326   0.913   4.611   0.909
 1104SOL    HW2 3327   0.827   4.749   0.927
 1105SOL     OW 3328   1.083   4.708   0.087
 1105SOL    HW1 3329   1.060   4.761   0.005
 1105SOL    HW2 3330   1.164   4.652   0.068
 1106SOL     OW 3331   1.824   3.916   1.227
 1106SOL    HW1 3332   1.820   3.826   1.271
 1106SOL    HW2 3333   1.827   3.905   1.128
 1107SOL     OW 3334   0.428   4.148   0.520
 1107SOL    HW1 3335   0.458   4.076   0.458
 1107SOL    HW2 3336   0.389   4.108   0.603
 1108SOL     OW 3337   0.317   4.271   1.280
 1108SOL    HW1 3338   0.355   4.212   1.352
 1108SOL    HW2 3339   0.357   4.245   1.192
 1109SOL     OW 3340   1.424   3.938   1.112
 1109SOL    HW1 3341   1.476   3.873   1.167
 1109SOL    HW2 3342   1.375   4.001   1.173
 1110SOL     OW 3343   1.001   3.758   1.154
 1110SOL    HW1 3344   0.938   3.686   1.123
 1110SOL    HW2 3345   1.094   3.722   1.154
 1111SOL     OW 3346   1.352   3.776   0.168
 1111SOL    HW1 3347   1.387   3.735   0.084
 1111SOL    HW2 3348   1.262   3.738   0.188
 1112SOL     OW 3349   1.300   4.177   0.691
 1112SOL    HW1 3350   1.241   4.257   0.695
 1112SOL    HW2 3351   1.315   4.142   0.784
 1113SOL     OW 3352   1.593   3.945   0.882
 1113SOL    HW1 3353   1.509   3.944   0.936
 1113SOL    HW2 3354   1.595   4.028   0.826
 1114SOL     OW 3355   0.230   4.352   1.975
 1114SOL    HW1 3356   0.137   4.350   2.012
 1114SOL    HW2 3357   0.231   4.313   1.883
 1115SOL     OW 3358   0.225   3.999   2.858
 1115SOL    HW1 3359   0.260   3.982   2.950
 1115SOL    HW2 3360   0.137   3.954   2.846
 1116SOL     OW 3361   0.019   4.092   2.509
 1116SOL    HW1 3362  -0.063   4.135   2.548
 1116SOL    HW2 3363  -0.009   4.019   2.446
 1117SOL     OW 3364   1.755   4.331   2.093
 1117SOL    HW1 3365   1.743   4.318   1.994
 1117SOL    HW2 3366   1.725   4.250   2.142
 1118SOL     OW 3367   0.850   4.522   3.685
 1118SOL    HW1 3368   0.846   4.598   3.750
 1118SOL    HW2 3369   0.872   4.558   3.594
 1119SOL     OW 3370   0.685   4.736   2.527
 1119SOL    HW1 3371   0.754   4.720   2.597
 1119SOL    HW2 3372   0.612   4.793   2.565
 1120SOL     OW 3373   0.438   4.116   3.361
 1120SOL    HW1 3374   0.520   4.060   3.370
 1120SOL    HW2 3375   0.357   4.058   3.365
 1121SOL     OW 3376   1.603   4.171   2.599
 1121SOL    HW1 3377   1.529   4.217   2.549
 1121SOL    HW2 3378   1.654   4.239   2.652
 1122SOL     OW 3379   1.594   3.838   3.342
 1122SOL    HW1 3380   1.576   3.905   3.270
 1122SOL    HW2 3381   1.591   3.884   3.431
 1123SOL     OW 3382   0.122   4.367   2.425
 1123SOL    HW1 3383   0.077   4.279   2.442
 1123SOL    HW2 3384   0.121   4.421   2.509
 1124SOL     OW 3385   0.113   4.461   3.459
 1124SOL    HW1 3386   0.201   4.448   3.504
 1124SOL    HW2 3387   0.100   4.558   3.437
 1125SOL     OW 3388   0.809   3.728   2.364
 1125SOL    HW1 3389   0.849   3.819   2.355
 1125SOL    HW2 3390   0.709   3.736   2.370
 1126SOL     OW 3391   0.317   3.975   3.663
 1126SOL    HW1 3392   0.388   4.046   3.669
 1126SOL    HW2 3393   0.229   4.014   3.691
 1127SOL     OW 3394   1.281   4.069   2.806
 1127SOL    HW1 3395   1.195   4.019   2.793
 1127SOL    HW2 3396   1.343   4.015   2.862
 1128SOL     OW 3397   0.807   4.329   3.327
 1128SOL    HW1 3398   0.760   4.326   3.416
 1128SOL    HW2 3399   0.756   4.274   3.261
 1129SOL     OW 3400   1.394   4.193   3.536
 1129SOL    HW1 3401   1.374   4.236   3.624
 1129SOL    HW2 3402   1.472   4.131   3.545
 1130SOL     OW 3403   0.991   4.134   3.104
 1130SOL    HW1 3404   0.914   4.168   3.158
 1130SOL    HW2 3405   0.957   4.083   3.025
 1131SOL     OW 3406   1.041   4.425   2.291
 1131SOL    HW1 3407   1.067   4.421   2.387
 1131SOL    HW2 3408   0.956   4.374   2.277
 1132SOL     OW 3409   0.076   4.535   2.651
 1132SOL    HW1 3410   0.175   4.523   2.660
 1132SOL    HW2 3411   0.052   4.630   2.672
 1133SOL     OW 3412   0.865   4.072   2.057
 1133SOL    HW1 3413   0.924   4.135   2.008
 1133SOL    HW2 3414   0.884   3.978   2.028
 1134SOL     OW 3415   1.719   4.309   3.693
 1134SOL    HW1 3416   1.693   4.398   3.657
 1134SOL    HW2 3417   1.717   4.241   3.620
 1135SOL     OW 3418   0.550   3.920   2.747
 1135SOL    HW1 3419   0.545   3.915   2.847
 1135SOL    HW2 3420   0.552   4.016   2.718
 1136SOL     OW 3421   1.458   4.459   2.590
 1136SOL    HW1 3422   1.453   4.394   2.665
 1136SOL    HW2 3423   1.538   4.518   2.603
 1137SOL     OW 3424   0.202   4.009   3.360
 1137SOL    HW1 3425   0.122   4.069   3.347
 1137SOL    HW2 3426   0.192   3.960   3.446
 1138SOL     OW 3427   1.400   3.831   2.288
 1138SOL    HW1 3428   1.376   3.794   2.198
 1138SOL    HW2 3429   1.499   3.847   2.292
 1139SOL     OW 3430   0.382   4.424   2.342
 1139SOL    HW1 3431   0.427   4.334   2.339
 1139SOL    HW2 3432   0.288   4.413   2.375
 1140SOL     OW 3433   1.547   3.946   3.591
 1140SOL    HW1 3434   1.542   3.983   3.683
 1140SOL    HW2 3435   1.475   3.877   3.579
 1141SOL     OW 3436   0.614   3.846   1.979
 1141SOL    HW1 3437   0.712   3.824   1.986
 1141SOL    HW2 3438   0.583   3.829   1.886
 1142SOL     OW 3439   0.781   3.988   3.611
 1142SOL    HW1 3440   0.848   3.927   3.654
 1142SOL    HW2 3441   0.708   4.007   3.676
 1143SOL     OW 3442   1.351   4.314   3.295
 1143SOL    HW1 3443   1.379   4.271   3.380
 1143SOL    HW2 3444   1.376   4.410   3.296
 1144SOL     OW 3445   0.922   4.227   2.761
 1144SOL    HW1 3446   0.897   4.218   2.665
 1144SOL    HW2 3447   0.970   4.145   2.792
 1145SOL     OW 3448   0.539   3.788   2.374
 1145SOL    HW1 3449   0.458   3.789   2.432
 1145SOL    HW2 3450   0.542   3.871   2.319
 1146SOL     OW 3451   0.297   3.759   2.033
 1146SOL    HW1 3452   0.346   3.843   2.012
 1146SOL    HW2 3453   0.359   3.694   2.078
 1147SOL     OW 3454   0.935   3.960   2.342
 1147SOL    HW1 3455   0.887   4.001   2.264
 1147SOL    HW2 3456   1.034   3.958   2.323
 1148SOL     OW 3457   1.076   4.407   3.326
 1148SOL    HW1 3458   0.996   4.346   3.329
 1148SOL    HW2 3459   1.157   4.354   3.302
 1149SOL     OW 3460   1.032   4.273   1.878
 1149SOL    HW1 3461   0.991   4.355   1.839
 1149SOL    HW2 3462   1.096   4.299   1.951
 1150SOL     OW 3463   0.078   4.280   3.248
 1150SOL    HW1 3464   0.170   4.279   3.207
 1150SOL    HW2 3465   0.072   4.354   3.315
 1151SOL     OW 3466   0.561   3.946   3.009
 1151SOL    HW1 3467   0.599   3.862   3.046
 1151SOL    HW2 3468   0.473   3.965   3.053
 1152SOL     OW 3469   0.866   4.178   2.504
 1152SOL    HW1 3470   0.834   4.250   2.442
 1152SOL    HW2 3471   0.890   4.097   2.451
 1153SOL     OW 3472   1.017   3.763   2.615
 1153SOL    HW1 3473   0.945   3.768   2.546
 1153SOL    HW2 3474   0.993   3.694   2.684
 1154SOL     OW 3475   1.466   4.314   2.854
 1154SOL    HW1 3476   1.436   4.219   2.861
 1154SOL    HW2 3477   1.539   4.330   2.920
 1155SOL     OW 3478   1.390   4.299   1.940
 1155SOL    HW1 3479   1.336   4.278   2.021
 1155SOL    HW2 3480   1.481   4.258   1.949
 1156SOL     OW 3481   0.527   3.980   2.190
 1156SOL    HW1 3482   0.554   3.921   2.115
 1156SOL    HW2 3483   0.527   4.075   2.159
 1157SOL     OW 3484   0.915   3.813   3.264
 1157SOL    HW1 3485   0.940   3.793   3.169
 1157SOL    HW2 3486   0.987   3.869   3.306
 1158SOL     OW 3487   0.705   4.774   2.230
 1158SOL    HW1 3488   0.691   4.781   2.329
 1158SOL    HW2 3489   0.789   4.723   2.212
 1159SOL     OW 3490   0.410   4.537   3.113
 1159SOL    HW1 3491   0.496   4.549   3.163
 1159SOL    HW2 3492   0.368   4.450   3.140
 1160SOL     OW 3493   1.274   4.110   3.124
 1160SOL    HW1 3494   1.295   4.184   3.188
 1160SOL    HW2 3495   1.185   4.127   3.081
 1161SOL     OW 3496   0.566   4.261   2.727
 1161SOL    HW1 3497   0.578   4.327   2.653
 1161SOL    HW2 3498   0.612   4.295   2.810
 1162SOL     OW 3499   1.582   4.363   2.334
 1162SOL    HW1 3500   1.551   4.424   2.407
 1162SOL    HW2 3501   1.632   4.415   2.265
 1163SOL     OW 3502   1.587   4.503   3.532
 1163SOL    HW1 3503   1.495   4.541   3.527
 1163SOL    HW2 3504   1.647   4.550   3.467
 1164SOL     OW 3505   1.013   3.829   3.632
 1164SOL    HW1 3506   1.019   3.914   3.580
 1164SOL    HW2 3507   1.045   3.753   3.575
 1165SOL     OW 3508   0.504   3.774   3.602
 1165SOL    HW1 3509   0.462   3.717   3.532
 1165SOL    HW2 3510   0.438   3.843   3.634
 1166SOL     OW 3511   1.360   4.586   2.907
 1166SOL    HW1 3512   1.285   4.586   2.841
 1166SOL    HW2 3513   1.397   4.494   2.916
 1167SOL     OW 3514   1.209   4.249   2.137
 1167SOL    HW1 3515   1.222   4.165   2.191
 1167SOL    HW2 3516   1.180   4.323   2.197
 1168SOL     OW 3517   0.307   3.937   3.093
 1168SOL    HW1 3518   0.284   3.974   3.183
 1168SOL    HW2 3519   0.277   3.842   3.087
 1169SOL     OW 3520   0.732   4.358   2.926
 1169SOL    HW1 3521   0.791   4.332   2.850
 1169SOL    HW2 3522   0.704   4.454   2.915
 1170SOL     OW 3523   1.728   4.659   3.716
 1170SOL    HW1 3524   1.682   4.652   3.627
 1170SOL    HW2 3525   1.666   4.703   3.782
 1171SOL     OW 3526   0.307   3.787   2.480
 1171SOL    HW1 3527   0.296   3.881   2.513
 1171SOL    HW2 3528   0.302   3.724   2.557
 1172SOL     OW 3529   1.622   4.091   2.236
 1172SOL    HW1 3530   1.624   4.015   2.300
 1172SOL    HW2 3531   1.574   4.168   2.276
 1173SOL     OW 3532   1.540   3.998   1.987
 1173SOL    HW1 3533   1.479   3.923   2.010
 1173SOL    HW2 3534   1.562   4.050   2.070
 1174SOL     OW 3535   0.319   4.534   2.811
 1174SOL    HW1 3536   0.412   4.570   2.816
 1174SOL    HW2 3537   0.313   4.449   2.863
 1175SOL     OW 3538   0.339   4.233   2.868
 1175SOL    HW1 3539   0.287   4.150   2.851
 1175SOL    HW2 3540   0.416   4.238   2.804
 1176SOL     OW 3541   1.138   4.104   3.540
 1176SOL    HW1 3542   1.093   4.167   3.604
 1176SOL    HW2 3543   1.231   4.135   3.523
 1177SOL     OW 3544   1.160   3.931   3.339
 1177SOL    HW1 3545   1.160   3.995   3.416
 1177SOL    HW2 3546   1.188   3.979   3.256
 1178SOL     OW 3547   0.040   4.268   2.976
 1178SOL    HW1 3548   0.125   4.235   2.935
 1178SOL    HW2 3549   0.053   4.283   3.074
 1179SOL     OW 3550   0.189   4.244   3.584
 1179SOL    HW1 3551   0.248   4.204   3.514
 1179SOL    HW2 3552   0.131   4.315   3.543
 1180SOL     OW 3553   0.815   4.296   2.187
 1180SOL    HW1 3554   0.822   4.207   2.141
 1180SOL    HW2 3555   0.721   4.330   2.179
 1181SOL     OW 3556   1.657   4.328   3.068
 1181SOL    HW1 3557   1.619   4.259   3.130
 1181SOL    HW2 3558   1.739   4.292   3.024
 1182SOL     OW 3559   0.671   4.188   3.131
 1182SOL    HW1 3560   0.637   4.099   3.101
 1182SOL    HW2 3561   0.697   4.242   3.051
 1183SOL     OW 3562   0.473   4.224   2.053
 1183SOL    HW1 3563   0.534   4.304   2.057
 1183SOL    HW2 3564   0.378   4.255   2.060
 1184SOL     OW 3565   1.726   3.859   2.385
 1184SOL    HW1 3566   1.799   3.842   2.318
 1184SOL    HW2 3567   1.695   3.772   2.423
 1185SOL     OW 3568   1.280   4.651   2.534
 1185SOL    HW1 3569   1.340   4.570   2.536
 1185SOL    HW2 3570   1.320   4.720   2.474
 1186SOL     OW 3571   1.841   3.899   2.825
 1186SOL    HW1 3572   1.880   3.814   2.789
 1186SOL    HW2 3573   1.743   3.901   2.806
 1187SOL     OW 3574   0.263   4.050   2.582
 1187SOL    HW1 3575   0.184   4.101   2.548
 1187SOL    HW2 3576   0.254   4.035   2.680
 1188SOL     OW 3577   0.916   4.634   2.153
 1188SOL    HW1 3578   0.979   4.672   2.085
 1188SOL    HW2 3579   0.956   4.551   2.192
 1189SOL     OW 3580   1.039   4.822   2.558
 1189SOL    HW1 3581   0.969   4.775   2.612
 1189SOL    HW2 3582   1.098   4.754   2.515
 1190SOL     OW 3583   1.014   3.960   2.833
 1190SOL    HW1 3584   1.006   3.924   2.740
 1190SOL    HW2 3585   1.012   3.884   2.898
 1191SOL     OW 3586   1.709   4.109   3.243
 1191SOL    HW1 3587   1.782   4.178   3.247
 1191SOL    HW2 3588   1.737   4.034   3.184
 1192SOL     OW 3589   0.672   3.927   3.351
 1192SOL    HW1 3590   0.762   3.911   3.311
 1192SOL    HW2 3591   0.680   3.932   3.450
 1193SOL     OW 3592   0.075   4.069   1.895
 1193SOL    HW1 3593  -0.017   4.041   1.866
 1193SOL    HW2 3594   0.106   4.146   1.839
 1194SOL     OW 3595   0.072   3.890   2.180
 1194SOL    HW1 3596   0.055   3.973   2.126
 1194SOL    HW2 3597   0.162   3.853   2.158
 1195SOL     OW 3598   0.716   4.289   3.570
 1195SOL    HW1 3599   0.735   4.354   3.644
 1195SOL    HW2 3600   0.776   4.209   3.579
 1196SOL     OW 3601   1.225   4.049   2.311
 1196SOL    HW1 3602   1.290   3.975   2.300
 1196SOL    HW2 3603   1.245   4.099   2.395
 1197SOL     OW 3604   1.777   4.066   3.504
 1197SOL    HW1 3605   1.760   4.097   3.410
 1197SOL    HW2 3606   1.693   4.029   3.542
 1198SOL     OW 3607   0.859   4.680   2.723
 1198SOL    HW1 3608   0.913   4.611   2.771
 1198SOL    HW2 3609   0.827   4.749   2.789
 1199SOL     OW 3610   1.083   4.708   1.949
 1199SOL    HW1 3611   1.060   4.761   1.867
 1199SOL    HW2 3612   1.164   4.652   1.930
 1200SOL     OW 3613   1.824   3.916   3.089
 1200SOL    HW1 3614   1.820   3.826   3.133
 1200SOL    HW2 3615   1.827   3.905   2.990
 1201SOL     OW 3616   0.428   4.148   2.382
 1201SOL    HW1 3617   0.458   4.076   2.320
 1201SOL    HW2 3618   0.389   4.108   2.465
 1202SOL     OW 3619   0.317   4.271   3.142
 1202SOL    HW1 3620   0.355   4.212   3.214
 1202SOL    HW2 3621   0.357   4.245   3.054
 1203SOL     OW 3622   1.424   3.938   2.974
 1203SOL    HW1 3623   1.476   3.873   3.029
 1203SOL    HW2 3624   1.375   4.001   3.035
 1204SOL     OW 3625   1.001   3.758   3.016
 1204SOL    HW1 3626   0.938   3.686   2.985
 1204SOL    HW2 3627   1.094   3.722   3.016
 1205SOL     OW 3628   1.352   3.776   2.030
 1205SOL    HW1 3629   1.387   3.735   1.946
 1205SOL    HW2 3630   1.262   3.738   2.050
 1206SOL     OW 3631   1.300   4.177   2.553
 1206SOL    HW1 3632   1.241   4.257   2.557
 1206SOL    HW2 3633   1.315   4.142   2.646
 1207SOL     OW 3634   1.593   3.945   2.744
 1207SOL    HW1 3635   1.509   3.944   2.798
 1207SOL    HW2 3636   1.595   4.028   2.688
 1208SOL     OW 3637   0.230   4.352   3.837
 1208SOL    HW1 3638   0.137   4.350   3.874
 1208SOL    HW2 3639   0.231   4.313   3.745
 1209SOL     OW 3640   0.019   4.092   4.371
 1209SOL    HW1 3641  -0.063   4.135   4.410
 1209SOL    HW2 3642  -0.009   4.019   4.308
 1210SOL     OW 3643   1.755   4.331   3.955
 1210SOL    HW1 3644   1.743   4.318   3.856
 1210SOL    HW2 3645   1.725   4.250   4.004
 1211SOL     OW 3646   0.685   4.736   4.389
 1211SOL    HW1 3647   0.754   4.720   4.459
 1211SOL    HW2 3648   0.612   4.793   4.427
 1212SOL     OW 3649   1.603   4.171   4.461
 1212SOL    HW1 3650   1.529   4.217   4.411
 1212SOL    HW2 3651   1.654   4.239   4.514
 1213SOL     OW 3652   0.122   4.367   4.287
 1213SOL    HW1 3653   0.077   4.279   4.304
 1213SOL    HW2 3654   0.121   4.421   4.371
 1214SOL     OW 3655   0.809   3.728   4.226
 1214SOL    HW1 3656   0.849   3.819   4.217
 1214SOL    HW2 3657   0.709   3.736   4.232
 1215SOL     OW 3658   1.281   4.069   4.668
 1215SOL    HW1 3659   1.195   4.019   4.655
 1215SOL    HW2 3660   1.343   4.015   4.724
 1216SOL     OW 3661   1.041   4.425   4.153
 1216SOL    HW1 3662   1.067   4.421   4.249
 1216SOL    HW2 3663   0.956   4.374   4.139
 1217SOL     OW 3664   0.076   4.535   4.513
 1217SOL    HW1 3665   0.175   4.523   4.522
 1217SOL    HW2 3666   0.052   4.630   4.534
 1218SOL     OW 3667   0.865   4.072   3.919
 1218SOL    HW1 3668   0.924   4.135   3.870
 1218SOL    HW2 3669   0.884   3.978   3.890
 1219SOL     OW 3670   1.400   3.831   4.150
 1219SOL    HW1 3671   1.376   3.794   4.060
 1219SOL    HW2 3672   1.499   3.847   4.154
 1220SOL     OW 3673   0.382   4.424   4.204
 1220SOL    HW1 3674   0.427   4.334   4.201
 1220SOL    HW2 3675   0.288   4.413   4.237
 1221SOL     OW 3676   0.614   3.846   3.841
 1221SOL    HW1 3677   0.712   3.824   3.848
 1221SOL    HW2 3678   0.583   3.829   3.748
 1222SOL     OW 3679   0.539   3.788   4.236
 1222SOL    HW1 3680   0.458   3.789   4.294
 1222SOL    HW2 3681   0.542   3.871   4.181
 1223SOL     OW 3682   0.297   3.759   3.895
 1223SOL    HW1 3683   0.346   3.843   3.874
 1223SOL    HW2 3684   0.359   3.694   3.940
 1224SOL     OW 3685   0.935   3.960   4.204
 1224SOL    HW1 3686   0.887   4.001   4.126
 1224SOL    HW2 3687   1.034   3.958   4.185
 1225SOL     OW 3688   1.032   4.273   3.740
 1225SOL    HW1 3689   0.991   4.355   3.701
 1225SOL    HW2 3690   1.096   4.299   3.813
 1226SOL     OW 3691   0.866   4.178   4.366
 1226SOL    HW1 3692   0.834   4.250   4.304
 1226SOL    HW2 3693   0.890   4.097   4.313
 1227SOL     OW 3694   1.390   4.299   3.802
 1227SOL    HW1 3695   1.336   4.278   3.883
 1227SOL    HW2 3696   1.481   4.258   3.811
 1228SOL     OW 3697   0.527   3.980   4.052
 1228SOL    HW1 3698   0.554   3.921   3.977
 1228SOL    HW2 3699   0.527   4.075   4.021
 1229SOL     OW 3700   0.705   4.774   4.092
 1229SOL    HW1 3701   0.691   4.781   4.191
 1229SOL    HW2 3702   0.789   4.723   4.074
 1230SOL     OW 3703   1.582   4.363   4.196
 1230SOL    HW1 3704   1.551   4.424   4.269
 1230SOL    HW2 3705   1.632   4.415   4.127
 1231SOL     OW 3706   1.209   4.249   3.999
 1231SOL    HW1 3707   1.222   4.165   4.053
 1231SOL    HW2 3708   1.180   4.323   4.059
 1232SOL     OW 3709   0.307   3.787   4.342
 1232SOL    HW1 3710   0.296   3.881   4.375
 1232SOL    HW2 3711   0.302   3.724   4.419
 1233SOL     OW 3712   1.622   4.091   4.098
 1233SOL    HW1 3713   1.624   4.015   4.162
 1233SOL    HW2 3714   1.574   4.168   4.138
 1234SOL     OW 3715   1.540   3.998   3.849
 1234SOL    HW1 3716   1.479   3.923   3.872
 1234SOL    HW2 3717   1.562   4.050   3.932
 1235SOL     OW 3718   0.815   4.296   4.049
 1235SOL    HW1 3719   0.822   4.207   4.003
 1235SOL    HW2 3720   0.721   4.330   4.041
 1236SOL     OW 3721   0.473   4.224   3.915
 1236SOL    HW1 3722   0.534   4.304   3.919
 1236SOL    HW2 3723   0.378   4.255   3.922
 1237SOL     OW 3724   1.726   3.859   4.247
 1237SOL    HW1 3725   1.799   3.842   4.180
 1237SOL    HW2 3726   1.695   3.772   4.285
 1238SOL     OW 3727   1.280   4.651   4.396
 1238SOL    HW1 3728   1.340   4.570   4.398
 1238SOL    HW2 3729   1.320   4.720   4.336
 1239SOL     OW 3730   0.916   4.634   4.015
 1239SOL    HW1 3731   0.979   4.672   3.947
 1239SOL    HW2 3732   0.956   4.551   4.054
 1240SOL     OW 3733   0.075   4.069   3.757
 1240SOL    HW1 3734  -0.017   4.041   3.728
 1240SOL    HW2 3735   0.106   4.146   3.701
 1241SOL     OW 3736   0.072   3.890   4.042
 1241SOL    HW1 3737   0.055   3.973   3.988
 1241SOL    HW2 3738   0.162   3.853   4.020
 1242SOL     OW 3739   1.225   4.049   4.173
 1242SOL    HW1 3740   1.290   3.975   4.162
 1242SOL    HW2 3741   1.245   4.099   4.257
 1243SOL     OW 3742   1.083   4.708   3.811
 1243SOL    HW1 3743   1.060   4.761   3.729
 1243SOL    HW2 3744   1.164   4.652   3.792
 1244SOL     OW 3745   0.428   4.148   4.244
 1244SOL    HW1 3746   0.458   4.076   4.182
 1244SOL    HW2 3747   0.389   4.108   4.327
 1245SOL     OW 3748   1.352   3.776   3.892
 1245SOL    HW1 3749   1.387   3.735   3.808
 1245SOL    HW2 3750   1.262   3.738   3.912
 1246SOL     OW 3751   1.300   4.177   4.415
 1246SOL    HW1 3752   1.241   4.257   4.419
 1246SOL    HW2 3753   1.315   4.142   4.508
 1247SOL     OW 3754   2.092   0.628   0.113
 1247SOL    HW1 3755   1.999   0.626   0.150
 1247SOL    HW2 3756   2.093   0.589   0.021
 1248SOL     OW 3757   2.087   0.275   0.996
 1248SOL    HW1 3758   2.122   0.258   1.088
 1248SOL    HW2 3759   1.999   0.230   0.984
 1249SOL     OW 3760   1.881   0.368   0.647
 1249SOL    HW1 3761   1.799   0.411   0.686
 1249SOL    HW2 3762   1.853   0.295   0.584
 1250SOL     OW 3763   2.431   1.275   1.165
 1250SOL    HW1 3764   2.338   1.268   1.128
 1250SOL    HW2 3765   2.442   1.364   1.209
 1251SOL     OW 3766   3.417   1.511   0.703
 1251SOL    HW1 3767   3.360   1.495   0.784
 1251SOL    HW2 3768   3.358   1.521   0.623
 1252SOL     OW 3769   2.997   0.703   0.717
 1252SOL    HW1 3770   3.054   0.781   0.692
 1252SOL    HW2 3771   2.937   0.729   0.793
 1253SOL     OW 3772   3.617   0.607   0.231
 1253SOL    HW1 3773   3.605   0.594   0.132
 1253SOL    HW2 3774   3.587   0.526   0.280
 1254SOL     OW 3775   2.630   1.144   1.023
 1254SOL    HW1 3776   2.552   1.161   1.083
 1254SOL    HW2 3777   2.664   1.231   0.987
 1255SOL     OW 3778   2.712   0.798   1.823
 1255SOL    HW1 3779   2.708   0.874   1.888
 1255SOL    HW2 3780   2.734   0.834   1.732
 1256SOL     OW 3781   2.547   1.012   0.665
 1256SOL    HW1 3782   2.616   0.996   0.735
 1256SOL    HW2 3783   2.474   1.069   0.703
 1257SOL     OW 3784   2.548   1.161   1.803
 1257SOL    HW1 3785   2.608   1.240   1.817
 1257SOL    HW2 3786   2.462   1.192   1.762
 1258SOL     OW 3787   2.197   1.435   1.061
 1258SOL    HW1 3788   2.119   1.404   1.008
 1258SOL    HW2 3789   2.255   1.493   1.004
 1259SOL     OW 3790   3.322   1.505   1.339
 1259SOL    HW1 3791   3.346   1.599   1.365
 1259SOL    HW2 3792   3.306   1.451   1.421
 1260SOL     OW 3793   2.300   0.392   1.499
 1260SOL    HW1 3794   2.382   0.336   1.508
 1260SOL    HW2 3795   2.219   0.334   1.503
 1261SOL     OW 3796   3.465   0.447   0.737
 1261SOL    HW1 3797   3.391   0.493   0.687
 1261SOL    HW2 3798   3.516   0.515   0.790
 1262SOL     OW 3799   2.093   1.713   0.483
 1262SOL    HW1 3800   2.127   1.790   0.537
 1262SOL    HW2 3801   2.137   1.713   0.393
 1263SOL     OW 3802   2.989   1.341   1.690
 1263SOL    HW1 3803   3.036   1.341   1.778
 1263SOL    HW2 3804   2.941   1.254   1.679
 1264SOL     OW 3805   2.092   1.434   0.538
 1264SOL    HW1 3806   2.066   1.530   0.538
 1264SOL    HW2 3807   2.021   1.380   0.583
 1265SOL     OW 3808   2.102   1.091   0.886
 1265SOL    HW1 3809   2.116   1.007   0.938
 1265SOL    HW2 3810   2.047   1.155   0.941
 1266SOL     OW 3811   2.482   1.786   1.439
 1266SOL    HW1 3812   2.390   1.769   1.474
 1266SOL    HW2 3813   2.510   1.878   1.465
 1267SOL     OW 3814   2.468   0.964   0.123
 1267SOL    HW1 3815   2.475   1.048   0.069
 1267SOL    HW2 3816   2.514   0.977   0.211
 1268SOL     OW 3817   3.456   0.114   1.480
 1268SOL    HW1 3818   3.438   0.181   1.408
 1268SOL    HW2 3819   3.453   0.160   1.569
 1269SOL     OW 3820   1.984   0.643   0.563
 1269SOL    HW1 3821   1.939   0.555   0.580
 1269SOL    HW2 3822   1.983   0.697   0.647
 1270SOL     OW 3823   3.704   1.767   0.359
 1270SOL    HW1 3824   3.758   1.738   0.439
 1270SOL    HW2 3825   3.734   1.857   0.330
 1271SOL     OW 3826   1.889   1.596   0.117
 1271SOL    HW1 3827   1.870   1.500   0.138
 1271SOL    HW2 3828   1.856   1.654   0.192
 1272SOL     OW 3829   3.551   0.922   0.612
 1272SOL    HW1 3830   3.646   0.893   0.620
 1272SOL    HW2 3831   3.543   0.987   0.537
 1273SOL     OW 3832   3.503   1.108   0.432
 1273SOL    HW1 3833   3.589   1.110   0.380
 1273SOL    HW2 3834   3.517   1.155   0.520
 1274SOL     OW 3835   1.975   0.737   1.597
 1274SOL    HW1 3836   2.063   0.724   1.642
 1274SOL    HW2 3837   1.962   0.834   1.575
 1275SOL     OW 3838   2.475   1.365   0.726
 1275SOL    HW1 3839   2.426   1.278   0.735
 1275SOL    HW2 3840   2.452   1.408   0.639
 1276SOL     OW 3841   3.155   1.228   1.423
 1276SOL    HW1 3842   3.192   1.155   1.365
 1276SOL    HW2 3843   3.207   1.233   1.508
 1277SOL     OW 3844   2.671   0.004   0.502
 1277SOL    HW1 3845   2.711   0.095   0.493
 1277SOL    HW2 3846   2.571   0.012   0.508
 1278SOL     OW 3847   2.059   0.976   1.264
 1278SOL    HW1 3848   2.148   0.931   1.250
 1278SOL    HW2 3849   1.986   0.911   1.245
 1279SOL     OW 3850   3.387   0.999   0.190
 1279SOL    HW1 3851   3.324   0.923   0.203
 1279SOL    HW2 3852   3.435   1.017   0.276
 1280SOL     OW 3853   3.049   1.792   1.616
 1280SOL    HW1 3854   3.073   1.852   1.540
 1280SOL    HW2 3855   3.056   1.697   1.586
 1281SOL     OW 3856   2.179   0.251   1.801
 1281SOL    HW1 3857   2.250   0.322   1.807
 1281SOL    HW2 3858   2.091   0.290   1.829
 1282SOL     OW 3859   3.328   1.417   0.953
 1282SOL    HW1 3860   3.269   1.423   1.033
 1282SOL    HW2 3861   3.313   1.329   0.907
 1283SOL     OW 3862   3.529   1.714   0.572
 1283SOL    HW1 3863   3.488   1.691   0.484
 1283SOL    HW2 3864   3.511   1.640   0.637
 1284SOL     OW 3865   2.460   0.729   0.270
 1284SOL    HW1 3866   2.484   0.798   0.202
 1284SOL    HW2 3867   2.382   0.762   0.324
 1285SOL     OW 3868   3.143   0.345   0.944
 1285SOL    HW1 3869   3.057   0.295   0.931
 1285SOL    HW2 3870   3.205   0.291   1.000
 1286SOL     OW 3871   3.438   1.662   0.307
 1286SOL    HW1 3872   3.527   1.708   0.310
 1286SOL    HW2 3873   3.417   1.638   0.212
 1287SOL     OW 3874   2.669   0.605   1.465
 1287SOL    HW1 3875   2.622   0.602   1.554
 1287SOL    HW2 3876   2.618   0.550   1.399
 1288SOL     OW 3877   3.256   0.469   1.674
 1288SOL    HW1 3878   3.236   0.512   1.762
 1288SOL    HW2 3879   3.334   0.407   1.683
 1289SOL     OW 3880   2.835   0.890   1.572
 1289SOL    HW1 3881   2.881   0.806   1.543
 1289SOL    HW2 3882   2.779   0.924   1.497
 1290SOL     OW 3883   2.853   0.410   1.242
 1290SOL    HW1 3884   2.776   0.444   1.296
 1290SOL    HW2 3885   2.819   0.359   1.163
 1291SOL     OW 3886   2.903   0.701   0.429
 1291SOL    HW1 3887   2.929   0.697   0.525
 1291SOL    HW2 3888   2.818   0.650   0.415
 1292SOL     OW 3889   1.938   0.811   0.789
 1292SOL    HW1 3890   2.037   0.799   0.798
 1292SOL    HW2 3891   1.914   0.906   0.810
 1293SOL     OW 3892   1.992   1.821   1.571
 1293SOL    HW1 3893   1.982   1.806   1.670
 1293SOL    HW2 3894   1.906   1.857   1.535
 1294SOL     OW 3895   2.727   0.348   0.195
 1294SOL    HW1 3896   2.786   0.411   0.146
 1294SOL    HW2 3897   2.746   0.254   0.166
 1295SOL     OW 3898   3.581   0.585   1.831
 1295SOL    HW1 3899   3.555   0.674   1.795
 1295SOL    HW2 3900   3.579   0.517   1.758
 1296SOL     OW 3901   3.224   1.144   0.545
 1296SOL    HW1 3902   3.307   1.115   0.497
 1296SOL    HW2 3903   3.175   1.211   0.489
 1297SOL     OW 3904   2.412   0.196   0.885
 1297SOL    HW1 3905   2.407   0.191   0.985
 1297SOL    HW2 3906   2.414   0.292   0.856
 1298SOL     OW 3907   2.870   1.456   0.477
 1298SOL    HW1 3908   2.824   1.528   0.425
 1298SOL    HW2 3909   2.866   1.476   0.575
 1299SOL     OW 3910   2.213   1.801   0.853
 1299SOL    HW1 3911   2.263   1.715   0.859
 1299SOL    HW2 3912   2.278   1.878   0.850
 1300SOL     OW 3913   3.657   1.066   0.873
 1300SOL    HW1 3914   3.595   1.051   0.797
 1300SOL    HW2 3915   3.605   1.077   0.958
 1301SOL     OW 3916   3.089   1.550   1.506
 1301SOL    HW1 3917   3.095   1.473   1.570
 1301SOL    HW2 3918   3.037   1.524   1.426
 1302SOL     OW 3919   2.183   0.943   0.242
 1302SOL    HW1 3920   2.265   0.982   0.200
 1302SOL    HW2 3921   2.156   0.861   0.193
 1303SOL     OW 3922   3.320   0.735   0.728
 1303SOL    HW1 3923   3.315   0.670   0.803
 1303SOL    HW2 3924   3.400   0.794   0.741
 1304SOL     OW 3925   2.323   1.266   1.727
 1304SOL    HW1 3926   2.273   1.267   1.641
 1304SOL    HW2 3927   2.260   1.248   1.803
 1305SOL     OW 3928   2.973   1.776   0.237
 1305SOL    HW1 3929   2.913   1.714   0.287
 1305SOL    HW2 3930   3.004   1.732   0.152
 1306SOL     OW 3931   2.064   0.285   1.498
 1306SOL    HW1 3932   1.984   0.345   1.485
 1306SOL    HW2 3933   2.054   0.236   1.584
 1307SOL     OW 3934   3.494   1.377   0.081
 1307SOL    HW1 3935   3.462   1.471   0.071
 1307SOL    HW2 3936   3.418   1.314   0.069
 1308SOL     OW 3937   2.326   1.743   0.323
 1308SOL    HW1 3938   2.359   1.782   0.409
 1308SOL    HW2 3939   2.402   1.736   0.258
 1309SOL     OW 3940   3.262   0.107   0.426
 1309SOL    HW1 3941   3.238   0.070   0.336
 1309SOL    HW2 3942   3.361   0.123   0.430
 1310SOL     OW 3943   2.111   1.785   1.241
 1310SOL    HW1 3944   2.168   1.720   1.291
 1310SOL    HW2 3945   2.095   1.752   1.148
 1311SOL     OW 3946   2.802   1.698   0.904
 1311SOL    HW1 3947   2.882   1.641   0.925
 1311SOL    HW2 3948   2.753   1.658   0.827
 1312SOL     OW 3949   2.244   0.700   0.480
 1312SOL    HW1 3950   2.289   0.610   0.477
 1312SOL    HW2 3951   2.150   0.689   0.513
 1313SOL     OW 3952   3.409   0.222   1.729
 1313SOL    HW1 3953   3.404   0.259   1.821
 1313SOL    HW2 3954   3.337   0.153   1.717
 1314SOL     OW 3955   2.476   0.122   0.117
 1314SOL    HW1 3956   2.574   0.100   0.124
 1314SOL    HW2 3957   2.445   0.105   0.024
 1315SOL     OW 3958   2.643   0.264   1.749
 1315SOL    HW1 3959   2.710   0.203   1.792
 1315SOL    HW2 3960   2.570   0.283   1.814
 1316SOL     OW 3961   2.750   1.514   1.195
 1316SOL    HW1 3962   2.727   1.489   1.101
 1316SOL    HW2 3963   2.811   1.445   1.234
 1317SOL     OW 3964   3.213   0.590   1.433
 1317SOL    HW1 3965   3.241   0.547   1.518
 1317SOL    HW2 3966   3.238   0.686   1.434
 1318SOL     OW 3967   2.665   1.402   0.924
 1318SOL    HW1 3968   2.755   1.416   0.882
 1318SOL    HW2 3969   2.594   1.404   0.853
 1319SOL     OW 3970   2.784   0.503   0.899
 1319SOL    HW1 3971   2.759   0.494   0.803
 1319SOL    HW2 3972   2.832   0.421   0.930
 1320SOL     OW 3973   2.401   0.064   0.512
 1320SOL    HW1 3974   2.320   0.065   0.570
 1320SOL    HW2 3975   2.404   0.147   0.457
 1321SOL     OW 3976   3.296   1.188   0.041
 1321SOL    HW1 3977   3.328   1.112   0.098
 1321SOL    HW2 3978   3.204   1.215   0.071
 1322SOL     OW 3979   2.159   0.035   0.171
 1322SOL    HW1 3980   2.208   0.119   0.150
 1322SOL    HW2 3981   2.221  -0.030   0.216
 1323SOL     OW 3982   2.797   0.236   0.480
 1323SOL    HW1 3983   2.749   0.277   0.402
 1323SOL    HW2 3984   2.896   0.234   0.461
 1324SOL     OW 3985   2.938   0.683   1.464
 1324SOL    HW1 3986   2.858   0.622   1.467
 1324SOL    HW2 3987   3.019   0.630   1.440
 1325SOL     OW 3988   3.089   1.570   0.793
 1325SOL    HW1 3989   3.110   1.644   0.728
 1325SOL    HW2 3990   3.157   1.570   0.866
 1326SOL     OW 3991   2.321   1.152   0.741
 1326SOL    HW1 3992   2.250   1.125   0.806
 1326SOL    HW2 3993   2.295   1.124   0.648
 1327SOL     OW 3994   3.133   1.797   0.591
 1327SOL    HW1 3995   3.177   1.861   0.527
 1327SOL    HW2 3996   3.083   1.849   0.661
 1328SOL     OW 3997   2.894   0.549   0.016
 1328SOL    HW1 3998   2.853   0.631  -0.023
 1328SOL    HW2 3999   2.958   0.575   0.089
 1329SOL     OW 4000   1.940   0.556   1.386
 1329SOL    HW1 4001   2.032   0.555   1.345
 1329SOL    HW2 4002   1.934   0.630   1.453
 1330SOL     OW 4003   2.423   0.222   1.147
 1330SOL    HW1 4004   2.461   0.138   1.184
 1330SOL    HW2 4005   2.335   0.241   1.191
 1331SOL     OW 4006   2.728   0.454   0.642
 1331SOL    HW1 4007   2.696   0.526   0.580
 1331SOL    HW2 4008   2.752   0.373   0.589
 1332SOL     OW 4009   2.879   0.039   0.753
 1332SOL    HW1 4010   2.807   0.044   0.684
 1332SOL    HW2 4011   2.855  -0.030   0.822
 1333SOL     OW 4012   3.291   1.173   0.867
 1333SOL    HW1 4013   3.236   1.089   0.860
 1333SOL    HW2 4014   3.317   1.202   0.775
 1334SOL     OW 4015   3.328   0.590   0.992
 1334SOL    HW1 4016   3.298   0.495   0.999
 1334SOL    HW2 4017   3.401   0.606   1.058
 1335SOL     OW 4018   3.719   0.833   0.377
 1335SOL    HW1 4019   3.761   0.769   0.441
 1335SOL    HW2 4020   3.681   0.782   0.299
 1336SOL     OW 4021   2.350   1.385   0.174
 1336SOL    HW1 4022   2.263   1.370   0.221
 1336SOL    HW2 4023   2.333   1.411   0.079
 1337SOL     OW 4024   3.526   1.280   0.657
 1337SOL    HW1 4025   3.625   1.288   0.671
 1337SOL    HW2 4026   3.481   1.364   0.688
 1338SOL     OW 4027   3.252   0.575   0.078
 1338SOL    HW1 4028   3.198   0.554   0.159
 1338SOL    HW2 4029   3.343   0.534   0.087
 1339SOL     OW 4030   2.389   0.256   0.328
 1339SOL    HW1 4031   2.416   0.197   0.253
 1339SOL    HW2 4032   2.389   0.351   0.297
 1340SOL     OW 4033   3.616   1.223   1.588
 1340SOL    HW1 4034   3.707   1.184   1.575
 1340SOL    HW2 4035   3.624   1.319   1.612
 1341SOL     OW 4036   2.926   1.347   1.340
 1341SOL    HW1 4037   2.846   1.324   1.395
 1341SOL    HW2 4038   3.009   1.321   1.389
 1342SOL     OW 4039   3.454   1.629   1.625
 1342SOL    HW1 4040   3.481   1.663   1.535
 1342SOL    HW2 4041   3.533   1.591   1.671
 1343SOL     OW 4042   2.973   1.195   1.100
 1343SOL    HW1 4043   2.933   1.239   1.181
 1343SOL    HW2 4044   2.932   1.232   1.017
 1344SOL     OW 4045   3.500   1.099   1.079
 1344SOL    HW1 4046   3.505   1.180   1.138
 1344SOL    HW2 4047   3.414   1.101   1.028
 1345SOL     OW 4048   2.777   0.089   1.402
 1345SOL    HW1 4049   2.802   0.069   1.307
 1345SOL    HW2 4050   2.849   0.145   1.444
 1346SOL     OW 4051   2.842   1.116   1.719
 1346SOL    HW1 4052   2.743   1.122   1.729
 1346SOL    HW2 4053   2.865   1.036   1.663
 1347SOL     OW 4054   2.567   1.050   0.368
 1347SOL    HW1 4055   2.553   1.057   0.467
 1347SOL    HW2 4056   2.651   0.999   0.350
 1348SOL     OW 4057   2.272   0.813   1.251
 1348SOL    HW1 4058   2.358   0.825   1.301
 1348SOL    HW2 4059   2.230   0.726   1.278
 1349SOL     OW 4060   3.136   0.386   1.262
 1349SOL    HW1 4061   3.157   0.460   1.326
 1349SOL    HW2 4062   3.047   0.403   1.219
 1350SOL     OW 4063   1.926   1.564   1.331
 1350SOL    HW1 4064   1.880   1.646   1.297
 1350SOL    HW2 4065   2.024   1.583   1.340
 1351SOL     OW 4066   2.229   1.100   0.501
 1351SOL    HW1 4067   2.222   1.183   0.445
 1351SOL    HW2 4068   2.233   1.020   0.441
 1352SOL     OW 4069   2.428   0.537   0.865
 1352SOL    HW1 4070   2.440   0.603   0.791
 1352SOL    HW2 4071   2.474   0.571   0.948
 1353SOL     OW 4072   3.114   1.348   0.388
 1353SOL    HW1 4073   3.164   1.425   0.428
 1353SOL    HW2 4074   3.019   1.350   0.420
 1354SOL     OW 4075   3.134   1.445   1.142
 1354SOL    HW1 4076   3.181   1.458   1.229
 1354SOL    HW2 4077   3.068   1.371   1.151
 1355SOL     OW 4078   3.444   0.639   0.472
 1355SOL    HW1 4079   3.413   0.700   0.545
 1355SOL    HW2 4080   3.494   0.691   0.403
 1356SOL     OW 4081   2.216   1.510   1.329
 1356SOL    HW1 4082   2.195   1.466   1.242
 1356SOL    HW2 4083   2.313   1.536   1.332
 1357SOL     OW 4084   2.264   0.751   1.598
 1357SOL    HW1 4085   2.332   0.806   1.551
 1357SOL    HW2 4086   2.304   0.663   1.625
 1358SOL     OW 4087   3.449   0.779   1.670
 1358SOL    HW1 4088   3.357   0.817   1.665
 1358SOL    HW2 4089   3.509   0.826   1.605
 1359SOL     OW 4090   2.875   0.105   1.770
 1359SOL    HW1 4091   2.881   0.190   1.718
 1359SOL    HW2 4092   2.907   0.029   1.713
 1360SOL     OW 4093   2.366   0.050   1.740
 1360SOL    HW1 4094   2.324  -0.007   1.670
 1360SOL    HW2 4095   2.300   0.119   1.772
 1361SOL     OW 4096   2.435   0.870   1.029
 1361SOL    HW1 4097   2.479   0.959   1.020
 1361SOL    HW2 4098   2.372   0.870   1.106
 1362SOL     OW 4099   3.222   0.862   1.045
 1362SOL    HW1 4100   3.147   0.862   0.979
 1362SOL    HW2 4101   3.259   0.770   1.054
 1363SOL     OW 4102   3.071   0.525   0.275
 1363SOL    HW1 4103   3.084   0.441   0.329
 1363SOL    HW2 4104   3.042   0.599   0.335
 1364SOL     OW 4105   2.169   0.213   1.231
 1364SOL    HW1 4106   2.146   0.250   1.321
 1364SOL    HW2 4107   2.139   0.118   1.225
 1365SOL     OW 4108   1.899   1.310   1.282
 1365SOL    HW1 4109   1.952   1.261   1.350
 1365SOL    HW2 4110   1.921   1.408   1.287
 1366SOL     OW 4111   2.594   0.634   1.064
 1366SOL    HW1 4112   2.653   0.608   0.988
 1366SOL    HW2 4113   2.566   0.730   1.053
 1367SOL     OW 4114   3.590   0.935   1.854
 1367SOL    HW1 4115   3.544   0.928   1.765
 1367SOL    HW2 4116   3.528   0.979   1.920
 1368SOL     OW 4117   2.169   0.063   0.618
 1368SOL    HW1 4118   2.158   0.157   0.651
 1368SOL    HW2 4119   2.164   0.000   0.695
 1369SOL     OW 4120   3.484   0.367   0.374
 1369SOL    HW1 4121   3.486   0.291   0.438
 1369SOL    HW2 4122   3.436   0.444   0.414
 1370SOL     OW 4123   2.885   0.766   0.966
 1370SOL    HW1 4124   2.900   0.787   1.062
 1370SOL    HW2 4125   2.855   0.671   0.957
 1371SOL     OW 4126   2.842   1.573   1.700
 1371SOL    HW1 4127   2.822   1.617   1.612
 1371SOL    HW2 4128   2.881   1.482   1.684
 1372SOL     OW 4129   3.721   1.518   1.605
 1372SOL    HW1 4130   3.735   1.545   1.510
 1372SOL    HW2 4131   3.804   1.540   1.658
 1373SOL     OW 4132   2.212   0.898   1.804
 1373SOL    HW1 4133   2.288   0.942   1.852
 1373SOL    HW2 4134   2.247   0.851   1.722
 1374SOL     OW 4135   3.402   0.274   0.125
 1374SOL    HW1 4136   3.341   0.199   0.148
 1374SOL    HW2 4137   3.424   0.326   0.208
 1375SOL     OW 4138   3.165   0.838   0.042
 1375SOL    HW1 4139   3.199   0.745   0.057
 1375SOL    HW2 4140   3.183   0.865  -0.053
 1376SOL     OW 4141   2.930   1.333   0.849
 1376SOL    HW1 4142   2.937   1.249   0.794
 1376SOL    HW2 4143   2.992   1.402   0.813
 1377SOL     OW 4144   2.181   0.810   0.949
 1377SOL    HW1 4145   2.274   0.846   0.954
 1377SOL    HW2 4146   2.175   0.725   1.001
 1378SOL     OW 4147   2.201   0.509   1.006
 1378SOL    HW1 4148   2.149   0.426   0.989
 1378SOL    HW2 4149   2.278   0.514   0.942
 1379SOL     OW 4150   3.000   0.380   1.678
 1379SOL    HW1 4151   2.955   0.443   1.742
 1379SOL    HW2 4152   3.093   0.411   1.661
 1380SOL     OW 4153   3.022   0.207   1.477
 1380SOL    HW1 4154   3.022   0.271   1.554
 1380SOL    HW2 4155   3.050   0.255   1.394
 1381SOL     OW 4156   1.870   1.326   0.200
 1381SOL    HW1 4157   1.777   1.347   0.169
 1381SOL    HW2 4158   1.880   1.227   0.213
 1382SOL     OW 4159   1.950   1.801   0.927
 1382SOL    HW1 4160   1.908   1.715   0.900
 1382SOL    HW2 4161   2.044   1.804   0.893
 1383SOL     OW 4162   2.366   1.568   0.910
 1383SOL    HW1 4163   2.432   1.642   0.919
 1383SOL    HW2 4164   2.410   1.489   0.868
 1384SOL     OW 4165   2.864   0.796   1.238
 1384SOL    HW1 4166   2.905   0.764   1.324
 1384SOL    HW2 4167   2.768   0.769   1.235
 1385SOL     OW 4168   1.902   0.544   1.114
 1385SOL    HW1 4169   1.987   0.511   1.073
 1385SOL    HW2 4170   1.915   0.559   1.212
 1386SOL     OW 4171   2.051   0.520   1.722
 1386SOL    HW1 4172   2.110   0.480   1.652
 1386SOL    HW2 4173   1.993   0.591   1.681
 1387SOL     OW 4174   3.231   0.950   1.660
 1387SOL    HW1 4175   3.270   1.039   1.680
 1387SOL    HW2 4176   3.241   0.930   1.563
 1388SOL     OW 4177   2.677   0.572   0.325
 1388SOL    HW1 4178   2.684   0.483   0.279
 1388SOL    HW2 4179   2.583   0.606   0.317
 1389SOL     OW 4180   3.519   0.604   1.206
 1389SOL    HW1 4181   3.481   0.535   1.268
 1389SOL    HW2 4182   3.601   0.568   1.162
 1390SOL     OW 4183   2.114   1.564   1.744
 1390SOL    HW1 4184   2.084   1.621   1.820
 1390SOL    HW2 4185   2.107   1.467   1.770
 1391SOL     OW 4186   2.533   0.464   1.269
 1391SOL    HW1 4187   2.499   0.375   1.239
 1391SOL    HW2 4188   2.559   0.518   1.189
 1392SOL     OW 4189   2.792   1.678   1.465
 1392SOL    HW1 4190   2.768   1.660   1.370
 1392SOL    HW2 4191   2.822   1.772   1.475
 1393SOL     OW 4192   2.335   0.500   0.191
 1393SOL    HW1 4193   2.396   0.580   0.195
 1393SOL    HW2 4194   2.240   0.531   0.198
 1394SOL     OW 4195   2.021   1.137   1.466
 1394SOL    HW1 4196   2.043   1.076   1.542
 1394SOL    HW2 4197   2.031   1.088   1.380
 1395SOL     OW 4198   3.209   1.059   1.234
 1395SOL    HW1 4199   3.233   0.996   1.160
 1395SOL    HW2 4200   3.119   1.099   1.216
 1396SOL     OW 4201   3.164   0.855   0.309
 1396SOL    HW1 4202   3.078   0.824   0.351
 1396SOL    HW2 4203   3.160   0.841   0.210
 1397SOL     OW 4204   3.621   1.747   1.154
 1397SOL    HW1 4205   3.682   1.777   1.081
 1397SOL    HW2 4206   3.583   1.658   1.132
 1398SOL     OW 4207   3.114   1.731   1.128
 1398SOL    HW1 4208   3.198   1.736   1.074
 1398SOL    HW2 4209   3.091   1.635   1.146
 1399SOL     OW 4210   1.945   1.258   1.022
 1399SOL    HW1 4211   1.940   1.257   1.122
 1399SOL    HW2 4212   1.862   1.217   0.984
 1400SOL     OW 4213   2.550   1.662   1.716
 1400SOL    HW1 4214   2.494   1.743   1.725
 1400SOL    HW2 4215   2.602   1.666   1.630
 1401SOL     OW 4216   2.765   0.086   0.133
 1401SOL    HW1 4217   2.816   0.087   0.047
 1401SOL    HW2 4218   2.821   0.044   0.204
 1402SOL     OW 4219   3.588   0.135   0.523
 1402SOL    HW1 4220   3.661   0.118   0.456
 1402SOL    HW2 4221   3.557   0.048   0.561
 1403SOL     OW 4222   3.250   1.573   0.477
 1403SOL    HW1 4223   3.317   1.585   0.403
 1403SOL    HW2 4224   3.210   1.662   0.500
 1404SOL     OW 4225   1.992   1.794   1.851
 1404SOL    HW1 4226   1.951   1.720   1.904
 1404SOL    HW2 4227   2.056   1.845   1.909
 1405SOL     OW 4228   3.142   0.927   0.672
 1405SOL    HW1 4229   3.202   0.846   0.674
 1405SOL    HW2 4230   3.182   0.996   0.612
 1406SOL     OW 4231   2.692   1.273   1.422
 1406SOL    HW1 4232   2.687   1.306   1.517
 1406SOL    HW2 4233   2.606   1.292   1.376
 1407SOL     OW 4234   2.534   1.616   0.154
 1407SOL    HW1 4235   2.543   1.626   0.055
 1407SOL    HW2 4236   2.494   1.527   0.175
 1408SOL     OW 4237   3.512   1.720   1.394
 1408SOL    HW1 4238   3.565   1.730   1.310
 1408SOL    HW2 4239   3.485   1.810   1.428
 1409SOL     OW 4240   3.703   0.175   0.963
 1409SOL    HW1 4241   3.742   0.090   0.927
 1409SOL    HW2 4242   3.605   0.177   0.944
 1410SOL     OW 4243   2.125   0.326   0.720
 1410SOL    HW1 4244   2.046   0.377   0.686
 1410SOL    HW2 4245   2.116   0.311   0.818
 1411SOL     OW 4246   3.056   1.612   0.031
 1411SOL    HW1 4247   3.062   1.519   0.068
 1411SOL    HW2 4248   2.997   1.612  -0.049
 1412SOL     OW 4249   2.684   1.002   1.372
 1412SOL    HW1 4250   2.724   1.001   1.280
 1412SOL    HW2 4251   2.694   1.094   1.412
 1413SOL     OW 4252   2.778   0.910   0.291
 1413SOL    HW1 4253   2.841   0.948   0.223
 1413SOL    HW2 4254   2.818   0.827   0.330
 1414SOL     OW 4255   3.366   1.607   0.044
 1414SOL    HW1 4256   3.274   1.644   0.051
 1414SOL    HW2 4257   3.404   1.627  -0.046
 1415SOL     OW 4258   2.234   1.288   1.490
 1415SOL    HW1 4259   2.221   1.381   1.456
 1415SOL    HW2 4260   2.150   1.236   1.477
 1416SOL     OW 4261   3.476   1.292   1.289
 1416SOL    HW1 4262   3.536   1.295   1.369
 1416SOL    HW2 4263   3.401   1.356   1.302
 1417SOL     OW 4264   2.901   1.098   0.696
 1417SOL    HW1 4265   2.831   1.051   0.750
 1417SOL    HW2 4266   2.960   1.030   0.653
 1418SOL     OW 4267   2.876   0.236   0.971
 1418SOL    HW1 4268   2.868   0.200   0.878
 1418SOL    HW2 4269   2.874   0.160   1.036
 1419SOL     OW 4270   2.452   1.487   0.491
 1419SOL    HW1 4271   2.494   1.429   0.421
 1419SOL    HW2 4272   2.408   1.566   0.447
 1420SOL     OW 4273   3.571   0.385   1.381
 1420SOL    HW1 4274   3.644   0.454   1.385
 1420SOL    HW2 4275   3.599   0.310   1.322
 1421SOL     OW 4276   2.117   1.348   0.290
 1421SOL    HW1 4277   2.021   1.349   0.263
 1421SOL    HW2 4278   2.129   1.401   0.374
 1422SOL     OW 4279   1.967   1.013   1.726
 1422SOL    HW1 4280   1.890   0.980   1.780
 1422SOL    HW2 4281   2.052   0.983   1.768
 1423SOL     OW 4282   2.534   0.203   1.489
 1423SOL    HW1 4283   2.624   0.187   1.449
 1423SOL    HW2 4284   2.542   0.208   1.588
 1424SOL     OW 4285   1.937   0.345   0.033
 1424SOL    HW1 4286   1.845   0.317   0.004
 1424SOL    HW2 4287   1.968   0.422  -0.023
 1425SOL     OW 4288   3.302   0.856   1.398
 1425SOL    HW1 4289   3.245   0.908   1.335
 1425SOL    HW2 4290   3.398   0.868   1.374
 1426SOL     OW 4291   1.934   0.166   0.318
 1426SOL    HW1 4292   1.917   0.249   0.264
 1426SOL    HW2 4293   2.024   0.129   0.296
 1427SOL     OW 4294   3.045   1.335   0.119
 1427SOL    HW1 4295   2.946   1.324   0.121
 1427SOL    HW2 4296   3.079   1.350   0.212
 1428SOL     OW 4297   2.475   0.842   1.431
 1428SOL    HW1 4298   2.531   0.923   1.414
 1428SOL    HW2 4299   2.534   0.762   1.434
 1429SOL     OW 4300   3.355   1.767   0.959
 1429SOL    HW1 4301   3.388   1.831   0.890
 1429SOL    HW2 4302   3.421   1.761   1.034
 1430SOL     OW 4303   2.578   0.565   1.708
 1430SOL    HW1 4304   2.597   0.630   1.782
 1430SOL    HW2 4305   2.638   0.485   1.717
 1431SOL     OW 4306   3.312   1.220   1.633
 1431SOL    HW1 4307   3.303   1.210   1.732
 1431SOL    HW2 4308   3.408   1.213   1.607
 1432SOL     OW 4309   2.252   1.741   1.560
 1432SOL    HW1 4310   2.161   1.782   1.558
 1432SOL    HW2 4311   2.245   1.647   1.592
 1433SOL     OW 4312   3.536   0.883   1.254
 1433SOL    HW1 4313   3.509   0.794   1.217
 1433SOL    HW2 4314   3.537   0.951   1.181
 1434SOL     OW 4315   3.087   0.325   0.449
 1434SOL    HW1 4316   3.152   0.251   0.438
 1434SOL    HW2 4317   3.107   0.375   0.533
 1435SOL     OW 4318   2.456   0.745   0.652
 1435SOL    HW1 4319   2.506   0.830   0.633
 1435SOL    HW2 4320   2.368   0.747   0.604
 1436SOL     OW 4321   3.639   0.342   1.642
 1436SOL    HW1 4322   3.622   0.373   1.548
 1436SOL    HW2 4323   3.555   0.305   1.680
 1437SOL     OW 4324   3.592   0.934   1.517
 1437SOL    HW1 4325   3.630   1.025   1.532
 1437SOL    HW2 4326   3.584   0.917   1.418
 1438SOL     OW 4327   2.721   1.374   0.016
 1438SOL    HW1 4328   2.675   1.389   0.104
 1438SOL    HW2 4329   2.765   1.459  -0.014
 1439SOL     OW 4330   2.523   1.790   0.953
 1439SOL    HW1 4331   2.477   1.878   0.940
 1439SOL    HW2 4332   2.622   1.802   0.946
 1440SOL     OW 4333   2.721   0.956   0.861
 1440SOL    HW1 4334   2.775   0.887   0.909
 1440SOL    HW2 4335   2.689   1.025   0.927
 1441SOL     OW 4336   2.945   0.984   0.087
 1441SOL    HW1 4337   2.922   1.037   0.005
 1441SOL    HW2 4338   3.026   0.928   0.068
 1442SOL     OW 4339   3.723   1.569   0.851
 1442SOL    HW1 4340   3.652   1.557   0.781
 1442SOL    HW2 4341   3.724   1.490   0.911
 1443SOL     OW 4342   2.083   1.314   1.844
 1443SOL    HW1 4343   2.018   1.241   1.823
 1443SOL    HW2 4344   2.087   1.328   1.942
 1444SOL     OW 4345   1.941   1.240   0.653
 1444SOL    HW1 4346   1.940   1.193   0.741
 1444SOL    HW2 4347   2.023   1.212   0.602
 1445SOL     OW 4348   2.534   1.391   1.624
 1445SOL    HW1 4349   2.456   1.341   1.662
 1445SOL    HW2 4350   2.531   1.486   1.655
 1446SOL     OW 4351   3.686   0.192   1.227
 1446SOL    HW1 4352   3.682   0.102   1.271
 1446SOL    HW2 4353   3.689   0.181   1.128
 1447SOL     OW 4354   2.290   0.424   0.520
 1447SOL    HW1 4355   2.320   0.352   0.458
 1447SOL    HW2 4356   2.251   0.384   0.603
 1448SOL     OW 4357   3.567   1.487   1.104
 1448SOL    HW1 4358   3.474   1.462   1.077
 1448SOL    HW2 4359   3.593   1.437   1.186
 1449SOL     OW 4360   2.179   0.547   1.280
 1449SOL    HW1 4361   2.217   0.488   1.352
 1449SOL    HW2 4362   2.219   0.521   1.192
 1450SOL     OW 4363   2.674   1.586   0.687
 1450SOL    HW1 4364   2.706   1.596   0.593
 1450SOL    HW2 4365   2.595   1.524   0.689
 1451SOL     OW 4366   3.286   0.214   1.112
 1451SOL    HW1 4367   3.338   0.149   1.167
 1451SOL    HW2 4368   3.237   0.277   1.173
 1452SOL     OW 4369   2.863   0.034   1.154
 1452SOL    HW1 4370   2.800  -0.038   1.123
 1452SOL    HW2 4371   2.956  -0.002   1.154
 1453SOL     OW 4372   2.632   1.330   0.301
 1453SOL    HW1 4373   2.586   1.243   0.318
 1453SOL    HW2 4374   2.723   1.327   0.342
 1454SOL     OW 4375   2.480   1.567   1.284
 1454SOL    HW1 4376   2.475   1.649   1.341
 1454SOL    HW2 4377   2.569   1.564   1.239
 1455SOL     OW 4378   3.214   0.052   0.168
 1455SOL    HW1 4379   3.249   0.011   0.084
 1455SOL    HW2 4380   3.124   0.014   0.188
 1456SOL     OW 4381   3.162   0.453   0.691
 1456SOL    HW1 4382   3.103   0.533   0.695
 1456SOL    HW2 4383   3.177   0.418   0.784
 1457SOL     OW 4384   3.455   0.221   0.882
 1457SOL    HW1 4385   3.371   0.220   0.936
 1457SOL    HW2 4386   3.457   0.304   0.826
 1458SOL     OW 4387   1.901   1.077   0.300
 1458SOL    HW1 4388   2.000   1.066   0.291
 1458SOL    HW2 4389   1.861   0.991   0.332
 1459SOL     OW 4390   2.737   1.646   0.337
 1459SOL    HW1 4391   2.660   1.611   0.283
 1459SOL    HW2 4392   2.705   1.717   0.399
 1460SOL     OW 4393   2.092   0.628   1.975
 1460SOL    HW1 4394   1.999   0.626   2.012
 1460SOL    HW2 4395   2.093   0.589   1.883
 1461SOL     OW 4396   2.087   0.275   2.858
 1461SOL    HW1 4397   2.122   0.258   2.950
 1461SOL    HW2 4398   1.999   0.230   2.846
 1462SOL     OW 4399   1.881   0.368   2.509
 1462SOL    HW1 4400   1.799   0.411   2.548
 1462SOL    HW2 4401   1.853   0.295   2.446
 1463SOL     OW 4402   2.431   1.275   3.027
 1463SOL    HW1 4403   2.338   1.268   2.990
 1463SOL    HW2 4404   2.442   1.364   3.071
 1464SOL     OW 4405   3.417   1.511   2.565
 1464SOL    HW1 4406   3.360   1.495   2.646
 1464SOL    HW2 4407   3.358   1.521   2.485
 1465SOL     OW 4408   2.997   0.703   2.579
 1465SOL    HW1 4409   3.054   0.781   2.554
 1465SOL    HW2 4410   2.937   0.729   2.655
 1466SOL     OW 4411   3.617   0.607   2.093
 1466SOL    HW1 4412   3.605   0.594   1.994
 1466SOL    HW2 4413   3.587   0.526   2.142
 1467SOL     OW 4414   2.630   1.144   2.885
 1467SOL    HW1 4415   2.552   1.161   2.945
 1467SOL    HW2 4416   2.664   1.231   2.849
 1468SOL     OW 4417   2.712   0.798   3.685
 1468SOL    HW1 4418   2.708   0.874   3.750
 1468SOL    HW2 4419   2.734   0.834   3.594
 1469SOL     OW 4420   2.547   1.012   2.527
 1469SOL    HW1 4421   2.616   0.996   2.597
 1469SOL    HW2 4422   2.474   1.069   2.565
 1470SOL     OW 4423   2.548   1.161   3.665
 1470SOL    HW1 4424   2.608   1.240   3.679
 1470SOL    HW2 4425   2.462   1.192   3.624
 1471SOL     OW 4426   2.197   1.435   2.923
 1471SOL    HW1 4427   2.119   1.404   2.870
 1471SOL    HW2 4428   2.255   1.493   2.866
 1472SOL     OW 4429   3.322   1.505   3.201
 1472SOL    HW1 4430   3.346   1.599   3.227
 1472SOL    HW2 4431   3.306   1.451   3.283
 1473SOL     OW 4432   2.300   0.392   3.361
 1473SOL    HW1 4433   2.382   0.336   3.370
 1473SOL    HW2 4434   2.219   0.334   3.365
 1474SOL     OW 4435   3.465   0.447   2.599
 1474SOL    HW1 4436   3.391   0.493   2.549
 1474SOL    HW2 4437   3.516   0.515   2.652
 1475SOL     OW 4438   2.093   1.713   2.345
 1475SOL    HW1 4439   2.127   1.790   2.399
 1475SOL    HW2 4440   2.137   1.713   2.255
 1476SOL     OW 4441   2.989   1.341   3.552
 1476SOL    HW1 4442   3.036   1.341   3.640
 1476SOL    HW2 4443   2.941   1.254   3.541
 1477SOL     OW 4444   2.092   1.434   2.400
 1477SOL    HW1 4445   2.066   1.530   2.400
 1477SOL    HW2 4446   2.021   1.380   2.445
 1478SOL     OW 4447   2.102   1.091   2.748
 1478SOL    HW1 4448   2.116   1.007   2.800
 1478SOL    HW2 4449   2.047   1.155   2.803
 1479SOL     OW 4450   2.482   1.786   3.301
 1479SOL    HW1 4451   2.390   1.769   3.336
 1479SOL    HW2 4452   2.510   1.878   3.327
 1480SOL     OW 4453   2.468   0.964   1.985
 1480SOL    HW1 4454   2.475   1.048   1.931
 1480SOL    HW2 4455   2.514   0.977   2.073
 1481SOL     OW 4456   3.456   0.114   3.342
 1481SOL    HW1 4457   3.438   0.181   3.270
 1481SOL    HW2 4458   3.453   0.160   3.431
 1482SOL     OW 4459   1.984   0.643   2.425
 1482SOL    HW1 4460   1.939   0.555   2.442
 1482SOL    HW2 4461   1.983   0.697   2.509
 1483SOL     OW 4462   3.704   1.767   2.221
 1483SOL    HW1 4463   3.758   1.738   2.301
 1483SOL    HW2 4464   3.734   1.857   2.192
 1484SOL     OW 4465   1.889   1.596   1.979
 1484SOL    HW1 4466   1.870   1.500   2.000
 1484SOL    HW2 4467   1.856   1.654   2.054
 1485SOL     OW 4468   3.551   0.922   2.474
 1485SOL    HW1 4469   3.646   0.893   2.482
 1485SOL    HW2 4470   3.543   0.987   2.399
 1486SOL     OW 4471   3.503   1.108   2.294
 1486SOL    HW1 4472   3.589   1.110   2.242
 1486SOL    HW2 4473   3.517   1.155   2.382
 1487SOL     OW 4474   1.975   0.737   3.459
 1487SOL    HW1 4475   2.063   0.724   3.504
 1487SOL    HW2 4476   1.962   0.834   3.437
 1488SOL     OW 4477   2.475   1.365   2.588
 1488SOL    HW1 4478   2.426   1.278   2.597
 1488SOL    HW2 4479   2.452   1.408   2.501
 1489SOL     OW 4480   3.155   1.228   3.285
 1489SOL    HW1 4481   3.192   1.155   3.227
 1489SOL    HW2 4482   3.207   1.233   3.370
 1490SOL     OW 4483   2.671   0.004   2.364
 1490SOL    HW1 4484   2.711   0.095   2.355
 1490SOL    HW2 4485   2.571   0.012   2.370
 1491SOL     OW 4486   2.059   0.976   3.126
 1491SOL    HW1 4487   2.148   0.931   3.112
 1491SOL    HW2 4488   1.986   0.911   3.107
 1492SOL     OW 4489   3.387   0.999   2.052
 1492SOL    HW1 4490   3.324   0.923   2.065
 1492SOL    HW2 4491   3.435   1.017   2.138
 1493SOL     OW 4492   3.049   1.792   3.478
 1493SOL    HW1 4493   3.073   1.852   3.402
 1493SOL    HW2 4494   3.056   1.697   3.448
 1494SOL     OW 4495   2.179   0.251   3.663
 1494SOL    HW1 4496   2.250   0.322   3.669
 1494SOL    HW2 4497   2.091   0.290   3.691
 1495SOL     OW 4498   3.328   1.417   2.815
 1495SOL    HW1 4499   3.269   1.423   2.895
 1495SOL    HW2 4500   3.313   1.329   2.769
 1496SOL     OW 4501   3.529   1.714   2.434
 1496SOL    HW1 4502   3.488   1.691   2.346
 1496SOL    HW2 4503   3.511   1.640   2.499
 1497SOL     OW 4504   2.460   0.729   2.132
 1497SOL    HW1 4505   2.484   0.798   2.064
 1497SOL    HW2 4506   2.382   0.762   2.186
 1498SOL     OW 4507   3.143   0.345   2.806
 1498SOL    HW1 4508   3.057   0.295   2.793
 1498SOL    HW2 4509   3.205   0.291   2.862
 1499SOL     OW 4510   3.438   1.662   2.169
 1499SOL    HW1 4511   3.527   1.708   2.172
 1499SOL    HW2 4512   3.417   1.638   2.074
 1500SOL     OW 4513   2.669   0.605   3.327
 1500SOL    HW1 4514   2.622   0.602   3.416
 1500SOL    HW2 4515   2.618   0.550   3.261
 1501SOL     OW 4516   3.256   0.469   3.536
 1501SOL    HW1 4517   3.236   0.512   3.624
 1501SOL    HW2 4518   3.334   0.407   3.545
 1502SOL     OW 4519   2.835   0.890   3.434
 1502SOL    HW1 4520   2.881   0.806   3.405
 1502SOL    HW2 4521   2.779   0.924   3.359
 1503SOL     OW 4522   2.853   0.410   3.104
 1503SOL    HW1 4523   2.776   0.444   3.158
 1503SOL    HW2 4524   2.819   0.359   3.025
 1504SOL     OW 4525   2.903   0.701   2.291
 1504SOL    HW1 4526   2.929   0.697   2.387
 1504SOL    HW2 4527   2.818   0.650   2.277
 1505SOL     OW 4528   1.938   0.811   2.651
 1505SOL    HW1 4529   2.037   0.799   2.660
 1505SOL    HW2 4530   1.914   0.906   2.672
 1506SOL     OW 4531   1.992   1.821   3.433
 1506SOL    HW1 4532   1.982   1.806   3.532
 1506SOL    HW2 4533   1.906   1.857   3.397
 1507SOL     OW 4534   2.727   0.348   2.057
 1507SOL    HW1 4535   2.786   0.411   2.008
 1507SOL    HW2 4536   2.746   0.254   2.028
 1508SOL     OW 4537   3.581   0.585   3.693
 1508SOL    HW1 4538   3.555   0.674   3.657
 1508SOL    HW2 4539   3.579   0.517   3.620
 1509SOL     OW 4540   3.224   1.144   2.407
 1509SOL    HW1 4541   3.307   1.115   2.359
 1509SOL    HW2 4542   3.175   1.211   2.351
 1510SOL     OW 4543   2.412   0.196   2.747
 1510SOL    HW1 4544   2.407   0.191   2.847
 1510SOL    HW2 4545   2.414   0.292   2.718
 1511SOL     OW 4546   2.870   1.456   2.339
 1511SOL    HW1 4547   2.824   1.528   2.287
 1511SOL    HW2 4548   2.866   1.476   2.437
 1512SOL     OW 4549   2.213   1.801   2.715
 1512SOL    HW1 4550   2.263   1.715   2.721
 1512SOL    HW2 4551   2.278   1.878   2.712
 1513SOL     OW 4552   3.657   1.066   2.735
 1513SOL    HW1 4553   3.595   1.051   2.659
 1513SOL    HW2 4554   3.605   1.077   2.820
 1514SOL     OW 4555   3.089   1.550   3.368
 1514SOL    HW1 4556   3.095   1.473   3.432
 1514SOL    HW2 4557   3.037   1.524   3.288
 1515SOL     OW 4558   2.183   0.943   2.104
 1515SOL    HW1 4559   2.265   0.982   2.062
 1515SOL    HW2 4560   2.156   0.861   2.055
 1516SOL     OW 4561   3.320   0.735   2.590
 1516SOL    HW1 4562   3.315   0.670   2.665
 1516SOL    HW2 4563   3.400   0.794   2.603
 1517SOL     OW 4564   2.323   1.266   3.589
 1517SOL    HW1 4565   2.273   1.267   3.503
 1517SOL    HW2 4566   2.260   1.248   3.665
 1518SOL     OW 4567   2.973   1.776   2.099
 1518SOL    HW1 4568   2.913   1.714   2.149
 1518SOL    HW2 4569   3.004   1.732   2.014
 1519SOL     OW 4570   2.064   0.285   3.360
 1519SOL    HW1 4571   1.984   0.345   3.347
 1519SOL    HW2 4572   2.054   0.236   3.446
 1520SOL     OW 4573   3.494   1.377   1.943
 1520SOL    HW1 4574   3.462   1.471   1.933
 1520SOL    HW2 4575   3.418   1.314   1.931
 1521SOL     OW 4576   2.326   1.743   2.185
 1521SOL    HW1 4577   2.359   1.782   2.271
 1521SOL    HW2 4578   2.402   1.736   2.120
 1522SOL     OW 4579   3.262   0.107   2.288
 1522SOL    HW1 4580   3.238   0.070   2.198
 1522SOL    HW2 4581   3.361   0.123   2.292
 1523SOL     OW 4582   2.111   1.785   3.103
 1523SOL    HW1 4583   2.168   1.720   3.153
 1523SOL    HW2 4584   2.095   1.752   3.010
 1524SOL     OW 4585   2.802   1.698   2.766
 1524SOL    HW1 4586   2.882   1.641   2.787
 1524SOL    HW2 4587   2.753   1.658   2.689
 1525SOL     OW 4588   2.244   0.700   2.342
 1525SOL    HW1 4589   2.289   0.610   2.339
 1525SOL    HW2 4590   2.150   0.689   2.375
 1526SOL     OW 4591   3.409   0.222   3.591
 1526SOL    HW1 4592   3.404   0.259   3.683
 1526SOL    HW2 4593   3.337   0.153   3.579
 1527SOL     OW 4594   2.476   0.122   1.979
 1527SOL    HW1 4595   2.574   0.100   1.986
 1527SOL    HW2 4596   2.445   0.105   1.886
 1528SOL     OW 4597   2.643   0.264   3.611
 1528SOL    HW1 4598   2.710   0.203   3.654
 1528SOL    HW2 4599   2.570   0.283   3.676
 1529SOL     OW 4600   2.750   1.514   3.057
 1529SOL    HW1 4601   2.727   1.489   2.963
 1529SOL    HW2 4602   2.811   1.445   3.096
 1530SOL     OW 4603   3.213   0.590   3.295
 1530SOL    HW1 4604   3.241   0.547   3.380
 1530SOL    HW2 4605   3.238   0.686   3.296
 1531SOL     OW 4606   2.665   1.402   2.786
 1531SOL    HW1 4607   2.755   1.416   2.744
 1531SOL    HW2 4608   2.594   1.404   2.715
 1532SOL     OW 4609   2.784   0.503   2.761
 1532SOL    HW1 4610   2.759   0.494   2.665
 1532SOL    HW2 4611   2.832   0.421   2.792
 1533SOL     OW 4612   2.401   0.064   2.374
 1533SOL    HW1 4613   2.320   0.065   2.432
 1533SOL    HW2 4614   2.404   0.147   2.319
 1534SOL     OW 4615   3.296   1.188   1.903
 1534SOL    HW1 4616   3.328   1.112   1.960
 1534SOL    HW2 4617   3.204   1.215   1.933
 1535SOL     OW 4618   2.159   0.035   2.033
 1535SOL    HW1 4619   2.208   0.119   2.012
 1535SOL    HW2 4620   2.221  -0.030   2.078
 1536SOL     OW 4621   2.797   0.236   2.342
 1536SOL    HW1 4622   2.749   0.277   2.264
 1536SOL    HW2 4623   2.896   0.234   2.323
 1537SOL     OW 4624   2.938   0.683   3.326
 1537SOL    HW1 4625   2.858   0.622   3.329
 1537SOL    HW2 4626   3.019   0.630   3.302
 1538SOL     OW 4627   3.089   1.570   2.655
 1538SOL    HW1 4628   3.110   1.644   2.590
 1538SOL    HW2 4629   3.157   1.570   2.728
 1539SOL     OW 4630   2.321   1.152   2.603
 1539SOL    HW1 4631   2.250   1.125   2.668
 1539SOL    HW2 4632   2.295   1.124   2.510
 1540SOL     OW 4633   3.133   1.797   2.453
 1540SOL    HW1 4634   3.177   1.861   2.389
 1540SOL    HW2 4635   3.083   1.849   2.523
 1541SOL     OW 4636   2.894   0.549   1.878
 1541SOL    HW1 4637   2.853   0.631   1.839
 1541SOL    HW2 4638   2.958   0.575   1.951
 1542SOL     OW 4639   1.940   0.556   3.248
 1542SOL    HW1 4640   2.032   0.555   3.207
 1542SOL    HW2 4641   1.934   0.630   3.315
 1543SOL     OW 4642   2.423   0.222   3.009
 1543SOL    HW1 4643   2.461   0.138   3.046
 1543SOL    HW2 4644   2.335   0.241   3.053
 1544SOL     OW 4645   2.728   0.454   2.504
 1544SOL    HW1 4646   2.696   0.526   2.442
 1544SOL    HW2 4647   2.752   0.373   2.451
 1545SOL     OW 4648   2.879   0.039   2.615
 1545SOL    HW1 4649   2.807   0.044   2.546
 1545SOL    HW2 4650   2.855  -0.030   2.684
 1546SOL     OW 4651   3.291   1.173   2.729
 1546SOL    HW1 4652   3.236   1.089   2.722
 1546SOL    HW2 4653   3.317   1.202   2.637
 1547SOL     OW 4654   3.328   0.590   2.854
 1547SOL    HW1 4655   3.298   0.495   2.861
 1547SOL    HW2 4656   3.401   0.606   2.920
 1548SOL     OW 4657   3.719   0.833   2.239
 1548SOL    HW1 4658   3.761   0.769   2.303
 1548SOL    HW2 4659   3.681   0.782   2.161
 1549SOL     OW 4660   2.350   1.385   2.036
 1549SOL    HW1 4661   2.263   1.370   2.083
 1549SOL    HW2 4662   2.333   1.411   1.941
 1550SOL     OW 4663   3.526   1.280   2.519
 1550SOL    HW1 4664   3.625   1.288   2.533
 1550SOL    HW2 4665   3.481   1.364   2.550
 1551SOL     OW 4666   3.252   0.575   1.940
 1551SOL    HW1 4667   3.198   0.554   2.021
 1551SOL    HW2 4668   3.343   0.534   1.949
 1552SOL     OW 4669   2.389   0.256   2.190
 1552SOL    HW1 4670   2.416   0.197   2.115
 1552SOL    HW2 4671   2.389   0.351   2.159
 1553SOL     OW 4672   3.616   1.223   3.450
 1553SOL    HW1 4673   3.707   1.184   3.437
 1553SOL    HW2 4674   3.624   1.319   3.474
 1554SOL     OW 4675   2.926   1.347   3.202
 1554SOL    HW1 4676   2.846   1.324   3.257
 1554SOL    HW2 4677   3.009   1.321   3.251
 1555SOL     OW 4678   3.454   1.629   3.487
 1555SOL    HW1 4679   3.481   1.663   3.397
 1555SOL    HW2 4680   3.533   1.591   3.533
 1556SOL     OW 4681   2.973   1.195   2.962
 1556SOL    HW1 4682   2.933   1.239   3.043
 1556SOL    HW2 4683   2.932   1.232   2.879
 1557SOL     OW 4684   3.500   1.099   2.941
 1557SOL    HW1 4685   3.505   1.180   3.000
 1557SOL    HW2 4686   3.414   1.101   2.890
 1558SOL     OW 4687   2.777   0.089   3.264
 1558SOL    HW1 4688   2.802   0.069   3.169
 1558SOL    HW2 4689   2.849   0.145   3.306
 1559SOL     OW 4690   2.842   1.116   3.581
 1559SOL    HW1 4691   2.743   1.122   3.591
 1559SOL    HW2 4692   2.865   1.036   3.525
 1560SOL     OW 4693   2.567   1.050   2.230
 1560SOL    HW1 4694   2.553   1.057   2.329
 1560SOL    HW2 4695   2.651   0.999   2.212
 1561SOL     OW 4696   2.272   0.813   3.113
 1561SOL    HW1 4697   2.358   0.825   3.163
 1561SOL    HW2 4698   2.230   0.726   3.140
 1562SOL     OW 4699   3.136   0.386   3.124
 1562SOL    HW1 4700   3.157   0.460   3.188
 1562SOL    HW2 4701   3.047   0.403   3.081
 1563SOL     OW 4702   1.926   1.564   3.193
 1563SOL    HW1 4703   1.880   1.646   3.159
 1563SOL    HW2 4704   2.024   1.583   3.202
 1564SOL     OW 4705   2.229   1.100   2.363
 1564SOL    HW1 4706   2.222   1.183   2.307
 1564SOL    HW2 4707   2.233   1.020   2.303
 1565SOL     OW 4708   2.428   0.537   2.727
 1565SOL    HW1 4709   2.440   0.603   2.653
 1565SOL    HW2 4710   2.474   0.571   2.810
 1566SOL     OW 4711   3.114   1.348   2.250
 1566SOL    HW1 4712   3.164   1.425   2.290
 1566SOL    HW2 4713   3.019   1.350   2.282
 1567SOL     OW 4714   3.134   1.445   3.004
 1567SOL    HW1 4715   3.181   1.458   3.091
 1567SOL    HW2 4716   3.068   1.371   3.013
 1568SOL     OW 4717   3.444   0.639   2.334
 1568SOL    HW1 4718   3.413   0.700   2.407
 1568SOL    HW2 4719   3.494   0.691   2.265
 1569SOL     OW 4720   2.216   1.510   3.191
 1569SOL    HW1 4721   2.195   1.466   3.104
 1569SOL    HW2 4722   2.313   1.536   3.194
 1570SOL     OW 4723   2.264   0.751   3.460
 1570SOL    HW1 4724   2.332   0.806   3.413
 1570SOL    HW2 4725   2.304   0.663   3.487
 1571SOL     OW 4726   3.449   0.779   3.532
 1571SOL    HW1 4727   3.357   0.817   3.527
 1571SOL    HW2 4728   3.509   0.826   3.467
 1572SOL     OW 4729   2.875   0.105   3.632
 1572SOL    HW1 4730   2.881   0.190   3.580
 1572SOL    HW2 4731   2.907   0.029   3.575
 1573SOL     OW 4732   2.366   0.050   3.602
 1573SOL    HW1 4733   2.324  -0.007   3.532
 1573SOL    HW2 4734   2.300   0.119   3.634
 1574SOL     OW 4735   2.435   0.870   2.891
 1574SOL    HW1 4736   2.479   0.959   2.882
 1574SOL    HW2 4737   2.372   0.870   2.968
 1575SOL     OW 4738   3.222   0.862   2.907
 1575SOL    HW1 4739   3.147   0.862   2.841
 1575SOL    HW2 4740   3.259   0.770   2.916
 1576SOL     OW 4741   3.071   0.525   2.137
 1576SOL    HW1 4742   3.084   0.441   2.191
 1576SOL    HW2 4743   3.042   0.599   2.197
 1577SOL     OW 4744   2.169   0.213   3.093
 1577SOL    HW1 4745   2.146   0.250   3.183
 1577SOL    HW2 4746   2.139   0.118   3.087
 1578SOL     OW 4747   1.899   1.310   3.144
 1578SOL    HW1 4748   1.952   1.261   3.212
 1578SOL    HW2 4749   1.921   1.408   3.149
 1579SOL     OW 4750   2.594   0.634   2.926
 1579SOL    HW1 4751   2.653   0.608   2.850
 1579SOL    HW2 4752   2.566   0.730   2.915
 1580SOL     OW 4753   3.590   0.935   3.716
 1580SOL    HW1 4754   3.544   0.928   3.627
 1580SOL    HW2 4755   3.528   0.979   3.782
 1581SOL     OW 4756   2.169   0.063   2.480
 1581SOL    HW1 4757   2.158   0.157   2.513
 1581SOL    HW2 4758   2.164   0.000   2.557
 1582SOL     OW 4759   3.484   0.367   2.236
 1582SOL    HW1 4760   3.486   0.291   2.300
 1582SOL    HW2 4761   3.436   0.444   2.276
 1583SOL     OW 4762   2.885   0.766   2.828
 1583SOL    HW1 4763   2.900   0.787   2.924
 1583SOL    HW2 4764   2.855   0.671   2.819
 1584SOL     OW 4765   2.842   1.573   3.562
 1584SOL    HW1 4766   2.822   1.617   3.474
 1584SOL    HW2 4767   2.881   1.482   3.546
 1585SOL     OW 4768   3.721   1.518   3.467
 1585SOL    HW1 4769   3.735   1.545   3.372
 1585SOL    HW2 4770   3.804   1.540   3.520
 1586SOL     OW 4771   2.212   0.898   3.666
 1586SOL    HW1 4772   2.288   0.942   3.714
 1586SOL    HW2 4773   2.247   0.851   3.584
 1587SOL     OW 4774   3.402   0.274   1.987
 1587SOL    HW1 4775   3.341   0.199   2.010
 1587SOL    HW2 4776   3.424   0.326   2.070
 1588SOL     OW 4777   3.165   0.838   1.904
 1588SOL    HW1 4778   3.199   0.745   1.919
 1588SOL    HW2 4779   3.183   0.865   1.809
 1589SOL     OW 4780   2.930   1.333   2.711
 1589SOL    HW1 4781   2.937   1.249   2.656
 1589SOL    HW2 4782   2.992   1.402   2.675
 1590SOL     OW 4783   2.181   0.810   2.811
 1590SOL    HW1 4784   2.274   0.846   2.816
 1590SOL    HW2 4785   2.175   0.725   2.863
 1591SOL     OW 4786   2.201   0.509   2.868
 1591SOL    HW1 4787   2.149   0.426   2.851
 1591SOL    HW2 4788   2.278   0.514   2.804
 1592SOL     OW 4789   3.000   0.380   3.540
 1592SOL    HW1 4790   2.955   0.443   3.604
 1592SOL    HW2 4791   3.093   0.411   3.523
 1593SOL     OW 4792   3.022   0.207   3.339
 1593SOL    HW1 4793   3.022   0.271   3.416
 1593SOL    HW2 4794   3.050   0.255   3.256
 1594SOL     OW 4795   1.870   1.326   2.062
 1594SOL    HW1 4796   1.777   1.347   2.031
 1594SOL    HW2 4797   1.880   1.227   2.075
 1595SOL     OW 4798   1.950   1.801   2.789
 1595SOL    HW1 4799   1.908   1.715   2.762
 1595SOL    HW2 4800   2.044   1.804   2.755
 1596SOL     OW 4801   2.366   1.568   2.772
 1596SOL    HW1 4802   2.432   1.642   2.781
 1596SOL    HW2 4803   2.410   1.489   2.730
 1597SOL     OW 4804   2.864   0.796   3.100
 1597SOL    HW1 4805   2.905   0.764   3.186
 1597SOL    HW2 4806   2.768   0.769   3.097
 1598SOL     OW 4807   1.902   0.544   2.976
 1598SOL    HW1 4808   1.987   0.511   2.935
 1598SOL    HW2 4809   1.915   0.559   3.074
 1599SOL     OW 4810   2.051   0.520   3.584
 1599SOL    HW1 4811   2.110   0.480   3.514
 1599SOL    HW2 4812   1.993   0.591   3.543
 1600SOL     OW 4813   3.231   0.950   3.522
 1600SOL    HW1 4814   3.270   1.039   3.542
 1600SOL    HW2 4815   3.241   0.930   3.425
 1601SOL     OW 4816   2.677   0.572   2.187
 1601SOL    HW1 4817   2.684   0.483   2.141
 1601SOL    HW2 4818   2.583   0.606   2.179
 1602SOL     OW 4819   3.519   0.604   3.068
 1602SOL    HW1 4820   3.481   0.535   3.130
 1602SOL    HW2 4821   3.601   0.568   3.024
 1603SOL     OW 4822   2.114   1.564   3.606
 1603SOL    HW1 4823   2.084   1.621   3.682
 1603SOL    HW2 4824   2.107   1.467   3.632
 1604SOL     OW 4825   2.533   0.464   3.131
 1604SOL    HW1 4826   2.499   0.375   3.101
 1604SOL    HW2 4827   2.559   0.518   3.051
 1605SOL     OW 4828   2.792   1.678   3.327
 1605SOL    HW1 4829   2.768   1.660   3.232
 1605SOL    HW2 4830   2.822   1.772   3.337
 1606SOL     OW 4831   2.335   0.500   2.053
 1606SOL    HW1 4832   2.396   0.580   2.057
 1606SOL    HW2 4833   2.240   0.531   2.060
 1607SOL     OW 4834   2.021   1.137   3.328
 1607SOL    HW1 4835   2.043   1.076   3.404
 1607SOL    HW2 4836   2.031   1.088   3.242
 1608SOL     OW 4837   3.209   1.059   3.096
 1608SOL    HW1 4838   3.233   0.996   3.022
 1608SOL    HW2 4839   3.119   1.099   3.078
 1609SOL     OW 4840   3.164   0.855   2.171
 1609SOL    HW1 4841   3.078   0.824   2.213
 1609SOL    HW2 4842   3.160   0.841   2.072
 1610SOL     OW 4843   3.621   1.747   3.016
 1610SOL    HW1 4844   3.682   1.777   2.943
 1610SOL    HW2 4845   3.583   1.658   2.994
 1611SOL     OW 4846   3.114   1.731   2.990
 1611SOL    HW1 4847   3.198   1.736   2.936
 1611SOL    HW2 4848   3.091   1.635   3.008
 1612SOL     OW 4849   1.945   1.258   2.884
 1612SOL    HW1 4850   1.940   1.257   2.984
 1612SOL    HW2 4851   1.862   1.217   2.846
 1613SOL     OW 4852   2.550   1.662   3.578
 1613SOL    HW1 4853   2.494   1.743   3.587
 1613SOL    HW2 4854   2.602   1.666   3.492
 1614SOL     OW 4855   3.588   0.135   2.385
 1614SOL    HW1 4856   3.661   0.118   2.318
 1614SOL    HW2 4857   3.557   0.048   2.423
 1615SOL     OW 4858   3.250   1.573   2.339
 1615SOL    HW1 4859   3.317   1.585   2.265
 1615SOL    HW2 4860   3.210   1.662   2.362
 1616SOL     OW 4861   1.992   1.794   3.713
 1616SOL    HW1 4862   1.951   1.720   3.766
 1616SOL    HW2 4863   2.056   1.845   3.771
 1617SOL     OW 4864   3.142   0.927   2.534
 1617SOL    HW1 4865   3.202   0.846   2.536
 1617SOL    HW2 4866   3.182   0.996   2.474
 1618SOL     OW 4867   2.692   1.273   3.284
 1618SOL    HW1 4868   2.687   1.306   3.379
 1618SOL    HW2 4869   2.606   1.292   3.238
 1619SOL     OW 4870   2.534   1.616   2.016
 1619SOL    HW1 4871   2.543   1.626   1.917
 1619SOL    HW2 4872   2.494   1.527   2.037
 1620SOL     OW 4873   3.512   1.720   3.256
 1620SOL    HW1 4874   3.565   1.730   3.172
 1620SOL    HW2 4875   3.485   1.810   3.290
 1621SOL     OW 4876   3.703   0.175   2.825
 1621SOL    HW1 4877   3.742   0.090   2.789
 1621SOL    HW2 4878   3.605   0.177   2.806
 1622SOL     OW 4879   2.125   0.326   2.582
 1622SOL    HW1 4880   2.046   0.377   2.548
 1622SOL    HW2 4881   2.116   0.311   2.680
 1623SOL     OW 4882   3.056   1.612   1.893
 1623SOL    HW1 4883   3.062   1.519   1.930
 1623SOL    HW2 4884   2.997   1.612   1.813
 1624SOL     OW 4885   2.684   1.002   3.234
 1624SOL    HW1 4886   2.724   1.001   3.142
 1624SOL    HW2 4887   2.694   1.094   3.274
 1625SOL     OW 4888   2.778   0.910   2.153
 1625SOL    HW1 4889   2.841   0.948   2.085
 1625SOL    HW2 4890   2.818   0.827   2.192
 1626SOL     OW 4891   3.366   1.607   1.906
 1626SOL    HW1 4892   3.274   1.644   1.913
 1626SOL    HW2 4893   3.404   1.627   1.816
 1627SOL     OW 4894   2.234   1.288   3.352
 1627SOL    HW1 4895   2.221   1.381   3.318
 1627SOL    HW2 4896   2.150   1.236   3.339
 1628SOL     OW 4897   3.476   1.292   3.151
 1628SOL    HW1 4898   3.536   1.295   3.231
 1628SOL    HW2 4899   3.401   1.356   3.164
 1629SOL     OW 4900   2.901   1.098   2.558
 1629SOL    HW1 4901   2.831   1.051   2.612
 1629SOL    HW2 4902   2.960   1.030   2.515
 1630SOL     OW 4903   2.876   0.236   2.833
 1630SOL    HW1 4904   2.868   0.200   2.740
 1630SOL    HW2 4905   2.874   0.160   2.898
 1631SOL     OW 4906   2.452   1.487   2.353
 1631SOL    HW1 4907   2.494   1.429   2.283
 1631SOL    HW2 4908   2.408   1.566   2.309
 1632SOL     OW 4909   3.571   0.385   3.243
 1632SOL    HW1 4910   3.644   0.454   3.247
 1632SOL    HW2 4911   3.599   0.310   3.184
 1633SOL     OW 4912   2.117   1.348   2.152
 1633SOL    HW1 4913   2.021   1.349   2.125
 1633SOL    HW2 4914   2.129   1.401   2.236
 1634SOL     OW 4915   1.967   1.013   3.588
 1634SOL    HW1 4916   1.890   0.980   3.642
 1634SOL    HW2 4917   2.052   0.983   3.630
 1635SOL     OW 4918   2.534   0.203   3.351
 1635SOL    HW1 4919   2.624   0.187   3.311
 1635SOL    HW2 4920   2.542   0.208   3.450
 1636SOL     OW 4921   1.937   0.345   1.895
 1636SOL    HW1 4922   1.845   0.317   1.866
 1636SOL    HW2 4923   1.968   0.422   1.839
 1637SOL     OW 4924   3.302   0.856   3.260
 1637SOL    HW1 4925   3.245   0.908   3.197
 1637SOL    HW2 4926   3.398   0.868   3.236
 1638SOL     OW 4927   1.934   0.166   2.180
 1638SOL    HW1 4928   1.917   0.249   2.126
 1638SOL    HW2 4929   2.024   0.129   2.158
 1639SOL     OW 4930   3.045   1.335   1.981
 1639SOL    HW1 4931   2.946   1.324   1.983
 1639SOL    HW2 4932   3.079   1.350   2.074
 1640SOL     OW 4933   2.475   0.842   3.293
 1640SOL    HW1 4934   2.531   0.923   3.276
 1640SOL    HW2 4935   2.534   0.762   3.296
 1641SOL     OW 4936   3.355   1.767   2.821
 1641SOL    HW1 4937   3.388   1.831   2.752
 1641SOL    HW2 4938   3.421   1.761   2.896
 1642SOL     OW 4939   2.578   0.565   3.570
 1642SOL    HW1 4940   2.597   0.630   3.644
 1642SOL    HW2 4941   2.638   0.485   3.579
 1643SOL     OW 4942   3.312   1.220   3.495
 1643SOL    HW1 4943   3.303   1.210   3.594
 1643SOL    HW2 4944   3.408   1.213   3.469
 1644SOL     OW 4945   2.252   1.741   3.422
 1644SOL    HW1 4946   2.161   1.782   3.420
 1644SOL    HW2 4947   2.245   1.647   3.454
 1645SOL     OW 4948   3.536   0.883   3.116
 1645SOL    HW1 4949   3.509   0.794   3.079
 1645SOL    HW2 4950   3.537   0.951   3.043
 1646SOL     OW 4951   3.087   0.325   2.311
 1646SOL    HW1 4952   3.152   0.251   2.300
 1646SOL    HW2 4953   3.107   0.375   2.395
 1647SOL     OW 4954   2.456   0.745   2.514
 1647SOL    HW1 4955   2.506   0.830   2.495
 1647SOL    HW2 4956   2.368   0.747   2.466
 1648SOL     OW 4957   3.639   0.342   3.504
 1648SOL    HW1 4958   3.622   0.373   3.410
 1648SOL    HW2 4959   3.555   0.305   3.542
 1649SOL     OW 4960   3.592   0.934   3.379
 1649SOL    HW1 4961   3.630   1.025   3.394
 1649SOL    HW2 4962   3.584   0.917   3.280
 1650SOL     OW 4963   2.721   1.374   1.878
 1650SOL    HW1 4964   2.675   1.389   1.966
 1650SOL    HW2 4965   2.765   1.459   1.848
 1651SOL     OW 4966   2.523   1.790   2.815
 1651SOL    HW1 4967   2.477   1.878   2.802
 1651SOL    HW2 4968   2.622   1.802   2.808
 1652SOL     OW 4969   2.721   0.956   2.723
 1652SOL    HW1 4970   2.775   0.887   2.771
 1652SOL    HW2 4971   2.689   1.025   2.789
 1653SOL     OW 4972   2.945   0.984   1.949
 1653SOL    HW1 4973   2.922   1.037   1.867
 1653SOL    HW2 4974   3.026   0.928   1.930
 1654SOL     OW 4975   3.723   1.569   2.713
 1654SOL    HW1 4976   3.652   1.557   2.643
 1654SOL    HW2 4977   3.724   1.490   2.773
 1655SOL     OW 4978   2.083   1.314   3.706
 1655SOL    HW1 4979   2.018   1.241   3.685
 1655SOL    HW2 4980   2.087   1.328   3.804
 1656SOL     OW 4981   1.941   1.240   2.515
 1656SOL    HW1 4982   1.940   1.193   2.603
 1656SOL    HW2 4983   2.023   1.212   2.464
 1657SOL     OW 4984   2.534   1.391   3.486
 1657SOL    HW1 4985   2.456   1.341   3.524
 1657SOL    HW2 4986   2.531   1.486   3.517
 1658SOL     OW 4987   3.686   0.192   3.089
 1658SOL    HW1 4988   3.682   0.102   3.133
 1658SOL    HW2 4989   3.689   0.181   2.990
 1659SOL     OW 4990   2.290   0.424   2.382
 1659SOL    HW1 4991   2.320   0.352   2.320
 1659SOL    HW2 4992   2.251   0.384   2.465
 1660SOL     OW 4993   3.567   1.487   2.966
 1660SOL    HW1 4994   3.474   1.462   2.939
 1660SOL    HW2 4995   3.593   1.437   3.048
 1661SOL     OW 4996   2.179   0.547   3.142
 1661SOL    HW1 4997   2.217   0.488   3.214
 1661SOL    HW2 4998   2.219   0.521   3.054
 1662SOL     OW 4999   2.674   1.586   2.549
 1662SOL    HW1 5000   2.706   1.596   2.455
 1662SOL    HW2 5001   2.595   1.524   2.551
 1663SOL     OW 5002   3.286   0.214   2.974
 1663SOL    HW1 5003   3.338   0.149   3.029
 1663SOL    HW2 5004   3.237   0.277   3.035
 1664SOL     OW 5005   2.863   0.034   3.016
 1664SOL    HW1 5006   2.800  -0.038   2.985
 1664SOL    HW2 5007   2.956  -0.002   3.016
 1665SOL     OW 5008   2.632   1.330   2.163
 1665SOL    HW1 5009   2.586   1.243   2.180
 1665SOL    HW2 5010   2.723   1.327   2.204
 1666SOL     OW 5011   2.480   1.567   3.146
 1666SOL    HW1 5012   2.475   1.649   3.203
 1666SOL    HW2 5013   2.569   1.564   3.101
 1667SOL     OW 5014   3.214   0.052   2.030
 1667SOL    HW1 5015   3.249   0.011   1.946
 1667SOL    HW2 5016   3.124   0.014   2.050
 1668SOL     OW 5017   3.162   0.453   2.553
 1668SOL    HW1 5018   3.103   0.533   2.557
 1668SOL    HW2 5019   3.177   0.418   2.646
 1669SOL     OW 5020   3.455   0.221   2.744
 1669SOL    HW1 5021   3.371   0.220   2.798
 1669SOL    HW2 5022   3.457   0.304   2.688
 1670SOL     OW 5023   1.901   1.077   2.162
 1670SOL    HW1 5024   2.000   1.066   2.153
 1670SOL    HW2 5025   1.861   0.991   2.194
 1671SOL     OW 5026   2.737   1.646   2.199
 1671SOL    HW1 5027   2.660   1.611   2.145
 1671SOL    HW2 5028   2.705   1.717   2.261
 1672SOL     OW 5029   2.092   0.628   3.837
 1672SOL    HW1 5030   1.999   0.626   3.874
 1672SOL    HW2 5031   2.093   0.589   3.745
 1673SOL     OW 5032   1.881   0.368   4.371
 1673SOL    HW1 5033   1.799   0.411   4.410
 1673SOL    HW2 5034   1.853   0.295   4.308
 1674SOL     OW 5035   3.617   0.607   3.955
 1674SOL    HW1 5036   3.605   0.594   3.856
 1674SOL    HW2 5037   3.587   0.526   4.004
 1675SOL     OW 5038   2.547   1.012   4.389
 1675SOL    HW1 5039   2.616   0.996   4.459
 1675SOL    HW2 5040   2.474   1.069   4.427
 1676SOL     OW 5041   3.465   0.447   4.461
 1676SOL    HW1 5042   3.391   0.493   4.411
 1676SOL    HW2 5043   3.516   0.515   4.514
 1677SOL     OW 5044   2.093   1.713   4.207
 1677SOL    HW1 5045   2.127   1.790   4.261
 1677SOL    HW2 5046   2.137   1.713   4.117
 1678SOL     OW 5047   2.092   1.434   4.262
 1678SOL    HW1 5048   2.066   1.530   4.262
 1678SOL    HW2 5049   2.021   1.380   4.307
 1679SOL     OW 5050   2.468   0.964   3.847
 1679SOL    HW1 5051   2.475   1.048   3.793
 1679SOL    HW2 5052   2.514   0.977   3.935
 1680SOL     OW 5053   1.984   0.643   4.287
 1680SOL    HW1 5054   1.939   0.555   4.304
 1680SOL    HW2 5055   1.983   0.697   4.371
 1681SOL     OW 5056   3.704   1.767   4.083
 1681SOL    HW1 5057   3.758   1.738   4.163
 1681SOL    HW2 5058   3.734   1.857   4.054
 1682SOL     OW 5059   1.889   1.596   3.841
 1682SOL    HW1 5060   1.870   1.500   3.862
 1682SOL    HW2 5061   1.856   1.654   3.916
 1683SOL     OW 5062   3.551   0.922   4.336
 1683SOL    HW1 5063   3.646   0.893   4.344
 1683SOL    HW2 5064   3.543   0.987   4.261
 1684SOL     OW 5065   3.503   1.108   4.156
 1684SOL    HW1 5066   3.589   1.110   4.104
 1684SOL    HW2 5067   3.517   1.155   4.244
 1685SOL     OW 5068   2.475   1.365   4.450
 1685SOL    HW1 5069   2.426   1.278   4.459
 1685SOL    HW2 5070   2.452   1.408   4.363
 1686SOL     OW 5071   2.671   0.004   4.226
 1686SOL    HW1 5072   2.711   0.095   4.217
 1686SOL    HW2 5073   2.571   0.012   4.232
 1687SOL     OW 5074   3.387   0.999   3.914
 1687SOL    HW1 5075   3.324   0.923   3.927
 1687SOL    HW2 5076   3.435   1.017   4.000
 1688SOL     OW 5077   3.529   1.714   4.296
 1688SOL    HW1 5078   3.488   1.691   4.208
 1688SOL    HW2 5079   3.511   1.640   4.361
 1689SOL     OW 5080   2.460   0.729   3.994
 1689SOL    HW1 5081   2.484   0.798   3.926
 1689SOL    HW2 5082   2.382   0.762   4.048
 1690SOL     OW 5083   3.143   0.345   4.668
 1690SOL    HW1 5084   3.057   0.295   4.655
 1690SOL    HW2 5085   3.205   0.291   4.724
 1691SOL     OW 5086   3.438   1.662   4.031
 1691SOL    HW1 5087   3.527   1.708   4.034
 1691SOL    HW2 5088   3.417   1.638   3.936
 1692SOL     OW 5089   2.903   0.701   4.153
 1692SOL    HW1 5090   2.929   0.697   4.249
 1692SOL    HW2 5091   2.818   0.650   4.139
 1693SOL     OW 5092   1.938   0.811   4.513
 1693SOL    HW1 5093   2.037   0.799   4.522
 1693SOL    HW2 5094   1.914   0.906   4.534
 1694SOL     OW 5095   2.727   0.348   3.919
 1694SOL    HW1 5096   2.786   0.411   3.870
 1694SOL    HW2 5097   2.746   0.254   3.890
 1695SOL     OW 5098   3.224   1.144   4.269
 1695SOL    HW1 5099   3.307   1.115   4.221
 1695SOL    HW2 5100   3.175   1.211   4.213
 1696SOL     OW 5101   2.870   1.456   4.201
 1696SOL    HW1 5102   2.824   1.528   4.149
 1696SOL    HW2 5103   2.866   1.476   4.299
 1697SOL     OW 5104   2.213   1.801   4.577
 1697SOL    HW1 5105   2.263   1.715   4.583
 1697SOL    HW2 5106   2.278   1.878   4.574
 1698SOL     OW 5107   3.657   1.066   4.597
 1698SOL    HW1 5108   3.595   1.051   4.521
 1698SOL    HW2 5109   3.605   1.077   4.682
 1699SOL     OW 5110   2.183   0.943   3.966
 1699SOL    HW1 5111   2.265   0.982   3.924
 1699SOL    HW2 5112   2.156   0.861   3.917
 1700SOL     OW 5113   2.973   1.776   3.961
 1700SOL    HW1 5114   2.913   1.714   4.011
 1700SOL    HW2 5115   3.004   1.732   3.876
 1701SOL     OW 5116   3.494   1.377   3.805
 1701SOL    HW1 5117   3.462   1.471   3.795
 1701SOL    HW2 5118   3.418   1.314   3.793
 1702SOL     OW 5119   2.326   1.743   4.047
 1702SOL    HW1 5120   2.359   1.782   4.133
 1702SOL    HW2 5121   2.402   1.736   3.982
 1703SOL     OW 5122   3.262   0.107   4.150
 1703SOL    HW1 5123   3.238   0.070   4.060
 1703SOL    HW2 5124   3.361   0.123   4.154
 1704SOL     OW 5125   2.802   1.698   4.628
 1704SOL    HW1 5126   2.882   1.641   4.649
 1704SOL    HW2 5127   2.753   1.658   4.551
 1705SOL     OW 5128   2.244   0.700   4.204
 1705SOL    HW1 5129   2.289   0.610   4.201
 1705SOL    HW2 5130   2.150   0.689   4.237
 1706SOL     OW 5131   2.476   0.122   3.841
 1706SOL    HW1 5132   2.574   0.100   3.848
 1706SOL    HW2 5133   2.445   0.105   3.748
 1707SOL     OW 5134   2.401   0.064   4.236
 1707SOL    HW1 5135   2.320   0.065   4.294
 1707SOL    HW2 5136   2.404   0.147   4.181
 1708SOL     OW 5137   3.296   1.188   3.765
 1708SOL    HW1 5138   3.328   1.112   3.822
 1708SOL    HW2 5139   3.204   1.215   3.795
 1709SOL     OW 5140   2.159   0.035   3.895
 1709SOL    HW1 5141   2.208   0.119   3.874
 1709SOL    HW2 5142   2.221  -0.030   3.940
 1710SOL     OW 5143   2.797   0.236   4.204
 1710SOL    HW1 5144   2.749   0.277   4.126
 1710SOL    HW2 5145   2.896   0.234   4.185
 1711SOL     OW 5146   2.321   1.152   4.465
 1711SOL    HW1 5147   2.250   1.125   4.530
 1711SOL    HW2 5148   2.295   1.124   4.372
 1712SOL     OW 5149   3.133   1.797   4.315
 1712SOL    HW1 5150   3.177   1.861   4.251
 1712SOL    HW2 5151   3.083   1.849   4.385
 1713SOL     OW 5152   2.894   0.549   3.740
 1713SOL    HW1 5153   2.853   0.631   3.701
 1713SOL    HW2 5154   2.958   0.575   3.813
 1714SOL     OW 5155   2.728   0.454   4.366
 1714SOL    HW1 5156   2.696   0.526   4.304
 1714SOL    HW2 5157   2.752   0.373   4.313
 1715SOL     OW 5158   3.719   0.833   4.101
 1715SOL    HW1 5159   3.761   0.769   4.165
 1715SOL    HW2 5160   3.681   0.782   4.023
 1716SOL     OW 5161   2.350   1.385   3.898
 1716SOL    HW1 5162   2.263   1.370   3.945
 1716SOL    HW2 5163   2.333   1.411   3.803
 1717SOL     OW 5164   3.526   1.280   4.381
 1717SOL    HW1 5165   3.625   1.288   4.395
 1717SOL    HW2 5166   3.481   1.364   4.412
 1718SOL     OW 5167   3.252   0.575   3.802
 1718SOL    HW1 5168   3.198   0.554   3.883
 1718SOL    HW2 5169   3.343   0.534   3.811
 1719SOL     OW 5170   2.389   0.256   4.052
 1719SOL    HW1 5171   2.416   0.197   3.977
 1719SOL    HW2 5172   2.389   0.351   4.021
 1720SOL     OW 5173   2.567   1.050   4.092
 1720SOL    HW1 5174   2.553   1.057   4.191
 1720SOL    HW2 5175   2.651   0.999   4.074
 1721SOL     OW 5176   2.229   1.100   4.225
 1721SOL    HW1 5177   2.222   1.183   4.169
 1721SOL    HW2 5178   2.233   1.020   4.165
 1722SOL     OW 5179   3.114   1.348   4.112
 1722SOL    HW1 5180   3.164   1.425   4.152
 1722SOL    HW2 5181   3.019   1.350   4.144
 1723SOL     OW 5182   3.444   0.639   4.196
 1723SOL    HW1 5183   3.413   0.700   4.269
 1723SOL    HW2 5184   3.494   0.691   4.127
 1724SOL     OW 5185   3.071   0.525   3.999
 1724SOL    HW1 5186   3.084   0.441   4.053
 1724SOL    HW2 5187   3.042   0.599   4.059
 1725SOL     OW 5188   2.169   0.063   4.342
 1725SOL    HW1 5189   2.158   0.157   4.375
 1725SOL    HW2 5190   2.164   0.000   4.419
 1726SOL     OW 5191   3.484   0.367   4.098
 1726SOL    HW1 5192   3.486   0.291   4.162
 1726SOL    HW2 5193   3.436   0.444   4.138
 1727SOL     OW 5194   3.402   0.274   3.849
 1727SOL    HW1 5195   3.341   0.199   3.872
 1727SOL    HW2 5196   3.424   0.326   3.932
 1728SOL     OW 5197   3.165   0.838   3.766
 1728SOL    HW1 5198   3.199   0.745   3.781
 1728SOL    HW2 5199   3.183   0.865   3.671
 1729SOL     OW 5200   1.870   1.326   3.924
 1729SOL    HW1 5201   1.777   1.347   3.893
 1729SOL    HW2 5202   1.880   1.227   3.937
 1730SOL     OW 5203   2.677   0.572   4.049
 1730SOL    HW1 5204   2.684   0.483   4.003
 1730SOL    HW2 5205   2.583   0.606   4.041
 1731SOL     OW 5206   2.335   0.500   3.915
 1731SOL    HW1 5207   2.396   0.580   3.919
 1731SOL    HW2 5208   2.240   0.531   3.922
 1732SOL     OW 5209   3.164   0.855   4.033
 1732SOL    HW1 5210   3.078   0.824   4.075
 1732SOL    HW2 5211   3.160   0.841   3.934
 1733SOL     OW 5212   3.588   0.135   4.247
 1733SOL    HW1 5213   3.661   0.118   4.180
 1733SOL    HW2 5214   3.557   0.048   4.285
 1734SOL     OW 5215   3.250   1.573   4.201
 1734SOL    HW1 5216   3.317   1.585   4.127
 1734SOL    HW2 5217   3.210   1.662   4.224
 1735SOL     OW 5218   2.534   1.616   3.878
 1735SOL    HW1 5219   2.543   1.626   3.779
 1735SOL    HW2 5220   2.494   1.527   3.899
 1736SOL     OW 5221   3.056   1.612   3.755
 1736SOL    HW1 5222   3.062   1.519   3.792
 1736SOL    HW2 5223   2.997   1.612   3.675
 1737SOL     OW 5224   2.778   0.910   4.015
 1737SOL    HW1 5225   2.841   0.948   3.947
 1737SOL    HW2 5226   2.818   0.827   4.054
 1738SOL     OW 5227   3.366   1.607   3.768
 1738SOL    HW1 5228   3.274   1.644   3.775
 1738SOL    HW2 5229   3.404   1.627   3.678
 1739SOL     OW 5230   2.452   1.487   4.215
 1739SOL    HW1 5231   2.494   1.429   4.145
 1739SOL    HW2 5232   2.408   1.566   4.171
 1740SOL     OW 5233   2.117   1.348   4.014
 1740SOL    HW1 5234   2.021   1.349   3.987
 1740SOL    HW2 5235   2.129   1.401   4.098
 1741SOL     OW 5236   1.937   0.345   3.757
 1741SOL    HW1 5237   1.845   0.317   3.728
 1741SOL    HW2 5238   1.968   0.422   3.701
 1742SOL     OW 5239   1.934   0.166   4.042
 1742SOL    HW1 5240   1.917   0.249   3.988
 1742SOL    HW2 5241   2.024   0.129   4.020
 1743SOL     OW 5242   3.045   1.335   3.843
 1743SOL    HW1 5243   2.946   1.324   3.845
 1743SOL    HW2 5244   3.079   1.350   3.936
 1744SOL     OW 5245   3.087   0.325   4.173
 1744SOL    HW1 5246   3.152   0.251   4.162
 1744SOL    HW2 5247   3.107   0.375   4.257
 1745SOL     OW 5248   2.456   0.745   4.376
 1745SOL    HW1 5249   2.506   0.830   4.357
 1745SOL    HW2 5250   2.368   0.747   4.328
 1746SOL     OW 5251   2.721   1.374   3.740
 1746SOL    HW1 5252   2.675   1.389   3.828
 1746SOL    HW2 5253   2.765   1.459   3.710
 1747SOL     OW 5254   2.523   1.790   4.677
 1747SOL    HW1 5255   2.477   1.878   4.664
 1747SOL    HW2 5256   2.622   1.802   4.670
 1748SOL     OW 5257   2.721   0.956   4.585
 1748SOL    HW1 5258   2.775   0.887   4.633
 1748SOL    HW2 5259   2.689   1.025   4.651
 1749SOL     OW 5260   2.945   0.984   3.811
 1749SOL    HW1 5261   2.922   1.037   3.729
 1749SOL    HW2 5262   3.026   0.928   3.792
 1750SOL     OW 5263   1.941   1.240   4.377
 1750SOL    HW1 5264   1.940   1.193   4.465
 1750SOL    HW2 5265   2.023   1.212   4.326
 1751SOL     OW 5266   2.290   0.424   4.244
 1751SOL    HW1 5267   2.320   0.352   4.182
 1751SOL    HW2 5268   2.251   0.384   4.327
 1752SOL     OW 5269   2.674   1.586   4.411
 1752SOL    HW1 5270   2.706   1.596   4.317
 1752SOL    HW2 5271   2.595   1.524   4.413
 1753SOL     OW 5272   2.632   1.330   4.025
 1753SOL    HW1 5273   2.586   1.243   4.042
 1753SOL    HW2 5274   2.723   1.327   4.066
 1754SOL     OW 5275   3.214   0.052   3.892
 1754SOL    HW1 5276   3.249   0.011   3.808
 1754SOL    HW2 5277   3.124   0.014   3.912
 1755SOL     OW 5278   3.162   0.453   4.415
 1755SOL    HW1 5279   3.103   0.533   4.419
 1755SOL    HW2 5280   3.177   0.418   4.508
 1756SOL     OW 5281   1.901   1.077   4.024
 1756SOL    HW1 5282   2.000   1.066   4.015
 1756SOL    HW2 5283   1.861   0.991   4.056
 1757SOL     OW 5284   2.737   1.646   4.061
 1757SOL    HW1 5285   2.660   1.611   4.007
 1757SOL    HW2 5286   2.705   1.717   4.123
 1758SOL     OW 5287   2.092   2.490   0.113
 1758SOL    HW1 5288   1.999   2.488   0.150
 1758SOL    HW2 5289   2.093   2.451   0.021
 1759SOL     OW 5290   2.087   2.137   0.996
 1759SOL    HW1 5291   2.122   2.120   1.088
 1759SOL    HW2 5292   1.999   2.092   0.984
 1760SOL     OW 5293   1.881   2.230   0.647
 1760SOL    HW1 5294   1.799   2.273   0.686
 1760SOL    HW2 5295   1.853   2.157   0.584
 1761SOL     OW 5296   2.431   3.137   1.165
 1761SOL    HW1 5297   2.338   3.130   1.128
 1761SOL    HW2 5298   2.442   3.226   1.209
 1762SOL     OW 5299   3.417   3.373   0.703
 1762SOL    HW1 5300   3.360   3.357   0.784
 1762SOL    HW2 5301   3.358   3.383   0.623
 1763SOL     OW 5302   2.997   2.565   0.717
 1763SOL    HW1 5303   3.054   2.643   0.692
 1763SOL    HW2 5304   2.937   2.591   0.793
 1764SOL     OW 5305   3.617   2.469   0.231
 1764SOL    HW1 5306   3.605   2.456   0.132
 1764SOL    HW2 5307   3.587   2.388   0.280
 1765SOL     OW 5308   2.630   3.006   1.023
 1765SOL    HW1 5309   2.552   3.023   1.083
 1765SOL    HW2 5310   2.664   3.093   0.987
 1766SOL     OW 5311   2.712   2.660   1.823
 1766SOL    HW1 5312   2.708   2.736   1.888
 1766SOL    HW2 5313   2.734   2.696   1.732
 1767SOL     OW 5314   2.547   2.874   0.665
 1767SOL    HW1 5315   2.616   2.858   0.735
 1767SOL    HW2 5316   2.474   2.931   0.703
 1768SOL     OW 5317   2.548   3.023   1.803
 1768SOL    HW1 5318   2.608   3.102   1.817
 1768SOL    HW2 5319   2.462   3.054   1.762
 1769SOL     OW 5320   2.197   3.297   1.061
 1769SOL    HW1 5321   2.119   3.266   1.008
 1769SOL    HW2 5322   2.255   3.355   1.004
 1770SOL     OW 5323   3.322   3.367   1.339
 1770SOL    HW1 5324   3.346   3.461   1.365
 1770SOL    HW2 5325   3.306   3.313   1.421
 1771SOL     OW 5326   2.300   2.254   1.499
 1771SOL    HW1 5327   2.382   2.198   1.508
 1771SOL    HW2 5328   2.219   2.196   1.503
 1772SOL     OW 5329   3.465   2.309   0.737
 1772SOL    HW1 5330   3.391   2.355   0.687
 1772SOL    HW2 5331   3.516   2.377   0.790
 1773SOL     OW 5332   2.093   3.575   0.483
 1773SOL    HW1 5333   2.127   3.652   0.537
 1773SOL    HW2 5334   2.137   3.575   0.393
 1774SOL     OW 5335   2.989   3.203   1.690
 1774SOL    HW1 5336   3.036   3.203   1.778
 1774SOL    HW2 5337   2.941   3.116   1.679
 1775SOL     OW 5338   2.092   3.296   0.538
 1775SOL    HW1 5339   2.066   3.392   0.538
 1775SOL    HW2 5340   2.021   3.242   0.583
 1776SOL     OW 5341   2.102   2.953   0.886
 1776SOL    HW1 5342   2.116   2.869   0.938
 1776SOL    HW2 5343   2.047   3.017   0.941
 1777SOL     OW 5344   2.482   3.648   1.439
 1777SOL    HW1 5345   2.390   3.631   1.474
 1777SOL    HW2 5346   2.510   3.740   1.465
 1778SOL     OW 5347   2.468   2.826   0.123
 1778SOL    HW1 5348   2.475   2.910   0.069
 1778SOL    HW2 5349   2.514   2.839   0.211
 1779SOL     OW 5350   3.456   1.976   1.480
 1779SOL    HW1 5351   3.438   2.043   1.408
 1779SOL    HW2 5352   3.453   2.022   1.569
 1780SOL     OW 5353   1.984   2.505   0.563
 1780SOL    HW1 5354   1.939   2.417   0.580
 1780SOL    HW2 5355   1.983   2.559   0.647
 1781SOL     OW 5356   3.704   3.629   0.359
 1781SOL    HW1 5357   3.758   3.600   0.439
 1781SOL    HW2 5358   3.734   3.719   0.330
 1782SOL     OW 5359   1.889   3.458   0.117
 1782SOL    HW1 5360   1.870   3.362   0.138
 1782SOL    HW2 5361   1.856   3.516   0.192
 1783SOL     OW 5362   3.551   2.784   0.612
 1783SOL    HW1 5363   3.646   2.755   0.620
 1783SOL    HW2 5364   3.543   2.849   0.537
 1784SOL     OW 5365   3.503   2.970   0.432
 1784SOL    HW1 5366   3.589   2.972   0.380
 1784SOL    HW2 5367   3.517   3.017   0.520
 1785SOL     OW 5368   1.975   2.599   1.597
 1785SOL    HW1 5369   2.063   2.586   1.642
 1785SOL    HW2 5370   1.962   2.696   1.575
 1786SOL     OW 5371   2.475   3.227   0.726
 1786SOL    HW1 5372   2.426   3.140   0.735
 1786SOL    HW2 5373   2.452   3.270   0.639
 1787SOL     OW 5374   3.155   3.090   1.423
 1787SOL    HW1 5375   3.192   3.017   1.365
 1787SOL    HW2 5376   3.207   3.095   1.508
 1788SOL     OW 5377   2.671   1.866   0.502
 1788SOL    HW1 5378   2.711   1.957   0.493
 1788SOL    HW2 5379   2.571   1.874   0.508
 1789SOL     OW 5380   2.059   2.838   1.264
 1789SOL    HW1 5381   2.148   2.793   1.250
 1789SOL    HW2 5382   1.986   2.773   1.245
 1790SOL     OW 5383   3.387   2.861   0.190
 1790SOL    HW1 5384   3.324   2.785   0.203
 1790SOL    HW2 5385   3.435   2.879   0.276
 1791SOL     OW 5386   3.049   3.654   1.616
 1791SOL    HW1 5387   3.073   3.714   1.540
 1791SOL    HW2 5388   3.056   3.559   1.586
 1792SOL     OW 5389   2.179   2.113   1.801
 1792SOL    HW1 5390   2.250   2.184   1.807
 1792SOL    HW2 5391   2.091   2.152   1.829
 1793SOL     OW 5392   3.328   3.279   0.953
 1793SOL    HW1 5393   3.269   3.285   1.033
 1793SOL    HW2 5394   3.313   3.191   0.907
 1794SOL     OW 5395   3.529   3.576   0.572
 1794SOL    HW1 5396   3.488   3.553   0.484
 1794SOL    HW2 5397   3.511   3.502   0.637
 1795SOL     OW 5398   2.460   2.591   0.270
 1795SOL    HW1 5399   2.484   2.660   0.202
 1795SOL    HW2 5400   2.382   2.624   0.324
 1796SOL     OW 5401   3.143   2.207   0.944
 1796SOL    HW1 5402   3.057   2.157   0.931
 1796SOL    HW2 5403   3.205   2.153   1.000
 1797SOL     OW 5404   3.438   3.524   0.307
 1797SOL    HW1 5405   3.527   3.570   0.310
 1797SOL    HW2 5406   3.417   3.500   0.212
 1798SOL     OW 5407   2.669   2.467   1.465
 1798SOL    HW1 5408   2.622   2.464   1.554
 1798SOL    HW2 5409   2.618   2.412   1.399
 1799SOL     OW 5410   3.256   2.331   1.674
 1799SOL    HW1 5411   3.236   2.374   1.762
 1799SOL    HW2 5412   3.334   2.269   1.683
 1800SOL     OW 5413   2.835   2.752   1.572
 1800SOL    HW1 5414   2.881   2.668   1.543
 1800SOL    HW2 5415   2.779   2.786   1.497
 1801SOL     OW 5416   2.853   2.272   1.242
 1801SOL    HW1 5417   2.776   2.306   1.296
 1801SOL    HW2 5418   2.819   2.221   1.163
 1802SOL     OW 5419   2.903   2.563   0.429
 1802SOL    HW1 5420   2.929   2.559   0.525
 1802SOL    HW2 5421   2.818   2.512   0.415
 1803SOL     OW 5422   1.938   2.673   0.789
 1803SOL    HW1 5423   2.037   2.661   0.798
 1803SOL    HW2 5424   1.914   2.768   0.810
 1804SOL     OW 5425   1.992   3.683   1.571
 1804SOL    HW1 5426   1.982   3.668   1.670
 1804SOL    HW2 5427   1.906   3.719   1.535
 1805SOL     OW 5428   2.727   2.210   0.195
 1805SOL    HW1 5429   2.786   2.273   0.146
 1805SOL    HW2 5430   2.746   2.116   0.166
 1806SOL     OW 5431   3.581   2.447   1.831
 1806SOL    HW1 5432   3.555   2.536   1.795
 1806SOL    HW2 5433   3.579   2.379   1.758
 1807SOL     OW 5434   3.224   3.006   0.545
 1807SOL    HW1 5435   3.307   2.977   0.497
 1807SOL    HW2 5436   3.175   3.073   0.489
 1808SOL     OW 5437   2.412   2.058   0.885
 1808SOL    HW1 5438   2.407   2.053   0.985
 1808SOL    HW2 5439   2.414   2.154   0.856
 1809SOL     OW 5440   2.870   3.318   0.477
 1809SOL    HW1 5441   2.824   3.390   0.425
 1809SOL    HW2 5442   2.866   3.338   0.575
 1810SOL     OW 5443   2.213   3.663   0.853
 1810SOL    HW1 5444   2.263   3.577   0.859
 1810SOL    HW2 5445   2.278   3.740   0.850
 1811SOL     OW 5446   3.657   2.928   0.873
 1811SOL    HW1 5447   3.595   2.913   0.797
 1811SOL    HW2 5448   3.605   2.939   0.958
 1812SOL     OW 5449   3.089   3.412   1.506
 1812SOL    HW1 5450   3.095   3.335   1.570
 1812SOL    HW2 5451   3.037   3.386   1.426
 1813SOL     OW 5452   2.183   2.805   0.242
 1813SOL    HW1 5453   2.265   2.844   0.200
 1813SOL    HW2 5454   2.156   2.723   0.193
 1814SOL     OW 5455   3.320   2.597   0.728
 1814SOL    HW1 5456   3.315   2.532   0.803
 1814SOL    HW2 5457   3.400   2.656   0.741
 1815SOL     OW 5458   2.323   3.128   1.727
 1815SOL    HW1 5459   2.273   3.129   1.641
 1815SOL    HW2 5460   2.260   3.110   1.803
 1816SOL     OW 5461   2.973   3.638   0.237
 1816SOL    HW1 5462   2.913   3.576   0.287
 1816SOL    HW2 5463   3.004   3.594   0.152
 1817SOL     OW 5464   2.064   2.147   1.498
 1817SOL    HW1 5465   1.984   2.207   1.485
 1817SOL    HW2 5466   2.054   2.098   1.584
 1818SOL     OW 5467   3.494   3.239   0.081
 1818SOL    HW1 5468   3.462   3.333   0.071
 1818SOL    HW2 5469   3.418   3.176   0.069
 1819SOL     OW 5470   2.326   3.605   0.323
 1819SOL    HW1 5471   2.359   3.644   0.409
 1819SOL    HW2 5472   2.402   3.598   0.258
 1820SOL     OW 5473   3.262   1.969   0.426
 1820SOL    HW1 5474   3.238   1.932   0.336
 1820SOL    HW2 5475   3.361   1.985   0.430
 1821SOL     OW 5476   2.111   3.647   1.241
 1821SOL    HW1 5477   2.168   3.582   1.291
 1821SOL    HW2 5478   2.095   3.614   1.148
 1822SOL     OW 5479   2.802   3.560   0.904
 1822SOL    HW1 5480   2.882   3.503   0.925
 1822SOL    HW2 5481   2.753   3.520   0.827
 1823SOL     OW 5482   2.244   2.562   0.480
 1823SOL    HW1 5483   2.289   2.472   0.477
 1823SOL    HW2 5484   2.150   2.551   0.513
 1824SOL     OW 5485   3.409   2.084   1.729
 1824SOL    HW1 5486   3.404   2.121   1.821
 1824SOL    HW2 5487   3.337   2.015   1.717
 1825SOL     OW 5488   2.643   2.126   1.749
 1825SOL    HW1 5489   2.710   2.065   1.792
 1825SOL    HW2 5490   2.570   2.145   1.814
 1826SOL     OW 5491   2.750   3.376   1.195
 1826SOL    HW1 5492   2.727   3.351   1.101
 1826SOL    HW2 5493   2.811   3.307   1.234
 1827SOL     OW 5494   3.213   2.452   1.433
 1827SOL    HW1 5495   3.241   2.409   1.518
 1827SOL    HW2 5496   3.238   2.548   1.434
 1828SOL     OW 5497   2.665   3.264   0.924
 1828SOL    HW1 5498   2.755   3.278   0.882
 1828SOL    HW2 5499   2.594   3.266   0.853
 1829SOL     OW 5500   2.784   2.365   0.899
 1829SOL    HW1 5501   2.759   2.356   0.803
 1829SOL    HW2 5502   2.832   2.283   0.930
 1830SOL     OW 5503   2.401   1.926   0.512
 1830SOL    HW1 5504   2.320   1.927   0.570
 1830SOL    HW2 5505   2.404   2.009   0.457
 1831SOL     OW 5506   3.296   3.050   0.041
 1831SOL    HW1 5507   3.328   2.974   0.098
 1831SOL    HW2 5508   3.204   3.077   0.071
 1832SOL     OW 5509   2.797   2.098   0.480
 1832SOL    HW1 5510   2.749   2.139   0.402
 1832SOL    HW2 5511   2.896   2.096   0.461
 1833SOL     OW 5512   2.938   2.545   1.464
 1833SOL    HW1 5513   2.858   2.484   1.467
 1833SOL    HW2 5514   3.019   2.492   1.440
 1834SOL     OW 5515   3.089   3.432   0.793
 1834SOL    HW1 5516   3.110   3.506   0.728
 1834SOL    HW2 5517   3.157   3.432   0.866
 1835SOL     OW 5518   2.321   3.014   0.741
 1835SOL    HW1 5519   2.250   2.987   0.806
 1835SOL    HW2 5520   2.295   2.986   0.648
 1836SOL     OW 5521   3.133   3.659   0.591
 1836SOL    HW1 5522   3.177   3.723   0.527
 1836SOL    HW2 5523   3.083   3.711   0.661
 1837SOL     OW 5524   2.894   2.411   0.016
 1837SOL    HW1 5525   2.853   2.493  -0.023
 1837SOL    HW2 5526   2.958   2.437   0.089
 1838SOL     OW 5527   1.940   2.418   1.386
 1838SOL    HW1 5528   2.032   2.417   1.345
 1838SOL    HW2 5529   1.934   2.492   1.453
 1839SOL     OW 5530   2.423   2.084   1.147
 1839SOL    HW1 5531   2.461   2.000   1.184
 1839SOL    HW2 5532   2.335   2.103   1.191
 1840SOL     OW 5533   2.728   2.316   0.642
 1840SOL    HW1 5534   2.696   2.388   0.580
 1840SOL    HW2 5535   2.752   2.235   0.589
 1841SOL     OW 5536   2.879   1.901   0.753
 1841SOL    HW1 5537   2.807   1.906   0.684
 1841SOL    HW2 5538   2.855   1.832   0.822
 1842SOL     OW 5539   3.291   3.035   0.867
 1842SOL    HW1 5540   3.236   2.951   0.860
 1842SOL    HW2 5541   3.317   3.064   0.775
 1843SOL     OW 5542   3.328   2.452   0.992
 1843SOL    HW1 5543   3.298   2.357   0.999
 1843SOL    HW2 5544   3.401   2.468   1.058
 1844SOL     OW 5545   3.719   2.695   0.377
 1844SOL    HW1 5546   3.761   2.631   0.441
 1844SOL    HW2 5547   3.681   2.644   0.299
 1845SOL     OW 5548   2.350   3.247   0.174
 1845SOL    HW1 5549   2.263   3.232   0.221
 1845SOL    HW2 5550   2.333   3.273   0.079
 1846SOL     OW 5551   3.526   3.142   0.657
 1846SOL    HW1 5552   3.625   3.150   0.671
 1846SOL    HW2 5553   3.481   3.226   0.688
 1847SOL     OW 5554   3.252   2.437   0.078
 1847SOL    HW1 5555   3.198   2.416   0.159
 1847SOL    HW2 5556   3.343   2.396   0.087
 1848SOL     OW 5557   2.389   2.118   0.328
 1848SOL    HW1 5558   2.416   2.059   0.253
 1848SOL    HW2 5559   2.389   2.213   0.297
 1849SOL     OW 5560   3.616   3.085   1.588
 1849SOL    HW1 5561   3.707   3.046   1.575
 1849SOL    HW2 5562   3.624   3.181   1.612
 1850SOL     OW 5563   2.926   3.209   1.340
 1850SOL    HW1 5564   2.846   3.186   1.395
 1850SOL    HW2 5565   3.009   3.183   1.389
 1851SOL     OW 5566   3.454   3.491   1.625
 1851SOL    HW1 5567   3.481   3.525   1.535
 1851SOL    HW2 5568   3.533   3.453   1.671
 1852SOL     OW 5569   2.973   3.057   1.100
 1852SOL    HW1 5570   2.933   3.101   1.181
 1852SOL    HW2 5571   2.932   3.094   1.017
 1853SOL     OW 5572   3.500   2.961   1.079
 1853SOL    HW1 5573   3.505   3.042   1.138
 1853SOL    HW2 5574   3.414   2.963   1.028
 1854SOL     OW 5575   2.777   1.951   1.402
 1854SOL    HW1 5576   2.802   1.931   1.307
 1854SOL    HW2 5577   2.849   2.007   1.444
 1855SOL     OW 5578   2.842   2.978   1.719
 1855SOL    HW1 5579   2.743   2.984   1.729
 1855SOL    HW2 5580   2.865   2.898   1.663
 1856SOL     OW 5581   2.567   2.912   0.368
 1856SOL    HW1 5582   2.553   2.919   0.467
 1856SOL    HW2 5583   2.651   2.861   0.350
 1857SOL     OW 5584   2.272   2.675   1.251
 1857SOL    HW1 5585   2.358   2.687   1.301
 1857SOL    HW2 5586   2.230   2.588   1.278
 1858SOL     OW 5587   3.136   2.248   1.262
 1858SOL    HW1 5588   3.157   2.322   1.326
 1858SOL    HW2 5589   3.047   2.265   1.219
 1859SOL     OW 5590   1.926   3.426   1.331
 1859SOL    HW1 5591   1.880   3.508   1.297
 1859SOL    HW2 5592   2.024   3.445   1.340
 1860SOL     OW 5593   2.229   2.962   0.501
 1860SOL    HW1 5594   2.222   3.045   0.445
 1860SOL    HW2 5595   2.233   2.882   0.441
 1861SOL     OW 5596   2.428   2.399   0.865
 1861SOL    HW1 5597   2.440   2.465   0.791
 1861SOL    HW2 5598   2.474   2.433   0.948
 1862SOL     OW 5599   3.114   3.210   0.388
 1862SOL    HW1 5600   3.164   3.287   0.428
 1862SOL    HW2 5601   3.019   3.212   0.420
 1863SOL     OW 5602   3.134   3.307   1.142
 1863SOL    HW1 5603   3.181   3.320   1.229
 1863SOL    HW2 5604   3.068   3.233   1.151
 1864SOL     OW 5605   3.444   2.501   0.472
 1864SOL    HW1 5606   3.413   2.562   0.545
 1864SOL    HW2 5607   3.494   2.553   0.403
 1865SOL     OW 5608   2.216   3.372   1.329
 1865SOL    HW1 5609   2.195   3.328   1.242
 1865SOL    HW2 5610   2.313   3.398   1.332
 1866SOL     OW 5611   2.264   2.613   1.598
 1866SOL    HW1 5612   2.332   2.668   1.551
 1866SOL    HW2 5613   2.304   2.525   1.625
 1867SOL     OW 5614   3.449   2.641   1.670
 1867SOL    HW1 5615   3.357   2.679   1.665
 1867SOL    HW2 5616   3.509   2.688   1.605
 1868SOL     OW 5617   2.875   1.967   1.770
 1868SOL    HW1 5618   2.881   2.052   1.718
 1868SOL    HW2 5619   2.907   1.891   1.713
 1869SOL     OW 5620   2.366   1.912   1.740
 1869SOL    HW1 5621   2.324   1.855   1.670
 1869SOL    HW2 5622   2.300   1.981   1.772
 1870SOL     OW 5623   2.435   2.732   1.029
 1870SOL    HW1 5624   2.479   2.821   1.020
 1870SOL    HW2 5625   2.372   2.732   1.106
 1871SOL     OW 5626   3.222   2.724   1.045
 1871SOL    HW1 5627   3.147   2.724   0.979
 1871SOL    HW2 5628   3.259   2.632   1.054
 1872SOL     OW 5629   3.071   2.387   0.275
 1872SOL    HW1 5630   3.084   2.303   0.329
 1872SOL    HW2 5631   3.042   2.461   0.335
 1873SOL     OW 5632   2.169   2.075   1.231
 1873SOL    HW1 5633   2.146   2.112   1.321
 1873SOL    HW2 5634   2.139   1.980   1.225
 1874SOL     OW 5635   1.899   3.172   1.282
 1874SOL    HW1 5636   1.952   3.123   1.350
 1874SOL    HW2 5637   1.921   3.270   1.287
 1875SOL     OW 5638   2.594   2.496   1.064
 1875SOL    HW1 5639   2.653   2.470   0.988
 1875SOL    HW2 5640   2.566   2.592   1.053
 1876SOL     OW 5641   3.590   2.797   1.854
 1876SOL    HW1 5642   3.544   2.790   1.765
 1876SOL    HW2 5643   3.528   2.841   1.920
 1877SOL     OW 5644   2.169   1.925   0.618
 1877SOL    HW1 5645   2.158   2.019   0.651
 1877SOL    HW2 5646   2.164   1.862   0.695
 1878SOL     OW 5647   3.484   2.229   0.374
 1878SOL    HW1 5648   3.486   2.153   0.438
 1878SOL    HW2 5649   3.436   2.306   0.414
 1879SOL     OW 5650   2.885   2.628   0.966
 1879SOL    HW1 5651   2.900   2.649   1.062
 1879SOL    HW2 5652   2.855   2.533   0.957
 1880SOL     OW 5653   2.842   3.435   1.700
 1880SOL    HW1 5654   2.822   3.479   1.612
 1880SOL    HW2 5655   2.881   3.344   1.684
 1881SOL     OW 5656   3.721   3.380   1.605
 1881SOL    HW1 5657   3.735   3.407   1.510
 1881SOL    HW2 5658   3.804   3.402   1.658
 1882SOL     OW 5659   2.212   2.760   1.804
 1882SOL    HW1 5660   2.288   2.804   1.852
 1882SOL    HW2 5661   2.247   2.713   1.722
 1883SOL     OW 5662   3.402   2.136   0.125
 1883SOL    HW1 5663   3.341   2.061   0.148
 1883SOL    HW2 5664   3.424   2.188   0.208
 1884SOL     OW 5665   3.165   2.700   0.042
 1884SOL    HW1 5666   3.199   2.607   0.057
 1884SOL    HW2 5667   3.183   2.727  -0.053
 1885SOL     OW 5668   2.930   3.195   0.849
 1885SOL    HW1 5669   2.937   3.111   0.794
 1885SOL    HW2 5670   2.992   3.264   0.813
 1886SOL     OW 5671   2.181   2.672   0.949
 1886SOL    HW1 5672   2.274   2.708   0.954
 1886SOL    HW2 5673   2.175   2.587   1.001
 1887SOL     OW 5674   2.201   2.371   1.006
 1887SOL    HW1 5675   2.149   2.288   0.989
 1887SOL    HW2 5676   2.278   2.376   0.942
 1888SOL     OW 5677   3.000   2.242   1.678
 1888SOL    HW1 5678   2.955   2.305   1.742
 1888SOL    HW2 5679   3.093   2.273   1.661
 1889SOL     OW 5680   3.022   2.069   1.477
 1889SOL    HW1 5681   3.022   2.133   1.554
 1889SOL    HW2 5682   3.050   2.117   1.394
 1890SOL     OW 5683   1.870   3.188   0.200
 1890SOL    HW1 5684   1.777   3.209   0.169
 1890SOL    HW2 5685   1.880   3.089   0.213
 1891SOL     OW 5686   1.950   3.663   0.927
 1891SOL    HW1 5687   1.908   3.577   0.900
 1891SOL    HW2 5688   2.044   3.666   0.893
 1892SOL     OW 5689   2.366   3.430   0.910
 1892SOL    HW1 5690   2.432   3.504   0.919
 1892SOL    HW2 5691   2.410   3.351   0.868
 1893SOL     OW 5692   2.864   2.658   1.238
 1893SOL    HW1 5693   2.905   2.626   1.324
 1893SOL    HW2 5694   2.768   2.631   1.235
 1894SOL     OW 5695   1.902   2.406   1.114
 1894SOL    HW1 5696   1.987   2.373   1.073
 1894SOL    HW2 5697   1.915   2.421   1.212
 1895SOL     OW 5698   2.051   2.382   1.722
 1895SOL    HW1 5699   2.110   2.342   1.652
 1895SOL    HW2 5700   1.993   2.453   1.681
 1896SOL     OW 5701   3.231   2.812   1.660
 1896SOL    HW1 5702   3.270   2.901   1.680
 1896SOL    HW2 5703   3.241   2.792   1.563
 1897SOL     OW 5704   2.677   2.434   0.325
 1897SOL    HW1 5705   2.684   2.345   0.279
 1897SOL    HW2 5706   2.583   2.468   0.317
 1898SOL     OW 5707   3.519   2.466   1.206
 1898SOL    HW1 5708   3.481   2.397   1.268
 1898SOL    HW2 5709   3.601   2.430   1.162
 1899SOL     OW 5710   2.114   3.426   1.744
 1899SOL    HW1 5711   2.084   3.483   1.820
 1899SOL    HW2 5712   2.107   3.329   1.770
 1900SOL     OW 5713   2.533   2.326   1.269
 1900SOL    HW1 5714   2.499   2.237   1.239
 1900SOL    HW2 5715   2.559   2.380   1.189
 1901SOL     OW 5716   2.792   3.540   1.465
 1901SOL    HW1 5717   2.768   3.522   1.370
 1901SOL    HW2 5718   2.822   3.634   1.475
 1902SOL     OW 5719   2.335   2.362   0.191
 1902SOL    HW1 5720   2.396   2.442   0.195
 1902SOL    HW2 5721   2.240   2.393   0.198
 1903SOL     OW 5722   2.021   2.999   1.466
 1903SOL    HW1 5723   2.043   2.938   1.542
 1903SOL    HW2 5724   2.031   2.950   1.380
 1904SOL     OW 5725   3.209   2.921   1.234
 1904SOL    HW1 5726   3.233   2.858   1.160
 1904SOL    HW2 5727   3.119   2.961   1.216
 1905SOL     OW 5728   3.164   2.717   0.309
 1905SOL    HW1 5729   3.078   2.686   0.351
 1905SOL    HW2 5730   3.160   2.703   0.210
 1906SOL     OW 5731   3.621   3.609   1.154
 1906SOL    HW1 5732   3.682   3.639   1.081
 1906SOL    HW2 5733   3.583   3.520   1.132
 1907SOL     OW 5734   3.114   3.593   1.128
 1907SOL    HW1 5735   3.198   3.598   1.074
 1907SOL    HW2 5736   3.091   3.497   1.146
 1908SOL     OW 5737   1.945   3.120   1.022
 1908SOL    HW1 5738   1.940   3.119   1.122
 1908SOL    HW2 5739   1.862   3.079   0.984
 1909SOL     OW 5740   2.550   3.524   1.716
 1909SOL    HW1 5741   2.494   3.605   1.725
 1909SOL    HW2 5742   2.602   3.528   1.630
 1910SOL     OW 5743   2.765   1.948   0.133
 1910SOL    HW1 5744   2.816   1.949   0.047
 1910SOL    HW2 5745   2.821   1.906   0.204
 1911SOL     OW 5746   3.588   1.997   0.523
 1911SOL    HW1 5747   3.661   1.980   0.456
 1911SOL    HW2 5748   3.557   1.910   0.561
 1912SOL     OW 5749   3.250   3.435   0.477
 1912SOL    HW1 5750   3.317   3.447   0.403
 1912SOL    HW2 5751   3.210   3.524   0.500
 1913SOL     OW 5752   1.992   3.656   1.851
 1913SOL    HW1 5753   1.951   3.582   1.904
 1913SOL    HW2 5754   2.056   3.707   1.909
 1914SOL     OW 5755   3.142   2.789   0.672
 1914SOL    HW1 5756   3.202   2.708   0.674
 1914SOL    HW2 5757   3.182   2.858   0.612
 1915SOL     OW 5758   2.692   3.135   1.422
 1915SOL    HW1 5759   2.687   3.168   1.517
 1915SOL    HW2 5760   2.606   3.154   1.376
 1916SOL     OW 5761   2.534   3.478   0.154
 1916SOL    HW1 5762   2.543   3.488   0.055
 1916SOL    HW2 5763   2.494   3.389   0.175
 1917SOL     OW 5764   3.512   3.582   1.394
 1917SOL    HW1 5765   3.565   3.592   1.310
 1917SOL    HW2 5766   3.485   3.672   1.428
 1918SOL     OW 5767   3.703   2.037   0.963
 1918SOL    HW1 5768   3.742   1.952   0.927
 1918SOL    HW2 5769   3.605   2.039   0.944
 1919SOL     OW 5770   2.125   2.188   0.720
 1919SOL    HW1 5771   2.046   2.239   0.686
 1919SOL    HW2 5772   2.116   2.173   0.818
 1920SOL     OW 5773   3.056   3.474   0.031
 1920SOL    HW1 5774   3.062   3.381   0.068
 1920SOL    HW2 5775   2.997   3.474  -0.049
 1921SOL     OW 5776   2.684   2.864   1.372
 1921SOL    HW1 5777   2.724   2.863   1.280
 1921SOL    HW2 5778   2.694   2.956   1.412
 1922SOL     OW 5779   2.778   2.772   0.291
 1922SOL    HW1 5780   2.841   2.810   0.223
 1922SOL    HW2 5781   2.818   2.689   0.330
 1923SOL     OW 5782   3.366   3.469   0.044
 1923SOL    HW1 5783   3.274   3.506   0.051
 1923SOL    HW2 5784   3.404   3.489  -0.046
 1924SOL     OW 5785   2.234   3.150   1.490
 1924SOL    HW1 5786   2.221   3.243   1.456
 1924SOL    HW2 5787   2.150   3.098   1.477
 1925SOL     OW 5788   3.476   3.154   1.289
 1925SOL    HW1 5789   3.536   3.157   1.369
 1925SOL    HW2 5790   3.401   3.218   1.302
 1926SOL     OW 5791   2.901   2.960   0.696
 1926SOL    HW1 5792   2.831   2.913   0.750
 1926SOL    HW2 5793   2.960   2.892   0.653
 1927SOL     OW 5794   2.876   2.098   0.971
 1927SOL    HW1 5795   2.868   2.062   0.878
 1927SOL    HW2 5796   2.874   2.022   1.036
 1928SOL     OW 5797   2.452   3.349   0.491
 1928SOL    HW1 5798   2.494   3.291   0.421
 1928SOL    HW2 5799   2.408   3.428   0.447
 1929SOL     OW 5800   3.571   2.247   1.381
 1929SOL    HW1 5801   3.644   2.316   1.385
 1929SOL    HW2 5802   3.599   2.172   1.322
 1930SOL     OW 5803   2.117   3.210   0.290
 1930SOL    HW1 5804   2.021   3.211   0.263
 1930SOL    HW2 5805   2.129   3.263   0.374
 1931SOL     OW 5806   1.967   2.875   1.726
 1931SOL    HW1 5807   1.890   2.842   1.780
 1931SOL    HW2 5808   2.052   2.845   1.768
 1932SOL     OW 5809   2.534   2.065   1.489
 1932SOL    HW1 5810   2.624   2.049   1.449
 1932SOL    HW2 5811   2.542   2.070   1.588
 1933SOL     OW 5812   1.937   2.207   0.033
 1933SOL    HW1 5813   1.845   2.179   0.004
 1933SOL    HW2 5814   1.968   2.284  -0.023
 1934SOL     OW 5815   3.302   2.718   1.398
 1934SOL    HW1 5816   3.245   2.770   1.335
 1934SOL    HW2 5817   3.398   2.730   1.374
 1935SOL     OW 5818   1.934   2.028   0.318
 1935SOL    HW1 5819   1.917   2.111   0.264
 1935SOL    HW2 5820   2.024   1.991   0.296
 1936SOL     OW 5821   3.045   3.197   0.119
 1936SOL    HW1 5822   2.946   3.186   0.121
 1936SOL    HW2 5823   3.079   3.212   0.212
 1937SOL     OW 5824   2.475   2.704   1.431
 1937SOL    HW1 5825   2.531   2.785   1.414
 1937SOL    HW2 5826   2.534   2.624   1.434
 1938SOL     OW 5827   3.355   3.629   0.959
 1938SOL    HW1 5828   3.388   3.693   0.890
 1938SOL    HW2 5829   3.421   3.623   1.034
 1939SOL     OW 5830   2.578   2.427   1.708
 1939SOL    HW1 5831   2.597   2.492   1.782
 1939SOL    HW2 5832   2.638   2.347   1.717
 1940SOL     OW 5833   3.312   3.082   1.633
 1940SOL    HW1 5834   3.303   3.072   1.732
 1940SOL    HW2 5835   3.408   3.075   1.607
 1941SOL     OW 5836   2.252   3.603   1.560
 1941SOL    HW1 5837   2.161   3.644   1.558
 1941SOL    HW2 5838   2.245   3.509   1.592
 1942SOL     OW 5839   3.536   2.745   1.254
 1942SOL    HW1 5840   3.509   2.656   1.217
 1942SOL    HW2 5841   3.537   2.813   1.181
 1943SOL     OW 5842   3.087   2.187   0.449
 1943SOL    HW1 5843   3.152   2.113   0.438
 1943SOL    HW2 5844   3.107   2.237   0.533
 1944SOL     OW 5845   2.456   2.607   0.652
 1944SOL    HW1 5846   2.506   2.692   0.633
 1944SOL    HW2 5847   2.368   2.609   0.604
 1945SOL     OW 5848   3.639   2.204   1.642
 1945SOL    HW1 5849   3.622   2.235   1.548
 1945SOL    HW2 5850   3.555   2.167   1.680
 1946SOL     OW 5851   3.592   2.796   1.517
 1946SOL    HW1 5852   3.630   2.887   1.532
 1946SOL    HW2 5853   3.584   2.779   1.418
 1947SOL     OW 5854   2.721   3.236   0.016
 1947SOL    HW1 5855   2.675   3.251   0.104
 1947SOL    HW2 5856   2.765   3.321  -0.014
 1948SOL     OW 5857   2.523   3.652   0.953
 1948SOL    HW1 5858   2.477   3.740   0.940
 1948SOL    HW2 5859   2.622   3.664   0.946
 1949SOL     OW 5860   2.721   2.818   0.861
 1949SOL    HW1 5861   2.775   2.749   0.909
 1949SOL    HW2 5862   2.689   2.887   0.927
 1950SOL     OW 5863   2.945   2.846   0.087
 1950SOL    HW1 5864   2.922   2.899   0.005
 1950SOL    HW2 5865   3.026   2.790   0.068
 1951SOL     OW 5866   3.723   3.431   0.851
 1951SOL    HW1 5867   3.652   3.419   0.781
 1951SOL    HW2 5868   3.724   3.352   0.911
 1952SOL     OW 5869   2.083   3.176   1.844
 1952SOL    HW1 5870   2.018   3.103   1.823
 1952SOL    HW2 5871   2.087   3.190   1.942
 1953SOL     OW 5872   1.941   3.102   0.653
 1953SOL    HW1 5873   1.940   3.055   0.741
 1953SOL    HW2 5874   2.023   3.074   0.602
 1954SOL     OW 5875   2.534   3.253   1.624
 1954SOL    HW1 5876   2.456   3.203   1.662
 1954SOL    HW2 5877   2.531   3.348   1.655
 1955SOL     OW 5878   3.686   2.054   1.227
 1955SOL    HW1 5879   3.682   1.964   1.271
 1955SOL    HW2 5880   3.689   2.043   1.128
 1956SOL     OW 5881   2.290   2.286   0.520
 1956SOL    HW1 5882   2.320   2.214   0.458
 1956SOL    HW2 5883   2.251   2.246   0.603
 1957SOL     OW 5884   3.567   3.349   1.104
 1957SOL    HW1 5885   3.474   3.324   1.077
 1957SOL    HW2 5886   3.593   3.299   1.186
 1958SOL     OW 5887   2.179   2.409   1.280
 1958SOL    HW1 5888   2.217   2.350   1.352
 1958SOL    HW2 5889   2.219   2.383   1.192
 1959SOL     OW 5890   2.674   3.448   0.687
 1959SOL    HW1 5891   2.706   3.458   0.593
 1959SOL    HW2 5892   2.595   3.386   0.689
 1960SOL     OW 5893   3.286   2.076   1.112
 1960SOL    HW1 5894   3.338   2.011   1.167
 1960SOL    HW2 5895   3.237   2.139   1.173
 1961SOL     OW 5896   2.863   1.896   1.154
 1961SOL    HW1 5897   2.800   1.824   1.123
 1961SOL    HW2 5898   2.956   1.860   1.154
 1962SOL     OW 5899   2.632   3.192   0.301
 1962SOL    HW1 5900   2.586   3.105   0.318
 1962SOL    HW2 5901   2.723   3.189   0.342
 1963SOL     OW 5902   2.480   3.429   1.284
 1963SOL    HW1 5903   2.475   3.511   1.341
 1963SOL    HW2 5904   2.569   3.426   1.239
 1964SOL     OW 5905   3.214   1.914   0.168
 1964SOL    HW1 5906   3.249   1.873   0.084
 1964SOL    HW2 5907   3.124   1.876   0.188
 1965SOL     OW 5908   3.162   2.315   0.691
 1965SOL    HW1 5909   3.103   2.395   0.695
 1965SOL    HW2 5910   3.177   2.280   0.784
 1966SOL     OW 5911   3.455   2.083   0.882
 1966SOL    HW1 5912   3.371   2.082   0.936
 1966SOL    HW2 5913   3.457   2.166   0.826
 1967SOL     OW 5914   1.901   2.939   0.300
 1967SOL    HW1 5915   2.000   2.928   0.291
 1967SOL    HW2 5916   1.861   2.853   0.332
 1968SOL     OW 5917   2.737   3.508   0.337
 1968SOL    HW1 5918   2.660   3.473   0.283
 1968SOL    HW2 5919   2.705   3.579   0.399
 1969SOL     OW 5920   2.092   2.490   1.975
 1969SOL    HW1 5921   1.999   2.488   2.012
 1969SOL    HW2 5922   2.093   2.451   1.883
 1970SOL     OW 5923   2.087   2.137   2.858
 1970SOL    HW1 5924   2.122   2.120   2.950
 1970SOL    HW2 5925   1.999   2.092   2.846
 1971SOL     OW 5926   1.881   2.230   2.509
 1971SOL    HW1 5927   1.799   2.273   2.548
 1971SOL    HW2 5928   1.853   2.157   2.446
 1972SOL     OW 5929   2.431   3.137   3.027
 1972SOL    HW1 5930   2.338   3.130   2.990
 1972SOL    HW2 5931   2.442   3.226   3.071
 1973SOL     OW 5932   3.417   3.373   2.565
 1973SOL    HW1 5933   3.360   3.357   2.646
 1973SOL    HW2 5934   3.358   3.383   2.485
 1974SOL     OW 5935   2.997   2.565   2.579
 1974SOL    HW1 5936   3.054   2.643   2.554
 1974SOL    HW2 5937   2.937   2.591   2.655
 1975SOL     OW 5938   3.617   2.469   2.093
 1975SOL    HW1 5939   3.605   2.456   1.994
 1975SOL    HW2 5940   3.587   2.388   2.142
 1976SOL     OW 5941   2.630   3.006   2.885
 1976SOL    HW1 5942   2.552   3.023   2.945
 1976SOL    HW2 5943   2.664   3.093   2.849
 1977SOL     OW 5944   2.712   2.660   3.685
 1977SOL    HW1 5945   2.708   2.736   3.750
 1977SOL    HW2 5946   2.734   2.696   3.594
 1978SOL     OW 5947   2.547   2.874   2.527
 1978SOL    HW1 5948   2.616   2.858   2.597
 1978SOL    HW2 5949   2.474   2.931   2.565
 1979SOL     OW 5950   2.548   3.023   3.665
 1979SOL    HW1 5951   2.608   3.102   3.679
 1979SOL    HW2 5952   2.462   3.054   3.624
 1980SOL     OW 5953   2.197   3.297   2.923
 1980SOL    HW1 5954   2.119   3.266   2.870
 1980SOL    HW2 5955   2.255   3.355   2.866
 1981SOL     OW 5956   3.322   3.367   3.201
 1981SOL    HW1 5957   3.346   3.461   3.227
 1981SOL    HW2 5958   3.306   3.313   3.283
 1982SOL     OW 5959   2.300   2.254   3.361
 1982SOL    HW1 5960   2.382   2.198   3.370
 1982SOL    HW2 5961   2.219   2.196   3.365
 1983SOL     OW 5962   3.465   2.309   2.599
 1983SOL    HW1 5963   3.391   2.355   2.549
 1983SOL    HW2 5964   3.516   2.377   2.652
 1984SOL     OW 5965   2.093   3.575   2.345
 1984SOL    HW1 5966   2.127   3.652   2.399
 1984SOL    HW2 5967   2.137   3.575   2.255
 1985SOL     OW 5968   2.989   3.203   3.552
 1985SOL    HW1 5969   3.036   3.203   3.640
 1985SOL    HW2 5970   2.941   3.116   3.541
 1986SOL     OW 5971   2.092   3.296   2.400
 1986SOL    HW1 5972   2.066   3.392   2.400
 1986SOL    HW2 5973   2.021   3.242   2.445
 1987SOL     OW 5974   2.102   2.953   2.748
 1987SOL    HW1 5975   2.116   2.869   2.800
 1987SOL    HW2 5976   2.047   3.017   2.803
 1988SOL     OW 5977   2.482   3.648   3.301
 1988SOL    HW1 5978   2.390   3.631   3.336
 1988SOL    HW2 5979   2.510   3.740   3.327
 1989SOL     OW 5980   2.468   2.826   1.985
 1989SOL    HW1 5981   2.475   2.910   1.931
 1989SOL    HW2 5982   2.514   2.839   2.073
 1990SOL     OW 5983   3.456   1.976   3.342
 1990SOL    HW1 5984   3.438   2.043   3.270
 1990SOL    HW2 5985   3.453   2.022   3.431
 1991SOL     OW 5986   1.984   2.505   2.425
 1991SOL    HW1 5987   1.939   2.417   2.442
 1991SOL    HW2 5988   1.983   2.559   2.509
 1992SOL     OW 5989   3.704   3.629   2.221
 1992SOL    HW1 5990   3.758   3.600   2.301
 1992SOL    HW2 5991   3.734   3.719   2.192
 1993SOL     OW 5992   1.889   3.458   1.979
 1993SOL    HW1 5993   1.870   3.362   2.000
 1993SOL    HW2 5994   1.856   3.516   2.054
 1994SOL     OW 5995   3.551   2.784   2.474
 1994SOL    HW1 5996   3.646   2.755   2.482
 1994SOL    HW2 5997   3.543   2.849   2.399
 1995SOL     OW 5998   3.503   2.970   2.294
 1995SOL    HW1 5999   3.589   2.972   2.242
 1995SOL    HW2 6000   3.517   3.017   2.382
 1996SOL     OW 6001   1.975   2.599   3.459
 1996SOL    HW1 6002   2.063   2.586   3.504
 1996SOL    HW2 6003   1.962   2.696   3.437
 1997SOL     OW 6004   2.475   3.227   2.588
 1997SOL    HW1 6005   2.426   3.140   2.597
 1997SOL    HW2 6006   2.452   3.270   2.501
 1998SOL     OW 6007   3.155   3.090   3.285
 1998SOL    HW1 6008   3.192   3.017   3.227
 1998SOL    HW2 6009   3.207   3.095   3.370
 1999SOL     OW 6010   2.671   1.866   2.364
 1999SOL    HW1 6011   2.711   1.957   2.355
 1999SOL    HW2 6012   2.571   1.874   2.370
 2000SOL     OW 6013   2.059   2.838   3.126
 2000SOL    HW1 6014   2.148   2.793   3.112
 2000SOL    HW2 6015   1.986   2.773   3.107
 2001SOL     OW 6016   3.387   2.861   2.052
 2001SOL    HW1 6017   3.324   2.785   2.065
 2001SOL    HW2 6018   3.435   2.879   2.138
 2002SOL     OW 6019   3.049   3.654   3.478
 2002SOL    HW1 6020   3.073   3.714   3.402
 2002SOL    HW2 6021   3.056   3.559   3.448
 2003SOL     OW 6022   2.179   2.113   3.663
 2003SOL    HW1 6023   2.250   2.184   3.669
 2003SOL    HW2 6024   2.091   2.152   3.691
 2004SOL     OW 6025   3.328   3.279   2.815
 2004SOL    HW1 6026   3.269   3.285   2.895
 2004SOL    HW2 6027   3.313   3.191   2.769
 2005SOL     OW 6028   3.529   3.576   2.434
 2005SOL    HW1 6029   3.488   3.553   2.346
 2005SOL    HW2 6030   3.511   3.502   2.499
 2006SOL     OW 6031   2.460   2.591   2.132
 2006SOL    HW1 6032   2.484   2.660   2.064
 2006SOL    HW2 6033   2.382   2.624   2.186
 2007SOL     OW 6034   3.143   2.207   2.806
 2007SOL    HW1 6035   3.057   2.157   2.793
 2007SOL    HW2 6036   3.205   2.153   2.862
 2008SOL     OW 6037   3.438   3.524   2.169
 2008SOL    HW1 6038   3.527   3.570   2.172
 2008SOL    HW2 6039   3.417   3.500   2.074
 2009SOL     OW 6040   2.669   2.467   3.327
 2009SOL    HW1 6041   2.622   2.464   3.416
 2009SOL    HW2 6042   2.618   2.412   3.261
 2010SOL     OW 6043   3.256   2.331   3.536
 2010SOL    HW1 6044   3.236   2.374   3.624
 2010SOL    HW2 6045   3.334   2.269   3.545
 2011SOL     OW 6046   2.835   2.752   3.434
 2011SOL    HW1 6047   2.881   2.668   3.405
 2011SOL    HW2 6048   2.779   2.786   3.359
 2012SOL     OW 6049   2.853   2.272   3.104
 2012SOL    HW1 6050   2.776   2.306   3.158
 2012SOL    HW2 6051   2.819   2.221   3.025
 2013SOL     OW 6052   2.903   2.563   2.291
 2013SOL    HW1 6053   2.929   2.559   2.387
 2013SOL    HW2 6054   2.818   2.512   2.277
 2014SOL     OW 6055   1.938   2.673   2.651
 2014SOL    HW1 6056   2.037   2.661   2.660
 2014SOL    HW2 6057   1.914   2.768   2.672
 2015SOL     OW 6058   1.992   3.683   3.433
 2015SOL    HW1 6059   1.982   3.668   3.532
 2015SOL    HW2 6060   1.906   3.719   3.397
 2016SOL     OW 6061   2.727   2.210   2.057
 2016SOL    HW1 6062   2.786   2.273   2.008
 2016SOL    HW2 6063   2.746   2.116   2.028
 2017SOL     OW 6064   3.581   2.447   3.693
 2017SOL    HW1 6065   3.555   2.536   3.657
 2017SOL    HW2 6066   3.579   2.379   3.620
 2018SOL     OW 6067   3.224   3.006   2.407
 2018SOL    HW1 6068   3.307   2.977   2.359
 2018SOL    HW2 6069   3.175   3.073   2.351
 2019SOL     OW 6070   2.412   2.058   2.747
 2019SOL    HW1 6071   2.407   2.053   2.847
 2019SOL    HW2 6072   2.414   2.154   2.718
 2020SOL     OW 6073   2.870   3.318   2.339
 2020SOL    HW1 6074   2.824   3.390   2.287
 2020SOL    HW2 6075   2.866   3.338   2.437
 2021SOL     OW 6076   2.213   3.663   2.715
 2021SOL    HW1 6077   2.263   3.577   2.721
 2021SOL    HW2 6078   2.278   3.740   2.712
 2022SOL     OW 6079   3.657   2.928   2.735
 2022SOL    HW1 6080   3.595   2.913   2.659
 2022SOL    HW2 6081   3.605   2.939   2.820
 2023SOL     OW 6082   3.089   3.412   3.368
 2023SOL    HW1 6083   3.095   3.335   3.432
 2023SOL    HW2 6084   3.037   3.386   3.288
 2024SOL     OW 6085   2.183   2.805   2.104
 2024SOL    HW1 6086   2.265   2.844   2.062
 2024SOL    HW2 6087   2.156   2.723   2.055
 2025SOL     OW 6088   3.320   2.597   2.590
 2025SOL    HW1 6089   3.315   2.532   2.665
 2025SOL    HW2 6090   3.400   2.656   2.603
 2026SOL     OW 6091   2.323   3.128   3.589
 2026SOL    HW1 6092   2.273   3.129   3.503
 2026SOL    HW2 6093   2.260   3.110   3.665
 2027SOL     OW 6094   2.973   3.638   2.099
 2027SOL    HW1 6095   2.913   3.576   2.149
 2027SOL    HW2 6096   3.004   3.594   2.014
 2028SOL     OW 6097   2.064   2.147   3.360
 2028SOL    HW1 6098   1.984   2.207   3.347
 2028SOL    HW2 6099   2.054   2.098   3.446
 2029SOL     OW 6100   3.494   3.239   1.943
 2029SOL    HW1 6101   3.462   3.333   1.933
 2029SOL    HW2 6102   3.418   3.176   1.931
 2030SOL     OW 6103   2.326   3.605   2.185
 2030SOL    HW1 6104   2.359   3.644   2.271
 2030SOL    HW2 6105   2.402   3.598   2.120
 2031SOL     OW 6106   3.262   1.969   2.288
 2031SOL    HW1 6107   3.238   1.932   2.198
 2031SOL    HW2 6108   3.361   1.985   2.292
 2032SOL     OW 6109   2.111   3.647   3.103
 2032SOL    HW1 6110   2.168   3.582   3.153
 2032SOL    HW2 6111   2.095   3.614   3.010
 2033SOL     OW 6112   2.802   3.560   2.766
 2033SOL    HW1 6113   2.882   3.503   2.787
 2033SOL    HW2 6114   2.753   3.520   2.689
 2034SOL     OW 6115   3.409   2.084   3.591
 2034SOL    HW1 6116   3.404   2.121   3.683
 2034SOL    HW2 6117   3.337   2.015   3.579
 2035SOL     OW 6118   2.476   1.984   1.979
 2035SOL    HW1 6119   2.574   1.962   1.986
 2035SOL    HW2 6120   2.445   1.967   1.886
 2036SOL     OW 6121   2.643   2.126   3.611
 2036SOL    HW1 6122   2.710   2.065   3.654
 2036SOL    HW2 6123   2.570   2.145   3.676
 2037SOL     OW 6124   2.750   3.376   3.057
 2037SOL    HW1 6125   2.727   3.351   2.963
 2037SOL    HW2 6126   2.811   3.307   3.096
 2038SOL     OW 6127   3.213   2.452   3.295
 2038SOL    HW1 6128   3.241   2.409   3.380
 2038SOL    HW2 6129   3.238   2.548   3.296
 2039SOL     OW 6130   2.665   3.264   2.786
 2039SOL    HW1 6131   2.755   3.278   2.744
 2039SOL    HW2 6132   2.594   3.266   2.715
 2040SOL     OW 6133   2.784   2.365   2.761
 2040SOL    HW1 6134   2.759   2.356   2.665
 2040SOL    HW2 6135   2.832   2.283   2.792
 2041SOL     OW 6136   3.296   3.050   1.903
 2041SOL    HW1 6137   3.328   2.974   1.960
 2041SOL    HW2 6138   3.204   3.077   1.933
 2042SOL     OW 6139   2.159   1.897   2.033
 2042SOL    HW1 6140   2.208   1.981   2.012
 2042SOL    HW2 6141   2.221   1.832   2.078
 2043SOL     OW 6142   2.797   2.098   2.342
 2043SOL    HW1 6143   2.749   2.139   2.264
 2043SOL    HW2 6144   2.896   2.096   2.323
 2044SOL     OW 6145   2.938   2.545   3.326
 2044SOL    HW1 6146   2.858   2.484   3.329
 2044SOL    HW2 6147   3.019   2.492   3.302
 2045SOL     OW 6148   3.089   3.432   2.655
 2045SOL    HW1 6149   3.110   3.506   2.590
 2045SOL    HW2 6150   3.157   3.432   2.728
 2046SOL     OW 6151   2.321   3.014   2.603
 2046SOL    HW1 6152   2.250   2.987   2.668
 2046SOL    HW2 6153   2.295   2.986   2.510
 2047SOL     OW 6154   3.133   3.659   2.453
 2047SOL    HW1 6155   3.177   3.723   2.389
 2047SOL    HW2 6156   3.083   3.711   2.523
 2048SOL     OW 6157   2.894   2.411   1.878
 2048SOL    HW1 6158   2.853   2.493   1.839
 2048SOL    HW2 6159   2.958   2.437   1.951
 2049SOL     OW 6160   1.940   2.418   3.248
 2049SOL    HW1 6161   2.032   2.417   3.207
 2049SOL    HW2 6162   1.934   2.492   3.315
 2050SOL     OW 6163   2.423   2.084   3.009
 2050SOL    HW1 6164   2.461   2.000   3.046
 2050SOL    HW2 6165   2.335   2.103   3.053
 2051SOL     OW 6166   2.728   2.316   2.504
 2051SOL    HW1 6167   2.696   2.388   2.442
 2051SOL    HW2 6168   2.752   2.235   2.451
 2052SOL     OW 6169   2.879   1.901   2.615
 2052SOL    HW1 6170   2.807   1.906   2.546
 2052SOL    HW2 6171   2.855   1.832   2.684
 2053SOL     OW 6172   3.291   3.035   2.729
 2053SOL    HW1 6173   3.236   2.951   2.722
 2053SOL    HW2 6174   3.317   3.064   2.637
 2054SOL     OW 6175   3.328   2.452   2.854
 2054SOL    HW1 6176   3.298   2.357   2.861
 2054SOL    HW2 6177   3.401   2.468   2.920
 2055SOL     OW 6178   3.719   2.695   2.239
 2055SOL    HW1 6179   3.761   2.631   2.303
 2055SOL    HW2 6180   3.681   2.644   2.161
 2056SOL     OW 6181   2.350   3.247   2.036
 2056SOL    HW1 6182   2.263   3.232   2.083
 2056SOL    HW2 6183   2.333   3.273   1.941
 2057SOL     OW 6184   3.526   3.142   2.519
 2057SOL    HW1 6185   3.625   3.150   2.533
 2057SOL    HW2 6186   3.481   3.226   2.550
 2058SOL     OW 6187   3.252   2.437   1.940
 2058SOL    HW1 6188   3.198   2.416   2.021
 2058SOL    HW2 6189   3.343   2.396   1.949
 2059SOL     OW 6190   3.616   3.085   3.450
 2059SOL    HW1 6191   3.707   3.046   3.437
 2059SOL    HW2 6192   3.624   3.181   3.474
 2060SOL     OW 6193   2.926   3.209   3.202
 2060SOL    HW1 6194   2.846   3.186   3.257
 2060SOL    HW2 6195   3.009   3.183   3.251
 2061SOL     OW 6196   3.454   3.491   3.487
 2061SOL    HW1 6197   3.481   3.525   3.397
 2061SOL    HW2 6198   3.533   3.453   3.533
 2062SOL     OW 6199   2.973   3.057   2.962
 2062SOL    HW1 6200   2.933   3.101   3.043
 2062SOL    HW2 6201   2.932   3.094   2.879
 2063SOL     OW 6202   3.500   2.961   2.941
 2063SOL    HW1 6203   3.505   3.042   3.000
 2063SOL    HW2 6204   3.414   2.963   2.890
 2064SOL     OW 6205   2.777   1.951   3.264
 2064SOL    HW1 6206   2.802   1.931   3.169
 2064SOL    HW2 6207   2.849   2.007   3.306
 2065SOL     OW 6208   2.842   2.978   3.581
 2065SOL    HW1 6209   2.743   2.984   3.591
 2065SOL    HW2 6210   2.865   2.898   3.525
 2066SOL     OW 6211   2.567   2.912   2.230
 2066SOL    HW1 6212   2.553   2.919   2.329
 2066SOL    HW2 6213   2.651   2.861   2.212
 2067SOL     OW 6214   2.272   2.675   3.113
 2067SOL    HW1 6215   2.358   2.687   3.163
 2067SOL    HW2 6216   2.230   2.588   3.140
 2068SOL     OW 6217   3.136   2.248   3.124
 2068SOL    HW1 6218   3.157   2.322   3.188
 2068SOL    HW2 6219   3.047   2.265   3.081
 2069SOL     OW 6220   1.926   3.426   3.193
 2069SOL    HW1 6221   1.880   3.508   3.159
 2069SOL    HW2 6222   2.024   3.445   3.202
 2070SOL     OW 6223   2.229   2.962   2.363
 2070SOL    HW1 6224   2.222   3.045   2.307
 2070SOL    HW2 6225   2.233   2.882   2.303
 2071SOL     OW 6226   2.428   2.399   2.727
 2071SOL    HW1 6227   2.440   2.465   2.653
 2071SOL    HW2 6228   2.474   2.433   2.810
 2072SOL     OW 6229   3.114   3.210   2.250
 2072SOL    HW1 6230   3.164   3.287   2.290
 2072SOL    HW2 6231   3.019   3.212   2.282
 2073SOL     OW 6232   3.134   3.307   3.004
 2073SOL    HW1 6233   3.181   3.320   3.091
 2073SOL    HW2 6234   3.068   3.233   3.013
 2074SOL     OW 6235   3.444   2.501   2.334
 2074SOL    HW1 6236   3.413   2.562   2.407
 2074SOL    HW2 6237   3.494   2.553   2.265
 2075SOL     OW 6238   2.216   3.372   3.191
 2075SOL    HW1 6239   2.195   3.328   3.104
 2075SOL    HW2 6240   2.313   3.398   3.194
 2076SOL     OW 6241   2.264   2.613   3.460
 2076SOL    HW1 6242   2.332   2.668   3.413
 2076SOL    HW2 6243   2.304   2.525   3.487
 2077SOL     OW 6244   3.449   2.641   3.532
 2077SOL    HW1 6245   3.357   2.679   3.527
 2077SOL    HW2 6246   3.509   2.688   3.467
 2078SOL     OW 6247   2.875   1.967   3.632
 2078SOL    HW1 6248   2.881   2.052   3.580
 2078SOL    HW2 6249   2.907   1.891   3.575
 2079SOL     OW 6250   2.366   1.912   3.602
 2079SOL    HW1 6251   2.324   1.855   3.532
 2079SOL    HW2 6252   2.300   1.981   3.634
 2080SOL     OW 6253   2.435   2.732   2.891
 2080SOL    HW1 6254   2.479   2.821   2.882
 2080SOL    HW2 6255   2.372   2.732   2.968
 2081SOL     OW 6256   3.222   2.724   2.907
 2081SOL    HW1 6257   3.147   2.724   2.841
 2081SOL    HW2 6258   3.259   2.632   2.916
 2082SOL     OW 6259   3.071   2.387   2.137
 2082SOL    HW1 6260   3.084   2.303   2.191
 2082SOL    HW2 6261   3.042   2.461   2.197
 2083SOL     OW 6262   2.169   2.075   3.093
 2083SOL    HW1 6263   2.146   2.112   3.183
 2083SOL    HW2 6264   2.139   1.980   3.087
 2084SOL     OW 6265   1.899   3.172   3.144
 2084SOL    HW1 6266   1.952   3.123   3.212
 2084SOL    HW2 6267   1.921   3.270   3.149
 2085SOL     OW 6268   2.594   2.496   2.926
 2085SOL    HW1 6269   2.653   2.470   2.850
 2085SOL    HW2 6270   2.566   2.592   2.915
 2086SOL     OW 6271   3.590   2.797   3.716
 2086SOL    HW1 6272   3.544   2.790   3.627
 2086SOL    HW2 6273   3.528   2.841   3.782
 2087SOL     OW 6274   3.484   2.229   2.236
 2087SOL    HW1 6275   3.486   2.153   2.300
 2087SOL    HW2 6276   3.436   2.306   2.276
 2088SOL     OW 6277   2.885   2.628   2.828
 2088SOL    HW1 6278   2.900   2.649   2.924
 2088SOL    HW2 6279   2.855   2.533   2.819
 2089SOL     OW 6280   2.842   3.435   3.562
 2089SOL    HW1 6281   2.822   3.479   3.474
 2089SOL    HW2 6282   2.881   3.344   3.546
 2090SOL     OW 6283   3.721   3.380   3.467
 2090SOL    HW1 6284   3.735   3.407   3.372
 2090SOL    HW2 6285   3.804   3.402   3.520
 2091SOL     OW 6286   2.212   2.760   3.666
 2091SOL    HW1 6287   2.288   2.804   3.714
 2091SOL    HW2 6288   2.247   2.713   3.584
 2092SOL     OW 6289   3.402   2.136   1.987
 2092SOL    HW1 6290   3.341   2.061   2.010
 2092SOL    HW2 6291   3.424   2.188   2.070
 2093SOL     OW 6292   3.165   2.700   1.904
 2093SOL    HW1 6293   3.199   2.607   1.919
 2093SOL    HW2 6294   3.183   2.727   1.809
 2094SOL     OW 6295   2.930   3.195   2.711
 2094SOL    HW1 6296   2.937   3.111   2.656
 2094SOL    HW2 6297   2.992   3.264   2.675
 2095SOL     OW 6298   2.181   2.672   2.811
 2095SOL    HW1 6299   2.274   2.708   2.816
 2095SOL    HW2 6300   2.175   2.587   2.863
 2096SOL     OW 6301   2.201   2.371   2.868
 2096SOL    HW1 6302   2.149   2.288   2.851
 2096SOL    HW2 6303   2.278   2.376   2.804
 2097SOL     OW 6304   3.000   2.242   3.540
 2097SOL    HW1 6305   2.955   2.305   3.604
 2097SOL    HW2 6306   3.093   2.273   3.523
 2098SOL     OW 6307   3.022   2.069   3.339
 2098SOL    HW1 6308   3.022   2.133   3.416
 2098SOL    HW2 6309   3.050   2.117   3.256
 2099SOL     OW 6310   1.870   3.188   2.062
 2099SOL    HW1 6311   1.777   3.209   2.031
 2099SOL    HW2 6312   1.880   3.089   2.075
 2100SOL     OW 6313   1.950   3.663   2.789
 2100SOL    HW1 6314   1.908   3.577   2.762
 2100SOL    HW2 6315   2.044   3.666   2.755
 2101SOL     OW 6316   2.366   3.430   2.772
 2101SOL    HW1 6317   2.432   3.504   2.781
 2101SOL    HW2 6318   2.410   3.351   2.730
 2102SOL     OW 6319   2.864   2.658   3.100
 2102SOL    HW1 6320   2.905   2.626   3.186
 2102SOL    HW2 6321   2.768   2.631   3.097
 2103SOL     OW 6322   1.902   2.406   2.976
 2103SOL    HW1 6323   1.987   2.373   2.935
 2103SOL    HW2 6324   1.915   2.421   3.074
 2104SOL     OW 6325   2.051   2.382   3.584
 2104SOL    HW1 6326   2.110   2.342   3.514
 2104SOL    HW2 6327   1.993   2.453   3.543
 2105SOL     OW 6328   3.231   2.812   3.522
 2105SOL    HW1 6329   3.270   2.901   3.542
 2105SOL    HW2 6330   3.241   2.792   3.425
 2106SOL     OW 6331   2.677   2.434   2.187
 2106SOL    HW1 6332   2.684   2.345   2.141
 2106SOL    HW2 6333   2.583   2.468   2.179
 2107SOL     OW 6334   3.519   2.466   3.068
 2107SOL    HW1 6335   3.481   2.397   3.130
 2107SOL    HW2 6336   3.601   2.430   3.024
 2108SOL     OW 6337   2.114   3.426   3.606
 2108SOL    HW1 6338   2.084   3.483   3.682
 2108SOL    HW2 6339   2.107   3.329   3.632
 2109SOL     OW 6340   2.533   2.326   3.131
 2109SOL    HW1 6341   2.499   2.237   3.101
 2109SOL    HW2 6342   2.559   2.380   3.051
 2110SOL     OW 6343   2.792   3.540   3.327
 2110SOL    HW1 6344   2.768   3.522   3.232
 2110SOL    HW2 6345   2.822   3.634   3.337
 2111SOL     OW 6346   2.021   2.999   3.328
 2111SOL    HW1 6347   2.043   2.938   3.404
 2111SOL    HW2 6348   2.031   2.950   3.242
 2112SOL     OW 6349   3.209   2.921   3.096
 2112SOL    HW1 6350   3.233   2.858   3.022
 2112SOL    HW2 6351   3.119   2.961   3.078
 2113SOL     OW 6352   3.164   2.717   2.171
 2113SOL    HW1 6353   3.078   2.686   2.213
 2113SOL    HW2 6354   3.160   2.703   2.072
 2114SOL     OW 6355   3.621   3.609   3.016
 2114SOL    HW1 6356   3.682   3.639   2.943
 2114SOL    HW2 6357   3.583   3.520   2.994
 2115SOL     OW 6358   3.114   3.593   2.990
 2115SOL    HW1 6359   3.198   3.598   2.936
 2115SOL    HW2 6360   3.091   3.497   3.008
 2116SOL     OW 6361   1.945   3.120   2.884
 2116SOL    HW1 6362   1.940   3.119   2.984
 2116SOL    HW2 6363   1.862   3.079   2.846
 2117SOL     OW 6364   2.550   3.524   3.578
 2117SOL    HW1 6365   2.494   3.605   3.587
 2117SOL    HW2 6366   2.602   3.528   3.492
 2118SOL     OW 6367   3.588   1.997   2.385
 2118SOL    HW1 6368   3.661   1.980   2.318
 2118SOL    HW2 6369   3.557   1.910   2.423
 2119SOL     OW 6370   3.250   3.435   2.339
 2119SOL    HW1 6371   3.317   3.447   2.265
 2119SOL    HW2 6372   3.210   3.524   2.362
 2120SOL     OW 6373   1.992   3.656   3.713
 2120SOL    HW1 6374   1.951   3.582   3.766
 2120SOL    HW2 6375   2.056   3.707   3.771
 2121SOL     OW 6376   3.142   2.789   2.534
 2121SOL    HW1 6377   3.202   2.708   2.536
 2121SOL    HW2 6378   3.182   2.858   2.474
 2122SOL     OW 6379   2.692   3.135   3.284
 2122SOL    HW1 6380   2.687   3.168   3.379
 2122SOL    HW2 6381   2.606   3.154   3.238
 2123SOL     OW 6382   2.534   3.478   2.016
 2123SOL    HW1 6383   2.543   3.488   1.917
 2123SOL    HW2 6384   2.494   3.389   2.037
 2124SOL     OW 6385   3.512   3.582   3.256
 2124SOL    HW1 6386   3.565   3.592   3.172
 2124SOL    HW2 6387   3.485   3.672   3.290
 2125SOL     OW 6388   3.703   2.037   2.825
 2125SOL    HW1 6389   3.742   1.952   2.789
 2125SOL    HW2 6390   3.605   2.039   2.806
 2126SOL     OW 6391   3.056   3.474   1.893
 2126SOL    HW1 6392   3.062   3.381   1.930
 2126SOL    HW2 6393   2.997   3.474   1.813
 2127SOL     OW 6394   2.684   2.864   3.234
 2127SOL    HW1 6395   2.724   2.863   3.142
 2127SOL    HW2 6396   2.694   2.956   3.274
 2128SOL     OW 6397   2.778   2.772   2.153
 2128SOL    HW1 6398   2.841   2.810   2.085
 2128SOL    HW2 6399   2.818   2.689   2.192
 2129SOL     OW 6400   3.366   3.469   1.906
 2129SOL    HW1 6401   3.274   3.506   1.913
 2129SOL    HW2 6402   3.404   3.489   1.816
 2130SOL     OW 6403   2.234   3.150   3.352
 2130SOL    HW1 6404   2.221   3.243   3.318
 2130SOL    HW2 6405   2.150   3.098   3.339
 2131SOL     OW 6406   3.476   3.154   3.151
 2131SOL    HW1 6407   3.536   3.157   3.231
 2131SOL    HW2 6408   3.401   3.218   3.164
 2132SOL     OW 6409   2.901   2.960   2.558
 2132SOL    HW1 6410   2.831   2.913   2.612
 2132SOL    HW2 6411   2.960   2.892   2.515
 2133SOL     OW 6412   2.876   2.098   2.833
 2133SOL    HW1 6413   2.868   2.062   2.740
 2133SOL    HW2 6414   2.874   2.022   2.898
 2134SOL     OW 6415   2.452   3.349   2.353
 2134SOL    HW1 6416   2.494   3.291   2.283
 2134SOL    HW2 6417   2.408   3.428   2.309
 2135SOL     OW 6418   3.571   2.247   3.243
 2135SOL    HW1 6419   3.644   2.316   3.247
 2135SOL    HW2 6420   3.599   2.172   3.184
 2136SOL     OW 6421   2.117   3.210   2.152
 2136SOL    HW1 6422   2.021   3.211   2.125
 2136SOL    HW2 6423   2.129   3.263   2.236
 2137SOL     OW 6424   1.967   2.875   3.588
 2137SOL    HW1 6425   1.890   2.842   3.642
 2137SOL    HW2 6426   2.052   2.845   3.630
 2138SOL     OW 6427   2.534   2.065   3.351
 2138SOL    HW1 6428   2.624   2.049   3.311
 2138SOL    HW2 6429   2.542   2.070   3.450
 2139SOL     OW 6430   1.937   2.207   1.895
 2139SOL    HW1 6431   1.845   2.179   1.866
 2139SOL    HW2 6432   1.968   2.284   1.839
 2140SOL     OW 6433   3.302   2.718   3.260
 2140SOL    HW1 6434   3.245   2.770   3.197
 2140SOL    HW2 6435   3.398   2.730   3.236
 2141SOL     OW 6436   1.934   2.028   2.180
 2141SOL    HW1 6437   1.917   2.111   2.126
 2141SOL    HW2 6438   2.024   1.991   2.158
 2142SOL     OW 6439   3.045   3.197   1.981
 2142SOL    HW1 6440   2.946   3.186   1.983
 2142SOL    HW2 6441   3.079   3.212   2.074
 2143SOL     OW 6442   2.475   2.704   3.293
 2143SOL    HW1 6443   2.531   2.785   3.276
 2143SOL    HW2 6444   2.534   2.624   3.296
 2144SOL     OW 6445   3.355   3.629   2.821
 2144SOL    HW1 6446   3.388   3.693   2.752
 2144SOL    HW2 6447   3.421   3.623   2.896
 2145SOL     OW 6448   2.578   2.427   3.570
 2145SOL    HW1 6449   2.597   2.492   3.644
 2145SOL    HW2 6450   2.638   2.347   3.579
 2146SOL     OW 6451   3.312   3.082   3.495
 2146SOL    HW1 6452   3.303   3.072   3.594
 2146SOL    HW2 6453   3.408   3.075   3.469
 2147SOL     OW 6454   2.252   3.603   3.422
 2147SOL    HW1 6455   2.161   3.644   3.420
 2147SOL    HW2 6456   2.245   3.509   3.454
 2148SOL     OW 6457   3.536   2.745   3.116
 2148SOL    HW1 6458   3.509   2.656   3.079
 2148SOL    HW2 6459   3.537   2.813   3.043
 2149SOL     OW 6460   3.087   2.187   2.311
 2149SOL    HW1 6461   3.152   2.113   2.300
 2149SOL    HW2 6462   3.107   2.237   2.395
 2150SOL     OW 6463   2.456   2.607   2.514
 2150SOL    HW1 6464   2.506   2.692   2.495
 2150SOL    HW2 6465   2.368   2.609   2.466
 2151SOL     OW 6466   3.639   2.204   3.504
 2151SOL    HW1 6467   3.622   2.235   3.410
 2151SOL    HW2 6468   3.555   2.167   3.542
 2152SOL     OW 6469   3.592   2.796   3.379
 2152SOL    HW1 6470   3.630   2.887   3.394
 2152SOL    HW2 6471   3.584   2.779   3.280
 2153SOL     OW 6472   2.721   3.236   1.878
 2153SOL    HW1 6473   2.675   3.251   1.966
 2153SOL    HW2 6474   2.765   3.321   1.848
 2154SOL     OW 6475   2.523   3.652   2.815
 2154SOL    HW1 6476   2.477   3.740   2.802
 2154SOL    HW2 6477   2.622   3.664   2.808
 2155SOL     OW 6478   2.721   2.818   2.723
 2155SOL    HW1 6479   2.775   2.749   2.771
 2155SOL    HW2 6480   2.689   2.887   2.789
 2156SOL     OW 6481   2.945   2.846   1.949
 2156SOL    HW1 6482   2.922   2.899   1.867
 2156SOL    HW2 6483   3.026   2.790   1.930
 2157SOL     OW 6484   3.723   3.431   2.713
 2157SOL    HW1 6485   3.652   3.419   2.643
 2157SOL    HW2 6486   3.724   3.352   2.773
 2158SOL     OW 6487   2.083   3.176   3.706
 2158SOL    HW1 6488   2.018   3.103   3.685
 2158SOL    HW2 6489   2.087   3.190   3.804
 2159SOL     OW 6490   1.941   3.102   2.515
 2159SOL    HW1 6491   1.940   3.055   2.603
 2159SOL    HW2 6492   2.023   3.074   2.464
 2160SOL     OW 6493   2.534   3.253   3.486
 2160SOL    HW1 6494   2.456   3.203   3.524
 2160SOL    HW2 6495   2.531   3.348   3.517
 2161SOL     OW 6496   3.686   2.054   3.089
 2161SOL    HW1 6497   3.682   1.964   3.133
 2161SOL    HW2 6498   3.689   2.043   2.990
 2162SOL     OW 6499   3.567   3.349   2.966
 2162SOL    HW1 6500   3.474   3.324   2.939
 2162SOL    HW2 6501   3.593   3.299   3.048
 2163SOL     OW 6502   2.179   2.409   3.142
 2163SOL    HW1 6503   2.217   2.350   3.214
 2163SOL    HW2 6504   2.219   2.383   3.054
 2164SOL     OW 6505   2.674   3.448   2.549
 2164SOL    HW1 6506   2.706   3.458   2.455
 2164SOL    HW2 6507   2.595   3.386   2.551
 2165SOL     OW 6508   3.286   2.076   2.974
 2165SOL    HW1 6509   3.338   2.011   3.029
 2165SOL    HW2 6510   3.237   2.139   3.035
 2166SOL     OW 6511   2.863   1.896   3.016
 2166SOL    HW1 6512   2.800   1.824   2.985
 2166SOL    HW2 6513   2.956   1.860   3.016
 2167SOL     OW 6514   2.632   3.192   2.163
 2167SOL    HW1 6515   2.586   3.105   2.180
 2167SOL    HW2 6516   2.723   3.189   2.204
 2168SOL     OW 6517   2.480   3.429   3.146
 2168SOL    HW1 6518   2.475   3.511   3.203
 2168SOL    HW2 6519   2.569   3.426   3.101
 2169SOL     OW 6520   3.214   1.914   2.030
 2169SOL    HW1 6521   3.249   1.873   1.946
 2169SOL    HW2 6522   3.124   1.876   2.050
 2170SOL     OW 6523   3.162   2.315   2.553
 2170SOL    HW1 6524   3.103   2.395   2.557
 2170SOL    HW2 6525   3.177   2.280   2.646
 2171SOL     OW 6526   3.455   2.083   2.744
 2171SOL    HW1 6527   3.371   2.082   2.798
 2171SOL    HW2 6528   3.457   2.166   2.688
 2172SOL     OW 6529   1.901   2.939   2.162
 2172SOL    HW1 6530   2.000   2.928   2.153
 2172SOL    HW2 6531   1.861   2.853   2.194
 2173SOL     OW 6532   2.737   3.508   2.199
 2173SOL    HW1 6533   2.660   3.473   2.145
 2173SOL    HW2 6534   2.705   3.579   2.261
 2174SOL     OW 6535   2.092   2.490   3.837
 2174SOL    HW1 6536   1.999   2.488   3.874
 2174SOL    HW2 6537   2.093   2.451   3.745
 2175SOL     OW 6538   1.881   2.230   4.371
 2175SOL    HW1 6539   1.799   2.273   4.410
 2175SOL    HW2 6540   1.853   2.157   4.308
 2176SOL     OW 6541   3.617   2.469   3.955
 2176SOL    HW1 6542   3.605   2.456   3.856
 2176SOL    HW2 6543   3.587   2.388   4.004
 2177SOL     OW 6544   2.547   2.874   4.389
 2177SOL    HW1 6545   2.616   2.858   4.459
 2177SOL    HW2 6546   2.474   2.931   4.427
 2178SOL     OW 6547   3.465   2.309   4.461
 2178SOL    HW1 6548   3.391   2.355   4.411
 2178SOL    HW2 6549   3.516   2.377   4.514
 2179SOL     OW 6550   2.093   3.575   4.207
 2179SOL    HW1 6551   2.127   3.652   4.261
 2179SOL    HW2 6552   2.137   3.575   4.117
 2180SOL     OW 6553   2.092   3.296   4.262
 2180SOL    HW1 6554   2.066   3.392   4.262
 2180SOL    HW2 6555   2.021   3.242   4.307
 2181SOL     OW 6556   2.468   2.826   3.847
 2181SOL    HW1 6557   2.475   2.910   3.793
 2181SOL    HW2 6558   2.514   2.839   3.935
 2182SOL     OW 6559   1.984   2.505   4.287
 2182SOL    HW1 6560   1.939   2.417   4.304
 2182SOL    HW2 6561   1.983   2.559   4.371
 2183SOL     OW 6562   3.704   3.629   4.083
 2183SOL    HW1 6563   3.758   3.600   4.163
 2183SOL    HW2 6564   3.734   3.719   4.054
 2184SOL     OW 6565   1.889   3.458   3.841
 2184SOL    HW1 6566   1.870   3.362   3.862
 2184SOL    HW2 6567   1.856   3.516   3.916
 2185SOL     OW 6568   3.551   2.784   4.336
 2185SOL    HW1 6569   3.646   2.755   4.344
 2185SOL    HW2 6570   3.543   2.849   4.261
 2186SOL     OW 6571   3.503   2.970   4.156
 2186SOL    HW1 6572   3.589   2.972   4.104
 2186SOL    HW2 6573   3.517   3.017   4.244
 2187SOL     OW 6574   2.475   3.227   4.450
 2187SOL    HW1 6575   2.426   3.140   4.459
 2187SOL    HW2 6576   2.452   3.270   4.363
 2188SOL     OW 6577   2.671   1.866   4.226
 2188SOL    HW1 6578   2.711   1.957   4.217
 2188SOL    HW2 6579   2.571   1.874   4.232
 2189SOL     OW 6580   3.387   2.861   3.914
 2189SOL    HW1 6581   3.324   2.785   3.927
 2189SOL    HW2 6582   3.435   2.879   4.000
 2190SOL     OW 6583   3.529   3.576   4.296
 2190SOL    HW1 6584   3.488   3.553   4.208
 2190SOL    HW2 6585   3.511   3.502   4.361
 2191SOL     OW 6586   2.460   2.591   3.994
 2191SOL    HW1 6587   2.484   2.660   3.926
 2191SOL    HW2 6588   2.382   2.624   4.048
 2192SOL     OW 6589   3.143   2.207   4.668
 2192SOL    HW1 6590   3.057   2.157   4.655
 2192SOL    HW2 6591   3.205   2.153   4.724
 2193SOL     OW 6592   3.438   3.524   4.031
 2193SOL    HW1 6593   3.527   3.570   4.034
 2193SOL    HW2 6594   3.417   3.500   3.936
 2194SOL     OW 6595   2.903   2.563   4.153
 2194SOL    HW1 6596   2.929   2.559   4.249
 2194SOL    HW2 6597   2.818   2.512   4.139
 2195SOL     OW 6598   1.938   2.673   4.513
 2195SOL    HW1 6599   2.037   2.661   4.522
 2195SOL    HW2 6600   1.914   2.768   4.534
 2196SOL     OW 6601   2.727   2.210   3.919
 2196SOL    HW1 6602   2.786   2.273   3.870
 2196SOL    HW2 6603   2.746   2.116   3.890
 2197SOL     OW 6604   3.224   3.006   4.269
 2197SOL    HW1 6605   3.307   2.977   4.221
 2197SOL    HW2 6606   3.175   3.073   4.213
 2198SOL     OW 6607   2.870   3.318   4.201
 2198SOL    HW1 6608   2.824   3.390   4.149
 2198SOL    HW2 6609   2.866   3.338   4.299
 2199SOL     OW 6610   2.213   3.663   4.577
 2199SOL    HW1 6611   2.263   3.577   4.583
 2199SOL    HW2 6612   2.278   3.740   4.574
 2200SOL     OW 6613   3.657   2.928   4.597
 2200SOL    HW1 6614   3.595   2.913   4.521
 2200SOL    HW2 6615   3.605   2.939   4.682
 2201SOL     OW 6616   2.183   2.805   3.966
 2201SOL    HW1 6617   2.265   2.844   3.924
 2201SOL    HW2 6618   2.156   2.723   3.917
 2202SOL     OW 6619   2.973   3.638   3.961
 2202SOL    HW1 6620   2.913   3.576   4.011
 2202SOL    HW2 6621   3.004   3.594   3.876
 2203SOL     OW 6622   3.494   3.239   3.805
 2203SOL    HW1 6623   3.462   3.333   3.795
 2203SOL    HW2 6624   3.418   3.176   3.793
 2204SOL     OW 6625   2.326   3.605   4.047
 2204SOL    HW1 6626   2.359   3.644   4.133
 2204SOL    HW2 6627   2.402   3.598   3.982
 2205SOL     OW 6628   3.262   1.969   4.150
 2205SOL    HW1 6629   3.238   1.932   4.060
 2205SOL    HW2 6630   3.361   1.985   4.154
 2206SOL     OW 6631   2.802   3.560   4.628
 2206SOL    HW1 6632   2.882   3.503   4.649
 2206SOL    HW2 6633   2.753   3.520   4.551
 2207SOL     OW 6634   2.244   2.562   4.204
 2207SOL    HW1 6635   2.289   2.472   4.201
 2207SOL    HW2 6636   2.150   2.551   4.237
 2208SOL     OW 6637   2.476   1.984   3.841
 2208SOL    HW1 6638   2.574   1.962   3.848
 2208SOL    HW2 6639   2.445   1.967   3.748
 2209SOL     OW 6640   2.401   1.926   4.236
 2209SOL    HW1 6641   2.320   1.927   4.294
 2209SOL    HW2 6642   2.404   2.009   4.181
 2210SOL     OW 6643   3.296   3.050   3.765
 2210SOL    HW1 6644   3.328   2.974   3.822
 2210SOL    HW2 6645   3.204   3.077   3.795
 2211SOL     OW 6646   2.159   1.897   3.895
 2211SOL    HW1 6647   2.208   1.981   3.874
 2211SOL    HW2 6648   2.221   1.832   3.940
 2212SOL     OW 6649   2.797   2.098   4.204
 2212SOL    HW1 6650   2.749   2.139   4.126
 2212SOL    HW2 6651   2.896   2.096   4.185
 2213SOL     OW 6652   2.321   3.014   4.465
 2213SOL    HW1 6653   2.250   2.987   4.530
 2213SOL    HW2 6654   2.295   2.986   4.372
 2214SOL     OW 6655   3.133   3.659   4.315
 2214SOL    HW1 6656   3.177   3.723   4.251
 2214SOL    HW2 6657   3.083   3.711   4.385
 2215SOL     OW 6658   2.894   2.411   3.740
 2215SOL    HW1 6659   2.853   2.493   3.701
 2215SOL    HW2 6660   2.958   2.437   3.813
 2216SOL     OW 6661   2.728   2.316   4.366
 2216SOL    HW1 6662   2.696   2.388   4.304
 2216SOL    HW2 6663   2.752   2.235   4.313
 2217SOL     OW 6664   3.719   2.695   4.101
 2217SOL    HW1 6665   3.761   2.631   4.165
 2217SOL    HW2 6666   3.681   2.644   4.023
 2218SOL     OW 6667   2.350   3.247   3.898
 2218SOL    HW1 6668   2.263   3.232   3.945
 2218SOL    HW2 6669   2.333   3.273   3.803
 2219SOL     OW 6670   3.526   3.142   4.381
 2219SOL    HW1 6671   3.625   3.150   4.395
 2219SOL    HW2 6672   3.481   3.226   4.412
 2220SOL     OW 6673   3.252   2.437   3.802
 2220SOL    HW1 6674   3.198   2.416   3.883
 2220SOL    HW2 6675   3.343   2.396   3.811
 2221SOL     OW 6676   2.389   2.118   4.052
 2221SOL    HW1 6677   2.416   2.059   3.977
 2221SOL    HW2 6678   2.389   2.213   4.021
 2222SOL     OW 6679   2.567   2.912   4.092
 2222SOL    HW1 6680   2.553   2.919   4.191
 2222SOL    HW2 6681   2.651   2.861   4.074
 2223SOL     OW 6682   2.229   2.962   4.225
 2223SOL    HW1 6683   2.222   3.045   4.169
 2223SOL    HW2 6684   2.233   2.882   4.165
 2224SOL     OW 6685   3.114   3.210   4.112
 2224SOL    HW1 6686   3.164   3.287   4.152
 2224SOL    HW2 6687   3.019   3.212   4.144
 2225SOL     OW 6688   3.444   2.501   4.196
 2225SOL    HW1 6689   3.413   2.562   4.269
 2225SOL    HW2 6690   3.494   2.553   4.127
 2226SOL     OW 6691   3.071   2.387   3.999
 2226SOL    HW1 6692   3.084   2.303   4.053
 2226SOL    HW2 6693   3.042   2.461   4.059
 2227SOL     OW 6694   2.169   1.925   4.342
 2227SOL    HW1 6695   2.158   2.019   4.375
 2227SOL    HW2 6696   2.164   1.862   4.419
 2228SOL     OW 6697   3.484   2.229   4.098
 2228SOL    HW1 6698   3.486   2.153   4.162
 2228SOL    HW2 6699   3.436   2.306   4.138
 2229SOL     OW 6700   3.402   2.136   3.849
 2229SOL    HW1 6701   3.341   2.061   3.872
 2229SOL    HW2 6702   3.424   2.188   3.932
 2230SOL     OW 6703   3.165   2.700   3.766
 2230SOL    HW1 6704   3.199   2.607   3.781
 2230SOL    HW2 6705   3.183   2.727   3.671
 2231SOL     OW 6706   1.870   3.188   3.924
 2231SOL    HW1 6707   1.777   3.209   3.893
 2231SOL    HW2 6708   1.880   3.089   3.937
 2232SOL     OW 6709   2.677   2.434   4.049
 2232SOL    HW1 6710   2.684   2.345   4.003
 2232SOL    HW2 6711   2.583   2.468   4.041
 2233SOL     OW 6712   2.335   2.362   3.915
 2233SOL    HW1 6713   2.396   2.442   3.919
 2233SOL    HW2 6714   2.240   2.393   3.922
 2234SOL     OW 6715   3.164   2.717   4.033
 2234SOL    HW1 6716   3.078   2.686   4.075
 2234SOL    HW2 6717   3.160   2.703   3.934
 2235SOL     OW 6718   3.588   1.997   4.247
 2235SOL    HW1 6719   3.661   1.980   4.180
 2235SOL    HW2 6720   3.557   1.910   4.285
 2236SOL     OW 6721   3.250   3.435   4.201
 2236SOL    HW1 6722   3.317   3.447   4.127
 2236SOL    HW2 6723   3.210   3.524   4.224
 2237SOL     OW 6724   2.534   3.478   3.878
 2237SOL    HW1 6725   2.543   3.488   3.779
 2237SOL    HW2 6726   2.494   3.389   3.899
 2238SOL     OW 6727   3.056   3.474   3.755
 2238SOL    HW1 6728   3.062   3.381   3.792
 2238SOL    HW2 6729   2.997   3.474   3.675
 2239SOL     OW 6730   2.778   2.772   4.015
 2239SOL    HW1 6731   2.841   2.810   3.947
 2239SOL    HW2 6732   2.818   2.689   4.054
 2240SOL     OW 6733   3.366   3.469   3.768
 2240SOL    HW1 6734   3.274   3.506   3.775
 2240SOL    HW2 6735   3.404   3.489   3.678
 2241SOL     OW 6736   2.452   3.349   4.215
 2241SOL    HW1 6737   2.494   3.291   4.145
 2241SOL    HW2 6738   2.408   3.428   4.171
 2242SOL     OW 6739   2.117   3.210   4.014
 2242SOL    HW1 6740   2.021   3.211   3.987
 2242SOL    HW2 6741   2.129   3.263   4.098
 2243SOL     OW 6742   1.937   2.207   3.757
 2243SOL    HW1 6743   1.845   2.179   3.728
 2243SOL    HW2 6744   1.968   2.284   3.701
 2244SOL     OW 6745   1.934   2.028   4.042
 2244SOL    HW1 6746   1.917   2.111   3.988
 2244SOL    HW2 6747   2.024   1.991   4.020
 2245SOL     OW 6748   3.045   3.197   3.843
 2245SOL    HW1 6749   2.946   3.186   3.845
 2245SOL    HW2 6750   3.079   3.212   3.936
 2246SOL     OW 6751   3.087   2.187   4.173
 2246SOL    HW1 6752   3.152   2.113   4.162
 2246SOL    HW2 6753   3.107   2.237   4.257
 2247SOL     OW 6754   2.456   2.607   4.376
 2247SOL    HW1 6755   2.506   2.692   4.357
 2247SOL    HW2 6756   2.368   2.609   4.328
 2248SOL     OW 6757   2.721   3.236   3.740
 2248SOL    HW1 6758   2.675   3.251   3.828
 2248SOL    HW2 6759   2.765   3.321   3.710
 2249SOL     OW 6760   2.523   3.652   4.677
 2249SOL    HW1 6761   2.477   3.740   4.664
 2249SOL    HW2 6762   2.622   3.664   4.670
 2250SOL     OW 6763   2.721   2.818   4.585
 2250SOL    HW1 6764   2.775   2.749   4.633
 2250SOL    HW2 6765   2.689   2.887   4.651
 2251SOL     OW 6766   2.945   2.846   3.811
 2251SOL    HW1 6767   2.922   2.899   3.729
 2251SOL    HW2 6768   3.026   2.790   3.792
 2252SOL     OW 6769   1.941   3.102   4.377
 2252SOL    HW1 6770   1.940   3.055   4.465
 2252SOL    HW2 6771   2.023   3.074   4.326
 2253SOL     OW 6772   2.290   2.286   4.244
 2253SOL    HW1 6773   2.320   2.214   4.182
 2253SOL    HW2 6774   2.251   2.246   4.327
 2254SOL     OW 6775   2.674   3.448   4.411
 2254SOL    HW1 6776   2.706   3.458   4.317
 2254SOL    HW2 6777   2.595   3.386   4.413
 2255SOL     OW 6778   2.632   3.192   4.025
 2255SOL    HW1 6779   2.586   3.105   4.042
 2255SOL    HW2 6780   2.723   3.189   4.066
 2256SOL     OW 6781   3.214   1.914   3.892
 2256SOL    HW1 6782   3.249   1.873   3.808
 2256SOL    HW2 6783   3.124   1.876   3.912
 2257SOL     OW 6784   3.162   2.315   4.415
 2257SOL    HW1 6785   3.103   2.395   4.419
 2257SOL    HW2 6786   3.177   2.280   4.508
 2258SOL     OW 6787   1.901   2.939   4.024
 2258SOL    HW1 6788   2.000   2.928   4.015
 2258SOL    HW2 6789   1.861   2.853   4.056
 2259SOL     OW 6790   2.737   3.508   4.061
 2259SOL    HW1 6791   2.660   3.473   4.007
 2259SOL    HW2 6792   2.705   3.579   4.123
 2260SOL     OW 6793   2.092   4.352   0.113
 2260SOL    HW1 6794   1.999   4.350   0.150
 2260SOL    HW2 6795   2.093   4.313   0.021
 2261SOL     OW 6796   2.087   3.999   0.996
 2261SOL    HW1 6797   2.122   3.982   1.088
 2261SOL    HW2 6798   1.999   3.954   0.984
 2262SOL     OW 6799   1.881   4.092   0.647
 2262SOL    HW1 6800   1.799   4.135   0.686
 2262SOL    HW2 6801   1.853   4.019   0.584
 2263SOL     OW 6802   3.617   4.331   0.231
 2263SOL    HW1 6803   3.605   4.318   0.132
 2263SOL    HW2 6804   3.587   4.250   0.280
 2264SOL     OW 6805   2.712   4.522   1.823
 2264SOL    HW1 6806   2.708   4.598   1.888
 2264SOL    HW2 6807   2.734   4.558   1.732
 2265SOL     OW 6808   2.547   4.736   0.665
 2265SOL    HW1 6809   2.616   4.720   0.735
 2265SOL    HW2 6810   2.474   4.793   0.703
 2266SOL     OW 6811   2.300   4.116   1.499
 2266SOL    HW1 6812   2.382   4.060   1.508
 2266SOL    HW2 6813   2.219   4.058   1.503
 2267SOL     OW 6814   3.465   4.171   0.737
 2267SOL    HW1 6815   3.391   4.217   0.687
 2267SOL    HW2 6816   3.516   4.239   0.790
 2268SOL     OW 6817   3.456   3.838   1.480
 2268SOL    HW1 6818   3.438   3.905   1.408
 2268SOL    HW2 6819   3.453   3.884   1.569
 2269SOL     OW 6820   1.984   4.367   0.563
 2269SOL    HW1 6821   1.939   4.279   0.580
 2269SOL    HW2 6822   1.983   4.421   0.647
 2270SOL     OW 6823   1.975   4.461   1.597
 2270SOL    HW1 6824   2.063   4.448   1.642
 2270SOL    HW2 6825   1.962   4.558   1.575
 2271SOL     OW 6826   2.671   3.728   0.502
 2271SOL    HW1 6827   2.711   3.819   0.493
 2271SOL    HW2 6828   2.571   3.736   0.508
 2272SOL     OW 6829   2.179   3.975   1.801
 2272SOL    HW1 6830   2.250   4.046   1.807
 2272SOL    HW2 6831   2.091   4.014   1.829
 2273SOL     OW 6832   3.143   4.069   0.944
 2273SOL    HW1 6833   3.057   4.019   0.931
 2273SOL    HW2 6834   3.205   4.015   1.000
 2274SOL     OW 6835   2.669   4.329   1.465
 2274SOL    HW1 6836   2.622   4.326   1.554
 2274SOL    HW2 6837   2.618   4.274   1.399
 2275SOL     OW 6838   3.256   4.193   1.674
 2275SOL    HW1 6839   3.236   4.236   1.762
 2275SOL    HW2 6840   3.334   4.131   1.683
 2276SOL     OW 6841   2.853   4.134   1.242
 2276SOL    HW1 6842   2.776   4.168   1.296
 2276SOL    HW2 6843   2.819   4.083   1.163
 2277SOL     OW 6844   2.903   4.425   0.429
 2277SOL    HW1 6845   2.929   4.421   0.525
 2277SOL    HW2 6846   2.818   4.374   0.415
 2278SOL     OW 6847   2.727   4.072   0.195
 2278SOL    HW1 6848   2.786   4.135   0.146
 2278SOL    HW2 6849   2.746   3.978   0.166
 2279SOL     OW 6850   3.581   4.309   1.831
 2279SOL    HW1 6851   3.555   4.398   1.795
 2279SOL    HW2 6852   3.579   4.241   1.758
 2280SOL     OW 6853   2.412   3.920   0.885
 2280SOL    HW1 6854   2.407   3.915   0.985
 2280SOL    HW2 6855   2.414   4.016   0.856
 2281SOL     OW 6856   3.320   4.459   0.728
 2281SOL    HW1 6857   3.315   4.394   0.803
 2281SOL    HW2 6858   3.400   4.518   0.741
 2282SOL     OW 6859   2.064   4.009   1.498
 2282SOL    HW1 6860   1.984   4.069   1.485
 2282SOL    HW2 6861   2.054   3.960   1.584
 2283SOL     OW 6862   3.262   3.831   0.426
 2283SOL    HW1 6863   3.238   3.794   0.336
 2283SOL    HW2 6864   3.361   3.847   0.430
 2284SOL     OW 6865   2.244   4.424   0.480
 2284SOL    HW1 6866   2.289   4.334   0.477
 2284SOL    HW2 6867   2.150   4.413   0.513
 2285SOL     OW 6868   3.409   3.946   1.729
 2285SOL    HW1 6869   3.404   3.983   1.821
 2285SOL    HW2 6870   3.337   3.877   1.717
 2286SOL     OW 6871   2.643   3.988   1.749
 2286SOL    HW1 6872   2.710   3.927   1.792
 2286SOL    HW2 6873   2.570   4.007   1.814
 2287SOL     OW 6874   3.213   4.314   1.433
 2287SOL    HW1 6875   3.241   4.271   1.518
 2287SOL    HW2 6876   3.238   4.410   1.434
 2288SOL     OW 6877   2.784   4.227   0.899
 2288SOL    HW1 6878   2.759   4.218   0.803
 2288SOL    HW2 6879   2.832   4.145   0.930
 2289SOL     OW 6880   2.401   3.788   0.512
 2289SOL    HW1 6881   2.320   3.789   0.570
 2289SOL    HW2 6882   2.404   3.871   0.457
 2290SOL     OW 6883   2.797   3.960   0.480
 2290SOL    HW1 6884   2.749   4.001   0.402
 2290SOL    HW2 6885   2.896   3.958   0.461
 2291SOL     OW 6886   2.938   4.407   1.464
 2291SOL    HW1 6887   2.858   4.346   1.467
 2291SOL    HW2 6888   3.019   4.354   1.440
 2292SOL     OW 6889   2.894   4.273   0.016
 2292SOL    HW1 6890   2.853   4.355  -0.023
 2292SOL    HW2 6891   2.958   4.299   0.089
 2293SOL     OW 6892   1.940   4.280   1.386
 2293SOL    HW1 6893   2.032   4.279   1.345
 2293SOL    HW2 6894   1.934   4.354   1.453
 2294SOL     OW 6895   2.423   3.946   1.147
 2294SOL    HW1 6896   2.461   3.862   1.184
 2294SOL    HW2 6897   2.335   3.965   1.191
 2295SOL     OW 6898   2.728   4.178   0.642
 2295SOL    HW1 6899   2.696   4.250   0.580
 2295SOL    HW2 6900   2.752   4.097   0.589
 2296SOL     OW 6901   2.879   3.763   0.753
 2296SOL    HW1 6902   2.807   3.768   0.684
 2296SOL    HW2 6903   2.855   3.694   0.822
 2297SOL     OW 6904   3.328   4.314   0.992
 2297SOL    HW1 6905   3.298   4.219   0.999
 2297SOL    HW2 6906   3.401   4.330   1.058
 2298SOL     OW 6907   3.252   4.299   0.078
 2298SOL    HW1 6908   3.198   4.278   0.159
 2298SOL    HW2 6909   3.343   4.258   0.087
 2299SOL     OW 6910   2.389   3.980   0.328
 2299SOL    HW1 6911   2.416   3.921   0.253
 2299SOL    HW2 6912   2.389   4.075   0.297
 2300SOL     OW 6913   2.777   3.813   1.402
 2300SOL    HW1 6914   2.802   3.793   1.307
 2300SOL    HW2 6915   2.849   3.869   1.444
 2301SOL     OW 6916   2.567   4.774   0.368
 2301SOL    HW1 6917   2.553   4.781   0.467
 2301SOL    HW2 6918   2.651   4.723   0.350
 2302SOL     OW 6919   2.272   4.537   1.251
 2302SOL    HW1 6920   2.358   4.549   1.301
 2302SOL    HW2 6921   2.230   4.450   1.278
 2303SOL     OW 6922   3.136   4.110   1.262
 2303SOL    HW1 6923   3.157   4.184   1.326
 2303SOL    HW2 6924   3.047   4.127   1.219
 2304SOL     OW 6925   2.428   4.261   0.865
 2304SOL    HW1 6926   2.440   4.327   0.791
 2304SOL    HW2 6927   2.474   4.295   0.948
 2305SOL     OW 6928   3.444   4.363   0.472
 2305SOL    HW1 6929   3.413   4.424   0.545
 2305SOL    HW2 6930   3.494   4.415   0.403
 2306SOL     OW 6931   3.449   4.503   1.670
 2306SOL    HW1 6932   3.357   4.541   1.665
 2306SOL    HW2 6933   3.509   4.550   1.605
 2307SOL     OW 6934   2.875   3.829   1.770
 2307SOL    HW1 6935   2.881   3.914   1.718
 2307SOL    HW2 6936   2.907   3.753   1.713
 2308SOL     OW 6937   2.366   3.774   1.740
 2308SOL    HW1 6938   2.324   3.717   1.670
 2308SOL    HW2 6939   2.300   3.843   1.772
 2309SOL     OW 6940   3.222   4.586   1.045
 2309SOL    HW1 6941   3.147   4.586   0.979
 2309SOL    HW2 6942   3.259   4.494   1.054
 2310SOL     OW 6943   3.071   4.249   0.275
 2310SOL    HW1 6944   3.084   4.165   0.329
 2310SOL    HW2 6945   3.042   4.323   0.335
 2311SOL     OW 6946   2.169   3.937   1.231
 2311SOL    HW1 6947   2.146   3.974   1.321
 2311SOL    HW2 6948   2.139   3.842   1.225
 2312SOL     OW 6949   2.594   4.358   1.064
 2312SOL    HW1 6950   2.653   4.332   0.988
 2312SOL    HW2 6951   2.566   4.454   1.053
 2313SOL     OW 6952   3.590   4.659   1.854
 2313SOL    HW1 6953   3.544   4.652   1.765
 2313SOL    HW2 6954   3.528   4.703   1.920
 2314SOL     OW 6955   2.169   3.787   0.618
 2314SOL    HW1 6956   2.158   3.881   0.651
 2314SOL    HW2 6957   2.164   3.724   0.695
 2315SOL     OW 6958   3.484   4.091   0.374
 2315SOL    HW1 6959   3.486   4.015   0.438
 2315SOL    HW2 6960   3.436   4.168   0.414
 2316SOL     OW 6961   3.402   3.998   0.125
 2316SOL    HW1 6962   3.341   3.923   0.148
 2316SOL    HW2 6963   3.424   4.050   0.208
 2317SOL     OW 6964   2.181   4.534   0.949
 2317SOL    HW1 6965   2.274   4.570   0.954
 2317SOL    HW2 6966   2.175   4.449   1.001
 2318SOL     OW 6967   2.201   4.233   1.006
 2318SOL    HW1 6968   2.149   4.150   0.989
 2318SOL    HW2 6969   2.278   4.238   0.942
 2319SOL     OW 6970   3.000   4.104   1.678
 2319SOL    HW1 6971   2.955   4.167   1.742
 2319SOL    HW2 6972   3.093   4.135   1.661
 2320SOL     OW 6973   3.022   3.931   1.477
 2320SOL    HW1 6974   3.022   3.995   1.554
 2320SOL    HW2 6975   3.050   3.979   1.394
 2321SOL     OW 6976   1.902   4.268   1.114
 2321SOL    HW1 6977   1.987   4.235   1.073
 2321SOL    HW2 6978   1.915   4.283   1.212
 2322SOL     OW 6979   2.051   4.244   1.722
 2322SOL    HW1 6980   2.110   4.204   1.652
 2322SOL    HW2 6981   1.993   4.315   1.681
 2323SOL     OW 6982   2.677   4.296   0.325
 2323SOL    HW1 6983   2.684   4.207   0.279
 2323SOL    HW2 6984   2.583   4.330   0.317
 2324SOL     OW 6985   3.519   4.328   1.206
 2324SOL    HW1 6986   3.481   4.259   1.268
 2324SOL    HW2 6987   3.601   4.292   1.162
 2325SOL     OW 6988   2.533   4.188   1.269
 2325SOL    HW1 6989   2.499   4.099   1.239
 2325SOL    HW2 6990   2.559   4.242   1.189
 2326SOL     OW 6991   2.335   4.224   0.191
 2326SOL    HW1 6992   2.396   4.304   0.195
 2326SOL    HW2 6993   2.240   4.255   0.198
 2327SOL     OW 6994   2.765   3.810   0.133
 2327SOL    HW1 6995   2.816   3.811   0.047
 2327SOL    HW2 6996   2.821   3.768   0.204
 2328SOL     OW 6997   3.588   3.859   0.523
 2328SOL    HW1 6998   3.661   3.842   0.456
 2328SOL    HW2 6999   3.557   3.772   0.561
 2329SOL     OW 7000   3.142   4.651   0.672
 2329SOL    HW1 7001   3.202   4.570   0.674
 2329SOL    HW2 7002   3.182   4.720   0.612
 2330SOL     OW 7003   3.703   3.899   0.963
 2330SOL    HW1 7004   3.742   3.814   0.927
 2330SOL    HW2 7005   3.605   3.901   0.944
 2331SOL     OW 7006   2.125   4.050   0.720
 2331SOL    HW1 7007   2.046   4.101   0.686
 2331SOL    HW2 7008   2.116   4.035   0.818
 2332SOL     OW 7009   2.901   4.822   0.696
 2332SOL    HW1 7010   2.831   4.775   0.750
 2332SOL    HW2 7011   2.960   4.754   0.653
 2333SOL     OW 7012   2.876   3.960   0.971
 2333SOL    HW1 7013   2.868   3.924   0.878
 2333SOL    HW2 7014   2.874   3.884   1.036
 2334SOL     OW 7015   3.571   4.109   1.381
 2334SOL    HW1 7016   3.644   4.178   1.385
 2334SOL    HW2 7017   3.599   4.034   1.322
 2335SOL     OW 7018   2.534   3.927   1.489
 2335SOL    HW1 7019   2.624   3.911   1.449
 2335SOL    HW2 7020   2.542   3.932   1.588
 2336SOL     OW 7021   1.937   4.069   0.033
 2336SOL    HW1 7022   1.845   4.041   0.004
 2336SOL    HW2 7023   1.968   4.146  -0.023
 2337SOL     OW 7024   1.934   3.890   0.318
 2337SOL    HW1 7025   1.917   3.973   0.264
 2337SOL    HW2 7026   2.024   3.853   0.296
 2338SOL     OW 7027   2.578   4.289   1.708
 2338SOL    HW1 7028   2.597   4.354   1.782
 2338SOL    HW2 7029   2.638   4.209   1.717
 2339SOL     OW 7030   3.087   4.049   0.449
 2339SOL    HW1 7031   3.152   3.975   0.438
 2339SOL    HW2 7032   3.107   4.099   0.533
 2340SOL     OW 7033   3.639   4.066   1.642
 2340SOL    HW1 7034   3.622   4.097   1.548
 2340SOL    HW2 7035   3.555   4.029   1.680
 2341SOL     OW 7036   2.721   4.680   0.861
 2341SOL    HW1 7037   2.775   4.611   0.909
 2341SOL    HW2 7038   2.689   4.749   0.927
 2342SOL     OW 7039   2.945   4.708   0.087
 2342SOL    HW1 7040   2.922   4.761   0.005
 2342SOL    HW2 7041   3.026   4.652   0.068
 2343SOL     OW 7042   3.686   3.916   1.227
 2343SOL    HW1 7043   3.682   3.826   1.271
 2343SOL    HW2 7044   3.689   3.905   1.128
 2344SOL     OW 7045   2.290   4.148   0.520
 2344SOL    HW1 7046   2.320   4.076   0.458
 2344SOL    HW2 7047   2.251   4.108   0.603
 2345SOL     OW 7048   2.179   4.271   1.280
 2345SOL    HW1 7049   2.217   4.212   1.352
 2345SOL    HW2 7050   2.219   4.245   1.192
 2346SOL     OW 7051   3.286   3.938   1.112
 2346SOL    HW1 7052   3.338   3.873   1.167
 2346SOL    HW2 7053   3.237   4.001   1.173
 2347SOL     OW 7054   2.863   3.758   1.154
 2347SOL    HW1 7055   2.800   3.686   1.123
 2347SOL    HW2 7056   2.956   3.722   1.154
 2348SOL     OW 7057   3.214   3.776   0.168
 2348SOL    HW1 7058   3.249   3.735   0.084
 2348SOL    HW2 7059   3.124   3.738   0.188
 2349SOL     OW 7060   3.162   4.177   0.691
 2349SOL    HW1 7061   3.103   4.257   0.695
 2349SOL    HW2 7062   3.177   4.142   0.784
 2350SOL     OW 7063   3.455   3.945   0.882
 2350SOL    HW1 7064   3.371   3.944   0.936
 2350SOL    HW2 7065   3.457   4.028   0.826
 2351SOL     OW 7066   2.092   4.352   1.975
 2351SOL    HW1 7067   1.999   4.350   2.012
 2351SOL    HW2 7068   2.093   4.313   1.883
 2352SOL     OW 7069   2.087   3.999   2.858
 2352SOL    HW1 7070   2.122   3.982   2.950
 2352SOL    HW2 7071   1.999   3.954   2.846
 2353SOL     OW 7072   1.881   4.092   2.509
 2353SOL    HW1 7073   1.799   4.135   2.548
 2353SOL    HW2 7074   1.853   4.019   2.446
 2354SOL     OW 7075   3.617   4.331   2.093
 2354SOL    HW1 7076   3.605   4.318   1.994
 2354SOL    HW2 7077   3.587   4.250   2.142
 2355SOL     OW 7078   2.712   4.522   3.685
 2355SOL    HW1 7079   2.708   4.598   3.750
 2355SOL    HW2 7080   2.734   4.558   3.594
 2356SOL     OW 7081   2.547   4.736   2.527
 2356SOL    HW1 7082   2.616   4.720   2.597
 2356SOL    HW2 7083   2.474   4.793   2.565
 2357SOL     OW 7084   2.300   4.116   3.361
 2357SOL    HW1 7085   2.382   4.060   3.370
 2357SOL    HW2 7086   2.219   4.058   3.365
 2358SOL     OW 7087   3.465   4.171   2.599
 2358SOL    HW1 7088   3.391   4.217   2.549
 2358SOL    HW2 7089   3.516   4.239   2.652
 2359SOL     OW 7090   3.456   3.838   3.342
 2359SOL    HW1 7091   3.438   3.905   3.270
 2359SOL    HW2 7092   3.453   3.884   3.431
 2360SOL     OW 7093   1.984   4.367   2.425
 2360SOL    HW1 7094   1.939   4.279   2.442
 2360SOL    HW2 7095   1.983   4.421   2.509
 2361SOL     OW 7096   1.975   4.461   3.459
 2361SOL    HW1 7097   2.063   4.448   3.504
 2361SOL    HW2 7098   1.962   4.558   3.437
 2362SOL     OW 7099   2.671   3.728   2.364
 2362SOL    HW1 7100   2.711   3.819   2.355
 2362SOL    HW2 7101   2.571   3.736   2.370
 2363SOL     OW 7102   2.179   3.975   3.663
 2363SOL    HW1 7103   2.250   4.046   3.669
 2363SOL    HW2 7104   2.091   4.014   3.691
 2364SOL     OW 7105   3.143   4.069   2.806
 2364SOL    HW1 7106   3.057   4.019   2.793
 2364SOL    HW2 7107   3.205   4.015   2.862
 2365SOL     OW 7108   2.669   4.329   3.327
 2365SOL    HW1 7109   2.622   4.326   3.416
 2365SOL    HW2 7110   2.618   4.274   3.261
 2366SOL     OW 7111   3.256   4.193   3.536
 2366SOL    HW1 7112   3.236   4.236   3.624
 2366SOL    HW2 7113   3.334   4.131   3.545
 2367SOL     OW 7114   2.853   4.134   3.104
 2367SOL    HW1 7115   2.776   4.168   3.158
 2367SOL    HW2 7116   2.819   4.083   3.025
 2368SOL     OW 7117   2.903   4.425   2.291
 2368SOL    HW1 7118   2.929   4.421   2.387
 2368SOL    HW2 7119   2.818   4.374   2.277
 2369SOL     OW 7120   2.727   4.072   2.057
 2369SOL    HW1 7121   2.786   4.135   2.008
 2369SOL    HW2 7122   2.746   3.978   2.028
 2370SOL     OW 7123   3.581   4.309   3.693
 2370SOL    HW1 7124   3.555   4.398   3.657
 2370SOL    HW2 7125   3.579   4.241   3.620
 2371SOL     OW 7126   2.412   3.920   2.747
 2371SOL    HW1 7127   2.407   3.915   2.847
 2371SOL    HW2 7128   2.414   4.016   2.718
 2372SOL     OW 7129   3.320   4.459   2.590
 2372SOL    HW1 7130   3.315   4.394   2.665
 2372SOL    HW2 7131   3.400   4.518   2.603
 2373SOL     OW 7132   2.064   4.009   3.360
 2373SOL    HW1 7133   1.984   4.069   3.347
 2373SOL    HW2 7134   2.054   3.960   3.446
 2374SOL     OW 7135   3.262   3.831   2.288
 2374SOL    HW1 7136   3.238   3.794   2.198
 2374SOL    HW2 7137   3.361   3.847   2.292
 2375SOL     OW 7138   2.244   4.424   2.342
 2375SOL    HW1 7139   2.289   4.334   2.339
 2375SOL    HW2 7140   2.150   4.413   2.375
 2376SOL     OW 7141   3.409   3.946   3.591
 2376SOL    HW1 7142   3.404   3.983   3.683
 2376SOL    HW2 7143   3.337   3.877   3.579
 2377SOL     OW 7144   2.476   3.846   1.979
 2377SOL    HW1 7145   2.574   3.824   1.986
 2377SOL    HW2 7146   2.445   3.829   1.886
 2378SOL     OW 7147   2.643   3.988   3.611
 2378SOL    HW1 7148   2.710   3.927   3.654
 2378SOL    HW2 7149   2.570   4.007   3.676
 2379SOL     OW 7150   3.213   4.314   3.295
 2379SOL    HW1 7151   3.241   4.271   3.380
 2379SOL    HW2 7152   3.238   4.410   3.296
 2380SOL     OW 7153   2.784   4.227   2.761
 2380SOL    HW1 7154   2.759   4.218   2.665
 2380SOL    HW2 7155   2.832   4.145   2.792
 2381SOL     OW 7156   2.401   3.788   2.374
 2381SOL    HW1 7157   2.320   3.789   2.432
 2381SOL    HW2 7158   2.404   3.871   2.319
 2382SOL     OW 7159   2.159   3.759   2.033
 2382SOL    HW1 7160   2.208   3.843   2.012
 2382SOL    HW2 7161   2.221   3.694   2.078
 2383SOL     OW 7162   2.797   3.960   2.342
 2383SOL    HW1 7163   2.749   4.001   2.264
 2383SOL    HW2 7164   2.896   3.958   2.323
 2384SOL     OW 7165   2.938   4.407   3.326
 2384SOL    HW1 7166   2.858   4.346   3.329
 2384SOL    HW2 7167   3.019   4.354   3.302
 2385SOL     OW 7168   2.894   4.273   1.878
 2385SOL    HW1 7169   2.853   4.355   1.839
 2385SOL    HW2 7170   2.958   4.299   1.951
 2386SOL     OW 7171   1.940   4.280   3.248
 2386SOL    HW1 7172   2.032   4.279   3.207
 2386SOL    HW2 7173   1.934   4.354   3.315
 2387SOL     OW 7174   2.423   3.946   3.009
 2387SOL    HW1 7175   2.461   3.862   3.046
 2387SOL    HW2 7176   2.335   3.965   3.053
 2388SOL     OW 7177   2.728   4.178   2.504
 2388SOL    HW1 7178   2.696   4.250   2.442
 2388SOL    HW2 7179   2.752   4.097   2.451
 2389SOL     OW 7180   2.879   3.763   2.615
 2389SOL    HW1 7181   2.807   3.768   2.546
 2389SOL    HW2 7182   2.855   3.694   2.684
 2390SOL     OW 7183   3.328   4.314   2.854
 2390SOL    HW1 7184   3.298   4.219   2.861
 2390SOL    HW2 7185   3.401   4.330   2.920
 2391SOL     OW 7186   3.252   4.299   1.940
 2391SOL    HW1 7187   3.198   4.278   2.021
 2391SOL    HW2 7188   3.343   4.258   1.949
 2392SOL     OW 7189   2.389   3.980   2.190
 2392SOL    HW1 7190   2.416   3.921   2.115
 2392SOL    HW2 7191   2.389   4.075   2.159
 2393SOL     OW 7192   2.777   3.813   3.264
 2393SOL    HW1 7193   2.802   3.793   3.169
 2393SOL    HW2 7194   2.849   3.869   3.306
 2394SOL     OW 7195   2.567   4.774   2.230
 2394SOL    HW1 7196   2.553   4.781   2.329
 2394SOL    HW2 7197   2.651   4.723   2.212
 2395SOL     OW 7198   2.272   4.537   3.113
 2395SOL    HW1 7199   2.358   4.549   3.163
 2395SOL    HW2 7200   2.230   4.450   3.140
 2396SOL     OW 7201   3.136   4.110   3.124
 2396SOL    HW1 7202   3.157   4.184   3.188
 2396SOL    HW2 7203   3.047   4.127   3.081
 2397SOL     OW 7204   2.428   4.261   2.727
 2397SOL    HW1 7205   2.440   4.327   2.653
 2397SOL    HW2 7206   2.474   4.295   2.810
 2398SOL     OW 7207   3.444   4.363   2.334
 2398SOL    HW1 7208   3.413   4.424   2.407
 2398SOL    HW2 7209   3.494   4.415   2.265
 2399SOL     OW 7210   3.449   4.503   3.532
 2399SOL    HW1 7211   3.357   4.541   3.527
 2399SOL    HW2 7212   3.509   4.550   3.467
 2400SOL     OW 7213   2.875   3.829   3.632
 2400SOL    HW1 7214   2.881   3.914   3.580
 2400SOL    HW2 7215   2.907   3.753   3.575
 2401SOL     OW 7216   2.366   3.774   3.602
 2401SOL    HW1 7217   2.324   3.717   3.532
 2401SOL    HW2 7218   2.300   3.843   3.634
 2402SOL     OW 7219   3.222   4.586   2.907
 2402SOL    HW1 7220   3.147   4.586   2.841
 2402SOL    HW2 7221   3.259   4.494   2.916
 2403SOL     OW 7222   3.071   4.249   2.137
 2403SOL    HW1 7223   3.084   4.165   2.191
 2403SOL    HW2 7224   3.042   4.323   2.197
 2404SOL     OW 7225   2.169   3.937   3.093
 2404SOL    HW1 7226   2.146   3.974   3.183
 2404SOL    HW2 7227   2.139   3.842   3.087
 2405SOL     OW 7228   2.594   4.358   2.926
 2405SOL    HW1 7229   2.653   4.332   2.850
 2405SOL    HW2 7230   2.566   4.454   2.915
 2406SOL     OW 7231   3.590   4.659   3.716
 2406SOL    HW1 7232   3.544   4.652   3.627
 2406SOL    HW2 7233   3.528   4.703   3.782
 2407SOL     OW 7234   2.169   3.787   2.480
 2407SOL    HW1 7235   2.158   3.881   2.513
 2407SOL    HW2 7236   2.164   3.724   2.557
 2408SOL     OW 7237   3.484   4.091   2.236
 2408SOL    HW1 7238   3.486   4.015   2.300
 2408SOL    HW2 7239   3.436   4.168   2.276
 2409SOL     OW 7240   3.402   3.998   1.987
 2409SOL    HW1 7241   3.341   3.923   2.010
 2409SOL    HW2 7242   3.424   4.050   2.070
 2410SOL     OW 7243   2.181   4.534   2.811
 2410SOL    HW1 7244   2.274   4.570   2.816
 2410SOL    HW2 7245   2.175   4.449   2.863
 2411SOL     OW 7246   2.201   4.233   2.868
 2411SOL    HW1 7247   2.149   4.150   2.851
 2411SOL    HW2 7248   2.278   4.238   2.804
 2412SOL     OW 7249   3.000   4.104   3.540
 2412SOL    HW1 7250   2.955   4.167   3.604
 2412SOL    HW2 7251   3.093   4.135   3.523
 2413SOL     OW 7252   3.022   3.931   3.339
 2413SOL    HW1 7253   3.022   3.995   3.416
 2413SOL    HW2 7254   3.050   3.979   3.256
 2414SOL     OW 7255   1.902   4.268   2.976
 2414SOL    HW1 7256   1.987   4.235   2.935
 2414SOL    HW2 7257   1.915   4.283   3.074
 2415SOL     OW 7258   2.051   4.244   3.584
 2415SOL    HW1 7259   2.110   4.204   3.514
 2415SOL    HW2 7260   1.993   4.315   3.543
 2416SOL     OW 7261   2.677   4.296   2.187
 2416SOL    HW1 7262   2.684   4.207   2.141
 2416SOL    HW2 7263   2.583   4.330   2.179
 2417SOL     OW 7264   3.519   4.328   3.068
 2417SOL    HW1 7265   3.481   4.259   3.130
 2417SOL    HW2 7266   3.601   4.292   3.024
 2418SOL     OW 7267   2.533   4.188   3.131
 2418SOL    HW1 7268   2.499   4.099   3.101
 2418SOL    HW2 7269   2.559   4.242   3.051
 2419SOL     OW 7270   2.335   4.224   2.053
 2419SOL    HW1 7271   2.396   4.304   2.057
 2419SOL    HW2 7272   2.240   4.255   2.060
 2420SOL     OW 7273   3.588   3.859   2.385
 2420SOL    HW1 7274   3.661   3.842   2.318
 2420SOL    HW2 7275   3.557   3.772   2.423
 2421SOL     OW 7276   3.142   4.651   2.534
 2421SOL    HW1 7277   3.202   4.570   2.536
 2421SOL    HW2 7278   3.182   4.720   2.474
 2422SOL     OW 7279   3.703   3.899   2.825
 2422SOL    HW1 7280   3.742   3.814   2.789
 2422SOL    HW2 7281   3.605   3.901   2.806
 2423SOL     OW 7282   2.125   4.050   2.582
 2423SOL    HW1 7283   2.046   4.101   2.548
 2423SOL    HW2 7284   2.116   4.035   2.680
 2424SOL     OW 7285   2.778   4.634   2.153
 2424SOL    HW1 7286   2.841   4.672   2.085
 2424SOL    HW2 7287   2.818   4.551   2.192
 2425SOL     OW 7288   2.901   4.822   2.558
 2425SOL    HW1 7289   2.831   4.775   2.612
 2425SOL    HW2 7290   2.960   4.754   2.515
 2426SOL     OW 7291   2.876   3.960   2.833
 2426SOL    HW1 7292   2.868   3.924   2.740
 2426SOL    HW2 7293   2.874   3.884   2.898
 2427SOL     OW 7294   3.571   4.109   3.243
 2427SOL    HW1 7295   3.644   4.178   3.247
 2427SOL    HW2 7296   3.599   4.034   3.184
 2428SOL     OW 7297   2.534   3.927   3.351
 2428SOL    HW1 7298   2.624   3.911   3.311
 2428SOL    HW2 7299   2.542   3.932   3.450
 2429SOL     OW 7300   1.937   4.069   1.895
 2429SOL    HW1 7301   1.845   4.041   1.866
 2429SOL    HW2 7302   1.968   4.146   1.839
 2430SOL     OW 7303   1.934   3.890   2.180
 2430SOL    HW1 7304   1.917   3.973   2.126
 2430SOL    HW2 7305   2.024   3.853   2.158
 2431SOL     OW 7306   2.578   4.289   3.570
 2431SOL    HW1 7307   2.597   4.354   3.644
 2431SOL    HW2 7308   2.638   4.209   3.579
 2432SOL     OW 7309   3.087   4.049   2.311
 2432SOL    HW1 7310   3.152   3.975   2.300
 2432SOL    HW2 7311   3.107   4.099   2.395
 2433SOL     OW 7312   3.639   4.066   3.504
 2433SOL    HW1 7313   3.622   4.097   3.410
 2433SOL    HW2 7314   3.555   4.029   3.542
 2434SOL     OW 7315   2.721   4.680   2.723
 2434SOL    HW1 7316   2.775   4.611   2.771
 2434SOL    HW2 7317   2.689   4.749   2.789
 2435SOL     OW 7318   2.945   4.708   1.949
 2435SOL    HW1 7319   2.922   4.761   1.867
 2435SOL    HW2 7320   3.026   4.652   1.930
 2436SOL     OW 7321   3.686   3.916   3.089
 2436SOL    HW1 7322   3.682   3.826   3.133
 2436SOL    HW2 7323   3.689   3.905   2.990
 2437SOL     OW 7324   2.290   4.148   2.382
 2437SOL    HW1 7325   2.320   4.076   2.320
 2437SOL    HW2 7326   2.251   4.108   2.465
 2438SOL     OW 7327   2.179   4.271   3.142
 2438SOL    HW1 7328   2.217   4.212   3.214
 2438SOL    HW2 7329   2.219   4.245   3.054
 2439SOL     OW 7330   3.286   3.938   2.974
 2439SOL    HW1 7331   3.338   3.873   3.029
 2439SOL    HW2 7332   3.237   4.001   3.035
 2440SOL     OW 7333   2.863   3.758   3.016
 2440SOL    HW1 7334   2.800   3.686   2.985
 2440SOL    HW2 7335   2.956   3.722   3.016
 2441SOL     OW 7336   3.214   3.776   2.030
 2441SOL    HW1 7337   3.249   3.735   1.946
 2441SOL    HW2 7338   3.124   3.738   2.050
 2442SOL     OW 7339   3.162   4.177   2.553
 2442SOL    HW1 7340   3.103   4.257   2.557
 2442SOL    HW2 7341   3.177   4.142   2.646
 2443SOL     OW 7342   3.455   3.945   2.744
 2443SOL    HW1 7343   3.371   3.944   2.798
 2443SOL    HW2 7344   3.457   4.028   2.688
 2444SOL     OW 7345   2.092   4.352   3.837
 2444SOL    HW1 7346   1.999   4.350   3.874
 2444SOL    HW2 7347   2.093   4.313   3.745
 2445SOL     OW 7348   1.881   4.092   4.371
 2445SOL    HW1 7349   1.799   4.135   4.410
 2445SOL    HW2 7350   1.853   4.019   4.308
 2446SOL     OW 7351   3.617   4.331   3.955
 2446SOL    HW1 7352   3.605   4.318   3.856
 2446SOL    HW2 7353   3.587   4.250   4.004
 2447SOL     OW 7354   2.547   4.736   4.389
 2447SOL    HW1 7355   2.616   4.720   4.459
 2447SOL    HW2 7356   2.474   4.793   4.427
 2448SOL     OW 7357   3.465   4.171   4.461
 2448SOL    HW1 7358   3.391   4.217   4.411
 2448SOL    HW2 7359   3.516   4.239   4.514
 2449SOL     OW 7360   1.984   4.367   4.287
 2449SOL    HW1 7361   1.939   4.279   4.304
 2449SOL    HW2 7362   1.983   4.421   4.371
 2450SOL     OW 7363   2.671   3.728   4.226
 2450SOL    HW1 7364   2.711   3.819   4.217
 2450SOL    HW2 7365   2.571   3.736   4.232
 2451SOL     OW 7366   3.143   4.069   4.668
 2451SOL    HW1 7367   3.057   4.019   4.655
 2451SOL    HW2 7368   3.205   4.015   4.724
 2452SOL     OW 7369   2.903   4.425   4.153
 2452SOL    HW1 7370   2.929   4.421   4.249
 2452SOL    HW2 7371   2.818   4.374   4.139
 2453SOL     OW 7372   1.938   4.535   4.513
 2453SOL    HW1 7373   2.037   4.523   4.522
 2453SOL    HW2 7374   1.914   4.630   4.534
 2454SOL     OW 7375   2.727   4.072   3.919
 2454SOL    HW1 7376   2.786   4.135   3.870
 2454SOL    HW2 7377   2.746   3.978   3.890
 2455SOL     OW 7378   3.262   3.831   4.150
 2455SOL    HW1 7379   3.238   3.794   4.060
 2455SOL    HW2 7380   3.361   3.847   4.154
 2456SOL     OW 7381   2.244   4.424   4.204
 2456SOL    HW1 7382   2.289   4.334   4.201
 2456SOL    HW2 7383   2.150   4.413   4.237
 2457SOL     OW 7384   2.476   3.846   3.841
 2457SOL    HW1 7385   2.574   3.824   3.848
 2457SOL    HW2 7386   2.445   3.829   3.748
 2458SOL     OW 7387   2.401   3.788   4.236
 2458SOL    HW1 7388   2.320   3.789   4.294
 2458SOL    HW2 7389   2.404   3.871   4.181
 2459SOL     OW 7390   2.159   3.759   3.895
 2459SOL    HW1 7391   2.208   3.843   3.874
 2459SOL    HW2 7392   2.221   3.694   3.940
 2460SOL     OW 7393   2.797   3.960   4.204
 2460SOL    HW1 7394   2.749   4.001   4.126
 2460SOL    HW2 7395   2.896   3.958   4.185
 2461SOL     OW 7396   2.894   4.273   3.740
 2461SOL    HW1 7397   2.853   4.355   3.701
 2461SOL    HW2 7398   2.958   4.299   3.813
 2462SOL     OW 7399   2.728   4.178   4.366
 2462SOL    HW1 7400   2.696   4.250   4.304
 2462SOL    HW2 7401   2.752   4.097   4.313
 2463SOL     OW 7402   3.252   4.299   3.802
 2463SOL    HW1 7403   3.198   4.278   3.883
 2463SOL    HW2 7404   3.343   4.258   3.811
 2464SOL     OW 7405   2.389   3.980   4.052
 2464SOL    HW1 7406   2.416   3.921   3.977
 2464SOL    HW2 7407   2.389   4.075   4.021
 2465SOL     OW 7408   2.567   4.774   4.092
 2465SOL    HW1 7409   2.553   4.781   4.191
 2465SOL    HW2 7410   2.651   4.723   4.074
 2466SOL     OW 7411   3.444   4.363   4.196
 2466SOL    HW1 7412   3.413   4.424   4.269
 2466SOL    HW2 7413   3.494   4.415   4.127
 2467SOL     OW 7414   3.071   4.249   3.999
 2467SOL    HW1 7415   3.084   4.165   4.053
 2467SOL    HW2 7416   3.042   4.323   4.059
 2468SOL     OW 7417   2.169   3.787   4.342
 2468SOL    HW1 7418   2.158   3.881   4.375
 2468SOL    HW2 7419   2.164   3.724   4.419
 2469SOL     OW 7420   3.484   4.091   4.098
 2469SOL    HW1 7421   3.486   4.015   4.162
 2469SOL    HW2 7422   3.436   4.168   4.138
 2470SOL     OW 7423   3.402   3.998   3.849
 2470SOL    HW1 7424   3.341   3.923   3.872
 2470SOL    HW2 7425   3.424   4.050   3.932
 2471SOL     OW 7426   2.677   4.296   4.049
 2471SOL    HW1 7427   2.684   4.207   4.003
 2471SOL    HW2 7428   2.583   4.330   4.041
 2472SOL     OW 7429   2.335   4.224   3.915
 2472SOL    HW1 7430   2.396   4.304   3.919
 2472SOL    HW2 7431   2.240   4.255   3.922
 2473SOL     OW 7432   3.588   3.859   4.247
 2473SOL    HW1 7433   3.661   3.842   4.180
 2473SOL    HW2 7434   3.557   3.772   4.285
 2474SOL     OW 7435   3.142   4.651   4.396
 2474SOL    HW1 7436   3.202   4.570   4.398
 2474SOL    HW2 7437   3.182   4.720   4.336
 2475SOL     OW 7438   2.778   4.634   4.015
 2475SOL    HW1 7439   2.841   4.672   3.947
 2475SOL    HW2 7440   2.818   4.551   4.054
 2476SOL     OW 7441   1.937   4.069   3.757
 2476SOL    HW1 7442   1.845   4.041   3.728
 2476SOL    HW2 7443   1.968   4.146   3.701
 2477SOL     OW 7444   1.934   3.890   4.042
 2477SOL    HW1 7445   1.917   3.973   3.988
 2477SOL    HW2 7446   2.024   3.853   4.020
 2478SOL     OW 7447   3.087   4.049   4.173
 2478SOL    HW1 7448   3.152   3.975   4.162
 2478SOL    HW2 7449   3.107   4.099   4.257
 2479SOL     OW 7450   2.945   4.708   3.811
 2479SOL    HW1 7451   2.922   4.761   3.729
 2479SOL    HW2 7452   3.026   4.652   3.792
 2480SOL     OW 7453   2.290   4.148   4.244
 2480SOL    HW1 7454   2.320   4.076   4.182
 2480SOL    HW2 7455   2.251   4.108   4.327
 2481SOL     OW 7456   3.214   3.776   3.892
 2481SOL    HW1 7457   3.249   3.735   3.808
 2481SOL    HW2 7458   3.124   3.738   3.912
 2482SOL     OW 7459   3.162   4.177   4.415
 2482SOL    HW1 7460   3.103   4.257   4.419
 2482SOL    HW2 7461   3.177   4.142   4.508
 2483SOL     OW 7462   3.954   0.628   0.113
 2483SOL    HW1 7463   3.861   0.626   0.150
 2483SOL    HW2 7464   3.955   0.589   0.021
 2484SOL     OW 7465   3.949   0.275   0.996
 2484SOL    HW1 7466   3.984   0.258   1.088
 2484SOL    HW2 7467   3.861   0.230   0.984
 2485SOL     OW 7468   3.743   0.368   0.647
 2485SOL    HW1 7469   3.661   0.411   0.686
 2485SOL    HW2 7470   3.715   0.295   0.584
 2486SOL     OW 7471   4.293   1.275   1.165
 2486SOL    HW1 7472   4.200   1.268   1.128
 2486SOL    HW2 7473   4.304   1.364   1.209
 2487SOL     OW 7474   4.574   0.798   1.823
 2487SOL    HW1 7475   4.570   0.874   1.888
 2487SOL    HW2 7476   4.596   0.834   1.732
 2488SOL     OW 7477   4.409   1.012   0.665
 2488SOL    HW1 7478   4.478   0.996   0.735
 2488SOL    HW2 7479   4.336   1.069   0.703
 2489SOL     OW 7480   4.410   1.161   1.803
 2489SOL    HW1 7481   4.470   1.240   1.817
 2489SOL    HW2 7482   4.324   1.192   1.762
 2490SOL     OW 7483   4.059   1.435   1.061
 2490SOL    HW1 7484   3.981   1.404   1.008
 2490SOL    HW2 7485   4.117   1.493   1.004
 2491SOL     OW 7486   4.162   0.392   1.499
 2491SOL    HW1 7487   4.244   0.336   1.508
 2491SOL    HW2 7488   4.081   0.334   1.503
 2492SOL     OW 7489   3.955   1.713   0.483
 2492SOL    HW1 7490   3.989   1.790   0.537
 2492SOL    HW2 7491   3.999   1.713   0.393
 2493SOL     OW 7492   3.954   1.434   0.538
 2493SOL    HW1 7493   3.928   1.530   0.538
 2493SOL    HW2 7494   3.883   1.380   0.583
 2494SOL     OW 7495   3.964   1.091   0.886
 2494SOL    HW1 7496   3.978   1.007   0.938
 2494SOL    HW2 7497   3.909   1.155   0.941
 2495SOL     OW 7498   4.344   1.786   1.439
 2495SOL    HW1 7499   4.252   1.769   1.474
 2495SOL    HW2 7500   4.372   1.878   1.465
 2496SOL     OW 7501   4.330   0.964   0.123
 2496SOL    HW1 7502   4.337   1.048   0.069
 2496SOL    HW2 7503   4.376   0.977   0.211
 2497SOL     OW 7504   3.846   0.643   0.563
 2497SOL    HW1 7505   3.801   0.555   0.580
 2497SOL    HW2 7506   3.845   0.697   0.647
 2498SOL     OW 7507   3.751   1.596   0.117
 2498SOL    HW1 7508   3.732   1.500   0.138
 2498SOL    HW2 7509   3.718   1.654   0.192
 2499SOL     OW 7510   3.837   0.737   1.597
 2499SOL    HW1 7511   3.925   0.724   1.642
 2499SOL    HW2 7512   3.824   0.834   1.575
 2500SOL     OW 7513   4.337   1.365   0.726
 2500SOL    HW1 7514   4.288   1.278   0.735
 2500SOL    HW2 7515   4.314   1.408   0.639
 2501SOL     OW 7516   4.533   0.004   0.502
 2501SOL    HW1 7517   4.573   0.095   0.493
 2501SOL    HW2 7518   4.433   0.012   0.508
 2502SOL     OW 7519   3.921   0.976   1.264
 2502SOL    HW1 7520   4.010   0.931   1.250
 2502SOL    HW2 7521   3.848   0.911   1.245
 2503SOL     OW 7522   4.041   0.251   1.801
 2503SOL    HW1 7523   4.112   0.322   1.807
 2503SOL    HW2 7524   3.953   0.290   1.829
 2504SOL     OW 7525   4.322   0.729   0.270
 2504SOL    HW1 7526   4.346   0.798   0.202
 2504SOL    HW2 7527   4.244   0.762   0.324
 2505SOL     OW 7528   3.800   0.811   0.789
 2505SOL    HW1 7529   3.899   0.799   0.798
 2505SOL    HW2 7530   3.776   0.906   0.810
 2506SOL     OW 7531   3.854   1.821   1.571
 2506SOL    HW1 7532   3.844   1.806   1.670
 2506SOL    HW2 7533   3.768   1.857   1.535
 2507SOL     OW 7534   4.274   0.196   0.885
 2507SOL    HW1 7535   4.269   0.191   0.985
 2507SOL    HW2 7536   4.276   0.292   0.856
 2508SOL     OW 7537   4.075   1.801   0.853
 2508SOL    HW1 7538   4.125   1.715   0.859
 2508SOL    HW2 7539   4.140   1.878   0.850
 2509SOL     OW 7540   4.045   0.943   0.242
 2509SOL    HW1 7541   4.127   0.982   0.200
 2509SOL    HW2 7542   4.018   0.861   0.193
 2510SOL     OW 7543   4.185   1.266   1.727
 2510SOL    HW1 7544   4.135   1.267   1.641
 2510SOL    HW2 7545   4.122   1.248   1.803
 2511SOL     OW 7546   3.926   0.285   1.498
 2511SOL    HW1 7547   3.846   0.345   1.485
 2511SOL    HW2 7548   3.916   0.236   1.584
 2512SOL     OW 7549   4.188   1.743   0.323
 2512SOL    HW1 7550   4.221   1.782   0.409
 2512SOL    HW2 7551   4.264   1.736   0.258
 2513SOL     OW 7552   3.973   1.785   1.241
 2513SOL    HW1 7553   4.030   1.720   1.291
 2513SOL    HW2 7554   3.957   1.752   1.148
 2514SOL     OW 7555   4.106   0.700   0.480
 2514SOL    HW1 7556   4.151   0.610   0.477
 2514SOL    HW2 7557   4.012   0.689   0.513
 2515SOL     OW 7558   4.338   0.122   0.117
 2515SOL    HW1 7559   4.436   0.100   0.124
 2515SOL    HW2 7560   4.307   0.105   0.024
 2516SOL     OW 7561   4.527   1.402   0.924
 2516SOL    HW1 7562   4.617   1.416   0.882
 2516SOL    HW2 7563   4.456   1.404   0.853
 2517SOL     OW 7564   4.263   0.064   0.512
 2517SOL    HW1 7565   4.182   0.065   0.570
 2517SOL    HW2 7566   4.266   0.147   0.457
 2518SOL     OW 7567   4.021   0.035   0.171
 2518SOL    HW1 7568   4.070   0.119   0.150
 2518SOL    HW2 7569   4.083  -0.030   0.216
 2519SOL     OW 7570   4.183   1.152   0.741
 2519SOL    HW1 7571   4.112   1.125   0.806
 2519SOL    HW2 7572   4.157   1.124   0.648
 2520SOL     OW 7573   3.802   0.556   1.386
 2520SOL    HW1 7574   3.894   0.555   1.345
 2520SOL    HW2 7575   3.796   0.630   1.453
 2521SOL     OW 7576   4.285   0.222   1.147
 2521SOL    HW1 7577   4.323   0.138   1.184
 2521SOL    HW2 7578   4.197   0.241   1.191
 2522SOL     OW 7579   4.212   1.385   0.174
 2522SOL    HW1 7580   4.125   1.370   0.221
 2522SOL    HW2 7581   4.195   1.411   0.079
 2523SOL     OW 7582   4.251   0.256   0.328
 2523SOL    HW1 7583   4.278   0.197   0.253
 2523SOL    HW2 7584   4.251   0.351   0.297
 2524SOL     OW 7585   4.134   0.813   1.251
 2524SOL    HW1 7586   4.220   0.825   1.301
 2524SOL    HW2 7587   4.092   0.726   1.278
 2525SOL     OW 7588   3.788   1.564   1.331
 2525SOL    HW1 7589   3.742   1.646   1.297
 2525SOL    HW2 7590   3.886   1.583   1.340
 2526SOL     OW 7591   4.091   1.100   0.501
 2526SOL    HW1 7592   4.084   1.183   0.445
 2526SOL    HW2 7593   4.095   1.020   0.441
 2527SOL     OW 7594   4.290   0.537   0.865
 2527SOL    HW1 7595   4.302   0.603   0.791
 2527SOL    HW2 7596   4.336   0.571   0.948
 2528SOL     OW 7597   4.078   1.510   1.329
 2528SOL    HW1 7598   4.057   1.466   1.242
 2528SOL    HW2 7599   4.175   1.536   1.332
 2529SOL     OW 7600   4.126   0.751   1.598
 2529SOL    HW1 7601   4.194   0.806   1.551
 2529SOL    HW2 7602   4.166   0.663   1.625
 2530SOL     OW 7603   4.228   0.050   1.740
 2530SOL    HW1 7604   4.186  -0.007   1.670
 2530SOL    HW2 7605   4.162   0.119   1.772
 2531SOL     OW 7606   4.297   0.870   1.029
 2531SOL    HW1 7607   4.341   0.959   1.020
 2531SOL    HW2 7608   4.234   0.870   1.106
 2532SOL     OW 7609   4.031   0.213   1.231
 2532SOL    HW1 7610   4.008   0.250   1.321
 2532SOL    HW2 7611   4.001   0.118   1.225
 2533SOL     OW 7612   3.761   1.310   1.282
 2533SOL    HW1 7613   3.814   1.261   1.350
 2533SOL    HW2 7614   3.783   1.408   1.287
 2534SOL     OW 7615   4.031   0.063   0.618
 2534SOL    HW1 7616   4.020   0.157   0.651
 2534SOL    HW2 7617   4.026   0.000   0.695
 2535SOL     OW 7618   4.074   0.898   1.804
 2535SOL    HW1 7619   4.150   0.942   1.852
 2535SOL    HW2 7620   4.109   0.851   1.722
 2536SOL     OW 7621   4.043   0.810   0.949
 2536SOL    HW1 7622   4.136   0.846   0.954
 2536SOL    HW2 7623   4.037   0.725   1.001
 2537SOL     OW 7624   4.063   0.509   1.006
 2537SOL    HW1 7625   4.011   0.426   0.989
 2537SOL    HW2 7626   4.140   0.514   0.942
 2538SOL     OW 7627   3.732   1.326   0.200
 2538SOL    HW1 7628   3.639   1.347   0.169
 2538SOL    HW2 7629   3.742   1.227   0.213
 2539SOL     OW 7630   3.812   1.801   0.927
 2539SOL    HW1 7631   3.770   1.715   0.900
 2539SOL    HW2 7632   3.906   1.804   0.893
 2540SOL     OW 7633   4.228   1.568   0.910
 2540SOL    HW1 7634   4.294   1.642   0.919
 2540SOL    HW2 7635   4.272   1.489   0.868
 2541SOL     OW 7636   3.764   0.544   1.114
 2541SOL    HW1 7637   3.849   0.511   1.073
 2541SOL    HW2 7638   3.777   0.559   1.212
 2542SOL     OW 7639   3.913   0.520   1.722
 2542SOL    HW1 7640   3.972   0.480   1.652
 2542SOL    HW2 7641   3.855   0.591   1.681
 2543SOL     OW 7642   4.539   0.572   0.325
 2543SOL    HW1 7643   4.546   0.483   0.279
 2543SOL    HW2 7644   4.445   0.606   0.317
 2544SOL     OW 7645   3.976   1.564   1.744
 2544SOL    HW1 7646   3.946   1.621   1.820
 2544SOL    HW2 7647   3.969   1.467   1.770
 2545SOL     OW 7648   4.395   0.464   1.269
 2545SOL    HW1 7649   4.361   0.375   1.239
 2545SOL    HW2 7650   4.421   0.518   1.189
 2546SOL     OW 7651   4.197   0.500   0.191
 2546SOL    HW1 7652   4.258   0.580   0.195
 2546SOL    HW2 7653   4.102   0.531   0.198
 2547SOL     OW 7654   3.883   1.137   1.466
 2547SOL    HW1 7655   3.905   1.076   1.542
 2547SOL    HW2 7656   3.893   1.088   1.380
 2548SOL     OW 7657   3.807   1.258   1.022
 2548SOL    HW1 7658   3.802   1.257   1.122
 2548SOL    HW2 7659   3.724   1.217   0.984
 2549SOL     OW 7660   4.412   1.662   1.716
 2549SOL    HW1 7661   4.356   1.743   1.725
 2549SOL    HW2 7662   4.464   1.666   1.630
 2550SOL     OW 7663   3.854   1.794   1.851
 2550SOL    HW1 7664   3.813   1.720   1.904
 2550SOL    HW2 7665   3.918   1.845   1.909
 2551SOL     OW 7666   3.987   0.326   0.720
 2551SOL    HW1 7667   3.908   0.377   0.686
 2551SOL    HW2 7668   3.978   0.311   0.818
 2552SOL     OW 7669   4.096   1.288   1.490
 2552SOL    HW1 7670   4.083   1.381   1.456
 2552SOL    HW2 7671   4.012   1.236   1.477
 2553SOL     OW 7672   4.763   1.098   0.696
 2553SOL    HW1 7673   4.693   1.051   0.750
 2553SOL    HW2 7674   4.822   1.030   0.653
 2554SOL     OW 7675   4.314   1.487   0.491
 2554SOL    HW1 7676   4.356   1.429   0.421
 2554SOL    HW2 7677   4.270   1.566   0.447
 2555SOL     OW 7678   3.979   1.348   0.290
 2555SOL    HW1 7679   3.883   1.349   0.263
 2555SOL    HW2 7680   3.991   1.401   0.374
 2556SOL     OW 7681   3.829   1.013   1.726
 2556SOL    HW1 7682   3.752   0.980   1.780
 2556SOL    HW2 7683   3.914   0.983   1.768
 2557SOL     OW 7684   4.396   0.203   1.489
 2557SOL    HW1 7685   4.486   0.187   1.449
 2557SOL    HW2 7686   4.404   0.208   1.588
 2558SOL     OW 7687   3.799   0.345   0.033
 2558SOL    HW1 7688   3.707   0.317   0.004
 2558SOL    HW2 7689   3.830   0.422  -0.023
 2559SOL     OW 7690   3.796   0.166   0.318
 2559SOL    HW1 7691   3.779   0.249   0.264
 2559SOL    HW2 7692   3.886   0.129   0.296
 2560SOL     OW 7693   4.337   0.842   1.431
 2560SOL    HW1 7694   4.393   0.923   1.414
 2560SOL    HW2 7695   4.396   0.762   1.434
 2561SOL     OW 7696   4.440   0.565   1.708
 2561SOL    HW1 7697   4.459   0.630   1.782
 2561SOL    HW2 7698   4.500   0.485   1.717
 2562SOL     OW 7699   4.114   1.741   1.560
 2562SOL    HW1 7700   4.023   1.782   1.558
 2562SOL    HW2 7701   4.107   1.647   1.592
 2563SOL     OW 7702   4.318   0.745   0.652
 2563SOL    HW1 7703   4.368   0.830   0.633
 2563SOL    HW2 7704   4.230   0.747   0.604
 2564SOL     OW 7705   3.945   1.314   1.844
 2564SOL    HW1 7706   3.880   1.241   1.823
 2564SOL    HW2 7707   3.949   1.328   1.942
 2565SOL     OW 7708   3.803   1.240   0.653
 2565SOL    HW1 7709   3.802   1.193   0.741
 2565SOL    HW2 7710   3.885   1.212   0.602
 2566SOL     OW 7711   4.396   1.391   1.624
 2566SOL    HW1 7712   4.318   1.341   1.662
 2566SOL    HW2 7713   4.393   1.486   1.655
 2567SOL     OW 7714   4.152   0.424   0.520
 2567SOL    HW1 7715   4.182   0.352   0.458
 2567SOL    HW2 7716   4.113   0.384   0.603
 2568SOL     OW 7717   4.041   0.547   1.280
 2568SOL    HW1 7718   4.079   0.488   1.352
 2568SOL    HW2 7719   4.081   0.521   1.192
 2569SOL     OW 7720   4.536   1.586   0.687
 2569SOL    HW1 7721   4.568   1.596   0.593
 2569SOL    HW2 7722   4.457   1.524   0.689
 2570SOL     OW 7723   4.342   1.567   1.284
 2570SOL    HW1 7724   4.337   1.649   1.341
 2570SOL    HW2 7725   4.431   1.564   1.239
 2571SOL     OW 7726   3.763   1.077   0.300
 2571SOL    HW1 7727   3.862   1.066   0.291
 2571SOL    HW2 7728   3.723   0.991   0.332
 2572SOL     OW 7729   3.954   0.628   1.975
 2572SOL    HW1 7730   3.861   0.626   2.012
 2572SOL    HW2 7731   3.955   0.589   1.883
 2573SOL     OW 7732   3.949   0.275   2.858
 2573SOL    HW1 7733   3.984   0.258   2.950
 2573SOL    HW2 7734   3.861   0.230   2.846
 2574SOL     OW 7735   3.743   0.368   2.509
 2574SOL    HW1 7736   3.661   0.411   2.548
 2574SOL    HW2 7737   3.715   0.295   2.446
 2575SOL     OW 7738   4.293   1.275   3.027
 2575SOL    HW1 7739   4.200   1.268   2.990
 2575SOL    HW2 7740   4.304   1.364   3.071
 2576SOL     OW 7741   4.574   0.798   3.685
 2576SOL    HW1 7742   4.570   0.874   3.750
 2576SOL    HW2 7743   4.596   0.834   3.594
 2577SOL     OW 7744   4.409   1.012   2.527
 2577SOL    HW1 7745   4.478   0.996   2.597
 2577SOL    HW2 7746   4.336   1.069   2.565
 2578SOL     OW 7747   4.410   1.161   3.665
 2578SOL    HW1 7748   4.470   1.240   3.679
 2578SOL    HW2 7749   4.324   1.192   3.624
 2579SOL     OW 7750   4.059   1.435   2.923
 2579SOL    HW1 7751   3.981   1.404   2.870
 2579SOL    HW2 7752   4.117   1.493   2.866
 2580SOL     OW 7753   4.162   0.392   3.361
 2580SOL    HW1 7754   4.244   0.336   3.370
 2580SOL    HW2 7755   4.081   0.334   3.365
 2581SOL     OW 7756   3.955   1.713   2.345
 2581SOL    HW1 7757   3.989   1.790   2.399
 2581SOL    HW2 7758   3.999   1.713   2.255
 2582SOL     OW 7759   3.954   1.434   2.400
 2582SOL    HW1 7760   3.928   1.530   2.400
 2582SOL    HW2 7761   3.883   1.380   2.445
 2583SOL     OW 7762   3.964   1.091   2.748
 2583SOL    HW1 7763   3.978   1.007   2.800
 2583SOL    HW2 7764   3.909   1.155   2.803
 2584SOL     OW 7765   4.344   1.786   3.301
 2584SOL    HW1 7766   4.252   1.769   3.336
 2584SOL    HW2 7767   4.372   1.878   3.327
 2585SOL     OW 7768   4.330   0.964   1.985
 2585SOL    HW1 7769   4.337   1.048   1.931
 2585SOL    HW2 7770   4.376   0.977   2.073
 2586SOL     OW 7771   3.846   0.643   2.425
 2586SOL    HW1 7772   3.801   0.555   2.442
 2586SOL    HW2 7773   3.845   0.697   2.509
 2587SOL     OW 7774   3.751   1.596   1.979
 2587SOL    HW1 7775   3.732   1.500   2.000
 2587SOL    HW2 7776   3.718   1.654   2.054
 2588SOL     OW 7777   3.837   0.737   3.459
 2588SOL    HW1 7778   3.925   0.724   3.504
 2588SOL    HW2 7779   3.824   0.834   3.437
 2589SOL     OW 7780   4.337   1.365   2.588
 2589SOL    HW1 7781   4.288   1.278   2.597
 2589SOL    HW2 7782   4.314   1.408   2.501
 2590SOL     OW 7783   4.533   0.004   2.364
 2590SOL    HW1 7784   4.573   0.095   2.355
 2590SOL    HW2 7785   4.433   0.012   2.370
 2591SOL     OW 7786   3.921   0.976   3.126
 2591SOL    HW1 7787   4.010   0.931   3.112
 2591SOL    HW2 7788   3.848   0.911   3.107
 2592SOL     OW 7789   4.041   0.251   3.663
 2592SOL    HW1 7790   4.112   0.322   3.669
 2592SOL    HW2 7791   3.953   0.290   3.691
 2593SOL     OW 7792   4.322   0.729   2.132
 2593SOL    HW1 7793   4.346   0.798   2.064
 2593SOL    HW2 7794   4.244   0.762   2.186
 2594SOL     OW 7795   3.800   0.811   2.651
 2594SOL    HW1 7796   3.899   0.799   2.660
 2594SOL    HW2 7797   3.776   0.906   2.672
 2595SOL     OW 7798   3.854   1.821   3.433
 2595SOL    HW1 7799   3.844   1.806   3.532
 2595SOL    HW2 7800   3.768   1.857   3.397
 2596SOL     OW 7801   4.274   0.196   2.747
 2596SOL    HW1 7802   4.269   0.191   2.847
 2596SOL    HW2 7803   4.276   0.292   2.718
 2597SOL     OW 7804   4.075   1.801   2.715
 2597SOL    HW1 7805   4.125   1.715   2.721
 2597SOL    HW2 7806   4.140   1.878   2.712
 2598SOL     OW 7807   4.045   0.943   2.104
 2598SOL    HW1 7808   4.127   0.982   2.062
 2598SOL    HW2 7809   4.018   0.861   2.055
 2599SOL     OW 7810   4.185   1.266   3.589
 2599SOL    HW1 7811   4.135   1.267   3.503
 2599SOL    HW2 7812   4.122   1.248   3.665
 2600SOL     OW 7813   3.926   0.285   3.360
 2600SOL    HW1 7814   3.846   0.345   3.347
 2600SOL    HW2 7815   3.916   0.236   3.446
 2601SOL     OW 7816   4.188   1.743   2.185
 2601SOL    HW1 7817   4.221   1.782   2.271
 2601SOL    HW2 7818   4.264   1.736   2.120
 2602SOL     OW 7819   3.973   1.785   3.103
 2602SOL    HW1 7820   4.030   1.720   3.153
 2602SOL    HW2 7821   3.957   1.752   3.010
 2603SOL     OW 7822   4.106   0.700   2.342
 2603SOL    HW1 7823   4.151   0.610   2.339
 2603SOL    HW2 7824   4.012   0.689   2.375
 2604SOL     OW 7825   4.338   0.122   1.979
 2604SOL    HW1 7826   4.436   0.100   1.986
 2604SOL    HW2 7827   4.307   0.105   1.886
 2605SOL     OW 7828   4.527   1.402   2.786
 2605SOL    HW1 7829   4.617   1.416   2.744
 2605SOL    HW2 7830   4.456   1.404   2.715
 2606SOL     OW 7831   4.263   0.064   2.374
 2606SOL    HW1 7832   4.182   0.065   2.432
 2606SOL    HW2 7833   4.266   0.147   2.319
 2607SOL     OW 7834   4.021   0.035   2.033
 2607SOL    HW1 7835   4.070   0.119   2.012
 2607SOL    HW2 7836   4.083  -0.030   2.078
 2608SOL     OW 7837   4.183   1.152   2.603
 2608SOL    HW1 7838   4.112   1.125   2.668
 2608SOL    HW2 7839   4.157   1.124   2.510
 2609SOL     OW 7840   3.802   0.556   3.248
 2609SOL    HW1 7841   3.894   0.555   3.207
 2609SOL    HW2 7842   3.796   0.630   3.315
 2610SOL     OW 7843   4.285   0.222   3.009
 2610SOL    HW1 7844   4.323   0.138   3.046
 2610SOL    HW2 7845   4.197   0.241   3.053
 2611SOL     OW 7846   4.212   1.385   2.036
 2611SOL    HW1 7847   4.125   1.370   2.083
 2611SOL    HW2 7848   4.195   1.411   1.941
 2612SOL     OW 7849   4.251   0.256   2.190
 2612SOL    HW1 7850   4.278   0.197   2.115
 2612SOL    HW2 7851   4.251   0.351   2.159
 2613SOL     OW 7852   4.134   0.813   3.113
 2613SOL    HW1 7853   4.220   0.825   3.163
 2613SOL    HW2 7854   4.092   0.726   3.140
 2614SOL     OW 7855   3.788   1.564   3.193
 2614SOL    HW1 7856   3.742   1.646   3.159
 2614SOL    HW2 7857   3.886   1.583   3.202
 2615SOL     OW 7858   4.091   1.100   2.363
 2615SOL    HW1 7859   4.084   1.183   2.307
 2615SOL    HW2 7860   4.095   1.020   2.303
 2616SOL     OW 7861   4.290   0.537   2.727
 2616SOL    HW1 7862   4.302   0.603   2.653
 2616SOL    HW2 7863   4.336   0.571   2.810
 2617SOL     OW 7864   4.078   1.510   3.191
 2617SOL    HW1 7865   4.057   1.466   3.104
 2617SOL    HW2 7866   4.175   1.536   3.194
 2618SOL     OW 7867   4.126   0.751   3.460
 2618SOL    HW1 7868   4.194   0.806   3.413
 2618SOL    HW2 7869   4.166   0.663   3.487
 2619SOL     OW 7870   4.228   0.050   3.602
 2619SOL    HW1 7871   4.186  -0.007   3.532
 2619SOL    HW2 7872   4.162   0.119   3.634
 2620SOL     OW 7873   4.297   0.870   2.891
 2620SOL    HW1 7874   4.341   0.959   2.882
 2620SOL    HW2 7875   4.234   0.870   2.968
 2621SOL     OW 7876   4.031   0.213   3.093
 2621SOL    HW1 7877   4.008   0.250   3.183
 2621SOL    HW2 7878   4.001   0.118   3.087
 2622SOL     OW 7879   3.761   1.310   3.144
 2622SOL    HW1 7880   3.814   1.261   3.212
 2622SOL    HW2 7881   3.783   1.408   3.149
 2623SOL     OW 7882   4.031   0.063   2.480
 2623SOL    HW1 7883   4.020   0.157   2.513
 2623SOL    HW2 7884   4.026   0.000   2.557
 2624SOL     OW 7885   4.074   0.898   3.666
 2624SOL    HW1 7886   4.150   0.942   3.714
 2624SOL    HW2 7887   4.109   0.851   3.584
 2625SOL     OW 7888   4.043   0.810   2.811
 2625SOL    HW1 7889   4.136   0.846   2.816
 2625SOL    HW2 7890   4.037   0.725   2.863
 2626SOL     OW 7891   4.063   0.509   2.868
 2626SOL    HW1 7892   4.011   0.426   2.851
 2626SOL    HW2 7893   4.140   0.514   2.804
 2627SOL     OW 7894   3.732   1.326   2.062
 2627SOL    HW1 7895   3.639   1.347   2.031
 2627SOL    HW2 7896   3.742   1.227   2.075
 2628SOL     OW 7897   3.812   1.801   2.789
 2628SOL    HW1 7898   3.770   1.715   2.762
 2628SOL    HW2 7899   3.906   1.804   2.755
 2629SOL     OW 7900   4.228   1.568   2.772
 2629SOL    HW1 7901   4.294   1.642   2.781
 2629SOL    HW2 7902   4.272   1.489   2.730
 2630SOL     OW 7903   3.764   0.544   2.976
 2630SOL    HW1 7904   3.849   0.511   2.935
 2630SOL    HW2 7905   3.777   0.559   3.074
 2631SOL     OW 7906   3.913   0.520   3.584
 2631SOL    HW1 7907   3.972   0.480   3.514
 2631SOL    HW2 7908   3.855   0.591   3.543
 2632SOL     OW 7909   4.539   0.572   2.187
 2632SOL    HW1 7910   4.546   0.483   2.141
 2632SOL    HW2 7911   4.445   0.606   2.179
 2633SOL     OW 7912   3.976   1.564   3.606
 2633SOL    HW1 7913   3.946   1.621   3.682
 2633SOL    HW2 7914   3.969   1.467   3.632
 2634SOL     OW 7915   4.395   0.464   3.131
 2634SOL    HW1 7916   4.361   0.375   3.101
 2634SOL    HW2 7917   4.421   0.518   3.051
 2635SOL     OW 7918   4.197   0.500   2.053
 2635SOL    HW1 7919   4.258   0.580   2.057
 2635SOL    HW2 7920   4.102   0.531   2.060
 2636SOL     OW 7921   3.883   1.137   3.328
 2636SOL    HW1 7922   3.905   1.076   3.404
 2636SOL    HW2 7923   3.893   1.088   3.242
 2637SOL     OW 7924   3.807   1.258   2.884
 2637SOL    HW1 7925   3.802   1.257   2.984
 2637SOL    HW2 7926   3.724   1.217   2.846
 2638SOL     OW 7927   4.412   1.662   3.578
 2638SOL    HW1 7928   4.356   1.743   3.587
 2638SOL    HW2 7929   4.464   1.666   3.492
 2639SOL     OW 7930   3.854   1.794   3.713
 2639SOL    HW1 7931   3.813   1.720   3.766
 2639SOL    HW2 7932   3.918   1.845   3.771
 2640SOL     OW 7933   3.987   0.326   2.582
 2640SOL    HW1 7934   3.908   0.377   2.548
 2640SOL    HW2 7935   3.978   0.311   2.680
 2641SOL     OW 7936   4.096   1.288   3.352
 2641SOL    HW1 7937   4.083   1.381   3.318
 2641SOL    HW2 7938   4.012   1.236   3.339
 2642SOL     OW 7939   4.763   1.098   2.558
 2642SOL    HW1 7940   4.693   1.051   2.612
 2642SOL    HW2 7941   4.822   1.030   2.515
 2643SOL     OW 7942   4.314   1.487   2.353
 2643SOL    HW1 7943   4.356   1.429   2.283
 2643SOL    HW2 7944   4.270   1.566   2.309
 2644SOL     OW 7945   3.979   1.348   2.152
 2644SOL    HW1 7946   3.883   1.349   2.125
 2644SOL    HW2 7947   3.991   1.401   2.236
 2645SOL     OW 7948   3.829   1.013   3.588
 2645SOL    HW1 7949   3.752   0.980   3.642
 2645SOL    HW2 7950   3.914   0.983   3.630
 2646SOL     OW 7951   4.396   0.203   3.351
 2646SOL    HW1 7952   4.486   0.187   3.311
 2646SOL    HW2 7953   4.404   0.208   3.450
 2647SOL     OW 7954   3.799   0.345   1.895
 2647SOL    HW1 7955   3.707   0.317   1.866
 2647SOL    HW2 7956   3.830   0.422   1.839
 2648SOL     OW 7957   3.796   0.166   2.180
 2648SOL    HW1 7958   3.779   0.249   2.126
 2648SOL    HW2 7959   3.886   0.129   2.158
 2649SOL     OW 7960   4.337   0.842   3.293
 2649SOL    HW1 7961   4.393   0.923   3.276
 2649SOL    HW2 7962   4.396   0.762   3.296
 2650SOL     OW 7963   4.440   0.565   3.570
 2650SOL    HW1 7964   4.459   0.630   3.644
 2650SOL    HW2 7965   4.500   0.485   3.579
 2651SOL     OW 7966   4.114   1.741   3.422
 2651SOL    HW1 7967   4.023   1.782   3.420
 2651SOL    HW2 7968   4.107   1.647   3.454
 2652SOL     OW 7969   4.318   0.745   2.514
 2652SOL    HW1 7970   4.368   0.830   2.495
 2652SOL    HW2 7971   4.230   0.747   2.466
 2653SOL     OW 7972   3.945   1.314   3.706
 2653SOL    HW1 7973   3.880   1.241   3.685
 2653SOL    HW2 7974   3.949   1.328   3.804
 2654SOL     OW 7975   3.803   1.240   2.515
 2654SOL    HW1 7976   3.802   1.193   2.603
 2654SOL    HW2 7977   3.885   1.212   2.464
 2655SOL     OW 7978   4.396   1.391   3.486
 2655SOL    HW1 7979   4.318   1.341   3.524
 2655SOL    HW2 7980   4.393   1.486   3.517
 2656SOL     OW 7981   4.152   0.424   2.382
 2656SOL    HW1 7982   4.182   0.352   2.320
 2656SOL    HW2 7983   4.113   0.384   2.465
 2657SOL     OW 7984   4.041   0.547   3.142
 2657SOL    HW1 7985   4.079   0.488   3.214
 2657SOL    HW2 7986   4.081   0.521   3.054
 2658SOL     OW 7987   4.536   1.586   2.549
 2658SOL    HW1 7988   4.568   1.596   2.455
 2658SOL    HW2 7989   4.457   1.524   2.551
 2659SOL     OW 7990   4.342   1.567   3.146
 2659SOL    HW1 7991   4.337   1.649   3.203
 2659SOL    HW2 7992   4.431   1.564   3.101
 2660SOL     OW 7993   3.763   1.077   2.162
 2660SOL    HW1 7994   3.862   1.066   2.153
 2660SOL    HW2 7995   3.723   0.991   2.194
 2661SOL     OW 7996   3.954   0.628   3.837
 2661SOL    HW1 7997   3.861   0.626   3.874
 2661SOL    HW2 7998   3.955   0.589   3.745
 2662SOL     OW 7999   3.743   0.368   4.371
 2662SOL    HW1 8000   3.661   0.411   4.410
 2662SOL    HW2 8001   3.715   0.295   4.308
 2663SOL     OW 8002   4.409   1.012   4.389
 2663SOL    HW1 8003   4.478   0.996   4.459
 2663SOL    HW2 8004   4.336   1.069   4.427
 2664SOL     OW 8005   3.955   1.713   4.207
 2664SOL    HW1 8006   3.989   1.790   4.261
 2664SOL    HW2 8007   3.999   1.713   4.117
 2665SOL     OW 8008   3.954   1.434   4.262
 2665SOL    HW1 8009   3.928   1.530   4.262
 2665SOL    HW2 8010   3.883   1.380   4.307
 2666SOL     OW 8011   4.330   0.964   3.847
 2666SOL    HW1 8012   4.337   1.048   3.793
 2666SOL    HW2 8013   4.376   0.977   3.935
 2667SOL     OW 8014   3.846   0.643   4.287
 2667SOL    HW1 8015   3.801   0.555   4.304
 2667SOL    HW2 8016   3.845   0.697   4.371
 2668SOL     OW 8017   3.751   1.596   3.841
 2668SOL    HW1 8018   3.732   1.500   3.862
 2668SOL    HW2 8019   3.718   1.654   3.916
 2669SOL     OW 8020   4.337   1.365   4.450
 2669SOL    HW1 8021   4.288   1.278   4.459
 2669SOL    HW2 8022   4.314   1.408   4.363
 2670SOL     OW 8023   4.533   0.004   4.226
 2670SOL    HW1 8024   4.573   0.095   4.217
 2670SOL    HW2 8025   4.433   0.012   4.232
 2671SOL     OW 8026   4.322   0.729   3.994
 2671SOL    HW1 8027   4.346   0.798   3.926
 2671SOL    HW2 8028   4.244   0.762   4.048
 2672SOL     OW 8029   3.800   0.811   4.513
 2672SOL    HW1 8030   3.899   0.799   4.522
 2672SOL    HW2 8031   3.776   0.906   4.534
 2673SOL     OW 8032   4.075   1.801   4.577
 2673SOL    HW1 8033   4.125   1.715   4.583
 2673SOL    HW2 8034   4.140   1.878   4.574
 2674SOL     OW 8035   4.045   0.943   3.966
 2674SOL    HW1 8036   4.127   0.982   3.924
 2674SOL    HW2 8037   4.018   0.861   3.917
 2675SOL     OW 8038   4.188   1.743   4.047
 2675SOL    HW1 8039   4.221   1.782   4.133
 2675SOL    HW2 8040   4.264   1.736   3.982
 2676SOL     OW 8041   4.106   0.700   4.204
 2676SOL    HW1 8042   4.151   0.610   4.201
 2676SOL    HW2 8043   4.012   0.689   4.237
 2677SOL     OW 8044   4.338   0.122   3.841
 2677SOL    HW1 8045   4.436   0.100   3.848
 2677SOL    HW2 8046   4.307   0.105   3.748
 2678SOL     OW 8047   4.263   0.064   4.236
 2678SOL    HW1 8048   4.182   0.065   4.294
 2678SOL    HW2 8049   4.266   0.147   4.181
 2679SOL     OW 8050   4.021   0.035   3.895
 2679SOL    HW1 8051   4.070   0.119   3.874
 2679SOL    HW2 8052   4.083  -0.030   3.940
 2680SOL     OW 8053   4.183   1.152   4.465
 2680SOL    HW1 8054   4.112   1.125   4.530
 2680SOL    HW2 8055   4.157   1.124   4.372
 2681SOL     OW 8056   4.212   1.385   3.898
 2681SOL    HW1 8057   4.125   1.370   3.945
 2681SOL    HW2 8058   4.195   1.411   3.803
 2682SOL     OW 8059   4.251   0.256   4.052
 2682SOL    HW1 8060   4.278   0.197   3.977
 2682SOL    HW2 8061   4.251   0.351   4.021
 2683SOL     OW 8062   4.091   1.100   4.225
 2683SOL    HW1 8063   4.084   1.183   4.169
 2683SOL    HW2 8064   4.095   1.020   4.165
 2684SOL     OW 8065   4.031   0.063   4.342
 2684SOL    HW1 8066   4.020   0.157   4.375
 2684SOL    HW2 8067   4.026   0.000   4.419
 2685SOL     OW 8068   3.732   1.326   3.924
 2685SOL    HW1 8069   3.639   1.347   3.893
 2685SOL    HW2 8070   3.742   1.227   3.937
 2686SOL     OW 8071   4.539   0.572   4.049
 2686SOL    HW1 8072   4.546   0.483   4.003
 2686SOL    HW2 8073   4.445   0.606   4.041
 2687SOL     OW 8074   4.197   0.500   3.915
 2687SOL    HW1 8075   4.258   0.580   3.919
 2687SOL    HW2 8076   4.102   0.531   3.922
 2688SOL     OW 8077   4.763   1.098   4.420
 2688SOL    HW1 8078   4.693   1.051   4.474
 2688SOL    HW2 8079   4.822   1.030   4.377
 2689SOL     OW 8080   4.314   1.487   4.215
 2689SOL    HW1 8081   4.356   1.429   4.145
 2689SOL    HW2 8082   4.270   1.566   4.171
 2690SOL     OW 8083   3.979   1.348   4.014
 2690SOL    HW1 8084   3.883   1.349   3.987
 2690SOL    HW2 8085   3.991   1.401   4.098
 2691SOL     OW 8086   3.799   0.345   3.757
 2691SOL    HW1 8087   3.707   0.317   3.728
 2691SOL    HW2 8088   3.830   0.422   3.701
 2692SOL     OW 8089   3.796   0.166   4.042
 2692SOL    HW1 8090   3.779   0.249   3.988
 2692SOL    HW2 8091   3.886   0.129   4.020
 2693SOL     OW 8092   4.318   0.745   4.376
 2693SOL    HW1 8093   4.368   0.830   4.357
 2693SOL    HW2 8094   4.230   0.747   4.328
 2694SOL     OW 8095   4.385   1.790   4.677
 2694SOL    HW1 8096   4.339   1.878   4.664
 2694SOL    HW2 8097   4.484   1.802   4.670
 2695SOL     OW 8098   3.803   1.240   4.377
 2695SOL    HW1 8099   3.802   1.193   4.465
 2695SOL    HW2 8100   3.885   1.212   4.326
 2696SOL     OW 8101   4.152   0.424   4.244
 2696SOL    HW1 8102   4.182   0.352   4.182
 2696SOL    HW2 8103   4.113   0.384   4.327
 2697SOL     OW 8104   4.536   1.586   4.411
 2697SOL    HW1 8105   4.568   1.596   4.317
 2697SOL    HW2 8106   4.457   1.524   4.413
 2698SOL     OW 8107   3.763   1.077   4.024
 2698SOL    HW1 8108   3.862   1.066   4.015
 2698SOL    HW2 8109   3.723   0.991   4.056
 2699SOL     OW 8110   3.954   2.490   0.113
 2699SOL    HW1 8111   3.861   2.488   0.150
 2699SOL    HW2 8112   3.955   2.451   0.021
 2700SOL     OW 8113   3.949   2.137   0.996
 2700SOL    HW1 8114   3.984   2.120   1.088
 2700SOL    HW2 8115   3.861   2.092   0.984
 2701SOL     OW 8116   3.743   2.230   0.647
 2701SOL    HW1 8117   3.661   2.273   0.686
 2701SOL    HW2 8118   3.715   2.157   0.584
 2702SOL     OW 8119   4.293   3.137   1.165
 2702SOL    HW1 8120   4.200   3.130   1.128
 2702SOL    HW2 8121   4.304   3.226   1.209
 2703SOL     OW 8122   4.574   2.660   1.823
 2703SOL    HW1 8123   4.570   2.736   1.888
 2703SOL    HW2 8124   4.596   2.696   1.732
 2704SOL     OW 8125   4.409   2.874   0.665
 2704SOL    HW1 8126   4.478   2.858   0.735
 2704SOL    HW2 8127   4.336   2.931   0.703
 2705SOL     OW 8128   4.410   3.023   1.803
 2705SOL    HW1 8129   4.470   3.102   1.817
 2705SOL    HW2 8130   4.324   3.054   1.762
 2706SOL     OW 8131   4.059   3.297   1.061
 2706SOL    HW1 8132   3.981   3.266   1.008
 2706SOL    HW2 8133   4.117   3.355   1.004
 2707SOL     OW 8134   4.162   2.254   1.499
 2707SOL    HW1 8135   4.244   2.198   1.508
 2707SOL    HW2 8136   4.081   2.196   1.503
 2708SOL     OW 8137   3.955   3.575   0.483
 2708SOL    HW1 8138   3.989   3.652   0.537
 2708SOL    HW2 8139   3.999   3.575   0.393
 2709SOL     OW 8140   3.954   3.296   0.538
 2709SOL    HW1 8141   3.928   3.392   0.538
 2709SOL    HW2 8142   3.883   3.242   0.583
 2710SOL     OW 8143   3.964   2.953   0.886
 2710SOL    HW1 8144   3.978   2.869   0.938
 2710SOL    HW2 8145   3.909   3.017   0.941
 2711SOL     OW 8146   4.344   3.648   1.439
 2711SOL    HW1 8147   4.252   3.631   1.474
 2711SOL    HW2 8148   4.372   3.740   1.465
 2712SOL     OW 8149   4.330   2.826   0.123
 2712SOL    HW1 8150   4.337   2.910   0.069
 2712SOL    HW2 8151   4.376   2.839   0.211
 2713SOL     OW 8152   3.846   2.505   0.563
 2713SOL    HW1 8153   3.801   2.417   0.580
 2713SOL    HW2 8154   3.845   2.559   0.647
 2714SOL     OW 8155   3.751   3.458   0.117
 2714SOL    HW1 8156   3.732   3.362   0.138
 2714SOL    HW2 8157   3.718   3.516   0.192
 2715SOL     OW 8158   3.837   2.599   1.597
 2715SOL    HW1 8159   3.925   2.586   1.642
 2715SOL    HW2 8160   3.824   2.696   1.575
 2716SOL     OW 8161   4.337   3.227   0.726
 2716SOL    HW1 8162   4.288   3.140   0.735
 2716SOL    HW2 8163   4.314   3.270   0.639
 2717SOL     OW 8164   4.533   1.866   0.502
 2717SOL    HW1 8165   4.573   1.957   0.493
 2717SOL    HW2 8166   4.433   1.874   0.508
 2718SOL     OW 8167   3.921   2.838   1.264
 2718SOL    HW1 8168   4.010   2.793   1.250
 2718SOL    HW2 8169   3.848   2.773   1.245
 2719SOL     OW 8170   4.041   2.113   1.801
 2719SOL    HW1 8171   4.112   2.184   1.807
 2719SOL    HW2 8172   3.953   2.152   1.829
 2720SOL     OW 8173   4.322   2.591   0.270
 2720SOL    HW1 8174   4.346   2.660   0.202
 2720SOL    HW2 8175   4.244   2.624   0.324
 2721SOL     OW 8176   3.800   2.673   0.789
 2721SOL    HW1 8177   3.899   2.661   0.798
 2721SOL    HW2 8178   3.776   2.768   0.810
 2722SOL     OW 8179   3.854   3.683   1.571
 2722SOL    HW1 8180   3.844   3.668   1.670
 2722SOL    HW2 8181   3.768   3.719   1.535
 2723SOL     OW 8182   4.274   2.058   0.885
 2723SOL    HW1 8183   4.269   2.053   0.985
 2723SOL    HW2 8184   4.276   2.154   0.856
 2724SOL     OW 8185   4.075   3.663   0.853
 2724SOL    HW1 8186   4.125   3.577   0.859
 2724SOL    HW2 8187   4.140   3.740   0.850
 2725SOL     OW 8188   4.045   2.805   0.242
 2725SOL    HW1 8189   4.127   2.844   0.200
 2725SOL    HW2 8190   4.018   2.723   0.193
 2726SOL     OW 8191   4.185   3.128   1.727
 2726SOL    HW1 8192   4.135   3.129   1.641
 2726SOL    HW2 8193   4.122   3.110   1.803
 2727SOL     OW 8194   3.926   2.147   1.498
 2727SOL    HW1 8195   3.846   2.207   1.485
 2727SOL    HW2 8196   3.916   2.098   1.584
 2728SOL     OW 8197   4.188   3.605   0.323
 2728SOL    HW1 8198   4.221   3.644   0.409
 2728SOL    HW2 8199   4.264   3.598   0.258
 2729SOL     OW 8200   3.973   3.647   1.241
 2729SOL    HW1 8201   4.030   3.582   1.291
 2729SOL    HW2 8202   3.957   3.614   1.148
 2730SOL     OW 8203   4.106   2.562   0.480
 2730SOL    HW1 8204   4.151   2.472   0.477
 2730SOL    HW2 8205   4.012   2.551   0.513
 2731SOL     OW 8206   4.527   3.264   0.924
 2731SOL    HW1 8207   4.617   3.278   0.882
 2731SOL    HW2 8208   4.456   3.266   0.853
 2732SOL     OW 8209   4.263   1.926   0.512
 2732SOL    HW1 8210   4.182   1.927   0.570
 2732SOL    HW2 8211   4.266   2.009   0.457
 2733SOL     OW 8212   4.183   3.014   0.741
 2733SOL    HW1 8213   4.112   2.987   0.806
 2733SOL    HW2 8214   4.157   2.986   0.648
 2734SOL     OW 8215   3.802   2.418   1.386
 2734SOL    HW1 8216   3.894   2.417   1.345
 2734SOL    HW2 8217   3.796   2.492   1.453
 2735SOL     OW 8218   4.285   2.084   1.147
 2735SOL    HW1 8219   4.323   2.000   1.184
 2735SOL    HW2 8220   4.197   2.103   1.191
 2736SOL     OW 8221   4.212   3.247   0.174
 2736SOL    HW1 8222   4.125   3.232   0.221
 2736SOL    HW2 8223   4.195   3.273   0.079
 2737SOL     OW 8224   4.251   2.118   0.328
 2737SOL    HW1 8225   4.278   2.059   0.253
 2737SOL    HW2 8226   4.251   2.213   0.297
 2738SOL     OW 8227   4.134   2.675   1.251
 2738SOL    HW1 8228   4.220   2.687   1.301
 2738SOL    HW2 8229   4.092   2.588   1.278
 2739SOL     OW 8230   3.788   3.426   1.331
 2739SOL    HW1 8231   3.742   3.508   1.297
 2739SOL    HW2 8232   3.886   3.445   1.340
 2740SOL     OW 8233   4.091   2.962   0.501
 2740SOL    HW1 8234   4.084   3.045   0.445
 2740SOL    HW2 8235   4.095   2.882   0.441
 2741SOL     OW 8236   4.290   2.399   0.865
 2741SOL    HW1 8237   4.302   2.465   0.791
 2741SOL    HW2 8238   4.336   2.433   0.948
 2742SOL     OW 8239   4.078   3.372   1.329
 2742SOL    HW1 8240   4.057   3.328   1.242
 2742SOL    HW2 8241   4.175   3.398   1.332
 2743SOL     OW 8242   4.126   2.613   1.598
 2743SOL    HW1 8243   4.194   2.668   1.551
 2743SOL    HW2 8244   4.166   2.525   1.625
 2744SOL     OW 8245   4.228   1.912   1.740
 2744SOL    HW1 8246   4.186   1.855   1.670
 2744SOL    HW2 8247   4.162   1.981   1.772
 2745SOL     OW 8248   4.297   2.732   1.029
 2745SOL    HW1 8249   4.341   2.821   1.020
 2745SOL    HW2 8250   4.234   2.732   1.106
 2746SOL     OW 8251   4.031   2.075   1.231
 2746SOL    HW1 8252   4.008   2.112   1.321
 2746SOL    HW2 8253   4.001   1.980   1.225
 2747SOL     OW 8254   3.761   3.172   1.282
 2747SOL    HW1 8255   3.814   3.123   1.350
 2747SOL    HW2 8256   3.783   3.270   1.287
 2748SOL     OW 8257   4.031   1.925   0.618
 2748SOL    HW1 8258   4.020   2.019   0.651
 2748SOL    HW2 8259   4.026   1.862   0.695
 2749SOL     OW 8260   4.074   2.760   1.804
 2749SOL    HW1 8261   4.150   2.804   1.852
 2749SOL    HW2 8262   4.109   2.713   1.722
 2750SOL     OW 8263   4.043   2.672   0.949
 2750SOL    HW1 8264   4.136   2.708   0.954
 2750SOL    HW2 8265   4.037   2.587   1.001
 2751SOL     OW 8266   4.063   2.371   1.006
 2751SOL    HW1 8267   4.011   2.288   0.989
 2751SOL    HW2 8268   4.140   2.376   0.942
 2752SOL     OW 8269   3.732   3.188   0.200
 2752SOL    HW1 8270   3.639   3.209   0.169
 2752SOL    HW2 8271   3.742   3.089   0.213
 2753SOL     OW 8272   3.812   3.663   0.927
 2753SOL    HW1 8273   3.770   3.577   0.900
 2753SOL    HW2 8274   3.906   3.666   0.893
 2754SOL     OW 8275   4.228   3.430   0.910
 2754SOL    HW1 8276   4.294   3.504   0.919
 2754SOL    HW2 8277   4.272   3.351   0.868
 2755SOL     OW 8278   3.764   2.406   1.114
 2755SOL    HW1 8279   3.849   2.373   1.073
 2755SOL    HW2 8280   3.777   2.421   1.212
 2756SOL     OW 8281   3.913   2.382   1.722
 2756SOL    HW1 8282   3.972   2.342   1.652
 2756SOL    HW2 8283   3.855   2.453   1.681
 2757SOL     OW 8284   4.539   2.434   0.325
 2757SOL    HW1 8285   4.546   2.345   0.279
 2757SOL    HW2 8286   4.445   2.468   0.317
 2758SOL     OW 8287   3.976   3.426   1.744
 2758SOL    HW1 8288   3.946   3.483   1.820
 2758SOL    HW2 8289   3.969   3.329   1.770
 2759SOL     OW 8290   4.395   2.326   1.269
 2759SOL    HW1 8291   4.361   2.237   1.239
 2759SOL    HW2 8292   4.421   2.380   1.189
 2760SOL     OW 8293   4.197   2.362   0.191
 2760SOL    HW1 8294   4.258   2.442   0.195
 2760SOL    HW2 8295   4.102   2.393   0.198
 2761SOL     OW 8296   3.883   2.999   1.466
 2761SOL    HW1 8297   3.905   2.938   1.542
 2761SOL    HW2 8298   3.893   2.950   1.380
 2762SOL     OW 8299   3.807   3.120   1.022
 2762SOL    HW1 8300   3.802   3.119   1.122
 2762SOL    HW2 8301   3.724   3.079   0.984
 2763SOL     OW 8302   4.412   3.524   1.716
 2763SOL    HW1 8303   4.356   3.605   1.725
 2763SOL    HW2 8304   4.464   3.528   1.630
 2764SOL     OW 8305   3.854   3.656   1.851
 2764SOL    HW1 8306   3.813   3.582   1.904
 2764SOL    HW2 8307   3.918   3.707   1.909
 2765SOL     OW 8308   3.987   2.188   0.720
 2765SOL    HW1 8309   3.908   2.239   0.686
 2765SOL    HW2 8310   3.978   2.173   0.818
 2766SOL     OW 8311   4.096   3.150   1.490
 2766SOL    HW1 8312   4.083   3.243   1.456
 2766SOL    HW2 8313   4.012   3.098   1.477
 2767SOL     OW 8314   4.763   2.960   0.696
 2767SOL    HW1 8315   4.693   2.913   0.750
 2767SOL    HW2 8316   4.822   2.892   0.653
 2768SOL     OW 8317   4.314   3.349   0.491
 2768SOL    HW1 8318   4.356   3.291   0.421
 2768SOL    HW2 8319   4.270   3.428   0.447
 2769SOL     OW 8320   3.979   3.210   0.290
 2769SOL    HW1 8321   3.883   3.211   0.263
 2769SOL    HW2 8322   3.991   3.263   0.374
 2770SOL     OW 8323   3.829   2.875   1.726
 2770SOL    HW1 8324   3.752   2.842   1.780
 2770SOL    HW2 8325   3.914   2.845   1.768
 2771SOL     OW 8326   4.396   2.065   1.489
 2771SOL    HW1 8327   4.486   2.049   1.449
 2771SOL    HW2 8328   4.404   2.070   1.588
 2772SOL     OW 8329   3.799   2.207   0.033
 2772SOL    HW1 8330   3.707   2.179   0.004
 2772SOL    HW2 8331   3.830   2.284  -0.023
 2773SOL     OW 8332   3.796   2.028   0.318
 2773SOL    HW1 8333   3.779   2.111   0.264
 2773SOL    HW2 8334   3.886   1.991   0.296
 2774SOL     OW 8335   4.337   2.704   1.431
 2774SOL    HW1 8336   4.393   2.785   1.414
 2774SOL    HW2 8337   4.396   2.624   1.434
 2775SOL     OW 8338   4.440   2.427   1.708
 2775SOL    HW1 8339   4.459   2.492   1.782
 2775SOL    HW2 8340   4.500   2.347   1.717
 2776SOL     OW 8341   4.114   3.603   1.560
 2776SOL    HW1 8342   4.023   3.644   1.558
 2776SOL    HW2 8343   4.107   3.509   1.592
 2777SOL     OW 8344   4.318   2.607   0.652
 2777SOL    HW1 8345   4.368   2.692   0.633
 2777SOL    HW2 8346   4.230   2.609   0.604
 2778SOL     OW 8347   3.945   3.176   1.844
 2778SOL    HW1 8348   3.880   3.103   1.823
 2778SOL    HW2 8349   3.949   3.190   1.942
 2779SOL     OW 8350   3.803   3.102   0.653
 2779SOL    HW1 8351   3.802   3.055   0.741
 2779SOL    HW2 8352   3.885   3.074   0.602
 2780SOL     OW 8353   4.396   3.253   1.624
 2780SOL    HW1 8354   4.318   3.203   1.662
 2780SOL    HW2 8355   4.393   3.348   1.655
 2781SOL     OW 8356   4.152   2.286   0.520
 2781SOL    HW1 8357   4.182   2.214   0.458
 2781SOL    HW2 8358   4.113   2.246   0.603
 2782SOL     OW 8359   4.041   2.409   1.280
 2782SOL    HW1 8360   4.079   2.350   1.352
 2782SOL    HW2 8361   4.081   2.383   1.192
 2783SOL     OW 8362   4.536   3.448   0.687
 2783SOL    HW1 8363   4.568   3.458   0.593
 2783SOL    HW2 8364   4.457   3.386   0.689
 2784SOL     OW 8365   4.342   3.429   1.284
 2784SOL    HW1 8366   4.337   3.511   1.341
 2784SOL    HW2 8367   4.431   3.426   1.239
 2785SOL     OW 8368   3.763   2.939   0.300
 2785SOL    HW1 8369   3.862   2.928   0.291
 2785SOL    HW2 8370   3.723   2.853   0.332
 2786SOL     OW 8371   3.954   2.490   1.975
 2786SOL    HW1 8372   3.861   2.488   2.012
 2786SOL    HW2 8373   3.955   2.451   1.883
 2787SOL     OW 8374   3.949   2.137   2.858
 2787SOL    HW1 8375   3.984   2.120   2.950
 2787SOL    HW2 8376   3.861   2.092   2.846
 2788SOL     OW 8377   3.743   2.230   2.509
 2788SOL    HW1 8378   3.661   2.273   2.548
 2788SOL    HW2 8379   3.715   2.157   2.446
 2789SOL     OW 8380   4.293   3.137   3.027
 2789SOL    HW1 8381   4.200   3.130   2.990
 2789SOL    HW2 8382   4.304   3.226   3.071
 2790SOL     OW 8383   4.574   2.660   3.685
 2790SOL    HW1 8384   4.570   2.736   3.750
 2790SOL    HW2 8385   4.596   2.696   3.594
 2791SOL     OW 8386   4.409   2.874   2.527
 2791SOL    HW1 8387   4.478   2.858   2.597
 2791SOL    HW2 8388   4.336   2.931   2.565
 2792SOL     OW 8389   4.410   3.023   3.665
 2792SOL    HW1 8390   4.470   3.102   3.679
 2792SOL    HW2 8391   4.324   3.054   3.624
 2793SOL     OW 8392   4.059   3.297   2.923
 2793SOL    HW1 8393   3.981   3.266   2.870
 2793SOL    HW2 8394   4.117   3.355   2.866
 2794SOL     OW 8395   4.162   2.254   3.361
 2794SOL    HW1 8396   4.244   2.198   3.370
 2794SOL    HW2 8397   4.081   2.196   3.365
 2795SOL     OW 8398   3.955   3.575   2.345
 2795SOL    HW1 8399   3.989   3.652   2.399
 2795SOL    HW2 8400   3.999   3.575   2.255
 2796SOL     OW 8401   3.954   3.296   2.400
 2796SOL    HW1 8402   3.928   3.392   2.400
 2796SOL    HW2 8403   3.883   3.242   2.445
 2797SOL     OW 8404   3.964   2.953   2.748
 2797SOL    HW1 8405   3.978   2.869   2.800
 2797SOL    HW2 8406   3.909   3.017   2.803
 2798SOL     OW 8407   4.344   3.648   3.301
 2798SOL    HW1 8408   4.252   3.631   3.336
 2798SOL    HW2 8409   4.372   3.740   3.327
 2799SOL     OW 8410   4.330   2.826   1.985
 2799SOL    HW1 8411   4.337   2.910   1.931
 2799SOL    HW2 8412   4.376   2.839   2.073
 2800SOL     OW 8413   3.846   2.505   2.425
 2800SOL    HW1 8414   3.801   2.417   2.442
 2800SOL    HW2 8415   3.845   2.559   2.509
 2801SOL     OW 8416   3.751   3.458   1.979
 2801SOL    HW1 8417   3.732   3.362   2.000
 2801SOL    HW2 8418   3.718   3.516   2.054
 2802SOL     OW 8419   3.837   2.599   3.459
 2802SOL    HW1 8420   3.925   2.586   3.504
 2802SOL    HW2 8421   3.824   2.696   3.437
 2803SOL     OW 8422   4.337   3.227   2.588
 2803SOL    HW1 8423   4.288   3.140   2.597
 2803SOL    HW2 8424   4.314   3.270   2.501
 2804SOL     OW 8425   4.533   1.866   2.364
 2804SOL    HW1 8426   4.573   1.957   2.355
 2804SOL    HW2 8427   4.433   1.874   2.370
 2805SOL     OW 8428   3.921   2.838   3.126
 2805SOL    HW1 8429   4.010   2.793   3.112
 2805SOL    HW2 8430   3.848   2.773   3.107
 2806SOL     OW 8431   4.041   2.113   3.663
 2806SOL    HW1 8432   4.112   2.184   3.669
 2806SOL    HW2 8433   3.953   2.152   3.691
 2807SOL     OW 8434   4.322   2.591   2.132
 2807SOL    HW1 8435   4.346   2.660   2.064
 2807SOL    HW2 8436   4.244   2.624   2.186
 2808SOL     OW 8437   3.800   2.673   2.651
 2808SOL    HW1 8438   3.899   2.661   2.660
 2808SOL    HW2 8439   3.776   2.768   2.672
 2809SOL     OW 8440   3.854   3.683   3.433
 2809SOL    HW1 8441   3.844   3.668   3.532
 2809SOL    HW2 8442   3.768   3.719   3.397
 2810SOL     OW 8443   4.274   2.058   2.747
 2810SOL    HW1 8444   4.269   2.053   2.847
 2810SOL    HW2 8445   4.276   2.154   2.718
 2811SOL     OW 8446   4.075   3.663   2.715
 2811SOL    HW1 8447   4.125   3.577   2.721
 2811SOL    HW2 8448   4.140   3.740   2.712
 2812SOL     OW 8449   4.045   2.805   2.104
 2812SOL    HW1 8450   4.127   2.844   2.062
 2812SOL    HW2 8451   4.018   2.723   2.055
 2813SOL     OW 8452   4.185   3.128   3.589
 2813SOL    HW1 8453   4.135   3.129   3.503
 2813SOL    HW2 8454   4.122   3.110   3.665
 2814SOL     OW 8455   3.926   2.147   3.360
 2814SOL    HW1 8456   3.846   2.207   3.347
 2814SOL    HW2 8457   3.916   2.098   3.446
 2815SOL     OW 8458   4.188   3.605   2.185
 2815SOL    HW1 8459   4.221   3.644   2.271
 2815SOL    HW2 8460   4.264   3.598   2.120
 2816SOL     OW 8461   3.973   3.647   3.103
 2816SOL    HW1 8462   4.030   3.582   3.153
 2816SOL    HW2 8463   3.957   3.614   3.010
 2817SOL     OW 8464   4.106   2.562   2.342
 2817SOL    HW1 8465   4.151   2.472   2.339
 2817SOL    HW2 8466   4.012   2.551   2.375
 2818SOL     OW 8467   4.338   1.984   1.979
 2818SOL    HW1 8468   4.436   1.962   1.986
 2818SOL    HW2 8469   4.307   1.967   1.886
 2819SOL     OW 8470   4.527   3.264   2.786
 2819SOL    HW1 8471   4.617   3.278   2.744
 2819SOL    HW2 8472   4.456   3.266   2.715
 2820SOL     OW 8473   4.263   1.926   2.374
 2820SOL    HW1 8474   4.182   1.927   2.432
 2820SOL    HW2 8475   4.266   2.009   2.319
 2821SOL     OW 8476   4.021   1.897   2.033
 2821SOL    HW1 8477   4.070   1.981   2.012
 2821SOL    HW2 8478   4.083   1.832   2.078
 2822SOL     OW 8479   4.183   3.014   2.603
 2822SOL    HW1 8480   4.112   2.987   2.668
 2822SOL    HW2 8481   4.157   2.986   2.510
 2823SOL     OW 8482   3.802   2.418   3.248
 2823SOL    HW1 8483   3.894   2.417   3.207
 2823SOL    HW2 8484   3.796   2.492   3.315
 2824SOL     OW 8485   4.285   2.084   3.009
 2824SOL    HW1 8486   4.323   2.000   3.046
 2824SOL    HW2 8487   4.197   2.103   3.053
 2825SOL     OW 8488   4.212   3.247   2.036
 2825SOL    HW1 8489   4.125   3.232   2.083
 2825SOL    HW2 8490   4.195   3.273   1.941
 2826SOL     OW 8491   4.251   2.118   2.190
 2826SOL    HW1 8492   4.278   2.059   2.115
 2826SOL    HW2 8493   4.251   2.213   2.159
 2827SOL     OW 8494   4.134   2.675   3.113
 2827SOL    HW1 8495   4.220   2.687   3.163
 2827SOL    HW2 8496   4.092   2.588   3.140
 2828SOL     OW 8497   3.788   3.426   3.193
 2828SOL    HW1 8498   3.742   3.508   3.159
 2828SOL    HW2 8499   3.886   3.445   3.202
 2829SOL     OW 8500   4.091   2.962   2.363
 2829SOL    HW1 8501   4.084   3.045   2.307
 2829SOL    HW2 8502   4.095   2.882   2.303
 2830SOL     OW 8503   4.290   2.399   2.727
 2830SOL    HW1 8504   4.302   2.465   2.653
 2830SOL    HW2 8505   4.336   2.433   2.810
 2831SOL     OW 8506   4.078   3.372   3.191
 2831SOL    HW1 8507   4.057   3.328   3.104
 2831SOL    HW2 8508   4.175   3.398   3.194
 2832SOL     OW 8509   4.126   2.613   3.460
 2832SOL    HW1 8510   4.194   2.668   3.413
 2832SOL    HW2 8511   4.166   2.525   3.487
 2833SOL     OW 8512   4.228   1.912   3.602
 2833SOL    HW1 8513   4.186   1.855   3.532
 2833SOL    HW2 8514   4.162   1.981   3.634
 2834SOL     OW 8515   4.297   2.732   2.891
 2834SOL    HW1 8516   4.341   2.821   2.882
 2834SOL    HW2 8517   4.234   2.732   2.968
 2835SOL     OW 8518   4.031   2.075   3.093
 2835SOL    HW1 8519   4.008   2.112   3.183
 2835SOL    HW2 8520   4.001   1.980   3.087
 2836SOL     OW 8521   3.761   3.172   3.144
 2836SOL    HW1 8522   3.814   3.123   3.212
 2836SOL    HW2 8523   3.783   3.270   3.149
 2837SOL     OW 8524   4.031   1.925   2.480
 2837SOL    HW1 8525   4.020   2.019   2.513
 2837SOL    HW2 8526   4.026   1.862   2.557
 2838SOL     OW 8527   4.074   2.760   3.666
 2838SOL    HW1 8528   4.150   2.804   3.714
 2838SOL    HW2 8529   4.109   2.713   3.584
 2839SOL     OW 8530   4.043   2.672   2.811
 2839SOL    HW1 8531   4.136   2.708   2.816
 2839SOL    HW2 8532   4.037   2.587   2.863
 2840SOL     OW 8533   4.063   2.371   2.868
 2840SOL    HW1 8534   4.011   2.288   2.851
 2840SOL    HW2 8535   4.140   2.376   2.804
 2841SOL     OW 8536   3.732   3.188   2.062
 2841SOL    HW1 8537   3.639   3.209   2.031
 2841SOL    HW2 8538   3.742   3.089   2.075
 2842SOL     OW 8539   3.812   3.663   2.789
 2842SOL    HW1 8540   3.770   3.577   2.762
 2842SOL    HW2 8541   3.906   3.666   2.755
 2843SOL     OW 8542   4.228   3.430   2.772
 2843SOL    HW1 8543   4.294   3.504   2.781
 2843SOL    HW2 8544   4.272   3.351   2.730
 2844SOL     OW 8545   3.764   2.406   2.976
 2844SOL    HW1 8546   3.849   2.373   2.935
 2844SOL    HW2 8547   3.777   2.421   3.074
 2845SOL     OW 8548   3.913   2.382   3.584
 2845SOL    HW1 8549   3.972   2.342   3.514
 2845SOL    HW2 8550   3.855   2.453   3.543
 2846SOL     OW 8551   4.539   2.434   2.187
 2846SOL    HW1 8552   4.546   2.345   2.141
 2846SOL    HW2 8553   4.445   2.468   2.179
 2847SOL     OW 8554   3.976   3.426   3.606
 2847SOL    HW1 8555   3.946   3.483   3.682
 2847SOL    HW2 8556   3.969   3.329   3.632
 2848SOL     OW 8557   4.395   2.326   3.131
 2848SOL    HW1 8558   4.361   2.237   3.101
 2848SOL    HW2 8559   4.421   2.380   3.051
 2849SOL     OW 8560   4.197   2.362   2.053
 2849SOL    HW1 8561   4.258   2.442   2.057
 2849SOL    HW2 8562   4.102   2.393   2.060
 2850SOL     OW 8563   3.883   2.999   3.328
 2850SOL    HW1 8564   3.905   2.938   3.404
 2850SOL    HW2 8565   3.893   2.950   3.242
 2851SOL     OW 8566   3.807   3.120   2.884
 2851SOL    HW1 8567   3.802   3.119   2.984
 2851SOL    HW2 8568   3.724   3.079   2.846
 2852SOL     OW 8569   4.412   3.524   3.578
 2852SOL    HW1 8570   4.356   3.605   3.587
 2852SOL    HW2 8571   4.464   3.528   3.492
 2853SOL     OW 8572   3.854   3.656   3.713
 2853SOL    HW1 8573   3.813   3.582   3.766
 2853SOL    HW2 8574   3.918   3.707   3.771
 2854SOL     OW 8575   3.987   2.188   2.582
 2854SOL    HW1 8576   3.908   2.239   2.548
 2854SOL    HW2 8577   3.978   2.173   2.680
 2855SOL     OW 8578   4.096   3.150   3.352
 2855SOL    HW1 8579   4.083   3.243   3.318
 2855SOL    HW2 8580   4.012   3.098   3.339
 2856SOL     OW 8581   4.763   2.960   2.558
 2856SOL    HW1 8582   4.693   2.913   2.612
 2856SOL    HW2 8583   4.822   2.892   2.515
 2857SOL     OW 8584   4.314   3.349   2.353
 2857SOL    HW1 8585   4.356   3.291   2.283
 2857SOL    HW2 8586   4.270   3.428   2.309
 2858SOL     OW 8587   3.979   3.210   2.152
 2858SOL    HW1 8588   3.883   3.211   2.125
 2858SOL    HW2 8589   3.991   3.263   2.236
 2859SOL     OW 8590   3.829   2.875   3.588
 2859SOL    HW1 8591   3.752   2.842   3.642
 2859SOL    HW2 8592   3.914   2.845   3.630
 2860SOL     OW 8593   4.396   2.065   3.351
 2860SOL    HW1 8594   4.486   2.049   3.311
 2860SOL    HW2 8595   4.404   2.070   3.450
 2861SOL     OW 8596   3.799   2.207   1.895
 2861SOL    HW1 8597   3.707   2.179   1.866
 2861SOL    HW2 8598   3.830   2.284   1.839
 2862SOL     OW 8599   3.796   2.028   2.180
 2862SOL    HW1 8600   3.779   2.111   2.126
 2862SOL    HW2 8601   3.886   1.991   2.158
 2863SOL     OW 8602   4.337   2.704   3.293
 2863SOL    HW1 8603   4.393   2.785   3.276
 2863SOL    HW2 8604   4.396   2.624   3.296
 2864SOL     OW 8605   4.440   2.427   3.570
 2864SOL    HW1 8606   4.459   2.492   3.644
 2864SOL    HW2 8607   4.500   2.347   3.579
 2865SOL     OW 8608   4.114   3.603   3.422
 2865SOL    HW1 8609   4.023   3.644   3.420
 2865SOL    HW2 8610   4.107   3.509   3.454
 2866SOL     OW 8611   4.318   2.607   2.514
 2866SOL    HW1 8612   4.368   2.692   2.495
 2866SOL    HW2 8613   4.230   2.609   2.466
 2867SOL     OW 8614   3.945   3.176   3.706
 2867SOL    HW1 8615   3.880   3.103   3.685
 2867SOL    HW2 8616   3.949   3.190   3.804
 2868SOL     OW 8617   3.803   3.102   2.515
 2868SOL    HW1 8618   3.802   3.055   2.603
 2868SOL    HW2 8619   3.885   3.074   2.464
 2869SOL     OW 8620   4.396   3.253   3.486
 2869SOL    HW1 8621   4.318   3.203   3.524
 2869SOL    HW2 8622   4.393   3.348   3.517
 2870SOL     OW 8623   4.152   2.286   2.382
 2870SOL    HW1 8624   4.182   2.214   2.320
 2870SOL    HW2 8625   4.113   2.246   2.465
 2871SOL     OW 8626   4.041   2.409   3.142
 2871SOL    HW1 8627   4.079   2.350   3.214
 2871SOL    HW2 8628   4.081   2.383   3.054
 2872SOL     OW 8629   4.536   3.448   2.549
 2872SOL    HW1 8630   4.568   3.458   2.455
 2872SOL    HW2 8631   4.457   3.386   2.551
 2873SOL     OW 8632   4.342   3.429   3.146
 2873SOL    HW1 8633   4.337   3.511   3.203
 2873SOL    HW2 8634   4.431   3.426   3.101
 2874SOL     OW 8635   3.763   2.939   2.162
 2874SOL    HW1 8636   3.862   2.928   2.153
 2874SOL    HW2 8637   3.723   2.853   2.194
 2875SOL     OW 8638   3.954   2.490   3.837
 2875SOL    HW1 8639   3.861   2.488   3.874
 2875SOL    HW2 8640   3.955   2.451   3.745
 2876SOL     OW 8641   3.743   2.230   4.371
 2876SOL    HW1 8642   3.661   2.273   4.410
 2876SOL    HW2 8643   3.715   2.157   4.308
 2877SOL     OW 8644   4.409   2.874   4.389
 2877SOL    HW1 8645   4.478   2.858   4.459
 2877SOL    HW2 8646   4.336   2.931   4.427
 2878SOL     OW 8647   3.955   3.575   4.207
 2878SOL    HW1 8648   3.989   3.652   4.261
 2878SOL    HW2 8649   3.999   3.575   4.117
 2879SOL     OW 8650   3.954   3.296   4.262
 2879SOL    HW1 8651   3.928   3.392   4.262
 2879SOL    HW2 8652   3.883   3.242   4.307
 2880SOL     OW 8653   4.330   2.826   3.847
 2880SOL    HW1 8654   4.337   2.910   3.793
 2880SOL    HW2 8655   4.376   2.839   3.935
 2881SOL     OW 8656   3.846   2.505   4.287
 2881SOL    HW1 8657   3.801   2.417   4.304
 2881SOL    HW2 8658   3.845   2.559   4.371
 2882SOL     OW 8659   3.751   3.458   3.841
 2882SOL    HW1 8660   3.732   3.362   3.862
 2882SOL    HW2 8661   3.718   3.516   3.916
 2883SOL     OW 8662   4.337   3.227   4.450
 2883SOL    HW1 8663   4.288   3.140   4.459
 2883SOL    HW2 8664   4.314   3.270   4.363
 2884SOL     OW 8665   4.533   1.866   4.226
 2884SOL    HW1 8666   4.573   1.957   4.217
 2884SOL    HW2 8667   4.433   1.874   4.232
 2885SOL     OW 8668   4.322   2.591   3.994
 2885SOL    HW1 8669   4.346   2.660   3.926
 2885SOL    HW2 8670   4.244   2.624   4.048
 2886SOL     OW 8671   3.800   2.673   4.513
 2886SOL    HW1 8672   3.899   2.661   4.522
 2886SOL    HW2 8673   3.776   2.768   4.534
 2887SOL     OW 8674   4.075   3.663   4.577
 2887SOL    HW1 8675   4.125   3.577   4.583
 2887SOL    HW2 8676   4.140   3.740   4.574
 2888SOL     OW 8677   4.045   2.805   3.966
 2888SOL    HW1 8678   4.127   2.844   3.924
 2888SOL    HW2 8679   4.018   2.723   3.917
 2889SOL     OW 8680   4.188   3.605   4.047
 2889SOL    HW1 8681   4.221   3.644   4.133
 2889SOL    HW2 8682   4.264   3.598   3.982
 2890SOL     OW 8683   4.106   2.562   4.204
 2890SOL    HW1 8684   4.151   2.472   4.201
 2890SOL    HW2 8685   4.012   2.551   4.237
 2891SOL     OW 8686   4.338   1.984   3.841
 2891SOL    HW1 8687   4.436   1.962   3.848
 2891SOL    HW2 8688   4.307   1.967   3.748
 2892SOL     OW 8689   4.263   1.926   4.236
 2892SOL    HW1 8690   4.182   1.927   4.294
 2892SOL    HW2 8691   4.266   2.009   4.181
 2893SOL     OW 8692   4.021   1.897   3.895
 2893SOL    HW1 8693   4.070   1.981   3.874
 2893SOL    HW2 8694   4.083   1.832   3.940
 2894SOL     OW 8695   4.183   3.014   4.465
 2894SOL    HW1 8696   4.112   2.987   4.530
 2894SOL    HW2 8697   4.157   2.986   4.372
 2895SOL     OW 8698   4.212   3.247   3.898
 2895SOL    HW1 8699   4.125   3.232   3.945
 2895SOL    HW2 8700   4.195   3.273   3.803
 2896SOL     OW 8701   4.251   2.118   4.052
 2896SOL    HW1 8702   4.278   2.059   3.977
 2896SOL    HW2 8703   4.251   2.213   4.021
 2897SOL     OW 8704   4.091   2.962   4.225
 2897SOL    HW1 8705   4.084   3.045   4.169
 2897SOL    HW2 8706   4.095   2.882   4.165
 2898SOL     OW 8707   4.031   1.925   4.342
 2898SOL    HW1 8708   4.020   2.019   4.375
 2898SOL    HW2 8709   4.026   1.862   4.419
 2899SOL     OW 8710   3.732   3.188   3.924
 2899SOL    HW1 8711   3.639   3.209   3.893
 2899SOL    HW2 8712   3.742   3.089   3.937
 2900SOL     OW 8713   4.539   2.434   4.049
 2900SOL    HW1 8714   4.546   2.345   4.003
 2900SOL    HW2 8715   4.445   2.468   4.041
 2901SOL     OW 8716   4.197   2.362   3.915
 2901SOL    HW1 8717   4.258   2.442   3.919
 2901SOL    HW2 8718   4.102   2.393   3.922
 2902SOL     OW 8719   4.763   2.960   4.420
 2902SOL    HW1 8720   4.693   2.913   4.474
 2902SOL    HW2 8721   4.822   2.892   4.377
 2903SOL     OW 8722   4.314   3.349   4.215
 2903SOL    HW1 8723   4.356   3.291   4.145
 2903SOL    HW2 8724   4.270   3.428   4.171
 2904SOL     OW 8725   3.979   3.210   4.014
 2904SOL    HW1 8726   3.883   3.211   3.987
 2904SOL    HW2 8727   3.991   3.263   4.098
 2905SOL     OW 8728   3.799   2.207   3.757
 2905SOL    HW1 8729   3.707   2.179   3.728
 2905SOL    HW2 8730   3.830   2.284   3.701
 2906SOL     OW 8731   3.796   2.028   4.042
 2906SOL    HW1 8732   3.779   2.111   3.988
 2906SOL    HW2 8733   3.886   1.991   4.020
 2907SOL     OW 8734   4.318   2.607   4.376
 2907SOL    HW1 8735   4.368   2.692   4.357
 2907SOL    HW2 8736   4.230   2.609   4.328
 2908SOL     OW 8737   4.385   3.652   4.677
 2908SOL    HW1 8738   4.339   3.740   4.664
 2908SOL    HW2 8739   4.484   3.664   4.670
 2909SOL     OW 8740   3.803   3.102   4.377
 2909SOL    HW1 8741   3.802   3.055   4.465
 2909SOL    HW2 8742   3.885   3.074   4.326
 2910SOL     OW 8743   4.152   2.286   4.244
 2910SOL    HW1 8744   4.182   2.214   4.182
 2910SOL    HW2 8745   4.113   2.246   4.327
 2911SOL     OW 8746   4.536   3.448   4.411
 2911SOL    HW1 8747   4.568   3.458   4.317
 2911SOL    HW2 8748   4.457   3.386   4.413
 2912SOL     OW 8749   3.763   2.939   4.024
 2912SOL    HW1 8750   3.862   2.928   4.015
 2912SOL    HW2 8751   3.723   2.853   4.056
 2913SOL     OW 8752   3.954   4.352   0.113
 2913SOL    HW1 8753   3.861   4.350   0.150
 2913SOL    HW2 8754   3.955   4.313   0.021
 2914SOL     OW 8755   3.949   3.999   0.996
 2914SOL    HW1 8756   3.984   3.982   1.088
 2914SOL    HW2 8757   3.861   3.954   0.984
 2915SOL     OW 8758   3.743   4.092   0.647
 2915SOL    HW1 8759   3.661   4.135   0.686
 2915SOL    HW2 8760   3.715   4.019   0.584
 2916SOL     OW 8761   4.574   4.522   1.823
 2916SOL    HW1 8762   4.570   4.598   1.888
 2916SOL    HW2 8763   4.596   4.558   1.732
 2917SOL     OW 8764   4.409   4.736   0.665
 2917SOL    HW1 8765   4.478   4.720   0.735
 2917SOL    HW2 8766   4.336   4.793   0.703
 2918SOL     OW 8767   4.162   4.116   1.499
 2918SOL    HW1 8768   4.244   4.060   1.508
 2918SOL    HW2 8769   4.081   4.058   1.503
 2919SOL     OW 8770   3.846   4.367   0.563
 2919SOL    HW1 8771   3.801   4.279   0.580
 2919SOL    HW2 8772   3.845   4.421   0.647
 2920SOL     OW 8773   3.837   4.461   1.597
 2920SOL    HW1 8774   3.925   4.448   1.642
 2920SOL    HW2 8775   3.824   4.558   1.575
 2921SOL     OW 8776   4.533   3.728   0.502
 2921SOL    HW1 8777   4.573   3.819   0.493
 2921SOL    HW2 8778   4.433   3.736   0.508
 2922SOL     OW 8779   4.041   3.975   1.801
 2922SOL    HW1 8780   4.112   4.046   1.807
 2922SOL    HW2 8781   3.953   4.014   1.829
 2923SOL     OW 8782   4.274   3.920   0.885
 2923SOL    HW1 8783   4.269   3.915   0.985
 2923SOL    HW2 8784   4.276   4.016   0.856
 2924SOL     OW 8785   3.926   4.009   1.498
 2924SOL    HW1 8786   3.846   4.069   1.485
 2924SOL    HW2 8787   3.916   3.960   1.584
 2925SOL     OW 8788   4.106   4.424   0.480
 2925SOL    HW1 8789   4.151   4.334   0.477
 2925SOL    HW2 8790   4.012   4.413   0.513
 2926SOL     OW 8791   4.263   3.788   0.512
 2926SOL    HW1 8792   4.182   3.789   0.570
 2926SOL    HW2 8793   4.266   3.871   0.457
 2927SOL     OW 8794   3.802   4.280   1.386
 2927SOL    HW1 8795   3.894   4.279   1.345
 2927SOL    HW2 8796   3.796   4.354   1.453
 2928SOL     OW 8797   4.285   3.946   1.147
 2928SOL    HW1 8798   4.323   3.862   1.184
 2928SOL    HW2 8799   4.197   3.965   1.191
 2929SOL     OW 8800   4.251   3.980   0.328
 2929SOL    HW1 8801   4.278   3.921   0.253
 2929SOL    HW2 8802   4.251   4.075   0.297
 2930SOL     OW 8803   4.134   4.537   1.251
 2930SOL    HW1 8804   4.220   4.549   1.301
 2930SOL    HW2 8805   4.092   4.450   1.278
 2931SOL     OW 8806   4.290   4.261   0.865
 2931SOL    HW1 8807   4.302   4.327   0.791
 2931SOL    HW2 8808   4.336   4.295   0.948
 2932SOL     OW 8809   4.228   3.774   1.740
 2932SOL    HW1 8810   4.186   3.717   1.670
 2932SOL    HW2 8811   4.162   3.843   1.772
 2933SOL     OW 8812   4.031   3.937   1.231
 2933SOL    HW1 8813   4.008   3.974   1.321
 2933SOL    HW2 8814   4.001   3.842   1.225
 2934SOL     OW 8815   4.031   3.787   0.618
 2934SOL    HW1 8816   4.020   3.881   0.651
 2934SOL    HW2 8817   4.026   3.724   0.695
 2935SOL     OW 8818   4.043   4.534   0.949
 2935SOL    HW1 8819   4.136   4.570   0.954
 2935SOL    HW2 8820   4.037   4.449   1.001
 2936SOL     OW 8821   4.063   4.233   1.006
 2936SOL    HW1 8822   4.011   4.150   0.989
 2936SOL    HW2 8823   4.140   4.238   0.942
 2937SOL     OW 8824   3.764   4.268   1.114
 2937SOL    HW1 8825   3.849   4.235   1.073
 2937SOL    HW2 8826   3.777   4.283   1.212
 2938SOL     OW 8827   3.913   4.244   1.722
 2938SOL    HW1 8828   3.972   4.204   1.652
 2938SOL    HW2 8829   3.855   4.315   1.681
 2939SOL     OW 8830   4.539   4.296   0.325
 2939SOL    HW1 8831   4.546   4.207   0.279
 2939SOL    HW2 8832   4.445   4.330   0.317
 2940SOL     OW 8833   4.395   4.188   1.269
 2940SOL    HW1 8834   4.361   4.099   1.239
 2940SOL    HW2 8835   4.421   4.242   1.189
 2941SOL     OW 8836   4.197   4.224   0.191
 2941SOL    HW1 8837   4.258   4.304   0.195
 2941SOL    HW2 8838   4.102   4.255   0.198
 2942SOL     OW 8839   3.987   4.050   0.720
 2942SOL    HW1 8840   3.908   4.101   0.686
 2942SOL    HW2 8841   3.978   4.035   0.818
 2943SOL     OW 8842   4.396   3.927   1.489
 2943SOL    HW1 8843   4.486   3.911   1.449
 2943SOL    HW2 8844   4.404   3.932   1.588
 2944SOL     OW 8845   3.799   4.069   0.033
 2944SOL    HW1 8846   3.707   4.041   0.004
 2944SOL    HW2 8847   3.830   4.146  -0.023
 2945SOL     OW 8848   3.796   3.890   0.318
 2945SOL    HW1 8849   3.779   3.973   0.264
 2945SOL    HW2 8850   3.886   3.853   0.296
 2946SOL     OW 8851   4.440   4.289   1.708
 2946SOL    HW1 8852   4.459   4.354   1.782
 2946SOL    HW2 8853   4.500   4.209   1.717
 2947SOL     OW 8854   4.152   4.148   0.520
 2947SOL    HW1 8855   4.182   4.076   0.458
 2947SOL    HW2 8856   4.113   4.108   0.603
 2948SOL     OW 8857   4.041   4.271   1.280
 2948SOL    HW1 8858   4.079   4.212   1.352
 2948SOL    HW2 8859   4.081   4.245   1.192
 2949SOL     OW 8860   3.954   4.352   1.975
 2949SOL    HW1 8861   3.861   4.350   2.012
 2949SOL    HW2 8862   3.955   4.313   1.883
 2950SOL     OW 8863   3.949   3.999   2.858
 2950SOL    HW1 8864   3.984   3.982   2.950
 2950SOL    HW2 8865   3.861   3.954   2.846
 2951SOL     OW 8866   3.743   4.092   2.509
 2951SOL    HW1 8867   3.661   4.135   2.548
 2951SOL    HW2 8868   3.715   4.019   2.446
 2952SOL     OW 8869   4.574   4.522   3.685
 2952SOL    HW1 8870   4.570   4.598   3.750
 2952SOL    HW2 8871   4.596   4.558   3.594
 2953SOL     OW 8872   4.409   4.736   2.527
 2953SOL    HW1 8873   4.478   4.720   2.597
 2953SOL    HW2 8874   4.336   4.793   2.565
 2954SOL     OW 8875   4.162   4.116   3.361
 2954SOL    HW1 8876   4.244   4.060   3.370
 2954SOL    HW2 8877   4.081   4.058   3.365
 2955SOL     OW 8878   3.846   4.367   2.425
 2955SOL    HW1 8879   3.801   4.279   2.442
 2955SOL    HW2 8880   3.845   4.421   2.509
 2956SOL     OW 8881   3.837   4.461   3.459
 2956SOL    HW1 8882   3.925   4.448   3.504
 2956SOL    HW2 8883   3.824   4.558   3.437
 2957SOL     OW 8884   4.533   3.728   2.364
 2957SOL    HW1 8885   4.573   3.819   2.355
 2957SOL    HW2 8886   4.433   3.736   2.370
 2958SOL     OW 8887   4.041   3.975   3.663
 2958SOL    HW1 8888   4.112   4.046   3.669
 2958SOL    HW2 8889   3.953   4.014   3.691
 2959SOL     OW 8890   4.274   3.920   2.747
 2959SOL    HW1 8891   4.269   3.915   2.847
 2959SOL    HW2 8892   4.276   4.016   2.718
 2960SOL     OW 8893   3.926   4.009   3.360
 2960SOL    HW1 8894   3.846   4.069   3.347
 2960SOL    HW2 8895   3.916   3.960   3.446
 2961SOL     OW 8896   4.106   4.424   2.342
 2961SOL    HW1 8897   4.151   4.334   2.339
 2961SOL    HW2 8898   4.012   4.413   2.375
 2962SOL     OW 8899   4.338   3.846   1.979
 2962SOL    HW1 8900   4.436   3.824   1.986
 2962SOL    HW2 8901   4.307   3.829   1.886
 2963SOL     OW 8902   4.263   3.788   2.374
 2963SOL    HW1 8903   4.182   3.789   2.432
 2963SOL    HW2 8904   4.266   3.871   2.319
 2964SOL     OW 8905   4.021   3.759   2.033
 2964SOL    HW1 8906   4.070   3.843   2.012
 2964SOL    HW2 8907   4.083   3.694   2.078
 2965SOL     OW 8908   3.802   4.280   3.248
 2965SOL    HW1 8909   3.894   4.279   3.207
 2965SOL    HW2 8910   3.796   4.354   3.315
 2966SOL     OW 8911   4.285   3.946   3.009
 2966SOL    HW1 8912   4.323   3.862   3.046
 2966SOL    HW2 8913   4.197   3.965   3.053
 2967SOL     OW 8914   4.251   3.980   2.190
 2967SOL    HW1 8915   4.278   3.921   2.115
 2967SOL    HW2 8916   4.251   4.075   2.159
 2968SOL     OW 8917   4.134   4.537   3.113
 2968SOL    HW1 8918   4.220   4.549   3.163
 2968SOL    HW2 8919   4.092   4.450   3.140
 2969SOL     OW 8920   4.290   4.261   2.727
 2969SOL    HW1 8921   4.302   4.327   2.653
 2969SOL    HW2 8922   4.336   4.295   2.810
 2970SOL     OW 8923   4.228   3.774   3.602
 2970SOL    HW1 8924   4.186   3.717   3.532
 2970SOL    HW2 8925   4.162   3.843   3.634
 2971SOL     OW 8926   4.031   3.937   3.093
 2971SOL    HW1 8927   4.008   3.974   3.183
 2971SOL    HW2 8928   4.001   3.842   3.087
 2972SOL     OW 8929   4.031   3.787   2.480
 2972SOL    HW1 8930   4.020   3.881   2.513
 2972SOL    HW2 8931   4.026   3.724   2.557
 2973SOL     OW 8932   4.043   4.534   2.811
 2973SOL    HW1 8933   4.136   4.570   2.816
 2973SOL    HW2 8934   4.037   4.449   2.863
 2974SOL     OW 8935   4.063   4.233   2.868
 2974SOL    HW1 8936   4.011   4.150   2.851
 2974SOL    HW2 8937   4.140   4.238   2.804
 2975SOL     OW 8938   3.764   4.268   2.976
 2975SOL    HW1 8939   3.849   4.235   2.935
 2975SOL    HW2 8940   3.777   4.283   3.074
 2976SOL     OW 8941   3.913   4.244   3.584
 2976SOL    HW1 8942   3.972   4.204   3.514
 2976SOL    HW2 8943   3.855   4.315   3.543
 2977SOL     OW 8944   4.539   4.296   2.187
 2977SOL    HW1 8945   4.546   4.207   2.141
 2977SOL    HW2 8946   4.445   4.330   2.179
 2978SOL     OW 8947   4.395   4.188   3.131
 2978SOL    HW1 8948   4.361   4.099   3.101
 2978SOL    HW2 8949   4.421   4.242   3.051
 2979SOL     OW 8950   4.197   4.224   2.053
 2979SOL    HW1 8951   4.258   4.304   2.057
 2979SOL    HW2 8952   4.102   4.255   2.060
 2980SOL     OW 8953   3.987   4.050   2.582
 2980SOL    HW1 8954   3.908   4.101   2.548
 2980SOL    HW2 8955   3.978   4.035   2.680
 2981SOL     OW 8956   4.396   3.927   3.351
 2981SOL    HW1 8957   4.486   3.911   3.311
 2981SOL    HW2 8958   4.404   3.932   3.450
 2982SOL     OW 8959   3.799   4.069   1.895
 2982SOL    HW1 8960   3.707   4.041   1.866
 2982SOL    HW2 8961   3.830   4.146   1.839
 2983SOL     OW 8962   3.796   3.890   2.180
 2983SOL    HW1 8963   3.779   3.973   2.126
 2983SOL    HW2 8964   3.886   3.853   2.158
 2984SOL     OW 8965   4.440   4.289   3.570
 2984SOL    HW1 8966   4.459   4.354   3.644
 2984SOL    HW2 8967   4.500   4.209   3.579
 2985SOL     OW 8968   4.152   4.148   2.382
 2985SOL    HW1 8969   4.182   4.076   2.320
 2985SOL    HW2 8970   4.113   4.108   2.465
 2986SOL     OW 8971   4.041   4.271   3.142
 2986SOL    HW1 8972   4.079   4.212   3.214
 2986SOL    HW2 8973   4.081   4.245   3.054
 2987SOL     OW 8974   3.954   4.352   3.837
 2987SOL    HW1 8975   3.861   4.350   3.874
 2987SOL    HW2 8976   3.955   4.313   3.745
 2988SOL     OW 8977   3.743   4.092   4.371
 2988SOL    HW1 8978   3.661   4.135   4.410
 2988SOL    HW2 8979   3.715   4.019   4.308
 2989SOL     OW 8980   4.409   4.736   4.389
 2989SOL    HW1 8981   4.478   4.720   4.459
 2989SOL    HW2 8982   4.336   4.793   4.427
 2990SOL     OW 8983   3.846   4.367   4.287
 2990SOL    HW1 8984   3.801   4.279   4.304
 2990SOL    HW2 8985   3.845   4.421   4.371
 2991SOL     OW 8986   4.533   3.728   4.226
 2991SOL    HW1 8987   4.573   3.819   4.217
 2991SOL    HW2 8988   4.433   3.736   4.232
 2992SOL     OW 8989   3.800   4.535   4.513
 2992SOL    HW1 8990   3.899   4.523   4.522
 2992SOL    HW2 8991   3.776   4.630   4.534
 2993SOL     OW 8992   4.106   4.424   4.204
 2993SOL    HW1 8993   4.151   4.334   4.201
 2993SOL    HW2 8994   4.012   4.413   4.237
 2994SOL     OW 8995   4.338   3.846   3.841
 2994SOL    HW1 8996   4.436   3.824   3.848
 2994SOL    HW2 8997   4.307   3.829   3.748
 2995SOL     OW 8998   4.263   3.788   4.236
 2995SOL    HW1 8999   4.182   3.789   4.294
 2995SOL    HW2 9000   4.266   3.871   4.181
 2996SOL     OW 9001   4.021   3.759   3.895
 2996SOL    HW1 9002   4.070   3.843   3.874
 2996SOL    HW2 9003   4.083   3.694   3.940
 2997SOL     OW 9004   4.251   3.980   4.052
 2997SOL    HW1 9005   4.278   3.921   3.977
 2997SOL    HW2 9006   4.251   4.075   4.021
 2998SOL     OW 9007   4.031   3.787   4.342
 2998SOL    HW1 9008   4.020   3.881   4.375
 2998SOL    HW2 9009   4.026   3.724   4.419
 2999SOL     OW 9010   4.539   4.296   4.049
 2999SOL    HW1 9011   4.546   4.207   4.003
 2999SOL    HW2 9012   4.445   4.330   4.041
 3000SOL     OW 9013   4.197   4.224   3.915
 3000SOL    HW1 9014   4.258   4.304   3.919
 3000SOL    HW2 9015   4.102   4.255   3.922
 3001SOL     OW 9016   3.799   4.069   3.757
 3001SOL    HW1 9017   3.707   4.041   3.728
 3001SOL    HW2 9018   3.830   4.146   3.701
 3002SOL     OW 9019   3.796   3.890   4.042
 3002SOL    HW1 9020   3.779   3.973   3.988
 3002SOL    HW2 9021   3.886   3.853   4.020
 3003SOL     OW 9022   4.152   4.148   4.244
 3003SOL    HW1 9023   4.182   4.076   4.182
 3003SOL    HW2 9024   4.113   4.108   4.327
   4.52707   4.52707   4.52707
