mobley_3572203_GMX.gro created by acpype (v: 2023.10.27) on Wed May 20 23:48:30 2026
   26
    1MOL     C1    1   2.733   2.548   2.366
    1MOL     C2    2   2.885   2.460   2.186
    1MOL     C3    3   2.294   2.715   2.938
    1MOL     C4    4   2.809   2.428   2.314
    1MOL     C5    5   2.374   2.609   2.864
    1MOL     C6    6   2.438   2.665   2.737
    1MOL     C7    7   2.521   2.559   2.665
    1MOL     C8    8   2.589   2.615   2.541
    1MOL     O1    9   2.732   2.659   2.315
    1MOL     O2   10   2.666   2.512   2.480
    1MOL     H1   11   2.958   2.540   2.203
    1MOL     H2   12   2.939   2.371   2.151
    1MOL     H3   13   2.817   2.492   2.107
    1MOL     H4   14   2.358   2.799   2.968
    1MOL     H5   15   2.213   2.754   2.875
    1MOL     H6   16   2.249   2.673   3.029
    1MOL     H7   17   2.880   2.395   2.391
    1MOL     H8   18   2.737   2.347   2.295
    1MOL     H9   19   2.308   2.525   2.839
    1MOL    H10   20   2.452   2.570   2.931
    1MOL    H11   21   2.360   2.703   2.670
    1MOL    H12   22   2.502   2.750   2.764
    1MOL    H13   23   2.458   2.474   2.637
    1MOL    H14   24   2.598   2.518   2.733
    1MOL    H15   25   2.656   2.698   2.567
    1MOL    H16   26   2.515   2.651   2.469
   5.15680   5.15680   5.15680
