mobley_3572203_GMX.gro created by acpype (v: 2023.10.27) on Wed May 20 23:48:30 2026
13478
    1MOL     C1    1   2.733   2.548   2.366
    1MOL     C2    2   2.885   2.460   2.186
    1MOL     C3    3   2.294   2.715   2.938
    1MOL     C4    4   2.809   2.428   2.314
    1MOL     C5    5   2.374   2.609   2.864
    1MOL     C6    6   2.438   2.665   2.737
    1MOL     C7    7   2.521   2.559   2.665
    1MOL     C8    8   2.589   2.615   2.541
    1MOL     O1    9   2.732   2.659   2.315
    1MOL     O2   10   2.666   2.512   2.480
    1MOL     H1   11   2.958   2.540   2.203
    1MOL     H2   12   2.939   2.371   2.151
    1MOL     H3   13   2.817   2.492   2.107
    1MOL     H4   14   2.358   2.799   2.968
    1MOL     H5   15   2.213   2.754   2.875
    1MOL     H6   16   2.249   2.673   3.029
    1MOL     H7   17   2.880   2.395   2.391
    1MOL     H8   18   2.737   2.347   2.295
    1MOL     H9   19   2.308   2.525   2.839
    1MOL    H10   20   2.452   2.570   2.931
    1MOL    H11   21   2.360   2.703   2.670
    1MOL    H12   22   2.502   2.750   2.764
    1MOL    H13   23   2.458   2.474   2.637
    1MOL    H14   24   2.598   2.518   2.733
    1MOL    H15   25   2.656   2.698   2.567
    1MOL    H16   26   2.515   2.651   2.469
    2SOL     OW   27   0.230   0.628   0.113
    2SOL    HW1   28   0.137   0.626   0.150
    2SOL    HW2   29   0.231   0.589   0.021
    3SOL     OW   30   0.225   0.275   0.996
    3SOL    HW1   31   0.260   0.258   1.088
    3SOL    HW2   32   0.137   0.230   0.984
    4SOL     OW   33   0.019   0.368   0.647
    4SOL    HW1   34  -0.063   0.411   0.686
    4SOL    HW2   35  -0.009   0.295   0.584
    5SOL     OW   36   0.569   1.275   1.165
    5SOL    HW1   37   0.476   1.268   1.128
    5SOL    HW2   38   0.580   1.364   1.209
    6SOL     OW   39   1.555   1.511   0.703
    6SOL    HW1   40   1.498   1.495   0.784
    6SOL    HW2   41   1.496   1.521   0.623
    7SOL     OW   42   1.135   0.703   0.717
    7SOL    HW1   43   1.192   0.781   0.692
    7SOL    HW2   44   1.075   0.729   0.793
    8SOL     OW   45   1.755   0.607   0.231
    8SOL    HW1   46   1.743   0.594   0.132
    8SOL    HW2   47   1.725   0.526   0.280
    9SOL     OW   48   0.768   1.144   1.023
    9SOL    HW1   49   0.690   1.161   1.083
    9SOL    HW2   50   0.802   1.231   0.987
   10SOL     OW   51   0.850   0.798   1.823
   10SOL    HW1   52   0.846   0.874   1.888
   10SOL    HW2   53   0.872   0.834   1.732
   11SOL     OW   54   0.685   1.012   0.665
   11SOL    HW1   55   0.754   0.996   0.735
   11SOL    HW2   56   0.612   1.069   0.703
   12SOL     OW   57   0.686   1.161   1.803
   12SOL    HW1   58   0.746   1.240   1.817
   12SOL    HW2   59   0.600   1.192   1.762
   13SOL     OW   60   0.335   1.435   1.061
   13SOL    HW1   61   0.257   1.404   1.008
   13SOL    HW2   62   0.393   1.493   1.004
   14SOL     OW   63   1.460   1.505   1.339
   14SOL    HW1   64   1.484   1.599   1.365
   14SOL    HW2   65   1.444   1.451   1.421
   15SOL     OW   66   0.438   0.392   1.499
   15SOL    HW1   67   0.520   0.336   1.508
   15SOL    HW2   68   0.357   0.334   1.503
   16SOL     OW   69   1.603   0.447   0.737
   16SOL    HW1   70   1.529   0.493   0.687
   16SOL    HW2   71   1.654   0.515   0.790
   17SOL     OW   72   0.231   1.713   0.483
   17SOL    HW1   73   0.265   1.790   0.537
   17SOL    HW2   74   0.275   1.713   0.393
   18SOL     OW   75   1.127   1.341   1.690
   18SOL    HW1   76   1.174   1.341   1.778
   18SOL    HW2   77   1.079   1.254   1.679
   19SOL     OW   78   0.230   1.434   0.538
   19SOL    HW1   79   0.204   1.530   0.538
   19SOL    HW2   80   0.159   1.380   0.583
   20SOL     OW   81   0.240   1.091   0.886
   20SOL    HW1   82   0.254   1.007   0.938
   20SOL    HW2   83   0.185   1.155   0.941
   21SOL     OW   84   0.620   1.786   1.439
   21SOL    HW1   85   0.528   1.769   1.474
   21SOL    HW2   86   0.648   1.878   1.465
   22SOL     OW   87   0.606   0.964   0.123
   22SOL    HW1   88   0.613   1.048   0.069
   22SOL    HW2   89   0.652   0.977   0.211
   23SOL     OW   90   1.594   0.114   1.480
   23SOL    HW1   91   1.576   0.181   1.408
   23SOL    HW2   92   1.591   0.160   1.569
   24SOL     OW   93   0.122   0.643   0.563
   24SOL    HW1   94   0.077   0.555   0.580
   24SOL    HW2   95   0.121   0.697   0.647
   25SOL     OW   96   1.842   1.767   0.359
   25SOL    HW1   97   1.896   1.738   0.439
   25SOL    HW2   98   1.872   1.857   0.330
   26SOL     OW   99   0.027   1.596   0.117
   26SOL    HW1  100   0.008   1.500   0.138
   26SOL    HW2  101  -0.006   1.654   0.192
   27SOL     OW  102   1.689   0.922   0.612
   27SOL    HW1  103   1.784   0.893   0.620
   27SOL    HW2  104   1.681   0.987   0.537
   28SOL     OW  105   1.641   1.108   0.432
   28SOL    HW1  106   1.727   1.110   0.380
   28SOL    HW2  107   1.655   1.155   0.520
   29SOL     OW  108   0.113   0.737   1.597
   29SOL    HW1  109   0.201   0.724   1.642
   29SOL    HW2  110   0.100   0.834   1.575
   30SOL     OW  111   0.613   1.365   0.726
   30SOL    HW1  112   0.564   1.278   0.735
   30SOL    HW2  113   0.590   1.408   0.639
   31SOL     OW  114   1.293   1.228   1.423
   31SOL    HW1  115   1.330   1.155   1.365
   31SOL    HW2  116   1.345   1.233   1.508
   32SOL     OW  117   0.809   0.004   0.502
   32SOL    HW1  118   0.849   0.095   0.493
   32SOL    HW2  119   0.709   0.012   0.508
   33SOL     OW  120   0.197   0.976   1.264
   33SOL    HW1  121   0.286   0.931   1.250
   33SOL    HW2  122   0.124   0.911   1.245
   34SOL     OW  123   1.525   0.999   0.190
   34SOL    HW1  124   1.462   0.923   0.203
   34SOL    HW2  125   1.573   1.017   0.276
   35SOL     OW  126   1.187   1.792   1.616
   35SOL    HW1  127   1.211   1.852   1.540
   35SOL    HW2  128   1.194   1.697   1.586
   36SOL     OW  129   0.317   0.251   1.801
   36SOL    HW1  130   0.388   0.322   1.807
   36SOL    HW2  131   0.229   0.290   1.829
   37SOL     OW  132   1.466   1.417   0.953
   37SOL    HW1  133   1.407   1.423   1.033
   37SOL    HW2  134   1.451   1.329   0.907
   38SOL     OW  135   1.667   1.714   0.572
   38SOL    HW1  136   1.626   1.691   0.484
   38SOL    HW2  137   1.649   1.640   0.637
   39SOL     OW  138   0.598   0.729   0.270
   39SOL    HW1  139   0.622   0.798   0.202
   39SOL    HW2  140   0.520   0.762   0.324
   40SOL     OW  141   1.281   0.345   0.944
   40SOL    HW1  142   1.195   0.295   0.931
   40SOL    HW2  143   1.343   0.291   1.000
   41SOL     OW  144   1.576   1.662   0.307
   41SOL    HW1  145   1.665   1.708   0.310
   41SOL    HW2  146   1.555   1.638   0.212
   42SOL     OW  147   0.807   0.605   1.465
   42SOL    HW1  148   0.760   0.602   1.554
   42SOL    HW2  149   0.756   0.550   1.399
   43SOL     OW  150   1.394   0.469   1.674
   43SOL    HW1  151   1.374   0.512   1.762
   43SOL    HW2  152   1.472   0.407   1.683
   44SOL     OW  153   0.973   0.890   1.572
   44SOL    HW1  154   1.019   0.806   1.543
   44SOL    HW2  155   0.917   0.924   1.497
   45SOL     OW  156   0.991   0.410   1.242
   45SOL    HW1  157   0.914   0.444   1.296
   45SOL    HW2  158   0.957   0.359   1.163
   46SOL     OW  159   1.041   0.701   0.429
   46SOL    HW1  160   1.067   0.697   0.525
   46SOL    HW2  161   0.956   0.650   0.415
   47SOL     OW  162   0.076   0.811   0.789
   47SOL    HW1  163   0.175   0.799   0.798
   47SOL    HW2  164   0.052   0.906   0.810
   48SOL     OW  165   0.130   1.821   1.571
   48SOL    HW1  166   0.120   1.806   1.670
   48SOL    HW2  167   0.044   1.857   1.535
   49SOL     OW  168   0.865   0.348   0.195
   49SOL    HW1  169   0.924   0.411   0.146
   49SOL    HW2  170   0.884   0.254   0.166
   50SOL     OW  171   1.719   0.585   1.831
   50SOL    HW1  172   1.693   0.674   1.795
   50SOL    HW2  173   1.717   0.517   1.758
   51SOL     OW  174   1.362   1.144   0.545
   51SOL    HW1  175   1.445   1.115   0.497
   51SOL    HW2  176   1.313   1.211   0.489
   52SOL     OW  177   0.550   0.196   0.885
   52SOL    HW1  178   0.545   0.191   0.985
   52SOL    HW2  179   0.552   0.292   0.856
   53SOL     OW  180   1.008   1.456   0.477
   53SOL    HW1  181   0.962   1.528   0.425
   53SOL    HW2  182   1.004   1.476   0.575
   54SOL     OW  183   0.351   1.801   0.853
   54SOL    HW1  184   0.401   1.715   0.859
   54SOL    HW2  185   0.416   1.878   0.850
   55SOL     OW  186   1.795   1.066   0.873
   55SOL    HW1  187   1.733   1.051   0.797
   55SOL    HW2  188   1.743   1.077   0.958
   56SOL     OW  189   1.227   1.550   1.506
   56SOL    HW1  190   1.233   1.473   1.570
   56SOL    HW2  191   1.175   1.524   1.426
   57SOL     OW  192   0.321   0.943   0.242
   57SOL    HW1  193   0.403   0.982   0.200
   57SOL    HW2  194   0.294   0.861   0.193
   58SOL     OW  195   1.458   0.735   0.728
   58SOL    HW1  196   1.453   0.670   0.803
   58SOL    HW2  197   1.538   0.794   0.741
   59SOL     OW  198   0.461   1.266   1.727
   59SOL    HW1  199   0.411   1.267   1.641
   59SOL    HW2  200   0.398   1.248   1.803
   60SOL     OW  201   1.111   1.776   0.237
   60SOL    HW1  202   1.051   1.714   0.287
   60SOL    HW2  203   1.142   1.732   0.152
   61SOL     OW  204   0.202   0.285   1.498
   61SOL    HW1  205   0.122   0.345   1.485
   61SOL    HW2  206   0.192   0.236   1.584
   62SOL     OW  207   1.632   1.377   0.081
   62SOL    HW1  208   1.600   1.471   0.071
   62SOL    HW2  209   1.556   1.314   0.069
   63SOL     OW  210   0.464   1.743   0.323
   63SOL    HW1  211   0.497   1.782   0.409
   63SOL    HW2  212   0.540   1.736   0.258
   64SOL     OW  213   1.400   0.107   0.426
   64SOL    HW1  214   1.376   0.070   0.336
   64SOL    HW2  215   1.499   0.123   0.430
   65SOL     OW  216   0.249   1.785   1.241
   65SOL    HW1  217   0.306   1.720   1.291
   65SOL    HW2  218   0.233   1.752   1.148
   66SOL     OW  219   0.940   1.698   0.904
   66SOL    HW1  220   1.020   1.641   0.925
   66SOL    HW2  221   0.891   1.658   0.827
   67SOL     OW  222   0.382   0.700   0.480
   67SOL    HW1  223   0.427   0.610   0.477
   67SOL    HW2  224   0.288   0.689   0.513
   68SOL     OW  225   1.547   0.222   1.729
   68SOL    HW1  226   1.542   0.259   1.821
   68SOL    HW2  227   1.475   0.153   1.717
   69SOL     OW  228   0.614   0.122   0.117
   69SOL    HW1  229   0.712   0.100   0.124
   69SOL    HW2  230   0.583   0.105   0.024
   70SOL     OW  231   0.781   0.264   1.749
   70SOL    HW1  232   0.848   0.203   1.792
   70SOL    HW2  233   0.708   0.283   1.814
   71SOL     OW  234   0.888   1.514   1.195
   71SOL    HW1  235   0.865   1.489   1.101
   71SOL    HW2  236   0.949   1.445   1.234
   72SOL     OW  237   1.351   0.590   1.433
   72SOL    HW1  238   1.379   0.547   1.518
   72SOL    HW2  239   1.376   0.686   1.434
   73SOL     OW  240   0.803   1.402   0.924
   73SOL    HW1  241   0.893   1.416   0.882
   73SOL    HW2  242   0.732   1.404   0.853
   74SOL     OW  243   0.922   0.503   0.899
   74SOL    HW1  244   0.897   0.494   0.803
   74SOL    HW2  245   0.970   0.421   0.930
   75SOL     OW  246   0.539   0.064   0.512
   75SOL    HW1  247   0.458   0.065   0.570
   75SOL    HW2  248   0.542   0.147   0.457
   76SOL     OW  249   1.434   1.188   0.041
   76SOL    HW1  250   1.466   1.112   0.098
   76SOL    HW2  251   1.342   1.215   0.071
   77SOL     OW  252   0.297   0.035   0.171
   77SOL    HW1  253   0.346   0.119   0.150
   77SOL    HW2  254   0.359  -0.030   0.216
   78SOL     OW  255   0.935   0.236   0.480
   78SOL    HW1  256   0.887   0.277   0.402
   78SOL    HW2  257   1.034   0.234   0.461
   79SOL     OW  258   1.076   0.683   1.464
   79SOL    HW1  259   0.996   0.622   1.467
   79SOL    HW2  260   1.157   0.630   1.440
   80SOL     OW  261   1.227   1.570   0.793
   80SOL    HW1  262   1.248   1.644   0.728
   80SOL    HW2  263   1.295   1.570   0.866
   81SOL     OW  264   0.459   1.152   0.741
   81SOL    HW1  265   0.388   1.125   0.806
   81SOL    HW2  266   0.433   1.124   0.648
   82SOL     OW  267   1.271   1.797   0.591
   82SOL    HW1  268   1.315   1.861   0.527
   82SOL    HW2  269   1.221   1.849   0.661
   83SOL     OW  270   1.032   0.549   0.016
   83SOL    HW1  271   0.991   0.631  -0.023
   83SOL    HW2  272   1.096   0.575   0.089
   84SOL     OW  273   0.078   0.556   1.386
   84SOL    HW1  274   0.170   0.555   1.345
   84SOL    HW2  275   0.072   0.630   1.453
   85SOL     OW  276   0.561   0.222   1.147
   85SOL    HW1  277   0.599   0.138   1.184
   85SOL    HW2  278   0.473   0.241   1.191
   86SOL     OW  279   0.866   0.454   0.642
   86SOL    HW1  280   0.834   0.526   0.580
   86SOL    HW2  281   0.890   0.373   0.589
   87SOL     OW  282   1.017   0.039   0.753
   87SOL    HW1  283   0.945   0.044   0.684
   87SOL    HW2  284   0.993  -0.030   0.822
   88SOL     OW  285   1.429   1.173   0.867
   88SOL    HW1  286   1.374   1.089   0.860
   88SOL    HW2  287   1.455   1.202   0.775
   89SOL     OW  288   1.466   0.590   0.992
   89SOL    HW1  289   1.436   0.495   0.999
   89SOL    HW2  290   1.539   0.606   1.058
   90SOL     OW  291   1.857   0.833   0.377
   90SOL    HW1  292   1.899   0.769   0.441
   90SOL    HW2  293   1.819   0.782   0.299
   91SOL     OW  294   0.488   1.385   0.174
   91SOL    HW1  295   0.401   1.370   0.221
   91SOL    HW2  296   0.471   1.411   0.079
   92SOL     OW  297   1.664   1.280   0.657
   92SOL    HW1  298   1.763   1.288   0.671
   92SOL    HW2  299   1.619   1.364   0.688
   93SOL     OW  300   1.390   0.575   0.078
   93SOL    HW1  301   1.336   0.554   0.159
   93SOL    HW2  302   1.481   0.534   0.087
   94SOL     OW  303   0.527   0.256   0.328
   94SOL    HW1  304   0.554   0.197   0.253
   94SOL    HW2  305   0.527   0.351   0.297
   95SOL     OW  306   1.754   1.223   1.588
   95SOL    HW1  307   1.845   1.184   1.575
   95SOL    HW2  308   1.762   1.319   1.612
   96SOL     OW  309   1.064   1.347   1.340
   96SOL    HW1  310   0.984   1.324   1.395
   96SOL    HW2  311   1.147   1.321   1.389
   97SOL     OW  312   1.592   1.629   1.625
   97SOL    HW1  313   1.619   1.663   1.535
   97SOL    HW2  314   1.671   1.591   1.671
   98SOL     OW  315   1.111   1.195   1.100
   98SOL    HW1  316   1.071   1.239   1.181
   98SOL    HW2  317   1.070   1.232   1.017
   99SOL     OW  318   1.638   1.099   1.079
   99SOL    HW1  319   1.643   1.180   1.138
   99SOL    HW2  320   1.552   1.101   1.028
  100SOL     OW  321   0.915   0.089   1.402
  100SOL    HW1  322   0.940   0.069   1.307
  100SOL    HW2  323   0.987   0.145   1.444
  101SOL     OW  324   0.980   1.116   1.719
  101SOL    HW1  325   0.881   1.122   1.729
  101SOL    HW2  326   1.003   1.036   1.663
  102SOL     OW  327   0.705   1.050   0.368
  102SOL    HW1  328   0.691   1.057   0.467
  102SOL    HW2  329   0.789   0.999   0.350
  103SOL     OW  330   0.410   0.813   1.251
  103SOL    HW1  331   0.496   0.825   1.301
  103SOL    HW2  332   0.368   0.726   1.278
  104SOL     OW  333   1.274   0.386   1.262
  104SOL    HW1  334   1.295   0.460   1.326
  104SOL    HW2  335   1.185   0.403   1.219
  105SOL     OW  336   0.064   1.564   1.331
  105SOL    HW1  337   0.018   1.646   1.297
  105SOL    HW2  338   0.162   1.583   1.340
  106SOL     OW  339   0.367   1.100   0.501
  106SOL    HW1  340   0.360   1.183   0.445
  106SOL    HW2  341   0.371   1.020   0.441
  107SOL     OW  342   0.566   0.537   0.865
  107SOL    HW1  343   0.578   0.603   0.791
  107SOL    HW2  344   0.612   0.571   0.948
  108SOL     OW  345   1.252   1.348   0.388
  108SOL    HW1  346   1.302   1.425   0.428
  108SOL    HW2  347   1.157   1.350   0.420
  109SOL     OW  348   1.272   1.445   1.142
  109SOL    HW1  349   1.319   1.458   1.229
  109SOL    HW2  350   1.206   1.371   1.151
  110SOL     OW  351   1.582   0.639   0.472
  110SOL    HW1  352   1.551   0.700   0.545
  110SOL    HW2  353   1.632   0.691   0.403
  111SOL     OW  354   0.354   1.510   1.329
  111SOL    HW1  355   0.333   1.466   1.242
  111SOL    HW2  356   0.451   1.536   1.332
  112SOL     OW  357   0.402   0.751   1.598
  112SOL    HW1  358   0.470   0.806   1.551
  112SOL    HW2  359   0.442   0.663   1.625
  113SOL     OW  360   1.587   0.779   1.670
  113SOL    HW1  361   1.495   0.817   1.665
  113SOL    HW2  362   1.647   0.826   1.605
  114SOL     OW  363   1.013   0.105   1.770
  114SOL    HW1  364   1.019   0.190   1.718
  114SOL    HW2  365   1.045   0.029   1.713
  115SOL     OW  366   0.504   0.050   1.740
  115SOL    HW1  367   0.462  -0.007   1.670
  115SOL    HW2  368   0.438   0.119   1.772
  116SOL     OW  369   0.573   0.870   1.029
  116SOL    HW1  370   0.617   0.959   1.020
  116SOL    HW2  371   0.510   0.870   1.106
  117SOL     OW  372   1.360   0.862   1.045
  117SOL    HW1  373   1.285   0.862   0.979
  117SOL    HW2  374   1.397   0.770   1.054
  118SOL     OW  375   1.209   0.525   0.275
  118SOL    HW1  376   1.222   0.441   0.329
  118SOL    HW2  377   1.180   0.599   0.335
  119SOL     OW  378   0.307   0.213   1.231
  119SOL    HW1  379   0.284   0.250   1.321
  119SOL    HW2  380   0.277   0.118   1.225
  120SOL     OW  381   0.037   1.310   1.282
  120SOL    HW1  382   0.090   1.261   1.350
  120SOL    HW2  383   0.059   1.408   1.287
  121SOL     OW  384   0.732   0.634   1.064
  121SOL    HW1  385   0.791   0.608   0.988
  121SOL    HW2  386   0.704   0.730   1.053
  122SOL     OW  387   1.728   0.935   1.854
  122SOL    HW1  388   1.682   0.928   1.765
  122SOL    HW2  389   1.666   0.979   1.920
  123SOL     OW  390   0.307   0.063   0.618
  123SOL    HW1  391   0.296   0.157   0.651
  123SOL    HW2  392   0.302   0.000   0.695
  124SOL     OW  393   1.622   0.367   0.374
  124SOL    HW1  394   1.624   0.291   0.438
  124SOL    HW2  395   1.574   0.444   0.414
  125SOL     OW  396   1.023   0.766   0.966
  125SOL    HW1  397   1.038   0.787   1.062
  125SOL    HW2  398   0.993   0.671   0.957
  126SOL     OW  399   0.980   1.573   1.700
  126SOL    HW1  400   0.960   1.617   1.612
  126SOL    HW2  401   1.019   1.482   1.684
  127SOL     OW  402   1.859   1.518   1.605
  127SOL    HW1  403   1.873   1.545   1.510
  127SOL    HW2  404   1.942   1.540   1.658
  128SOL     OW  405   0.350   0.898   1.804
  128SOL    HW1  406   0.426   0.942   1.852
  128SOL    HW2  407   0.385   0.851   1.722
  129SOL     OW  408   1.540   0.274   0.125
  129SOL    HW1  409   1.479   0.199   0.148
  129SOL    HW2  410   1.562   0.326   0.208
  130SOL     OW  411   1.303   0.838   0.042
  130SOL    HW1  412   1.337   0.745   0.057
  130SOL    HW2  413   1.321   0.865  -0.053
  131SOL     OW  414   1.068   1.333   0.849
  131SOL    HW1  415   1.075   1.249   0.794
  131SOL    HW2  416   1.130   1.402   0.813
  132SOL     OW  417   0.319   0.810   0.949
  132SOL    HW1  418   0.412   0.846   0.954
  132SOL    HW2  419   0.313   0.725   1.001
  133SOL     OW  420   0.339   0.509   1.006
  133SOL    HW1  421   0.287   0.426   0.989
  133SOL    HW2  422   0.416   0.514   0.942
  134SOL     OW  423   1.138   0.380   1.678
  134SOL    HW1  424   1.093   0.443   1.742
  134SOL    HW2  425   1.231   0.411   1.661
  135SOL     OW  426   1.160   0.207   1.477
  135SOL    HW1  427   1.160   0.271   1.554
  135SOL    HW2  428   1.188   0.255   1.394
  136SOL     OW  429   0.008   1.326   0.200
  136SOL    HW1  430  -0.085   1.347   0.169
  136SOL    HW2  431   0.018   1.227   0.213
  137SOL     OW  432   0.088   1.801   0.927
  137SOL    HW1  433   0.046   1.715   0.900
  137SOL    HW2  434   0.182   1.804   0.893
  138SOL     OW  435   0.504   1.568   0.910
  138SOL    HW1  436   0.570   1.642   0.919
  138SOL    HW2  437   0.548   1.489   0.868
  139SOL     OW  438   1.002   0.796   1.238
  139SOL    HW1  439   1.043   0.764   1.324
  139SOL    HW2  440   0.906   0.769   1.235
  140SOL     OW  441   0.040   0.544   1.114
  140SOL    HW1  442   0.125   0.511   1.073
  140SOL    HW2  443   0.053   0.559   1.212
  141SOL     OW  444   0.189   0.520   1.722
  141SOL    HW1  445   0.248   0.480   1.652
  141SOL    HW2  446   0.131   0.591   1.681
  142SOL     OW  447   1.369   0.950   1.660
  142SOL    HW1  448   1.408   1.039   1.680
  142SOL    HW2  449   1.379   0.930   1.563
  143SOL     OW  450   0.815   0.572   0.325
  143SOL    HW1  451   0.822   0.483   0.279
  143SOL    HW2  452   0.721   0.606   0.317
  144SOL     OW  453   1.657   0.604   1.206
  144SOL    HW1  454   1.619   0.535   1.268
  144SOL    HW2  455   1.739   0.568   1.162
  145SOL     OW  456   0.252   1.564   1.744
  145SOL    HW1  457   0.222   1.621   1.820
  145SOL    HW2  458   0.245   1.467   1.770
  146SOL     OW  459   0.671   0.464   1.269
  146SOL    HW1  460   0.637   0.375   1.239
  146SOL    HW2  461   0.697   0.518   1.189
  147SOL     OW  462   0.930   1.678   1.465
  147SOL    HW1  463   0.906   1.660   1.370
  147SOL    HW2  464   0.960   1.772   1.475
  148SOL     OW  465   0.473   0.500   0.191
  148SOL    HW1  466   0.534   0.580   0.195
  148SOL    HW2  467   0.378   0.531   0.198
  149SOL     OW  468   0.159   1.137   1.466
  149SOL    HW1  469   0.181   1.076   1.542
  149SOL    HW2  470   0.169   1.088   1.380
  150SOL     OW  471   1.347   1.059   1.234
  150SOL    HW1  472   1.371   0.996   1.160
  150SOL    HW2  473   1.257   1.099   1.216
  151SOL     OW  474   1.302   0.855   0.309
  151SOL    HW1  475   1.216   0.824   0.351
  151SOL    HW2  476   1.298   0.841   0.210
  152SOL     OW  477   1.759   1.747   1.154
  152SOL    HW1  478   1.820   1.777   1.081
  152SOL    HW2  479   1.721   1.658   1.132
  153SOL     OW  480   1.252   1.731   1.128
  153SOL    HW1  481   1.336   1.736   1.074
  153SOL    HW2  482   1.229   1.635   1.146
  154SOL     OW  483   0.083   1.258   1.022
  154SOL    HW1  484   0.078   1.257   1.122
  154SOL    HW2  485   0.000   1.217   0.984
  155SOL     OW  486   0.688   1.662   1.716
  155SOL    HW1  487   0.632   1.743   1.725
  155SOL    HW2  488   0.740   1.666   1.630
  156SOL     OW  489   0.903   0.086   0.133
  156SOL    HW1  490   0.954   0.087   0.047
  156SOL    HW2  491   0.959   0.044   0.204
  157SOL     OW  492   1.726   0.135   0.523
  157SOL    HW1  493   1.799   0.118   0.456
  157SOL    HW2  494   1.695   0.048   0.561
  158SOL     OW  495   1.388   1.573   0.477
  158SOL    HW1  496   1.455   1.585   0.403
  158SOL    HW2  497   1.348   1.662   0.500
  159SOL     OW  498   0.130   1.794   1.851
  159SOL    HW1  499   0.089   1.720   1.904
  159SOL    HW2  500   0.194   1.845   1.909
  160SOL     OW  501   1.280   0.927   0.672
  160SOL    HW1  502   1.340   0.846   0.674
  160SOL    HW2  503   1.320   0.996   0.612
  161SOL     OW  504   0.830   1.273   1.422
  161SOL    HW1  505   0.825   1.306   1.517
  161SOL    HW2  506   0.744   1.292   1.376
  162SOL     OW  507   0.672   1.616   0.154
  162SOL    HW1  508   0.681   1.626   0.055
  162SOL    HW2  509   0.632   1.527   0.175
  163SOL     OW  510   1.650   1.720   1.394
  163SOL    HW1  511   1.703   1.730   1.310
  163SOL    HW2  512   1.623   1.810   1.428
  164SOL     OW  513   1.841   0.175   0.963
  164SOL    HW1  514   1.880   0.090   0.927
  164SOL    HW2  515   1.743   0.177   0.944
  165SOL     OW  516   0.263   0.326   0.720
  165SOL    HW1  517   0.184   0.377   0.686
  165SOL    HW2  518   0.254   0.311   0.818
  166SOL     OW  519   1.194   1.612   0.031
  166SOL    HW1  520   1.200   1.519   0.068
  166SOL    HW2  521   1.135   1.612  -0.049
  167SOL     OW  522   0.822   1.002   1.372
  167SOL    HW1  523   0.862   1.001   1.280
  167SOL    HW2  524   0.832   1.094   1.412
  168SOL     OW  525   0.916   0.910   0.291
  168SOL    HW1  526   0.979   0.948   0.223
  168SOL    HW2  527   0.956   0.827   0.330
  169SOL     OW  528   1.504   1.607   0.044
  169SOL    HW1  529   1.412   1.644   0.051
  169SOL    HW2  530   1.542   1.627  -0.046
  170SOL     OW  531   0.372   1.288   1.490
  170SOL    HW1  532   0.359   1.381   1.456
  170SOL    HW2  533   0.288   1.236   1.477
  171SOL     OW  534   1.614   1.292   1.289
  171SOL    HW1  535   1.674   1.295   1.369
  171SOL    HW2  536   1.539   1.356   1.302
  172SOL     OW  537   1.039   1.098   0.696
  172SOL    HW1  538   0.969   1.051   0.750
  172SOL    HW2  539   1.098   1.030   0.653
  173SOL     OW  540   1.014   0.236   0.971
  173SOL    HW1  541   1.006   0.200   0.878
  173SOL    HW2  542   1.012   0.160   1.036
  174SOL     OW  543   0.590   1.487   0.491
  174SOL    HW1  544   0.632   1.429   0.421
  174SOL    HW2  545   0.546   1.566   0.447
  175SOL     OW  546   1.709   0.385   1.381
  175SOL    HW1  547   1.782   0.454   1.385
  175SOL    HW2  548   1.737   0.310   1.322
  176SOL     OW  549   0.255   1.348   0.290
  176SOL    HW1  550   0.159   1.349   0.263
  176SOL    HW2  551   0.267   1.401   0.374
  177SOL     OW  552   0.105   1.013   1.726
  177SOL    HW1  553   0.028   0.980   1.780
  177SOL    HW2  554   0.190   0.983   1.768
  178SOL     OW  555   0.672   0.203   1.489
  178SOL    HW1  556   0.762   0.187   1.449
  178SOL    HW2  557   0.680   0.208   1.588
  179SOL     OW  558   0.075   0.345   0.033
  179SOL    HW1  559  -0.017   0.317   0.004
  179SOL    HW2  560   0.106   0.422  -0.023
  180SOL     OW  561   1.440   0.856   1.398
  180SOL    HW1  562   1.383   0.908   1.335
  180SOL    HW2  563   1.536   0.868   1.374
  181SOL     OW  564   0.072   0.166   0.318
  181SOL    HW1  565   0.055   0.249   0.264
  181SOL    HW2  566   0.162   0.129   0.296
  182SOL     OW  567   1.183   1.335   0.119
  182SOL    HW1  568   1.084   1.324   0.121
  182SOL    HW2  569   1.217   1.350   0.212
  183SOL     OW  570   0.613   0.842   1.431
  183SOL    HW1  571   0.669   0.923   1.414
  183SOL    HW2  572   0.672   0.762   1.434
  184SOL     OW  573   1.493   1.767   0.959
  184SOL    HW1  574   1.526   1.831   0.890
  184SOL    HW2  575   1.559   1.761   1.034
  185SOL     OW  576   0.716   0.565   1.708
  185SOL    HW1  577   0.735   0.630   1.782
  185SOL    HW2  578   0.776   0.485   1.717
  186SOL     OW  579   1.450   1.220   1.633
  186SOL    HW1  580   1.441   1.210   1.732
  186SOL    HW2  581   1.546   1.213   1.607
  187SOL     OW  582   0.390   1.741   1.560
  187SOL    HW1  583   0.299   1.782   1.558
  187SOL    HW2  584   0.383   1.647   1.592
  188SOL     OW  585   1.674   0.883   1.254
  188SOL    HW1  586   1.647   0.794   1.217
  188SOL    HW2  587   1.675   0.951   1.181
  189SOL     OW  588   1.225   0.325   0.449
  189SOL    HW1  589   1.290   0.251   0.438
  189SOL    HW2  590   1.245   0.375   0.533
  190SOL     OW  591   0.594   0.745   0.652
  190SOL    HW1  592   0.644   0.830   0.633
  190SOL    HW2  593   0.506   0.747   0.604
  191SOL     OW  594   1.777   0.342   1.642
  191SOL    HW1  595   1.760   0.373   1.548
  191SOL    HW2  596   1.693   0.305   1.680
  192SOL     OW  597   1.730   0.934   1.517
  192SOL    HW1  598   1.768   1.025   1.532
  192SOL    HW2  599   1.722   0.917   1.418
  193SOL     OW  600   0.859   1.374   0.016
  193SOL    HW1  601   0.813   1.389   0.104
  193SOL    HW2  602   0.903   1.459  -0.014
  194SOL     OW  603   0.661   1.790   0.953
  194SOL    HW1  604   0.615   1.878   0.940
  194SOL    HW2  605   0.760   1.802   0.946
  195SOL     OW  606   0.859   0.956   0.861
  195SOL    HW1  607   0.913   0.887   0.909
  195SOL    HW2  608   0.827   1.025   0.927
  196SOL     OW  609   1.083   0.984   0.087
  196SOL    HW1  610   1.060   1.037   0.005
  196SOL    HW2  611   1.164   0.928   0.068
  197SOL     OW  612   1.861   1.569   0.851
  197SOL    HW1  613   1.790   1.557   0.781
  197SOL    HW2  614   1.862   1.490   0.911
  198SOL     OW  615   0.221   1.314   1.844
  198SOL    HW1  616   0.156   1.241   1.823
  198SOL    HW2  617   0.225   1.328   1.942
  199SOL     OW  618   0.079   1.240   0.653
  199SOL    HW1  619   0.078   1.193   0.741
  199SOL    HW2  620   0.161   1.212   0.602
  200SOL     OW  621   0.672   1.391   1.624
  200SOL    HW1  622   0.594   1.341   1.662
  200SOL    HW2  623   0.669   1.486   1.655
  201SOL     OW  624   1.824   0.192   1.227
  201SOL    HW1  625   1.820   0.102   1.271
  201SOL    HW2  626   1.827   0.181   1.128
  202SOL     OW  627   0.428   0.424   0.520
  202SOL    HW1  628   0.458   0.352   0.458
  202SOL    HW2  629   0.389   0.384   0.603
  203SOL     OW  630   1.705   1.487   1.104
  203SOL    HW1  631   1.612   1.462   1.077
  203SOL    HW2  632   1.731   1.437   1.186
  204SOL     OW  633   0.317   0.547   1.280
  204SOL    HW1  634   0.355   0.488   1.352
  204SOL    HW2  635   0.357   0.521   1.192
  205SOL     OW  636   0.812   1.586   0.687
  205SOL    HW1  637   0.844   1.596   0.593
  205SOL    HW2  638   0.733   1.524   0.689
  206SOL     OW  639   1.424   0.214   1.112
  206SOL    HW1  640   1.476   0.149   1.167
  206SOL    HW2  641   1.375   0.277   1.173
  207SOL     OW  642   1.001   0.034   1.154
  207SOL    HW1  643   0.938  -0.038   1.123
  207SOL    HW2  644   1.094  -0.002   1.154
  208SOL     OW  645   0.770   1.330   0.301
  208SOL    HW1  646   0.724   1.243   0.318
  208SOL    HW2  647   0.861   1.327   0.342
  209SOL     OW  648   0.618   1.567   1.284
  209SOL    HW1  649   0.613   1.649   1.341
  209SOL    HW2  650   0.707   1.564   1.239
  210SOL     OW  651   1.352   0.052   0.168
  210SOL    HW1  652   1.387   0.011   0.084
  210SOL    HW2  653   1.262   0.014   0.188
  211SOL     OW  654   1.300   0.453   0.691
  211SOL    HW1  655   1.241   0.533   0.695
  211SOL    HW2  656   1.315   0.418   0.784
  212SOL     OW  657   1.593   0.221   0.882
  212SOL    HW1  658   1.509   0.220   0.936
  212SOL    HW2  659   1.595   0.304   0.826
  213SOL     OW  660   0.039   1.077   0.300
  213SOL    HW1  661   0.138   1.066   0.291
  213SOL    HW2  662  -0.001   0.991   0.332
  214SOL     OW  663   0.875   1.646   0.337
  214SOL    HW1  664   0.798   1.611   0.283
  214SOL    HW2  665   0.843   1.717   0.399
  215SOL     OW  666   0.230   0.628   1.975
  215SOL    HW1  667   0.137   0.626   2.012
  215SOL    HW2  668   0.231   0.589   1.883
  216SOL     OW  669   0.225   0.275   2.858
  216SOL    HW1  670   0.260   0.258   2.950
  216SOL    HW2  671   0.137   0.230   2.846
  217SOL     OW  672   0.019   0.368   2.509
  217SOL    HW1  673  -0.063   0.411   2.548
  217SOL    HW2  674  -0.009   0.295   2.446
  218SOL     OW  675   0.569   1.275   3.027
  218SOL    HW1  676   0.476   1.268   2.990
  218SOL    HW2  677   0.580   1.364   3.071
  219SOL     OW  678   1.555   1.511   2.565
  219SOL    HW1  679   1.498   1.495   2.646
  219SOL    HW2  680   1.496   1.521   2.485
  220SOL     OW  681   1.135   0.703   2.579
  220SOL    HW1  682   1.192   0.781   2.554
  220SOL    HW2  683   1.075   0.729   2.655
  221SOL     OW  684   1.755   0.607   2.093
  221SOL    HW1  685   1.743   0.594   1.994
  221SOL    HW2  686   1.725   0.526   2.142
  222SOL     OW  687   0.768   1.144   2.885
  222SOL    HW1  688   0.690   1.161   2.945
  222SOL    HW2  689   0.802   1.231   2.849
  223SOL     OW  690   0.850   0.798   3.685
  223SOL    HW1  691   0.846   0.874   3.750
  223SOL    HW2  692   0.872   0.834   3.594
  224SOL     OW  693   0.685   1.012   2.527
  224SOL    HW1  694   0.754   0.996   2.597
  224SOL    HW2  695   0.612   1.069   2.565
  225SOL     OW  696   0.686   1.161   3.665
  225SOL    HW1  697   0.746   1.240   3.679
  225SOL    HW2  698   0.600   1.192   3.624
  226SOL     OW  699   0.335   1.435   2.923
  226SOL    HW1  700   0.257   1.404   2.870
  226SOL    HW2  701   0.393   1.493   2.866
  227SOL     OW  702   1.460   1.505   3.201
  227SOL    HW1  703   1.484   1.599   3.227
  227SOL    HW2  704   1.444   1.451   3.283
  228SOL     OW  705   0.438   0.392   3.361
  228SOL    HW1  706   0.520   0.336   3.370
  228SOL    HW2  707   0.357   0.334   3.365
  229SOL     OW  708   1.603   0.447   2.599
  229SOL    HW1  709   1.529   0.493   2.549
  229SOL    HW2  710   1.654   0.515   2.652
  230SOL     OW  711   0.231   1.713   2.345
  230SOL    HW1  712   0.265   1.790   2.399
  230SOL    HW2  713   0.275   1.713   2.255
  231SOL     OW  714   1.127   1.341   3.552
  231SOL    HW1  715   1.174   1.341   3.640
  231SOL    HW2  716   1.079   1.254   3.541
  232SOL     OW  717   0.230   1.434   2.400
  232SOL    HW1  718   0.204   1.530   2.400
  232SOL    HW2  719   0.159   1.380   2.445
  233SOL     OW  720   0.240   1.091   2.748
  233SOL    HW1  721   0.254   1.007   2.800
  233SOL    HW2  722   0.185   1.155   2.803
  234SOL     OW  723   0.620   1.786   3.301
  234SOL    HW1  724   0.528   1.769   3.336
  234SOL    HW2  725   0.648   1.878   3.327
  235SOL     OW  726   0.606   0.964   1.985
  235SOL    HW1  727   0.613   1.048   1.931
  235SOL    HW2  728   0.652   0.977   2.073
  236SOL     OW  729   1.594   0.114   3.342
  236SOL    HW1  730   1.576   0.181   3.270
  236SOL    HW2  731   1.591   0.160   3.431
  237SOL     OW  732   0.122   0.643   2.425
  237SOL    HW1  733   0.077   0.555   2.442
  237SOL    HW2  734   0.121   0.697   2.509
  238SOL     OW  735   1.842   1.767   2.221
  238SOL    HW1  736   1.896   1.738   2.301
  238SOL    HW2  737   1.872   1.857   2.192
  239SOL     OW  738   0.027   1.596   1.979
  239SOL    HW1  739   0.008   1.500   2.000
  239SOL    HW2  740  -0.006   1.654   2.054
  240SOL     OW  741   1.689   0.922   2.474
  240SOL    HW1  742   1.784   0.893   2.482
  240SOL    HW2  743   1.681   0.987   2.399
  241SOL     OW  744   1.641   1.108   2.294
  241SOL    HW1  745   1.727   1.110   2.242
  241SOL    HW2  746   1.655   1.155   2.382
  242SOL     OW  747   0.113   0.737   3.459
  242SOL    HW1  748   0.201   0.724   3.504
  242SOL    HW2  749   0.100   0.834   3.437
  243SOL     OW  750   0.613   1.365   2.588
  243SOL    HW1  751   0.564   1.278   2.597
  243SOL    HW2  752   0.590   1.408   2.501
  244SOL     OW  753   1.293   1.228   3.285
  244SOL    HW1  754   1.330   1.155   3.227
  244SOL    HW2  755   1.345   1.233   3.370
  245SOL     OW  756   0.809   0.004   2.364
  245SOL    HW1  757   0.849   0.095   2.355
  245SOL    HW2  758   0.709   0.012   2.370
  246SOL     OW  759   0.197   0.976   3.126
  246SOL    HW1  760   0.286   0.931   3.112
  246SOL    HW2  761   0.124   0.911   3.107
  247SOL     OW  762   1.525   0.999   2.052
  247SOL    HW1  763   1.462   0.923   2.065
  247SOL    HW2  764   1.573   1.017   2.138
  248SOL     OW  765   1.187   1.792   3.478
  248SOL    HW1  766   1.211   1.852   3.402
  248SOL    HW2  767   1.194   1.697   3.448
  249SOL     OW  768   0.317   0.251   3.663
  249SOL    HW1  769   0.388   0.322   3.669
  249SOL    HW2  770   0.229   0.290   3.691
  250SOL     OW  771   1.466   1.417   2.815
  250SOL    HW1  772   1.407   1.423   2.895
  250SOL    HW2  773   1.451   1.329   2.769
  251SOL     OW  774   1.667   1.714   2.434
  251SOL    HW1  775   1.626   1.691   2.346
  251SOL    HW2  776   1.649   1.640   2.499
  252SOL     OW  777   0.598   0.729   2.132
  252SOL    HW1  778   0.622   0.798   2.064
  252SOL    HW2  779   0.520   0.762   2.186
  253SOL     OW  780   1.281   0.345   2.806
  253SOL    HW1  781   1.195   0.295   2.793
  253SOL    HW2  782   1.343   0.291   2.862
  254SOL     OW  783   1.576   1.662   2.169
  254SOL    HW1  784   1.665   1.708   2.172
  254SOL    HW2  785   1.555   1.638   2.074
  255SOL     OW  786   0.807   0.605   3.327
  255SOL    HW1  787   0.760   0.602   3.416
  255SOL    HW2  788   0.756   0.550   3.261
  256SOL     OW  789   1.394   0.469   3.536
  256SOL    HW1  790   1.374   0.512   3.624
  256SOL    HW2  791   1.472   0.407   3.545
  257SOL     OW  792   0.973   0.890   3.434
  257SOL    HW1  793   1.019   0.806   3.405
  257SOL    HW2  794   0.917   0.924   3.359
  258SOL     OW  795   0.991   0.410   3.104
  258SOL    HW1  796   0.914   0.444   3.158
  258SOL    HW2  797   0.957   0.359   3.025
  259SOL     OW  798   1.041   0.701   2.291
  259SOL    HW1  799   1.067   0.697   2.387
  259SOL    HW2  800   0.956   0.650   2.277
  260SOL     OW  801   0.076   0.811   2.651
  260SOL    HW1  802   0.175   0.799   2.660
  260SOL    HW2  803   0.052   0.906   2.672
  261SOL     OW  804   0.130   1.821   3.433
  261SOL    HW1  805   0.120   1.806   3.532
  261SOL    HW2  806   0.044   1.857   3.397
  262SOL     OW  807   0.865   0.348   2.057
  262SOL    HW1  808   0.924   0.411   2.008
  262SOL    HW2  809   0.884   0.254   2.028
  263SOL     OW  810   1.719   0.585   3.693
  263SOL    HW1  811   1.693   0.674   3.657
  263SOL    HW2  812   1.717   0.517   3.620
  264SOL     OW  813   1.362   1.144   2.407
  264SOL    HW1  814   1.445   1.115   2.359
  264SOL    HW2  815   1.313   1.211   2.351
  265SOL     OW  816   0.550   0.196   2.747
  265SOL    HW1  817   0.545   0.191   2.847
  265SOL    HW2  818   0.552   0.292   2.718
  266SOL     OW  819   1.008   1.456   2.339
  266SOL    HW1  820   0.962   1.528   2.287
  266SOL    HW2  821   1.004   1.476   2.437
  267SOL     OW  822   0.351   1.801   2.715
  267SOL    HW1  823   0.401   1.715   2.721
  267SOL    HW2  824   0.416   1.878   2.712
  268SOL     OW  825   1.795   1.066   2.735
  268SOL    HW1  826   1.733   1.051   2.659
  268SOL    HW2  827   1.743   1.077   2.820
  269SOL     OW  828   1.227   1.550   3.368
  269SOL    HW1  829   1.233   1.473   3.432
  269SOL    HW2  830   1.175   1.524   3.288
  270SOL     OW  831   0.321   0.943   2.104
  270SOL    HW1  832   0.403   0.982   2.062
  270SOL    HW2  833   0.294   0.861   2.055
  271SOL     OW  834   1.458   0.735   2.590
  271SOL    HW1  835   1.453   0.670   2.665
  271SOL    HW2  836   1.538   0.794   2.603
  272SOL     OW  837   0.461   1.266   3.589
  272SOL    HW1  838   0.411   1.267   3.503
  272SOL    HW2  839   0.398   1.248   3.665
  273SOL     OW  840   1.111   1.776   2.099
  273SOL    HW1  841   1.051   1.714   2.149
  273SOL    HW2  842   1.142   1.732   2.014
  274SOL     OW  843   0.202   0.285   3.360
  274SOL    HW1  844   0.122   0.345   3.347
  274SOL    HW2  845   0.192   0.236   3.446
  275SOL     OW  846   1.632   1.377   1.943
  275SOL    HW1  847   1.600   1.471   1.933
  275SOL    HW2  848   1.556   1.314   1.931
  276SOL     OW  849   0.464   1.743   2.185
  276SOL    HW1  850   0.497   1.782   2.271
  276SOL    HW2  851   0.540   1.736   2.120
  277SOL     OW  852   1.400   0.107   2.288
  277SOL    HW1  853   1.376   0.070   2.198
  277SOL    HW2  854   1.499   0.123   2.292
  278SOL     OW  855   0.249   1.785   3.103
  278SOL    HW1  856   0.306   1.720   3.153
  278SOL    HW2  857   0.233   1.752   3.010
  279SOL     OW  858   0.940   1.698   2.766
  279SOL    HW1  859   1.020   1.641   2.787
  279SOL    HW2  860   0.891   1.658   2.689
  280SOL     OW  861   0.382   0.700   2.342
  280SOL    HW1  862   0.427   0.610   2.339
  280SOL    HW2  863   0.288   0.689   2.375
  281SOL     OW  864   1.547   0.222   3.591
  281SOL    HW1  865   1.542   0.259   3.683
  281SOL    HW2  866   1.475   0.153   3.579
  282SOL     OW  867   0.614   0.122   1.979
  282SOL    HW1  868   0.712   0.100   1.986
  282SOL    HW2  869   0.583   0.105   1.886
  283SOL     OW  870   0.781   0.264   3.611
  283SOL    HW1  871   0.848   0.203   3.654
  283SOL    HW2  872   0.708   0.283   3.676
  284SOL     OW  873   0.888   1.514   3.057
  284SOL    HW1  874   0.865   1.489   2.963
  284SOL    HW2  875   0.949   1.445   3.096
  285SOL     OW  876   1.351   0.590   3.295
  285SOL    HW1  877   1.379   0.547   3.380
  285SOL    HW2  878   1.376   0.686   3.296
  286SOL     OW  879   0.803   1.402   2.786
  286SOL    HW1  880   0.893   1.416   2.744
  286SOL    HW2  881   0.732   1.404   2.715
  287SOL     OW  882   0.922   0.503   2.761
  287SOL    HW1  883   0.897   0.494   2.665
  287SOL    HW2  884   0.970   0.421   2.792
  288SOL     OW  885   0.539   0.064   2.374
  288SOL    HW1  886   0.458   0.065   2.432
  288SOL    HW2  887   0.542   0.147   2.319
  289SOL     OW  888   1.434   1.188   1.903
  289SOL    HW1  889   1.466   1.112   1.960
  289SOL    HW2  890   1.342   1.215   1.933
  290SOL     OW  891   0.297   0.035   2.033
  290SOL    HW1  892   0.346   0.119   2.012
  290SOL    HW2  893   0.359  -0.030   2.078
  291SOL     OW  894   0.935   0.236   2.342
  291SOL    HW1  895   0.887   0.277   2.264
  291SOL    HW2  896   1.034   0.234   2.323
  292SOL     OW  897   1.076   0.683   3.326
  292SOL    HW1  898   0.996   0.622   3.329
  292SOL    HW2  899   1.157   0.630   3.302
  293SOL     OW  900   1.227   1.570   2.655
  293SOL    HW1  901   1.248   1.644   2.590
  293SOL    HW2  902   1.295   1.570   2.728
  294SOL     OW  903   0.459   1.152   2.603
  294SOL    HW1  904   0.388   1.125   2.668
  294SOL    HW2  905   0.433   1.124   2.510
  295SOL     OW  906   1.271   1.797   2.453
  295SOL    HW1  907   1.315   1.861   2.389
  295SOL    HW2  908   1.221   1.849   2.523
  296SOL     OW  909   1.032   0.549   1.878
  296SOL    HW1  910   0.991   0.631   1.839
  296SOL    HW2  911   1.096   0.575   1.951
  297SOL     OW  912   0.078   0.556   3.248
  297SOL    HW1  913   0.170   0.555   3.207
  297SOL    HW2  914   0.072   0.630   3.315
  298SOL     OW  915   0.561   0.222   3.009
  298SOL    HW1  916   0.599   0.138   3.046
  298SOL    HW2  917   0.473   0.241   3.053
  299SOL     OW  918   0.866   0.454   2.504
  299SOL    HW1  919   0.834   0.526   2.442
  299SOL    HW2  920   0.890   0.373   2.451
  300SOL     OW  921   1.017   0.039   2.615
  300SOL    HW1  922   0.945   0.044   2.546
  300SOL    HW2  923   0.993  -0.030   2.684
  301SOL     OW  924   1.429   1.173   2.729
  301SOL    HW1  925   1.374   1.089   2.722
  301SOL    HW2  926   1.455   1.202   2.637
  302SOL     OW  927   1.466   0.590   2.854
  302SOL    HW1  928   1.436   0.495   2.861
  302SOL    HW2  929   1.539   0.606   2.920
  303SOL     OW  930   1.857   0.833   2.239
  303SOL    HW1  931   1.899   0.769   2.303
  303SOL    HW2  932   1.819   0.782   2.161
  304SOL     OW  933   0.488   1.385   2.036
  304SOL    HW1  934   0.401   1.370   2.083
  304SOL    HW2  935   0.471   1.411   1.941
  305SOL     OW  936   1.664   1.280   2.519
  305SOL    HW1  937   1.763   1.288   2.533
  305SOL    HW2  938   1.619   1.364   2.550
  306SOL     OW  939   1.390   0.575   1.940
  306SOL    HW1  940   1.336   0.554   2.021
  306SOL    HW2  941   1.481   0.534   1.949
  307SOL     OW  942   0.527   0.256   2.190
  307SOL    HW1  943   0.554   0.197   2.115
  307SOL    HW2  944   0.527   0.351   2.159
  308SOL     OW  945   1.754   1.223   3.450
  308SOL    HW1  946   1.845   1.184   3.437
  308SOL    HW2  947   1.762   1.319   3.474
  309SOL     OW  948   1.064   1.347   3.202
  309SOL    HW1  949   0.984   1.324   3.257
  309SOL    HW2  950   1.147   1.321   3.251
  310SOL     OW  951   1.592   1.629   3.487
  310SOL    HW1  952   1.619   1.663   3.397
  310SOL    HW2  953   1.671   1.591   3.533
  311SOL     OW  954   1.111   1.195   2.962
  311SOL    HW1  955   1.071   1.239   3.043
  311SOL    HW2  956   1.070   1.232   2.879
  312SOL     OW  957   1.638   1.099   2.941
  312SOL    HW1  958   1.643   1.180   3.000
  312SOL    HW2  959   1.552   1.101   2.890
  313SOL     OW  960   0.915   0.089   3.264
  313SOL    HW1  961   0.940   0.069   3.169
  313SOL    HW2  962   0.987   0.145   3.306
  314SOL     OW  963   0.980   1.116   3.581
  314SOL    HW1  964   0.881   1.122   3.591
  314SOL    HW2  965   1.003   1.036   3.525
  315SOL     OW  966   0.705   1.050   2.230
  315SOL    HW1  967   0.691   1.057   2.329
  315SOL    HW2  968   0.789   0.999   2.212
  316SOL     OW  969   0.410   0.813   3.113
  316SOL    HW1  970   0.496   0.825   3.163
  316SOL    HW2  971   0.368   0.726   3.140
  317SOL     OW  972   1.274   0.386   3.124
  317SOL    HW1  973   1.295   0.460   3.188
  317SOL    HW2  974   1.185   0.403   3.081
  318SOL     OW  975   0.064   1.564   3.193
  318SOL    HW1  976   0.018   1.646   3.159
  318SOL    HW2  977   0.162   1.583   3.202
  319SOL     OW  978   0.367   1.100   2.363
  319SOL    HW1  979   0.360   1.183   2.307
  319SOL    HW2  980   0.371   1.020   2.303
  320SOL     OW  981   0.566   0.537   2.727
  320SOL    HW1  982   0.578   0.603   2.653
  320SOL    HW2  983   0.612   0.571   2.810
  321SOL     OW  984   1.252   1.348   2.250
  321SOL    HW1  985   1.302   1.425   2.290
  321SOL    HW2  986   1.157   1.350   2.282
  322SOL     OW  987   1.272   1.445   3.004
  322SOL    HW1  988   1.319   1.458   3.091
  322SOL    HW2  989   1.206   1.371   3.013
  323SOL     OW  990   1.582   0.639   2.334
  323SOL    HW1  991   1.551   0.700   2.407
  323SOL    HW2  992   1.632   0.691   2.265
  324SOL     OW  993   0.354   1.510   3.191
  324SOL    HW1  994   0.333   1.466   3.104
  324SOL    HW2  995   0.451   1.536   3.194
  325SOL     OW  996   0.402   0.751   3.460
  325SOL    HW1  997   0.470   0.806   3.413
  325SOL    HW2  998   0.442   0.663   3.487
  326SOL     OW  999   1.587   0.779   3.532
  326SOL    HW1 1000   1.495   0.817   3.527
  326SOL    HW2 1001   1.647   0.826   3.467
  327SOL     OW 1002   1.013   0.105   3.632
  327SOL    HW1 1003   1.019   0.190   3.580
  327SOL    HW2 1004   1.045   0.029   3.575
  328SOL     OW 1005   0.504   0.050   3.602
  328SOL    HW1 1006   0.462  -0.007   3.532
  328SOL    HW2 1007   0.438   0.119   3.634
  329SOL     OW 1008   0.573   0.870   2.891
  329SOL    HW1 1009   0.617   0.959   2.882
  329SOL    HW2 1010   0.510   0.870   2.968
  330SOL     OW 1011   1.360   0.862   2.907
  330SOL    HW1 1012   1.285   0.862   2.841
  330SOL    HW2 1013   1.397   0.770   2.916
  331SOL     OW 1014   1.209   0.525   2.137
  331SOL    HW1 1015   1.222   0.441   2.191
  331SOL    HW2 1016   1.180   0.599   2.197
  332SOL     OW 1017   0.307   0.213   3.093
  332SOL    HW1 1018   0.284   0.250   3.183
  332SOL    HW2 1019   0.277   0.118   3.087
  333SOL     OW 1020   0.037   1.310   3.144
  333SOL    HW1 1021   0.090   1.261   3.212
  333SOL    HW2 1022   0.059   1.408   3.149
  334SOL     OW 1023   0.732   0.634   2.926
  334SOL    HW1 1024   0.791   0.608   2.850
  334SOL    HW2 1025   0.704   0.730   2.915
  335SOL     OW 1026   1.728   0.935   3.716
  335SOL    HW1 1027   1.682   0.928   3.627
  335SOL    HW2 1028   1.666   0.979   3.782
  336SOL     OW 1029   0.307   0.063   2.480
  336SOL    HW1 1030   0.296   0.157   2.513
  336SOL    HW2 1031   0.302   0.000   2.557
  337SOL     OW 1032   1.622   0.367   2.236
  337SOL    HW1 1033   1.624   0.291   2.300
  337SOL    HW2 1034   1.574   0.444   2.276
  338SOL     OW 1035   1.023   0.766   2.828
  338SOL    HW1 1036   1.038   0.787   2.924
  338SOL    HW2 1037   0.993   0.671   2.819
  339SOL     OW 1038   0.980   1.573   3.562
  339SOL    HW1 1039   0.960   1.617   3.474
  339SOL    HW2 1040   1.019   1.482   3.546
  340SOL     OW 1041   1.859   1.518   3.467
  340SOL    HW1 1042   1.873   1.545   3.372
  340SOL    HW2 1043   1.942   1.540   3.520
  341SOL     OW 1044   0.350   0.898   3.666
  341SOL    HW1 1045   0.426   0.942   3.714
  341SOL    HW2 1046   0.385   0.851   3.584
  342SOL     OW 1047   1.540   0.274   1.987
  342SOL    HW1 1048   1.479   0.199   2.010
  342SOL    HW2 1049   1.562   0.326   2.070
  343SOL     OW 1050   1.303   0.838   1.904
  343SOL    HW1 1051   1.337   0.745   1.919
  343SOL    HW2 1052   1.321   0.865   1.809
  344SOL     OW 1053   1.068   1.333   2.711
  344SOL    HW1 1054   1.075   1.249   2.656
  344SOL    HW2 1055   1.130   1.402   2.675
  345SOL     OW 1056   0.319   0.810   2.811
  345SOL    HW1 1057   0.412   0.846   2.816
  345SOL    HW2 1058   0.313   0.725   2.863
  346SOL     OW 1059   0.339   0.509   2.868
  346SOL    HW1 1060   0.287   0.426   2.851
  346SOL    HW2 1061   0.416   0.514   2.804
  347SOL     OW 1062   1.138   0.380   3.540
  347SOL    HW1 1063   1.093   0.443   3.604
  347SOL    HW2 1064   1.231   0.411   3.523
  348SOL     OW 1065   1.160   0.207   3.339
  348SOL    HW1 1066   1.160   0.271   3.416
  348SOL    HW2 1067   1.188   0.255   3.256
  349SOL     OW 1068   0.008   1.326   2.062
  349SOL    HW1 1069  -0.085   1.347   2.031
  349SOL    HW2 1070   0.018   1.227   2.075
  350SOL     OW 1071   0.088   1.801   2.789
  350SOL    HW1 1072   0.046   1.715   2.762
  350SOL    HW2 1073   0.182   1.804   2.755
  351SOL     OW 1074   0.504   1.568   2.772
  351SOL    HW1 1075   0.570   1.642   2.781
  351SOL    HW2 1076   0.548   1.489   2.730
  352SOL     OW 1077   1.002   0.796   3.100
  352SOL    HW1 1078   1.043   0.764   3.186
  352SOL    HW2 1079   0.906   0.769   3.097
  353SOL     OW 1080   0.040   0.544   2.976
  353SOL    HW1 1081   0.125   0.511   2.935
  353SOL    HW2 1082   0.053   0.559   3.074
  354SOL     OW 1083   0.189   0.520   3.584
  354SOL    HW1 1084   0.248   0.480   3.514
  354SOL    HW2 1085   0.131   0.591   3.543
  355SOL     OW 1086   1.369   0.950   3.522
  355SOL    HW1 1087   1.408   1.039   3.542
  355SOL    HW2 1088   1.379   0.930   3.425
  356SOL     OW 1089   0.815   0.572   2.187
  356SOL    HW1 1090   0.822   0.483   2.141
  356SOL    HW2 1091   0.721   0.606   2.179
  357SOL     OW 1092   1.657   0.604   3.068
  357SOL    HW1 1093   1.619   0.535   3.130
  357SOL    HW2 1094   1.739   0.568   3.024
  358SOL     OW 1095   0.252   1.564   3.606
  358SOL    HW1 1096   0.222   1.621   3.682
  358SOL    HW2 1097   0.245   1.467   3.632
  359SOL     OW 1098   0.671   0.464   3.131
  359SOL    HW1 1099   0.637   0.375   3.101
  359SOL    HW2 1100   0.697   0.518   3.051
  360SOL     OW 1101   0.930   1.678   3.327
  360SOL    HW1 1102   0.906   1.660   3.232
  360SOL    HW2 1103   0.960   1.772   3.337
  361SOL     OW 1104   0.473   0.500   2.053
  361SOL    HW1 1105   0.534   0.580   2.057
  361SOL    HW2 1106   0.378   0.531   2.060
  362SOL     OW 1107   0.159   1.137   3.328
  362SOL    HW1 1108   0.181   1.076   3.404
  362SOL    HW2 1109   0.169   1.088   3.242
  363SOL     OW 1110   1.347   1.059   3.096
  363SOL    HW1 1111   1.371   0.996   3.022
  363SOL    HW2 1112   1.257   1.099   3.078
  364SOL     OW 1113   1.302   0.855   2.171
  364SOL    HW1 1114   1.216   0.824   2.213
  364SOL    HW2 1115   1.298   0.841   2.072
  365SOL     OW 1116   1.759   1.747   3.016
  365SOL    HW1 1117   1.820   1.777   2.943
  365SOL    HW2 1118   1.721   1.658   2.994
  366SOL     OW 1119   1.252   1.731   2.990
  366SOL    HW1 1120   1.336   1.736   2.936
  366SOL    HW2 1121   1.229   1.635   3.008
  367SOL     OW 1122   0.083   1.258   2.884
  367SOL    HW1 1123   0.078   1.257   2.984
  367SOL    HW2 1124   0.000   1.217   2.846
  368SOL     OW 1125   0.688   1.662   3.578
  368SOL    HW1 1126   0.632   1.743   3.587
  368SOL    HW2 1127   0.740   1.666   3.492
  369SOL     OW 1128   1.726   0.135   2.385
  369SOL    HW1 1129   1.799   0.118   2.318
  369SOL    HW2 1130   1.695   0.048   2.423
  370SOL     OW 1131   1.388   1.573   2.339
  370SOL    HW1 1132   1.455   1.585   2.265
  370SOL    HW2 1133   1.348   1.662   2.362
  371SOL     OW 1134   0.130   1.794   3.713
  371SOL    HW1 1135   0.089   1.720   3.766
  371SOL    HW2 1136   0.194   1.845   3.771
  372SOL     OW 1137   1.280   0.927   2.534
  372SOL    HW1 1138   1.340   0.846   2.536
  372SOL    HW2 1139   1.320   0.996   2.474
  373SOL     OW 1140   0.830   1.273   3.284
  373SOL    HW1 1141   0.825   1.306   3.379
  373SOL    HW2 1142   0.744   1.292   3.238
  374SOL     OW 1143   0.672   1.616   2.016
  374SOL    HW1 1144   0.681   1.626   1.917
  374SOL    HW2 1145   0.632   1.527   2.037
  375SOL     OW 1146   1.650   1.720   3.256
  375SOL    HW1 1147   1.703   1.730   3.172
  375SOL    HW2 1148   1.623   1.810   3.290
  376SOL     OW 1149   1.841   0.175   2.825
  376SOL    HW1 1150   1.880   0.090   2.789
  376SOL    HW2 1151   1.743   0.177   2.806
  377SOL     OW 1152   0.263   0.326   2.582
  377SOL    HW1 1153   0.184   0.377   2.548
  377SOL    HW2 1154   0.254   0.311   2.680
  378SOL     OW 1155   1.194   1.612   1.893
  378SOL    HW1 1156   1.200   1.519   1.930
  378SOL    HW2 1157   1.135   1.612   1.813
  379SOL     OW 1158   0.822   1.002   3.234
  379SOL    HW1 1159   0.862   1.001   3.142
  379SOL    HW2 1160   0.832   1.094   3.274
  380SOL     OW 1161   0.916   0.910   2.153
  380SOL    HW1 1162   0.979   0.948   2.085
  380SOL    HW2 1163   0.956   0.827   2.192
  381SOL     OW 1164   1.504   1.607   1.906
  381SOL    HW1 1165   1.412   1.644   1.913
  381SOL    HW2 1166   1.542   1.627   1.816
  382SOL     OW 1167   0.372   1.288   3.352
  382SOL    HW1 1168   0.359   1.381   3.318
  382SOL    HW2 1169   0.288   1.236   3.339
  383SOL     OW 1170   1.614   1.292   3.151
  383SOL    HW1 1171   1.674   1.295   3.231
  383SOL    HW2 1172   1.539   1.356   3.164
  384SOL     OW 1173   1.039   1.098   2.558
  384SOL    HW1 1174   0.969   1.051   2.612
  384SOL    HW2 1175   1.098   1.030   2.515
  385SOL     OW 1176   1.014   0.236   2.833
  385SOL    HW1 1177   1.006   0.200   2.740
  385SOL    HW2 1178   1.012   0.160   2.898
  386SOL     OW 1179   0.590   1.487   2.353
  386SOL    HW1 1180   0.632   1.429   2.283
  386SOL    HW2 1181   0.546   1.566   2.309
  387SOL     OW 1182   1.709   0.385   3.243
  387SOL    HW1 1183   1.782   0.454   3.247
  387SOL    HW2 1184   1.737   0.310   3.184
  388SOL     OW 1185   0.255   1.348   2.152
  388SOL    HW1 1186   0.159   1.349   2.125
  388SOL    HW2 1187   0.267   1.401   2.236
  389SOL     OW 1188   0.105   1.013   3.588
  389SOL    HW1 1189   0.028   0.980   3.642
  389SOL    HW2 1190   0.190   0.983   3.630
  390SOL     OW 1191   0.672   0.203   3.351
  390SOL    HW1 1192   0.762   0.187   3.311
  390SOL    HW2 1193   0.680   0.208   3.450
  391SOL     OW 1194   0.075   0.345   1.895
  391SOL    HW1 1195  -0.017   0.317   1.866
  391SOL    HW2 1196   0.106   0.422   1.839
  392SOL     OW 1197   1.440   0.856   3.260
  392SOL    HW1 1198   1.383   0.908   3.197
  392SOL    HW2 1199   1.536   0.868   3.236
  393SOL     OW 1200   0.072   0.166   2.180
  393SOL    HW1 1201   0.055   0.249   2.126
  393SOL    HW2 1202   0.162   0.129   2.158
  394SOL     OW 1203   1.183   1.335   1.981
  394SOL    HW1 1204   1.084   1.324   1.983
  394SOL    HW2 1205   1.217   1.350   2.074
  395SOL     OW 1206   0.613   0.842   3.293
  395SOL    HW1 1207   0.669   0.923   3.276
  395SOL    HW2 1208   0.672   0.762   3.296
  396SOL     OW 1209   1.493   1.767   2.821
  396SOL    HW1 1210   1.526   1.831   2.752
  396SOL    HW2 1211   1.559   1.761   2.896
  397SOL     OW 1212   0.716   0.565   3.570
  397SOL    HW1 1213   0.735   0.630   3.644
  397SOL    HW2 1214   0.776   0.485   3.579
  398SOL     OW 1215   1.450   1.220   3.495
  398SOL    HW1 1216   1.441   1.210   3.594
  398SOL    HW2 1217   1.546   1.213   3.469
  399SOL     OW 1218   0.390   1.741   3.422
  399SOL    HW1 1219   0.299   1.782   3.420
  399SOL    HW2 1220   0.383   1.647   3.454
  400SOL     OW 1221   1.674   0.883   3.116
  400SOL    HW1 1222   1.647   0.794   3.079
  400SOL    HW2 1223   1.675   0.951   3.043
  401SOL     OW 1224   1.225   0.325   2.311
  401SOL    HW1 1225   1.290   0.251   2.300
  401SOL    HW2 1226   1.245   0.375   2.395
  402SOL     OW 1227   0.594   0.745   2.514
  402SOL    HW1 1228   0.644   0.830   2.495
  402SOL    HW2 1229   0.506   0.747   2.466
  403SOL     OW 1230   1.777   0.342   3.504
  403SOL    HW1 1231   1.760   0.373   3.410
  403SOL    HW2 1232   1.693   0.305   3.542
  404SOL     OW 1233   1.730   0.934   3.379
  404SOL    HW1 1234   1.768   1.025   3.394
  404SOL    HW2 1235   1.722   0.917   3.280
  405SOL     OW 1236   0.859   1.374   1.878
  405SOL    HW1 1237   0.813   1.389   1.966
  405SOL    HW2 1238   0.903   1.459   1.848
  406SOL     OW 1239   0.661   1.790   2.815
  406SOL    HW1 1240   0.615   1.878   2.802
  406SOL    HW2 1241   0.760   1.802   2.808
  407SOL     OW 1242   0.859   0.956   2.723
  407SOL    HW1 1243   0.913   0.887   2.771
  407SOL    HW2 1244   0.827   1.025   2.789
  408SOL     OW 1245   1.083   0.984   1.949
  408SOL    HW1 1246   1.060   1.037   1.867
  408SOL    HW2 1247   1.164   0.928   1.930
  409SOL     OW 1248   1.861   1.569   2.713
  409SOL    HW1 1249   1.790   1.557   2.643
  409SOL    HW2 1250   1.862   1.490   2.773
  410SOL     OW 1251   0.221   1.314   3.706
  410SOL    HW1 1252   0.156   1.241   3.685
  410SOL    HW2 1253   0.225   1.328   3.804
  411SOL     OW 1254   0.079   1.240   2.515
  411SOL    HW1 1255   0.078   1.193   2.603
  411SOL    HW2 1256   0.161   1.212   2.464
  412SOL     OW 1257   0.672   1.391   3.486
  412SOL    HW1 1258   0.594   1.341   3.524
  412SOL    HW2 1259   0.669   1.486   3.517
  413SOL     OW 1260   1.824   0.192   3.089
  413SOL    HW1 1261   1.820   0.102   3.133
  413SOL    HW2 1262   1.827   0.181   2.990
  414SOL     OW 1263   0.428   0.424   2.382
  414SOL    HW1 1264   0.458   0.352   2.320
  414SOL    HW2 1265   0.389   0.384   2.465
  415SOL     OW 1266   1.705   1.487   2.966
  415SOL    HW1 1267   1.612   1.462   2.939
  415SOL    HW2 1268   1.731   1.437   3.048
  416SOL     OW 1269   0.317   0.547   3.142
  416SOL    HW1 1270   0.355   0.488   3.214
  416SOL    HW2 1271   0.357   0.521   3.054
  417SOL     OW 1272   0.812   1.586   2.549
  417SOL    HW1 1273   0.844   1.596   2.455
  417SOL    HW2 1274   0.733   1.524   2.551
  418SOL     OW 1275   1.424   0.214   2.974
  418SOL    HW1 1276   1.476   0.149   3.029
  418SOL    HW2 1277   1.375   0.277   3.035
  419SOL     OW 1278   1.001   0.034   3.016
  419SOL    HW1 1279   0.938  -0.038   2.985
  419SOL    HW2 1280   1.094  -0.002   3.016
  420SOL     OW 1281   0.770   1.330   2.163
  420SOL    HW1 1282   0.724   1.243   2.180
  420SOL    HW2 1283   0.861   1.327   2.204
  421SOL     OW 1284   0.618   1.567   3.146
  421SOL    HW1 1285   0.613   1.649   3.203
  421SOL    HW2 1286   0.707   1.564   3.101
  422SOL     OW 1287   1.352   0.052   2.030
  422SOL    HW1 1288   1.387   0.011   1.946
  422SOL    HW2 1289   1.262   0.014   2.050
  423SOL     OW 1290   1.300   0.453   2.553
  423SOL    HW1 1291   1.241   0.533   2.557
  423SOL    HW2 1292   1.315   0.418   2.646
  424SOL     OW 1293   1.593   0.221   2.744
  424SOL    HW1 1294   1.509   0.220   2.798
  424SOL    HW2 1295   1.595   0.304   2.688
  425SOL     OW 1296   0.039   1.077   2.162
  425SOL    HW1 1297   0.138   1.066   2.153
  425SOL    HW2 1298  -0.001   0.991   2.194
  426SOL     OW 1299   0.875   1.646   2.199
  426SOL    HW1 1300   0.798   1.611   2.145
  426SOL    HW2 1301   0.843   1.717   2.261
  427SOL     OW 1302   0.230   0.628   3.837
  427SOL    HW1 1303   0.137   0.626   3.874
  427SOL    HW2 1304   0.231   0.589   3.745
  428SOL     OW 1305   0.225   0.275   4.720
  428SOL    HW1 1306   0.260   0.258   4.812
  428SOL    HW2 1307   0.137   0.230   4.708
  429SOL     OW 1308   0.019   0.368   4.371
  429SOL    HW1 1309  -0.063   0.411   4.410
  429SOL    HW2 1310  -0.009   0.295   4.308
  430SOL     OW 1311   0.569   1.275   4.889
  430SOL    HW1 1312   0.476   1.268   4.852
  430SOL    HW2 1313   0.580   1.364   4.933
  431SOL     OW 1314   1.555   1.511   4.427
  431SOL    HW1 1315   1.498   1.495   4.508
  431SOL    HW2 1316   1.496   1.521   4.347
  432SOL     OW 1317   1.135   0.703   4.441
  432SOL    HW1 1318   1.192   0.781   4.416
  432SOL    HW2 1319   1.075   0.729   4.517
  433SOL     OW 1320   1.755   0.607   3.955
  433SOL    HW1 1321   1.743   0.594   3.856
  433SOL    HW2 1322   1.725   0.526   4.004
  434SOL     OW 1323   0.768   1.144   4.747
  434SOL    HW1 1324   0.690   1.161   4.807
  434SOL    HW2 1325   0.802   1.231   4.711
  435SOL     OW 1326   0.685   1.012   4.389
  435SOL    HW1 1327   0.754   0.996   4.459
  435SOL    HW2 1328   0.612   1.069   4.427
  436SOL     OW 1329   0.335   1.435   4.785
  436SOL    HW1 1330   0.257   1.404   4.732
  436SOL    HW2 1331   0.393   1.493   4.728
  437SOL     OW 1332   1.603   0.447   4.461
  437SOL    HW1 1333   1.529   0.493   4.411
  437SOL    HW2 1334   1.654   0.515   4.514
  438SOL     OW 1335   0.231   1.713   4.207
  438SOL    HW1 1336   0.265   1.790   4.261
  438SOL    HW2 1337   0.275   1.713   4.117
  439SOL     OW 1338   0.230   1.434   4.262
  439SOL    HW1 1339   0.204   1.530   4.262
  439SOL    HW2 1340   0.159   1.380   4.307
  440SOL     OW 1341   0.240   1.091   4.610
  440SOL    HW1 1342   0.254   1.007   4.662
  440SOL    HW2 1343   0.185   1.155   4.665
  441SOL     OW 1344   0.620   1.786   5.163
  441SOL    HW1 1345   0.528   1.769   5.198
  441SOL    HW2 1346   0.648   1.878   5.189
  442SOL     OW 1347   0.606   0.964   3.847
  442SOL    HW1 1348   0.613   1.048   3.793
  442SOL    HW2 1349   0.652   0.977   3.935
  443SOL     OW 1350   0.122   0.643   4.287
  443SOL    HW1 1351   0.077   0.555   4.304
  443SOL    HW2 1352   0.121   0.697   4.371
  444SOL     OW 1353   1.842   1.767   4.083
  444SOL    HW1 1354   1.896   1.738   4.163
  444SOL    HW2 1355   1.872   1.857   4.054
  445SOL     OW 1356   0.027   1.596   3.841
  445SOL    HW1 1357   0.008   1.500   3.862
  445SOL    HW2 1358  -0.006   1.654   3.916
  446SOL     OW 1359   1.689   0.922   4.336
  446SOL    HW1 1360   1.784   0.893   4.344
  446SOL    HW2 1361   1.681   0.987   4.261
  447SOL     OW 1362   1.641   1.108   4.156
  447SOL    HW1 1363   1.727   1.110   4.104
  447SOL    HW2 1364   1.655   1.155   4.244
  448SOL     OW 1365   0.613   1.365   4.450
  448SOL    HW1 1366   0.564   1.278   4.459
  448SOL    HW2 1367   0.590   1.408   4.363
  449SOL     OW 1368   0.809   0.004   4.226
  449SOL    HW1 1369   0.849   0.095   4.217
  449SOL    HW2 1370   0.709   0.012   4.232
  450SOL     OW 1371   0.197   0.976   4.988
  450SOL    HW1 1372   0.286   0.931   4.974
  450SOL    HW2 1373   0.124   0.911   4.969
  451SOL     OW 1374   1.525   0.999   3.914
  451SOL    HW1 1375   1.462   0.923   3.927
  451SOL    HW2 1376   1.573   1.017   4.000
  452SOL     OW 1377   1.466   1.417   4.677
  452SOL    HW1 1378   1.407   1.423   4.757
  452SOL    HW2 1379   1.451   1.329   4.631
  453SOL     OW 1380   1.667   1.714   4.296
  453SOL    HW1 1381   1.626   1.691   4.208
  453SOL    HW2 1382   1.649   1.640   4.361
  454SOL     OW 1383   0.598   0.729   3.994
  454SOL    HW1 1384   0.622   0.798   3.926
  454SOL    HW2 1385   0.520   0.762   4.048
  455SOL     OW 1386   1.281   0.345   4.668
  455SOL    HW1 1387   1.195   0.295   4.655
  455SOL    HW2 1388   1.343   0.291   4.724
  456SOL     OW 1389   1.576   1.662   4.031
  456SOL    HW1 1390   1.665   1.708   4.034
  456SOL    HW2 1391   1.555   1.638   3.936
  457SOL     OW 1392   0.807   0.605   5.189
  457SOL    HW1 1393   0.760   0.602   5.278
  457SOL    HW2 1394   0.756   0.550   5.123
  458SOL     OW 1395   0.991   0.410   4.966
  458SOL    HW1 1396   0.914   0.444   5.020
  458SOL    HW2 1397   0.957   0.359   4.887
  459SOL     OW 1398   1.041   0.701   4.153
  459SOL    HW1 1399   1.067   0.697   4.249
  459SOL    HW2 1400   0.956   0.650   4.139
  460SOL     OW 1401   0.076   0.811   4.513
  460SOL    HW1 1402   0.175   0.799   4.522
  460SOL    HW2 1403   0.052   0.906   4.534
  461SOL     OW 1404   0.130   1.821   5.295
  461SOL    HW1 1405   0.120   1.806   5.394
  461SOL    HW2 1406   0.044   1.857   5.259
  462SOL     OW 1407   0.865   0.348   3.919
  462SOL    HW1 1408   0.924   0.411   3.870
  462SOL    HW2 1409   0.884   0.254   3.890
  463SOL     OW 1410   1.362   1.144   4.269
  463SOL    HW1 1411   1.445   1.115   4.221
  463SOL    HW2 1412   1.313   1.211   4.213
  464SOL     OW 1413   0.550   0.196   4.609
  464SOL    HW1 1414   0.545   0.191   4.709
  464SOL    HW2 1415   0.552   0.292   4.580
  465SOL     OW 1416   1.008   1.456   4.201
  465SOL    HW1 1417   0.962   1.528   4.149
  465SOL    HW2 1418   1.004   1.476   4.299
  466SOL     OW 1419   0.351   1.801   4.577
  466SOL    HW1 1420   0.401   1.715   4.583
  466SOL    HW2 1421   0.416   1.878   4.574
  467SOL     OW 1422   1.795   1.066   4.597
  467SOL    HW1 1423   1.733   1.051   4.521
  467SOL    HW2 1424   1.743   1.077   4.682
  468SOL     OW 1425   0.321   0.943   3.966
  468SOL    HW1 1426   0.403   0.982   3.924
  468SOL    HW2 1427   0.294   0.861   3.917
  469SOL     OW 1428   1.458   0.735   4.452
  469SOL    HW1 1429   1.453   0.670   4.527
  469SOL    HW2 1430   1.538   0.794   4.465
  470SOL     OW 1431   1.111   1.776   3.961
  470SOL    HW1 1432   1.051   1.714   4.011
  470SOL    HW2 1433   1.142   1.732   3.876
  471SOL     OW 1434   1.632   1.377   3.805
  471SOL    HW1 1435   1.600   1.471   3.795
  471SOL    HW2 1436   1.556   1.314   3.793
  472SOL     OW 1437   0.464   1.743   4.047
  472SOL    HW1 1438   0.497   1.782   4.133
  472SOL    HW2 1439   0.540   1.736   3.982
  473SOL     OW 1440   1.400   0.107   4.150
  473SOL    HW1 1441   1.376   0.070   4.060
  473SOL    HW2 1442   1.499   0.123   4.154
  474SOL     OW 1443   0.249   1.785   4.965
  474SOL    HW1 1444   0.306   1.720   5.015
  474SOL    HW2 1445   0.233   1.752   4.872
  475SOL     OW 1446   0.940   1.698   4.628
  475SOL    HW1 1447   1.020   1.641   4.649
  475SOL    HW2 1448   0.891   1.658   4.551
  476SOL     OW 1449   0.382   0.700   4.204
  476SOL    HW1 1450   0.427   0.610   4.201
  476SOL    HW2 1451   0.288   0.689   4.237
  477SOL     OW 1452   0.614   0.122   3.841
  477SOL    HW1 1453   0.712   0.100   3.848
  477SOL    HW2 1454   0.583   0.105   3.748
  478SOL     OW 1455   0.888   1.514   4.919
  478SOL    HW1 1456   0.865   1.489   4.825
  478SOL    HW2 1457   0.949   1.445   4.958
  479SOL     OW 1458   0.803   1.402   4.648
  479SOL    HW1 1459   0.893   1.416   4.606
  479SOL    HW2 1460   0.732   1.404   4.577
  480SOL     OW 1461   0.922   0.503   4.623
  480SOL    HW1 1462   0.897   0.494   4.527
  480SOL    HW2 1463   0.970   0.421   4.654
  481SOL     OW 1464   0.539   0.064   4.236
  481SOL    HW1 1465   0.458   0.065   4.294
  481SOL    HW2 1466   0.542   0.147   4.181
  482SOL     OW 1467   1.434   1.188   3.765
  482SOL    HW1 1468   1.466   1.112   3.822
  482SOL    HW2 1469   1.342   1.215   3.795
  483SOL     OW 1470   0.297   0.035   3.895
  483SOL    HW1 1471   0.346   0.119   3.874
  483SOL    HW2 1472   0.359  -0.030   3.940
  484SOL     OW 1473   0.935   0.236   4.204
  484SOL    HW1 1474   0.887   0.277   4.126
  484SOL    HW2 1475   1.034   0.234   4.185
  485SOL     OW 1476   1.227   1.570   4.517
  485SOL    HW1 1477   1.248   1.644   4.452
  485SOL    HW2 1478   1.295   1.570   4.590
  486SOL     OW 1479   0.459   1.152   4.465
  486SOL    HW1 1480   0.388   1.125   4.530
  486SOL    HW2 1481   0.433   1.124   4.372
  487SOL     OW 1482   1.271   1.797   4.315
  487SOL    HW1 1483   1.315   1.861   4.251
  487SOL    HW2 1484   1.221   1.849   4.385
  488SOL     OW 1485   1.032   0.549   3.740
  488SOL    HW1 1486   0.991   0.631   3.701
  488SOL    HW2 1487   1.096   0.575   3.813
  489SOL     OW 1488   0.561   0.222   4.871
  489SOL    HW1 1489   0.599   0.138   4.908
  489SOL    HW2 1490   0.473   0.241   4.915
  490SOL     OW 1491   0.866   0.454   4.366
  490SOL    HW1 1492   0.834   0.526   4.304
  490SOL    HW2 1493   0.890   0.373   4.313
  491SOL     OW 1494   1.017   0.039   4.477
  491SOL    HW1 1495   0.945   0.044   4.408
  491SOL    HW2 1496   0.993  -0.030   4.546
  492SOL     OW 1497   1.429   1.173   4.591
  492SOL    HW1 1498   1.374   1.089   4.584
  492SOL    HW2 1499   1.455   1.202   4.499
  493SOL     OW 1500   1.466   0.590   4.716
  493SOL    HW1 1501   1.436   0.495   4.723
  493SOL    HW2 1502   1.539   0.606   4.782
  494SOL     OW 1503   1.857   0.833   4.101
  494SOL    HW1 1504   1.899   0.769   4.165
  494SOL    HW2 1505   1.819   0.782   4.023
  495SOL     OW 1506   0.488   1.385   3.898
  495SOL    HW1 1507   0.401   1.370   3.945
  495SOL    HW2 1508   0.471   1.411   3.803
  496SOL     OW 1509   1.664   1.280   4.381
  496SOL    HW1 1510   1.763   1.288   4.395
  496SOL    HW2 1511   1.619   1.364   4.412
  497SOL     OW 1512   1.390   0.575   3.802
  497SOL    HW1 1513   1.336   0.554   3.883
  497SOL    HW2 1514   1.481   0.534   3.811
  498SOL     OW 1515   0.527   0.256   4.052
  498SOL    HW1 1516   0.554   0.197   3.977
  498SOL    HW2 1517   0.527   0.351   4.021
  499SOL     OW 1518   1.754   1.223   5.312
  499SOL    HW1 1519   1.845   1.184   5.299
  499SOL    HW2 1520   1.762   1.319   5.336
  500SOL     OW 1521   1.111   1.195   4.824
  500SOL    HW1 1522   1.071   1.239   4.905
  500SOL    HW2 1523   1.070   1.232   4.741
  501SOL     OW 1524   1.638   1.099   4.803
  501SOL    HW1 1525   1.643   1.180   4.862
  501SOL    HW2 1526   1.552   1.101   4.752
  502SOL     OW 1527   0.705   1.050   4.092
  502SOL    HW1 1528   0.691   1.057   4.191
  502SOL    HW2 1529   0.789   0.999   4.074
  503SOL     OW 1530   0.410   0.813   4.975
  503SOL    HW1 1531   0.496   0.825   5.025
  503SOL    HW2 1532   0.368   0.726   5.002
  504SOL     OW 1533   1.274   0.386   4.986
  504SOL    HW1 1534   1.295   0.460   5.050
  504SOL    HW2 1535   1.185   0.403   4.943
  505SOL     OW 1536   0.064   1.564   5.055
  505SOL    HW1 1537   0.018   1.646   5.021
  505SOL    HW2 1538   0.162   1.583   5.064
  506SOL     OW 1539   0.367   1.100   4.225
  506SOL    HW1 1540   0.360   1.183   4.169
  506SOL    HW2 1541   0.371   1.020   4.165
  507SOL     OW 1542   0.566   0.537   4.589
  507SOL    HW1 1543   0.578   0.603   4.515
  507SOL    HW2 1544   0.612   0.571   4.672
  508SOL     OW 1545   1.252   1.348   4.112
  508SOL    HW1 1546   1.302   1.425   4.152
  508SOL    HW2 1547   1.157   1.350   4.144
  509SOL     OW 1548   1.272   1.445   4.866
  509SOL    HW1 1549   1.319   1.458   4.953
  509SOL    HW2 1550   1.206   1.371   4.875
  510SOL     OW 1551   1.582   0.639   4.196
  510SOL    HW1 1552   1.551   0.700   4.269
  510SOL    HW2 1553   1.632   0.691   4.127
  511SOL     OW 1554   0.354   1.510   5.053
  511SOL    HW1 1555   0.333   1.466   4.966
  511SOL    HW2 1556   0.451   1.536   5.056
  512SOL     OW 1557   0.573   0.870   4.753
  512SOL    HW1 1558   0.617   0.959   4.744
  512SOL    HW2 1559   0.510   0.870   4.830
  513SOL     OW 1560   1.360   0.862   4.769
  513SOL    HW1 1561   1.285   0.862   4.703
  513SOL    HW2 1562   1.397   0.770   4.778
  514SOL     OW 1563   1.209   0.525   3.999
  514SOL    HW1 1564   1.222   0.441   4.053
  514SOL    HW2 1565   1.180   0.599   4.059
  515SOL     OW 1566   0.307   0.213   4.955
  515SOL    HW1 1567   0.284   0.250   5.045
  515SOL    HW2 1568   0.277   0.118   4.949
  516SOL     OW 1569   0.037   1.310   5.006
  516SOL    HW1 1570   0.090   1.261   5.074
  516SOL    HW2 1571   0.059   1.408   5.011
  517SOL     OW 1572   0.732   0.634   4.788
  517SOL    HW1 1573   0.791   0.608   4.712
  517SOL    HW2 1574   0.704   0.730   4.777
  518SOL     OW 1575   0.307   0.063   4.342
  518SOL    HW1 1576   0.296   0.157   4.375
  518SOL    HW2 1577   0.302   0.000   4.419
  519SOL     OW 1578   1.622   0.367   4.098
  519SOL    HW1 1579   1.624   0.291   4.162
  519SOL    HW2 1580   1.574   0.444   4.138
  520SOL     OW 1581   1.023   0.766   4.690
  520SOL    HW1 1582   1.038   0.787   4.786
  520SOL    HW2 1583   0.993   0.671   4.681
  521SOL     OW 1584   1.540   0.274   3.849
  521SOL    HW1 1585   1.479   0.199   3.872
  521SOL    HW2 1586   1.562   0.326   3.932
  522SOL     OW 1587   1.303   0.838   3.766
  522SOL    HW1 1588   1.337   0.745   3.781
  522SOL    HW2 1589   1.321   0.865   3.671
  523SOL     OW 1590   1.068   1.333   4.573
  523SOL    HW1 1591   1.075   1.249   4.518
  523SOL    HW2 1592   1.130   1.402   4.537
  524SOL     OW 1593   0.319   0.810   4.673
  524SOL    HW1 1594   0.412   0.846   4.678
  524SOL    HW2 1595   0.313   0.725   4.725
  525SOL     OW 1596   0.339   0.509   4.730
  525SOL    HW1 1597   0.287   0.426   4.713
  525SOL    HW2 1598   0.416   0.514   4.666
  526SOL     OW 1599   1.160   0.207   5.201
  526SOL    HW1 1600   1.160   0.271   5.278
  526SOL    HW2 1601   1.188   0.255   5.118
  527SOL     OW 1602   0.008   1.326   3.924
  527SOL    HW1 1603  -0.085   1.347   3.893
  527SOL    HW2 1604   0.018   1.227   3.937
  528SOL     OW 1605   0.088   1.801   4.651
  528SOL    HW1 1606   0.046   1.715   4.624
  528SOL    HW2 1607   0.182   1.804   4.617
  529SOL     OW 1608   0.504   1.568   4.634
  529SOL    HW1 1609   0.570   1.642   4.643
  529SOL    HW2 1610   0.548   1.489   4.592
  530SOL     OW 1611   1.002   0.796   4.962
  530SOL    HW1 1612   1.043   0.764   5.048
  530SOL    HW2 1613   0.906   0.769   4.959
  531SOL     OW 1614   0.040   0.544   4.838
  531SOL    HW1 1615   0.125   0.511   4.797
  531SOL    HW2 1616   0.053   0.559   4.936
  532SOL     OW 1617   0.815   0.572   4.049
  532SOL    HW1 1618   0.822   0.483   4.003
  532SOL    HW2 1619   0.721   0.606   4.041
  533SOL     OW 1620   1.657   0.604   4.930
  533SOL    HW1 1621   1.619   0.535   4.992
  533SOL    HW2 1622   1.739   0.568   4.886
  534SOL     OW 1623   0.671   0.464   4.993
  534SOL    HW1 1624   0.637   0.375   4.963
  534SOL    HW2 1625   0.697   0.518   4.913
  535SOL     OW 1626   0.930   1.678   5.189
  535SOL    HW1 1627   0.906   1.660   5.094
  535SOL    HW2 1628   0.960   1.772   5.199
  536SOL     OW 1629   0.473   0.500   3.915
  536SOL    HW1 1630   0.534   0.580   3.919
  536SOL    HW2 1631   0.378   0.531   3.922
  537SOL     OW 1632   0.159   1.137   5.190
  537SOL    HW1 1633   0.181   1.076   5.266
  537SOL    HW2 1634   0.169   1.088   5.104
  538SOL     OW 1635   1.347   1.059   4.958
  538SOL    HW1 1636   1.371   0.996   4.884
  538SOL    HW2 1637   1.257   1.099   4.940
  539SOL     OW 1638   1.302   0.855   4.033
  539SOL    HW1 1639   1.216   0.824   4.075
  539SOL    HW2 1640   1.298   0.841   3.934
  540SOL     OW 1641   1.759   1.747   4.878
  540SOL    HW1 1642   1.820   1.777   4.805
  540SOL    HW2 1643   1.721   1.658   4.856
  541SOL     OW 1644   1.252   1.731   4.852
  541SOL    HW1 1645   1.336   1.736   4.798
  541SOL    HW2 1646   1.229   1.635   4.870
  542SOL     OW 1647   0.083   1.258   4.746
  542SOL    HW1 1648   0.078   1.257   4.846
  542SOL    HW2 1649   0.000   1.217   4.708
  543SOL     OW 1650   1.726   0.135   4.247
  543SOL    HW1 1651   1.799   0.118   4.180
  543SOL    HW2 1652   1.695   0.048   4.285
  544SOL     OW 1653   1.388   1.573   4.201
  544SOL    HW1 1654   1.455   1.585   4.127
  544SOL    HW2 1655   1.348   1.662   4.224
  545SOL     OW 1656   1.280   0.927   4.396
  545SOL    HW1 1657   1.340   0.846   4.398
  545SOL    HW2 1658   1.320   0.996   4.336
  546SOL     OW 1659   0.672   1.616   3.878
  546SOL    HW1 1660   0.681   1.626   3.779
  546SOL    HW2 1661   0.632   1.527   3.899
  547SOL     OW 1662   1.841   0.175   4.687
  547SOL    HW1 1663   1.880   0.090   4.651
  547SOL    HW2 1664   1.743   0.177   4.668
  548SOL     OW 1665   0.263   0.326   4.444
  548SOL    HW1 1666   0.184   0.377   4.410
  548SOL    HW2 1667   0.254   0.311   4.542
  549SOL     OW 1668   1.194   1.612   3.755
  549SOL    HW1 1669   1.200   1.519   3.792
  549SOL    HW2 1670   1.135   1.612   3.675
  550SOL     OW 1671   0.822   1.002   5.096
  550SOL    HW1 1672   0.862   1.001   5.004
  550SOL    HW2 1673   0.832   1.094   5.136
  551SOL     OW 1674   0.916   0.910   4.015
  551SOL    HW1 1675   0.979   0.948   3.947
  551SOL    HW2 1676   0.956   0.827   4.054
  552SOL     OW 1677   1.504   1.607   3.768
  552SOL    HW1 1678   1.412   1.644   3.775
  552SOL    HW2 1679   1.542   1.627   3.678
  553SOL     OW 1680   1.614   1.292   5.013
  553SOL    HW1 1681   1.674   1.295   5.093
  553SOL    HW2 1682   1.539   1.356   5.026
  554SOL     OW 1683   1.039   1.098   4.420
  554SOL    HW1 1684   0.969   1.051   4.474
  554SOL    HW2 1685   1.098   1.030   4.377
  555SOL     OW 1686   1.014   0.236   4.695
  555SOL    HW1 1687   1.006   0.200   4.602
  555SOL    HW2 1688   1.012   0.160   4.760
  556SOL     OW 1689   0.590   1.487   4.215
  556SOL    HW1 1690   0.632   1.429   4.145
  556SOL    HW2 1691   0.546   1.566   4.171
  557SOL     OW 1692   1.709   0.385   5.105
  557SOL    HW1 1693   1.782   0.454   5.109
  557SOL    HW2 1694   1.737   0.310   5.046
  558SOL     OW 1695   0.255   1.348   4.014
  558SOL    HW1 1696   0.159   1.349   3.987
  558SOL    HW2 1697   0.267   1.401   4.098
  559SOL     OW 1698   0.075   0.345   3.757
  559SOL    HW1 1699  -0.017   0.317   3.728
  559SOL    HW2 1700   0.106   0.422   3.701
  560SOL     OW 1701   0.072   0.166   4.042
  560SOL    HW1 1702   0.055   0.249   3.988
  560SOL    HW2 1703   0.162   0.129   4.020
  561SOL     OW 1704   1.183   1.335   3.843
  561SOL    HW1 1705   1.084   1.324   3.845
  561SOL    HW2 1706   1.217   1.350   3.936
  562SOL     OW 1707   0.613   0.842   5.155
  562SOL    HW1 1708   0.669   0.923   5.138
  562SOL    HW2 1709   0.672   0.762   5.158
  563SOL     OW 1710   1.493   1.767   4.683
  563SOL    HW1 1711   1.526   1.831   4.614
  563SOL    HW2 1712   1.559   1.761   4.758
  564SOL     OW 1713   0.390   1.741   5.284
  564SOL    HW1 1714   0.299   1.782   5.282
  564SOL    HW2 1715   0.383   1.647   5.316
  565SOL     OW 1716   1.674   0.883   4.978
  565SOL    HW1 1717   1.647   0.794   4.941
  565SOL    HW2 1718   1.675   0.951   4.905
  566SOL     OW 1719   1.225   0.325   4.173
  566SOL    HW1 1720   1.290   0.251   4.162
  566SOL    HW2 1721   1.245   0.375   4.257
  567SOL     OW 1722   0.594   0.745   4.376
  567SOL    HW1 1723   0.644   0.830   4.357
  567SOL    HW2 1724   0.506   0.747   4.328
  568SOL     OW 1725   1.777   0.342   5.366
  568SOL    HW1 1726   1.760   0.373   5.272
  568SOL    HW2 1727   1.693   0.305   5.404
  569SOL     OW 1728   1.730   0.934   5.241
  569SOL    HW1 1729   1.768   1.025   5.256
  569SOL    HW2 1730   1.722   0.917   5.142
  570SOL     OW 1731   0.859   1.374   3.740
  570SOL    HW1 1732   0.813   1.389   3.828
  570SOL    HW2 1733   0.903   1.459   3.710
  571SOL     OW 1734   0.661   1.790   4.677
  571SOL    HW1 1735   0.615   1.878   4.664
  571SOL    HW2 1736   0.760   1.802   4.670
  572SOL     OW 1737   0.859   0.956   4.585
  572SOL    HW1 1738   0.913   0.887   4.633
  572SOL    HW2 1739   0.827   1.025   4.651
  573SOL     OW 1740   1.083   0.984   3.811
  573SOL    HW1 1741   1.060   1.037   3.729
  573SOL    HW2 1742   1.164   0.928   3.792
  574SOL     OW 1743   1.861   1.569   4.575
  574SOL    HW1 1744   1.790   1.557   4.505
  574SOL    HW2 1745   1.862   1.490   4.635
  575SOL     OW 1746   0.079   1.240   4.377
  575SOL    HW1 1747   0.078   1.193   4.465
  575SOL    HW2 1748   0.161   1.212   4.326
  576SOL     OW 1749   1.824   0.192   4.951
  576SOL    HW1 1750   1.820   0.102   4.995
  576SOL    HW2 1751   1.827   0.181   4.852
  577SOL     OW 1752   0.428   0.424   4.244
  577SOL    HW1 1753   0.458   0.352   4.182
  577SOL    HW2 1754   0.389   0.384   4.327
  578SOL     OW 1755   1.705   1.487   4.828
  578SOL    HW1 1756   1.612   1.462   4.801
  578SOL    HW2 1757   1.731   1.437   4.910
  579SOL     OW 1758   0.317   0.547   5.004
  579SOL    HW1 1759   0.355   0.488   5.076
  579SOL    HW2 1760   0.357   0.521   4.916
  580SOL     OW 1761   0.812   1.586   4.411
  580SOL    HW1 1762   0.844   1.596   4.317
  580SOL    HW2 1763   0.733   1.524   4.413
  581SOL     OW 1764   1.424   0.214   4.836
  581SOL    HW1 1765   1.476   0.149   4.891
  581SOL    HW2 1766   1.375   0.277   4.897
  582SOL     OW 1767   1.001   0.034   4.878
  582SOL    HW1 1768   0.938  -0.038   4.847
  582SOL    HW2 1769   1.094  -0.002   4.878
  583SOL     OW 1770   0.770   1.330   4.025
  583SOL    HW1 1771   0.724   1.243   4.042
  583SOL    HW2 1772   0.861   1.327   4.066
  584SOL     OW 1773   0.618   1.567   5.008
  584SOL    HW1 1774   0.613   1.649   5.065
  584SOL    HW2 1775   0.707   1.564   4.963
  585SOL     OW 1776   1.352   0.052   3.892
  585SOL    HW1 1777   1.387   0.011   3.808
  585SOL    HW2 1778   1.262   0.014   3.912
  586SOL     OW 1779   1.300   0.453   4.415
  586SOL    HW1 1780   1.241   0.533   4.419
  586SOL    HW2 1781   1.315   0.418   4.508
  587SOL     OW 1782   1.593   0.221   4.606
  587SOL    HW1 1783   1.509   0.220   4.660
  587SOL    HW2 1784   1.595   0.304   4.550
  588SOL     OW 1785   0.039   1.077   4.024
  588SOL    HW1 1786   0.138   1.066   4.015
  588SOL    HW2 1787  -0.001   0.991   4.056
  589SOL     OW 1788   0.875   1.646   4.061
  589SOL    HW1 1789   0.798   1.611   4.007
  589SOL    HW2 1790   0.843   1.717   4.123
  590SOL     OW 1791   0.230   2.490   0.113
  590SOL    HW1 1792   0.137   2.488   0.150
  590SOL    HW2 1793   0.231   2.451   0.021
  591SOL     OW 1794   0.225   2.137   0.996
  591SOL    HW1 1795   0.260   2.120   1.088
  591SOL    HW2 1796   0.137   2.092   0.984
  592SOL     OW 1797   0.019   2.230   0.647
  592SOL    HW1 1798  -0.063   2.273   0.686
  592SOL    HW2 1799  -0.009   2.157   0.584
  593SOL     OW 1800   0.569   3.137   1.165
  593SOL    HW1 1801   0.476   3.130   1.128
  593SOL    HW2 1802   0.580   3.226   1.209
  594SOL     OW 1803   1.555   3.373   0.703
  594SOL    HW1 1804   1.498   3.357   0.784
  594SOL    HW2 1805   1.496   3.383   0.623
  595SOL     OW 1806   1.135   2.565   0.717
  595SOL    HW1 1807   1.192   2.643   0.692
  595SOL    HW2 1808   1.075   2.591   0.793
  596SOL     OW 1809   1.755   2.469   0.231
  596SOL    HW1 1810   1.743   2.456   0.132
  596SOL    HW2 1811   1.725   2.388   0.280
  597SOL     OW 1812   0.768   3.006   1.023
  597SOL    HW1 1813   0.690   3.023   1.083
  597SOL    HW2 1814   0.802   3.093   0.987
  598SOL     OW 1815   0.850   2.660   1.823
  598SOL    HW1 1816   0.846   2.736   1.888
  598SOL    HW2 1817   0.872   2.696   1.732
  599SOL     OW 1818   0.685   2.874   0.665
  599SOL    HW1 1819   0.754   2.858   0.735
  599SOL    HW2 1820   0.612   2.931   0.703
  600SOL     OW 1821   0.686   3.023   1.803
  600SOL    HW1 1822   0.746   3.102   1.817
  600SOL    HW2 1823   0.600   3.054   1.762
  601SOL     OW 1824   0.335   3.297   1.061
  601SOL    HW1 1825   0.257   3.266   1.008
  601SOL    HW2 1826   0.393   3.355   1.004
  602SOL     OW 1827   1.460   3.367   1.339
  602SOL    HW1 1828   1.484   3.461   1.365
  602SOL    HW2 1829   1.444   3.313   1.421
  603SOL     OW 1830   0.438   2.254   1.499
  603SOL    HW1 1831   0.520   2.198   1.508
  603SOL    HW2 1832   0.357   2.196   1.503
  604SOL     OW 1833   1.603   2.309   0.737
  604SOL    HW1 1834   1.529   2.355   0.687
  604SOL    HW2 1835   1.654   2.377   0.790
  605SOL     OW 1836   0.231   3.575   0.483
  605SOL    HW1 1837   0.265   3.652   0.537
  605SOL    HW2 1838   0.275   3.575   0.393
  606SOL     OW 1839   1.127   3.203   1.690
  606SOL    HW1 1840   1.174   3.203   1.778
  606SOL    HW2 1841   1.079   3.116   1.679
  607SOL     OW 1842   0.230   3.296   0.538
  607SOL    HW1 1843   0.204   3.392   0.538
  607SOL    HW2 1844   0.159   3.242   0.583
  608SOL     OW 1845   0.240   2.953   0.886
  608SOL    HW1 1846   0.254   2.869   0.938
  608SOL    HW2 1847   0.185   3.017   0.941
  609SOL     OW 1848   0.620   3.648   1.439
  609SOL    HW1 1849   0.528   3.631   1.474
  609SOL    HW2 1850   0.648   3.740   1.465
  610SOL     OW 1851   0.606   2.826   0.123
  610SOL    HW1 1852   0.613   2.910   0.069
  610SOL    HW2 1853   0.652   2.839   0.211
  611SOL     OW 1854   1.594   1.976   1.480
  611SOL    HW1 1855   1.576   2.043   1.408
  611SOL    HW2 1856   1.591   2.022   1.569
  612SOL     OW 1857   0.122   2.505   0.563
  612SOL    HW1 1858   0.077   2.417   0.580
  612SOL    HW2 1859   0.121   2.559   0.647
  613SOL     OW 1860   1.842   3.629   0.359
  613SOL    HW1 1861   1.896   3.600   0.439
  613SOL    HW2 1862   1.872   3.719   0.330
  614SOL     OW 1863   0.027   3.458   0.117
  614SOL    HW1 1864   0.008   3.362   0.138
  614SOL    HW2 1865  -0.006   3.516   0.192
  615SOL     OW 1866   1.689   2.784   0.612
  615SOL    HW1 1867   1.784   2.755   0.620
  615SOL    HW2 1868   1.681   2.849   0.537
  616SOL     OW 1869   1.641   2.970   0.432
  616SOL    HW1 1870   1.727   2.972   0.380
  616SOL    HW2 1871   1.655   3.017   0.520
  617SOL     OW 1872   0.113   2.599   1.597
  617SOL    HW1 1873   0.201   2.586   1.642
  617SOL    HW2 1874   0.100   2.696   1.575
  618SOL     OW 1875   0.613   3.227   0.726
  618SOL    HW1 1876   0.564   3.140   0.735
  618SOL    HW2 1877   0.590   3.270   0.639
  619SOL     OW 1878   1.293   3.090   1.423
  619SOL    HW1 1879   1.330   3.017   1.365
  619SOL    HW2 1880   1.345   3.095   1.508
  620SOL     OW 1881   0.809   1.866   0.502
  620SOL    HW1 1882   0.849   1.957   0.493
  620SOL    HW2 1883   0.709   1.874   0.508
  621SOL     OW 1884   0.197   2.838   1.264
  621SOL    HW1 1885   0.286   2.793   1.250
  621SOL    HW2 1886   0.124   2.773   1.245
  622SOL     OW 1887   1.525   2.861   0.190
  622SOL    HW1 1888   1.462   2.785   0.203
  622SOL    HW2 1889   1.573   2.879   0.276
  623SOL     OW 1890   1.187   3.654   1.616
  623SOL    HW1 1891   1.211   3.714   1.540
  623SOL    HW2 1892   1.194   3.559   1.586
  624SOL     OW 1893   0.317   2.113   1.801
  624SOL    HW1 1894   0.388   2.184   1.807
  624SOL    HW2 1895   0.229   2.152   1.829
  625SOL     OW 1896   1.466   3.279   0.953
  625SOL    HW1 1897   1.407   3.285   1.033
  625SOL    HW2 1898   1.451   3.191   0.907
  626SOL     OW 1899   1.667   3.576   0.572
  626SOL    HW1 1900   1.626   3.553   0.484
  626SOL    HW2 1901   1.649   3.502   0.637
  627SOL     OW 1902   0.598   2.591   0.270
  627SOL    HW1 1903   0.622   2.660   0.202
  627SOL    HW2 1904   0.520   2.624   0.324
  628SOL     OW 1905   1.281   2.207   0.944
  628SOL    HW1 1906   1.195   2.157   0.931
  628SOL    HW2 1907   1.343   2.153   1.000
  629SOL     OW 1908   1.576   3.524   0.307
  629SOL    HW1 1909   1.665   3.570   0.310
  629SOL    HW2 1910   1.555   3.500   0.212
  630SOL     OW 1911   0.807   2.467   1.465
  630SOL    HW1 1912   0.760   2.464   1.554
  630SOL    HW2 1913   0.756   2.412   1.399
  631SOL     OW 1914   1.394   2.331   1.674
  631SOL    HW1 1915   1.374   2.374   1.762
  631SOL    HW2 1916   1.472   2.269   1.683
  632SOL     OW 1917   0.973   2.752   1.572
  632SOL    HW1 1918   1.019   2.668   1.543
  632SOL    HW2 1919   0.917   2.786   1.497
  633SOL     OW 1920   0.991   2.272   1.242
  633SOL    HW1 1921   0.914   2.306   1.296
  633SOL    HW2 1922   0.957   2.221   1.163
  634SOL     OW 1923   1.041   2.563   0.429
  634SOL    HW1 1924   1.067   2.559   0.525
  634SOL    HW2 1925   0.956   2.512   0.415
  635SOL     OW 1926   0.076   2.673   0.789
  635SOL    HW1 1927   0.175   2.661   0.798
  635SOL    HW2 1928   0.052   2.768   0.810
  636SOL     OW 1929   0.130   3.683   1.571
  636SOL    HW1 1930   0.120   3.668   1.670
  636SOL    HW2 1931   0.044   3.719   1.535
  637SOL     OW 1932   0.865   2.210   0.195
  637SOL    HW1 1933   0.924   2.273   0.146
  637SOL    HW2 1934   0.884   2.116   0.166
  638SOL     OW 1935   1.719   2.447   1.831
  638SOL    HW1 1936   1.693   2.536   1.795
  638SOL    HW2 1937   1.717   2.379   1.758
  639SOL     OW 1938   1.362   3.006   0.545
  639SOL    HW1 1939   1.445   2.977   0.497
  639SOL    HW2 1940   1.313   3.073   0.489
  640SOL     OW 1941   0.550   2.058   0.885
  640SOL    HW1 1942   0.545   2.053   0.985
  640SOL    HW2 1943   0.552   2.154   0.856
  641SOL     OW 1944   1.008   3.318   0.477
  641SOL    HW1 1945   0.962   3.390   0.425
  641SOL    HW2 1946   1.004   3.338   0.575
  642SOL     OW 1947   0.351   3.663   0.853
  642SOL    HW1 1948   0.401   3.577   0.859
  642SOL    HW2 1949   0.416   3.740   0.850
  643SOL     OW 1950   1.795   2.928   0.873
  643SOL    HW1 1951   1.733   2.913   0.797
  643SOL    HW2 1952   1.743   2.939   0.958
  644SOL     OW 1953   1.227   3.412   1.506
  644SOL    HW1 1954   1.233   3.335   1.570
  644SOL    HW2 1955   1.175   3.386   1.426
  645SOL     OW 1956   0.321   2.805   0.242
  645SOL    HW1 1957   0.403   2.844   0.200
  645SOL    HW2 1958   0.294   2.723   0.193
  646SOL     OW 1959   1.458   2.597   0.728
  646SOL    HW1 1960   1.453   2.532   0.803
  646SOL    HW2 1961   1.538   2.656   0.741
  647SOL     OW 1962   0.461   3.128   1.727
  647SOL    HW1 1963   0.411   3.129   1.641
  647SOL    HW2 1964   0.398   3.110   1.803
  648SOL     OW 1965   1.111   3.638   0.237
  648SOL    HW1 1966   1.051   3.576   0.287
  648SOL    HW2 1967   1.142   3.594   0.152
  649SOL     OW 1968   0.202   2.147   1.498
  649SOL    HW1 1969   0.122   2.207   1.485
  649SOL    HW2 1970   0.192   2.098   1.584
  650SOL     OW 1971   1.632   3.239   0.081
  650SOL    HW1 1972   1.600   3.333   0.071
  650SOL    HW2 1973   1.556   3.176   0.069
  651SOL     OW 1974   0.464   3.605   0.323
  651SOL    HW1 1975   0.497   3.644   0.409
  651SOL    HW2 1976   0.540   3.598   0.258
  652SOL     OW 1977   1.400   1.969   0.426
  652SOL    HW1 1978   1.376   1.932   0.336
  652SOL    HW2 1979   1.499   1.985   0.430
  653SOL     OW 1980   0.249   3.647   1.241
  653SOL    HW1 1981   0.306   3.582   1.291
  653SOL    HW2 1982   0.233   3.614   1.148
  654SOL     OW 1983   0.940   3.560   0.904
  654SOL    HW1 1984   1.020   3.503   0.925
  654SOL    HW2 1985   0.891   3.520   0.827
  655SOL     OW 1986   0.382   2.562   0.480
  655SOL    HW1 1987   0.427   2.472   0.477
  655SOL    HW2 1988   0.288   2.551   0.513
  656SOL     OW 1989   1.547   2.084   1.729
  656SOL    HW1 1990   1.542   2.121   1.821
  656SOL    HW2 1991   1.475   2.015   1.717
  657SOL     OW 1992   0.781   2.126   1.749
  657SOL    HW1 1993   0.848   2.065   1.792
  657SOL    HW2 1994   0.708   2.145   1.814
  658SOL     OW 1995   0.888   3.376   1.195
  658SOL    HW1 1996   0.865   3.351   1.101
  658SOL    HW2 1997   0.949   3.307   1.234
  659SOL     OW 1998   1.351   2.452   1.433
  659SOL    HW1 1999   1.379   2.409   1.518
  659SOL    HW2 2000   1.376   2.548   1.434
  660SOL     OW 2001   0.803   3.264   0.924
  660SOL    HW1 2002   0.893   3.278   0.882
  660SOL    HW2 2003   0.732   3.266   0.853
  661SOL     OW 2004   0.922   2.365   0.899
  661SOL    HW1 2005   0.897   2.356   0.803
  661SOL    HW2 2006   0.970   2.283   0.930
  662SOL     OW 2007   0.539   1.926   0.512
  662SOL    HW1 2008   0.458   1.927   0.570
  662SOL    HW2 2009   0.542   2.009   0.457
  663SOL     OW 2010   1.434   3.050   0.041
  663SOL    HW1 2011   1.466   2.974   0.098
  663SOL    HW2 2012   1.342   3.077   0.071
  664SOL     OW 2013   0.935   2.098   0.480
  664SOL    HW1 2014   0.887   2.139   0.402
  664SOL    HW2 2015   1.034   2.096   0.461
  665SOL     OW 2016   1.076   2.545   1.464
  665SOL    HW1 2017   0.996   2.484   1.467
  665SOL    HW2 2018   1.157   2.492   1.440
  666SOL     OW 2019   1.227   3.432   0.793
  666SOL    HW1 2020   1.248   3.506   0.728
  666SOL    HW2 2021   1.295   3.432   0.866
  667SOL     OW 2022   0.459   3.014   0.741
  667SOL    HW1 2023   0.388   2.987   0.806
  667SOL    HW2 2024   0.433   2.986   0.648
  668SOL     OW 2025   1.271   3.659   0.591
  668SOL    HW1 2026   1.315   3.723   0.527
  668SOL    HW2 2027   1.221   3.711   0.661
  669SOL     OW 2028   1.032   2.411   0.016
  669SOL    HW1 2029   0.991   2.493  -0.023
  669SOL    HW2 2030   1.096   2.437   0.089
  670SOL     OW 2031   0.078   2.418   1.386
  670SOL    HW1 2032   0.170   2.417   1.345
  670SOL    HW2 2033   0.072   2.492   1.453
  671SOL     OW 2034   0.561   2.084   1.147
  671SOL    HW1 2035   0.599   2.000   1.184
  671SOL    HW2 2036   0.473   2.103   1.191
  672SOL     OW 2037   0.866   2.316   0.642
  672SOL    HW1 2038   0.834   2.388   0.580
  672SOL    HW2 2039   0.890   2.235   0.589
  673SOL     OW 2040   1.017   1.901   0.753
  673SOL    HW1 2041   0.945   1.906   0.684
  673SOL    HW2 2042   0.993   1.832   0.822
  674SOL     OW 2043   1.429   3.035   0.867
  674SOL    HW1 2044   1.374   2.951   0.860
  674SOL    HW2 2045   1.455   3.064   0.775
  675SOL     OW 2046   1.466   2.452   0.992
  675SOL    HW1 2047   1.436   2.357   0.999
  675SOL    HW2 2048   1.539   2.468   1.058
  676SOL     OW 2049   1.857   2.695   0.377
  676SOL    HW1 2050   1.899   2.631   0.441
  676SOL    HW2 2051   1.819   2.644   0.299
  677SOL     OW 2052   0.488   3.247   0.174
  677SOL    HW1 2053   0.401   3.232   0.221
  677SOL    HW2 2054   0.471   3.273   0.079
  678SOL     OW 2055   1.664   3.142   0.657
  678SOL    HW1 2056   1.763   3.150   0.671
  678SOL    HW2 2057   1.619   3.226   0.688
  679SOL     OW 2058   1.390   2.437   0.078
  679SOL    HW1 2059   1.336   2.416   0.159
  679SOL    HW2 2060   1.481   2.396   0.087
  680SOL     OW 2061   0.527   2.118   0.328
  680SOL    HW1 2062   0.554   2.059   0.253
  680SOL    HW2 2063   0.527   2.213   0.297
  681SOL     OW 2064   1.754   3.085   1.588
  681SOL    HW1 2065   1.845   3.046   1.575
  681SOL    HW2 2066   1.762   3.181   1.612
  682SOL     OW 2067   1.064   3.209   1.340
  682SOL    HW1 2068   0.984   3.186   1.395
  682SOL    HW2 2069   1.147   3.183   1.389
  683SOL     OW 2070   1.592   3.491   1.625
  683SOL    HW1 2071   1.619   3.525   1.535
  683SOL    HW2 2072   1.671   3.453   1.671
  684SOL     OW 2073   1.111   3.057   1.100
  684SOL    HW1 2074   1.071   3.101   1.181
  684SOL    HW2 2075   1.070   3.094   1.017
  685SOL     OW 2076   1.638   2.961   1.079
  685SOL    HW1 2077   1.643   3.042   1.138
  685SOL    HW2 2078   1.552   2.963   1.028
  686SOL     OW 2079   0.915   1.951   1.402
  686SOL    HW1 2080   0.940   1.931   1.307
  686SOL    HW2 2081   0.987   2.007   1.444
  687SOL     OW 2082   0.980   2.978   1.719
  687SOL    HW1 2083   0.881   2.984   1.729
  687SOL    HW2 2084   1.003   2.898   1.663
  688SOL     OW 2085   0.705   2.912   0.368
  688SOL    HW1 2086   0.691   2.919   0.467
  688SOL    HW2 2087   0.789   2.861   0.350
  689SOL     OW 2088   0.410   2.675   1.251
  689SOL    HW1 2089   0.496   2.687   1.301
  689SOL    HW2 2090   0.368   2.588   1.278
  690SOL     OW 2091   1.274   2.248   1.262
  690SOL    HW1 2092   1.295   2.322   1.326
  690SOL    HW2 2093   1.185   2.265   1.219
  691SOL     OW 2094   0.064   3.426   1.331
  691SOL    HW1 2095   0.018   3.508   1.297
  691SOL    HW2 2096   0.162   3.445   1.340
  692SOL     OW 2097   0.367   2.962   0.501
  692SOL    HW1 2098   0.360   3.045   0.445
  692SOL    HW2 2099   0.371   2.882   0.441
  693SOL     OW 2100   0.566   2.399   0.865
  693SOL    HW1 2101   0.578   2.465   0.791
  693SOL    HW2 2102   0.612   2.433   0.948
  694SOL     OW 2103   1.252   3.210   0.388
  694SOL    HW1 2104   1.302   3.287   0.428
  694SOL    HW2 2105   1.157   3.212   0.420
  695SOL     OW 2106   1.272   3.307   1.142
  695SOL    HW1 2107   1.319   3.320   1.229
  695SOL    HW2 2108   1.206   3.233   1.151
  696SOL     OW 2109   1.582   2.501   0.472
  696SOL    HW1 2110   1.551   2.562   0.545
  696SOL    HW2 2111   1.632   2.553   0.403
  697SOL     OW 2112   0.354   3.372   1.329
  697SOL    HW1 2113   0.333   3.328   1.242
  697SOL    HW2 2114   0.451   3.398   1.332
  698SOL     OW 2115   0.402   2.613   1.598
  698SOL    HW1 2116   0.470   2.668   1.551
  698SOL    HW2 2117   0.442   2.525   1.625
  699SOL     OW 2118   1.587   2.641   1.670
  699SOL    HW1 2119   1.495   2.679   1.665
  699SOL    HW2 2120   1.647   2.688   1.605
  700SOL     OW 2121   1.013   1.967   1.770
  700SOL    HW1 2122   1.019   2.052   1.718
  700SOL    HW2 2123   1.045   1.891   1.713
  701SOL     OW 2124   0.504   1.912   1.740
  701SOL    HW1 2125   0.462   1.855   1.670
  701SOL    HW2 2126   0.438   1.981   1.772
  702SOL     OW 2127   0.573   2.732   1.029
  702SOL    HW1 2128   0.617   2.821   1.020
  702SOL    HW2 2129   0.510   2.732   1.106
  703SOL     OW 2130   1.360   2.724   1.045
  703SOL    HW1 2131   1.285   2.724   0.979
  703SOL    HW2 2132   1.397   2.632   1.054
  704SOL     OW 2133   1.209   2.387   0.275
  704SOL    HW1 2134   1.222   2.303   0.329
  704SOL    HW2 2135   1.180   2.461   0.335
  705SOL     OW 2136   0.307   2.075   1.231
  705SOL    HW1 2137   0.284   2.112   1.321
  705SOL    HW2 2138   0.277   1.980   1.225
  706SOL     OW 2139   0.037   3.172   1.282
  706SOL    HW1 2140   0.090   3.123   1.350
  706SOL    HW2 2141   0.059   3.270   1.287
  707SOL     OW 2142   0.732   2.496   1.064
  707SOL    HW1 2143   0.791   2.470   0.988
  707SOL    HW2 2144   0.704   2.592   1.053
  708SOL     OW 2145   1.728   2.797   1.854
  708SOL    HW1 2146   1.682   2.790   1.765
  708SOL    HW2 2147   1.666   2.841   1.920
  709SOL     OW 2148   0.307   1.925   0.618
  709SOL    HW1 2149   0.296   2.019   0.651
  709SOL    HW2 2150   0.302   1.862   0.695
  710SOL     OW 2151   1.622   2.229   0.374
  710SOL    HW1 2152   1.624   2.153   0.438
  710SOL    HW2 2153   1.574   2.306   0.414
  711SOL     OW 2154   1.023   2.628   0.966
  711SOL    HW1 2155   1.038   2.649   1.062
  711SOL    HW2 2156   0.993   2.533   0.957
  712SOL     OW 2157   0.980   3.435   1.700
  712SOL    HW1 2158   0.960   3.479   1.612
  712SOL    HW2 2159   1.019   3.344   1.684
  713SOL     OW 2160   1.859   3.380   1.605
  713SOL    HW1 2161   1.873   3.407   1.510
  713SOL    HW2 2162   1.942   3.402   1.658
  714SOL     OW 2163   0.350   2.760   1.804
  714SOL    HW1 2164   0.426   2.804   1.852
  714SOL    HW2 2165   0.385   2.713   1.722
  715SOL     OW 2166   1.540   2.136   0.125
  715SOL    HW1 2167   1.479   2.061   0.148
  715SOL    HW2 2168   1.562   2.188   0.208
  716SOL     OW 2169   1.303   2.700   0.042
  716SOL    HW1 2170   1.337   2.607   0.057
  716SOL    HW2 2171   1.321   2.727  -0.053
  717SOL     OW 2172   1.068   3.195   0.849
  717SOL    HW1 2173   1.075   3.111   0.794
  717SOL    HW2 2174   1.130   3.264   0.813
  718SOL     OW 2175   0.319   2.672   0.949
  718SOL    HW1 2176   0.412   2.708   0.954
  718SOL    HW2 2177   0.313   2.587   1.001
  719SOL     OW 2178   0.339   2.371   1.006
  719SOL    HW1 2179   0.287   2.288   0.989
  719SOL    HW2 2180   0.416   2.376   0.942
  720SOL     OW 2181   1.138   2.242   1.678
  720SOL    HW1 2182   1.093   2.305   1.742
  720SOL    HW2 2183   1.231   2.273   1.661
  721SOL     OW 2184   1.160   2.069   1.477
  721SOL    HW1 2185   1.160   2.133   1.554
  721SOL    HW2 2186   1.188   2.117   1.394
  722SOL     OW 2187   0.008   3.188   0.200
  722SOL    HW1 2188  -0.085   3.209   0.169
  722SOL    HW2 2189   0.018   3.089   0.213
  723SOL     OW 2190   0.088   3.663   0.927
  723SOL    HW1 2191   0.046   3.577   0.900
  723SOL    HW2 2192   0.182   3.666   0.893
  724SOL     OW 2193   0.504   3.430   0.910
  724SOL    HW1 2194   0.570   3.504   0.919
  724SOL    HW2 2195   0.548   3.351   0.868
  725SOL     OW 2196   1.002   2.658   1.238
  725SOL    HW1 2197   1.043   2.626   1.324
  725SOL    HW2 2198   0.906   2.631   1.235
  726SOL     OW 2199   0.040   2.406   1.114
  726SOL    HW1 2200   0.125   2.373   1.073
  726SOL    HW2 2201   0.053   2.421   1.212
  727SOL     OW 2202   0.189   2.382   1.722
  727SOL    HW1 2203   0.248   2.342   1.652
  727SOL    HW2 2204   0.131   2.453   1.681
  728SOL     OW 2205   1.369   2.812   1.660
  728SOL    HW1 2206   1.408   2.901   1.680
  728SOL    HW2 2207   1.379   2.792   1.563
  729SOL     OW 2208   0.815   2.434   0.325
  729SOL    HW1 2209   0.822   2.345   0.279
  729SOL    HW2 2210   0.721   2.468   0.317
  730SOL     OW 2211   1.657   2.466   1.206
  730SOL    HW1 2212   1.619   2.397   1.268
  730SOL    HW2 2213   1.739   2.430   1.162
  731SOL     OW 2214   0.252   3.426   1.744
  731SOL    HW1 2215   0.222   3.483   1.820
  731SOL    HW2 2216   0.245   3.329   1.770
  732SOL     OW 2217   0.671   2.326   1.269
  732SOL    HW1 2218   0.637   2.237   1.239
  732SOL    HW2 2219   0.697   2.380   1.189
  733SOL     OW 2220   0.930   3.540   1.465
  733SOL    HW1 2221   0.906   3.522   1.370
  733SOL    HW2 2222   0.960   3.634   1.475
  734SOL     OW 2223   0.473   2.362   0.191
  734SOL    HW1 2224   0.534   2.442   0.195
  734SOL    HW2 2225   0.378   2.393   0.198
  735SOL     OW 2226   0.159   2.999   1.466
  735SOL    HW1 2227   0.181   2.938   1.542
  735SOL    HW2 2228   0.169   2.950   1.380
  736SOL     OW 2229   1.347   2.921   1.234
  736SOL    HW1 2230   1.371   2.858   1.160
  736SOL    HW2 2231   1.257   2.961   1.216
  737SOL     OW 2232   1.302   2.717   0.309
  737SOL    HW1 2233   1.216   2.686   0.351
  737SOL    HW2 2234   1.298   2.703   0.210
  738SOL     OW 2235   1.759   3.609   1.154
  738SOL    HW1 2236   1.820   3.639   1.081
  738SOL    HW2 2237   1.721   3.520   1.132
  739SOL     OW 2238   1.252   3.593   1.128
  739SOL    HW1 2239   1.336   3.598   1.074
  739SOL    HW2 2240   1.229   3.497   1.146
  740SOL     OW 2241   0.083   3.120   1.022
  740SOL    HW1 2242   0.078   3.119   1.122
  740SOL    HW2 2243   0.000   3.079   0.984
  741SOL     OW 2244   0.688   3.524   1.716
  741SOL    HW1 2245   0.632   3.605   1.725
  741SOL    HW2 2246   0.740   3.528   1.630
  742SOL     OW 2247   0.903   1.948   0.133
  742SOL    HW1 2248   0.954   1.949   0.047
  742SOL    HW2 2249   0.959   1.906   0.204
  743SOL     OW 2250   1.726   1.997   0.523
  743SOL    HW1 2251   1.799   1.980   0.456
  743SOL    HW2 2252   1.695   1.910   0.561
  744SOL     OW 2253   1.388   3.435   0.477
  744SOL    HW1 2254   1.455   3.447   0.403
  744SOL    HW2 2255   1.348   3.524   0.500
  745SOL     OW 2256   0.130   3.656   1.851
  745SOL    HW1 2257   0.089   3.582   1.904
  745SOL    HW2 2258   0.194   3.707   1.909
  746SOL     OW 2259   1.280   2.789   0.672
  746SOL    HW1 2260   1.340   2.708   0.674
  746SOL    HW2 2261   1.320   2.858   0.612
  747SOL     OW 2262   0.830   3.135   1.422
  747SOL    HW1 2263   0.825   3.168   1.517
  747SOL    HW2 2264   0.744   3.154   1.376
  748SOL     OW 2265   0.672   3.478   0.154
  748SOL    HW1 2266   0.681   3.488   0.055
  748SOL    HW2 2267   0.632   3.389   0.175
  749SOL     OW 2268   1.650   3.582   1.394
  749SOL    HW1 2269   1.703   3.592   1.310
  749SOL    HW2 2270   1.623   3.672   1.428
  750SOL     OW 2271   1.841   2.037   0.963
  750SOL    HW1 2272   1.880   1.952   0.927
  750SOL    HW2 2273   1.743   2.039   0.944
  751SOL     OW 2274   0.263   2.188   0.720
  751SOL    HW1 2275   0.184   2.239   0.686
  751SOL    HW2 2276   0.254   2.173   0.818
  752SOL     OW 2277   1.194   3.474   0.031
  752SOL    HW1 2278   1.200   3.381   0.068
  752SOL    HW2 2279   1.135   3.474  -0.049
  753SOL     OW 2280   0.822   2.864   1.372
  753SOL    HW1 2281   0.862   2.863   1.280
  753SOL    HW2 2282   0.832   2.956   1.412
  754SOL     OW 2283   0.916   2.772   0.291
  754SOL    HW1 2284   0.979   2.810   0.223
  754SOL    HW2 2285   0.956   2.689   0.330
  755SOL     OW 2286   1.504   3.469   0.044
  755SOL    HW1 2287   1.412   3.506   0.051
  755SOL    HW2 2288   1.542   3.489  -0.046
  756SOL     OW 2289   0.372   3.150   1.490
  756SOL    HW1 2290   0.359   3.243   1.456
  756SOL    HW2 2291   0.288   3.098   1.477
  757SOL     OW 2292   1.614   3.154   1.289
  757SOL    HW1 2293   1.674   3.157   1.369
  757SOL    HW2 2294   1.539   3.218   1.302
  758SOL     OW 2295   1.039   2.960   0.696
  758SOL    HW1 2296   0.969   2.913   0.750
  758SOL    HW2 2297   1.098   2.892   0.653
  759SOL     OW 2298   1.014   2.098   0.971
  759SOL    HW1 2299   1.006   2.062   0.878
  759SOL    HW2 2300   1.012   2.022   1.036
  760SOL     OW 2301   0.590   3.349   0.491
  760SOL    HW1 2302   0.632   3.291   0.421
  760SOL    HW2 2303   0.546   3.428   0.447
  761SOL     OW 2304   1.709   2.247   1.381
  761SOL    HW1 2305   1.782   2.316   1.385
  761SOL    HW2 2306   1.737   2.172   1.322
  762SOL     OW 2307   0.255   3.210   0.290
  762SOL    HW1 2308   0.159   3.211   0.263
  762SOL    HW2 2309   0.267   3.263   0.374
  763SOL     OW 2310   0.105   2.875   1.726
  763SOL    HW1 2311   0.028   2.842   1.780
  763SOL    HW2 2312   0.190   2.845   1.768
  764SOL     OW 2313   0.672   2.065   1.489
  764SOL    HW1 2314   0.762   2.049   1.449
  764SOL    HW2 2315   0.680   2.070   1.588
  765SOL     OW 2316   0.075   2.207   0.033
  765SOL    HW1 2317  -0.017   2.179   0.004
  765SOL    HW2 2318   0.106   2.284  -0.023
  766SOL     OW 2319   1.440   2.718   1.398
  766SOL    HW1 2320   1.383   2.770   1.335
  766SOL    HW2 2321   1.536   2.730   1.374
  767SOL     OW 2322   0.072   2.028   0.318
  767SOL    HW1 2323   0.055   2.111   0.264
  767SOL    HW2 2324   0.162   1.991   0.296
  768SOL     OW 2325   1.183   3.197   0.119
  768SOL    HW1 2326   1.084   3.186   0.121
  768SOL    HW2 2327   1.217   3.212   0.212
  769SOL     OW 2328   0.613   2.704   1.431
  769SOL    HW1 2329   0.669   2.785   1.414
  769SOL    HW2 2330   0.672   2.624   1.434
  770SOL     OW 2331   1.493   3.629   0.959
  770SOL    HW1 2332   1.526   3.693   0.890
  770SOL    HW2 2333   1.559   3.623   1.034
  771SOL     OW 2334   0.716   2.427   1.708
  771SOL    HW1 2335   0.735   2.492   1.782
  771SOL    HW2 2336   0.776   2.347   1.717
  772SOL     OW 2337   1.450   3.082   1.633
  772SOL    HW1 2338   1.441   3.072   1.732
  772SOL    HW2 2339   1.546   3.075   1.607
  773SOL     OW 2340   0.390   3.603   1.560
  773SOL    HW1 2341   0.299   3.644   1.558
  773SOL    HW2 2342   0.383   3.509   1.592
  774SOL     OW 2343   1.674   2.745   1.254
  774SOL    HW1 2344   1.647   2.656   1.217
  774SOL    HW2 2345   1.675   2.813   1.181
  775SOL     OW 2346   1.225   2.187   0.449
  775SOL    HW1 2347   1.290   2.113   0.438
  775SOL    HW2 2348   1.245   2.237   0.533
  776SOL     OW 2349   0.594   2.607   0.652
  776SOL    HW1 2350   0.644   2.692   0.633
  776SOL    HW2 2351   0.506   2.609   0.604
  777SOL     OW 2352   1.777   2.204   1.642
  777SOL    HW1 2353   1.760   2.235   1.548
  777SOL    HW2 2354   1.693   2.167   1.680
  778SOL     OW 2355   1.730   2.796   1.517
  778SOL    HW1 2356   1.768   2.887   1.532
  778SOL    HW2 2357   1.722   2.779   1.418
  779SOL     OW 2358   0.859   3.236   0.016
  779SOL    HW1 2359   0.813   3.251   0.104
  779SOL    HW2 2360   0.903   3.321  -0.014
  780SOL     OW 2361   0.661   3.652   0.953
  780SOL    HW1 2362   0.615   3.740   0.940
  780SOL    HW2 2363   0.760   3.664   0.946
  781SOL     OW 2364   0.859   2.818   0.861
  781SOL    HW1 2365   0.913   2.749   0.909
  781SOL    HW2 2366   0.827   2.887   0.927
  782SOL     OW 2367   1.083   2.846   0.087
  782SOL    HW1 2368   1.060   2.899   0.005
  782SOL    HW2 2369   1.164   2.790   0.068
  783SOL     OW 2370   1.861   3.431   0.851
  783SOL    HW1 2371   1.790   3.419   0.781
  783SOL    HW2 2372   1.862   3.352   0.911
  784SOL     OW 2373   0.221   3.176   1.844
  784SOL    HW1 2374   0.156   3.103   1.823
  784SOL    HW2 2375   0.225   3.190   1.942
  785SOL     OW 2376   0.079   3.102   0.653
  785SOL    HW1 2377   0.078   3.055   0.741
  785SOL    HW2 2378   0.161   3.074   0.602
  786SOL     OW 2379   0.672   3.253   1.624
  786SOL    HW1 2380   0.594   3.203   1.662
  786SOL    HW2 2381   0.669   3.348   1.655
  787SOL     OW 2382   1.824   2.054   1.227
  787SOL    HW1 2383   1.820   1.964   1.271
  787SOL    HW2 2384   1.827   2.043   1.128
  788SOL     OW 2385   0.428   2.286   0.520
  788SOL    HW1 2386   0.458   2.214   0.458
  788SOL    HW2 2387   0.389   2.246   0.603
  789SOL     OW 2388   1.705   3.349   1.104
  789SOL    HW1 2389   1.612   3.324   1.077
  789SOL    HW2 2390   1.731   3.299   1.186
  790SOL     OW 2391   0.317   2.409   1.280
  790SOL    HW1 2392   0.355   2.350   1.352
  790SOL    HW2 2393   0.357   2.383   1.192
  791SOL     OW 2394   0.812   3.448   0.687
  791SOL    HW1 2395   0.844   3.458   0.593
  791SOL    HW2 2396   0.733   3.386   0.689
  792SOL     OW 2397   1.424   2.076   1.112
  792SOL    HW1 2398   1.476   2.011   1.167
  792SOL    HW2 2399   1.375   2.139   1.173
  793SOL     OW 2400   1.001   1.896   1.154
  793SOL    HW1 2401   0.938   1.824   1.123
  793SOL    HW2 2402   1.094   1.860   1.154
  794SOL     OW 2403   0.770   3.192   0.301
  794SOL    HW1 2404   0.724   3.105   0.318
  794SOL    HW2 2405   0.861   3.189   0.342
  795SOL     OW 2406   0.618   3.429   1.284
  795SOL    HW1 2407   0.613   3.511   1.341
  795SOL    HW2 2408   0.707   3.426   1.239
  796SOL     OW 2409   1.352   1.914   0.168
  796SOL    HW1 2410   1.387   1.873   0.084
  796SOL    HW2 2411   1.262   1.876   0.188
  797SOL     OW 2412   1.300   2.315   0.691
  797SOL    HW1 2413   1.241   2.395   0.695
  797SOL    HW2 2414   1.315   2.280   0.784
  798SOL     OW 2415   1.593   2.083   0.882
  798SOL    HW1 2416   1.509   2.082   0.936
  798SOL    HW2 2417   1.595   2.166   0.826
  799SOL     OW 2418   0.039   2.939   0.300
  799SOL    HW1 2419   0.138   2.928   0.291
  799SOL    HW2 2420  -0.001   2.853   0.332
  800SOL     OW 2421   0.875   3.508   0.337
  800SOL    HW1 2422   0.798   3.473   0.283
  800SOL    HW2 2423   0.843   3.579   0.399
  801SOL     OW 2424   0.230   2.490   1.975
  801SOL    HW1 2425   0.137   2.488   2.012
  801SOL    HW2 2426   0.231   2.451   1.883
  802SOL     OW 2427   0.225   2.137   2.858
  802SOL    HW1 2428   0.260   2.120   2.950
  802SOL    HW2 2429   0.137   2.092   2.846
  803SOL     OW 2430   0.019   2.230   2.509
  803SOL    HW1 2431  -0.063   2.273   2.548
  803SOL    HW2 2432  -0.009   2.157   2.446
  804SOL     OW 2433   0.569   3.137   3.027
  804SOL    HW1 2434   0.476   3.130   2.990
  804SOL    HW2 2435   0.580   3.226   3.071
  805SOL     OW 2436   1.555   3.373   2.565
  805SOL    HW1 2437   1.498   3.357   2.646
  805SOL    HW2 2438   1.496   3.383   2.485
  806SOL     OW 2439   1.135   2.565   2.579
  806SOL    HW1 2440   1.192   2.643   2.554
  806SOL    HW2 2441   1.075   2.591   2.655
  807SOL     OW 2442   1.755   2.469   2.093
  807SOL    HW1 2443   1.743   2.456   1.994
  807SOL    HW2 2444   1.725   2.388   2.142
  808SOL     OW 2445   0.768   3.006   2.885
  808SOL    HW1 2446   0.690   3.023   2.945
  808SOL    HW2 2447   0.802   3.093   2.849
  809SOL     OW 2448   0.850   2.660   3.685
  809SOL    HW1 2449   0.846   2.736   3.750
  809SOL    HW2 2450   0.872   2.696   3.594
  810SOL     OW 2451   0.685   2.874   2.527
  810SOL    HW1 2452   0.754   2.858   2.597
  810SOL    HW2 2453   0.612   2.931   2.565
  811SOL     OW 2454   0.686   3.023   3.665
  811SOL    HW1 2455   0.746   3.102   3.679
  811SOL    HW2 2456   0.600   3.054   3.624
  812SOL     OW 2457   0.335   3.297   2.923
  812SOL    HW1 2458   0.257   3.266   2.870
  812SOL    HW2 2459   0.393   3.355   2.866
  813SOL     OW 2460   1.460   3.367   3.201
  813SOL    HW1 2461   1.484   3.461   3.227
  813SOL    HW2 2462   1.444   3.313   3.283
  814SOL     OW 2463   0.438   2.254   3.361
  814SOL    HW1 2464   0.520   2.198   3.370
  814SOL    HW2 2465   0.357   2.196   3.365
  815SOL     OW 2466   1.603   2.309   2.599
  815SOL    HW1 2467   1.529   2.355   2.549
  815SOL    HW2 2468   1.654   2.377   2.652
  816SOL     OW 2469   0.231   3.575   2.345
  816SOL    HW1 2470   0.265   3.652   2.399
  816SOL    HW2 2471   0.275   3.575   2.255
  817SOL     OW 2472   1.127   3.203   3.552
  817SOL    HW1 2473   1.174   3.203   3.640
  817SOL    HW2 2474   1.079   3.116   3.541
  818SOL     OW 2475   0.230   3.296   2.400
  818SOL    HW1 2476   0.204   3.392   2.400
  818SOL    HW2 2477   0.159   3.242   2.445
  819SOL     OW 2478   0.240   2.953   2.748
  819SOL    HW1 2479   0.254   2.869   2.800
  819SOL    HW2 2480   0.185   3.017   2.803
  820SOL     OW 2481   0.620   3.648   3.301
  820SOL    HW1 2482   0.528   3.631   3.336
  820SOL    HW2 2483   0.648   3.740   3.327
  821SOL     OW 2484   0.606   2.826   1.985
  821SOL    HW1 2485   0.613   2.910   1.931
  821SOL    HW2 2486   0.652   2.839   2.073
  822SOL     OW 2487   1.594   1.976   3.342
  822SOL    HW1 2488   1.576   2.043   3.270
  822SOL    HW2 2489   1.591   2.022   3.431
  823SOL     OW 2490   0.122   2.505   2.425
  823SOL    HW1 2491   0.077   2.417   2.442
  823SOL    HW2 2492   0.121   2.559   2.509
  824SOL     OW 2493   1.842   3.629   2.221
  824SOL    HW1 2494   1.896   3.600   2.301
  824SOL    HW2 2495   1.872   3.719   2.192
  825SOL     OW 2496   0.027   3.458   1.979
  825SOL    HW1 2497   0.008   3.362   2.000
  825SOL    HW2 2498  -0.006   3.516   2.054
  826SOL     OW 2499   1.689   2.784   2.474
  826SOL    HW1 2500   1.784   2.755   2.482
  826SOL    HW2 2501   1.681   2.849   2.399
  827SOL     OW 2502   1.641   2.970   2.294
  827SOL    HW1 2503   1.727   2.972   2.242
  827SOL    HW2 2504   1.655   3.017   2.382
  828SOL     OW 2505   0.113   2.599   3.459
  828SOL    HW1 2506   0.201   2.586   3.504
  828SOL    HW2 2507   0.100   2.696   3.437
  829SOL     OW 2508   0.613   3.227   2.588
  829SOL    HW1 2509   0.564   3.140   2.597
  829SOL    HW2 2510   0.590   3.270   2.501
  830SOL     OW 2511   1.293   3.090   3.285
  830SOL    HW1 2512   1.330   3.017   3.227
  830SOL    HW2 2513   1.345   3.095   3.370
  831SOL     OW 2514   0.809   1.866   2.364
  831SOL    HW1 2515   0.849   1.957   2.355
  831SOL    HW2 2516   0.709   1.874   2.370
  832SOL     OW 2517   0.197   2.838   3.126
  832SOL    HW1 2518   0.286   2.793   3.112
  832SOL    HW2 2519   0.124   2.773   3.107
  833SOL     OW 2520   1.525   2.861   2.052
  833SOL    HW1 2521   1.462   2.785   2.065
  833SOL    HW2 2522   1.573   2.879   2.138
  834SOL     OW 2523   1.187   3.654   3.478
  834SOL    HW1 2524   1.211   3.714   3.402
  834SOL    HW2 2525   1.194   3.559   3.448
  835SOL     OW 2526   0.317   2.113   3.663
  835SOL    HW1 2527   0.388   2.184   3.669
  835SOL    HW2 2528   0.229   2.152   3.691
  836SOL     OW 2529   1.466   3.279   2.815
  836SOL    HW1 2530   1.407   3.285   2.895
  836SOL    HW2 2531   1.451   3.191   2.769
  837SOL     OW 2532   1.667   3.576   2.434
  837SOL    HW1 2533   1.626   3.553   2.346
  837SOL    HW2 2534   1.649   3.502   2.499
  838SOL     OW 2535   0.598   2.591   2.132
  838SOL    HW1 2536   0.622   2.660   2.064
  838SOL    HW2 2537   0.520   2.624   2.186
  839SOL     OW 2538   1.281   2.207   2.806
  839SOL    HW1 2539   1.195   2.157   2.793
  839SOL    HW2 2540   1.343   2.153   2.862
  840SOL     OW 2541   1.576   3.524   2.169
  840SOL    HW1 2542   1.665   3.570   2.172
  840SOL    HW2 2543   1.555   3.500   2.074
  841SOL     OW 2544   0.807   2.467   3.327
  841SOL    HW1 2545   0.760   2.464   3.416
  841SOL    HW2 2546   0.756   2.412   3.261
  842SOL     OW 2547   1.394   2.331   3.536
  842SOL    HW1 2548   1.374   2.374   3.624
  842SOL    HW2 2549   1.472   2.269   3.545
  843SOL     OW 2550   0.973   2.752   3.434
  843SOL    HW1 2551   1.019   2.668   3.405
  843SOL    HW2 2552   0.917   2.786   3.359
  844SOL     OW 2553   0.991   2.272   3.104
  844SOL    HW1 2554   0.914   2.306   3.158
  844SOL    HW2 2555   0.957   2.221   3.025
  845SOL     OW 2556   1.041   2.563   2.291
  845SOL    HW1 2557   1.067   2.559   2.387
  845SOL    HW2 2558   0.956   2.512   2.277
  846SOL     OW 2559   0.076   2.673   2.651
  846SOL    HW1 2560   0.175   2.661   2.660
  846SOL    HW2 2561   0.052   2.768   2.672
  847SOL     OW 2562   0.130   3.683   3.433
  847SOL    HW1 2563   0.120   3.668   3.532
  847SOL    HW2 2564   0.044   3.719   3.397
  848SOL     OW 2565   0.865   2.210   2.057
  848SOL    HW1 2566   0.924   2.273   2.008
  848SOL    HW2 2567   0.884   2.116   2.028
  849SOL     OW 2568   1.719   2.447   3.693
  849SOL    HW1 2569   1.693   2.536   3.657
  849SOL    HW2 2570   1.717   2.379   3.620
  850SOL     OW 2571   1.362   3.006   2.407
  850SOL    HW1 2572   1.445   2.977   2.359
  850SOL    HW2 2573   1.313   3.073   2.351
  851SOL     OW 2574   0.550   2.058   2.747
  851SOL    HW1 2575   0.545   2.053   2.847
  851SOL    HW2 2576   0.552   2.154   2.718
  852SOL     OW 2577   1.008   3.318   2.339
  852SOL    HW1 2578   0.962   3.390   2.287
  852SOL    HW2 2579   1.004   3.338   2.437
  853SOL     OW 2580   0.351   3.663   2.715
  853SOL    HW1 2581   0.401   3.577   2.721
  853SOL    HW2 2582   0.416   3.740   2.712
  854SOL     OW 2583   1.795   2.928   2.735
  854SOL    HW1 2584   1.733   2.913   2.659
  854SOL    HW2 2585   1.743   2.939   2.820
  855SOL     OW 2586   1.227   3.412   3.368
  855SOL    HW1 2587   1.233   3.335   3.432
  855SOL    HW2 2588   1.175   3.386   3.288
  856SOL     OW 2589   0.321   2.805   2.104
  856SOL    HW1 2590   0.403   2.844   2.062
  856SOL    HW2 2591   0.294   2.723   2.055
  857SOL     OW 2592   1.458   2.597   2.590
  857SOL    HW1 2593   1.453   2.532   2.665
  857SOL    HW2 2594   1.538   2.656   2.603
  858SOL     OW 2595   0.461   3.128   3.589
  858SOL    HW1 2596   0.411   3.129   3.503
  858SOL    HW2 2597   0.398   3.110   3.665
  859SOL     OW 2598   1.111   3.638   2.099
  859SOL    HW1 2599   1.051   3.576   2.149
  859SOL    HW2 2600   1.142   3.594   2.014
  860SOL     OW 2601   0.202   2.147   3.360
  860SOL    HW1 2602   0.122   2.207   3.347
  860SOL    HW2 2603   0.192   2.098   3.446
  861SOL     OW 2604   1.632   3.239   1.943
  861SOL    HW1 2605   1.600   3.333   1.933
  861SOL    HW2 2606   1.556   3.176   1.931
  862SOL     OW 2607   0.464   3.605   2.185
  862SOL    HW1 2608   0.497   3.644   2.271
  862SOL    HW2 2609   0.540   3.598   2.120
  863SOL     OW 2610   1.400   1.969   2.288
  863SOL    HW1 2611   1.376   1.932   2.198
  863SOL    HW2 2612   1.499   1.985   2.292
  864SOL     OW 2613   0.249   3.647   3.103
  864SOL    HW1 2614   0.306   3.582   3.153
  864SOL    HW2 2615   0.233   3.614   3.010
  865SOL     OW 2616   0.940   3.560   2.766
  865SOL    HW1 2617   1.020   3.503   2.787
  865SOL    HW2 2618   0.891   3.520   2.689
  866SOL     OW 2619   0.382   2.562   2.342
  866SOL    HW1 2620   0.427   2.472   2.339
  866SOL    HW2 2621   0.288   2.551   2.375
  867SOL     OW 2622   1.547   2.084   3.591
  867SOL    HW1 2623   1.542   2.121   3.683
  867SOL    HW2 2624   1.475   2.015   3.579
  868SOL     OW 2625   0.614   1.984   1.979
  868SOL    HW1 2626   0.712   1.962   1.986
  868SOL    HW2 2627   0.583   1.967   1.886
  869SOL     OW 2628   0.781   2.126   3.611
  869SOL    HW1 2629   0.848   2.065   3.654
  869SOL    HW2 2630   0.708   2.145   3.676
  870SOL     OW 2631   0.888   3.376   3.057
  870SOL    HW1 2632   0.865   3.351   2.963
  870SOL    HW2 2633   0.949   3.307   3.096
  871SOL     OW 2634   1.351   2.452   3.295
  871SOL    HW1 2635   1.379   2.409   3.380
  871SOL    HW2 2636   1.376   2.548   3.296
  872SOL     OW 2637   0.803   3.264   2.786
  872SOL    HW1 2638   0.893   3.278   2.744
  872SOL    HW2 2639   0.732   3.266   2.715
  873SOL     OW 2640   0.922   2.365   2.761
  873SOL    HW1 2641   0.897   2.356   2.665
  873SOL    HW2 2642   0.970   2.283   2.792
  874SOL     OW 2643   0.539   1.926   2.374
  874SOL    HW1 2644   0.458   1.927   2.432
  874SOL    HW2 2645   0.542   2.009   2.319
  875SOL     OW 2646   1.434   3.050   1.903
  875SOL    HW1 2647   1.466   2.974   1.960
  875SOL    HW2 2648   1.342   3.077   1.933
  876SOL     OW 2649   0.297   1.897   2.033
  876SOL    HW1 2650   0.346   1.981   2.012
  876SOL    HW2 2651   0.359   1.832   2.078
  877SOL     OW 2652   0.935   2.098   2.342
  877SOL    HW1 2653   0.887   2.139   2.264
  877SOL    HW2 2654   1.034   2.096   2.323
  878SOL     OW 2655   1.076   2.545   3.326
  878SOL    HW1 2656   0.996   2.484   3.329
  878SOL    HW2 2657   1.157   2.492   3.302
  879SOL     OW 2658   1.227   3.432   2.655
  879SOL    HW1 2659   1.248   3.506   2.590
  879SOL    HW2 2660   1.295   3.432   2.728
  880SOL     OW 2661   0.459   3.014   2.603
  880SOL    HW1 2662   0.388   2.987   2.668
  880SOL    HW2 2663   0.433   2.986   2.510
  881SOL     OW 2664   1.271   3.659   2.453
  881SOL    HW1 2665   1.315   3.723   2.389
  881SOL    HW2 2666   1.221   3.711   2.523
  882SOL     OW 2667   1.032   2.411   1.878
  882SOL    HW1 2668   0.991   2.493   1.839
  882SOL    HW2 2669   1.096   2.437   1.951
  883SOL     OW 2670   0.078   2.418   3.248
  883SOL    HW1 2671   0.170   2.417   3.207
  883SOL    HW2 2672   0.072   2.492   3.315
  884SOL     OW 2673   0.561   2.084   3.009
  884SOL    HW1 2674   0.599   2.000   3.046
  884SOL    HW2 2675   0.473   2.103   3.053
  885SOL     OW 2676   0.866   2.316   2.504
  885SOL    HW1 2677   0.834   2.388   2.442
  885SOL    HW2 2678   0.890   2.235   2.451
  886SOL     OW 2679   1.017   1.901   2.615
  886SOL    HW1 2680   0.945   1.906   2.546
  886SOL    HW2 2681   0.993   1.832   2.684
  887SOL     OW 2682   1.429   3.035   2.729
  887SOL    HW1 2683   1.374   2.951   2.722
  887SOL    HW2 2684   1.455   3.064   2.637
  888SOL     OW 2685   1.466   2.452   2.854
  888SOL    HW1 2686   1.436   2.357   2.861
  888SOL    HW2 2687   1.539   2.468   2.920
  889SOL     OW 2688   1.857   2.695   2.239
  889SOL    HW1 2689   1.899   2.631   2.303
  889SOL    HW2 2690   1.819   2.644   2.161
  890SOL     OW 2691   0.488   3.247   2.036
  890SOL    HW1 2692   0.401   3.232   2.083
  890SOL    HW2 2693   0.471   3.273   1.941
  891SOL     OW 2694   1.664   3.142   2.519
  891SOL    HW1 2695   1.763   3.150   2.533
  891SOL    HW2 2696   1.619   3.226   2.550
  892SOL     OW 2697   1.390   2.437   1.940
  892SOL    HW1 2698   1.336   2.416   2.021
  892SOL    HW2 2699   1.481   2.396   1.949
  893SOL     OW 2700   0.527   2.118   2.190
  893SOL    HW1 2701   0.554   2.059   2.115
  893SOL    HW2 2702   0.527   2.213   2.159
  894SOL     OW 2703   1.754   3.085   3.450
  894SOL    HW1 2704   1.845   3.046   3.437
  894SOL    HW2 2705   1.762   3.181   3.474
  895SOL     OW 2706   1.064   3.209   3.202
  895SOL    HW1 2707   0.984   3.186   3.257
  895SOL    HW2 2708   1.147   3.183   3.251
  896SOL     OW 2709   1.592   3.491   3.487
  896SOL    HW1 2710   1.619   3.525   3.397
  896SOL    HW2 2711   1.671   3.453   3.533
  897SOL     OW 2712   1.111   3.057   2.962
  897SOL    HW1 2713   1.071   3.101   3.043
  897SOL    HW2 2714   1.070   3.094   2.879
  898SOL     OW 2715   1.638   2.961   2.941
  898SOL    HW1 2716   1.643   3.042   3.000
  898SOL    HW2 2717   1.552   2.963   2.890
  899SOL     OW 2718   0.915   1.951   3.264
  899SOL    HW1 2719   0.940   1.931   3.169
  899SOL    HW2 2720   0.987   2.007   3.306
  900SOL     OW 2721   0.980   2.978   3.581
  900SOL    HW1 2722   0.881   2.984   3.591
  900SOL    HW2 2723   1.003   2.898   3.525
  901SOL     OW 2724   0.705   2.912   2.230
  901SOL    HW1 2725   0.691   2.919   2.329
  901SOL    HW2 2726   0.789   2.861   2.212
  902SOL     OW 2727   0.410   2.675   3.113
  902SOL    HW1 2728   0.496   2.687   3.163
  902SOL    HW2 2729   0.368   2.588   3.140
  903SOL     OW 2730   1.274   2.248   3.124
  903SOL    HW1 2731   1.295   2.322   3.188
  903SOL    HW2 2732   1.185   2.265   3.081
  904SOL     OW 2733   0.064   3.426   3.193
  904SOL    HW1 2734   0.018   3.508   3.159
  904SOL    HW2 2735   0.162   3.445   3.202
  905SOL     OW 2736   0.367   2.962   2.363
  905SOL    HW1 2737   0.360   3.045   2.307
  905SOL    HW2 2738   0.371   2.882   2.303
  906SOL     OW 2739   0.566   2.399   2.727
  906SOL    HW1 2740   0.578   2.465   2.653
  906SOL    HW2 2741   0.612   2.433   2.810
  907SOL     OW 2742   1.252   3.210   2.250
  907SOL    HW1 2743   1.302   3.287   2.290
  907SOL    HW2 2744   1.157   3.212   2.282
  908SOL     OW 2745   1.272   3.307   3.004
  908SOL    HW1 2746   1.319   3.320   3.091
  908SOL    HW2 2747   1.206   3.233   3.013
  909SOL     OW 2748   1.582   2.501   2.334
  909SOL    HW1 2749   1.551   2.562   2.407
  909SOL    HW2 2750   1.632   2.553   2.265
  910SOL     OW 2751   0.354   3.372   3.191
  910SOL    HW1 2752   0.333   3.328   3.104
  910SOL    HW2 2753   0.451   3.398   3.194
  911SOL     OW 2754   0.402   2.613   3.460
  911SOL    HW1 2755   0.470   2.668   3.413
  911SOL    HW2 2756   0.442   2.525   3.487
  912SOL     OW 2757   1.587   2.641   3.532
  912SOL    HW1 2758   1.495   2.679   3.527
  912SOL    HW2 2759   1.647   2.688   3.467
  913SOL     OW 2760   1.013   1.967   3.632
  913SOL    HW1 2761   1.019   2.052   3.580
  913SOL    HW2 2762   1.045   1.891   3.575
  914SOL     OW 2763   0.504   1.912   3.602
  914SOL    HW1 2764   0.462   1.855   3.532
  914SOL    HW2 2765   0.438   1.981   3.634
  915SOL     OW 2766   0.573   2.732   2.891
  915SOL    HW1 2767   0.617   2.821   2.882
  915SOL    HW2 2768   0.510   2.732   2.968
  916SOL     OW 2769   1.360   2.724   2.907
  916SOL    HW1 2770   1.285   2.724   2.841
  916SOL    HW2 2771   1.397   2.632   2.916
  917SOL     OW 2772   1.209   2.387   2.137
  917SOL    HW1 2773   1.222   2.303   2.191
  917SOL    HW2 2774   1.180   2.461   2.197
  918SOL     OW 2775   0.307   2.075   3.093
  918SOL    HW1 2776   0.284   2.112   3.183
  918SOL    HW2 2777   0.277   1.980   3.087
  919SOL     OW 2778   0.037   3.172   3.144
  919SOL    HW1 2779   0.090   3.123   3.212
  919SOL    HW2 2780   0.059   3.270   3.149
  920SOL     OW 2781   0.732   2.496   2.926
  920SOL    HW1 2782   0.791   2.470   2.850
  920SOL    HW2 2783   0.704   2.592   2.915
  921SOL     OW 2784   1.728   2.797   3.716
  921SOL    HW1 2785   1.682   2.790   3.627
  921SOL    HW2 2786   1.666   2.841   3.782
  922SOL     OW 2787   0.307   1.925   2.480
  922SOL    HW1 2788   0.296   2.019   2.513
  922SOL    HW2 2789   0.302   1.862   2.557
  923SOL     OW 2790   1.622   2.229   2.236
  923SOL    HW1 2791   1.624   2.153   2.300
  923SOL    HW2 2792   1.574   2.306   2.276
  924SOL     OW 2793   1.023   2.628   2.828
  924SOL    HW1 2794   1.038   2.649   2.924
  924SOL    HW2 2795   0.993   2.533   2.819
  925SOL     OW 2796   0.980   3.435   3.562
  925SOL    HW1 2797   0.960   3.479   3.474
  925SOL    HW2 2798   1.019   3.344   3.546
  926SOL     OW 2799   1.859   3.380   3.467
  926SOL    HW1 2800   1.873   3.407   3.372
  926SOL    HW2 2801   1.942   3.402   3.520
  927SOL     OW 2802   0.350   2.760   3.666
  927SOL    HW1 2803   0.426   2.804   3.714
  927SOL    HW2 2804   0.385   2.713   3.584
  928SOL     OW 2805   1.540   2.136   1.987
  928SOL    HW1 2806   1.479   2.061   2.010
  928SOL    HW2 2807   1.562   2.188   2.070
  929SOL     OW 2808   1.303   2.700   1.904
  929SOL    HW1 2809   1.337   2.607   1.919
  929SOL    HW2 2810   1.321   2.727   1.809
  930SOL     OW 2811   1.068   3.195   2.711
  930SOL    HW1 2812   1.075   3.111   2.656
  930SOL    HW2 2813   1.130   3.264   2.675
  931SOL     OW 2814   0.319   2.672   2.811
  931SOL    HW1 2815   0.412   2.708   2.816
  931SOL    HW2 2816   0.313   2.587   2.863
  932SOL     OW 2817   0.339   2.371   2.868
  932SOL    HW1 2818   0.287   2.288   2.851
  932SOL    HW2 2819   0.416   2.376   2.804
  933SOL     OW 2820   1.138   2.242   3.540
  933SOL    HW1 2821   1.093   2.305   3.604
  933SOL    HW2 2822   1.231   2.273   3.523
  934SOL     OW 2823   1.160   2.069   3.339
  934SOL    HW1 2824   1.160   2.133   3.416
  934SOL    HW2 2825   1.188   2.117   3.256
  935SOL     OW 2826   0.008   3.188   2.062
  935SOL    HW1 2827  -0.085   3.209   2.031
  935SOL    HW2 2828   0.018   3.089   2.075
  936SOL     OW 2829   0.088   3.663   2.789
  936SOL    HW1 2830   0.046   3.577   2.762
  936SOL    HW2 2831   0.182   3.666   2.755
  937SOL     OW 2832   0.504   3.430   2.772
  937SOL    HW1 2833   0.570   3.504   2.781
  937SOL    HW2 2834   0.548   3.351   2.730
  938SOL     OW 2835   1.002   2.658   3.100
  938SOL    HW1 2836   1.043   2.626   3.186
  938SOL    HW2 2837   0.906   2.631   3.097
  939SOL     OW 2838   0.040   2.406   2.976
  939SOL    HW1 2839   0.125   2.373   2.935
  939SOL    HW2 2840   0.053   2.421   3.074
  940SOL     OW 2841   0.189   2.382   3.584
  940SOL    HW1 2842   0.248   2.342   3.514
  940SOL    HW2 2843   0.131   2.453   3.543
  941SOL     OW 2844   1.369   2.812   3.522
  941SOL    HW1 2845   1.408   2.901   3.542
  941SOL    HW2 2846   1.379   2.792   3.425
  942SOL     OW 2847   0.815   2.434   2.187
  942SOL    HW1 2848   0.822   2.345   2.141
  942SOL    HW2 2849   0.721   2.468   2.179
  943SOL     OW 2850   1.657   2.466   3.068
  943SOL    HW1 2851   1.619   2.397   3.130
  943SOL    HW2 2852   1.739   2.430   3.024
  944SOL     OW 2853   0.252   3.426   3.606
  944SOL    HW1 2854   0.222   3.483   3.682
  944SOL    HW2 2855   0.245   3.329   3.632
  945SOL     OW 2856   0.671   2.326   3.131
  945SOL    HW1 2857   0.637   2.237   3.101
  945SOL    HW2 2858   0.697   2.380   3.051
  946SOL     OW 2859   0.930   3.540   3.327
  946SOL    HW1 2860   0.906   3.522   3.232
  946SOL    HW2 2861   0.960   3.634   3.337
  947SOL     OW 2862   0.473   2.362   2.053
  947SOL    HW1 2863   0.534   2.442   2.057
  947SOL    HW2 2864   0.378   2.393   2.060
  948SOL     OW 2865   0.159   2.999   3.328
  948SOL    HW1 2866   0.181   2.938   3.404
  948SOL    HW2 2867   0.169   2.950   3.242
  949SOL     OW 2868   1.347   2.921   3.096
  949SOL    HW1 2869   1.371   2.858   3.022
  949SOL    HW2 2870   1.257   2.961   3.078
  950SOL     OW 2871   1.302   2.717   2.171
  950SOL    HW1 2872   1.216   2.686   2.213
  950SOL    HW2 2873   1.298   2.703   2.072
  951SOL     OW 2874   1.759   3.609   3.016
  951SOL    HW1 2875   1.820   3.639   2.943
  951SOL    HW2 2876   1.721   3.520   2.994
  952SOL     OW 2877   1.252   3.593   2.990
  952SOL    HW1 2878   1.336   3.598   2.936
  952SOL    HW2 2879   1.229   3.497   3.008
  953SOL     OW 2880   0.083   3.120   2.884
  953SOL    HW1 2881   0.078   3.119   2.984
  953SOL    HW2 2882   0.000   3.079   2.846
  954SOL     OW 2883   0.688   3.524   3.578
  954SOL    HW1 2884   0.632   3.605   3.587
  954SOL    HW2 2885   0.740   3.528   3.492
  955SOL     OW 2886   1.726   1.997   2.385
  955SOL    HW1 2887   1.799   1.980   2.318
  955SOL    HW2 2888   1.695   1.910   2.423
  956SOL     OW 2889   1.388   3.435   2.339
  956SOL    HW1 2890   1.455   3.447   2.265
  956SOL    HW2 2891   1.348   3.524   2.362
  957SOL     OW 2892   0.130   3.656   3.713
  957SOL    HW1 2893   0.089   3.582   3.766
  957SOL    HW2 2894   0.194   3.707   3.771
  958SOL     OW 2895   1.280   2.789   2.534
  958SOL    HW1 2896   1.340   2.708   2.536
  958SOL    HW2 2897   1.320   2.858   2.474
  959SOL     OW 2898   0.830   3.135   3.284
  959SOL    HW1 2899   0.825   3.168   3.379
  959SOL    HW2 2900   0.744   3.154   3.238
  960SOL     OW 2901   0.672   3.478   2.016
  960SOL    HW1 2902   0.681   3.488   1.917
  960SOL    HW2 2903   0.632   3.389   2.037
  961SOL     OW 2904   1.650   3.582   3.256
  961SOL    HW1 2905   1.703   3.592   3.172
  961SOL    HW2 2906   1.623   3.672   3.290
  962SOL     OW 2907   1.841   2.037   2.825
  962SOL    HW1 2908   1.880   1.952   2.789
  962SOL    HW2 2909   1.743   2.039   2.806
  963SOL     OW 2910   0.263   2.188   2.582
  963SOL    HW1 2911   0.184   2.239   2.548
  963SOL    HW2 2912   0.254   2.173   2.680
  964SOL     OW 2913   1.194   3.474   1.893
  964SOL    HW1 2914   1.200   3.381   1.930
  964SOL    HW2 2915   1.135   3.474   1.813
  965SOL     OW 2916   0.822   2.864   3.234
  965SOL    HW1 2917   0.862   2.863   3.142
  965SOL    HW2 2918   0.832   2.956   3.274
  966SOL     OW 2919   0.916   2.772   2.153
  966SOL    HW1 2920   0.979   2.810   2.085
  966SOL    HW2 2921   0.956   2.689   2.192
  967SOL     OW 2922   1.504   3.469   1.906
  967SOL    HW1 2923   1.412   3.506   1.913
  967SOL    HW2 2924   1.542   3.489   1.816
  968SOL     OW 2925   0.372   3.150   3.352
  968SOL    HW1 2926   0.359   3.243   3.318
  968SOL    HW2 2927   0.288   3.098   3.339
  969SOL     OW 2928   1.614   3.154   3.151
  969SOL    HW1 2929   1.674   3.157   3.231
  969SOL    HW2 2930   1.539   3.218   3.164
  970SOL     OW 2931   1.039   2.960   2.558
  970SOL    HW1 2932   0.969   2.913   2.612
  970SOL    HW2 2933   1.098   2.892   2.515
  971SOL     OW 2934   1.014   2.098   2.833
  971SOL    HW1 2935   1.006   2.062   2.740
  971SOL    HW2 2936   1.012   2.022   2.898
  972SOL     OW 2937   0.590   3.349   2.353
  972SOL    HW1 2938   0.632   3.291   2.283
  972SOL    HW2 2939   0.546   3.428   2.309
  973SOL     OW 2940   1.709   2.247   3.243
  973SOL    HW1 2941   1.782   2.316   3.247
  973SOL    HW2 2942   1.737   2.172   3.184
  974SOL     OW 2943   0.255   3.210   2.152
  974SOL    HW1 2944   0.159   3.211   2.125
  974SOL    HW2 2945   0.267   3.263   2.236
  975SOL     OW 2946   0.105   2.875   3.588
  975SOL    HW1 2947   0.028   2.842   3.642
  975SOL    HW2 2948   0.190   2.845   3.630
  976SOL     OW 2949   0.672   2.065   3.351
  976SOL    HW1 2950   0.762   2.049   3.311
  976SOL    HW2 2951   0.680   2.070   3.450
  977SOL     OW 2952   0.075   2.207   1.895
  977SOL    HW1 2953  -0.017   2.179   1.866
  977SOL    HW2 2954   0.106   2.284   1.839
  978SOL     OW 2955   1.440   2.718   3.260
  978SOL    HW1 2956   1.383   2.770   3.197
  978SOL    HW2 2957   1.536   2.730   3.236
  979SOL     OW 2958   0.072   2.028   2.180
  979SOL    HW1 2959   0.055   2.111   2.126
  979SOL    HW2 2960   0.162   1.991   2.158
  980SOL     OW 2961   1.183   3.197   1.981
  980SOL    HW1 2962   1.084   3.186   1.983
  980SOL    HW2 2963   1.217   3.212   2.074
  981SOL     OW 2964   0.613   2.704   3.293
  981SOL    HW1 2965   0.669   2.785   3.276
  981SOL    HW2 2966   0.672   2.624   3.296
  982SOL     OW 2967   1.493   3.629   2.821
  982SOL    HW1 2968   1.526   3.693   2.752
  982SOL    HW2 2969   1.559   3.623   2.896
  983SOL     OW 2970   0.716   2.427   3.570
  983SOL    HW1 2971   0.735   2.492   3.644
  983SOL    HW2 2972   0.776   2.347   3.579
  984SOL     OW 2973   1.450   3.082   3.495
  984SOL    HW1 2974   1.441   3.072   3.594
  984SOL    HW2 2975   1.546   3.075   3.469
  985SOL     OW 2976   0.390   3.603   3.422
  985SOL    HW1 2977   0.299   3.644   3.420
  985SOL    HW2 2978   0.383   3.509   3.454
  986SOL     OW 2979   1.674   2.745   3.116
  986SOL    HW1 2980   1.647   2.656   3.079
  986SOL    HW2 2981   1.675   2.813   3.043
  987SOL     OW 2982   1.225   2.187   2.311
  987SOL    HW1 2983   1.290   2.113   2.300
  987SOL    HW2 2984   1.245   2.237   2.395
  988SOL     OW 2985   0.594   2.607   2.514
  988SOL    HW1 2986   0.644   2.692   2.495
  988SOL    HW2 2987   0.506   2.609   2.466
  989SOL     OW 2988   1.777   2.204   3.504
  989SOL    HW1 2989   1.760   2.235   3.410
  989SOL    HW2 2990   1.693   2.167   3.542
  990SOL     OW 2991   1.730   2.796   3.379
  990SOL    HW1 2992   1.768   2.887   3.394
  990SOL    HW2 2993   1.722   2.779   3.280
  991SOL     OW 2994   0.859   3.236   1.878
  991SOL    HW1 2995   0.813   3.251   1.966
  991SOL    HW2 2996   0.903   3.321   1.848
  992SOL     OW 2997   0.661   3.652   2.815
  992SOL    HW1 2998   0.615   3.740   2.802
  992SOL    HW2 2999   0.760   3.664   2.808
  993SOL     OW 3000   0.859   2.818   2.723
  993SOL    HW1 3001   0.913   2.749   2.771
  993SOL    HW2 3002   0.827   2.887   2.789
  994SOL     OW 3003   1.083   2.846   1.949
  994SOL    HW1 3004   1.060   2.899   1.867
  994SOL    HW2 3005   1.164   2.790   1.930
  995SOL     OW 3006   1.861   3.431   2.713
  995SOL    HW1 3007   1.790   3.419   2.643
  995SOL    HW2 3008   1.862   3.352   2.773
  996SOL     OW 3009   0.221   3.176   3.706
  996SOL    HW1 3010   0.156   3.103   3.685
  996SOL    HW2 3011   0.225   3.190   3.804
  997SOL     OW 3012   0.079   3.102   2.515
  997SOL    HW1 3013   0.078   3.055   2.603
  997SOL    HW2 3014   0.161   3.074   2.464
  998SOL     OW 3015   0.672   3.253   3.486
  998SOL    HW1 3016   0.594   3.203   3.524
  998SOL    HW2 3017   0.669   3.348   3.517
  999SOL     OW 3018   1.824   2.054   3.089
  999SOL    HW1 3019   1.820   1.964   3.133
  999SOL    HW2 3020   1.827   2.043   2.990
 1000SOL     OW 3021   0.428   2.286   2.382
 1000SOL    HW1 3022   0.458   2.214   2.320
 1000SOL    HW2 3023   0.389   2.246   2.465
 1001SOL     OW 3024   1.705   3.349   2.966
 1001SOL    HW1 3025   1.612   3.324   2.939
 1001SOL    HW2 3026   1.731   3.299   3.048
 1002SOL     OW 3027   0.317   2.409   3.142
 1002SOL    HW1 3028   0.355   2.350   3.214
 1002SOL    HW2 3029   0.357   2.383   3.054
 1003SOL     OW 3030   0.812   3.448   2.549
 1003SOL    HW1 3031   0.844   3.458   2.455
 1003SOL    HW2 3032   0.733   3.386   2.551
 1004SOL     OW 3033   1.424   2.076   2.974
 1004SOL    HW1 3034   1.476   2.011   3.029
 1004SOL    HW2 3035   1.375   2.139   3.035
 1005SOL     OW 3036   1.001   1.896   3.016
 1005SOL    HW1 3037   0.938   1.824   2.985
 1005SOL    HW2 3038   1.094   1.860   3.016
 1006SOL     OW 3039   0.770   3.192   2.163
 1006SOL    HW1 3040   0.724   3.105   2.180
 1006SOL    HW2 3041   0.861   3.189   2.204
 1007SOL     OW 3042   0.618   3.429   3.146
 1007SOL    HW1 3043   0.613   3.511   3.203
 1007SOL    HW2 3044   0.707   3.426   3.101
 1008SOL     OW 3045   1.352   1.914   2.030
 1008SOL    HW1 3046   1.387   1.873   1.946
 1008SOL    HW2 3047   1.262   1.876   2.050
 1009SOL     OW 3048   1.300   2.315   2.553
 1009SOL    HW1 3049   1.241   2.395   2.557
 1009SOL    HW2 3050   1.315   2.280   2.646
 1010SOL     OW 3051   1.593   2.083   2.744
 1010SOL    HW1 3052   1.509   2.082   2.798
 1010SOL    HW2 3053   1.595   2.166   2.688
 1011SOL     OW 3054   0.039   2.939   2.162
 1011SOL    HW1 3055   0.138   2.928   2.153
 1011SOL    HW2 3056  -0.001   2.853   2.194
 1012SOL     OW 3057   0.875   3.508   2.199
 1012SOL    HW1 3058   0.798   3.473   2.145
 1012SOL    HW2 3059   0.843   3.579   2.261
 1013SOL     OW 3060   0.230   2.490   3.837
 1013SOL    HW1 3061   0.137   2.488   3.874
 1013SOL    HW2 3062   0.231   2.451   3.745
 1014SOL     OW 3063   0.225   2.137   4.720
 1014SOL    HW1 3064   0.260   2.120   4.812
 1014SOL    HW2 3065   0.137   2.092   4.708
 1015SOL     OW 3066   0.019   2.230   4.371
 1015SOL    HW1 3067  -0.063   2.273   4.410
 1015SOL    HW2 3068  -0.009   2.157   4.308
 1016SOL     OW 3069   0.569   3.137   4.889
 1016SOL    HW1 3070   0.476   3.130   4.852
 1016SOL    HW2 3071   0.580   3.226   4.933
 1017SOL     OW 3072   1.555   3.373   4.427
 1017SOL    HW1 3073   1.498   3.357   4.508
 1017SOL    HW2 3074   1.496   3.383   4.347
 1018SOL     OW 3075   1.135   2.565   4.441
 1018SOL    HW1 3076   1.192   2.643   4.416
 1018SOL    HW2 3077   1.075   2.591   4.517
 1019SOL     OW 3078   1.755   2.469   3.955
 1019SOL    HW1 3079   1.743   2.456   3.856
 1019SOL    HW2 3080   1.725   2.388   4.004
 1020SOL     OW 3081   0.768   3.006   4.747
 1020SOL    HW1 3082   0.690   3.023   4.807
 1020SOL    HW2 3083   0.802   3.093   4.711
 1021SOL     OW 3084   0.685   2.874   4.389
 1021SOL    HW1 3085   0.754   2.858   4.459
 1021SOL    HW2 3086   0.612   2.931   4.427
 1022SOL     OW 3087   0.335   3.297   4.785
 1022SOL    HW1 3088   0.257   3.266   4.732
 1022SOL    HW2 3089   0.393   3.355   4.728
 1023SOL     OW 3090   1.603   2.309   4.461
 1023SOL    HW1 3091   1.529   2.355   4.411
 1023SOL    HW2 3092   1.654   2.377   4.514
 1024SOL     OW 3093   0.231   3.575   4.207
 1024SOL    HW1 3094   0.265   3.652   4.261
 1024SOL    HW2 3095   0.275   3.575   4.117
 1025SOL     OW 3096   0.230   3.296   4.262
 1025SOL    HW1 3097   0.204   3.392   4.262
 1025SOL    HW2 3098   0.159   3.242   4.307
 1026SOL     OW 3099   0.240   2.953   4.610
 1026SOL    HW1 3100   0.254   2.869   4.662
 1026SOL    HW2 3101   0.185   3.017   4.665
 1027SOL     OW 3102   0.620   3.648   5.163
 1027SOL    HW1 3103   0.528   3.631   5.198
 1027SOL    HW2 3104   0.648   3.740   5.189
 1028SOL     OW 3105   0.606   2.826   3.847
 1028SOL    HW1 3106   0.613   2.910   3.793
 1028SOL    HW2 3107   0.652   2.839   3.935
 1029SOL     OW 3108   0.122   2.505   4.287
 1029SOL    HW1 3109   0.077   2.417   4.304
 1029SOL    HW2 3110   0.121   2.559   4.371
 1030SOL     OW 3111   1.842   3.629   4.083
 1030SOL    HW1 3112   1.896   3.600   4.163
 1030SOL    HW2 3113   1.872   3.719   4.054
 1031SOL     OW 3114   0.027   3.458   3.841
 1031SOL    HW1 3115   0.008   3.362   3.862
 1031SOL    HW2 3116  -0.006   3.516   3.916
 1032SOL     OW 3117   1.689   2.784   4.336
 1032SOL    HW1 3118   1.784   2.755   4.344
 1032SOL    HW2 3119   1.681   2.849   4.261
 1033SOL     OW 3120   1.641   2.970   4.156
 1033SOL    HW1 3121   1.727   2.972   4.104
 1033SOL    HW2 3122   1.655   3.017   4.244
 1034SOL     OW 3123   0.613   3.227   4.450
 1034SOL    HW1 3124   0.564   3.140   4.459
 1034SOL    HW2 3125   0.590   3.270   4.363
 1035SOL     OW 3126   0.809   1.866   4.226
 1035SOL    HW1 3127   0.849   1.957   4.217
 1035SOL    HW2 3128   0.709   1.874   4.232
 1036SOL     OW 3129   0.197   2.838   4.988
 1036SOL    HW1 3130   0.286   2.793   4.974
 1036SOL    HW2 3131   0.124   2.773   4.969
 1037SOL     OW 3132   1.525   2.861   3.914
 1037SOL    HW1 3133   1.462   2.785   3.927
 1037SOL    HW2 3134   1.573   2.879   4.000
 1038SOL     OW 3135   1.466   3.279   4.677
 1038SOL    HW1 3136   1.407   3.285   4.757
 1038SOL    HW2 3137   1.451   3.191   4.631
 1039SOL     OW 3138   1.667   3.576   4.296
 1039SOL    HW1 3139   1.626   3.553   4.208
 1039SOL    HW2 3140   1.649   3.502   4.361
 1040SOL     OW 3141   0.598   2.591   3.994
 1040SOL    HW1 3142   0.622   2.660   3.926
 1040SOL    HW2 3143   0.520   2.624   4.048
 1041SOL     OW 3144   1.281   2.207   4.668
 1041SOL    HW1 3145   1.195   2.157   4.655
 1041SOL    HW2 3146   1.343   2.153   4.724
 1042SOL     OW 3147   1.576   3.524   4.031
 1042SOL    HW1 3148   1.665   3.570   4.034
 1042SOL    HW2 3149   1.555   3.500   3.936
 1043SOL     OW 3150   0.807   2.467   5.189
 1043SOL    HW1 3151   0.760   2.464   5.278
 1043SOL    HW2 3152   0.756   2.412   5.123
 1044SOL     OW 3153   0.991   2.272   4.966
 1044SOL    HW1 3154   0.914   2.306   5.020
 1044SOL    HW2 3155   0.957   2.221   4.887
 1045SOL     OW 3156   1.041   2.563   4.153
 1045SOL    HW1 3157   1.067   2.559   4.249
 1045SOL    HW2 3158   0.956   2.512   4.139
 1046SOL     OW 3159   0.076   2.673   4.513
 1046SOL    HW1 3160   0.175   2.661   4.522
 1046SOL    HW2 3161   0.052   2.768   4.534
 1047SOL     OW 3162   0.130   3.683   5.295
 1047SOL    HW1 3163   0.120   3.668   5.394
 1047SOL    HW2 3164   0.044   3.719   5.259
 1048SOL     OW 3165   0.865   2.210   3.919
 1048SOL    HW1 3166   0.924   2.273   3.870
 1048SOL    HW2 3167   0.884   2.116   3.890
 1049SOL     OW 3168   1.362   3.006   4.269
 1049SOL    HW1 3169   1.445   2.977   4.221
 1049SOL    HW2 3170   1.313   3.073   4.213
 1050SOL     OW 3171   0.550   2.058   4.609
 1050SOL    HW1 3172   0.545   2.053   4.709
 1050SOL    HW2 3173   0.552   2.154   4.580
 1051SOL     OW 3174   1.008   3.318   4.201
 1051SOL    HW1 3175   0.962   3.390   4.149
 1051SOL    HW2 3176   1.004   3.338   4.299
 1052SOL     OW 3177   0.351   3.663   4.577
 1052SOL    HW1 3178   0.401   3.577   4.583
 1052SOL    HW2 3179   0.416   3.740   4.574
 1053SOL     OW 3180   1.795   2.928   4.597
 1053SOL    HW1 3181   1.733   2.913   4.521
 1053SOL    HW2 3182   1.743   2.939   4.682
 1054SOL     OW 3183   0.321   2.805   3.966
 1054SOL    HW1 3184   0.403   2.844   3.924
 1054SOL    HW2 3185   0.294   2.723   3.917
 1055SOL     OW 3186   1.458   2.597   4.452
 1055SOL    HW1 3187   1.453   2.532   4.527
 1055SOL    HW2 3188   1.538   2.656   4.465
 1056SOL     OW 3189   1.111   3.638   3.961
 1056SOL    HW1 3190   1.051   3.576   4.011
 1056SOL    HW2 3191   1.142   3.594   3.876
 1057SOL     OW 3192   1.632   3.239   3.805
 1057SOL    HW1 3193   1.600   3.333   3.795
 1057SOL    HW2 3194   1.556   3.176   3.793
 1058SOL     OW 3195   0.464   3.605   4.047
 1058SOL    HW1 3196   0.497   3.644   4.133
 1058SOL    HW2 3197   0.540   3.598   3.982
 1059SOL     OW 3198   1.400   1.969   4.150
 1059SOL    HW1 3199   1.376   1.932   4.060
 1059SOL    HW2 3200   1.499   1.985   4.154
 1060SOL     OW 3201   0.249   3.647   4.965
 1060SOL    HW1 3202   0.306   3.582   5.015
 1060SOL    HW2 3203   0.233   3.614   4.872
 1061SOL     OW 3204   0.940   3.560   4.628
 1061SOL    HW1 3205   1.020   3.503   4.649
 1061SOL    HW2 3206   0.891   3.520   4.551
 1062SOL     OW 3207   0.382   2.562   4.204
 1062SOL    HW1 3208   0.427   2.472   4.201
 1062SOL    HW2 3209   0.288   2.551   4.237
 1063SOL     OW 3210   0.614   1.984   3.841
 1063SOL    HW1 3211   0.712   1.962   3.848
 1063SOL    HW2 3212   0.583   1.967   3.748
 1064SOL     OW 3213   0.888   3.376   4.919
 1064SOL    HW1 3214   0.865   3.351   4.825
 1064SOL    HW2 3215   0.949   3.307   4.958
 1065SOL     OW 3216   0.803   3.264   4.648
 1065SOL    HW1 3217   0.893   3.278   4.606
 1065SOL    HW2 3218   0.732   3.266   4.577
 1066SOL     OW 3219   0.922   2.365   4.623
 1066SOL    HW1 3220   0.897   2.356   4.527
 1066SOL    HW2 3221   0.970   2.283   4.654
 1067SOL     OW 3222   0.539   1.926   4.236
 1067SOL    HW1 3223   0.458   1.927   4.294
 1067SOL    HW2 3224   0.542   2.009   4.181
 1068SOL     OW 3225   1.434   3.050   3.765
 1068SOL    HW1 3226   1.466   2.974   3.822
 1068SOL    HW2 3227   1.342   3.077   3.795
 1069SOL     OW 3228   0.297   1.897   3.895
 1069SOL    HW1 3229   0.346   1.981   3.874
 1069SOL    HW2 3230   0.359   1.832   3.940
 1070SOL     OW 3231   0.935   2.098   4.204
 1070SOL    HW1 3232   0.887   2.139   4.126
 1070SOL    HW2 3233   1.034   2.096   4.185
 1071SOL     OW 3234   1.227   3.432   4.517
 1071SOL    HW1 3235   1.248   3.506   4.452
 1071SOL    HW2 3236   1.295   3.432   4.590
 1072SOL     OW 3237   0.459   3.014   4.465
 1072SOL    HW1 3238   0.388   2.987   4.530
 1072SOL    HW2 3239   0.433   2.986   4.372
 1073SOL     OW 3240   1.271   3.659   4.315
 1073SOL    HW1 3241   1.315   3.723   4.251
 1073SOL    HW2 3242   1.221   3.711   4.385
 1074SOL     OW 3243   1.032   2.411   3.740
 1074SOL    HW1 3244   0.991   2.493   3.701
 1074SOL    HW2 3245   1.096   2.437   3.813
 1075SOL     OW 3246   0.561   2.084   4.871
 1075SOL    HW1 3247   0.599   2.000   4.908
 1075SOL    HW2 3248   0.473   2.103   4.915
 1076SOL     OW 3249   0.866   2.316   4.366
 1076SOL    HW1 3250   0.834   2.388   4.304
 1076SOL    HW2 3251   0.890   2.235   4.313
 1077SOL     OW 3252   1.017   1.901   4.477
 1077SOL    HW1 3253   0.945   1.906   4.408
 1077SOL    HW2 3254   0.993   1.832   4.546
 1078SOL     OW 3255   1.429   3.035   4.591
 1078SOL    HW1 3256   1.374   2.951   4.584
 1078SOL    HW2 3257   1.455   3.064   4.499
 1079SOL     OW 3258   1.466   2.452   4.716
 1079SOL    HW1 3259   1.436   2.357   4.723
 1079SOL    HW2 3260   1.539   2.468   4.782
 1080SOL     OW 3261   1.857   2.695   4.101
 1080SOL    HW1 3262   1.899   2.631   4.165
 1080SOL    HW2 3263   1.819   2.644   4.023
 1081SOL     OW 3264   0.488   3.247   3.898
 1081SOL    HW1 3265   0.401   3.232   3.945
 1081SOL    HW2 3266   0.471   3.273   3.803
 1082SOL     OW 3267   1.664   3.142   4.381
 1082SOL    HW1 3268   1.763   3.150   4.395
 1082SOL    HW2 3269   1.619   3.226   4.412
 1083SOL     OW 3270   1.390   2.437   3.802
 1083SOL    HW1 3271   1.336   2.416   3.883
 1083SOL    HW2 3272   1.481   2.396   3.811
 1084SOL     OW 3273   0.527   2.118   4.052
 1084SOL    HW1 3274   0.554   2.059   3.977
 1084SOL    HW2 3275   0.527   2.213   4.021
 1085SOL     OW 3276   1.754   3.085   5.312
 1085SOL    HW1 3277   1.845   3.046   5.299
 1085SOL    HW2 3278   1.762   3.181   5.336
 1086SOL     OW 3279   1.111   3.057   4.824
 1086SOL    HW1 3280   1.071   3.101   4.905
 1086SOL    HW2 3281   1.070   3.094   4.741
 1087SOL     OW 3282   1.638   2.961   4.803
 1087SOL    HW1 3283   1.643   3.042   4.862
 1087SOL    HW2 3284   1.552   2.963   4.752
 1088SOL     OW 3285   0.705   2.912   4.092
 1088SOL    HW1 3286   0.691   2.919   4.191
 1088SOL    HW2 3287   0.789   2.861   4.074
 1089SOL     OW 3288   0.410   2.675   4.975
 1089SOL    HW1 3289   0.496   2.687   5.025
 1089SOL    HW2 3290   0.368   2.588   5.002
 1090SOL     OW 3291   1.274   2.248   4.986
 1090SOL    HW1 3292   1.295   2.322   5.050
 1090SOL    HW2 3293   1.185   2.265   4.943
 1091SOL     OW 3294   0.064   3.426   5.055
 1091SOL    HW1 3295   0.018   3.508   5.021
 1091SOL    HW2 3296   0.162   3.445   5.064
 1092SOL     OW 3297   0.367   2.962   4.225
 1092SOL    HW1 3298   0.360   3.045   4.169
 1092SOL    HW2 3299   0.371   2.882   4.165
 1093SOL     OW 3300   0.566   2.399   4.589
 1093SOL    HW1 3301   0.578   2.465   4.515
 1093SOL    HW2 3302   0.612   2.433   4.672
 1094SOL     OW 3303   1.252   3.210   4.112
 1094SOL    HW1 3304   1.302   3.287   4.152
 1094SOL    HW2 3305   1.157   3.212   4.144
 1095SOL     OW 3306   1.272   3.307   4.866
 1095SOL    HW1 3307   1.319   3.320   4.953
 1095SOL    HW2 3308   1.206   3.233   4.875
 1096SOL     OW 3309   1.582   2.501   4.196
 1096SOL    HW1 3310   1.551   2.562   4.269
 1096SOL    HW2 3311   1.632   2.553   4.127
 1097SOL     OW 3312   0.354   3.372   5.053
 1097SOL    HW1 3313   0.333   3.328   4.966
 1097SOL    HW2 3314   0.451   3.398   5.056
 1098SOL     OW 3315   0.573   2.732   4.753
 1098SOL    HW1 3316   0.617   2.821   4.744
 1098SOL    HW2 3317   0.510   2.732   4.830
 1099SOL     OW 3318   1.360   2.724   4.769
 1099SOL    HW1 3319   1.285   2.724   4.703
 1099SOL    HW2 3320   1.397   2.632   4.778
 1100SOL     OW 3321   1.209   2.387   3.999
 1100SOL    HW1 3322   1.222   2.303   4.053
 1100SOL    HW2 3323   1.180   2.461   4.059
 1101SOL     OW 3324   0.307   2.075   4.955
 1101SOL    HW1 3325   0.284   2.112   5.045
 1101SOL    HW2 3326   0.277   1.980   4.949
 1102SOL     OW 3327   0.037   3.172   5.006
 1102SOL    HW1 3328   0.090   3.123   5.074
 1102SOL    HW2 3329   0.059   3.270   5.011
 1103SOL     OW 3330   0.732   2.496   4.788
 1103SOL    HW1 3331   0.791   2.470   4.712
 1103SOL    HW2 3332   0.704   2.592   4.777
 1104SOL     OW 3333   0.307   1.925   4.342
 1104SOL    HW1 3334   0.296   2.019   4.375
 1104SOL    HW2 3335   0.302   1.862   4.419
 1105SOL     OW 3336   1.622   2.229   4.098
 1105SOL    HW1 3337   1.624   2.153   4.162
 1105SOL    HW2 3338   1.574   2.306   4.138
 1106SOL     OW 3339   1.023   2.628   4.690
 1106SOL    HW1 3340   1.038   2.649   4.786
 1106SOL    HW2 3341   0.993   2.533   4.681
 1107SOL     OW 3342   1.540   2.136   3.849
 1107SOL    HW1 3343   1.479   2.061   3.872
 1107SOL    HW2 3344   1.562   2.188   3.932
 1108SOL     OW 3345   1.303   2.700   3.766
 1108SOL    HW1 3346   1.337   2.607   3.781
 1108SOL    HW2 3347   1.321   2.727   3.671
 1109SOL     OW 3348   1.068   3.195   4.573
 1109SOL    HW1 3349   1.075   3.111   4.518
 1109SOL    HW2 3350   1.130   3.264   4.537
 1110SOL     OW 3351   0.319   2.672   4.673
 1110SOL    HW1 3352   0.412   2.708   4.678
 1110SOL    HW2 3353   0.313   2.587   4.725
 1111SOL     OW 3354   0.339   2.371   4.730
 1111SOL    HW1 3355   0.287   2.288   4.713
 1111SOL    HW2 3356   0.416   2.376   4.666
 1112SOL     OW 3357   1.160   2.069   5.201
 1112SOL    HW1 3358   1.160   2.133   5.278
 1112SOL    HW2 3359   1.188   2.117   5.118
 1113SOL     OW 3360   0.008   3.188   3.924
 1113SOL    HW1 3361  -0.085   3.209   3.893
 1113SOL    HW2 3362   0.018   3.089   3.937
 1114SOL     OW 3363   0.088   3.663   4.651
 1114SOL    HW1 3364   0.046   3.577   4.624
 1114SOL    HW2 3365   0.182   3.666   4.617
 1115SOL     OW 3366   0.504   3.430   4.634
 1115SOL    HW1 3367   0.570   3.504   4.643
 1115SOL    HW2 3368   0.548   3.351   4.592
 1116SOL     OW 3369   1.002   2.658   4.962
 1116SOL    HW1 3370   1.043   2.626   5.048
 1116SOL    HW2 3371   0.906   2.631   4.959
 1117SOL     OW 3372   0.040   2.406   4.838
 1117SOL    HW1 3373   0.125   2.373   4.797
 1117SOL    HW2 3374   0.053   2.421   4.936
 1118SOL     OW 3375   0.815   2.434   4.049
 1118SOL    HW1 3376   0.822   2.345   4.003
 1118SOL    HW2 3377   0.721   2.468   4.041
 1119SOL     OW 3378   1.657   2.466   4.930
 1119SOL    HW1 3379   1.619   2.397   4.992
 1119SOL    HW2 3380   1.739   2.430   4.886
 1120SOL     OW 3381   0.671   2.326   4.993
 1120SOL    HW1 3382   0.637   2.237   4.963
 1120SOL    HW2 3383   0.697   2.380   4.913
 1121SOL     OW 3384   0.930   3.540   5.189
 1121SOL    HW1 3385   0.906   3.522   5.094
 1121SOL    HW2 3386   0.960   3.634   5.199
 1122SOL     OW 3387   0.473   2.362   3.915
 1122SOL    HW1 3388   0.534   2.442   3.919
 1122SOL    HW2 3389   0.378   2.393   3.922
 1123SOL     OW 3390   0.159   2.999   5.190
 1123SOL    HW1 3391   0.181   2.938   5.266
 1123SOL    HW2 3392   0.169   2.950   5.104
 1124SOL     OW 3393   1.347   2.921   4.958
 1124SOL    HW1 3394   1.371   2.858   4.884
 1124SOL    HW2 3395   1.257   2.961   4.940
 1125SOL     OW 3396   1.302   2.717   4.033
 1125SOL    HW1 3397   1.216   2.686   4.075
 1125SOL    HW2 3398   1.298   2.703   3.934
 1126SOL     OW 3399   1.759   3.609   4.878
 1126SOL    HW1 3400   1.820   3.639   4.805
 1126SOL    HW2 3401   1.721   3.520   4.856
 1127SOL     OW 3402   1.252   3.593   4.852
 1127SOL    HW1 3403   1.336   3.598   4.798
 1127SOL    HW2 3404   1.229   3.497   4.870
 1128SOL     OW 3405   0.083   3.120   4.746
 1128SOL    HW1 3406   0.078   3.119   4.846
 1128SOL    HW2 3407   0.000   3.079   4.708
 1129SOL     OW 3408   1.726   1.997   4.247
 1129SOL    HW1 3409   1.799   1.980   4.180
 1129SOL    HW2 3410   1.695   1.910   4.285
 1130SOL     OW 3411   1.388   3.435   4.201
 1130SOL    HW1 3412   1.455   3.447   4.127
 1130SOL    HW2 3413   1.348   3.524   4.224
 1131SOL     OW 3414   1.280   2.789   4.396
 1131SOL    HW1 3415   1.340   2.708   4.398
 1131SOL    HW2 3416   1.320   2.858   4.336
 1132SOL     OW 3417   0.672   3.478   3.878
 1132SOL    HW1 3418   0.681   3.488   3.779
 1132SOL    HW2 3419   0.632   3.389   3.899
 1133SOL     OW 3420   1.841   2.037   4.687
 1133SOL    HW1 3421   1.880   1.952   4.651
 1133SOL    HW2 3422   1.743   2.039   4.668
 1134SOL     OW 3423   0.263   2.188   4.444
 1134SOL    HW1 3424   0.184   2.239   4.410
 1134SOL    HW2 3425   0.254   2.173   4.542
 1135SOL     OW 3426   1.194   3.474   3.755
 1135SOL    HW1 3427   1.200   3.381   3.792
 1135SOL    HW2 3428   1.135   3.474   3.675
 1136SOL     OW 3429   0.822   2.864   5.096
 1136SOL    HW1 3430   0.862   2.863   5.004
 1136SOL    HW2 3431   0.832   2.956   5.136
 1137SOL     OW 3432   0.916   2.772   4.015
 1137SOL    HW1 3433   0.979   2.810   3.947
 1137SOL    HW2 3434   0.956   2.689   4.054
 1138SOL     OW 3435   1.504   3.469   3.768
 1138SOL    HW1 3436   1.412   3.506   3.775
 1138SOL    HW2 3437   1.542   3.489   3.678
 1139SOL     OW 3438   1.614   3.154   5.013
 1139SOL    HW1 3439   1.674   3.157   5.093
 1139SOL    HW2 3440   1.539   3.218   5.026
 1140SOL     OW 3441   1.039   2.960   4.420
 1140SOL    HW1 3442   0.969   2.913   4.474
 1140SOL    HW2 3443   1.098   2.892   4.377
 1141SOL     OW 3444   1.014   2.098   4.695
 1141SOL    HW1 3445   1.006   2.062   4.602
 1141SOL    HW2 3446   1.012   2.022   4.760
 1142SOL     OW 3447   0.590   3.349   4.215
 1142SOL    HW1 3448   0.632   3.291   4.145
 1142SOL    HW2 3449   0.546   3.428   4.171
 1143SOL     OW 3450   1.709   2.247   5.105
 1143SOL    HW1 3451   1.782   2.316   5.109
 1143SOL    HW2 3452   1.737   2.172   5.046
 1144SOL     OW 3453   0.255   3.210   4.014
 1144SOL    HW1 3454   0.159   3.211   3.987
 1144SOL    HW2 3455   0.267   3.263   4.098
 1145SOL     OW 3456   0.672   2.065   5.213
 1145SOL    HW1 3457   0.762   2.049   5.173
 1145SOL    HW2 3458   0.680   2.070   5.312
 1146SOL     OW 3459   0.075   2.207   3.757
 1146SOL    HW1 3460  -0.017   2.179   3.728
 1146SOL    HW2 3461   0.106   2.284   3.701
 1147SOL     OW 3462   0.072   2.028   4.042
 1147SOL    HW1 3463   0.055   2.111   3.988
 1147SOL    HW2 3464   0.162   1.991   4.020
 1148SOL     OW 3465   1.183   3.197   3.843
 1148SOL    HW1 3466   1.084   3.186   3.845
 1148SOL    HW2 3467   1.217   3.212   3.936
 1149SOL     OW 3468   0.613   2.704   5.155
 1149SOL    HW1 3469   0.669   2.785   5.138
 1149SOL    HW2 3470   0.672   2.624   5.158
 1150SOL     OW 3471   1.493   3.629   4.683
 1150SOL    HW1 3472   1.526   3.693   4.614
 1150SOL    HW2 3473   1.559   3.623   4.758
 1151SOL     OW 3474   0.390   3.603   5.284
 1151SOL    HW1 3475   0.299   3.644   5.282
 1151SOL    HW2 3476   0.383   3.509   5.316
 1152SOL     OW 3477   1.674   2.745   4.978
 1152SOL    HW1 3478   1.647   2.656   4.941
 1152SOL    HW2 3479   1.675   2.813   4.905
 1153SOL     OW 3480   1.225   2.187   4.173
 1153SOL    HW1 3481   1.290   2.113   4.162
 1153SOL    HW2 3482   1.245   2.237   4.257
 1154SOL     OW 3483   0.594   2.607   4.376
 1154SOL    HW1 3484   0.644   2.692   4.357
 1154SOL    HW2 3485   0.506   2.609   4.328
 1155SOL     OW 3486   1.777   2.204   5.366
 1155SOL    HW1 3487   1.760   2.235   5.272
 1155SOL    HW2 3488   1.693   2.167   5.404
 1156SOL     OW 3489   1.730   2.796   5.241
 1156SOL    HW1 3490   1.768   2.887   5.256
 1156SOL    HW2 3491   1.722   2.779   5.142
 1157SOL     OW 3492   0.859   3.236   3.740
 1157SOL    HW1 3493   0.813   3.251   3.828
 1157SOL    HW2 3494   0.903   3.321   3.710
 1158SOL     OW 3495   0.661   3.652   4.677
 1158SOL    HW1 3496   0.615   3.740   4.664
 1158SOL    HW2 3497   0.760   3.664   4.670
 1159SOL     OW 3498   0.859   2.818   4.585
 1159SOL    HW1 3499   0.913   2.749   4.633
 1159SOL    HW2 3500   0.827   2.887   4.651
 1160SOL     OW 3501   1.083   2.846   3.811
 1160SOL    HW1 3502   1.060   2.899   3.729
 1160SOL    HW2 3503   1.164   2.790   3.792
 1161SOL     OW 3504   1.861   3.431   4.575
 1161SOL    HW1 3505   1.790   3.419   4.505
 1161SOL    HW2 3506   1.862   3.352   4.635
 1162SOL     OW 3507   0.079   3.102   4.377
 1162SOL    HW1 3508   0.078   3.055   4.465
 1162SOL    HW2 3509   0.161   3.074   4.326
 1163SOL     OW 3510   1.824   2.054   4.951
 1163SOL    HW1 3511   1.820   1.964   4.995
 1163SOL    HW2 3512   1.827   2.043   4.852
 1164SOL     OW 3513   0.428   2.286   4.244
 1164SOL    HW1 3514   0.458   2.214   4.182
 1164SOL    HW2 3515   0.389   2.246   4.327
 1165SOL     OW 3516   1.705   3.349   4.828
 1165SOL    HW1 3517   1.612   3.324   4.801
 1165SOL    HW2 3518   1.731   3.299   4.910
 1166SOL     OW 3519   0.317   2.409   5.004
 1166SOL    HW1 3520   0.355   2.350   5.076
 1166SOL    HW2 3521   0.357   2.383   4.916
 1167SOL     OW 3522   0.812   3.448   4.411
 1167SOL    HW1 3523   0.844   3.458   4.317
 1167SOL    HW2 3524   0.733   3.386   4.413
 1168SOL     OW 3525   1.424   2.076   4.836
 1168SOL    HW1 3526   1.476   2.011   4.891
 1168SOL    HW2 3527   1.375   2.139   4.897
 1169SOL     OW 3528   1.001   1.896   4.878
 1169SOL    HW1 3529   0.938   1.824   4.847
 1169SOL    HW2 3530   1.094   1.860   4.878
 1170SOL     OW 3531   0.770   3.192   4.025
 1170SOL    HW1 3532   0.724   3.105   4.042
 1170SOL    HW2 3533   0.861   3.189   4.066
 1171SOL     OW 3534   0.618   3.429   5.008
 1171SOL    HW1 3535   0.613   3.511   5.065
 1171SOL    HW2 3536   0.707   3.426   4.963
 1172SOL     OW 3537   1.352   1.914   3.892
 1172SOL    HW1 3538   1.387   1.873   3.808
 1172SOL    HW2 3539   1.262   1.876   3.912
 1173SOL     OW 3540   1.300   2.315   4.415
 1173SOL    HW1 3541   1.241   2.395   4.419
 1173SOL    HW2 3542   1.315   2.280   4.508
 1174SOL     OW 3543   1.593   2.083   4.606
 1174SOL    HW1 3544   1.509   2.082   4.660
 1174SOL    HW2 3545   1.595   2.166   4.550
 1175SOL     OW 3546   0.039   2.939   4.024
 1175SOL    HW1 3547   0.138   2.928   4.015
 1175SOL    HW2 3548  -0.001   2.853   4.056
 1176SOL     OW 3549   0.875   3.508   4.061
 1176SOL    HW1 3550   0.798   3.473   4.007
 1176SOL    HW2 3551   0.843   3.579   4.123
 1177SOL     OW 3552   0.230   4.352   0.113
 1177SOL    HW1 3553   0.137   4.350   0.150
 1177SOL    HW2 3554   0.231   4.313   0.021
 1178SOL     OW 3555   0.225   3.999   0.996
 1178SOL    HW1 3556   0.260   3.982   1.088
 1178SOL    HW2 3557   0.137   3.954   0.984
 1179SOL     OW 3558   0.019   4.092   0.647
 1179SOL    HW1 3559  -0.063   4.135   0.686
 1179SOL    HW2 3560  -0.009   4.019   0.584
 1180SOL     OW 3561   0.569   4.999   1.165
 1180SOL    HW1 3562   0.476   4.992   1.128
 1180SOL    HW2 3563   0.580   5.088   1.209
 1181SOL     OW 3564   1.555   5.235   0.703
 1181SOL    HW1 3565   1.498   5.219   0.784
 1181SOL    HW2 3566   1.496   5.245   0.623
 1182SOL     OW 3567   1.135   4.427   0.717
 1182SOL    HW1 3568   1.192   4.505   0.692
 1182SOL    HW2 3569   1.075   4.453   0.793
 1183SOL     OW 3570   1.755   4.331   0.231
 1183SOL    HW1 3571   1.743   4.318   0.132
 1183SOL    HW2 3572   1.725   4.250   0.280
 1184SOL     OW 3573   0.768   4.868   1.023
 1184SOL    HW1 3574   0.690   4.885   1.083
 1184SOL    HW2 3575   0.802   4.955   0.987
 1185SOL     OW 3576   0.850   4.522   1.823
 1185SOL    HW1 3577   0.846   4.598   1.888
 1185SOL    HW2 3578   0.872   4.558   1.732
 1186SOL     OW 3579   0.685   4.736   0.665
 1186SOL    HW1 3580   0.754   4.720   0.735
 1186SOL    HW2 3581   0.612   4.793   0.703
 1187SOL     OW 3582   0.686   4.885   1.803
 1187SOL    HW1 3583   0.746   4.964   1.817
 1187SOL    HW2 3584   0.600   4.916   1.762
 1188SOL     OW 3585   0.335   5.159   1.061
 1188SOL    HW1 3586   0.257   5.128   1.008
 1188SOL    HW2 3587   0.393   5.217   1.004
 1189SOL     OW 3588   0.438   4.116   1.499
 1189SOL    HW1 3589   0.520   4.060   1.508
 1189SOL    HW2 3590   0.357   4.058   1.503
 1190SOL     OW 3591   1.603   4.171   0.737
 1190SOL    HW1 3592   1.529   4.217   0.687
 1190SOL    HW2 3593   1.654   4.239   0.790
 1191SOL     OW 3594   0.240   4.815   0.886
 1191SOL    HW1 3595   0.254   4.731   0.938
 1191SOL    HW2 3596   0.185   4.879   0.941
 1192SOL     OW 3597   0.606   4.688   0.123
 1192SOL    HW1 3598   0.613   4.772   0.069
 1192SOL    HW2 3599   0.652   4.701   0.211
 1193SOL     OW 3600   1.594   3.838   1.480
 1193SOL    HW1 3601   1.576   3.905   1.408
 1193SOL    HW2 3602   1.591   3.884   1.569
 1194SOL     OW 3603   0.122   4.367   0.563
 1194SOL    HW1 3604   0.077   4.279   0.580
 1194SOL    HW2 3605   0.121   4.421   0.647
 1195SOL     OW 3606   1.689   4.646   0.612
 1195SOL    HW1 3607   1.784   4.617   0.620
 1195SOL    HW2 3608   1.681   4.711   0.537
 1196SOL     OW 3609   1.641   4.832   0.432
 1196SOL    HW1 3610   1.727   4.834   0.380
 1196SOL    HW2 3611   1.655   4.879   0.520
 1197SOL     OW 3612   0.113   4.461   1.597
 1197SOL    HW1 3613   0.201   4.448   1.642
 1197SOL    HW2 3614   0.100   4.558   1.575
 1198SOL     OW 3615   0.613   5.089   0.726
 1198SOL    HW1 3616   0.564   5.002   0.735
 1198SOL    HW2 3617   0.590   5.132   0.639
 1199SOL     OW 3618   1.293   4.952   1.423
 1199SOL    HW1 3619   1.330   4.879   1.365
 1199SOL    HW2 3620   1.345   4.957   1.508
 1200SOL     OW 3621   0.809   3.728   0.502
 1200SOL    HW1 3622   0.849   3.819   0.493
 1200SOL    HW2 3623   0.709   3.736   0.508
 1201SOL     OW 3624   0.197   4.700   1.264
 1201SOL    HW1 3625   0.286   4.655   1.250
 1201SOL    HW2 3626   0.124   4.635   1.245
 1202SOL     OW 3627   1.525   4.723   0.190
 1202SOL    HW1 3628   1.462   4.647   0.203
 1202SOL    HW2 3629   1.573   4.741   0.276
 1203SOL     OW 3630   0.317   3.975   1.801
 1203SOL    HW1 3631   0.388   4.046   1.807
 1203SOL    HW2 3632   0.229   4.014   1.829
 1204SOL     OW 3633   1.466   5.141   0.953
 1204SOL    HW1 3634   1.407   5.147   1.033
 1204SOL    HW2 3635   1.451   5.053   0.907
 1205SOL     OW 3636   0.598   4.453   0.270
 1205SOL    HW1 3637   0.622   4.522   0.202
 1205SOL    HW2 3638   0.520   4.486   0.324
 1206SOL     OW 3639   1.281   4.069   0.944
 1206SOL    HW1 3640   1.195   4.019   0.931
 1206SOL    HW2 3641   1.343   4.015   1.000
 1207SOL     OW 3642   0.807   4.329   1.465
 1207SOL    HW1 3643   0.760   4.326   1.554
 1207SOL    HW2 3644   0.756   4.274   1.399
 1208SOL     OW 3645   1.394   4.193   1.674
 1208SOL    HW1 3646   1.374   4.236   1.762
 1208SOL    HW2 3647   1.472   4.131   1.683
 1209SOL     OW 3648   0.973   4.614   1.572
 1209SOL    HW1 3649   1.019   4.530   1.543
 1209SOL    HW2 3650   0.917   4.648   1.497
 1210SOL     OW 3651   0.991   4.134   1.242
 1210SOL    HW1 3652   0.914   4.168   1.296
 1210SOL    HW2 3653   0.957   4.083   1.163
 1211SOL     OW 3654   1.041   4.425   0.429
 1211SOL    HW1 3655   1.067   4.421   0.525
 1211SOL    HW2 3656   0.956   4.374   0.415
 1212SOL     OW 3657   0.076   4.535   0.789
 1212SOL    HW1 3658   0.175   4.523   0.798
 1212SOL    HW2 3659   0.052   4.630   0.810
 1213SOL     OW 3660   0.865   4.072   0.195
 1213SOL    HW1 3661   0.924   4.135   0.146
 1213SOL    HW2 3662   0.884   3.978   0.166
 1214SOL     OW 3663   1.719   4.309   1.831
 1214SOL    HW1 3664   1.693   4.398   1.795
 1214SOL    HW2 3665   1.717   4.241   1.758
 1215SOL     OW 3666   1.362   4.868   0.545
 1215SOL    HW1 3667   1.445   4.839   0.497
 1215SOL    HW2 3668   1.313   4.935   0.489
 1216SOL     OW 3669   0.550   3.920   0.885
 1216SOL    HW1 3670   0.545   3.915   0.985
 1216SOL    HW2 3671   0.552   4.016   0.856
 1217SOL     OW 3672   1.795   4.790   0.873
 1217SOL    HW1 3673   1.733   4.775   0.797
 1217SOL    HW2 3674   1.743   4.801   0.958
 1218SOL     OW 3675   0.321   4.667   0.242
 1218SOL    HW1 3676   0.403   4.706   0.200
 1218SOL    HW2 3677   0.294   4.585   0.193
 1219SOL     OW 3678   1.458   4.459   0.728
 1219SOL    HW1 3679   1.453   4.394   0.803
 1219SOL    HW2 3680   1.538   4.518   0.741
 1220SOL     OW 3681   0.461   4.990   1.727
 1220SOL    HW1 3682   0.411   4.991   1.641
 1220SOL    HW2 3683   0.398   4.972   1.803
 1221SOL     OW 3684   0.202   4.009   1.498
 1221SOL    HW1 3685   0.122   4.069   1.485
 1221SOL    HW2 3686   0.192   3.960   1.584
 1222SOL     OW 3687   1.632   5.101   0.081
 1222SOL    HW1 3688   1.600   5.195   0.071
 1222SOL    HW2 3689   1.556   5.038   0.069
 1223SOL     OW 3690   1.400   3.831   0.426
 1223SOL    HW1 3691   1.376   3.794   0.336
 1223SOL    HW2 3692   1.499   3.847   0.430
 1224SOL     OW 3693   0.382   4.424   0.480
 1224SOL    HW1 3694   0.427   4.334   0.477
 1224SOL    HW2 3695   0.288   4.413   0.513
 1225SOL     OW 3696   1.547   3.946   1.729
 1225SOL    HW1 3697   1.542   3.983   1.821
 1225SOL    HW2 3698   1.475   3.877   1.717
 1226SOL     OW 3699   0.781   3.988   1.749
 1226SOL    HW1 3700   0.848   3.927   1.792
 1226SOL    HW2 3701   0.708   4.007   1.814
 1227SOL     OW 3702   1.351   4.314   1.433
 1227SOL    HW1 3703   1.379   4.271   1.518
 1227SOL    HW2 3704   1.376   4.410   1.434
 1228SOL     OW 3705   0.922   4.227   0.899
 1228SOL    HW1 3706   0.897   4.218   0.803
 1228SOL    HW2 3707   0.970   4.145   0.930
 1229SOL     OW 3708   0.539   3.788   0.512
 1229SOL    HW1 3709   0.458   3.789   0.570
 1229SOL    HW2 3710   0.542   3.871   0.457
 1230SOL     OW 3711   1.434   4.912   0.041
 1230SOL    HW1 3712   1.466   4.836   0.098
 1230SOL    HW2 3713   1.342   4.939   0.071
 1231SOL     OW 3714   0.935   3.960   0.480
 1231SOL    HW1 3715   0.887   4.001   0.402
 1231SOL    HW2 3716   1.034   3.958   0.461
 1232SOL     OW 3717   1.076   4.407   1.464
 1232SOL    HW1 3718   0.996   4.346   1.467
 1232SOL    HW2 3719   1.157   4.354   1.440
 1233SOL     OW 3720   1.227   5.294   0.793
 1233SOL    HW1 3721   1.248   5.368   0.728
 1233SOL    HW2 3722   1.295   5.294   0.866
 1234SOL     OW 3723   0.459   4.876   0.741
 1234SOL    HW1 3724   0.388   4.849   0.806
 1234SOL    HW2 3725   0.433   4.848   0.648
 1235SOL     OW 3726   1.032   4.273   0.016
 1235SOL    HW1 3727   0.991   4.355  -0.023
 1235SOL    HW2 3728   1.096   4.299   0.089
 1236SOL     OW 3729   0.078   4.280   1.386
 1236SOL    HW1 3730   0.170   4.279   1.345
 1236SOL    HW2 3731   0.072   4.354   1.453
 1237SOL     OW 3732   0.561   3.946   1.147
 1237SOL    HW1 3733   0.599   3.862   1.184
 1237SOL    HW2 3734   0.473   3.965   1.191
 1238SOL     OW 3735   0.866   4.178   0.642
 1238SOL    HW1 3736   0.834   4.250   0.580
 1238SOL    HW2 3737   0.890   4.097   0.589
 1239SOL     OW 3738   1.017   3.763   0.753
 1239SOL    HW1 3739   0.945   3.768   0.684
 1239SOL    HW2 3740   0.993   3.694   0.822
 1240SOL     OW 3741   1.429   4.897   0.867
 1240SOL    HW1 3742   1.374   4.813   0.860
 1240SOL    HW2 3743   1.455   4.926   0.775
 1241SOL     OW 3744   1.466   4.314   0.992
 1241SOL    HW1 3745   1.436   4.219   0.999
 1241SOL    HW2 3746   1.539   4.330   1.058
 1242SOL     OW 3747   1.857   4.557   0.377
 1242SOL    HW1 3748   1.899   4.493   0.441
 1242SOL    HW2 3749   1.819   4.506   0.299
 1243SOL     OW 3750   1.664   5.004   0.657
 1243SOL    HW1 3751   1.763   5.012   0.671
 1243SOL    HW2 3752   1.619   5.088   0.688
 1244SOL     OW 3753   1.390   4.299   0.078
 1244SOL    HW1 3754   1.336   4.278   0.159
 1244SOL    HW2 3755   1.481   4.258   0.087
 1245SOL     OW 3756   0.527   3.980   0.328
 1245SOL    HW1 3757   0.554   3.921   0.253
 1245SOL    HW2 3758   0.527   4.075   0.297
 1246SOL     OW 3759   1.754   4.947   1.588
 1246SOL    HW1 3760   1.845   4.908   1.575
 1246SOL    HW2 3761   1.762   5.043   1.612
 1247SOL     OW 3762   1.064   5.071   1.340
 1247SOL    HW1 3763   0.984   5.048   1.395
 1247SOL    HW2 3764   1.147   5.045   1.389
 1248SOL     OW 3765   1.111   4.919   1.100
 1248SOL    HW1 3766   1.071   4.963   1.181
 1248SOL    HW2 3767   1.070   4.956   1.017
 1249SOL     OW 3768   1.638   4.823   1.079
 1249SOL    HW1 3769   1.643   4.904   1.138
 1249SOL    HW2 3770   1.552   4.825   1.028
 1250SOL     OW 3771   0.915   3.813   1.402
 1250SOL    HW1 3772   0.940   3.793   1.307
 1250SOL    HW2 3773   0.987   3.869   1.444
 1251SOL     OW 3774   0.980   4.840   1.719
 1251SOL    HW1 3775   0.881   4.846   1.729
 1251SOL    HW2 3776   1.003   4.760   1.663
 1252SOL     OW 3777   0.705   4.774   0.368
 1252SOL    HW1 3778   0.691   4.781   0.467
 1252SOL    HW2 3779   0.789   4.723   0.350
 1253SOL     OW 3780   0.410   4.537   1.251
 1253SOL    HW1 3781   0.496   4.549   1.301
 1253SOL    HW2 3782   0.368   4.450   1.278
 1254SOL     OW 3783   1.274   4.110   1.262
 1254SOL    HW1 3784   1.295   4.184   1.326
 1254SOL    HW2 3785   1.185   4.127   1.219
 1255SOL     OW 3786   0.064   5.288   1.331
 1255SOL    HW1 3787   0.018   5.370   1.297
 1255SOL    HW2 3788   0.162   5.307   1.340
 1256SOL     OW 3789   0.367   4.824   0.501
 1256SOL    HW1 3790   0.360   4.907   0.445
 1256SOL    HW2 3791   0.371   4.744   0.441
 1257SOL     OW 3792   0.566   4.261   0.865
 1257SOL    HW1 3793   0.578   4.327   0.791
 1257SOL    HW2 3794   0.612   4.295   0.948
 1258SOL     OW 3795   1.582   4.363   0.472
 1258SOL    HW1 3796   1.551   4.424   0.545
 1258SOL    HW2 3797   1.632   4.415   0.403
 1259SOL     OW 3798   0.402   4.475   1.598
 1259SOL    HW1 3799   0.470   4.530   1.551
 1259SOL    HW2 3800   0.442   4.387   1.625
 1260SOL     OW 3801   1.587   4.503   1.670
 1260SOL    HW1 3802   1.495   4.541   1.665
 1260SOL    HW2 3803   1.647   4.550   1.605
 1261SOL     OW 3804   1.013   3.829   1.770
 1261SOL    HW1 3805   1.019   3.914   1.718
 1261SOL    HW2 3806   1.045   3.753   1.713
 1262SOL     OW 3807   0.504   3.774   1.740
 1262SOL    HW1 3808   0.462   3.717   1.670
 1262SOL    HW2 3809   0.438   3.843   1.772
 1263SOL     OW 3810   0.573   4.594   1.029
 1263SOL    HW1 3811   0.617   4.683   1.020
 1263SOL    HW2 3812   0.510   4.594   1.106
 1264SOL     OW 3813   1.360   4.586   1.045
 1264SOL    HW1 3814   1.285   4.586   0.979
 1264SOL    HW2 3815   1.397   4.494   1.054
 1265SOL     OW 3816   1.209   4.249   0.275
 1265SOL    HW1 3817   1.222   4.165   0.329
 1265SOL    HW2 3818   1.180   4.323   0.335
 1266SOL     OW 3819   0.307   3.937   1.231
 1266SOL    HW1 3820   0.284   3.974   1.321
 1266SOL    HW2 3821   0.277   3.842   1.225
 1267SOL     OW 3822   0.037   5.034   1.282
 1267SOL    HW1 3823   0.090   4.985   1.350
 1267SOL    HW2 3824   0.059   5.132   1.287
 1268SOL     OW 3825   0.732   4.358   1.064
 1268SOL    HW1 3826   0.791   4.332   0.988
 1268SOL    HW2 3827   0.704   4.454   1.053
 1269SOL     OW 3828   1.728   4.659   1.854
 1269SOL    HW1 3829   1.682   4.652   1.765
 1269SOL    HW2 3830   1.666   4.703   1.920
 1270SOL     OW 3831   0.307   3.787   0.618
 1270SOL    HW1 3832   0.296   3.881   0.651
 1270SOL    HW2 3833   0.302   3.724   0.695
 1271SOL     OW 3834   1.622   4.091   0.374
 1271SOL    HW1 3835   1.624   4.015   0.438
 1271SOL    HW2 3836   1.574   4.168   0.414
 1272SOL     OW 3837   1.023   4.490   0.966
 1272SOL    HW1 3838   1.038   4.511   1.062
 1272SOL    HW2 3839   0.993   4.395   0.957
 1273SOL     OW 3840   1.859   5.242   1.605
 1273SOL    HW1 3841   1.873   5.269   1.510
 1273SOL    HW2 3842   1.942   5.264   1.658
 1274SOL     OW 3843   0.350   4.622   1.804
 1274SOL    HW1 3844   0.426   4.666   1.852
 1274SOL    HW2 3845   0.385   4.575   1.722
 1275SOL     OW 3846   1.540   3.998   0.125
 1275SOL    HW1 3847   1.479   3.923   0.148
 1275SOL    HW2 3848   1.562   4.050   0.208
 1276SOL     OW 3849   1.303   4.562   0.042
 1276SOL    HW1 3850   1.337   4.469   0.057
 1276SOL    HW2 3851   1.321   4.589  -0.053
 1277SOL     OW 3852   0.319   4.534   0.949
 1277SOL    HW1 3853   0.412   4.570   0.954
 1277SOL    HW2 3854   0.313   4.449   1.001
 1278SOL     OW 3855   0.339   4.233   1.006
 1278SOL    HW1 3856   0.287   4.150   0.989
 1278SOL    HW2 3857   0.416   4.238   0.942
 1279SOL     OW 3858   1.138   4.104   1.678
 1279SOL    HW1 3859   1.093   4.167   1.742
 1279SOL    HW2 3860   1.231   4.135   1.661
 1280SOL     OW 3861   1.160   3.931   1.477
 1280SOL    HW1 3862   1.160   3.995   1.554
 1280SOL    HW2 3863   1.188   3.979   1.394
 1281SOL     OW 3864   0.008   5.050   0.200
 1281SOL    HW1 3865  -0.085   5.071   0.169
 1281SOL    HW2 3866   0.018   4.951   0.213
 1282SOL     OW 3867   1.002   4.520   1.238
 1282SOL    HW1 3868   1.043   4.488   1.324
 1282SOL    HW2 3869   0.906   4.493   1.235
 1283SOL     OW 3870   0.040   4.268   1.114
 1283SOL    HW1 3871   0.125   4.235   1.073
 1283SOL    HW2 3872   0.053   4.283   1.212
 1284SOL     OW 3873   0.189   4.244   1.722
 1284SOL    HW1 3874   0.248   4.204   1.652
 1284SOL    HW2 3875   0.131   4.315   1.681
 1285SOL     OW 3876   1.369   4.674   1.660
 1285SOL    HW1 3877   1.408   4.763   1.680
 1285SOL    HW2 3878   1.379   4.654   1.563
 1286SOL     OW 3879   0.815   4.296   0.325
 1286SOL    HW1 3880   0.822   4.207   0.279
 1286SOL    HW2 3881   0.721   4.330   0.317
 1287SOL     OW 3882   1.657   4.328   1.206
 1287SOL    HW1 3883   1.619   4.259   1.268
 1287SOL    HW2 3884   1.739   4.292   1.162
 1288SOL     OW 3885   0.671   4.188   1.269
 1288SOL    HW1 3886   0.637   4.099   1.239
 1288SOL    HW2 3887   0.697   4.242   1.189
 1289SOL     OW 3888   0.473   4.224   0.191
 1289SOL    HW1 3889   0.534   4.304   0.195
 1289SOL    HW2 3890   0.378   4.255   0.198
 1290SOL     OW 3891   0.159   4.861   1.466
 1290SOL    HW1 3892   0.181   4.800   1.542
 1290SOL    HW2 3893   0.169   4.812   1.380
 1291SOL     OW 3894   1.347   4.783   1.234
 1291SOL    HW1 3895   1.371   4.720   1.160
 1291SOL    HW2 3896   1.257   4.823   1.216
 1292SOL     OW 3897   1.302   4.579   0.309
 1292SOL    HW1 3898   1.216   4.548   0.351
 1292SOL    HW2 3899   1.298   4.565   0.210
 1293SOL     OW 3900   0.083   4.982   1.022
 1293SOL    HW1 3901   0.078   4.981   1.122
 1293SOL    HW2 3902   0.000   4.941   0.984
 1294SOL     OW 3903   0.903   3.810   0.133
 1294SOL    HW1 3904   0.954   3.811   0.047
 1294SOL    HW2 3905   0.959   3.768   0.204
 1295SOL     OW 3906   1.726   3.859   0.523
 1295SOL    HW1 3907   1.799   3.842   0.456
 1295SOL    HW2 3908   1.695   3.772   0.561
 1296SOL     OW 3909   1.280   4.651   0.672
 1296SOL    HW1 3910   1.340   4.570   0.674
 1296SOL    HW2 3911   1.320   4.720   0.612
 1297SOL     OW 3912   0.830   4.997   1.422
 1297SOL    HW1 3913   0.825   5.030   1.517
 1297SOL    HW2 3914   0.744   5.016   1.376
 1298SOL     OW 3915   1.841   3.899   0.963
 1298SOL    HW1 3916   1.880   3.814   0.927
 1298SOL    HW2 3917   1.743   3.901   0.944
 1299SOL     OW 3918   0.263   4.050   0.720
 1299SOL    HW1 3919   0.184   4.101   0.686
 1299SOL    HW2 3920   0.254   4.035   0.818
 1300SOL     OW 3921   0.822   4.726   1.372
 1300SOL    HW1 3922   0.862   4.725   1.280
 1300SOL    HW2 3923   0.832   4.818   1.412
 1301SOL     OW 3924   0.916   4.634   0.291
 1301SOL    HW1 3925   0.979   4.672   0.223
 1301SOL    HW2 3926   0.956   4.551   0.330
 1302SOL     OW 3927   0.372   5.012   1.490
 1302SOL    HW1 3928   0.359   5.105   1.456
 1302SOL    HW2 3929   0.288   4.960   1.477
 1303SOL     OW 3930   1.614   5.016   1.289
 1303SOL    HW1 3931   1.674   5.019   1.369
 1303SOL    HW2 3932   1.539   5.080   1.302
 1304SOL     OW 3933   1.039   4.822   0.696
 1304SOL    HW1 3934   0.969   4.775   0.750
 1304SOL    HW2 3935   1.098   4.754   0.653
 1305SOL     OW 3936   1.014   3.960   0.971
 1305SOL    HW1 3937   1.006   3.924   0.878
 1305SOL    HW2 3938   1.012   3.884   1.036
 1306SOL     OW 3939   1.709   4.109   1.381
 1306SOL    HW1 3940   1.782   4.178   1.385
 1306SOL    HW2 3941   1.737   4.034   1.322
 1307SOL     OW 3942   0.105   4.737   1.726
 1307SOL    HW1 3943   0.028   4.704   1.780
 1307SOL    HW2 3944   0.190   4.707   1.768
 1308SOL     OW 3945   0.672   3.927   1.489
 1308SOL    HW1 3946   0.762   3.911   1.449
 1308SOL    HW2 3947   0.680   3.932   1.588
 1309SOL     OW 3948   0.075   4.069   0.033
 1309SOL    HW1 3949  -0.017   4.041   0.004
 1309SOL    HW2 3950   0.106   4.146  -0.023
 1310SOL     OW 3951   1.440   4.580   1.398
 1310SOL    HW1 3952   1.383   4.632   1.335
 1310SOL    HW2 3953   1.536   4.592   1.374
 1311SOL     OW 3954   0.072   3.890   0.318
 1311SOL    HW1 3955   0.055   3.973   0.264
 1311SOL    HW2 3956   0.162   3.853   0.296
 1312SOL     OW 3957   0.613   4.566   1.431
 1312SOL    HW1 3958   0.669   4.647   1.414
 1312SOL    HW2 3959   0.672   4.486   1.434
 1313SOL     OW 3960   0.716   4.289   1.708
 1313SOL    HW1 3961   0.735   4.354   1.782
 1313SOL    HW2 3962   0.776   4.209   1.717
 1314SOL     OW 3963   1.450   4.944   1.633
 1314SOL    HW1 3964   1.441   4.934   1.732
 1314SOL    HW2 3965   1.546   4.937   1.607
 1315SOL     OW 3966   1.674   4.607   1.254
 1315SOL    HW1 3967   1.647   4.518   1.217
 1315SOL    HW2 3968   1.675   4.675   1.181
 1316SOL     OW 3969   1.225   4.049   0.449
 1316SOL    HW1 3970   1.290   3.975   0.438
 1316SOL    HW2 3971   1.245   4.099   0.533
 1317SOL     OW 3972   0.594   4.469   0.652
 1317SOL    HW1 3973   0.644   4.554   0.633
 1317SOL    HW2 3974   0.506   4.471   0.604
 1318SOL     OW 3975   1.777   4.066   1.642
 1318SOL    HW1 3976   1.760   4.097   1.548
 1318SOL    HW2 3977   1.693   4.029   1.680
 1319SOL     OW 3978   1.730   4.658   1.517
 1319SOL    HW1 3979   1.768   4.749   1.532
 1319SOL    HW2 3980   1.722   4.641   1.418
 1320SOL     OW 3981   0.859   4.680   0.861
 1320SOL    HW1 3982   0.913   4.611   0.909
 1320SOL    HW2 3983   0.827   4.749   0.927
 1321SOL     OW 3984   1.083   4.708   0.087
 1321SOL    HW1 3985   1.060   4.761   0.005
 1321SOL    HW2 3986   1.164   4.652   0.068
 1322SOL     OW 3987   0.221   5.038   1.844
 1322SOL    HW1 3988   0.156   4.965   1.823
 1322SOL    HW2 3989   0.225   5.052   1.942
 1323SOL     OW 3990   0.079   4.964   0.653
 1323SOL    HW1 3991   0.078   4.917   0.741
 1323SOL    HW2 3992   0.161   4.936   0.602
 1324SOL     OW 3993   0.672   5.115   1.624
 1324SOL    HW1 3994   0.594   5.065   1.662
 1324SOL    HW2 3995   0.669   5.210   1.655
 1325SOL     OW 3996   1.824   3.916   1.227
 1325SOL    HW1 3997   1.820   3.826   1.271
 1325SOL    HW2 3998   1.827   3.905   1.128
 1326SOL     OW 3999   0.428   4.148   0.520
 1326SOL    HW1 4000   0.458   4.076   0.458
 1326SOL    HW2 4001   0.389   4.108   0.603
 1327SOL     OW 4002   1.705   5.211   1.104
 1327SOL    HW1 4003   1.612   5.186   1.077
 1327SOL    HW2 4004   1.731   5.161   1.186
 1328SOL     OW 4005   0.317   4.271   1.280
 1328SOL    HW1 4006   0.355   4.212   1.352
 1328SOL    HW2 4007   0.357   4.245   1.192
 1329SOL     OW 4008   1.424   3.938   1.112
 1329SOL    HW1 4009   1.476   3.873   1.167
 1329SOL    HW2 4010   1.375   4.001   1.173
 1330SOL     OW 4011   1.001   3.758   1.154
 1330SOL    HW1 4012   0.938   3.686   1.123
 1330SOL    HW2 4013   1.094   3.722   1.154
 1331SOL     OW 4014   0.770   5.054   0.301
 1331SOL    HW1 4015   0.724   4.967   0.318
 1331SOL    HW2 4016   0.861   5.051   0.342
 1332SOL     OW 4017   1.352   3.776   0.168
 1332SOL    HW1 4018   1.387   3.735   0.084
 1332SOL    HW2 4019   1.262   3.738   0.188
 1333SOL     OW 4020   1.300   4.177   0.691
 1333SOL    HW1 4021   1.241   4.257   0.695
 1333SOL    HW2 4022   1.315   4.142   0.784
 1334SOL     OW 4023   1.593   3.945   0.882
 1334SOL    HW1 4024   1.509   3.944   0.936
 1334SOL    HW2 4025   1.595   4.028   0.826
 1335SOL     OW 4026   0.039   4.801   0.300
 1335SOL    HW1 4027   0.138   4.790   0.291
 1335SOL    HW2 4028  -0.001   4.715   0.332
 1336SOL     OW 4029   0.230   4.352   1.975
 1336SOL    HW1 4030   0.137   4.350   2.012
 1336SOL    HW2 4031   0.231   4.313   1.883
 1337SOL     OW 4032   0.225   3.999   2.858
 1337SOL    HW1 4033   0.260   3.982   2.950
 1337SOL    HW2 4034   0.137   3.954   2.846
 1338SOL     OW 4035   0.019   4.092   2.509
 1338SOL    HW1 4036  -0.063   4.135   2.548
 1338SOL    HW2 4037  -0.009   4.019   2.446
 1339SOL     OW 4038   0.569   4.999   3.027
 1339SOL    HW1 4039   0.476   4.992   2.990
 1339SOL    HW2 4040   0.580   5.088   3.071
 1340SOL     OW 4041   1.555   5.235   2.565
 1340SOL    HW1 4042   1.498   5.219   2.646
 1340SOL    HW2 4043   1.496   5.245   2.485
 1341SOL     OW 4044   1.135   4.427   2.579
 1341SOL    HW1 4045   1.192   4.505   2.554
 1341SOL    HW2 4046   1.075   4.453   2.655
 1342SOL     OW 4047   1.755   4.331   2.093
 1342SOL    HW1 4048   1.743   4.318   1.994
 1342SOL    HW2 4049   1.725   4.250   2.142
 1343SOL     OW 4050   0.768   4.868   2.885
 1343SOL    HW1 4051   0.690   4.885   2.945
 1343SOL    HW2 4052   0.802   4.955   2.849
 1344SOL     OW 4053   0.850   4.522   3.685
 1344SOL    HW1 4054   0.846   4.598   3.750
 1344SOL    HW2 4055   0.872   4.558   3.594
 1345SOL     OW 4056   0.685   4.736   2.527
 1345SOL    HW1 4057   0.754   4.720   2.597
 1345SOL    HW2 4058   0.612   4.793   2.565
 1346SOL     OW 4059   0.686   4.885   3.665
 1346SOL    HW1 4060   0.746   4.964   3.679
 1346SOL    HW2 4061   0.600   4.916   3.624
 1347SOL     OW 4062   0.335   5.159   2.923
 1347SOL    HW1 4063   0.257   5.128   2.870
 1347SOL    HW2 4064   0.393   5.217   2.866
 1348SOL     OW 4065   0.438   4.116   3.361
 1348SOL    HW1 4066   0.520   4.060   3.370
 1348SOL    HW2 4067   0.357   4.058   3.365
 1349SOL     OW 4068   1.603   4.171   2.599
 1349SOL    HW1 4069   1.529   4.217   2.549
 1349SOL    HW2 4070   1.654   4.239   2.652
 1350SOL     OW 4071   0.240   4.815   2.748
 1350SOL    HW1 4072   0.254   4.731   2.800
 1350SOL    HW2 4073   0.185   4.879   2.803
 1351SOL     OW 4074   0.606   4.688   1.985
 1351SOL    HW1 4075   0.613   4.772   1.931
 1351SOL    HW2 4076   0.652   4.701   2.073
 1352SOL     OW 4077   1.594   3.838   3.342
 1352SOL    HW1 4078   1.576   3.905   3.270
 1352SOL    HW2 4079   1.591   3.884   3.431
 1353SOL     OW 4080   0.122   4.367   2.425
 1353SOL    HW1 4081   0.077   4.279   2.442
 1353SOL    HW2 4082   0.121   4.421   2.509
 1354SOL     OW 4083   1.689   4.646   2.474
 1354SOL    HW1 4084   1.784   4.617   2.482
 1354SOL    HW2 4085   1.681   4.711   2.399
 1355SOL     OW 4086   1.641   4.832   2.294
 1355SOL    HW1 4087   1.727   4.834   2.242
 1355SOL    HW2 4088   1.655   4.879   2.382
 1356SOL     OW 4089   0.113   4.461   3.459
 1356SOL    HW1 4090   0.201   4.448   3.504
 1356SOL    HW2 4091   0.100   4.558   3.437
 1357SOL     OW 4092   0.613   5.089   2.588
 1357SOL    HW1 4093   0.564   5.002   2.597
 1357SOL    HW2 4094   0.590   5.132   2.501
 1358SOL     OW 4095   1.293   4.952   3.285
 1358SOL    HW1 4096   1.330   4.879   3.227
 1358SOL    HW2 4097   1.345   4.957   3.370
 1359SOL     OW 4098   0.809   3.728   2.364
 1359SOL    HW1 4099   0.849   3.819   2.355
 1359SOL    HW2 4100   0.709   3.736   2.370
 1360SOL     OW 4101   0.197   4.700   3.126
 1360SOL    HW1 4102   0.286   4.655   3.112
 1360SOL    HW2 4103   0.124   4.635   3.107
 1361SOL     OW 4104   1.525   4.723   2.052
 1361SOL    HW1 4105   1.462   4.647   2.065
 1361SOL    HW2 4106   1.573   4.741   2.138
 1362SOL     OW 4107   0.317   3.975   3.663
 1362SOL    HW1 4108   0.388   4.046   3.669
 1362SOL    HW2 4109   0.229   4.014   3.691
 1363SOL     OW 4110   1.466   5.141   2.815
 1363SOL    HW1 4111   1.407   5.147   2.895
 1363SOL    HW2 4112   1.451   5.053   2.769
 1364SOL     OW 4113   0.598   4.453   2.132
 1364SOL    HW1 4114   0.622   4.522   2.064
 1364SOL    HW2 4115   0.520   4.486   2.186
 1365SOL     OW 4116   1.281   4.069   2.806
 1365SOL    HW1 4117   1.195   4.019   2.793
 1365SOL    HW2 4118   1.343   4.015   2.862
 1366SOL     OW 4119   0.807   4.329   3.327
 1366SOL    HW1 4120   0.760   4.326   3.416
 1366SOL    HW2 4121   0.756   4.274   3.261
 1367SOL     OW 4122   1.394   4.193   3.536
 1367SOL    HW1 4123   1.374   4.236   3.624
 1367SOL    HW2 4124   1.472   4.131   3.545
 1368SOL     OW 4125   0.973   4.614   3.434
 1368SOL    HW1 4126   1.019   4.530   3.405
 1368SOL    HW2 4127   0.917   4.648   3.359
 1369SOL     OW 4128   0.991   4.134   3.104
 1369SOL    HW1 4129   0.914   4.168   3.158
 1369SOL    HW2 4130   0.957   4.083   3.025
 1370SOL     OW 4131   1.041   4.425   2.291
 1370SOL    HW1 4132   1.067   4.421   2.387
 1370SOL    HW2 4133   0.956   4.374   2.277
 1371SOL     OW 4134   0.076   4.535   2.651
 1371SOL    HW1 4135   0.175   4.523   2.660
 1371SOL    HW2 4136   0.052   4.630   2.672
 1372SOL     OW 4137   0.865   4.072   2.057
 1372SOL    HW1 4138   0.924   4.135   2.008
 1372SOL    HW2 4139   0.884   3.978   2.028
 1373SOL     OW 4140   1.719   4.309   3.693
 1373SOL    HW1 4141   1.693   4.398   3.657
 1373SOL    HW2 4142   1.717   4.241   3.620
 1374SOL     OW 4143   1.362   4.868   2.407
 1374SOL    HW1 4144   1.445   4.839   2.359
 1374SOL    HW2 4145   1.313   4.935   2.351
 1375SOL     OW 4146   0.550   3.920   2.747
 1375SOL    HW1 4147   0.545   3.915   2.847
 1375SOL    HW2 4148   0.552   4.016   2.718
 1376SOL     OW 4149   1.795   4.790   2.735
 1376SOL    HW1 4150   1.733   4.775   2.659
 1376SOL    HW2 4151   1.743   4.801   2.820
 1377SOL     OW 4152   0.321   4.667   2.104
 1377SOL    HW1 4153   0.403   4.706   2.062
 1377SOL    HW2 4154   0.294   4.585   2.055
 1378SOL     OW 4155   1.458   4.459   2.590
 1378SOL    HW1 4156   1.453   4.394   2.665
 1378SOL    HW2 4157   1.538   4.518   2.603
 1379SOL     OW 4158   0.461   4.990   3.589
 1379SOL    HW1 4159   0.411   4.991   3.503
 1379SOL    HW2 4160   0.398   4.972   3.665
 1380SOL     OW 4161   0.202   4.009   3.360
 1380SOL    HW1 4162   0.122   4.069   3.347
 1380SOL    HW2 4163   0.192   3.960   3.446
 1381SOL     OW 4164   1.632   5.101   1.943
 1381SOL    HW1 4165   1.600   5.195   1.933
 1381SOL    HW2 4166   1.556   5.038   1.931
 1382SOL     OW 4167   1.400   3.831   2.288
 1382SOL    HW1 4168   1.376   3.794   2.198
 1382SOL    HW2 4169   1.499   3.847   2.292
 1383SOL     OW 4170   0.382   4.424   2.342
 1383SOL    HW1 4171   0.427   4.334   2.339
 1383SOL    HW2 4172   0.288   4.413   2.375
 1384SOL     OW 4173   1.547   3.946   3.591
 1384SOL    HW1 4174   1.542   3.983   3.683
 1384SOL    HW2 4175   1.475   3.877   3.579
 1385SOL     OW 4176   0.614   3.846   1.979
 1385SOL    HW1 4177   0.712   3.824   1.986
 1385SOL    HW2 4178   0.583   3.829   1.886
 1386SOL     OW 4179   0.781   3.988   3.611
 1386SOL    HW1 4180   0.848   3.927   3.654
 1386SOL    HW2 4181   0.708   4.007   3.676
 1387SOL     OW 4182   1.351   4.314   3.295
 1387SOL    HW1 4183   1.379   4.271   3.380
 1387SOL    HW2 4184   1.376   4.410   3.296
 1388SOL     OW 4185   0.922   4.227   2.761
 1388SOL    HW1 4186   0.897   4.218   2.665
 1388SOL    HW2 4187   0.970   4.145   2.792
 1389SOL     OW 4188   0.539   3.788   2.374
 1389SOL    HW1 4189   0.458   3.789   2.432
 1389SOL    HW2 4190   0.542   3.871   2.319
 1390SOL     OW 4191   1.434   4.912   1.903
 1390SOL    HW1 4192   1.466   4.836   1.960
 1390SOL    HW2 4193   1.342   4.939   1.933
 1391SOL     OW 4194   0.297   3.759   2.033
 1391SOL    HW1 4195   0.346   3.843   2.012
 1391SOL    HW2 4196   0.359   3.694   2.078
 1392SOL     OW 4197   0.935   3.960   2.342
 1392SOL    HW1 4198   0.887   4.001   2.264
 1392SOL    HW2 4199   1.034   3.958   2.323
 1393SOL     OW 4200   1.076   4.407   3.326
 1393SOL    HW1 4201   0.996   4.346   3.329
 1393SOL    HW2 4202   1.157   4.354   3.302
 1394SOL     OW 4203   1.227   5.294   2.655
 1394SOL    HW1 4204   1.248   5.368   2.590
 1394SOL    HW2 4205   1.295   5.294   2.728
 1395SOL     OW 4206   0.459   4.876   2.603
 1395SOL    HW1 4207   0.388   4.849   2.668
 1395SOL    HW2 4208   0.433   4.848   2.510
 1396SOL     OW 4209   1.032   4.273   1.878
 1396SOL    HW1 4210   0.991   4.355   1.839
 1396SOL    HW2 4211   1.096   4.299   1.951
 1397SOL     OW 4212   0.078   4.280   3.248
 1397SOL    HW1 4213   0.170   4.279   3.207
 1397SOL    HW2 4214   0.072   4.354   3.315
 1398SOL     OW 4215   0.561   3.946   3.009
 1398SOL    HW1 4216   0.599   3.862   3.046
 1398SOL    HW2 4217   0.473   3.965   3.053
 1399SOL     OW 4218   0.866   4.178   2.504
 1399SOL    HW1 4219   0.834   4.250   2.442
 1399SOL    HW2 4220   0.890   4.097   2.451
 1400SOL     OW 4221   1.017   3.763   2.615
 1400SOL    HW1 4222   0.945   3.768   2.546
 1400SOL    HW2 4223   0.993   3.694   2.684
 1401SOL     OW 4224   1.429   4.897   2.729
 1401SOL    HW1 4225   1.374   4.813   2.722
 1401SOL    HW2 4226   1.455   4.926   2.637
 1402SOL     OW 4227   1.466   4.314   2.854
 1402SOL    HW1 4228   1.436   4.219   2.861
 1402SOL    HW2 4229   1.539   4.330   2.920
 1403SOL     OW 4230   1.857   4.557   2.239
 1403SOL    HW1 4231   1.899   4.493   2.303
 1403SOL    HW2 4232   1.819   4.506   2.161
 1404SOL     OW 4233   1.664   5.004   2.519
 1404SOL    HW1 4234   1.763   5.012   2.533
 1404SOL    HW2 4235   1.619   5.088   2.550
 1405SOL     OW 4236   1.390   4.299   1.940
 1405SOL    HW1 4237   1.336   4.278   2.021
 1405SOL    HW2 4238   1.481   4.258   1.949
 1406SOL     OW 4239   0.527   3.980   2.190
 1406SOL    HW1 4240   0.554   3.921   2.115
 1406SOL    HW2 4241   0.527   4.075   2.159
 1407SOL     OW 4242   1.754   4.947   3.450
 1407SOL    HW1 4243   1.845   4.908   3.437
 1407SOL    HW2 4244   1.762   5.043   3.474
 1408SOL     OW 4245   1.064   5.071   3.202
 1408SOL    HW1 4246   0.984   5.048   3.257
 1408SOL    HW2 4247   1.147   5.045   3.251
 1409SOL     OW 4248   1.111   4.919   2.962
 1409SOL    HW1 4249   1.071   4.963   3.043
 1409SOL    HW2 4250   1.070   4.956   2.879
 1410SOL     OW 4251   1.638   4.823   2.941
 1410SOL    HW1 4252   1.643   4.904   3.000
 1410SOL    HW2 4253   1.552   4.825   2.890
 1411SOL     OW 4254   0.915   3.813   3.264
 1411SOL    HW1 4255   0.940   3.793   3.169
 1411SOL    HW2 4256   0.987   3.869   3.306
 1412SOL     OW 4257   0.980   4.840   3.581
 1412SOL    HW1 4258   0.881   4.846   3.591
 1412SOL    HW2 4259   1.003   4.760   3.525
 1413SOL     OW 4260   0.705   4.774   2.230
 1413SOL    HW1 4261   0.691   4.781   2.329
 1413SOL    HW2 4262   0.789   4.723   2.212
 1414SOL     OW 4263   0.410   4.537   3.113
 1414SOL    HW1 4264   0.496   4.549   3.163
 1414SOL    HW2 4265   0.368   4.450   3.140
 1415SOL     OW 4266   1.274   4.110   3.124
 1415SOL    HW1 4267   1.295   4.184   3.188
 1415SOL    HW2 4268   1.185   4.127   3.081
 1416SOL     OW 4269   0.064   5.288   3.193
 1416SOL    HW1 4270   0.018   5.370   3.159
 1416SOL    HW2 4271   0.162   5.307   3.202
 1417SOL     OW 4272   0.367   4.824   2.363
 1417SOL    HW1 4273   0.360   4.907   2.307
 1417SOL    HW2 4274   0.371   4.744   2.303
 1418SOL     OW 4275   0.566   4.261   2.727
 1418SOL    HW1 4276   0.578   4.327   2.653
 1418SOL    HW2 4277   0.612   4.295   2.810
 1419SOL     OW 4278   1.582   4.363   2.334
 1419SOL    HW1 4279   1.551   4.424   2.407
 1419SOL    HW2 4280   1.632   4.415   2.265
 1420SOL     OW 4281   0.402   4.475   3.460
 1420SOL    HW1 4282   0.470   4.530   3.413
 1420SOL    HW2 4283   0.442   4.387   3.487
 1421SOL     OW 4284   1.587   4.503   3.532
 1421SOL    HW1 4285   1.495   4.541   3.527
 1421SOL    HW2 4286   1.647   4.550   3.467
 1422SOL     OW 4287   1.013   3.829   3.632
 1422SOL    HW1 4288   1.019   3.914   3.580
 1422SOL    HW2 4289   1.045   3.753   3.575
 1423SOL     OW 4290   0.504   3.774   3.602
 1423SOL    HW1 4291   0.462   3.717   3.532
 1423SOL    HW2 4292   0.438   3.843   3.634
 1424SOL     OW 4293   0.573   4.594   2.891
 1424SOL    HW1 4294   0.617   4.683   2.882
 1424SOL    HW2 4295   0.510   4.594   2.968
 1425SOL     OW 4296   1.360   4.586   2.907
 1425SOL    HW1 4297   1.285   4.586   2.841
 1425SOL    HW2 4298   1.397   4.494   2.916
 1426SOL     OW 4299   1.209   4.249   2.137
 1426SOL    HW1 4300   1.222   4.165   2.191
 1426SOL    HW2 4301   1.180   4.323   2.197
 1427SOL     OW 4302   0.307   3.937   3.093
 1427SOL    HW1 4303   0.284   3.974   3.183
 1427SOL    HW2 4304   0.277   3.842   3.087
 1428SOL     OW 4305   0.037   5.034   3.144
 1428SOL    HW1 4306   0.090   4.985   3.212
 1428SOL    HW2 4307   0.059   5.132   3.149
 1429SOL     OW 4308   0.732   4.358   2.926
 1429SOL    HW1 4309   0.791   4.332   2.850
 1429SOL    HW2 4310   0.704   4.454   2.915
 1430SOL     OW 4311   1.728   4.659   3.716
 1430SOL    HW1 4312   1.682   4.652   3.627
 1430SOL    HW2 4313   1.666   4.703   3.782
 1431SOL     OW 4314   0.307   3.787   2.480
 1431SOL    HW1 4315   0.296   3.881   2.513
 1431SOL    HW2 4316   0.302   3.724   2.557
 1432SOL     OW 4317   1.622   4.091   2.236
 1432SOL    HW1 4318   1.624   4.015   2.300
 1432SOL    HW2 4319   1.574   4.168   2.276
 1433SOL     OW 4320   1.023   4.490   2.828
 1433SOL    HW1 4321   1.038   4.511   2.924
 1433SOL    HW2 4322   0.993   4.395   2.819
 1434SOL     OW 4323   1.859   5.242   3.467
 1434SOL    HW1 4324   1.873   5.269   3.372
 1434SOL    HW2 4325   1.942   5.264   3.520
 1435SOL     OW 4326   0.350   4.622   3.666
 1435SOL    HW1 4327   0.426   4.666   3.714
 1435SOL    HW2 4328   0.385   4.575   3.584
 1436SOL     OW 4329   1.540   3.998   1.987
 1436SOL    HW1 4330   1.479   3.923   2.010
 1436SOL    HW2 4331   1.562   4.050   2.070
 1437SOL     OW 4332   1.303   4.562   1.904
 1437SOL    HW1 4333   1.337   4.469   1.919
 1437SOL    HW2 4334   1.321   4.589   1.809
 1438SOL     OW 4335   0.319   4.534   2.811
 1438SOL    HW1 4336   0.412   4.570   2.816
 1438SOL    HW2 4337   0.313   4.449   2.863
 1439SOL     OW 4338   0.339   4.233   2.868
 1439SOL    HW1 4339   0.287   4.150   2.851
 1439SOL    HW2 4340   0.416   4.238   2.804
 1440SOL     OW 4341   1.138   4.104   3.540
 1440SOL    HW1 4342   1.093   4.167   3.604
 1440SOL    HW2 4343   1.231   4.135   3.523
 1441SOL     OW 4344   1.160   3.931   3.339
 1441SOL    HW1 4345   1.160   3.995   3.416
 1441SOL    HW2 4346   1.188   3.979   3.256
 1442SOL     OW 4347   0.008   5.050   2.062
 1442SOL    HW1 4348  -0.085   5.071   2.031
 1442SOL    HW2 4349   0.018   4.951   2.075
 1443SOL     OW 4350   1.002   4.520   3.100
 1443SOL    HW1 4351   1.043   4.488   3.186
 1443SOL    HW2 4352   0.906   4.493   3.097
 1444SOL     OW 4353   0.040   4.268   2.976
 1444SOL    HW1 4354   0.125   4.235   2.935
 1444SOL    HW2 4355   0.053   4.283   3.074
 1445SOL     OW 4356   0.189   4.244   3.584
 1445SOL    HW1 4357   0.248   4.204   3.514
 1445SOL    HW2 4358   0.131   4.315   3.543
 1446SOL     OW 4359   1.369   4.674   3.522
 1446SOL    HW1 4360   1.408   4.763   3.542
 1446SOL    HW2 4361   1.379   4.654   3.425
 1447SOL     OW 4362   0.815   4.296   2.187
 1447SOL    HW1 4363   0.822   4.207   2.141
 1447SOL    HW2 4364   0.721   4.330   2.179
 1448SOL     OW 4365   1.657   4.328   3.068
 1448SOL    HW1 4366   1.619   4.259   3.130
 1448SOL    HW2 4367   1.739   4.292   3.024
 1449SOL     OW 4368   0.671   4.188   3.131
 1449SOL    HW1 4369   0.637   4.099   3.101
 1449SOL    HW2 4370   0.697   4.242   3.051
 1450SOL     OW 4371   0.473   4.224   2.053
 1450SOL    HW1 4372   0.534   4.304   2.057
 1450SOL    HW2 4373   0.378   4.255   2.060
 1451SOL     OW 4374   0.159   4.861   3.328
 1451SOL    HW1 4375   0.181   4.800   3.404
 1451SOL    HW2 4376   0.169   4.812   3.242
 1452SOL     OW 4377   1.347   4.783   3.096
 1452SOL    HW1 4378   1.371   4.720   3.022
 1452SOL    HW2 4379   1.257   4.823   3.078
 1453SOL     OW 4380   1.302   4.579   2.171
 1453SOL    HW1 4381   1.216   4.548   2.213
 1453SOL    HW2 4382   1.298   4.565   2.072
 1454SOL     OW 4383   0.083   4.982   2.884
 1454SOL    HW1 4384   0.078   4.981   2.984
 1454SOL    HW2 4385   0.000   4.941   2.846
 1455SOL     OW 4386   1.726   3.859   2.385
 1455SOL    HW1 4387   1.799   3.842   2.318
 1455SOL    HW2 4388   1.695   3.772   2.423
 1456SOL     OW 4389   1.280   4.651   2.534
 1456SOL    HW1 4390   1.340   4.570   2.536
 1456SOL    HW2 4391   1.320   4.720   2.474
 1457SOL     OW 4392   0.830   4.997   3.284
 1457SOL    HW1 4393   0.825   5.030   3.379
 1457SOL    HW2 4394   0.744   5.016   3.238
 1458SOL     OW 4395   1.841   3.899   2.825
 1458SOL    HW1 4396   1.880   3.814   2.789
 1458SOL    HW2 4397   1.743   3.901   2.806
 1459SOL     OW 4398   0.263   4.050   2.582
 1459SOL    HW1 4399   0.184   4.101   2.548
 1459SOL    HW2 4400   0.254   4.035   2.680
 1460SOL     OW 4401   0.822   4.726   3.234
 1460SOL    HW1 4402   0.862   4.725   3.142
 1460SOL    HW2 4403   0.832   4.818   3.274
 1461SOL     OW 4404   0.916   4.634   2.153
 1461SOL    HW1 4405   0.979   4.672   2.085
 1461SOL    HW2 4406   0.956   4.551   2.192
 1462SOL     OW 4407   0.372   5.012   3.352
 1462SOL    HW1 4408   0.359   5.105   3.318
 1462SOL    HW2 4409   0.288   4.960   3.339
 1463SOL     OW 4410   1.614   5.016   3.151
 1463SOL    HW1 4411   1.674   5.019   3.231
 1463SOL    HW2 4412   1.539   5.080   3.164
 1464SOL     OW 4413   1.039   4.822   2.558
 1464SOL    HW1 4414   0.969   4.775   2.612
 1464SOL    HW2 4415   1.098   4.754   2.515
 1465SOL     OW 4416   1.014   3.960   2.833
 1465SOL    HW1 4417   1.006   3.924   2.740
 1465SOL    HW2 4418   1.012   3.884   2.898
 1466SOL     OW 4419   1.709   4.109   3.243
 1466SOL    HW1 4420   1.782   4.178   3.247
 1466SOL    HW2 4421   1.737   4.034   3.184
 1467SOL     OW 4422   0.105   4.737   3.588
 1467SOL    HW1 4423   0.028   4.704   3.642
 1467SOL    HW2 4424   0.190   4.707   3.630
 1468SOL     OW 4425   0.672   3.927   3.351
 1468SOL    HW1 4426   0.762   3.911   3.311
 1468SOL    HW2 4427   0.680   3.932   3.450
 1469SOL     OW 4428   0.075   4.069   1.895
 1469SOL    HW1 4429  -0.017   4.041   1.866
 1469SOL    HW2 4430   0.106   4.146   1.839
 1470SOL     OW 4431   1.440   4.580   3.260
 1470SOL    HW1 4432   1.383   4.632   3.197
 1470SOL    HW2 4433   1.536   4.592   3.236
 1471SOL     OW 4434   0.072   3.890   2.180
 1471SOL    HW1 4435   0.055   3.973   2.126
 1471SOL    HW2 4436   0.162   3.853   2.158
 1472SOL     OW 4437   0.613   4.566   3.293
 1472SOL    HW1 4438   0.669   4.647   3.276
 1472SOL    HW2 4439   0.672   4.486   3.296
 1473SOL     OW 4440   0.716   4.289   3.570
 1473SOL    HW1 4441   0.735   4.354   3.644
 1473SOL    HW2 4442   0.776   4.209   3.579
 1474SOL     OW 4443   1.450   4.944   3.495
 1474SOL    HW1 4444   1.441   4.934   3.594
 1474SOL    HW2 4445   1.546   4.937   3.469
 1475SOL     OW 4446   1.674   4.607   3.116
 1475SOL    HW1 4447   1.647   4.518   3.079
 1475SOL    HW2 4448   1.675   4.675   3.043
 1476SOL     OW 4449   1.225   4.049   2.311
 1476SOL    HW1 4450   1.290   3.975   2.300
 1476SOL    HW2 4451   1.245   4.099   2.395
 1477SOL     OW 4452   0.594   4.469   2.514
 1477SOL    HW1 4453   0.644   4.554   2.495
 1477SOL    HW2 4454   0.506   4.471   2.466
 1478SOL     OW 4455   1.777   4.066   3.504
 1478SOL    HW1 4456   1.760   4.097   3.410
 1478SOL    HW2 4457   1.693   4.029   3.542
 1479SOL     OW 4458   1.730   4.658   3.379
 1479SOL    HW1 4459   1.768   4.749   3.394
 1479SOL    HW2 4460   1.722   4.641   3.280
 1480SOL     OW 4461   0.859   5.098   1.878
 1480SOL    HW1 4462   0.813   5.113   1.966
 1480SOL    HW2 4463   0.903   5.183   1.848
 1481SOL     OW 4464   0.859   4.680   2.723
 1481SOL    HW1 4465   0.913   4.611   2.771
 1481SOL    HW2 4466   0.827   4.749   2.789
 1482SOL     OW 4467   1.083   4.708   1.949
 1482SOL    HW1 4468   1.060   4.761   1.867
 1482SOL    HW2 4469   1.164   4.652   1.930
 1483SOL     OW 4470   0.221   5.038   3.706
 1483SOL    HW1 4471   0.156   4.965   3.685
 1483SOL    HW2 4472   0.225   5.052   3.804
 1484SOL     OW 4473   0.079   4.964   2.515
 1484SOL    HW1 4474   0.078   4.917   2.603
 1484SOL    HW2 4475   0.161   4.936   2.464
 1485SOL     OW 4476   0.672   5.115   3.486
 1485SOL    HW1 4477   0.594   5.065   3.524
 1485SOL    HW2 4478   0.669   5.210   3.517
 1486SOL     OW 4479   1.824   3.916   3.089
 1486SOL    HW1 4480   1.820   3.826   3.133
 1486SOL    HW2 4481   1.827   3.905   2.990
 1487SOL     OW 4482   0.428   4.148   2.382
 1487SOL    HW1 4483   0.458   4.076   2.320
 1487SOL    HW2 4484   0.389   4.108   2.465
 1488SOL     OW 4485   1.705   5.211   2.966
 1488SOL    HW1 4486   1.612   5.186   2.939
 1488SOL    HW2 4487   1.731   5.161   3.048
 1489SOL     OW 4488   0.317   4.271   3.142
 1489SOL    HW1 4489   0.355   4.212   3.214
 1489SOL    HW2 4490   0.357   4.245   3.054
 1490SOL     OW 4491   1.424   3.938   2.974
 1490SOL    HW1 4492   1.476   3.873   3.029
 1490SOL    HW2 4493   1.375   4.001   3.035
 1491SOL     OW 4494   1.001   3.758   3.016
 1491SOL    HW1 4495   0.938   3.686   2.985
 1491SOL    HW2 4496   1.094   3.722   3.016
 1492SOL     OW 4497   0.770   5.054   2.163
 1492SOL    HW1 4498   0.724   4.967   2.180
 1492SOL    HW2 4499   0.861   5.051   2.204
 1493SOL     OW 4500   1.352   3.776   2.030
 1493SOL    HW1 4501   1.387   3.735   1.946
 1493SOL    HW2 4502   1.262   3.738   2.050
 1494SOL     OW 4503   1.300   4.177   2.553
 1494SOL    HW1 4504   1.241   4.257   2.557
 1494SOL    HW2 4505   1.315   4.142   2.646
 1495SOL     OW 4506   1.593   3.945   2.744
 1495SOL    HW1 4507   1.509   3.944   2.798
 1495SOL    HW2 4508   1.595   4.028   2.688
 1496SOL     OW 4509   0.039   4.801   2.162
 1496SOL    HW1 4510   0.138   4.790   2.153
 1496SOL    HW2 4511  -0.001   4.715   2.194
 1497SOL     OW 4512   0.230   4.352   3.837
 1497SOL    HW1 4513   0.137   4.350   3.874
 1497SOL    HW2 4514   0.231   4.313   3.745
 1498SOL     OW 4515   0.225   3.999   4.720
 1498SOL    HW1 4516   0.260   3.982   4.812
 1498SOL    HW2 4517   0.137   3.954   4.708
 1499SOL     OW 4518   0.019   4.092   4.371
 1499SOL    HW1 4519  -0.063   4.135   4.410
 1499SOL    HW2 4520  -0.009   4.019   4.308
 1500SOL     OW 4521   0.569   4.999   4.889
 1500SOL    HW1 4522   0.476   4.992   4.852
 1500SOL    HW2 4523   0.580   5.088   4.933
 1501SOL     OW 4524   1.555   5.235   4.427
 1501SOL    HW1 4525   1.498   5.219   4.508
 1501SOL    HW2 4526   1.496   5.245   4.347
 1502SOL     OW 4527   1.135   4.427   4.441
 1502SOL    HW1 4528   1.192   4.505   4.416
 1502SOL    HW2 4529   1.075   4.453   4.517
 1503SOL     OW 4530   1.755   4.331   3.955
 1503SOL    HW1 4531   1.743   4.318   3.856
 1503SOL    HW2 4532   1.725   4.250   4.004
 1504SOL     OW 4533   0.768   4.868   4.747
 1504SOL    HW1 4534   0.690   4.885   4.807
 1504SOL    HW2 4535   0.802   4.955   4.711
 1505SOL     OW 4536   0.685   4.736   4.389
 1505SOL    HW1 4537   0.754   4.720   4.459
 1505SOL    HW2 4538   0.612   4.793   4.427
 1506SOL     OW 4539   0.335   5.159   4.785
 1506SOL    HW1 4540   0.257   5.128   4.732
 1506SOL    HW2 4541   0.393   5.217   4.728
 1507SOL     OW 4542   1.603   4.171   4.461
 1507SOL    HW1 4543   1.529   4.217   4.411
 1507SOL    HW2 4544   1.654   4.239   4.514
 1508SOL     OW 4545   1.127   5.065   5.414
 1508SOL    HW1 4546   1.174   5.065   5.502
 1508SOL    HW2 4547   1.079   4.978   5.403
 1509SOL     OW 4548   0.240   4.815   4.610
 1509SOL    HW1 4549   0.254   4.731   4.662
 1509SOL    HW2 4550   0.185   4.879   4.665
 1510SOL     OW 4551   0.606   4.688   3.847
 1510SOL    HW1 4552   0.613   4.772   3.793
 1510SOL    HW2 4553   0.652   4.701   3.935
 1511SOL     OW 4554   0.122   4.367   4.287
 1511SOL    HW1 4555   0.077   4.279   4.304
 1511SOL    HW2 4556   0.121   4.421   4.371
 1512SOL     OW 4557   1.689   4.646   4.336
 1512SOL    HW1 4558   1.784   4.617   4.344
 1512SOL    HW2 4559   1.681   4.711   4.261
 1513SOL     OW 4560   1.641   4.832   4.156
 1513SOL    HW1 4561   1.727   4.834   4.104
 1513SOL    HW2 4562   1.655   4.879   4.244
 1514SOL     OW 4563   0.613   5.089   4.450
 1514SOL    HW1 4564   0.564   5.002   4.459
 1514SOL    HW2 4565   0.590   5.132   4.363
 1515SOL     OW 4566   0.809   3.728   4.226
 1515SOL    HW1 4567   0.849   3.819   4.217
 1515SOL    HW2 4568   0.709   3.736   4.232
 1516SOL     OW 4569   0.197   4.700   4.988
 1516SOL    HW1 4570   0.286   4.655   4.974
 1516SOL    HW2 4571   0.124   4.635   4.969
 1517SOL     OW 4572   1.525   4.723   3.914
 1517SOL    HW1 4573   1.462   4.647   3.927
 1517SOL    HW2 4574   1.573   4.741   4.000
 1518SOL     OW 4575   1.466   5.141   4.677
 1518SOL    HW1 4576   1.407   5.147   4.757
 1518SOL    HW2 4577   1.451   5.053   4.631
 1519SOL     OW 4578   0.598   4.453   3.994
 1519SOL    HW1 4579   0.622   4.522   3.926
 1519SOL    HW2 4580   0.520   4.486   4.048
 1520SOL     OW 4581   1.281   4.069   4.668
 1520SOL    HW1 4582   1.195   4.019   4.655
 1520SOL    HW2 4583   1.343   4.015   4.724
 1521SOL     OW 4584   0.807   4.329   5.189
 1521SOL    HW1 4585   0.760   4.326   5.278
 1521SOL    HW2 4586   0.756   4.274   5.123
 1522SOL     OW 4587   0.991   4.134   4.966
 1522SOL    HW1 4588   0.914   4.168   5.020
 1522SOL    HW2 4589   0.957   4.083   4.887
 1523SOL     OW 4590   1.041   4.425   4.153
 1523SOL    HW1 4591   1.067   4.421   4.249
 1523SOL    HW2 4592   0.956   4.374   4.139
 1524SOL     OW 4593   0.076   4.535   4.513
 1524SOL    HW1 4594   0.175   4.523   4.522
 1524SOL    HW2 4595   0.052   4.630   4.534
 1525SOL     OW 4596   0.865   4.072   3.919
 1525SOL    HW1 4597   0.924   4.135   3.870
 1525SOL    HW2 4598   0.884   3.978   3.890
 1526SOL     OW 4599   1.362   4.868   4.269
 1526SOL    HW1 4600   1.445   4.839   4.221
 1526SOL    HW2 4601   1.313   4.935   4.213
 1527SOL     OW 4602   0.550   3.920   4.609
 1527SOL    HW1 4603   0.545   3.915   4.709
 1527SOL    HW2 4604   0.552   4.016   4.580
 1528SOL     OW 4605   1.795   4.790   4.597
 1528SOL    HW1 4606   1.733   4.775   4.521
 1528SOL    HW2 4607   1.743   4.801   4.682
 1529SOL     OW 4608   0.321   4.667   3.966
 1529SOL    HW1 4609   0.403   4.706   3.924
 1529SOL    HW2 4610   0.294   4.585   3.917
 1530SOL     OW 4611   1.458   4.459   4.452
 1530SOL    HW1 4612   1.453   4.394   4.527
 1530SOL    HW2 4613   1.538   4.518   4.465
 1531SOL     OW 4614   1.632   5.101   3.805
 1531SOL    HW1 4615   1.600   5.195   3.795
 1531SOL    HW2 4616   1.556   5.038   3.793
 1532SOL     OW 4617   1.400   3.831   4.150
 1532SOL    HW1 4618   1.376   3.794   4.060
 1532SOL    HW2 4619   1.499   3.847   4.154
 1533SOL     OW 4620   0.382   4.424   4.204
 1533SOL    HW1 4621   0.427   4.334   4.201
 1533SOL    HW2 4622   0.288   4.413   4.237
 1534SOL     OW 4623   0.614   3.846   3.841
 1534SOL    HW1 4624   0.712   3.824   3.848
 1534SOL    HW2 4625   0.583   3.829   3.748
 1535SOL     OW 4626   0.922   4.227   4.623
 1535SOL    HW1 4627   0.897   4.218   4.527
 1535SOL    HW2 4628   0.970   4.145   4.654
 1536SOL     OW 4629   0.539   3.788   4.236
 1536SOL    HW1 4630   0.458   3.789   4.294
 1536SOL    HW2 4631   0.542   3.871   4.181
 1537SOL     OW 4632   1.434   4.912   3.765
 1537SOL    HW1 4633   1.466   4.836   3.822
 1537SOL    HW2 4634   1.342   4.939   3.795
 1538SOL     OW 4635   0.297   3.759   3.895
 1538SOL    HW1 4636   0.346   3.843   3.874
 1538SOL    HW2 4637   0.359   3.694   3.940
 1539SOL     OW 4638   0.935   3.960   4.204
 1539SOL    HW1 4639   0.887   4.001   4.126
 1539SOL    HW2 4640   1.034   3.958   4.185
 1540SOL     OW 4641   1.227   5.294   4.517
 1540SOL    HW1 4642   1.248   5.368   4.452
 1540SOL    HW2 4643   1.295   5.294   4.590
 1541SOL     OW 4644   0.459   4.876   4.465
 1541SOL    HW1 4645   0.388   4.849   4.530
 1541SOL    HW2 4646   0.433   4.848   4.372
 1542SOL     OW 4647   1.032   4.273   3.740
 1542SOL    HW1 4648   0.991   4.355   3.701
 1542SOL    HW2 4649   1.096   4.299   3.813
 1543SOL     OW 4650   0.561   3.946   4.871
 1543SOL    HW1 4651   0.599   3.862   4.908
 1543SOL    HW2 4652   0.473   3.965   4.915
 1544SOL     OW 4653   0.866   4.178   4.366
 1544SOL    HW1 4654   0.834   4.250   4.304
 1544SOL    HW2 4655   0.890   4.097   4.313
 1545SOL     OW 4656   1.017   3.763   4.477
 1545SOL    HW1 4657   0.945   3.768   4.408
 1545SOL    HW2 4658   0.993   3.694   4.546
 1546SOL     OW 4659   1.429   4.897   4.591
 1546SOL    HW1 4660   1.374   4.813   4.584
 1546SOL    HW2 4661   1.455   4.926   4.499
 1547SOL     OW 4662   1.466   4.314   4.716
 1547SOL    HW1 4663   1.436   4.219   4.723
 1547SOL    HW2 4664   1.539   4.330   4.782
 1548SOL     OW 4665   1.857   4.557   4.101
 1548SOL    HW1 4666   1.899   4.493   4.165
 1548SOL    HW2 4667   1.819   4.506   4.023
 1549SOL     OW 4668   1.664   5.004   4.381
 1549SOL    HW1 4669   1.763   5.012   4.395
 1549SOL    HW2 4670   1.619   5.088   4.412
 1550SOL     OW 4671   1.390   4.299   3.802
 1550SOL    HW1 4672   1.336   4.278   3.883
 1550SOL    HW2 4673   1.481   4.258   3.811
 1551SOL     OW 4674   0.527   3.980   4.052
 1551SOL    HW1 4675   0.554   3.921   3.977
 1551SOL    HW2 4676   0.527   4.075   4.021
 1552SOL     OW 4677   1.754   4.947   5.312
 1552SOL    HW1 4678   1.845   4.908   5.299
 1552SOL    HW2 4679   1.762   5.043   5.336
 1553SOL     OW 4680   1.064   5.071   5.064
 1553SOL    HW1 4681   0.984   5.048   5.119
 1553SOL    HW2 4682   1.147   5.045   5.113
 1554SOL     OW 4683   1.111   4.919   4.824
 1554SOL    HW1 4684   1.071   4.963   4.905
 1554SOL    HW2 4685   1.070   4.956   4.741
 1555SOL     OW 4686   1.638   4.823   4.803
 1555SOL    HW1 4687   1.643   4.904   4.862
 1555SOL    HW2 4688   1.552   4.825   4.752
 1556SOL     OW 4689   0.705   4.774   4.092
 1556SOL    HW1 4690   0.691   4.781   4.191
 1556SOL    HW2 4691   0.789   4.723   4.074
 1557SOL     OW 4692   0.410   4.537   4.975
 1557SOL    HW1 4693   0.496   4.549   5.025
 1557SOL    HW2 4694   0.368   4.450   5.002
 1558SOL     OW 4695   1.274   4.110   4.986
 1558SOL    HW1 4696   1.295   4.184   5.050
 1558SOL    HW2 4697   1.185   4.127   4.943
 1559SOL     OW 4698   0.064   5.288   5.055
 1559SOL    HW1 4699   0.018   5.370   5.021
 1559SOL    HW2 4700   0.162   5.307   5.064
 1560SOL     OW 4701   0.367   4.824   4.225
 1560SOL    HW1 4702   0.360   4.907   4.169
 1560SOL    HW2 4703   0.371   4.744   4.165
 1561SOL     OW 4704   0.566   4.261   4.589
 1561SOL    HW1 4705   0.578   4.327   4.515
 1561SOL    HW2 4706   0.612   4.295   4.672
 1562SOL     OW 4707   1.582   4.363   4.196
 1562SOL    HW1 4708   1.551   4.424   4.269
 1562SOL    HW2 4709   1.632   4.415   4.127
 1563SOL     OW 4710   0.573   4.594   4.753
 1563SOL    HW1 4711   0.617   4.683   4.744
 1563SOL    HW2 4712   0.510   4.594   4.830
 1564SOL     OW 4713   1.360   4.586   4.769
 1564SOL    HW1 4714   1.285   4.586   4.703
 1564SOL    HW2 4715   1.397   4.494   4.778
 1565SOL     OW 4716   1.209   4.249   3.999
 1565SOL    HW1 4717   1.222   4.165   4.053
 1565SOL    HW2 4718   1.180   4.323   4.059
 1566SOL     OW 4719   0.307   3.937   4.955
 1566SOL    HW1 4720   0.284   3.974   5.045
 1566SOL    HW2 4721   0.277   3.842   4.949
 1567SOL     OW 4722   0.037   5.034   5.006
 1567SOL    HW1 4723   0.090   4.985   5.074
 1567SOL    HW2 4724   0.059   5.132   5.011
 1568SOL     OW 4725   0.732   4.358   4.788
 1568SOL    HW1 4726   0.791   4.332   4.712
 1568SOL    HW2 4727   0.704   4.454   4.777
 1569SOL     OW 4728   0.307   3.787   4.342
 1569SOL    HW1 4729   0.296   3.881   4.375
 1569SOL    HW2 4730   0.302   3.724   4.419
 1570SOL     OW 4731   1.622   4.091   4.098
 1570SOL    HW1 4732   1.624   4.015   4.162
 1570SOL    HW2 4733   1.574   4.168   4.138
 1571SOL     OW 4734   1.023   4.490   4.690
 1571SOL    HW1 4735   1.038   4.511   4.786
 1571SOL    HW2 4736   0.993   4.395   4.681
 1572SOL     OW 4737   1.540   3.998   3.849
 1572SOL    HW1 4738   1.479   3.923   3.872
 1572SOL    HW2 4739   1.562   4.050   3.932
 1573SOL     OW 4740   1.303   4.562   3.766
 1573SOL    HW1 4741   1.337   4.469   3.781
 1573SOL    HW2 4742   1.321   4.589   3.671
 1574SOL     OW 4743   0.319   4.534   4.673
 1574SOL    HW1 4744   0.412   4.570   4.678
 1574SOL    HW2 4745   0.313   4.449   4.725
 1575SOL     OW 4746   0.339   4.233   4.730
 1575SOL    HW1 4747   0.287   4.150   4.713
 1575SOL    HW2 4748   0.416   4.238   4.666
 1576SOL     OW 4749   1.160   3.931   5.201
 1576SOL    HW1 4750   1.160   3.995   5.278
 1576SOL    HW2 4751   1.188   3.979   5.118
 1577SOL     OW 4752   0.008   5.050   3.924
 1577SOL    HW1 4753  -0.085   5.071   3.893
 1577SOL    HW2 4754   0.018   4.951   3.937
 1578SOL     OW 4755   1.002   4.520   4.962
 1578SOL    HW1 4756   1.043   4.488   5.048
 1578SOL    HW2 4757   0.906   4.493   4.959
 1579SOL     OW 4758   0.040   4.268   4.838
 1579SOL    HW1 4759   0.125   4.235   4.797
 1579SOL    HW2 4760   0.053   4.283   4.936
 1580SOL     OW 4761   0.815   4.296   4.049
 1580SOL    HW1 4762   0.822   4.207   4.003
 1580SOL    HW2 4763   0.721   4.330   4.041
 1581SOL     OW 4764   1.657   4.328   4.930
 1581SOL    HW1 4765   1.619   4.259   4.992
 1581SOL    HW2 4766   1.739   4.292   4.886
 1582SOL     OW 4767   0.671   4.188   4.993
 1582SOL    HW1 4768   0.637   4.099   4.963
 1582SOL    HW2 4769   0.697   4.242   4.913
 1583SOL     OW 4770   0.473   4.224   3.915
 1583SOL    HW1 4771   0.534   4.304   3.919
 1583SOL    HW2 4772   0.378   4.255   3.922
 1584SOL     OW 4773   0.159   4.861   5.190
 1584SOL    HW1 4774   0.181   4.800   5.266
 1584SOL    HW2 4775   0.169   4.812   5.104
 1585SOL     OW 4776   1.347   4.783   4.958
 1585SOL    HW1 4777   1.371   4.720   4.884
 1585SOL    HW2 4778   1.257   4.823   4.940
 1586SOL     OW 4779   1.302   4.579   4.033
 1586SOL    HW1 4780   1.216   4.548   4.075
 1586SOL    HW2 4781   1.298   4.565   3.934
 1587SOL     OW 4782   0.083   4.982   4.746
 1587SOL    HW1 4783   0.078   4.981   4.846
 1587SOL    HW2 4784   0.000   4.941   4.708
 1588SOL     OW 4785   1.726   3.859   4.247
 1588SOL    HW1 4786   1.799   3.842   4.180
 1588SOL    HW2 4787   1.695   3.772   4.285
 1589SOL     OW 4788   1.280   4.651   4.396
 1589SOL    HW1 4789   1.340   4.570   4.398
 1589SOL    HW2 4790   1.320   4.720   4.336
 1590SOL     OW 4791   0.830   4.997   5.146
 1590SOL    HW1 4792   0.825   5.030   5.241
 1590SOL    HW2 4793   0.744   5.016   5.100
 1591SOL     OW 4794   1.841   3.899   4.687
 1591SOL    HW1 4795   1.880   3.814   4.651
 1591SOL    HW2 4796   1.743   3.901   4.668
 1592SOL     OW 4797   0.263   4.050   4.444
 1592SOL    HW1 4798   0.184   4.101   4.410
 1592SOL    HW2 4799   0.254   4.035   4.542
 1593SOL     OW 4800   0.822   4.726   5.096
 1593SOL    HW1 4801   0.862   4.725   5.004
 1593SOL    HW2 4802   0.832   4.818   5.136
 1594SOL     OW 4803   0.916   4.634   4.015
 1594SOL    HW1 4804   0.979   4.672   3.947
 1594SOL    HW2 4805   0.956   4.551   4.054
 1595SOL     OW 4806   0.372   5.012   5.214
 1595SOL    HW1 4807   0.359   5.105   5.180
 1595SOL    HW2 4808   0.288   4.960   5.201
 1596SOL     OW 4809   1.614   5.016   5.013
 1596SOL    HW1 4810   1.674   5.019   5.093
 1596SOL    HW2 4811   1.539   5.080   5.026
 1597SOL     OW 4812   1.039   4.822   4.420
 1597SOL    HW1 4813   0.969   4.775   4.474
 1597SOL    HW2 4814   1.098   4.754   4.377
 1598SOL     OW 4815   1.014   3.960   4.695
 1598SOL    HW1 4816   1.006   3.924   4.602
 1598SOL    HW2 4817   1.012   3.884   4.760
 1599SOL     OW 4818   1.709   4.109   5.105
 1599SOL    HW1 4819   1.782   4.178   5.109
 1599SOL    HW2 4820   1.737   4.034   5.046
 1600SOL     OW 4821   0.672   3.927   5.213
 1600SOL    HW1 4822   0.762   3.911   5.173
 1600SOL    HW2 4823   0.680   3.932   5.312
 1601SOL     OW 4824   0.075   4.069   3.757
 1601SOL    HW1 4825  -0.017   4.041   3.728
 1601SOL    HW2 4826   0.106   4.146   3.701
 1602SOL     OW 4827   0.072   3.890   4.042
 1602SOL    HW1 4828   0.055   3.973   3.988
 1602SOL    HW2 4829   0.162   3.853   4.020
 1603SOL     OW 4830   0.613   4.566   5.155
 1603SOL    HW1 4831   0.669   4.647   5.138
 1603SOL    HW2 4832   0.672   4.486   5.158
 1604SOL     OW 4833   1.674   4.607   4.978
 1604SOL    HW1 4834   1.647   4.518   4.941
 1604SOL    HW2 4835   1.675   4.675   4.905
 1605SOL     OW 4836   1.225   4.049   4.173
 1605SOL    HW1 4837   1.290   3.975   4.162
 1605SOL    HW2 4838   1.245   4.099   4.257
 1606SOL     OW 4839   0.594   4.469   4.376
 1606SOL    HW1 4840   0.644   4.554   4.357
 1606SOL    HW2 4841   0.506   4.471   4.328
 1607SOL     OW 4842   1.777   4.066   5.366
 1607SOL    HW1 4843   1.760   4.097   5.272
 1607SOL    HW2 4844   1.693   4.029   5.404
 1608SOL     OW 4845   1.730   4.658   5.241
 1608SOL    HW1 4846   1.768   4.749   5.256
 1608SOL    HW2 4847   1.722   4.641   5.142
 1609SOL     OW 4848   0.859   5.098   3.740
 1609SOL    HW1 4849   0.813   5.113   3.828
 1609SOL    HW2 4850   0.903   5.183   3.710
 1610SOL     OW 4851   0.859   4.680   4.585
 1610SOL    HW1 4852   0.913   4.611   4.633
 1610SOL    HW2 4853   0.827   4.749   4.651
 1611SOL     OW 4854   1.083   4.708   3.811
 1611SOL    HW1 4855   1.060   4.761   3.729
 1611SOL    HW2 4856   1.164   4.652   3.792
 1612SOL     OW 4857   0.079   4.964   4.377
 1612SOL    HW1 4858   0.078   4.917   4.465
 1612SOL    HW2 4859   0.161   4.936   4.326
 1613SOL     OW 4860   1.824   3.916   4.951
 1613SOL    HW1 4861   1.820   3.826   4.995
 1613SOL    HW2 4862   1.827   3.905   4.852
 1614SOL     OW 4863   0.428   4.148   4.244
 1614SOL    HW1 4864   0.458   4.076   4.182
 1614SOL    HW2 4865   0.389   4.108   4.327
 1615SOL     OW 4866   1.705   5.211   4.828
 1615SOL    HW1 4867   1.612   5.186   4.801
 1615SOL    HW2 4868   1.731   5.161   4.910
 1616SOL     OW 4869   0.317   4.271   5.004
 1616SOL    HW1 4870   0.355   4.212   5.076
 1616SOL    HW2 4871   0.357   4.245   4.916
 1617SOL     OW 4872   1.424   3.938   4.836
 1617SOL    HW1 4873   1.476   3.873   4.891
 1617SOL    HW2 4874   1.375   4.001   4.897
 1618SOL     OW 4875   1.001   3.758   4.878
 1618SOL    HW1 4876   0.938   3.686   4.847
 1618SOL    HW2 4877   1.094   3.722   4.878
 1619SOL     OW 4878   0.770   5.054   4.025
 1619SOL    HW1 4879   0.724   4.967   4.042
 1619SOL    HW2 4880   0.861   5.051   4.066
 1620SOL     OW 4881   1.352   3.776   3.892
 1620SOL    HW1 4882   1.387   3.735   3.808
 1620SOL    HW2 4883   1.262   3.738   3.912
 1621SOL     OW 4884   1.300   4.177   4.415
 1621SOL    HW1 4885   1.241   4.257   4.419
 1621SOL    HW2 4886   1.315   4.142   4.508
 1622SOL     OW 4887   1.593   3.945   4.606
 1622SOL    HW1 4888   1.509   3.944   4.660
 1622SOL    HW2 4889   1.595   4.028   4.550
 1623SOL     OW 4890   0.039   4.801   4.024
 1623SOL    HW1 4891   0.138   4.790   4.015
 1623SOL    HW2 4892  -0.001   4.715   4.056
 1624SOL     OW 4893   2.092   0.628   0.113
 1624SOL    HW1 4894   1.999   0.626   0.150
 1624SOL    HW2 4895   2.093   0.589   0.021
 1625SOL     OW 4896   2.087   0.275   0.996
 1625SOL    HW1 4897   2.122   0.258   1.088
 1625SOL    HW2 4898   1.999   0.230   0.984
 1626SOL     OW 4899   1.881   0.368   0.647
 1626SOL    HW1 4900   1.799   0.411   0.686
 1626SOL    HW2 4901   1.853   0.295   0.584
 1627SOL     OW 4902   2.431   1.275   1.165
 1627SOL    HW1 4903   2.338   1.268   1.128
 1627SOL    HW2 4904   2.442   1.364   1.209
 1628SOL     OW 4905   3.417   1.511   0.703
 1628SOL    HW1 4906   3.360   1.495   0.784
 1628SOL    HW2 4907   3.358   1.521   0.623
 1629SOL     OW 4908   2.997   0.703   0.717
 1629SOL    HW1 4909   3.054   0.781   0.692
 1629SOL    HW2 4910   2.937   0.729   0.793
 1630SOL     OW 4911   3.617   0.607   0.231
 1630SOL    HW1 4912   3.605   0.594   0.132
 1630SOL    HW2 4913   3.587   0.526   0.280
 1631SOL     OW 4914   2.630   1.144   1.023
 1631SOL    HW1 4915   2.552   1.161   1.083
 1631SOL    HW2 4916   2.664   1.231   0.987
 1632SOL     OW 4917   2.712   0.798   1.823
 1632SOL    HW1 4918   2.708   0.874   1.888
 1632SOL    HW2 4919   2.734   0.834   1.732
 1633SOL     OW 4920   2.547   1.012   0.665
 1633SOL    HW1 4921   2.616   0.996   0.735
 1633SOL    HW2 4922   2.474   1.069   0.703
 1634SOL     OW 4923   2.548   1.161   1.803
 1634SOL    HW1 4924   2.608   1.240   1.817
 1634SOL    HW2 4925   2.462   1.192   1.762
 1635SOL     OW 4926   2.197   1.435   1.061
 1635SOL    HW1 4927   2.119   1.404   1.008
 1635SOL    HW2 4928   2.255   1.493   1.004
 1636SOL     OW 4929   3.322   1.505   1.339
 1636SOL    HW1 4930   3.346   1.599   1.365
 1636SOL    HW2 4931   3.306   1.451   1.421
 1637SOL     OW 4932   2.300   0.392   1.499
 1637SOL    HW1 4933   2.382   0.336   1.508
 1637SOL    HW2 4934   2.219   0.334   1.503
 1638SOL     OW 4935   3.465   0.447   0.737
 1638SOL    HW1 4936   3.391   0.493   0.687
 1638SOL    HW2 4937   3.516   0.515   0.790
 1639SOL     OW 4938   2.093   1.713   0.483
 1639SOL    HW1 4939   2.127   1.790   0.537
 1639SOL    HW2 4940   2.137   1.713   0.393
 1640SOL     OW 4941   2.989   1.341   1.690
 1640SOL    HW1 4942   3.036   1.341   1.778
 1640SOL    HW2 4943   2.941   1.254   1.679
 1641SOL     OW 4944   2.092   1.434   0.538
 1641SOL    HW1 4945   2.066   1.530   0.538
 1641SOL    HW2 4946   2.021   1.380   0.583
 1642SOL     OW 4947   2.102   1.091   0.886
 1642SOL    HW1 4948   2.116   1.007   0.938
 1642SOL    HW2 4949   2.047   1.155   0.941
 1643SOL     OW 4950   2.482   1.786   1.439
 1643SOL    HW1 4951   2.390   1.769   1.474
 1643SOL    HW2 4952   2.510   1.878   1.465
 1644SOL     OW 4953   2.468   0.964   0.123
 1644SOL    HW1 4954   2.475   1.048   0.069
 1644SOL    HW2 4955   2.514   0.977   0.211
 1645SOL     OW 4956   3.456   0.114   1.480
 1645SOL    HW1 4957   3.438   0.181   1.408
 1645SOL    HW2 4958   3.453   0.160   1.569
 1646SOL     OW 4959   1.984   0.643   0.563
 1646SOL    HW1 4960   1.939   0.555   0.580
 1646SOL    HW2 4961   1.983   0.697   0.647
 1647SOL     OW 4962   3.704   1.767   0.359
 1647SOL    HW1 4963   3.758   1.738   0.439
 1647SOL    HW2 4964   3.734   1.857   0.330
 1648SOL     OW 4965   1.889   1.596   0.117
 1648SOL    HW1 4966   1.870   1.500   0.138
 1648SOL    HW2 4967   1.856   1.654   0.192
 1649SOL     OW 4968   3.551   0.922   0.612
 1649SOL    HW1 4969   3.646   0.893   0.620
 1649SOL    HW2 4970   3.543   0.987   0.537
 1650SOL     OW 4971   3.503   1.108   0.432
 1650SOL    HW1 4972   3.589   1.110   0.380
 1650SOL    HW2 4973   3.517   1.155   0.520
 1651SOL     OW 4974   1.975   0.737   1.597
 1651SOL    HW1 4975   2.063   0.724   1.642
 1651SOL    HW2 4976   1.962   0.834   1.575
 1652SOL     OW 4977   2.475   1.365   0.726
 1652SOL    HW1 4978   2.426   1.278   0.735
 1652SOL    HW2 4979   2.452   1.408   0.639
 1653SOL     OW 4980   3.155   1.228   1.423
 1653SOL    HW1 4981   3.192   1.155   1.365
 1653SOL    HW2 4982   3.207   1.233   1.508
 1654SOL     OW 4983   2.671   0.004   0.502
 1654SOL    HW1 4984   2.711   0.095   0.493
 1654SOL    HW2 4985   2.571   0.012   0.508
 1655SOL     OW 4986   2.059   0.976   1.264
 1655SOL    HW1 4987   2.148   0.931   1.250
 1655SOL    HW2 4988   1.986   0.911   1.245
 1656SOL     OW 4989   3.387   0.999   0.190
 1656SOL    HW1 4990   3.324   0.923   0.203
 1656SOL    HW2 4991   3.435   1.017   0.276
 1657SOL     OW 4992   3.049   1.792   1.616
 1657SOL    HW1 4993   3.073   1.852   1.540
 1657SOL    HW2 4994   3.056   1.697   1.586
 1658SOL     OW 4995   2.179   0.251   1.801
 1658SOL    HW1 4996   2.250   0.322   1.807
 1658SOL    HW2 4997   2.091   0.290   1.829
 1659SOL     OW 4998   3.328   1.417   0.953
 1659SOL    HW1 4999   3.269   1.423   1.033
 1659SOL    HW2 5000   3.313   1.329   0.907
 1660SOL     OW 5001   3.529   1.714   0.572
 1660SOL    HW1 5002   3.488   1.691   0.484
 1660SOL    HW2 5003   3.511   1.640   0.637
 1661SOL     OW 5004   2.460   0.729   0.270
 1661SOL    HW1 5005   2.484   0.798   0.202
 1661SOL    HW2 5006   2.382   0.762   0.324
 1662SOL     OW 5007   3.143   0.345   0.944
 1662SOL    HW1 5008   3.057   0.295   0.931
 1662SOL    HW2 5009   3.205   0.291   1.000
 1663SOL     OW 5010   3.438   1.662   0.307
 1663SOL    HW1 5011   3.527   1.708   0.310
 1663SOL    HW2 5012   3.417   1.638   0.212
 1664SOL     OW 5013   2.669   0.605   1.465
 1664SOL    HW1 5014   2.622   0.602   1.554
 1664SOL    HW2 5015   2.618   0.550   1.399
 1665SOL     OW 5016   3.256   0.469   1.674
 1665SOL    HW1 5017   3.236   0.512   1.762
 1665SOL    HW2 5018   3.334   0.407   1.683
 1666SOL     OW 5019   2.835   0.890   1.572
 1666SOL    HW1 5020   2.881   0.806   1.543
 1666SOL    HW2 5021   2.779   0.924   1.497
 1667SOL     OW 5022   2.853   0.410   1.242
 1667SOL    HW1 5023   2.776   0.444   1.296
 1667SOL    HW2 5024   2.819   0.359   1.163
 1668SOL     OW 5025   2.903   0.701   0.429
 1668SOL    HW1 5026   2.929   0.697   0.525
 1668SOL    HW2 5027   2.818   0.650   0.415
 1669SOL     OW 5028   1.938   0.811   0.789
 1669SOL    HW1 5029   2.037   0.799   0.798
 1669SOL    HW2 5030   1.914   0.906   0.810
 1670SOL     OW 5031   1.992   1.821   1.571
 1670SOL    HW1 5032   1.982   1.806   1.670
 1670SOL    HW2 5033   1.906   1.857   1.535
 1671SOL     OW 5034   2.727   0.348   0.195
 1671SOL    HW1 5035   2.786   0.411   0.146
 1671SOL    HW2 5036   2.746   0.254   0.166
 1672SOL     OW 5037   3.581   0.585   1.831
 1672SOL    HW1 5038   3.555   0.674   1.795
 1672SOL    HW2 5039   3.579   0.517   1.758
 1673SOL     OW 5040   3.224   1.144   0.545
 1673SOL    HW1 5041   3.307   1.115   0.497
 1673SOL    HW2 5042   3.175   1.211   0.489
 1674SOL     OW 5043   2.412   0.196   0.885
 1674SOL    HW1 5044   2.407   0.191   0.985
 1674SOL    HW2 5045   2.414   0.292   0.856
 1675SOL     OW 5046   2.870   1.456   0.477
 1675SOL    HW1 5047   2.824   1.528   0.425
 1675SOL    HW2 5048   2.866   1.476   0.575
 1676SOL     OW 5049   2.213   1.801   0.853
 1676SOL    HW1 5050   2.263   1.715   0.859
 1676SOL    HW2 5051   2.278   1.878   0.850
 1677SOL     OW 5052   3.657   1.066   0.873
 1677SOL    HW1 5053   3.595   1.051   0.797
 1677SOL    HW2 5054   3.605   1.077   0.958
 1678SOL     OW 5055   3.089   1.550   1.506
 1678SOL    HW1 5056   3.095   1.473   1.570
 1678SOL    HW2 5057   3.037   1.524   1.426
 1679SOL     OW 5058   2.183   0.943   0.242
 1679SOL    HW1 5059   2.265   0.982   0.200
 1679SOL    HW2 5060   2.156   0.861   0.193
 1680SOL     OW 5061   3.320   0.735   0.728
 1680SOL    HW1 5062   3.315   0.670   0.803
 1680SOL    HW2 5063   3.400   0.794   0.741
 1681SOL     OW 5064   2.323   1.266   1.727
 1681SOL    HW1 5065   2.273   1.267   1.641
 1681SOL    HW2 5066   2.260   1.248   1.803
 1682SOL     OW 5067   2.973   1.776   0.237
 1682SOL    HW1 5068   2.913   1.714   0.287
 1682SOL    HW2 5069   3.004   1.732   0.152
 1683SOL     OW 5070   2.064   0.285   1.498
 1683SOL    HW1 5071   1.984   0.345   1.485
 1683SOL    HW2 5072   2.054   0.236   1.584
 1684SOL     OW 5073   3.494   1.377   0.081
 1684SOL    HW1 5074   3.462   1.471   0.071
 1684SOL    HW2 5075   3.418   1.314   0.069
 1685SOL     OW 5076   2.326   1.743   0.323
 1685SOL    HW1 5077   2.359   1.782   0.409
 1685SOL    HW2 5078   2.402   1.736   0.258
 1686SOL     OW 5079   3.262   0.107   0.426
 1686SOL    HW1 5080   3.238   0.070   0.336
 1686SOL    HW2 5081   3.361   0.123   0.430
 1687SOL     OW 5082   2.111   1.785   1.241
 1687SOL    HW1 5083   2.168   1.720   1.291
 1687SOL    HW2 5084   2.095   1.752   1.148
 1688SOL     OW 5085   2.802   1.698   0.904
 1688SOL    HW1 5086   2.882   1.641   0.925
 1688SOL    HW2 5087   2.753   1.658   0.827
 1689SOL     OW 5088   2.244   0.700   0.480
 1689SOL    HW1 5089   2.289   0.610   0.477
 1689SOL    HW2 5090   2.150   0.689   0.513
 1690SOL     OW 5091   3.409   0.222   1.729
 1690SOL    HW1 5092   3.404   0.259   1.821
 1690SOL    HW2 5093   3.337   0.153   1.717
 1691SOL     OW 5094   2.476   0.122   0.117
 1691SOL    HW1 5095   2.574   0.100   0.124
 1691SOL    HW2 5096   2.445   0.105   0.024
 1692SOL     OW 5097   2.643   0.264   1.749
 1692SOL    HW1 5098   2.710   0.203   1.792
 1692SOL    HW2 5099   2.570   0.283   1.814
 1693SOL     OW 5100   2.750   1.514   1.195
 1693SOL    HW1 5101   2.727   1.489   1.101
 1693SOL    HW2 5102   2.811   1.445   1.234
 1694SOL     OW 5103   3.213   0.590   1.433
 1694SOL    HW1 5104   3.241   0.547   1.518
 1694SOL    HW2 5105   3.238   0.686   1.434
 1695SOL     OW 5106   2.665   1.402   0.924
 1695SOL    HW1 5107   2.755   1.416   0.882
 1695SOL    HW2 5108   2.594   1.404   0.853
 1696SOL     OW 5109   2.784   0.503   0.899
 1696SOL    HW1 5110   2.759   0.494   0.803
 1696SOL    HW2 5111   2.832   0.421   0.930
 1697SOL     OW 5112   2.401   0.064   0.512
 1697SOL    HW1 5113   2.320   0.065   0.570
 1697SOL    HW2 5114   2.404   0.147   0.457
 1698SOL     OW 5115   3.296   1.188   0.041
 1698SOL    HW1 5116   3.328   1.112   0.098
 1698SOL    HW2 5117   3.204   1.215   0.071
 1699SOL     OW 5118   2.159   0.035   0.171
 1699SOL    HW1 5119   2.208   0.119   0.150
 1699SOL    HW2 5120   2.221  -0.030   0.216
 1700SOL     OW 5121   2.797   0.236   0.480
 1700SOL    HW1 5122   2.749   0.277   0.402
 1700SOL    HW2 5123   2.896   0.234   0.461
 1701SOL     OW 5124   2.938   0.683   1.464
 1701SOL    HW1 5125   2.858   0.622   1.467
 1701SOL    HW2 5126   3.019   0.630   1.440
 1702SOL     OW 5127   3.089   1.570   0.793
 1702SOL    HW1 5128   3.110   1.644   0.728
 1702SOL    HW2 5129   3.157   1.570   0.866
 1703SOL     OW 5130   2.321   1.152   0.741
 1703SOL    HW1 5131   2.250   1.125   0.806
 1703SOL    HW2 5132   2.295   1.124   0.648
 1704SOL     OW 5133   3.133   1.797   0.591
 1704SOL    HW1 5134   3.177   1.861   0.527
 1704SOL    HW2 5135   3.083   1.849   0.661
 1705SOL     OW 5136   2.894   0.549   0.016
 1705SOL    HW1 5137   2.853   0.631  -0.023
 1705SOL    HW2 5138   2.958   0.575   0.089
 1706SOL     OW 5139   1.940   0.556   1.386
 1706SOL    HW1 5140   2.032   0.555   1.345
 1706SOL    HW2 5141   1.934   0.630   1.453
 1707SOL     OW 5142   2.423   0.222   1.147
 1707SOL    HW1 5143   2.461   0.138   1.184
 1707SOL    HW2 5144   2.335   0.241   1.191
 1708SOL     OW 5145   2.728   0.454   0.642
 1708SOL    HW1 5146   2.696   0.526   0.580
 1708SOL    HW2 5147   2.752   0.373   0.589
 1709SOL     OW 5148   2.879   0.039   0.753
 1709SOL    HW1 5149   2.807   0.044   0.684
 1709SOL    HW2 5150   2.855  -0.030   0.822
 1710SOL     OW 5151   3.291   1.173   0.867
 1710SOL    HW1 5152   3.236   1.089   0.860
 1710SOL    HW2 5153   3.317   1.202   0.775
 1711SOL     OW 5154   3.328   0.590   0.992
 1711SOL    HW1 5155   3.298   0.495   0.999
 1711SOL    HW2 5156   3.401   0.606   1.058
 1712SOL     OW 5157   3.719   0.833   0.377
 1712SOL    HW1 5158   3.761   0.769   0.441
 1712SOL    HW2 5159   3.681   0.782   0.299
 1713SOL     OW 5160   2.350   1.385   0.174
 1713SOL    HW1 5161   2.263   1.370   0.221
 1713SOL    HW2 5162   2.333   1.411   0.079
 1714SOL     OW 5163   3.526   1.280   0.657
 1714SOL    HW1 5164   3.625   1.288   0.671
 1714SOL    HW2 5165   3.481   1.364   0.688
 1715SOL     OW 5166   3.252   0.575   0.078
 1715SOL    HW1 5167   3.198   0.554   0.159
 1715SOL    HW2 5168   3.343   0.534   0.087
 1716SOL     OW 5169   2.389   0.256   0.328
 1716SOL    HW1 5170   2.416   0.197   0.253
 1716SOL    HW2 5171   2.389   0.351   0.297
 1717SOL     OW 5172   3.616   1.223   1.588
 1717SOL    HW1 5173   3.707   1.184   1.575
 1717SOL    HW2 5174   3.624   1.319   1.612
 1718SOL     OW 5175   2.926   1.347   1.340
 1718SOL    HW1 5176   2.846   1.324   1.395
 1718SOL    HW2 5177   3.009   1.321   1.389
 1719SOL     OW 5178   3.454   1.629   1.625
 1719SOL    HW1 5179   3.481   1.663   1.535
 1719SOL    HW2 5180   3.533   1.591   1.671
 1720SOL     OW 5181   2.973   1.195   1.100
 1720SOL    HW1 5182   2.933   1.239   1.181
 1720SOL    HW2 5183   2.932   1.232   1.017
 1721SOL     OW 5184   3.500   1.099   1.079
 1721SOL    HW1 5185   3.505   1.180   1.138
 1721SOL    HW2 5186   3.414   1.101   1.028
 1722SOL     OW 5187   2.777   0.089   1.402
 1722SOL    HW1 5188   2.802   0.069   1.307
 1722SOL    HW2 5189   2.849   0.145   1.444
 1723SOL     OW 5190   2.842   1.116   1.719
 1723SOL    HW1 5191   2.743   1.122   1.729
 1723SOL    HW2 5192   2.865   1.036   1.663
 1724SOL     OW 5193   2.567   1.050   0.368
 1724SOL    HW1 5194   2.553   1.057   0.467
 1724SOL    HW2 5195   2.651   0.999   0.350
 1725SOL     OW 5196   2.272   0.813   1.251
 1725SOL    HW1 5197   2.358   0.825   1.301
 1725SOL    HW2 5198   2.230   0.726   1.278
 1726SOL     OW 5199   3.136   0.386   1.262
 1726SOL    HW1 5200   3.157   0.460   1.326
 1726SOL    HW2 5201   3.047   0.403   1.219
 1727SOL     OW 5202   1.926   1.564   1.331
 1727SOL    HW1 5203   1.880   1.646   1.297
 1727SOL    HW2 5204   2.024   1.583   1.340
 1728SOL     OW 5205   2.229   1.100   0.501
 1728SOL    HW1 5206   2.222   1.183   0.445
 1728SOL    HW2 5207   2.233   1.020   0.441
 1729SOL     OW 5208   2.428   0.537   0.865
 1729SOL    HW1 5209   2.440   0.603   0.791
 1729SOL    HW2 5210   2.474   0.571   0.948
 1730SOL     OW 5211   3.114   1.348   0.388
 1730SOL    HW1 5212   3.164   1.425   0.428
 1730SOL    HW2 5213   3.019   1.350   0.420
 1731SOL     OW 5214   3.134   1.445   1.142
 1731SOL    HW1 5215   3.181   1.458   1.229
 1731SOL    HW2 5216   3.068   1.371   1.151
 1732SOL     OW 5217   3.444   0.639   0.472
 1732SOL    HW1 5218   3.413   0.700   0.545
 1732SOL    HW2 5219   3.494   0.691   0.403
 1733SOL     OW 5220   2.216   1.510   1.329
 1733SOL    HW1 5221   2.195   1.466   1.242
 1733SOL    HW2 5222   2.313   1.536   1.332
 1734SOL     OW 5223   2.264   0.751   1.598
 1734SOL    HW1 5224   2.332   0.806   1.551
 1734SOL    HW2 5225   2.304   0.663   1.625
 1735SOL     OW 5226   3.449   0.779   1.670
 1735SOL    HW1 5227   3.357   0.817   1.665
 1735SOL    HW2 5228   3.509   0.826   1.605
 1736SOL     OW 5229   2.875   0.105   1.770
 1736SOL    HW1 5230   2.881   0.190   1.718
 1736SOL    HW2 5231   2.907   0.029   1.713
 1737SOL     OW 5232   2.366   0.050   1.740
 1737SOL    HW1 5233   2.324  -0.007   1.670
 1737SOL    HW2 5234   2.300   0.119   1.772
 1738SOL     OW 5235   2.435   0.870   1.029
 1738SOL    HW1 5236   2.479   0.959   1.020
 1738SOL    HW2 5237   2.372   0.870   1.106
 1739SOL     OW 5238   3.222   0.862   1.045
 1739SOL    HW1 5239   3.147   0.862   0.979
 1739SOL    HW2 5240   3.259   0.770   1.054
 1740SOL     OW 5241   3.071   0.525   0.275
 1740SOL    HW1 5242   3.084   0.441   0.329
 1740SOL    HW2 5243   3.042   0.599   0.335
 1741SOL     OW 5244   2.169   0.213   1.231
 1741SOL    HW1 5245   2.146   0.250   1.321
 1741SOL    HW2 5246   2.139   0.118   1.225
 1742SOL     OW 5247   1.899   1.310   1.282
 1742SOL    HW1 5248   1.952   1.261   1.350
 1742SOL    HW2 5249   1.921   1.408   1.287
 1743SOL     OW 5250   2.594   0.634   1.064
 1743SOL    HW1 5251   2.653   0.608   0.988
 1743SOL    HW2 5252   2.566   0.730   1.053
 1744SOL     OW 5253   3.590   0.935   1.854
 1744SOL    HW1 5254   3.544   0.928   1.765
 1744SOL    HW2 5255   3.528   0.979   1.920
 1745SOL     OW 5256   2.169   0.063   0.618
 1745SOL    HW1 5257   2.158   0.157   0.651
 1745SOL    HW2 5258   2.164   0.000   0.695
 1746SOL     OW 5259   3.484   0.367   0.374
 1746SOL    HW1 5260   3.486   0.291   0.438
 1746SOL    HW2 5261   3.436   0.444   0.414
 1747SOL     OW 5262   2.885   0.766   0.966
 1747SOL    HW1 5263   2.900   0.787   1.062
 1747SOL    HW2 5264   2.855   0.671   0.957
 1748SOL     OW 5265   2.842   1.573   1.700
 1748SOL    HW1 5266   2.822   1.617   1.612
 1748SOL    HW2 5267   2.881   1.482   1.684
 1749SOL     OW 5268   3.721   1.518   1.605
 1749SOL    HW1 5269   3.735   1.545   1.510
 1749SOL    HW2 5270   3.804   1.540   1.658
 1750SOL     OW 5271   2.212   0.898   1.804
 1750SOL    HW1 5272   2.288   0.942   1.852
 1750SOL    HW2 5273   2.247   0.851   1.722
 1751SOL     OW 5274   3.402   0.274   0.125
 1751SOL    HW1 5275   3.341   0.199   0.148
 1751SOL    HW2 5276   3.424   0.326   0.208
 1752SOL     OW 5277   3.165   0.838   0.042
 1752SOL    HW1 5278   3.199   0.745   0.057
 1752SOL    HW2 5279   3.183   0.865  -0.053
 1753SOL     OW 5280   2.930   1.333   0.849
 1753SOL    HW1 5281   2.937   1.249   0.794
 1753SOL    HW2 5282   2.992   1.402   0.813
 1754SOL     OW 5283   2.181   0.810   0.949
 1754SOL    HW1 5284   2.274   0.846   0.954
 1754SOL    HW2 5285   2.175   0.725   1.001
 1755SOL     OW 5286   2.201   0.509   1.006
 1755SOL    HW1 5287   2.149   0.426   0.989
 1755SOL    HW2 5288   2.278   0.514   0.942
 1756SOL     OW 5289   3.000   0.380   1.678
 1756SOL    HW1 5290   2.955   0.443   1.742
 1756SOL    HW2 5291   3.093   0.411   1.661
 1757SOL     OW 5292   3.022   0.207   1.477
 1757SOL    HW1 5293   3.022   0.271   1.554
 1757SOL    HW2 5294   3.050   0.255   1.394
 1758SOL     OW 5295   1.950   1.801   0.927
 1758SOL    HW1 5296   1.908   1.715   0.900
 1758SOL    HW2 5297   2.044   1.804   0.893
 1759SOL     OW 5298   2.366   1.568   0.910
 1759SOL    HW1 5299   2.432   1.642   0.919
 1759SOL    HW2 5300   2.410   1.489   0.868
 1760SOL     OW 5301   2.864   0.796   1.238
 1760SOL    HW1 5302   2.905   0.764   1.324
 1760SOL    HW2 5303   2.768   0.769   1.235
 1761SOL     OW 5304   1.902   0.544   1.114
 1761SOL    HW1 5305   1.987   0.511   1.073
 1761SOL    HW2 5306   1.915   0.559   1.212
 1762SOL     OW 5307   2.051   0.520   1.722
 1762SOL    HW1 5308   2.110   0.480   1.652
 1762SOL    HW2 5309   1.993   0.591   1.681
 1763SOL     OW 5310   3.231   0.950   1.660
 1763SOL    HW1 5311   3.270   1.039   1.680
 1763SOL    HW2 5312   3.241   0.930   1.563
 1764SOL     OW 5313   2.677   0.572   0.325
 1764SOL    HW1 5314   2.684   0.483   0.279
 1764SOL    HW2 5315   2.583   0.606   0.317
 1765SOL     OW 5316   3.519   0.604   1.206
 1765SOL    HW1 5317   3.481   0.535   1.268
 1765SOL    HW2 5318   3.601   0.568   1.162
 1766SOL     OW 5319   2.114   1.564   1.744
 1766SOL    HW1 5320   2.084   1.621   1.820
 1766SOL    HW2 5321   2.107   1.467   1.770
 1767SOL     OW 5322   2.533   0.464   1.269
 1767SOL    HW1 5323   2.499   0.375   1.239
 1767SOL    HW2 5324   2.559   0.518   1.189
 1768SOL     OW 5325   2.792   1.678   1.465
 1768SOL    HW1 5326   2.768   1.660   1.370
 1768SOL    HW2 5327   2.822   1.772   1.475
 1769SOL     OW 5328   2.335   0.500   0.191
 1769SOL    HW1 5329   2.396   0.580   0.195
 1769SOL    HW2 5330   2.240   0.531   0.198
 1770SOL     OW 5331   2.021   1.137   1.466
 1770SOL    HW1 5332   2.043   1.076   1.542
 1770SOL    HW2 5333   2.031   1.088   1.380
 1771SOL     OW 5334   3.209   1.059   1.234
 1771SOL    HW1 5335   3.233   0.996   1.160
 1771SOL    HW2 5336   3.119   1.099   1.216
 1772SOL     OW 5337   3.164   0.855   0.309
 1772SOL    HW1 5338   3.078   0.824   0.351
 1772SOL    HW2 5339   3.160   0.841   0.210
 1773SOL     OW 5340   3.621   1.747   1.154
 1773SOL    HW1 5341   3.682   1.777   1.081
 1773SOL    HW2 5342   3.583   1.658   1.132
 1774SOL     OW 5343   3.114   1.731   1.128
 1774SOL    HW1 5344   3.198   1.736   1.074
 1774SOL    HW2 5345   3.091   1.635   1.146
 1775SOL     OW 5346   1.945   1.258   1.022
 1775SOL    HW1 5347   1.940   1.257   1.122
 1775SOL    HW2 5348   1.862   1.217   0.984
 1776SOL     OW 5349   2.550   1.662   1.716
 1776SOL    HW1 5350   2.494   1.743   1.725
 1776SOL    HW2 5351   2.602   1.666   1.630
 1777SOL     OW 5352   2.765   0.086   0.133
 1777SOL    HW1 5353   2.816   0.087   0.047
 1777SOL    HW2 5354   2.821   0.044   0.204
 1778SOL     OW 5355   3.588   0.135   0.523
 1778SOL    HW1 5356   3.661   0.118   0.456
 1778SOL    HW2 5357   3.557   0.048   0.561
 1779SOL     OW 5358   3.250   1.573   0.477
 1779SOL    HW1 5359   3.317   1.585   0.403
 1779SOL    HW2 5360   3.210   1.662   0.500
 1780SOL     OW 5361   1.992   1.794   1.851
 1780SOL    HW1 5362   1.951   1.720   1.904
 1780SOL    HW2 5363   2.056   1.845   1.909
 1781SOL     OW 5364   3.142   0.927   0.672
 1781SOL    HW1 5365   3.202   0.846   0.674
 1781SOL    HW2 5366   3.182   0.996   0.612
 1782SOL     OW 5367   2.692   1.273   1.422
 1782SOL    HW1 5368   2.687   1.306   1.517
 1782SOL    HW2 5369   2.606   1.292   1.376
 1783SOL     OW 5370   2.534   1.616   0.154
 1783SOL    HW1 5371   2.543   1.626   0.055
 1783SOL    HW2 5372   2.494   1.527   0.175
 1784SOL     OW 5373   3.512   1.720   1.394
 1784SOL    HW1 5374   3.565   1.730   1.310
 1784SOL    HW2 5375   3.485   1.810   1.428
 1785SOL     OW 5376   3.703   0.175   0.963
 1785SOL    HW1 5377   3.742   0.090   0.927
 1785SOL    HW2 5378   3.605   0.177   0.944
 1786SOL     OW 5379   2.125   0.326   0.720
 1786SOL    HW1 5380   2.046   0.377   0.686
 1786SOL    HW2 5381   2.116   0.311   0.818
 1787SOL     OW 5382   3.056   1.612   0.031
 1787SOL    HW1 5383   3.062   1.519   0.068
 1787SOL    HW2 5384   2.997   1.612  -0.049
 1788SOL     OW 5385   2.684   1.002   1.372
 1788SOL    HW1 5386   2.724   1.001   1.280
 1788SOL    HW2 5387   2.694   1.094   1.412
 1789SOL     OW 5388   2.778   0.910   0.291
 1789SOL    HW1 5389   2.841   0.948   0.223
 1789SOL    HW2 5390   2.818   0.827   0.330
 1790SOL     OW 5391   3.366   1.607   0.044
 1790SOL    HW1 5392   3.274   1.644   0.051
 1790SOL    HW2 5393   3.404   1.627  -0.046
 1791SOL     OW 5394   2.234   1.288   1.490
 1791SOL    HW1 5395   2.221   1.381   1.456
 1791SOL    HW2 5396   2.150   1.236   1.477
 1792SOL     OW 5397   3.476   1.292   1.289
 1792SOL    HW1 5398   3.536   1.295   1.369
 1792SOL    HW2 5399   3.401   1.356   1.302
 1793SOL     OW 5400   2.901   1.098   0.696
 1793SOL    HW1 5401   2.831   1.051   0.750
 1793SOL    HW2 5402   2.960   1.030   0.653
 1794SOL     OW 5403   2.876   0.236   0.971
 1794SOL    HW1 5404   2.868   0.200   0.878
 1794SOL    HW2 5405   2.874   0.160   1.036
 1795SOL     OW 5406   2.452   1.487   0.491
 1795SOL    HW1 5407   2.494   1.429   0.421
 1795SOL    HW2 5408   2.408   1.566   0.447
 1796SOL     OW 5409   3.571   0.385   1.381
 1796SOL    HW1 5410   3.644   0.454   1.385
 1796SOL    HW2 5411   3.599   0.310   1.322
 1797SOL     OW 5412   2.117   1.348   0.290
 1797SOL    HW1 5413   2.021   1.349   0.263
 1797SOL    HW2 5414   2.129   1.401   0.374
 1798SOL     OW 5415   1.967   1.013   1.726
 1798SOL    HW1 5416   1.890   0.980   1.780
 1798SOL    HW2 5417   2.052   0.983   1.768
 1799SOL     OW 5418   2.534   0.203   1.489
 1799SOL    HW1 5419   2.624   0.187   1.449
 1799SOL    HW2 5420   2.542   0.208   1.588
 1800SOL     OW 5421   1.937   0.345   0.033
 1800SOL    HW1 5422   1.845   0.317   0.004
 1800SOL    HW2 5423   1.968   0.422  -0.023
 1801SOL     OW 5424   3.302   0.856   1.398
 1801SOL    HW1 5425   3.245   0.908   1.335
 1801SOL    HW2 5426   3.398   0.868   1.374
 1802SOL     OW 5427   1.934   0.166   0.318
 1802SOL    HW1 5428   1.917   0.249   0.264
 1802SOL    HW2 5429   2.024   0.129   0.296
 1803SOL     OW 5430   3.045   1.335   0.119
 1803SOL    HW1 5431   2.946   1.324   0.121
 1803SOL    HW2 5432   3.079   1.350   0.212
 1804SOL     OW 5433   2.475   0.842   1.431
 1804SOL    HW1 5434   2.531   0.923   1.414
 1804SOL    HW2 5435   2.534   0.762   1.434
 1805SOL     OW 5436   3.355   1.767   0.959
 1805SOL    HW1 5437   3.388   1.831   0.890
 1805SOL    HW2 5438   3.421   1.761   1.034
 1806SOL     OW 5439   2.578   0.565   1.708
 1806SOL    HW1 5440   2.597   0.630   1.782
 1806SOL    HW2 5441   2.638   0.485   1.717
 1807SOL     OW 5442   3.312   1.220   1.633
 1807SOL    HW1 5443   3.303   1.210   1.732
 1807SOL    HW2 5444   3.408   1.213   1.607
 1808SOL     OW 5445   2.252   1.741   1.560
 1808SOL    HW1 5446   2.161   1.782   1.558
 1808SOL    HW2 5447   2.245   1.647   1.592
 1809SOL     OW 5448   3.536   0.883   1.254
 1809SOL    HW1 5449   3.509   0.794   1.217
 1809SOL    HW2 5450   3.537   0.951   1.181
 1810SOL     OW 5451   3.087   0.325   0.449
 1810SOL    HW1 5452   3.152   0.251   0.438
 1810SOL    HW2 5453   3.107   0.375   0.533
 1811SOL     OW 5454   2.456   0.745   0.652
 1811SOL    HW1 5455   2.506   0.830   0.633
 1811SOL    HW2 5456   2.368   0.747   0.604
 1812SOL     OW 5457   3.639   0.342   1.642
 1812SOL    HW1 5458   3.622   0.373   1.548
 1812SOL    HW2 5459   3.555   0.305   1.680
 1813SOL     OW 5460   3.592   0.934   1.517
 1813SOL    HW1 5461   3.630   1.025   1.532
 1813SOL    HW2 5462   3.584   0.917   1.418
 1814SOL     OW 5463   2.721   1.374   0.016
 1814SOL    HW1 5464   2.675   1.389   0.104
 1814SOL    HW2 5465   2.765   1.459  -0.014
 1815SOL     OW 5466   2.523   1.790   0.953
 1815SOL    HW1 5467   2.477   1.878   0.940
 1815SOL    HW2 5468   2.622   1.802   0.946
 1816SOL     OW 5469   2.721   0.956   0.861
 1816SOL    HW1 5470   2.775   0.887   0.909
 1816SOL    HW2 5471   2.689   1.025   0.927
 1817SOL     OW 5472   2.945   0.984   0.087
 1817SOL    HW1 5473   2.922   1.037   0.005
 1817SOL    HW2 5474   3.026   0.928   0.068
 1818SOL     OW 5475   3.723   1.569   0.851
 1818SOL    HW1 5476   3.652   1.557   0.781
 1818SOL    HW2 5477   3.724   1.490   0.911
 1819SOL     OW 5478   2.083   1.314   1.844
 1819SOL    HW1 5479   2.018   1.241   1.823
 1819SOL    HW2 5480   2.087   1.328   1.942
 1820SOL     OW 5481   1.941   1.240   0.653
 1820SOL    HW1 5482   1.940   1.193   0.741
 1820SOL    HW2 5483   2.023   1.212   0.602
 1821SOL     OW 5484   2.534   1.391   1.624
 1821SOL    HW1 5485   2.456   1.341   1.662
 1821SOL    HW2 5486   2.531   1.486   1.655
 1822SOL     OW 5487   3.686   0.192   1.227
 1822SOL    HW1 5488   3.682   0.102   1.271
 1822SOL    HW2 5489   3.689   0.181   1.128
 1823SOL     OW 5490   2.290   0.424   0.520
 1823SOL    HW1 5491   2.320   0.352   0.458
 1823SOL    HW2 5492   2.251   0.384   0.603
 1824SOL     OW 5493   3.567   1.487   1.104
 1824SOL    HW1 5494   3.474   1.462   1.077
 1824SOL    HW2 5495   3.593   1.437   1.186
 1825SOL     OW 5496   2.179   0.547   1.280
 1825SOL    HW1 5497   2.217   0.488   1.352
 1825SOL    HW2 5498   2.219   0.521   1.192
 1826SOL     OW 5499   2.674   1.586   0.687
 1826SOL    HW1 5500   2.706   1.596   0.593
 1826SOL    HW2 5501   2.595   1.524   0.689
 1827SOL     OW 5502   3.286   0.214   1.112
 1827SOL    HW1 5503   3.338   0.149   1.167
 1827SOL    HW2 5504   3.237   0.277   1.173
 1828SOL     OW 5505   2.863   0.034   1.154
 1828SOL    HW1 5506   2.800  -0.038   1.123
 1828SOL    HW2 5507   2.956  -0.002   1.154
 1829SOL     OW 5508   2.632   1.330   0.301
 1829SOL    HW1 5509   2.586   1.243   0.318
 1829SOL    HW2 5510   2.723   1.327   0.342
 1830SOL     OW 5511   2.480   1.567   1.284
 1830SOL    HW1 5512   2.475   1.649   1.341
 1830SOL    HW2 5513   2.569   1.564   1.239
 1831SOL     OW 5514   3.214   0.052   0.168
 1831SOL    HW1 5515   3.249   0.011   0.084
 1831SOL    HW2 5516   3.124   0.014   0.188
 1832SOL     OW 5517   3.162   0.453   0.691
 1832SOL    HW1 5518   3.103   0.533   0.695
 1832SOL    HW2 5519   3.177   0.418   0.784
 1833SOL     OW 5520   3.455   0.221   0.882
 1833SOL    HW1 5521   3.371   0.220   0.936
 1833SOL    HW2 5522   3.457   0.304   0.826
 1834SOL     OW 5523   1.901   1.077   0.300
 1834SOL    HW1 5524   2.000   1.066   0.291
 1834SOL    HW2 5525   1.861   0.991   0.332
 1835SOL     OW 5526   2.737   1.646   0.337
 1835SOL    HW1 5527   2.660   1.611   0.283
 1835SOL    HW2 5528   2.705   1.717   0.399
 1836SOL     OW 5529   2.092   0.628   1.975
 1836SOL    HW1 5530   1.999   0.626   2.012
 1836SOL    HW2 5531   2.093   0.589   1.883
 1837SOL     OW 5532   2.087   0.275   2.858
 1837SOL    HW1 5533   2.122   0.258   2.950
 1837SOL    HW2 5534   1.999   0.230   2.846
 1838SOL     OW 5535   1.881   0.368   2.509
 1838SOL    HW1 5536   1.799   0.411   2.548
 1838SOL    HW2 5537   1.853   0.295   2.446
 1839SOL     OW 5538   2.431   1.275   3.027
 1839SOL    HW1 5539   2.338   1.268   2.990
 1839SOL    HW2 5540   2.442   1.364   3.071
 1840SOL     OW 5541   3.417   1.511   2.565
 1840SOL    HW1 5542   3.360   1.495   2.646
 1840SOL    HW2 5543   3.358   1.521   2.485
 1841SOL     OW 5544   2.997   0.703   2.579
 1841SOL    HW1 5545   3.054   0.781   2.554
 1841SOL    HW2 5546   2.937   0.729   2.655
 1842SOL     OW 5547   3.617   0.607   2.093
 1842SOL    HW1 5548   3.605   0.594   1.994
 1842SOL    HW2 5549   3.587   0.526   2.142
 1843SOL     OW 5550   2.630   1.144   2.885
 1843SOL    HW1 5551   2.552   1.161   2.945
 1843SOL    HW2 5552   2.664   1.231   2.849
 1844SOL     OW 5553   2.712   0.798   3.685
 1844SOL    HW1 5554   2.708   0.874   3.750
 1844SOL    HW2 5555   2.734   0.834   3.594
 1845SOL     OW 5556   2.547   1.012   2.527
 1845SOL    HW1 5557   2.616   0.996   2.597
 1845SOL    HW2 5558   2.474   1.069   2.565
 1846SOL     OW 5559   2.548   1.161   3.665
 1846SOL    HW1 5560   2.608   1.240   3.679
 1846SOL    HW2 5561   2.462   1.192   3.624
 1847SOL     OW 5562   2.197   1.435   2.923
 1847SOL    HW1 5563   2.119   1.404   2.870
 1847SOL    HW2 5564   2.255   1.493   2.866
 1848SOL     OW 5565   3.322   1.505   3.201
 1848SOL    HW1 5566   3.346   1.599   3.227
 1848SOL    HW2 5567   3.306   1.451   3.283
 1849SOL     OW 5568   2.300   0.392   3.361
 1849SOL    HW1 5569   2.382   0.336   3.370
 1849SOL    HW2 5570   2.219   0.334   3.365
 1850SOL     OW 5571   3.465   0.447   2.599
 1850SOL    HW1 5572   3.391   0.493   2.549
 1850SOL    HW2 5573   3.516   0.515   2.652
 1851SOL     OW 5574   2.093   1.713   2.345
 1851SOL    HW1 5575   2.127   1.790   2.399
 1851SOL    HW2 5576   2.137   1.713   2.255
 1852SOL     OW 5577   2.989   1.341   3.552
 1852SOL    HW1 5578   3.036   1.341   3.640
 1852SOL    HW2 5579   2.941   1.254   3.541
 1853SOL     OW 5580   2.092   1.434   2.400
 1853SOL    HW1 5581   2.066   1.530   2.400
 1853SOL    HW2 5582   2.021   1.380   2.445
 1854SOL     OW 5583   2.102   1.091   2.748
 1854SOL    HW1 5584   2.116   1.007   2.800
 1854SOL    HW2 5585   2.047   1.155   2.803
 1855SOL     OW 5586   2.482   1.786   3.301
 1855SOL    HW1 5587   2.390   1.769   3.336
 1855SOL    HW2 5588   2.510   1.878   3.327
 1856SOL     OW 5589   2.468   0.964   1.985
 1856SOL    HW1 5590   2.475   1.048   1.931
 1856SOL    HW2 5591   2.514   0.977   2.073
 1857SOL     OW 5592   3.456   0.114   3.342
 1857SOL    HW1 5593   3.438   0.181   3.270
 1857SOL    HW2 5594   3.453   0.160   3.431
 1858SOL     OW 5595   1.984   0.643   2.425
 1858SOL    HW1 5596   1.939   0.555   2.442
 1858SOL    HW2 5597   1.983   0.697   2.509
 1859SOL     OW 5598   3.704   1.767   2.221
 1859SOL    HW1 5599   3.758   1.738   2.301
 1859SOL    HW2 5600   3.734   1.857   2.192
 1860SOL     OW 5601   1.889   1.596   1.979
 1860SOL    HW1 5602   1.870   1.500   2.000
 1860SOL    HW2 5603   1.856   1.654   2.054
 1861SOL     OW 5604   3.551   0.922   2.474
 1861SOL    HW1 5605   3.646   0.893   2.482
 1861SOL    HW2 5606   3.543   0.987   2.399
 1862SOL     OW 5607   3.503   1.108   2.294
 1862SOL    HW1 5608   3.589   1.110   2.242
 1862SOL    HW2 5609   3.517   1.155   2.382
 1863SOL     OW 5610   1.975   0.737   3.459
 1863SOL    HW1 5611   2.063   0.724   3.504
 1863SOL    HW2 5612   1.962   0.834   3.437
 1864SOL     OW 5613   2.475   1.365   2.588
 1864SOL    HW1 5614   2.426   1.278   2.597
 1864SOL    HW2 5615   2.452   1.408   2.501
 1865SOL     OW 5616   3.155   1.228   3.285
 1865SOL    HW1 5617   3.192   1.155   3.227
 1865SOL    HW2 5618   3.207   1.233   3.370
 1866SOL     OW 5619   2.671   0.004   2.364
 1866SOL    HW1 5620   2.711   0.095   2.355
 1866SOL    HW2 5621   2.571   0.012   2.370
 1867SOL     OW 5622   2.059   0.976   3.126
 1867SOL    HW1 5623   2.148   0.931   3.112
 1867SOL    HW2 5624   1.986   0.911   3.107
 1868SOL     OW 5625   3.387   0.999   2.052
 1868SOL    HW1 5626   3.324   0.923   2.065
 1868SOL    HW2 5627   3.435   1.017   2.138
 1869SOL     OW 5628   3.049   1.792   3.478
 1869SOL    HW1 5629   3.073   1.852   3.402
 1869SOL    HW2 5630   3.056   1.697   3.448
 1870SOL     OW 5631   2.179   0.251   3.663
 1870SOL    HW1 5632   2.250   0.322   3.669
 1870SOL    HW2 5633   2.091   0.290   3.691
 1871SOL     OW 5634   3.328   1.417   2.815
 1871SOL    HW1 5635   3.269   1.423   2.895
 1871SOL    HW2 5636   3.313   1.329   2.769
 1872SOL     OW 5637   3.529   1.714   2.434
 1872SOL    HW1 5638   3.488   1.691   2.346
 1872SOL    HW2 5639   3.511   1.640   2.499
 1873SOL     OW 5640   2.460   0.729   2.132
 1873SOL    HW1 5641   2.484   0.798   2.064
 1873SOL    HW2 5642   2.382   0.762   2.186
 1874SOL     OW 5643   3.143   0.345   2.806
 1874SOL    HW1 5644   3.057   0.295   2.793
 1874SOL    HW2 5645   3.205   0.291   2.862
 1875SOL     OW 5646   3.438   1.662   2.169
 1875SOL    HW1 5647   3.527   1.708   2.172
 1875SOL    HW2 5648   3.417   1.638   2.074
 1876SOL     OW 5649   2.669   0.605   3.327
 1876SOL    HW1 5650   2.622   0.602   3.416
 1876SOL    HW2 5651   2.618   0.550   3.261
 1877SOL     OW 5652   3.256   0.469   3.536
 1877SOL    HW1 5653   3.236   0.512   3.624
 1877SOL    HW2 5654   3.334   0.407   3.545
 1878SOL     OW 5655   2.835   0.890   3.434
 1878SOL    HW1 5656   2.881   0.806   3.405
 1878SOL    HW2 5657   2.779   0.924   3.359
 1879SOL     OW 5658   2.853   0.410   3.104
 1879SOL    HW1 5659   2.776   0.444   3.158
 1879SOL    HW2 5660   2.819   0.359   3.025
 1880SOL     OW 5661   2.903   0.701   2.291
 1880SOL    HW1 5662   2.929   0.697   2.387
 1880SOL    HW2 5663   2.818   0.650   2.277
 1881SOL     OW 5664   1.938   0.811   2.651
 1881SOL    HW1 5665   2.037   0.799   2.660
 1881SOL    HW2 5666   1.914   0.906   2.672
 1882SOL     OW 5667   1.992   1.821   3.433
 1882SOL    HW1 5668   1.982   1.806   3.532
 1882SOL    HW2 5669   1.906   1.857   3.397
 1883SOL     OW 5670   2.727   0.348   2.057
 1883SOL    HW1 5671   2.786   0.411   2.008
 1883SOL    HW2 5672   2.746   0.254   2.028
 1884SOL     OW 5673   3.581   0.585   3.693
 1884SOL    HW1 5674   3.555   0.674   3.657
 1884SOL    HW2 5675   3.579   0.517   3.620
 1885SOL     OW 5676   3.224   1.144   2.407
 1885SOL    HW1 5677   3.307   1.115   2.359
 1885SOL    HW2 5678   3.175   1.211   2.351
 1886SOL     OW 5679   2.412   0.196   2.747
 1886SOL    HW1 5680   2.407   0.191   2.847
 1886SOL    HW2 5681   2.414   0.292   2.718
 1887SOL     OW 5682   2.870   1.456   2.339
 1887SOL    HW1 5683   2.824   1.528   2.287
 1887SOL    HW2 5684   2.866   1.476   2.437
 1888SOL     OW 5685   2.213   1.801   2.715
 1888SOL    HW1 5686   2.263   1.715   2.721
 1888SOL    HW2 5687   2.278   1.878   2.712
 1889SOL     OW 5688   3.657   1.066   2.735
 1889SOL    HW1 5689   3.595   1.051   2.659
 1889SOL    HW2 5690   3.605   1.077   2.820
 1890SOL     OW 5691   3.089   1.550   3.368
 1890SOL    HW1 5692   3.095   1.473   3.432
 1890SOL    HW2 5693   3.037   1.524   3.288
 1891SOL     OW 5694   2.183   0.943   2.104
 1891SOL    HW1 5695   2.265   0.982   2.062
 1891SOL    HW2 5696   2.156   0.861   2.055
 1892SOL     OW 5697   3.320   0.735   2.590
 1892SOL    HW1 5698   3.315   0.670   2.665
 1892SOL    HW2 5699   3.400   0.794   2.603
 1893SOL     OW 5700   2.323   1.266   3.589
 1893SOL    HW1 5701   2.273   1.267   3.503
 1893SOL    HW2 5702   2.260   1.248   3.665
 1894SOL     OW 5703   2.973   1.776   2.099
 1894SOL    HW1 5704   2.913   1.714   2.149
 1894SOL    HW2 5705   3.004   1.732   2.014
 1895SOL     OW 5706   2.064   0.285   3.360
 1895SOL    HW1 5707   1.984   0.345   3.347
 1895SOL    HW2 5708   2.054   0.236   3.446
 1896SOL     OW 5709   3.494   1.377   1.943
 1896SOL    HW1 5710   3.462   1.471   1.933
 1896SOL    HW2 5711   3.418   1.314   1.931
 1897SOL     OW 5712   2.326   1.743   2.185
 1897SOL    HW1 5713   2.359   1.782   2.271
 1897SOL    HW2 5714   2.402   1.736   2.120
 1898SOL     OW 5715   3.262   0.107   2.288
 1898SOL    HW1 5716   3.238   0.070   2.198
 1898SOL    HW2 5717   3.361   0.123   2.292
 1899SOL     OW 5718   2.111   1.785   3.103
 1899SOL    HW1 5719   2.168   1.720   3.153
 1899SOL    HW2 5720   2.095   1.752   3.010
 1900SOL     OW 5721   2.802   1.698   2.766
 1900SOL    HW1 5722   2.882   1.641   2.787
 1900SOL    HW2 5723   2.753   1.658   2.689
 1901SOL     OW 5724   2.244   0.700   2.342
 1901SOL    HW1 5725   2.289   0.610   2.339
 1901SOL    HW2 5726   2.150   0.689   2.375
 1902SOL     OW 5727   3.409   0.222   3.591
 1902SOL    HW1 5728   3.404   0.259   3.683
 1902SOL    HW2 5729   3.337   0.153   3.579
 1903SOL     OW 5730   2.476   0.122   1.979
 1903SOL    HW1 5731   2.574   0.100   1.986
 1903SOL    HW2 5732   2.445   0.105   1.886
 1904SOL     OW 5733   2.643   0.264   3.611
 1904SOL    HW1 5734   2.710   0.203   3.654
 1904SOL    HW2 5735   2.570   0.283   3.676
 1905SOL     OW 5736   2.750   1.514   3.057
 1905SOL    HW1 5737   2.727   1.489   2.963
 1905SOL    HW2 5738   2.811   1.445   3.096
 1906SOL     OW 5739   3.213   0.590   3.295
 1906SOL    HW1 5740   3.241   0.547   3.380
 1906SOL    HW2 5741   3.238   0.686   3.296
 1907SOL     OW 5742   2.665   1.402   2.786
 1907SOL    HW1 5743   2.755   1.416   2.744
 1907SOL    HW2 5744   2.594   1.404   2.715
 1908SOL     OW 5745   2.784   0.503   2.761
 1908SOL    HW1 5746   2.759   0.494   2.665
 1908SOL    HW2 5747   2.832   0.421   2.792
 1909SOL     OW 5748   2.401   0.064   2.374
 1909SOL    HW1 5749   2.320   0.065   2.432
 1909SOL    HW2 5750   2.404   0.147   2.319
 1910SOL     OW 5751   3.296   1.188   1.903
 1910SOL    HW1 5752   3.328   1.112   1.960
 1910SOL    HW2 5753   3.204   1.215   1.933
 1911SOL     OW 5754   2.159   0.035   2.033
 1911SOL    HW1 5755   2.208   0.119   2.012
 1911SOL    HW2 5756   2.221  -0.030   2.078
 1912SOL     OW 5757   2.797   0.236   2.342
 1912SOL    HW1 5758   2.749   0.277   2.264
 1912SOL    HW2 5759   2.896   0.234   2.323
 1913SOL     OW 5760   2.938   0.683   3.326
 1913SOL    HW1 5761   2.858   0.622   3.329
 1913SOL    HW2 5762   3.019   0.630   3.302
 1914SOL     OW 5763   3.089   1.570   2.655
 1914SOL    HW1 5764   3.110   1.644   2.590
 1914SOL    HW2 5765   3.157   1.570   2.728
 1915SOL     OW 5766   2.321   1.152   2.603
 1915SOL    HW1 5767   2.250   1.125   2.668
 1915SOL    HW2 5768   2.295   1.124   2.510
 1916SOL     OW 5769   3.133   1.797   2.453
 1916SOL    HW1 5770   3.177   1.861   2.389
 1916SOL    HW2 5771   3.083   1.849   2.523
 1917SOL     OW 5772   2.894   0.549   1.878
 1917SOL    HW1 5773   2.853   0.631   1.839
 1917SOL    HW2 5774   2.958   0.575   1.951
 1918SOL     OW 5775   1.940   0.556   3.248
 1918SOL    HW1 5776   2.032   0.555   3.207
 1918SOL    HW2 5777   1.934   0.630   3.315
 1919SOL     OW 5778   2.423   0.222   3.009
 1919SOL    HW1 5779   2.461   0.138   3.046
 1919SOL    HW2 5780   2.335   0.241   3.053
 1920SOL     OW 5781   2.728   0.454   2.504
 1920SOL    HW1 5782   2.696   0.526   2.442
 1920SOL    HW2 5783   2.752   0.373   2.451
 1921SOL     OW 5784   2.879   0.039   2.615
 1921SOL    HW1 5785   2.807   0.044   2.546
 1921SOL    HW2 5786   2.855  -0.030   2.684
 1922SOL     OW 5787   3.291   1.173   2.729
 1922SOL    HW1 5788   3.236   1.089   2.722
 1922SOL    HW2 5789   3.317   1.202   2.637
 1923SOL     OW 5790   3.328   0.590   2.854
 1923SOL    HW1 5791   3.298   0.495   2.861
 1923SOL    HW2 5792   3.401   0.606   2.920
 1924SOL     OW 5793   3.719   0.833   2.239
 1924SOL    HW1 5794   3.761   0.769   2.303
 1924SOL    HW2 5795   3.681   0.782   2.161
 1925SOL     OW 5796   2.350   1.385   2.036
 1925SOL    HW1 5797   2.263   1.370   2.083
 1925SOL    HW2 5798   2.333   1.411   1.941
 1926SOL     OW 5799   3.526   1.280   2.519
 1926SOL    HW1 5800   3.625   1.288   2.533
 1926SOL    HW2 5801   3.481   1.364   2.550
 1927SOL     OW 5802   3.252   0.575   1.940
 1927SOL    HW1 5803   3.198   0.554   2.021
 1927SOL    HW2 5804   3.343   0.534   1.949
 1928SOL     OW 5805   2.389   0.256   2.190
 1928SOL    HW1 5806   2.416   0.197   2.115
 1928SOL    HW2 5807   2.389   0.351   2.159
 1929SOL     OW 5808   3.616   1.223   3.450
 1929SOL    HW1 5809   3.707   1.184   3.437
 1929SOL    HW2 5810   3.624   1.319   3.474
 1930SOL     OW 5811   2.926   1.347   3.202
 1930SOL    HW1 5812   2.846   1.324   3.257
 1930SOL    HW2 5813   3.009   1.321   3.251
 1931SOL     OW 5814   3.454   1.629   3.487
 1931SOL    HW1 5815   3.481   1.663   3.397
 1931SOL    HW2 5816   3.533   1.591   3.533
 1932SOL     OW 5817   2.973   1.195   2.962
 1932SOL    HW1 5818   2.933   1.239   3.043
 1932SOL    HW2 5819   2.932   1.232   2.879
 1933SOL     OW 5820   3.500   1.099   2.941
 1933SOL    HW1 5821   3.505   1.180   3.000
 1933SOL    HW2 5822   3.414   1.101   2.890
 1934SOL     OW 5823   2.777   0.089   3.264
 1934SOL    HW1 5824   2.802   0.069   3.169
 1934SOL    HW2 5825   2.849   0.145   3.306
 1935SOL     OW 5826   2.842   1.116   3.581
 1935SOL    HW1 5827   2.743   1.122   3.591
 1935SOL    HW2 5828   2.865   1.036   3.525
 1936SOL     OW 5829   2.567   1.050   2.230
 1936SOL    HW1 5830   2.553   1.057   2.329
 1936SOL    HW2 5831   2.651   0.999   2.212
 1937SOL     OW 5832   2.272   0.813   3.113
 1937SOL    HW1 5833   2.358   0.825   3.163
 1937SOL    HW2 5834   2.230   0.726   3.140
 1938SOL     OW 5835   3.136   0.386   3.124
 1938SOL    HW1 5836   3.157   0.460   3.188
 1938SOL    HW2 5837   3.047   0.403   3.081
 1939SOL     OW 5838   1.926   1.564   3.193
 1939SOL    HW1 5839   1.880   1.646   3.159
 1939SOL    HW2 5840   2.024   1.583   3.202
 1940SOL     OW 5841   2.229   1.100   2.363
 1940SOL    HW1 5842   2.222   1.183   2.307
 1940SOL    HW2 5843   2.233   1.020   2.303
 1941SOL     OW 5844   2.428   0.537   2.727
 1941SOL    HW1 5845   2.440   0.603   2.653
 1941SOL    HW2 5846   2.474   0.571   2.810
 1942SOL     OW 5847   3.114   1.348   2.250
 1942SOL    HW1 5848   3.164   1.425   2.290
 1942SOL    HW2 5849   3.019   1.350   2.282
 1943SOL     OW 5850   3.134   1.445   3.004
 1943SOL    HW1 5851   3.181   1.458   3.091
 1943SOL    HW2 5852   3.068   1.371   3.013
 1944SOL     OW 5853   3.444   0.639   2.334
 1944SOL    HW1 5854   3.413   0.700   2.407
 1944SOL    HW2 5855   3.494   0.691   2.265
 1945SOL     OW 5856   2.216   1.510   3.191
 1945SOL    HW1 5857   2.195   1.466   3.104
 1945SOL    HW2 5858   2.313   1.536   3.194
 1946SOL     OW 5859   2.264   0.751   3.460
 1946SOL    HW1 5860   2.332   0.806   3.413
 1946SOL    HW2 5861   2.304   0.663   3.487
 1947SOL     OW 5862   3.449   0.779   3.532
 1947SOL    HW1 5863   3.357   0.817   3.527
 1947SOL    HW2 5864   3.509   0.826   3.467
 1948SOL     OW 5865   2.875   0.105   3.632
 1948SOL    HW1 5866   2.881   0.190   3.580
 1948SOL    HW2 5867   2.907   0.029   3.575
 1949SOL     OW 5868   2.366   0.050   3.602
 1949SOL    HW1 5869   2.324  -0.007   3.532
 1949SOL    HW2 5870   2.300   0.119   3.634
 1950SOL     OW 5871   2.435   0.870   2.891
 1950SOL    HW1 5872   2.479   0.959   2.882
 1950SOL    HW2 5873   2.372   0.870   2.968
 1951SOL     OW 5874   3.222   0.862   2.907
 1951SOL    HW1 5875   3.147   0.862   2.841
 1951SOL    HW2 5876   3.259   0.770   2.916
 1952SOL     OW 5877   3.071   0.525   2.137
 1952SOL    HW1 5878   3.084   0.441   2.191
 1952SOL    HW2 5879   3.042   0.599   2.197
 1953SOL     OW 5880   2.169   0.213   3.093
 1953SOL    HW1 5881   2.146   0.250   3.183
 1953SOL    HW2 5882   2.139   0.118   3.087
 1954SOL     OW 5883   1.899   1.310   3.144
 1954SOL    HW1 5884   1.952   1.261   3.212
 1954SOL    HW2 5885   1.921   1.408   3.149
 1955SOL     OW 5886   2.594   0.634   2.926
 1955SOL    HW1 5887   2.653   0.608   2.850
 1955SOL    HW2 5888   2.566   0.730   2.915
 1956SOL     OW 5889   3.590   0.935   3.716
 1956SOL    HW1 5890   3.544   0.928   3.627
 1956SOL    HW2 5891   3.528   0.979   3.782
 1957SOL     OW 5892   2.169   0.063   2.480
 1957SOL    HW1 5893   2.158   0.157   2.513
 1957SOL    HW2 5894   2.164   0.000   2.557
 1958SOL     OW 5895   3.484   0.367   2.236
 1958SOL    HW1 5896   3.486   0.291   2.300
 1958SOL    HW2 5897   3.436   0.444   2.276
 1959SOL     OW 5898   2.885   0.766   2.828
 1959SOL    HW1 5899   2.900   0.787   2.924
 1959SOL    HW2 5900   2.855   0.671   2.819
 1960SOL     OW 5901   2.842   1.573   3.562
 1960SOL    HW1 5902   2.822   1.617   3.474
 1960SOL    HW2 5903   2.881   1.482   3.546
 1961SOL     OW 5904   3.721   1.518   3.467
 1961SOL    HW1 5905   3.735   1.545   3.372
 1961SOL    HW2 5906   3.804   1.540   3.520
 1962SOL     OW 5907   2.212   0.898   3.666
 1962SOL    HW1 5908   2.288   0.942   3.714
 1962SOL    HW2 5909   2.247   0.851   3.584
 1963SOL     OW 5910   3.402   0.274   1.987
 1963SOL    HW1 5911   3.341   0.199   2.010
 1963SOL    HW2 5912   3.424   0.326   2.070
 1964SOL     OW 5913   3.165   0.838   1.904
 1964SOL    HW1 5914   3.199   0.745   1.919
 1964SOL    HW2 5915   3.183   0.865   1.809
 1965SOL     OW 5916   2.930   1.333   2.711
 1965SOL    HW1 5917   2.937   1.249   2.656
 1965SOL    HW2 5918   2.992   1.402   2.675
 1966SOL     OW 5919   2.181   0.810   2.811
 1966SOL    HW1 5920   2.274   0.846   2.816
 1966SOL    HW2 5921   2.175   0.725   2.863
 1967SOL     OW 5922   2.201   0.509   2.868
 1967SOL    HW1 5923   2.149   0.426   2.851
 1967SOL    HW2 5924   2.278   0.514   2.804
 1968SOL     OW 5925   3.000   0.380   3.540
 1968SOL    HW1 5926   2.955   0.443   3.604
 1968SOL    HW2 5927   3.093   0.411   3.523
 1969SOL     OW 5928   3.022   0.207   3.339
 1969SOL    HW1 5929   3.022   0.271   3.416
 1969SOL    HW2 5930   3.050   0.255   3.256
 1970SOL     OW 5931   1.870   1.326   2.062
 1970SOL    HW1 5932   1.777   1.347   2.031
 1970SOL    HW2 5933   1.880   1.227   2.075
 1971SOL     OW 5934   1.950   1.801   2.789
 1971SOL    HW1 5935   1.908   1.715   2.762
 1971SOL    HW2 5936   2.044   1.804   2.755
 1972SOL     OW 5937   2.366   1.568   2.772
 1972SOL    HW1 5938   2.432   1.642   2.781
 1972SOL    HW2 5939   2.410   1.489   2.730
 1973SOL     OW 5940   2.864   0.796   3.100
 1973SOL    HW1 5941   2.905   0.764   3.186
 1973SOL    HW2 5942   2.768   0.769   3.097
 1974SOL     OW 5943   1.902   0.544   2.976
 1974SOL    HW1 5944   1.987   0.511   2.935
 1974SOL    HW2 5945   1.915   0.559   3.074
 1975SOL     OW 5946   2.051   0.520   3.584
 1975SOL    HW1 5947   2.110   0.480   3.514
 1975SOL    HW2 5948   1.993   0.591   3.543
 1976SOL     OW 5949   3.231   0.950   3.522
 1976SOL    HW1 5950   3.270   1.039   3.542
 1976SOL    HW2 5951   3.241   0.930   3.425
 1977SOL     OW 5952   2.677   0.572   2.187
 1977SOL    HW1 5953   2.684   0.483   2.141
 1977SOL    HW2 5954   2.583   0.606   2.179
 1978SOL     OW 5955   3.519   0.604   3.068
 1978SOL    HW1 5956   3.481   0.535   3.130
 1978SOL    HW2 5957   3.601   0.568   3.024
 1979SOL     OW 5958   2.114   1.564   3.606
 1979SOL    HW1 5959   2.084   1.621   3.682
 1979SOL    HW2 5960   2.107   1.467   3.632
 1980SOL     OW 5961   2.533   0.464   3.131
 1980SOL    HW1 5962   2.499   0.375   3.101
 1980SOL    HW2 5963   2.559   0.518   3.051
 1981SOL     OW 5964   2.792   1.678   3.327
 1981SOL    HW1 5965   2.768   1.660   3.232
 1981SOL    HW2 5966   2.822   1.772   3.337
 1982SOL     OW 5967   2.335   0.500   2.053
 1982SOL    HW1 5968   2.396   0.580   2.057
 1982SOL    HW2 5969   2.240   0.531   2.060
 1983SOL     OW 5970   2.021   1.137   3.328
 1983SOL    HW1 5971   2.043   1.076   3.404
 1983SOL    HW2 5972   2.031   1.088   3.242
 1984SOL     OW 5973   3.209   1.059   3.096
 1984SOL    HW1 5974   3.233   0.996   3.022
 1984SOL    HW2 5975   3.119   1.099   3.078
 1985SOL     OW 5976   3.164   0.855   2.171
 1985SOL    HW1 5977   3.078   0.824   2.213
 1985SOL    HW2 5978   3.160   0.841   2.072
 1986SOL     OW 5979   3.621   1.747   3.016
 1986SOL    HW1 5980   3.682   1.777   2.943
 1986SOL    HW2 5981   3.583   1.658   2.994
 1987SOL     OW 5982   3.114   1.731   2.990
 1987SOL    HW1 5983   3.198   1.736   2.936
 1987SOL    HW2 5984   3.091   1.635   3.008
 1988SOL     OW 5985   1.945   1.258   2.884
 1988SOL    HW1 5986   1.940   1.257   2.984
 1988SOL    HW2 5987   1.862   1.217   2.846
 1989SOL     OW 5988   2.550   1.662   3.578
 1989SOL    HW1 5989   2.494   1.743   3.587
 1989SOL    HW2 5990   2.602   1.666   3.492
 1990SOL     OW 5991   3.588   0.135   2.385
 1990SOL    HW1 5992   3.661   0.118   2.318
 1990SOL    HW2 5993   3.557   0.048   2.423
 1991SOL     OW 5994   3.250   1.573   2.339
 1991SOL    HW1 5995   3.317   1.585   2.265
 1991SOL    HW2 5996   3.210   1.662   2.362
 1992SOL     OW 5997   1.992   1.794   3.713
 1992SOL    HW1 5998   1.951   1.720   3.766
 1992SOL    HW2 5999   2.056   1.845   3.771
 1993SOL     OW 6000   3.142   0.927   2.534
 1993SOL    HW1 6001   3.202   0.846   2.536
 1993SOL    HW2 6002   3.182   0.996   2.474
 1994SOL     OW 6003   2.692   1.273   3.284
 1994SOL    HW1 6004   2.687   1.306   3.379
 1994SOL    HW2 6005   2.606   1.292   3.238
 1995SOL     OW 6006   2.534   1.616   2.016
 1995SOL    HW1 6007   2.543   1.626   1.917
 1995SOL    HW2 6008   2.494   1.527   2.037
 1996SOL     OW 6009   3.512   1.720   3.256
 1996SOL    HW1 6010   3.565   1.730   3.172
 1996SOL    HW2 6011   3.485   1.810   3.290
 1997SOL     OW 6012   3.703   0.175   2.825
 1997SOL    HW1 6013   3.742   0.090   2.789
 1997SOL    HW2 6014   3.605   0.177   2.806
 1998SOL     OW 6015   2.125   0.326   2.582
 1998SOL    HW1 6016   2.046   0.377   2.548
 1998SOL    HW2 6017   2.116   0.311   2.680
 1999SOL     OW 6018   3.056   1.612   1.893
 1999SOL    HW1 6019   3.062   1.519   1.930
 1999SOL    HW2 6020   2.997   1.612   1.813
 2000SOL     OW 6021   2.684   1.002   3.234
 2000SOL    HW1 6022   2.724   1.001   3.142
 2000SOL    HW2 6023   2.694   1.094   3.274
 2001SOL     OW 6024   2.778   0.910   2.153
 2001SOL    HW1 6025   2.841   0.948   2.085
 2001SOL    HW2 6026   2.818   0.827   2.192
 2002SOL     OW 6027   3.366   1.607   1.906
 2002SOL    HW1 6028   3.274   1.644   1.913
 2002SOL    HW2 6029   3.404   1.627   1.816
 2003SOL     OW 6030   2.234   1.288   3.352
 2003SOL    HW1 6031   2.221   1.381   3.318
 2003SOL    HW2 6032   2.150   1.236   3.339
 2004SOL     OW 6033   3.476   1.292   3.151
 2004SOL    HW1 6034   3.536   1.295   3.231
 2004SOL    HW2 6035   3.401   1.356   3.164
 2005SOL     OW 6036   2.901   1.098   2.558
 2005SOL    HW1 6037   2.831   1.051   2.612
 2005SOL    HW2 6038   2.960   1.030   2.515
 2006SOL     OW 6039   2.876   0.236   2.833
 2006SOL    HW1 6040   2.868   0.200   2.740
 2006SOL    HW2 6041   2.874   0.160   2.898
 2007SOL     OW 6042   2.452   1.487   2.353
 2007SOL    HW1 6043   2.494   1.429   2.283
 2007SOL    HW2 6044   2.408   1.566   2.309
 2008SOL     OW 6045   3.571   0.385   3.243
 2008SOL    HW1 6046   3.644   0.454   3.247
 2008SOL    HW2 6047   3.599   0.310   3.184
 2009SOL     OW 6048   2.117   1.348   2.152
 2009SOL    HW1 6049   2.021   1.349   2.125
 2009SOL    HW2 6050   2.129   1.401   2.236
 2010SOL     OW 6051   1.967   1.013   3.588
 2010SOL    HW1 6052   1.890   0.980   3.642
 2010SOL    HW2 6053   2.052   0.983   3.630
 2011SOL     OW 6054   2.534   0.203   3.351
 2011SOL    HW1 6055   2.624   0.187   3.311
 2011SOL    HW2 6056   2.542   0.208   3.450
 2012SOL     OW 6057   1.937   0.345   1.895
 2012SOL    HW1 6058   1.845   0.317   1.866
 2012SOL    HW2 6059   1.968   0.422   1.839
 2013SOL     OW 6060   3.302   0.856   3.260
 2013SOL    HW1 6061   3.245   0.908   3.197
 2013SOL    HW2 6062   3.398   0.868   3.236
 2014SOL     OW 6063   1.934   0.166   2.180
 2014SOL    HW1 6064   1.917   0.249   2.126
 2014SOL    HW2 6065   2.024   0.129   2.158
 2015SOL     OW 6066   3.045   1.335   1.981
 2015SOL    HW1 6067   2.946   1.324   1.983
 2015SOL    HW2 6068   3.079   1.350   2.074
 2016SOL     OW 6069   2.475   0.842   3.293
 2016SOL    HW1 6070   2.531   0.923   3.276
 2016SOL    HW2 6071   2.534   0.762   3.296
 2017SOL     OW 6072   3.355   1.767   2.821
 2017SOL    HW1 6073   3.388   1.831   2.752
 2017SOL    HW2 6074   3.421   1.761   2.896
 2018SOL     OW 6075   2.578   0.565   3.570
 2018SOL    HW1 6076   2.597   0.630   3.644
 2018SOL    HW2 6077   2.638   0.485   3.579
 2019SOL     OW 6078   3.312   1.220   3.495
 2019SOL    HW1 6079   3.303   1.210   3.594
 2019SOL    HW2 6080   3.408   1.213   3.469
 2020SOL     OW 6081   2.252   1.741   3.422
 2020SOL    HW1 6082   2.161   1.782   3.420
 2020SOL    HW2 6083   2.245   1.647   3.454
 2021SOL     OW 6084   3.536   0.883   3.116
 2021SOL    HW1 6085   3.509   0.794   3.079
 2021SOL    HW2 6086   3.537   0.951   3.043
 2022SOL     OW 6087   3.087   0.325   2.311
 2022SOL    HW1 6088   3.152   0.251   2.300
 2022SOL    HW2 6089   3.107   0.375   2.395
 2023SOL     OW 6090   2.456   0.745   2.514
 2023SOL    HW1 6091   2.506   0.830   2.495
 2023SOL    HW2 6092   2.368   0.747   2.466
 2024SOL     OW 6093   3.639   0.342   3.504
 2024SOL    HW1 6094   3.622   0.373   3.410
 2024SOL    HW2 6095   3.555   0.305   3.542
 2025SOL     OW 6096   3.592   0.934   3.379
 2025SOL    HW1 6097   3.630   1.025   3.394
 2025SOL    HW2 6098   3.584   0.917   3.280
 2026SOL     OW 6099   2.721   1.374   1.878
 2026SOL    HW1 6100   2.675   1.389   1.966
 2026SOL    HW2 6101   2.765   1.459   1.848
 2027SOL     OW 6102   2.523   1.790   2.815
 2027SOL    HW1 6103   2.477   1.878   2.802
 2027SOL    HW2 6104   2.622   1.802   2.808
 2028SOL     OW 6105   2.721   0.956   2.723
 2028SOL    HW1 6106   2.775   0.887   2.771
 2028SOL    HW2 6107   2.689   1.025   2.789
 2029SOL     OW 6108   2.945   0.984   1.949
 2029SOL    HW1 6109   2.922   1.037   1.867
 2029SOL    HW2 6110   3.026   0.928   1.930
 2030SOL     OW 6111   3.723   1.569   2.713
 2030SOL    HW1 6112   3.652   1.557   2.643
 2030SOL    HW2 6113   3.724   1.490   2.773
 2031SOL     OW 6114   2.083   1.314   3.706
 2031SOL    HW1 6115   2.018   1.241   3.685
 2031SOL    HW2 6116   2.087   1.328   3.804
 2032SOL     OW 6117   1.941   1.240   2.515
 2032SOL    HW1 6118   1.940   1.193   2.603
 2032SOL    HW2 6119   2.023   1.212   2.464
 2033SOL     OW 6120   2.534   1.391   3.486
 2033SOL    HW1 6121   2.456   1.341   3.524
 2033SOL    HW2 6122   2.531   1.486   3.517
 2034SOL     OW 6123   3.686   0.192   3.089
 2034SOL    HW1 6124   3.682   0.102   3.133
 2034SOL    HW2 6125   3.689   0.181   2.990
 2035SOL     OW 6126   2.290   0.424   2.382
 2035SOL    HW1 6127   2.320   0.352   2.320
 2035SOL    HW2 6128   2.251   0.384   2.465
 2036SOL     OW 6129   3.567   1.487   2.966
 2036SOL    HW1 6130   3.474   1.462   2.939
 2036SOL    HW2 6131   3.593   1.437   3.048
 2037SOL     OW 6132   2.179   0.547   3.142
 2037SOL    HW1 6133   2.217   0.488   3.214
 2037SOL    HW2 6134   2.219   0.521   3.054
 2038SOL     OW 6135   2.674   1.586   2.549
 2038SOL    HW1 6136   2.706   1.596   2.455
 2038SOL    HW2 6137   2.595   1.524   2.551
 2039SOL     OW 6138   3.286   0.214   2.974
 2039SOL    HW1 6139   3.338   0.149   3.029
 2039SOL    HW2 6140   3.237   0.277   3.035
 2040SOL     OW 6141   2.863   0.034   3.016
 2040SOL    HW1 6142   2.800  -0.038   2.985
 2040SOL    HW2 6143   2.956  -0.002   3.016
 2041SOL     OW 6144   2.632   1.330   2.163
 2041SOL    HW1 6145   2.586   1.243   2.180
 2041SOL    HW2 6146   2.723   1.327   2.204
 2042SOL     OW 6147   2.480   1.567   3.146
 2042SOL    HW1 6148   2.475   1.649   3.203
 2042SOL    HW2 6149   2.569   1.564   3.101
 2043SOL     OW 6150   3.214   0.052   2.030
 2043SOL    HW1 6151   3.249   0.011   1.946
 2043SOL    HW2 6152   3.124   0.014   2.050
 2044SOL     OW 6153   3.162   0.453   2.553
 2044SOL    HW1 6154   3.103   0.533   2.557
 2044SOL    HW2 6155   3.177   0.418   2.646
 2045SOL     OW 6156   3.455   0.221   2.744
 2045SOL    HW1 6157   3.371   0.220   2.798
 2045SOL    HW2 6158   3.457   0.304   2.688
 2046SOL     OW 6159   1.901   1.077   2.162
 2046SOL    HW1 6160   2.000   1.066   2.153
 2046SOL    HW2 6161   1.861   0.991   2.194
 2047SOL     OW 6162   2.737   1.646   2.199
 2047SOL    HW1 6163   2.660   1.611   2.145
 2047SOL    HW2 6164   2.705   1.717   2.261
 2048SOL     OW 6165   2.092   0.628   3.837
 2048SOL    HW1 6166   1.999   0.626   3.874
 2048SOL    HW2 6167   2.093   0.589   3.745
 2049SOL     OW 6168   2.087   0.275   4.720
 2049SOL    HW1 6169   2.122   0.258   4.812
 2049SOL    HW2 6170   1.999   0.230   4.708
 2050SOL     OW 6171   1.881   0.368   4.371
 2050SOL    HW1 6172   1.799   0.411   4.410
 2050SOL    HW2 6173   1.853   0.295   4.308
 2051SOL     OW 6174   2.431   1.275   4.889
 2051SOL    HW1 6175   2.338   1.268   4.852
 2051SOL    HW2 6176   2.442   1.364   4.933
 2052SOL     OW 6177   3.417   1.511   4.427
 2052SOL    HW1 6178   3.360   1.495   4.508
 2052SOL    HW2 6179   3.358   1.521   4.347
 2053SOL     OW 6180   2.997   0.703   4.441
 2053SOL    HW1 6181   3.054   0.781   4.416
 2053SOL    HW2 6182   2.937   0.729   4.517
 2054SOL     OW 6183   3.617   0.607   3.955
 2054SOL    HW1 6184   3.605   0.594   3.856
 2054SOL    HW2 6185   3.587   0.526   4.004
 2055SOL     OW 6186   2.630   1.144   4.747
 2055SOL    HW1 6187   2.552   1.161   4.807
 2055SOL    HW2 6188   2.664   1.231   4.711
 2056SOL     OW 6189   2.547   1.012   4.389
 2056SOL    HW1 6190   2.616   0.996   4.459
 2056SOL    HW2 6191   2.474   1.069   4.427
 2057SOL     OW 6192   2.197   1.435   4.785
 2057SOL    HW1 6193   2.119   1.404   4.732
 2057SOL    HW2 6194   2.255   1.493   4.728
 2058SOL     OW 6195   3.465   0.447   4.461
 2058SOL    HW1 6196   3.391   0.493   4.411
 2058SOL    HW2 6197   3.516   0.515   4.514
 2059SOL     OW 6198   2.093   1.713   4.207
 2059SOL    HW1 6199   2.127   1.790   4.261
 2059SOL    HW2 6200   2.137   1.713   4.117
 2060SOL     OW 6201   2.092   1.434   4.262
 2060SOL    HW1 6202   2.066   1.530   4.262
 2060SOL    HW2 6203   2.021   1.380   4.307
 2061SOL     OW 6204   2.102   1.091   4.610
 2061SOL    HW1 6205   2.116   1.007   4.662
 2061SOL    HW2 6206   2.047   1.155   4.665
 2062SOL     OW 6207   2.482   1.786   5.163
 2062SOL    HW1 6208   2.390   1.769   5.198
 2062SOL    HW2 6209   2.510   1.878   5.189
 2063SOL     OW 6210   2.468   0.964   3.847
 2063SOL    HW1 6211   2.475   1.048   3.793
 2063SOL    HW2 6212   2.514   0.977   3.935
 2064SOL     OW 6213   1.984   0.643   4.287
 2064SOL    HW1 6214   1.939   0.555   4.304
 2064SOL    HW2 6215   1.983   0.697   4.371
 2065SOL     OW 6216   3.704   1.767   4.083
 2065SOL    HW1 6217   3.758   1.738   4.163
 2065SOL    HW2 6218   3.734   1.857   4.054
 2066SOL     OW 6219   1.889   1.596   3.841
 2066SOL    HW1 6220   1.870   1.500   3.862
 2066SOL    HW2 6221   1.856   1.654   3.916
 2067SOL     OW 6222   3.551   0.922   4.336
 2067SOL    HW1 6223   3.646   0.893   4.344
 2067SOL    HW2 6224   3.543   0.987   4.261
 2068SOL     OW 6225   3.503   1.108   4.156
 2068SOL    HW1 6226   3.589   1.110   4.104
 2068SOL    HW2 6227   3.517   1.155   4.244
 2069SOL     OW 6228   2.475   1.365   4.450
 2069SOL    HW1 6229   2.426   1.278   4.459
 2069SOL    HW2 6230   2.452   1.408   4.363
 2070SOL     OW 6231   2.671   0.004   4.226
 2070SOL    HW1 6232   2.711   0.095   4.217
 2070SOL    HW2 6233   2.571   0.012   4.232
 2071SOL     OW 6234   2.059   0.976   4.988
 2071SOL    HW1 6235   2.148   0.931   4.974
 2071SOL    HW2 6236   1.986   0.911   4.969
 2072SOL     OW 6237   3.387   0.999   3.914
 2072SOL    HW1 6238   3.324   0.923   3.927
 2072SOL    HW2 6239   3.435   1.017   4.000
 2073SOL     OW 6240   3.328   1.417   4.677
 2073SOL    HW1 6241   3.269   1.423   4.757
 2073SOL    HW2 6242   3.313   1.329   4.631
 2074SOL     OW 6243   3.529   1.714   4.296
 2074SOL    HW1 6244   3.488   1.691   4.208
 2074SOL    HW2 6245   3.511   1.640   4.361
 2075SOL     OW 6246   2.460   0.729   3.994
 2075SOL    HW1 6247   2.484   0.798   3.926
 2075SOL    HW2 6248   2.382   0.762   4.048
 2076SOL     OW 6249   3.143   0.345   4.668
 2076SOL    HW1 6250   3.057   0.295   4.655
 2076SOL    HW2 6251   3.205   0.291   4.724
 2077SOL     OW 6252   3.438   1.662   4.031
 2077SOL    HW1 6253   3.527   1.708   4.034
 2077SOL    HW2 6254   3.417   1.638   3.936
 2078SOL     OW 6255   2.669   0.605   5.189
 2078SOL    HW1 6256   2.622   0.602   5.278
 2078SOL    HW2 6257   2.618   0.550   5.123
 2079SOL     OW 6258   2.853   0.410   4.966
 2079SOL    HW1 6259   2.776   0.444   5.020
 2079SOL    HW2 6260   2.819   0.359   4.887
 2080SOL     OW 6261   2.903   0.701   4.153
 2080SOL    HW1 6262   2.929   0.697   4.249
 2080SOL    HW2 6263   2.818   0.650   4.139
 2081SOL     OW 6264   1.938   0.811   4.513
 2081SOL    HW1 6265   2.037   0.799   4.522
 2081SOL    HW2 6266   1.914   0.906   4.534
 2082SOL     OW 6267   1.992   1.821   5.295
 2082SOL    HW1 6268   1.982   1.806   5.394
 2082SOL    HW2 6269   1.906   1.857   5.259
 2083SOL     OW 6270   2.727   0.348   3.919
 2083SOL    HW1 6271   2.786   0.411   3.870
 2083SOL    HW2 6272   2.746   0.254   3.890
 2084SOL     OW 6273   3.224   1.144   4.269
 2084SOL    HW1 6274   3.307   1.115   4.221
 2084SOL    HW2 6275   3.175   1.211   4.213
 2085SOL     OW 6276   2.412   0.196   4.609
 2085SOL    HW1 6277   2.407   0.191   4.709
 2085SOL    HW2 6278   2.414   0.292   4.580
 2086SOL     OW 6279   2.870   1.456   4.201
 2086SOL    HW1 6280   2.824   1.528   4.149
 2086SOL    HW2 6281   2.866   1.476   4.299
 2087SOL     OW 6282   2.213   1.801   4.577
 2087SOL    HW1 6283   2.263   1.715   4.583
 2087SOL    HW2 6284   2.278   1.878   4.574
 2088SOL     OW 6285   3.657   1.066   4.597
 2088SOL    HW1 6286   3.595   1.051   4.521
 2088SOL    HW2 6287   3.605   1.077   4.682
 2089SOL     OW 6288   2.183   0.943   3.966
 2089SOL    HW1 6289   2.265   0.982   3.924
 2089SOL    HW2 6290   2.156   0.861   3.917
 2090SOL     OW 6291   3.320   0.735   4.452
 2090SOL    HW1 6292   3.315   0.670   4.527
 2090SOL    HW2 6293   3.400   0.794   4.465
 2091SOL     OW 6294   2.973   1.776   3.961
 2091SOL    HW1 6295   2.913   1.714   4.011
 2091SOL    HW2 6296   3.004   1.732   3.876
 2092SOL     OW 6297   3.494   1.377   3.805
 2092SOL    HW1 6298   3.462   1.471   3.795
 2092SOL    HW2 6299   3.418   1.314   3.793
 2093SOL     OW 6300   2.326   1.743   4.047
 2093SOL    HW1 6301   2.359   1.782   4.133
 2093SOL    HW2 6302   2.402   1.736   3.982
 2094SOL     OW 6303   3.262   0.107   4.150
 2094SOL    HW1 6304   3.238   0.070   4.060
 2094SOL    HW2 6305   3.361   0.123   4.154
 2095SOL     OW 6306   2.111   1.785   4.965
 2095SOL    HW1 6307   2.168   1.720   5.015
 2095SOL    HW2 6308   2.095   1.752   4.872
 2096SOL     OW 6309   2.802   1.698   4.628
 2096SOL    HW1 6310   2.882   1.641   4.649
 2096SOL    HW2 6311   2.753   1.658   4.551
 2097SOL     OW 6312   2.244   0.700   4.204
 2097SOL    HW1 6313   2.289   0.610   4.201
 2097SOL    HW2 6314   2.150   0.689   4.237
 2098SOL     OW 6315   2.476   0.122   3.841
 2098SOL    HW1 6316   2.574   0.100   3.848
 2098SOL    HW2 6317   2.445   0.105   3.748
 2099SOL     OW 6318   2.750   1.514   4.919
 2099SOL    HW1 6319   2.727   1.489   4.825
 2099SOL    HW2 6320   2.811   1.445   4.958
 2100SOL     OW 6321   2.665   1.402   4.648
 2100SOL    HW1 6322   2.755   1.416   4.606
 2100SOL    HW2 6323   2.594   1.404   4.577
 2101SOL     OW 6324   2.784   0.503   4.623
 2101SOL    HW1 6325   2.759   0.494   4.527
 2101SOL    HW2 6326   2.832   0.421   4.654
 2102SOL     OW 6327   2.401   0.064   4.236
 2102SOL    HW1 6328   2.320   0.065   4.294
 2102SOL    HW2 6329   2.404   0.147   4.181
 2103SOL     OW 6330   3.296   1.188   3.765
 2103SOL    HW1 6331   3.328   1.112   3.822
 2103SOL    HW2 6332   3.204   1.215   3.795
 2104SOL     OW 6333   2.159   0.035   3.895
 2104SOL    HW1 6334   2.208   0.119   3.874
 2104SOL    HW2 6335   2.221  -0.030   3.940
 2105SOL     OW 6336   2.797   0.236   4.204
 2105SOL    HW1 6337   2.749   0.277   4.126
 2105SOL    HW2 6338   2.896   0.234   4.185
 2106SOL     OW 6339   3.089   1.570   4.517
 2106SOL    HW1 6340   3.110   1.644   4.452
 2106SOL    HW2 6341   3.157   1.570   4.590
 2107SOL     OW 6342   2.321   1.152   4.465
 2107SOL    HW1 6343   2.250   1.125   4.530
 2107SOL    HW2 6344   2.295   1.124   4.372
 2108SOL     OW 6345   3.133   1.797   4.315
 2108SOL    HW1 6346   3.177   1.861   4.251
 2108SOL    HW2 6347   3.083   1.849   4.385
 2109SOL     OW 6348   2.894   0.549   3.740
 2109SOL    HW1 6349   2.853   0.631   3.701
 2109SOL    HW2 6350   2.958   0.575   3.813
 2110SOL     OW 6351   2.423   0.222   4.871
 2110SOL    HW1 6352   2.461   0.138   4.908
 2110SOL    HW2 6353   2.335   0.241   4.915
 2111SOL     OW 6354   2.728   0.454   4.366
 2111SOL    HW1 6355   2.696   0.526   4.304
 2111SOL    HW2 6356   2.752   0.373   4.313
 2112SOL     OW 6357   2.879   0.039   4.477
 2112SOL    HW1 6358   2.807   0.044   4.408
 2112SOL    HW2 6359   2.855  -0.030   4.546
 2113SOL     OW 6360   3.291   1.173   4.591
 2113SOL    HW1 6361   3.236   1.089   4.584
 2113SOL    HW2 6362   3.317   1.202   4.499
 2114SOL     OW 6363   3.328   0.590   4.716
 2114SOL    HW1 6364   3.298   0.495   4.723
 2114SOL    HW2 6365   3.401   0.606   4.782
 2115SOL     OW 6366   3.719   0.833   4.101
 2115SOL    HW1 6367   3.761   0.769   4.165
 2115SOL    HW2 6368   3.681   0.782   4.023
 2116SOL     OW 6369   2.350   1.385   3.898
 2116SOL    HW1 6370   2.263   1.370   3.945
 2116SOL    HW2 6371   2.333   1.411   3.803
 2117SOL     OW 6372   3.526   1.280   4.381
 2117SOL    HW1 6373   3.625   1.288   4.395
 2117SOL    HW2 6374   3.481   1.364   4.412
 2118SOL     OW 6375   3.252   0.575   3.802
 2118SOL    HW1 6376   3.198   0.554   3.883
 2118SOL    HW2 6377   3.343   0.534   3.811
 2119SOL     OW 6378   2.389   0.256   4.052
 2119SOL    HW1 6379   2.416   0.197   3.977
 2119SOL    HW2 6380   2.389   0.351   4.021
 2120SOL     OW 6381   3.616   1.223   5.312
 2120SOL    HW1 6382   3.707   1.184   5.299
 2120SOL    HW2 6383   3.624   1.319   5.336
 2121SOL     OW 6384   2.973   1.195   4.824
 2121SOL    HW1 6385   2.933   1.239   4.905
 2121SOL    HW2 6386   2.932   1.232   4.741
 2122SOL     OW 6387   3.500   1.099   4.803
 2122SOL    HW1 6388   3.505   1.180   4.862
 2122SOL    HW2 6389   3.414   1.101   4.752
 2123SOL     OW 6390   2.567   1.050   4.092
 2123SOL    HW1 6391   2.553   1.057   4.191
 2123SOL    HW2 6392   2.651   0.999   4.074
 2124SOL     OW 6393   2.272   0.813   4.975
 2124SOL    HW1 6394   2.358   0.825   5.025
 2124SOL    HW2 6395   2.230   0.726   5.002
 2125SOL     OW 6396   3.136   0.386   4.986
 2125SOL    HW1 6397   3.157   0.460   5.050
 2125SOL    HW2 6398   3.047   0.403   4.943
 2126SOL     OW 6399   1.926   1.564   5.055
 2126SOL    HW1 6400   1.880   1.646   5.021
 2126SOL    HW2 6401   2.024   1.583   5.064
 2127SOL     OW 6402   2.229   1.100   4.225
 2127SOL    HW1 6403   2.222   1.183   4.169
 2127SOL    HW2 6404   2.233   1.020   4.165
 2128SOL     OW 6405   2.428   0.537   4.589
 2128SOL    HW1 6406   2.440   0.603   4.515
 2128SOL    HW2 6407   2.474   0.571   4.672
 2129SOL     OW 6408   3.114   1.348   4.112
 2129SOL    HW1 6409   3.164   1.425   4.152
 2129SOL    HW2 6410   3.019   1.350   4.144
 2130SOL     OW 6411   3.134   1.445   4.866
 2130SOL    HW1 6412   3.181   1.458   4.953
 2130SOL    HW2 6413   3.068   1.371   4.875
 2131SOL     OW 6414   3.444   0.639   4.196
 2131SOL    HW1 6415   3.413   0.700   4.269
 2131SOL    HW2 6416   3.494   0.691   4.127
 2132SOL     OW 6417   2.216   1.510   5.053
 2132SOL    HW1 6418   2.195   1.466   4.966
 2132SOL    HW2 6419   2.313   1.536   5.056
 2133SOL     OW 6420   2.435   0.870   4.753
 2133SOL    HW1 6421   2.479   0.959   4.744
 2133SOL    HW2 6422   2.372   0.870   4.830
 2134SOL     OW 6423   3.222   0.862   4.769
 2134SOL    HW1 6424   3.147   0.862   4.703
 2134SOL    HW2 6425   3.259   0.770   4.778
 2135SOL     OW 6426   3.071   0.525   3.999
 2135SOL    HW1 6427   3.084   0.441   4.053
 2135SOL    HW2 6428   3.042   0.599   4.059
 2136SOL     OW 6429   2.169   0.213   4.955
 2136SOL    HW1 6430   2.146   0.250   5.045
 2136SOL    HW2 6431   2.139   0.118   4.949
 2137SOL     OW 6432   1.899   1.310   5.006
 2137SOL    HW1 6433   1.952   1.261   5.074
 2137SOL    HW2 6434   1.921   1.408   5.011
 2138SOL     OW 6435   2.594   0.634   4.788
 2138SOL    HW1 6436   2.653   0.608   4.712
 2138SOL    HW2 6437   2.566   0.730   4.777
 2139SOL     OW 6438   2.169   0.063   4.342
 2139SOL    HW1 6439   2.158   0.157   4.375
 2139SOL    HW2 6440   2.164   0.000   4.419
 2140SOL     OW 6441   3.484   0.367   4.098
 2140SOL    HW1 6442   3.486   0.291   4.162
 2140SOL    HW2 6443   3.436   0.444   4.138
 2141SOL     OW 6444   2.885   0.766   4.690
 2141SOL    HW1 6445   2.900   0.787   4.786
 2141SOL    HW2 6446   2.855   0.671   4.681
 2142SOL     OW 6447   3.402   0.274   3.849
 2142SOL    HW1 6448   3.341   0.199   3.872
 2142SOL    HW2 6449   3.424   0.326   3.932
 2143SOL     OW 6450   3.165   0.838   3.766
 2143SOL    HW1 6451   3.199   0.745   3.781
 2143SOL    HW2 6452   3.183   0.865   3.671
 2144SOL     OW 6453   2.930   1.333   4.573
 2144SOL    HW1 6454   2.937   1.249   4.518
 2144SOL    HW2 6455   2.992   1.402   4.537
 2145SOL     OW 6456   2.181   0.810   4.673
 2145SOL    HW1 6457   2.274   0.846   4.678
 2145SOL    HW2 6458   2.175   0.725   4.725
 2146SOL     OW 6459   2.201   0.509   4.730
 2146SOL    HW1 6460   2.149   0.426   4.713
 2146SOL    HW2 6461   2.278   0.514   4.666
 2147SOL     OW 6462   3.022   0.207   5.201
 2147SOL    HW1 6463   3.022   0.271   5.278
 2147SOL    HW2 6464   3.050   0.255   5.118
 2148SOL     OW 6465   1.870   1.326   3.924
 2148SOL    HW1 6466   1.777   1.347   3.893
 2148SOL    HW2 6467   1.880   1.227   3.937
 2149SOL     OW 6468   1.950   1.801   4.651
 2149SOL    HW1 6469   1.908   1.715   4.624
 2149SOL    HW2 6470   2.044   1.804   4.617
 2150SOL     OW 6471   2.366   1.568   4.634
 2150SOL    HW1 6472   2.432   1.642   4.643
 2150SOL    HW2 6473   2.410   1.489   4.592
 2151SOL     OW 6474   2.864   0.796   4.962
 2151SOL    HW1 6475   2.905   0.764   5.048
 2151SOL    HW2 6476   2.768   0.769   4.959
 2152SOL     OW 6477   1.902   0.544   4.838
 2152SOL    HW1 6478   1.987   0.511   4.797
 2152SOL    HW2 6479   1.915   0.559   4.936
 2153SOL     OW 6480   2.677   0.572   4.049
 2153SOL    HW1 6481   2.684   0.483   4.003
 2153SOL    HW2 6482   2.583   0.606   4.041
 2154SOL     OW 6483   3.519   0.604   4.930
 2154SOL    HW1 6484   3.481   0.535   4.992
 2154SOL    HW2 6485   3.601   0.568   4.886
 2155SOL     OW 6486   2.533   0.464   4.993
 2155SOL    HW1 6487   2.499   0.375   4.963
 2155SOL    HW2 6488   2.559   0.518   4.913
 2156SOL     OW 6489   2.792   1.678   5.189
 2156SOL    HW1 6490   2.768   1.660   5.094
 2156SOL    HW2 6491   2.822   1.772   5.199
 2157SOL     OW 6492   2.335   0.500   3.915
 2157SOL    HW1 6493   2.396   0.580   3.919
 2157SOL    HW2 6494   2.240   0.531   3.922
 2158SOL     OW 6495   2.021   1.137   5.190
 2158SOL    HW1 6496   2.043   1.076   5.266
 2158SOL    HW2 6497   2.031   1.088   5.104
 2159SOL     OW 6498   3.209   1.059   4.958
 2159SOL    HW1 6499   3.233   0.996   4.884
 2159SOL    HW2 6500   3.119   1.099   4.940
 2160SOL     OW 6501   3.164   0.855   4.033
 2160SOL    HW1 6502   3.078   0.824   4.075
 2160SOL    HW2 6503   3.160   0.841   3.934
 2161SOL     OW 6504   3.621   1.747   4.878
 2161SOL    HW1 6505   3.682   1.777   4.805
 2161SOL    HW2 6506   3.583   1.658   4.856
 2162SOL     OW 6507   3.114   1.731   4.852
 2162SOL    HW1 6508   3.198   1.736   4.798
 2162SOL    HW2 6509   3.091   1.635   4.870
 2163SOL     OW 6510   1.945   1.258   4.746
 2163SOL    HW1 6511   1.940   1.257   4.846
 2163SOL    HW2 6512   1.862   1.217   4.708
 2164SOL     OW 6513   3.588   0.135   4.247
 2164SOL    HW1 6514   3.661   0.118   4.180
 2164SOL    HW2 6515   3.557   0.048   4.285
 2165SOL     OW 6516   3.250   1.573   4.201
 2165SOL    HW1 6517   3.317   1.585   4.127
 2165SOL    HW2 6518   3.210   1.662   4.224
 2166SOL     OW 6519   3.142   0.927   4.396
 2166SOL    HW1 6520   3.202   0.846   4.398
 2166SOL    HW2 6521   3.182   0.996   4.336
 2167SOL     OW 6522   2.534   1.616   3.878
 2167SOL    HW1 6523   2.543   1.626   3.779
 2167SOL    HW2 6524   2.494   1.527   3.899
 2168SOL     OW 6525   3.703   0.175   4.687
 2168SOL    HW1 6526   3.742   0.090   4.651
 2168SOL    HW2 6527   3.605   0.177   4.668
 2169SOL     OW 6528   2.125   0.326   4.444
 2169SOL    HW1 6529   2.046   0.377   4.410
 2169SOL    HW2 6530   2.116   0.311   4.542
 2170SOL     OW 6531   3.056   1.612   3.755
 2170SOL    HW1 6532   3.062   1.519   3.792
 2170SOL    HW2 6533   2.997   1.612   3.675
 2171SOL     OW 6534   2.684   1.002   5.096
 2171SOL    HW1 6535   2.724   1.001   5.004
 2171SOL    HW2 6536   2.694   1.094   5.136
 2172SOL     OW 6537   2.778   0.910   4.015
 2172SOL    HW1 6538   2.841   0.948   3.947
 2172SOL    HW2 6539   2.818   0.827   4.054
 2173SOL     OW 6540   3.366   1.607   3.768
 2173SOL    HW1 6541   3.274   1.644   3.775
 2173SOL    HW2 6542   3.404   1.627   3.678
 2174SOL     OW 6543   3.476   1.292   5.013
 2174SOL    HW1 6544   3.536   1.295   5.093
 2174SOL    HW2 6545   3.401   1.356   5.026
 2175SOL     OW 6546   2.901   1.098   4.420
 2175SOL    HW1 6547   2.831   1.051   4.474
 2175SOL    HW2 6548   2.960   1.030   4.377
 2176SOL     OW 6549   2.876   0.236   4.695
 2176SOL    HW1 6550   2.868   0.200   4.602
 2176SOL    HW2 6551   2.874   0.160   4.760
 2177SOL     OW 6552   2.452   1.487   4.215
 2177SOL    HW1 6553   2.494   1.429   4.145
 2177SOL    HW2 6554   2.408   1.566   4.171
 2178SOL     OW 6555   3.571   0.385   5.105
 2178SOL    HW1 6556   3.644   0.454   5.109
 2178SOL    HW2 6557   3.599   0.310   5.046
 2179SOL     OW 6558   2.117   1.348   4.014
 2179SOL    HW1 6559   2.021   1.349   3.987
 2179SOL    HW2 6560   2.129   1.401   4.098
 2180SOL     OW 6561   1.937   0.345   3.757
 2180SOL    HW1 6562   1.845   0.317   3.728
 2180SOL    HW2 6563   1.968   0.422   3.701
 2181SOL     OW 6564   1.934   0.166   4.042
 2181SOL    HW1 6565   1.917   0.249   3.988
 2181SOL    HW2 6566   2.024   0.129   4.020
 2182SOL     OW 6567   3.045   1.335   3.843
 2182SOL    HW1 6568   2.946   1.324   3.845
 2182SOL    HW2 6569   3.079   1.350   3.936
 2183SOL     OW 6570   2.475   0.842   5.155
 2183SOL    HW1 6571   2.531   0.923   5.138
 2183SOL    HW2 6572   2.534   0.762   5.158
 2184SOL     OW 6573   3.355   1.767   4.683
 2184SOL    HW1 6574   3.388   1.831   4.614
 2184SOL    HW2 6575   3.421   1.761   4.758
 2185SOL     OW 6576   2.252   1.741   5.284
 2185SOL    HW1 6577   2.161   1.782   5.282
 2185SOL    HW2 6578   2.245   1.647   5.316
 2186SOL     OW 6579   3.536   0.883   4.978
 2186SOL    HW1 6580   3.509   0.794   4.941
 2186SOL    HW2 6581   3.537   0.951   4.905
 2187SOL     OW 6582   3.087   0.325   4.173
 2187SOL    HW1 6583   3.152   0.251   4.162
 2187SOL    HW2 6584   3.107   0.375   4.257
 2188SOL     OW 6585   2.456   0.745   4.376
 2188SOL    HW1 6586   2.506   0.830   4.357
 2188SOL    HW2 6587   2.368   0.747   4.328
 2189SOL     OW 6588   3.639   0.342   5.366
 2189SOL    HW1 6589   3.622   0.373   5.272
 2189SOL    HW2 6590   3.555   0.305   5.404
 2190SOL     OW 6591   3.592   0.934   5.241
 2190SOL    HW1 6592   3.630   1.025   5.256
 2190SOL    HW2 6593   3.584   0.917   5.142
 2191SOL     OW 6594   2.721   1.374   3.740
 2191SOL    HW1 6595   2.675   1.389   3.828
 2191SOL    HW2 6596   2.765   1.459   3.710
 2192SOL     OW 6597   2.523   1.790   4.677
 2192SOL    HW1 6598   2.477   1.878   4.664
 2192SOL    HW2 6599   2.622   1.802   4.670
 2193SOL     OW 6600   2.721   0.956   4.585
 2193SOL    HW1 6601   2.775   0.887   4.633
 2193SOL    HW2 6602   2.689   1.025   4.651
 2194SOL     OW 6603   2.945   0.984   3.811
 2194SOL    HW1 6604   2.922   1.037   3.729
 2194SOL    HW2 6605   3.026   0.928   3.792
 2195SOL     OW 6606   3.723   1.569   4.575
 2195SOL    HW1 6607   3.652   1.557   4.505
 2195SOL    HW2 6608   3.724   1.490   4.635
 2196SOL     OW 6609   1.941   1.240   4.377
 2196SOL    HW1 6610   1.940   1.193   4.465
 2196SOL    HW2 6611   2.023   1.212   4.326
 2197SOL     OW 6612   3.686   0.192   4.951
 2197SOL    HW1 6613   3.682   0.102   4.995
 2197SOL    HW2 6614   3.689   0.181   4.852
 2198SOL     OW 6615   2.290   0.424   4.244
 2198SOL    HW1 6616   2.320   0.352   4.182
 2198SOL    HW2 6617   2.251   0.384   4.327
 2199SOL     OW 6618   3.567   1.487   4.828
 2199SOL    HW1 6619   3.474   1.462   4.801
 2199SOL    HW2 6620   3.593   1.437   4.910
 2200SOL     OW 6621   2.179   0.547   5.004
 2200SOL    HW1 6622   2.217   0.488   5.076
 2200SOL    HW2 6623   2.219   0.521   4.916
 2201SOL     OW 6624   2.674   1.586   4.411
 2201SOL    HW1 6625   2.706   1.596   4.317
 2201SOL    HW2 6626   2.595   1.524   4.413
 2202SOL     OW 6627   3.286   0.214   4.836
 2202SOL    HW1 6628   3.338   0.149   4.891
 2202SOL    HW2 6629   3.237   0.277   4.897
 2203SOL     OW 6630   2.863   0.034   4.878
 2203SOL    HW1 6631   2.800  -0.038   4.847
 2203SOL    HW2 6632   2.956  -0.002   4.878
 2204SOL     OW 6633   2.632   1.330   4.025
 2204SOL    HW1 6634   2.586   1.243   4.042
 2204SOL    HW2 6635   2.723   1.327   4.066
 2205SOL     OW 6636   2.480   1.567   5.008
 2205SOL    HW1 6637   2.475   1.649   5.065
 2205SOL    HW2 6638   2.569   1.564   4.963
 2206SOL     OW 6639   3.214   0.052   3.892
 2206SOL    HW1 6640   3.249   0.011   3.808
 2206SOL    HW2 6641   3.124   0.014   3.912
 2207SOL     OW 6642   3.162   0.453   4.415
 2207SOL    HW1 6643   3.103   0.533   4.419
 2207SOL    HW2 6644   3.177   0.418   4.508
 2208SOL     OW 6645   3.455   0.221   4.606
 2208SOL    HW1 6646   3.371   0.220   4.660
 2208SOL    HW2 6647   3.457   0.304   4.550
 2209SOL     OW 6648   1.901   1.077   4.024
 2209SOL    HW1 6649   2.000   1.066   4.015
 2209SOL    HW2 6650   1.861   0.991   4.056
 2210SOL     OW 6651   2.737   1.646   4.061
 2210SOL    HW1 6652   2.660   1.611   4.007
 2210SOL    HW2 6653   2.705   1.717   4.123
 2211SOL     OW 6654   2.092   2.490   0.113
 2211SOL    HW1 6655   1.999   2.488   0.150
 2211SOL    HW2 6656   2.093   2.451   0.021
 2212SOL     OW 6657   2.087   2.137   0.996
 2212SOL    HW1 6658   2.122   2.120   1.088
 2212SOL    HW2 6659   1.999   2.092   0.984
 2213SOL     OW 6660   1.881   2.230   0.647
 2213SOL    HW1 6661   1.799   2.273   0.686
 2213SOL    HW2 6662   1.853   2.157   0.584
 2214SOL     OW 6663   2.431   3.137   1.165
 2214SOL    HW1 6664   2.338   3.130   1.128
 2214SOL    HW2 6665   2.442   3.226   1.209
 2215SOL     OW 6666   3.417   3.373   0.703
 2215SOL    HW1 6667   3.360   3.357   0.784
 2215SOL    HW2 6668   3.358   3.383   0.623
 2216SOL     OW 6669   2.997   2.565   0.717
 2216SOL    HW1 6670   3.054   2.643   0.692
 2216SOL    HW2 6671   2.937   2.591   0.793
 2217SOL     OW 6672   3.617   2.469   0.231
 2217SOL    HW1 6673   3.605   2.456   0.132
 2217SOL    HW2 6674   3.587   2.388   0.280
 2218SOL     OW 6675   2.630   3.006   1.023
 2218SOL    HW1 6676   2.552   3.023   1.083
 2218SOL    HW2 6677   2.664   3.093   0.987
 2219SOL     OW 6678   2.712   2.660   1.823
 2219SOL    HW1 6679   2.708   2.736   1.888
 2219SOL    HW2 6680   2.734   2.696   1.732
 2220SOL     OW 6681   2.547   2.874   0.665
 2220SOL    HW1 6682   2.616   2.858   0.735
 2220SOL    HW2 6683   2.474   2.931   0.703
 2221SOL     OW 6684   2.548   3.023   1.803
 2221SOL    HW1 6685   2.608   3.102   1.817
 2221SOL    HW2 6686   2.462   3.054   1.762
 2222SOL     OW 6687   2.197   3.297   1.061
 2222SOL    HW1 6688   2.119   3.266   1.008
 2222SOL    HW2 6689   2.255   3.355   1.004
 2223SOL     OW 6690   3.322   3.367   1.339
 2223SOL    HW1 6691   3.346   3.461   1.365
 2223SOL    HW2 6692   3.306   3.313   1.421
 2224SOL     OW 6693   2.300   2.254   1.499
 2224SOL    HW1 6694   2.382   2.198   1.508
 2224SOL    HW2 6695   2.219   2.196   1.503
 2225SOL     OW 6696   3.465   2.309   0.737
 2225SOL    HW1 6697   3.391   2.355   0.687
 2225SOL    HW2 6698   3.516   2.377   0.790
 2226SOL     OW 6699   2.093   3.575   0.483
 2226SOL    HW1 6700   2.127   3.652   0.537
 2226SOL    HW2 6701   2.137   3.575   0.393
 2227SOL     OW 6702   2.989   3.203   1.690
 2227SOL    HW1 6703   3.036   3.203   1.778
 2227SOL    HW2 6704   2.941   3.116   1.679
 2228SOL     OW 6705   2.092   3.296   0.538
 2228SOL    HW1 6706   2.066   3.392   0.538
 2228SOL    HW2 6707   2.021   3.242   0.583
 2229SOL     OW 6708   2.102   2.953   0.886
 2229SOL    HW1 6709   2.116   2.869   0.938
 2229SOL    HW2 6710   2.047   3.017   0.941
 2230SOL     OW 6711   2.482   3.648   1.439
 2230SOL    HW1 6712   2.390   3.631   1.474
 2230SOL    HW2 6713   2.510   3.740   1.465
 2231SOL     OW 6714   2.468   2.826   0.123
 2231SOL    HW1 6715   2.475   2.910   0.069
 2231SOL    HW2 6716   2.514   2.839   0.211
 2232SOL     OW 6717   3.456   1.976   1.480
 2232SOL    HW1 6718   3.438   2.043   1.408
 2232SOL    HW2 6719   3.453   2.022   1.569
 2233SOL     OW 6720   1.984   2.505   0.563
 2233SOL    HW1 6721   1.939   2.417   0.580
 2233SOL    HW2 6722   1.983   2.559   0.647
 2234SOL     OW 6723   3.704   3.629   0.359
 2234SOL    HW1 6724   3.758   3.600   0.439
 2234SOL    HW2 6725   3.734   3.719   0.330
 2235SOL     OW 6726   1.889   3.458   0.117
 2235SOL    HW1 6727   1.870   3.362   0.138
 2235SOL    HW2 6728   1.856   3.516   0.192
 2236SOL     OW 6729   3.551   2.784   0.612
 2236SOL    HW1 6730   3.646   2.755   0.620
 2236SOL    HW2 6731   3.543   2.849   0.537
 2237SOL     OW 6732   3.503   2.970   0.432
 2237SOL    HW1 6733   3.589   2.972   0.380
 2237SOL    HW2 6734   3.517   3.017   0.520
 2238SOL     OW 6735   1.975   2.599   1.597
 2238SOL    HW1 6736   2.063   2.586   1.642
 2238SOL    HW2 6737   1.962   2.696   1.575
 2239SOL     OW 6738   2.475   3.227   0.726
 2239SOL    HW1 6739   2.426   3.140   0.735
 2239SOL    HW2 6740   2.452   3.270   0.639
 2240SOL     OW 6741   3.155   3.090   1.423
 2240SOL    HW1 6742   3.192   3.017   1.365
 2240SOL    HW2 6743   3.207   3.095   1.508
 2241SOL     OW 6744   2.671   1.866   0.502
 2241SOL    HW1 6745   2.711   1.957   0.493
 2241SOL    HW2 6746   2.571   1.874   0.508
 2242SOL     OW 6747   2.059   2.838   1.264
 2242SOL    HW1 6748   2.148   2.793   1.250
 2242SOL    HW2 6749   1.986   2.773   1.245
 2243SOL     OW 6750   3.387   2.861   0.190
 2243SOL    HW1 6751   3.324   2.785   0.203
 2243SOL    HW2 6752   3.435   2.879   0.276
 2244SOL     OW 6753   3.049   3.654   1.616
 2244SOL    HW1 6754   3.073   3.714   1.540
 2244SOL    HW2 6755   3.056   3.559   1.586
 2245SOL     OW 6756   2.179   2.113   1.801
 2245SOL    HW1 6757   2.250   2.184   1.807
 2245SOL    HW2 6758   2.091   2.152   1.829
 2246SOL     OW 6759   3.328   3.279   0.953
 2246SOL    HW1 6760   3.269   3.285   1.033
 2246SOL    HW2 6761   3.313   3.191   0.907
 2247SOL     OW 6762   3.529   3.576   0.572
 2247SOL    HW1 6763   3.488   3.553   0.484
 2247SOL    HW2 6764   3.511   3.502   0.637
 2248SOL     OW 6765   2.460   2.591   0.270
 2248SOL    HW1 6766   2.484   2.660   0.202
 2248SOL    HW2 6767   2.382   2.624   0.324
 2249SOL     OW 6768   3.143   2.207   0.944
 2249SOL    HW1 6769   3.057   2.157   0.931
 2249SOL    HW2 6770   3.205   2.153   1.000
 2250SOL     OW 6771   3.438   3.524   0.307
 2250SOL    HW1 6772   3.527   3.570   0.310
 2250SOL    HW2 6773   3.417   3.500   0.212
 2251SOL     OW 6774   2.669   2.467   1.465
 2251SOL    HW1 6775   2.622   2.464   1.554
 2251SOL    HW2 6776   2.618   2.412   1.399
 2252SOL     OW 6777   3.256   2.331   1.674
 2252SOL    HW1 6778   3.236   2.374   1.762
 2252SOL    HW2 6779   3.334   2.269   1.683
 2253SOL     OW 6780   2.835   2.752   1.572
 2253SOL    HW1 6781   2.881   2.668   1.543
 2253SOL    HW2 6782   2.779   2.786   1.497
 2254SOL     OW 6783   2.853   2.272   1.242
 2254SOL    HW1 6784   2.776   2.306   1.296
 2254SOL    HW2 6785   2.819   2.221   1.163
 2255SOL     OW 6786   2.903   2.563   0.429
 2255SOL    HW1 6787   2.929   2.559   0.525
 2255SOL    HW2 6788   2.818   2.512   0.415
 2256SOL     OW 6789   1.938   2.673   0.789
 2256SOL    HW1 6790   2.037   2.661   0.798
 2256SOL    HW2 6791   1.914   2.768   0.810
 2257SOL     OW 6792   1.992   3.683   1.571
 2257SOL    HW1 6793   1.982   3.668   1.670
 2257SOL    HW2 6794   1.906   3.719   1.535
 2258SOL     OW 6795   2.727   2.210   0.195
 2258SOL    HW1 6796   2.786   2.273   0.146
 2258SOL    HW2 6797   2.746   2.116   0.166
 2259SOL     OW 6798   3.581   2.447   1.831
 2259SOL    HW1 6799   3.555   2.536   1.795
 2259SOL    HW2 6800   3.579   2.379   1.758
 2260SOL     OW 6801   3.224   3.006   0.545
 2260SOL    HW1 6802   3.307   2.977   0.497
 2260SOL    HW2 6803   3.175   3.073   0.489
 2261SOL     OW 6804   2.412   2.058   0.885
 2261SOL    HW1 6805   2.407   2.053   0.985
 2261SOL    HW2 6806   2.414   2.154   0.856
 2262SOL     OW 6807   2.870   3.318   0.477
 2262SOL    HW1 6808   2.824   3.390   0.425
 2262SOL    HW2 6809   2.866   3.338   0.575
 2263SOL     OW 6810   2.213   3.663   0.853
 2263SOL    HW1 6811   2.263   3.577   0.859
 2263SOL    HW2 6812   2.278   3.740   0.850
 2264SOL     OW 6813   3.657   2.928   0.873
 2264SOL    HW1 6814   3.595   2.913   0.797
 2264SOL    HW2 6815   3.605   2.939   0.958
 2265SOL     OW 6816   3.089   3.412   1.506
 2265SOL    HW1 6817   3.095   3.335   1.570
 2265SOL    HW2 6818   3.037   3.386   1.426
 2266SOL     OW 6819   2.183   2.805   0.242
 2266SOL    HW1 6820   2.265   2.844   0.200
 2266SOL    HW2 6821   2.156   2.723   0.193
 2267SOL     OW 6822   3.320   2.597   0.728
 2267SOL    HW1 6823   3.315   2.532   0.803
 2267SOL    HW2 6824   3.400   2.656   0.741
 2268SOL     OW 6825   2.323   3.128   1.727
 2268SOL    HW1 6826   2.273   3.129   1.641
 2268SOL    HW2 6827   2.260   3.110   1.803
 2269SOL     OW 6828   2.973   3.638   0.237
 2269SOL    HW1 6829   2.913   3.576   0.287
 2269SOL    HW2 6830   3.004   3.594   0.152
 2270SOL     OW 6831   2.064   2.147   1.498
 2270SOL    HW1 6832   1.984   2.207   1.485
 2270SOL    HW2 6833   2.054   2.098   1.584
 2271SOL     OW 6834   3.494   3.239   0.081
 2271SOL    HW1 6835   3.462   3.333   0.071
 2271SOL    HW2 6836   3.418   3.176   0.069
 2272SOL     OW 6837   2.326   3.605   0.323
 2272SOL    HW1 6838   2.359   3.644   0.409
 2272SOL    HW2 6839   2.402   3.598   0.258
 2273SOL     OW 6840   3.262   1.969   0.426
 2273SOL    HW1 6841   3.238   1.932   0.336
 2273SOL    HW2 6842   3.361   1.985   0.430
 2274SOL     OW 6843   2.111   3.647   1.241
 2274SOL    HW1 6844   2.168   3.582   1.291
 2274SOL    HW2 6845   2.095   3.614   1.148
 2275SOL     OW 6846   2.802   3.560   0.904
 2275SOL    HW1 6847   2.882   3.503   0.925
 2275SOL    HW2 6848   2.753   3.520   0.827
 2276SOL     OW 6849   2.244   2.562   0.480
 2276SOL    HW1 6850   2.289   2.472   0.477
 2276SOL    HW2 6851   2.150   2.551   0.513
 2277SOL     OW 6852   3.409   2.084   1.729
 2277SOL    HW1 6853   3.404   2.121   1.821
 2277SOL    HW2 6854   3.337   2.015   1.717
 2278SOL     OW 6855   2.643   2.126   1.749
 2278SOL    HW1 6856   2.710   2.065   1.792
 2278SOL    HW2 6857   2.570   2.145   1.814
 2279SOL     OW 6858   2.750   3.376   1.195
 2279SOL    HW1 6859   2.727   3.351   1.101
 2279SOL    HW2 6860   2.811   3.307   1.234
 2280SOL     OW 6861   3.213   2.452   1.433
 2280SOL    HW1 6862   3.241   2.409   1.518
 2280SOL    HW2 6863   3.238   2.548   1.434
 2281SOL     OW 6864   2.665   3.264   0.924
 2281SOL    HW1 6865   2.755   3.278   0.882
 2281SOL    HW2 6866   2.594   3.266   0.853
 2282SOL     OW 6867   2.784   2.365   0.899
 2282SOL    HW1 6868   2.759   2.356   0.803
 2282SOL    HW2 6869   2.832   2.283   0.930
 2283SOL     OW 6870   2.401   1.926   0.512
 2283SOL    HW1 6871   2.320   1.927   0.570
 2283SOL    HW2 6872   2.404   2.009   0.457
 2284SOL     OW 6873   3.296   3.050   0.041
 2284SOL    HW1 6874   3.328   2.974   0.098
 2284SOL    HW2 6875   3.204   3.077   0.071
 2285SOL     OW 6876   2.797   2.098   0.480
 2285SOL    HW1 6877   2.749   2.139   0.402
 2285SOL    HW2 6878   2.896   2.096   0.461
 2286SOL     OW 6879   2.938   2.545   1.464
 2286SOL    HW1 6880   2.858   2.484   1.467
 2286SOL    HW2 6881   3.019   2.492   1.440
 2287SOL     OW 6882   3.089   3.432   0.793
 2287SOL    HW1 6883   3.110   3.506   0.728
 2287SOL    HW2 6884   3.157   3.432   0.866
 2288SOL     OW 6885   2.321   3.014   0.741
 2288SOL    HW1 6886   2.250   2.987   0.806
 2288SOL    HW2 6887   2.295   2.986   0.648
 2289SOL     OW 6888   3.133   3.659   0.591
 2289SOL    HW1 6889   3.177   3.723   0.527
 2289SOL    HW2 6890   3.083   3.711   0.661
 2290SOL     OW 6891   2.894   2.411   0.016
 2290SOL    HW1 6892   2.853   2.493  -0.023
 2290SOL    HW2 6893   2.958   2.437   0.089
 2291SOL     OW 6894   1.940   2.418   1.386
 2291SOL    HW1 6895   2.032   2.417   1.345
 2291SOL    HW2 6896   1.934   2.492   1.453
 2292SOL     OW 6897   2.423   2.084   1.147
 2292SOL    HW1 6898   2.461   2.000   1.184
 2292SOL    HW2 6899   2.335   2.103   1.191
 2293SOL     OW 6900   2.728   2.316   0.642
 2293SOL    HW1 6901   2.696   2.388   0.580
 2293SOL    HW2 6902   2.752   2.235   0.589
 2294SOL     OW 6903   2.879   1.901   0.753
 2294SOL    HW1 6904   2.807   1.906   0.684
 2294SOL    HW2 6905   2.855   1.832   0.822
 2295SOL     OW 6906   3.291   3.035   0.867
 2295SOL    HW1 6907   3.236   2.951   0.860
 2295SOL    HW2 6908   3.317   3.064   0.775
 2296SOL     OW 6909   3.328   2.452   0.992
 2296SOL    HW1 6910   3.298   2.357   0.999
 2296SOL    HW2 6911   3.401   2.468   1.058
 2297SOL     OW 6912   3.719   2.695   0.377
 2297SOL    HW1 6913   3.761   2.631   0.441
 2297SOL    HW2 6914   3.681   2.644   0.299
 2298SOL     OW 6915   2.350   3.247   0.174
 2298SOL    HW1 6916   2.263   3.232   0.221
 2298SOL    HW2 6917   2.333   3.273   0.079
 2299SOL     OW 6918   3.526   3.142   0.657
 2299SOL    HW1 6919   3.625   3.150   0.671
 2299SOL    HW2 6920   3.481   3.226   0.688
 2300SOL     OW 6921   3.252   2.437   0.078
 2300SOL    HW1 6922   3.198   2.416   0.159
 2300SOL    HW2 6923   3.343   2.396   0.087
 2301SOL     OW 6924   2.389   2.118   0.328
 2301SOL    HW1 6925   2.416   2.059   0.253
 2301SOL    HW2 6926   2.389   2.213   0.297
 2302SOL     OW 6927   3.616   3.085   1.588
 2302SOL    HW1 6928   3.707   3.046   1.575
 2302SOL    HW2 6929   3.624   3.181   1.612
 2303SOL     OW 6930   2.926   3.209   1.340
 2303SOL    HW1 6931   2.846   3.186   1.395
 2303SOL    HW2 6932   3.009   3.183   1.389
 2304SOL     OW 6933   3.454   3.491   1.625
 2304SOL    HW1 6934   3.481   3.525   1.535
 2304SOL    HW2 6935   3.533   3.453   1.671
 2305SOL     OW 6936   2.973   3.057   1.100
 2305SOL    HW1 6937   2.933   3.101   1.181
 2305SOL    HW2 6938   2.932   3.094   1.017
 2306SOL     OW 6939   3.500   2.961   1.079
 2306SOL    HW1 6940   3.505   3.042   1.138
 2306SOL    HW2 6941   3.414   2.963   1.028
 2307SOL     OW 6942   2.777   1.951   1.402
 2307SOL    HW1 6943   2.802   1.931   1.307
 2307SOL    HW2 6944   2.849   2.007   1.444
 2308SOL     OW 6945   2.842   2.978   1.719
 2308SOL    HW1 6946   2.743   2.984   1.729
 2308SOL    HW2 6947   2.865   2.898   1.663
 2309SOL     OW 6948   2.567   2.912   0.368
 2309SOL    HW1 6949   2.553   2.919   0.467
 2309SOL    HW2 6950   2.651   2.861   0.350
 2310SOL     OW 6951   2.272   2.675   1.251
 2310SOL    HW1 6952   2.358   2.687   1.301
 2310SOL    HW2 6953   2.230   2.588   1.278
 2311SOL     OW 6954   3.136   2.248   1.262
 2311SOL    HW1 6955   3.157   2.322   1.326
 2311SOL    HW2 6956   3.047   2.265   1.219
 2312SOL     OW 6957   1.926   3.426   1.331
 2312SOL    HW1 6958   1.880   3.508   1.297
 2312SOL    HW2 6959   2.024   3.445   1.340
 2313SOL     OW 6960   2.229   2.962   0.501
 2313SOL    HW1 6961   2.222   3.045   0.445
 2313SOL    HW2 6962   2.233   2.882   0.441
 2314SOL     OW 6963   2.428   2.399   0.865
 2314SOL    HW1 6964   2.440   2.465   0.791
 2314SOL    HW2 6965   2.474   2.433   0.948
 2315SOL     OW 6966   3.114   3.210   0.388
 2315SOL    HW1 6967   3.164   3.287   0.428
 2315SOL    HW2 6968   3.019   3.212   0.420
 2316SOL     OW 6969   3.134   3.307   1.142
 2316SOL    HW1 6970   3.181   3.320   1.229
 2316SOL    HW2 6971   3.068   3.233   1.151
 2317SOL     OW 6972   3.444   2.501   0.472
 2317SOL    HW1 6973   3.413   2.562   0.545
 2317SOL    HW2 6974   3.494   2.553   0.403
 2318SOL     OW 6975   2.216   3.372   1.329
 2318SOL    HW1 6976   2.195   3.328   1.242
 2318SOL    HW2 6977   2.313   3.398   1.332
 2319SOL     OW 6978   2.264   2.613   1.598
 2319SOL    HW1 6979   2.332   2.668   1.551
 2319SOL    HW2 6980   2.304   2.525   1.625
 2320SOL     OW 6981   3.449   2.641   1.670
 2320SOL    HW1 6982   3.357   2.679   1.665
 2320SOL    HW2 6983   3.509   2.688   1.605
 2321SOL     OW 6984   2.875   1.967   1.770
 2321SOL    HW1 6985   2.881   2.052   1.718
 2321SOL    HW2 6986   2.907   1.891   1.713
 2322SOL     OW 6987   2.366   1.912   1.740
 2322SOL    HW1 6988   2.324   1.855   1.670
 2322SOL    HW2 6989   2.300   1.981   1.772
 2323SOL     OW 6990   2.435   2.732   1.029
 2323SOL    HW1 6991   2.479   2.821   1.020
 2323SOL    HW2 6992   2.372   2.732   1.106
 2324SOL     OW 6993   3.222   2.724   1.045
 2324SOL    HW1 6994   3.147   2.724   0.979
 2324SOL    HW2 6995   3.259   2.632   1.054
 2325SOL     OW 6996   3.071   2.387   0.275
 2325SOL    HW1 6997   3.084   2.303   0.329
 2325SOL    HW2 6998   3.042   2.461   0.335
 2326SOL     OW 6999   2.169   2.075   1.231
 2326SOL    HW1 7000   2.146   2.112   1.321
 2326SOL    HW2 7001   2.139   1.980   1.225
 2327SOL     OW 7002   1.899   3.172   1.282
 2327SOL    HW1 7003   1.952   3.123   1.350
 2327SOL    HW2 7004   1.921   3.270   1.287
 2328SOL     OW 7005   2.594   2.496   1.064
 2328SOL    HW1 7006   2.653   2.470   0.988
 2328SOL    HW2 7007   2.566   2.592   1.053
 2329SOL     OW 7008   3.590   2.797   1.854
 2329SOL    HW1 7009   3.544   2.790   1.765
 2329SOL    HW2 7010   3.528   2.841   1.920
 2330SOL     OW 7011   2.169   1.925   0.618
 2330SOL    HW1 7012   2.158   2.019   0.651
 2330SOL    HW2 7013   2.164   1.862   0.695
 2331SOL     OW 7014   3.484   2.229   0.374
 2331SOL    HW1 7015   3.486   2.153   0.438
 2331SOL    HW2 7016   3.436   2.306   0.414
 2332SOL     OW 7017   2.885   2.628   0.966
 2332SOL    HW1 7018   2.900   2.649   1.062
 2332SOL    HW2 7019   2.855   2.533   0.957
 2333SOL     OW 7020   2.842   3.435   1.700
 2333SOL    HW1 7021   2.822   3.479   1.612
 2333SOL    HW2 7022   2.881   3.344   1.684
 2334SOL     OW 7023   3.721   3.380   1.605
 2334SOL    HW1 7024   3.735   3.407   1.510
 2334SOL    HW2 7025   3.804   3.402   1.658
 2335SOL     OW 7026   2.212   2.760   1.804
 2335SOL    HW1 7027   2.288   2.804   1.852
 2335SOL    HW2 7028   2.247   2.713   1.722
 2336SOL     OW 7029   3.402   2.136   0.125
 2336SOL    HW1 7030   3.341   2.061   0.148
 2336SOL    HW2 7031   3.424   2.188   0.208
 2337SOL     OW 7032   3.165   2.700   0.042
 2337SOL    HW1 7033   3.199   2.607   0.057
 2337SOL    HW2 7034   3.183   2.727  -0.053
 2338SOL     OW 7035   2.930   3.195   0.849
 2338SOL    HW1 7036   2.937   3.111   0.794
 2338SOL    HW2 7037   2.992   3.264   0.813
 2339SOL     OW 7038   2.181   2.672   0.949
 2339SOL    HW1 7039   2.274   2.708   0.954
 2339SOL    HW2 7040   2.175   2.587   1.001
 2340SOL     OW 7041   2.201   2.371   1.006
 2340SOL    HW1 7042   2.149   2.288   0.989
 2340SOL    HW2 7043   2.278   2.376   0.942
 2341SOL     OW 7044   3.000   2.242   1.678
 2341SOL    HW1 7045   2.955   2.305   1.742
 2341SOL    HW2 7046   3.093   2.273   1.661
 2342SOL     OW 7047   3.022   2.069   1.477
 2342SOL    HW1 7048   3.022   2.133   1.554
 2342SOL    HW2 7049   3.050   2.117   1.394
 2343SOL     OW 7050   1.950   3.663   0.927
 2343SOL    HW1 7051   1.908   3.577   0.900
 2343SOL    HW2 7052   2.044   3.666   0.893
 2344SOL     OW 7053   2.366   3.430   0.910
 2344SOL    HW1 7054   2.432   3.504   0.919
 2344SOL    HW2 7055   2.410   3.351   0.868
 2345SOL     OW 7056   2.864   2.658   1.238
 2345SOL    HW1 7057   2.905   2.626   1.324
 2345SOL    HW2 7058   2.768   2.631   1.235
 2346SOL     OW 7059   1.902   2.406   1.114
 2346SOL    HW1 7060   1.987   2.373   1.073
 2346SOL    HW2 7061   1.915   2.421   1.212
 2347SOL     OW 7062   2.051   2.382   1.722
 2347SOL    HW1 7063   2.110   2.342   1.652
 2347SOL    HW2 7064   1.993   2.453   1.681
 2348SOL     OW 7065   3.231   2.812   1.660
 2348SOL    HW1 7066   3.270   2.901   1.680
 2348SOL    HW2 7067   3.241   2.792   1.563
 2349SOL     OW 7068   2.677   2.434   0.325
 2349SOL    HW1 7069   2.684   2.345   0.279
 2349SOL    HW2 7070   2.583   2.468   0.317
 2350SOL     OW 7071   3.519   2.466   1.206
 2350SOL    HW1 7072   3.481   2.397   1.268
 2350SOL    HW2 7073   3.601   2.430   1.162
 2351SOL     OW 7074   2.114   3.426   1.744
 2351SOL    HW1 7075   2.084   3.483   1.820
 2351SOL    HW2 7076   2.107   3.329   1.770
 2352SOL     OW 7077   2.533   2.326   1.269
 2352SOL    HW1 7078   2.499   2.237   1.239
 2352SOL    HW2 7079   2.559   2.380   1.189
 2353SOL     OW 7080   2.792   3.540   1.465
 2353SOL    HW1 7081   2.768   3.522   1.370
 2353SOL    HW2 7082   2.822   3.634   1.475
 2354SOL     OW 7083   2.335   2.362   0.191
 2354SOL    HW1 7084   2.396   2.442   0.195
 2354SOL    HW2 7085   2.240   2.393   0.198
 2355SOL     OW 7086   2.021   2.999   1.466
 2355SOL    HW1 7087   2.043   2.938   1.542
 2355SOL    HW2 7088   2.031   2.950   1.380
 2356SOL     OW 7089   3.209   2.921   1.234
 2356SOL    HW1 7090   3.233   2.858   1.160
 2356SOL    HW2 7091   3.119   2.961   1.216
 2357SOL     OW 7092   3.164   2.717   0.309
 2357SOL    HW1 7093   3.078   2.686   0.351
 2357SOL    HW2 7094   3.160   2.703   0.210
 2358SOL     OW 7095   3.621   3.609   1.154
 2358SOL    HW1 7096   3.682   3.639   1.081
 2358SOL    HW2 7097   3.583   3.520   1.132
 2359SOL     OW 7098   3.114   3.593   1.128
 2359SOL    HW1 7099   3.198   3.598   1.074
 2359SOL    HW2 7100   3.091   3.497   1.146
 2360SOL     OW 7101   1.945   3.120   1.022
 2360SOL    HW1 7102   1.940   3.119   1.122
 2360SOL    HW2 7103   1.862   3.079   0.984
 2361SOL     OW 7104   2.550   3.524   1.716
 2361SOL    HW1 7105   2.494   3.605   1.725
 2361SOL    HW2 7106   2.602   3.528   1.630
 2362SOL     OW 7107   2.765   1.948   0.133
 2362SOL    HW1 7108   2.816   1.949   0.047
 2362SOL    HW2 7109   2.821   1.906   0.204
 2363SOL     OW 7110   3.588   1.997   0.523
 2363SOL    HW1 7111   3.661   1.980   0.456
 2363SOL    HW2 7112   3.557   1.910   0.561
 2364SOL     OW 7113   3.250   3.435   0.477
 2364SOL    HW1 7114   3.317   3.447   0.403
 2364SOL    HW2 7115   3.210   3.524   0.500
 2365SOL     OW 7116   1.992   3.656   1.851
 2365SOL    HW1 7117   1.951   3.582   1.904
 2365SOL    HW2 7118   2.056   3.707   1.909
 2366SOL     OW 7119   3.142   2.789   0.672
 2366SOL    HW1 7120   3.202   2.708   0.674
 2366SOL    HW2 7121   3.182   2.858   0.612
 2367SOL     OW 7122   2.692   3.135   1.422
 2367SOL    HW1 7123   2.687   3.168   1.517
 2367SOL    HW2 7124   2.606   3.154   1.376
 2368SOL     OW 7125   2.534   3.478   0.154
 2368SOL    HW1 7126   2.543   3.488   0.055
 2368SOL    HW2 7127   2.494   3.389   0.175
 2369SOL     OW 7128   3.512   3.582   1.394
 2369SOL    HW1 7129   3.565   3.592   1.310
 2369SOL    HW2 7130   3.485   3.672   1.428
 2370SOL     OW 7131   3.703   2.037   0.963
 2370SOL    HW1 7132   3.742   1.952   0.927
 2370SOL    HW2 7133   3.605   2.039   0.944
 2371SOL     OW 7134   2.125   2.188   0.720
 2371SOL    HW1 7135   2.046   2.239   0.686
 2371SOL    HW2 7136   2.116   2.173   0.818
 2372SOL     OW 7137   3.056   3.474   0.031
 2372SOL    HW1 7138   3.062   3.381   0.068
 2372SOL    HW2 7139   2.997   3.474  -0.049
 2373SOL     OW 7140   2.684   2.864   1.372
 2373SOL    HW1 7141   2.724   2.863   1.280
 2373SOL    HW2 7142   2.694   2.956   1.412
 2374SOL     OW 7143   2.778   2.772   0.291
 2374SOL    HW1 7144   2.841   2.810   0.223
 2374SOL    HW2 7145   2.818   2.689   0.330
 2375SOL     OW 7146   3.366   3.469   0.044
 2375SOL    HW1 7147   3.274   3.506   0.051
 2375SOL    HW2 7148   3.404   3.489  -0.046
 2376SOL     OW 7149   2.234   3.150   1.490
 2376SOL    HW1 7150   2.221   3.243   1.456
 2376SOL    HW2 7151   2.150   3.098   1.477
 2377SOL     OW 7152   3.476   3.154   1.289
 2377SOL    HW1 7153   3.536   3.157   1.369
 2377SOL    HW2 7154   3.401   3.218   1.302
 2378SOL     OW 7155   2.901   2.960   0.696
 2378SOL    HW1 7156   2.831   2.913   0.750
 2378SOL    HW2 7157   2.960   2.892   0.653
 2379SOL     OW 7158   2.876   2.098   0.971
 2379SOL    HW1 7159   2.868   2.062   0.878
 2379SOL    HW2 7160   2.874   2.022   1.036
 2380SOL     OW 7161   2.452   3.349   0.491
 2380SOL    HW1 7162   2.494   3.291   0.421
 2380SOL    HW2 7163   2.408   3.428   0.447
 2381SOL     OW 7164   3.571   2.247   1.381
 2381SOL    HW1 7165   3.644   2.316   1.385
 2381SOL    HW2 7166   3.599   2.172   1.322
 2382SOL     OW 7167   2.117   3.210   0.290
 2382SOL    HW1 7168   2.021   3.211   0.263
 2382SOL    HW2 7169   2.129   3.263   0.374
 2383SOL     OW 7170   1.967   2.875   1.726
 2383SOL    HW1 7171   1.890   2.842   1.780
 2383SOL    HW2 7172   2.052   2.845   1.768
 2384SOL     OW 7173   2.534   2.065   1.489
 2384SOL    HW1 7174   2.624   2.049   1.449
 2384SOL    HW2 7175   2.542   2.070   1.588
 2385SOL     OW 7176   1.937   2.207   0.033
 2385SOL    HW1 7177   1.845   2.179   0.004
 2385SOL    HW2 7178   1.968   2.284  -0.023
 2386SOL     OW 7179   3.302   2.718   1.398
 2386SOL    HW1 7180   3.245   2.770   1.335
 2386SOL    HW2 7181   3.398   2.730   1.374
 2387SOL     OW 7182   1.934   2.028   0.318
 2387SOL    HW1 7183   1.917   2.111   0.264
 2387SOL    HW2 7184   2.024   1.991   0.296
 2388SOL     OW 7185   3.045   3.197   0.119
 2388SOL    HW1 7186   2.946   3.186   0.121
 2388SOL    HW2 7187   3.079   3.212   0.212
 2389SOL     OW 7188   2.475   2.704   1.431
 2389SOL    HW1 7189   2.531   2.785   1.414
 2389SOL    HW2 7190   2.534   2.624   1.434
 2390SOL     OW 7191   3.355   3.629   0.959
 2390SOL    HW1 7192   3.388   3.693   0.890
 2390SOL    HW2 7193   3.421   3.623   1.034
 2391SOL     OW 7194   2.578   2.427   1.708
 2391SOL    HW1 7195   2.597   2.492   1.782
 2391SOL    HW2 7196   2.638   2.347   1.717
 2392SOL     OW 7197   3.312   3.082   1.633
 2392SOL    HW1 7198   3.303   3.072   1.732
 2392SOL    HW2 7199   3.408   3.075   1.607
 2393SOL     OW 7200   2.252   3.603   1.560
 2393SOL    HW1 7201   2.161   3.644   1.558
 2393SOL    HW2 7202   2.245   3.509   1.592
 2394SOL     OW 7203   3.536   2.745   1.254
 2394SOL    HW1 7204   3.509   2.656   1.217
 2394SOL    HW2 7205   3.537   2.813   1.181
 2395SOL     OW 7206   3.087   2.187   0.449
 2395SOL    HW1 7207   3.152   2.113   0.438
 2395SOL    HW2 7208   3.107   2.237   0.533
 2396SOL     OW 7209   2.456   2.607   0.652
 2396SOL    HW1 7210   2.506   2.692   0.633
 2396SOL    HW2 7211   2.368   2.609   0.604
 2397SOL     OW 7212   3.639   2.204   1.642
 2397SOL    HW1 7213   3.622   2.235   1.548
 2397SOL    HW2 7214   3.555   2.167   1.680
 2398SOL     OW 7215   3.592   2.796   1.517
 2398SOL    HW1 7216   3.630   2.887   1.532
 2398SOL    HW2 7217   3.584   2.779   1.418
 2399SOL     OW 7218   2.721   3.236   0.016
 2399SOL    HW1 7219   2.675   3.251   0.104
 2399SOL    HW2 7220   2.765   3.321  -0.014
 2400SOL     OW 7221   2.523   3.652   0.953
 2400SOL    HW1 7222   2.477   3.740   0.940
 2400SOL    HW2 7223   2.622   3.664   0.946
 2401SOL     OW 7224   2.721   2.818   0.861
 2401SOL    HW1 7225   2.775   2.749   0.909
 2401SOL    HW2 7226   2.689   2.887   0.927
 2402SOL     OW 7227   2.945   2.846   0.087
 2402SOL    HW1 7228   2.922   2.899   0.005
 2402SOL    HW2 7229   3.026   2.790   0.068
 2403SOL     OW 7230   3.723   3.431   0.851
 2403SOL    HW1 7231   3.652   3.419   0.781
 2403SOL    HW2 7232   3.724   3.352   0.911
 2404SOL     OW 7233   2.083   3.176   1.844
 2404SOL    HW1 7234   2.018   3.103   1.823
 2404SOL    HW2 7235   2.087   3.190   1.942
 2405SOL     OW 7236   1.941   3.102   0.653
 2405SOL    HW1 7237   1.940   3.055   0.741
 2405SOL    HW2 7238   2.023   3.074   0.602
 2406SOL     OW 7239   2.534   3.253   1.624
 2406SOL    HW1 7240   2.456   3.203   1.662
 2406SOL    HW2 7241   2.531   3.348   1.655
 2407SOL     OW 7242   3.686   2.054   1.227
 2407SOL    HW1 7243   3.682   1.964   1.271
 2407SOL    HW2 7244   3.689   2.043   1.128
 2408SOL     OW 7245   2.290   2.286   0.520
 2408SOL    HW1 7246   2.320   2.214   0.458
 2408SOL    HW2 7247   2.251   2.246   0.603
 2409SOL     OW 7248   3.567   3.349   1.104
 2409SOL    HW1 7249   3.474   3.324   1.077
 2409SOL    HW2 7250   3.593   3.299   1.186
 2410SOL     OW 7251   2.179   2.409   1.280
 2410SOL    HW1 7252   2.217   2.350   1.352
 2410SOL    HW2 7253   2.219   2.383   1.192
 2411SOL     OW 7254   2.674   3.448   0.687
 2411SOL    HW1 7255   2.706   3.458   0.593
 2411SOL    HW2 7256   2.595   3.386   0.689
 2412SOL     OW 7257   3.286   2.076   1.112
 2412SOL    HW1 7258   3.338   2.011   1.167
 2412SOL    HW2 7259   3.237   2.139   1.173
 2413SOL     OW 7260   2.863   1.896   1.154
 2413SOL    HW1 7261   2.800   1.824   1.123
 2413SOL    HW2 7262   2.956   1.860   1.154
 2414SOL     OW 7263   2.632   3.192   0.301
 2414SOL    HW1 7264   2.586   3.105   0.318
 2414SOL    HW2 7265   2.723   3.189   0.342
 2415SOL     OW 7266   2.480   3.429   1.284
 2415SOL    HW1 7267   2.475   3.511   1.341
 2415SOL    HW2 7268   2.569   3.426   1.239
 2416SOL     OW 7269   3.214   1.914   0.168
 2416SOL    HW1 7270   3.249   1.873   0.084
 2416SOL    HW2 7271   3.124   1.876   0.188
 2417SOL     OW 7272   3.162   2.315   0.691
 2417SOL    HW1 7273   3.103   2.395   0.695
 2417SOL    HW2 7274   3.177   2.280   0.784
 2418SOL     OW 7275   3.455   2.083   0.882
 2418SOL    HW1 7276   3.371   2.082   0.936
 2418SOL    HW2 7277   3.457   2.166   0.826
 2419SOL     OW 7278   1.901   2.939   0.300
 2419SOL    HW1 7279   2.000   2.928   0.291
 2419SOL    HW2 7280   1.861   2.853   0.332
 2420SOL     OW 7281   2.737   3.508   0.337
 2420SOL    HW1 7282   2.660   3.473   0.283
 2420SOL    HW2 7283   2.705   3.579   0.399
 2421SOL     OW 7284   2.092   2.490   1.975
 2421SOL    HW1 7285   1.999   2.488   2.012
 2421SOL    HW2 7286   2.093   2.451   1.883
 2422SOL     OW 7287   2.087   2.137   2.858
 2422SOL    HW1 7288   2.122   2.120   2.950
 2422SOL    HW2 7289   1.999   2.092   2.846
 2423SOL     OW 7290   1.881   2.230   2.509
 2423SOL    HW1 7291   1.799   2.273   2.548
 2423SOL    HW2 7292   1.853   2.157   2.446
 2424SOL     OW 7293   2.431   3.137   3.027
 2424SOL    HW1 7294   2.338   3.130   2.990
 2424SOL    HW2 7295   2.442   3.226   3.071
 2425SOL     OW 7296   3.417   3.373   2.565
 2425SOL    HW1 7297   3.360   3.357   2.646
 2425SOL    HW2 7298   3.358   3.383   2.485
 2426SOL     OW 7299   2.997   2.565   2.579
 2426SOL    HW1 7300   3.054   2.643   2.554
 2426SOL    HW2 7301   2.937   2.591   2.655
 2427SOL     OW 7302   3.617   2.469   2.093
 2427SOL    HW1 7303   3.605   2.456   1.994
 2427SOL    HW2 7304   3.587   2.388   2.142
 2428SOL     OW 7305   2.630   3.006   2.885
 2428SOL    HW1 7306   2.552   3.023   2.945
 2428SOL    HW2 7307   2.664   3.093   2.849
 2429SOL     OW 7308   2.712   2.660   3.685
 2429SOL    HW1 7309   2.708   2.736   3.750
 2429SOL    HW2 7310   2.734   2.696   3.594
 2430SOL     OW 7311   2.547   2.874   2.527
 2430SOL    HW1 7312   2.616   2.858   2.597
 2430SOL    HW2 7313   2.474   2.931   2.565
 2431SOL     OW 7314   2.548   3.023   3.665
 2431SOL    HW1 7315   2.608   3.102   3.679
 2431SOL    HW2 7316   2.462   3.054   3.624
 2432SOL     OW 7317   2.197   3.297   2.923
 2432SOL    HW1 7318   2.119   3.266   2.870
 2432SOL    HW2 7319   2.255   3.355   2.866
 2433SOL     OW 7320   3.322   3.367   3.201
 2433SOL    HW1 7321   3.346   3.461   3.227
 2433SOL    HW2 7322   3.306   3.313   3.283
 2434SOL     OW 7323   2.300   2.254   3.361
 2434SOL    HW1 7324   2.382   2.198   3.370
 2434SOL    HW2 7325   2.219   2.196   3.365
 2435SOL     OW 7326   3.465   2.309   2.599
 2435SOL    HW1 7327   3.391   2.355   2.549
 2435SOL    HW2 7328   3.516   2.377   2.652
 2436SOL     OW 7329   2.093   3.575   2.345
 2436SOL    HW1 7330   2.127   3.652   2.399
 2436SOL    HW2 7331   2.137   3.575   2.255
 2437SOL     OW 7332   2.989   3.203   3.552
 2437SOL    HW1 7333   3.036   3.203   3.640
 2437SOL    HW2 7334   2.941   3.116   3.541
 2438SOL     OW 7335   2.092   3.296   2.400
 2438SOL    HW1 7336   2.066   3.392   2.400
 2438SOL    HW2 7337   2.021   3.242   2.445
 2439SOL     OW 7338   2.102   2.953   2.748
 2439SOL    HW1 7339   2.116   2.869   2.800
 2439SOL    HW2 7340   2.047   3.017   2.803
 2440SOL     OW 7341   2.482   3.648   3.301
 2440SOL    HW1 7342   2.390   3.631   3.336
 2440SOL    HW2 7343   2.510   3.740   3.327
 2441SOL     OW 7344   2.468   2.826   1.985
 2441SOL    HW1 7345   2.475   2.910   1.931
 2441SOL    HW2 7346   2.514   2.839   2.073
 2442SOL     OW 7347   3.456   1.976   3.342
 2442SOL    HW1 7348   3.438   2.043   3.270
 2442SOL    HW2 7349   3.453   2.022   3.431
 2443SOL     OW 7350   1.984   2.505   2.425
 2443SOL    HW1 7351   1.939   2.417   2.442
 2443SOL    HW2 7352   1.983   2.559   2.509
 2444SOL     OW 7353   3.704   3.629   2.221
 2444SOL    HW1 7354   3.758   3.600   2.301
 2444SOL    HW2 7355   3.734   3.719   2.192
 2445SOL     OW 7356   1.889   3.458   1.979
 2445SOL    HW1 7357   1.870   3.362   2.000
 2445SOL    HW2 7358   1.856   3.516   2.054
 2446SOL     OW 7359   3.551   2.784   2.474
 2446SOL    HW1 7360   3.646   2.755   2.482
 2446SOL    HW2 7361   3.543   2.849   2.399
 2447SOL     OW 7362   3.503   2.970   2.294
 2447SOL    HW1 7363   3.589   2.972   2.242
 2447SOL    HW2 7364   3.517   3.017   2.382
 2448SOL     OW 7365   1.975   2.599   3.459
 2448SOL    HW1 7366   2.063   2.586   3.504
 2448SOL    HW2 7367   1.962   2.696   3.437
 2449SOL     OW 7368   2.475   3.227   2.588
 2449SOL    HW1 7369   2.426   3.140   2.597
 2449SOL    HW2 7370   2.452   3.270   2.501
 2450SOL     OW 7371   3.155   3.090   3.285
 2450SOL    HW1 7372   3.192   3.017   3.227
 2450SOL    HW2 7373   3.207   3.095   3.370
 2451SOL     OW 7374   2.671   1.866   2.364
 2451SOL    HW1 7375   2.711   1.957   2.355
 2451SOL    HW2 7376   2.571   1.874   2.370
 2452SOL     OW 7377   2.059   2.838   3.126
 2452SOL    HW1 7378   2.148   2.793   3.112
 2452SOL    HW2 7379   1.986   2.773   3.107
 2453SOL     OW 7380   3.387   2.861   2.052
 2453SOL    HW1 7381   3.324   2.785   2.065
 2453SOL    HW2 7382   3.435   2.879   2.138
 2454SOL     OW 7383   3.049   3.654   3.478
 2454SOL    HW1 7384   3.073   3.714   3.402
 2454SOL    HW2 7385   3.056   3.559   3.448
 2455SOL     OW 7386   2.179   2.113   3.663
 2455SOL    HW1 7387   2.250   2.184   3.669
 2455SOL    HW2 7388   2.091   2.152   3.691
 2456SOL     OW 7389   3.328   3.279   2.815
 2456SOL    HW1 7390   3.269   3.285   2.895
 2456SOL    HW2 7391   3.313   3.191   2.769
 2457SOL     OW 7392   3.529   3.576   2.434
 2457SOL    HW1 7393   3.488   3.553   2.346
 2457SOL    HW2 7394   3.511   3.502   2.499
 2458SOL     OW 7395   2.460   2.591   2.132
 2458SOL    HW1 7396   2.484   2.660   2.064
 2458SOL    HW2 7397   2.382   2.624   2.186
 2459SOL     OW 7398   3.143   2.207   2.806
 2459SOL    HW1 7399   3.057   2.157   2.793
 2459SOL    HW2 7400   3.205   2.153   2.862
 2460SOL     OW 7401   3.438   3.524   2.169
 2460SOL    HW1 7402   3.527   3.570   2.172
 2460SOL    HW2 7403   3.417   3.500   2.074
 2461SOL     OW 7404   2.669   2.467   3.327
 2461SOL    HW1 7405   2.622   2.464   3.416
 2461SOL    HW2 7406   2.618   2.412   3.261
 2462SOL     OW 7407   3.256   2.331   3.536
 2462SOL    HW1 7408   3.236   2.374   3.624
 2462SOL    HW2 7409   3.334   2.269   3.545
 2463SOL     OW 7410   2.835   2.752   3.434
 2463SOL    HW1 7411   2.881   2.668   3.405
 2463SOL    HW2 7412   2.779   2.786   3.359
 2464SOL     OW 7413   2.853   2.272   3.104
 2464SOL    HW1 7414   2.776   2.306   3.158
 2464SOL    HW2 7415   2.819   2.221   3.025
 2465SOL     OW 7416   1.938   2.673   2.651
 2465SOL    HW1 7417   2.037   2.661   2.660
 2465SOL    HW2 7418   1.914   2.768   2.672
 2466SOL     OW 7419   1.992   3.683   3.433
 2466SOL    HW1 7420   1.982   3.668   3.532
 2466SOL    HW2 7421   1.906   3.719   3.397
 2467SOL     OW 7422   2.727   2.210   2.057
 2467SOL    HW1 7423   2.786   2.273   2.008
 2467SOL    HW2 7424   2.746   2.116   2.028
 2468SOL     OW 7425   3.581   2.447   3.693
 2468SOL    HW1 7426   3.555   2.536   3.657
 2468SOL    HW2 7427   3.579   2.379   3.620
 2469SOL     OW 7428   3.224   3.006   2.407
 2469SOL    HW1 7429   3.307   2.977   2.359
 2469SOL    HW2 7430   3.175   3.073   2.351
 2470SOL     OW 7431   2.412   2.058   2.747
 2470SOL    HW1 7432   2.407   2.053   2.847
 2470SOL    HW2 7433   2.414   2.154   2.718
 2471SOL     OW 7434   2.870   3.318   2.339
 2471SOL    HW1 7435   2.824   3.390   2.287
 2471SOL    HW2 7436   2.866   3.338   2.437
 2472SOL     OW 7437   2.213   3.663   2.715
 2472SOL    HW1 7438   2.263   3.577   2.721
 2472SOL    HW2 7439   2.278   3.740   2.712
 2473SOL     OW 7440   3.657   2.928   2.735
 2473SOL    HW1 7441   3.595   2.913   2.659
 2473SOL    HW2 7442   3.605   2.939   2.820
 2474SOL     OW 7443   3.089   3.412   3.368
 2474SOL    HW1 7444   3.095   3.335   3.432
 2474SOL    HW2 7445   3.037   3.386   3.288
 2475SOL     OW 7446   2.183   2.805   2.104
 2475SOL    HW1 7447   2.265   2.844   2.062
 2475SOL    HW2 7448   2.156   2.723   2.055
 2476SOL     OW 7449   3.320   2.597   2.590
 2476SOL    HW1 7450   3.315   2.532   2.665
 2476SOL    HW2 7451   3.400   2.656   2.603
 2477SOL     OW 7452   2.323   3.128   3.589
 2477SOL    HW1 7453   2.273   3.129   3.503
 2477SOL    HW2 7454   2.260   3.110   3.665
 2478SOL     OW 7455   2.973   3.638   2.099
 2478SOL    HW1 7456   2.913   3.576   2.149
 2478SOL    HW2 7457   3.004   3.594   2.014
 2479SOL     OW 7458   2.064   2.147   3.360
 2479SOL    HW1 7459   1.984   2.207   3.347
 2479SOL    HW2 7460   2.054   2.098   3.446
 2480SOL     OW 7461   3.494   3.239   1.943
 2480SOL    HW1 7462   3.462   3.333   1.933
 2480SOL    HW2 7463   3.418   3.176   1.931
 2481SOL     OW 7464   2.326   3.605   2.185
 2481SOL    HW1 7465   2.359   3.644   2.271
 2481SOL    HW2 7466   2.402   3.598   2.120
 2482SOL     OW 7467   3.262   1.969   2.288
 2482SOL    HW1 7468   3.238   1.932   2.198
 2482SOL    HW2 7469   3.361   1.985   2.292
 2483SOL     OW 7470   2.111   3.647   3.103
 2483SOL    HW1 7471   2.168   3.582   3.153
 2483SOL    HW2 7472   2.095   3.614   3.010
 2484SOL     OW 7473   2.802   3.560   2.766
 2484SOL    HW1 7474   2.882   3.503   2.787
 2484SOL    HW2 7475   2.753   3.520   2.689
 2485SOL     OW 7476   2.244   2.562   2.342
 2485SOL    HW1 7477   2.289   2.472   2.339
 2485SOL    HW2 7478   2.150   2.551   2.375
 2486SOL     OW 7479   3.409   2.084   3.591
 2486SOL    HW1 7480   3.404   2.121   3.683
 2486SOL    HW2 7481   3.337   2.015   3.579
 2487SOL     OW 7482   2.476   1.984   1.979
 2487SOL    HW1 7483   2.574   1.962   1.986
 2487SOL    HW2 7484   2.445   1.967   1.886
 2488SOL     OW 7485   2.643   2.126   3.611
 2488SOL    HW1 7486   2.710   2.065   3.654
 2488SOL    HW2 7487   2.570   2.145   3.676
 2489SOL     OW 7488   2.750   3.376   3.057
 2489SOL    HW1 7489   2.727   3.351   2.963
 2489SOL    HW2 7490   2.811   3.307   3.096
 2490SOL     OW 7491   3.213   2.452   3.295
 2490SOL    HW1 7492   3.241   2.409   3.380
 2490SOL    HW2 7493   3.238   2.548   3.296
 2491SOL     OW 7494   2.665   3.264   2.786
 2491SOL    HW1 7495   2.755   3.278   2.744
 2491SOL    HW2 7496   2.594   3.266   2.715
 2492SOL     OW 7497   2.784   2.365   2.761
 2492SOL    HW1 7498   2.759   2.356   2.665
 2492SOL    HW2 7499   2.832   2.283   2.792
 2493SOL     OW 7500   2.401   1.926   2.374
 2493SOL    HW1 7501   2.320   1.927   2.432
 2493SOL    HW2 7502   2.404   2.009   2.319
 2494SOL     OW 7503   3.296   3.050   1.903
 2494SOL    HW1 7504   3.328   2.974   1.960
 2494SOL    HW2 7505   3.204   3.077   1.933
 2495SOL     OW 7506   2.159   1.897   2.033
 2495SOL    HW1 7507   2.208   1.981   2.012
 2495SOL    HW2 7508   2.221   1.832   2.078
 2496SOL     OW 7509   2.797   2.098   2.342
 2496SOL    HW1 7510   2.749   2.139   2.264
 2496SOL    HW2 7511   2.896   2.096   2.323
 2497SOL     OW 7512   2.938   2.545   3.326
 2497SOL    HW1 7513   2.858   2.484   3.329
 2497SOL    HW2 7514   3.019   2.492   3.302
 2498SOL     OW 7515   3.089   3.432   2.655
 2498SOL    HW1 7516   3.110   3.506   2.590
 2498SOL    HW2 7517   3.157   3.432   2.728
 2499SOL     OW 7518   2.321   3.014   2.603
 2499SOL    HW1 7519   2.250   2.987   2.668
 2499SOL    HW2 7520   2.295   2.986   2.510
 2500SOL     OW 7521   3.133   3.659   2.453
 2500SOL    HW1 7522   3.177   3.723   2.389
 2500SOL    HW2 7523   3.083   3.711   2.523
 2501SOL     OW 7524   2.894   2.411   1.878
 2501SOL    HW1 7525   2.853   2.493   1.839
 2501SOL    HW2 7526   2.958   2.437   1.951
 2502SOL     OW 7527   1.940   2.418   3.248
 2502SOL    HW1 7528   2.032   2.417   3.207
 2502SOL    HW2 7529   1.934   2.492   3.315
 2503SOL     OW 7530   2.423   2.084   3.009
 2503SOL    HW1 7531   2.461   2.000   3.046
 2503SOL    HW2 7532   2.335   2.103   3.053
 2504SOL     OW 7533   2.879   1.901   2.615
 2504SOL    HW1 7534   2.807   1.906   2.546
 2504SOL    HW2 7535   2.855   1.832   2.684
 2505SOL     OW 7536   3.291   3.035   2.729
 2505SOL    HW1 7537   3.236   2.951   2.722
 2505SOL    HW2 7538   3.317   3.064   2.637
 2506SOL     OW 7539   3.328   2.452   2.854
 2506SOL    HW1 7540   3.298   2.357   2.861
 2506SOL    HW2 7541   3.401   2.468   2.920
 2507SOL     OW 7542   3.719   2.695   2.239
 2507SOL    HW1 7543   3.761   2.631   2.303
 2507SOL    HW2 7544   3.681   2.644   2.161
 2508SOL     OW 7545   2.350   3.247   2.036
 2508SOL    HW1 7546   2.263   3.232   2.083
 2508SOL    HW2 7547   2.333   3.273   1.941
 2509SOL     OW 7548   3.526   3.142   2.519
 2509SOL    HW1 7549   3.625   3.150   2.533
 2509SOL    HW2 7550   3.481   3.226   2.550
 2510SOL     OW 7551   3.252   2.437   1.940
 2510SOL    HW1 7552   3.198   2.416   2.021
 2510SOL    HW2 7553   3.343   2.396   1.949
 2511SOL     OW 7554   2.389   2.118   2.190
 2511SOL    HW1 7555   2.416   2.059   2.115
 2511SOL    HW2 7556   2.389   2.213   2.159
 2512SOL     OW 7557   3.616   3.085   3.450
 2512SOL    HW1 7558   3.707   3.046   3.437
 2512SOL    HW2 7559   3.624   3.181   3.474
 2513SOL     OW 7560   2.926   3.209   3.202
 2513SOL    HW1 7561   2.846   3.186   3.257
 2513SOL    HW2 7562   3.009   3.183   3.251
 2514SOL     OW 7563   3.454   3.491   3.487
 2514SOL    HW1 7564   3.481   3.525   3.397
 2514SOL    HW2 7565   3.533   3.453   3.533
 2515SOL     OW 7566   2.973   3.057   2.962
 2515SOL    HW1 7567   2.933   3.101   3.043
 2515SOL    HW2 7568   2.932   3.094   2.879
 2516SOL     OW 7569   3.500   2.961   2.941
 2516SOL    HW1 7570   3.505   3.042   3.000
 2516SOL    HW2 7571   3.414   2.963   2.890
 2517SOL     OW 7572   2.777   1.951   3.264
 2517SOL    HW1 7573   2.802   1.931   3.169
 2517SOL    HW2 7574   2.849   2.007   3.306
 2518SOL     OW 7575   2.842   2.978   3.581
 2518SOL    HW1 7576   2.743   2.984   3.591
 2518SOL    HW2 7577   2.865   2.898   3.525
 2519SOL     OW 7578   2.567   2.912   2.230
 2519SOL    HW1 7579   2.553   2.919   2.329
 2519SOL    HW2 7580   2.651   2.861   2.212
 2520SOL     OW 7581   3.136   2.248   3.124
 2520SOL    HW1 7582   3.157   2.322   3.188
 2520SOL    HW2 7583   3.047   2.265   3.081
 2521SOL     OW 7584   1.926   3.426   3.193
 2521SOL    HW1 7585   1.880   3.508   3.159
 2521SOL    HW2 7586   2.024   3.445   3.202
 2522SOL     OW 7587   2.229   2.962   2.363
 2522SOL    HW1 7588   2.222   3.045   2.307
 2522SOL    HW2 7589   2.233   2.882   2.303
 2523SOL     OW 7590   3.114   3.210   2.250
 2523SOL    HW1 7591   3.164   3.287   2.290
 2523SOL    HW2 7592   3.019   3.212   2.282
 2524SOL     OW 7593   3.134   3.307   3.004
 2524SOL    HW1 7594   3.181   3.320   3.091
 2524SOL    HW2 7595   3.068   3.233   3.013
 2525SOL     OW 7596   3.444   2.501   2.334
 2525SOL    HW1 7597   3.413   2.562   2.407
 2525SOL    HW2 7598   3.494   2.553   2.265
 2526SOL     OW 7599   2.216   3.372   3.191
 2526SOL    HW1 7600   2.195   3.328   3.104
 2526SOL    HW2 7601   2.313   3.398   3.194
 2527SOL     OW 7602   2.264   2.613   3.460
 2527SOL    HW1 7603   2.332   2.668   3.413
 2527SOL    HW2 7604   2.304   2.525   3.487
 2528SOL     OW 7605   3.449   2.641   3.532
 2528SOL    HW1 7606   3.357   2.679   3.527
 2528SOL    HW2 7607   3.509   2.688   3.467
 2529SOL     OW 7608   2.875   1.967   3.632
 2529SOL    HW1 7609   2.881   2.052   3.580
 2529SOL    HW2 7610   2.907   1.891   3.575
 2530SOL     OW 7611   2.366   1.912   3.602
 2530SOL    HW1 7612   2.324   1.855   3.532
 2530SOL    HW2 7613   2.300   1.981   3.634
 2531SOL     OW 7614   3.222   2.724   2.907
 2531SOL    HW1 7615   3.147   2.724   2.841
 2531SOL    HW2 7616   3.259   2.632   2.916
 2532SOL     OW 7617   2.169   2.075   3.093
 2532SOL    HW1 7618   2.146   2.112   3.183
 2532SOL    HW2 7619   2.139   1.980   3.087
 2533SOL     OW 7620   1.899   3.172   3.144
 2533SOL    HW1 7621   1.952   3.123   3.212
 2533SOL    HW2 7622   1.921   3.270   3.149
 2534SOL     OW 7623   3.590   2.797   3.716
 2534SOL    HW1 7624   3.544   2.790   3.627
 2534SOL    HW2 7625   3.528   2.841   3.782
 2535SOL     OW 7626   2.169   1.925   2.480
 2535SOL    HW1 7627   2.158   2.019   2.513
 2535SOL    HW2 7628   2.164   1.862   2.557
 2536SOL     OW 7629   3.484   2.229   2.236
 2536SOL    HW1 7630   3.486   2.153   2.300
 2536SOL    HW2 7631   3.436   2.306   2.276
 2537SOL     OW 7632   2.885   2.628   2.828
 2537SOL    HW1 7633   2.900   2.649   2.924
 2537SOL    HW2 7634   2.855   2.533   2.819
 2538SOL     OW 7635   2.842   3.435   3.562
 2538SOL    HW1 7636   2.822   3.479   3.474
 2538SOL    HW2 7637   2.881   3.344   3.546
 2539SOL     OW 7638   3.721   3.380   3.467
 2539SOL    HW1 7639   3.735   3.407   3.372
 2539SOL    HW2 7640   3.804   3.402   3.520
 2540SOL     OW 7641   2.212   2.760   3.666
 2540SOL    HW1 7642   2.288   2.804   3.714
 2540SOL    HW2 7643   2.247   2.713   3.584
 2541SOL     OW 7644   3.402   2.136   1.987
 2541SOL    HW1 7645   3.341   2.061   2.010
 2541SOL    HW2 7646   3.424   2.188   2.070
 2542SOL     OW 7647   3.165   2.700   1.904
 2542SOL    HW1 7648   3.199   2.607   1.919
 2542SOL    HW2 7649   3.183   2.727   1.809
 2543SOL     OW 7650   2.930   3.195   2.711
 2543SOL    HW1 7651   2.937   3.111   2.656
 2543SOL    HW2 7652   2.992   3.264   2.675
 2544SOL     OW 7653   2.201   2.371   2.868
 2544SOL    HW1 7654   2.149   2.288   2.851
 2544SOL    HW2 7655   2.278   2.376   2.804
 2545SOL     OW 7656   3.000   2.242   3.540
 2545SOL    HW1 7657   2.955   2.305   3.604
 2545SOL    HW2 7658   3.093   2.273   3.523
 2546SOL     OW 7659   3.022   2.069   3.339
 2546SOL    HW1 7660   3.022   2.133   3.416
 2546SOL    HW2 7661   3.050   2.117   3.256
 2547SOL     OW 7662   1.870   3.188   2.062
 2547SOL    HW1 7663   1.777   3.209   2.031
 2547SOL    HW2 7664   1.880   3.089   2.075
 2548SOL     OW 7665   1.950   3.663   2.789
 2548SOL    HW1 7666   1.908   3.577   2.762
 2548SOL    HW2 7667   2.044   3.666   2.755
 2549SOL     OW 7668   2.366   3.430   2.772
 2549SOL    HW1 7669   2.432   3.504   2.781
 2549SOL    HW2 7670   2.410   3.351   2.730
 2550SOL     OW 7671   2.864   2.658   3.100
 2550SOL    HW1 7672   2.905   2.626   3.186
 2550SOL    HW2 7673   2.768   2.631   3.097
 2551SOL     OW 7674   1.902   2.406   2.976
 2551SOL    HW1 7675   1.987   2.373   2.935
 2551SOL    HW2 7676   1.915   2.421   3.074
 2552SOL     OW 7677   2.051   2.382   3.584
 2552SOL    HW1 7678   2.110   2.342   3.514
 2552SOL    HW2 7679   1.993   2.453   3.543
 2553SOL     OW 7680   3.231   2.812   3.522
 2553SOL    HW1 7681   3.270   2.901   3.542
 2553SOL    HW2 7682   3.241   2.792   3.425
 2554SOL     OW 7683   3.519   2.466   3.068
 2554SOL    HW1 7684   3.481   2.397   3.130
 2554SOL    HW2 7685   3.601   2.430   3.024
 2555SOL     OW 7686   2.114   3.426   3.606
 2555SOL    HW1 7687   2.084   3.483   3.682
 2555SOL    HW2 7688   2.107   3.329   3.632
 2556SOL     OW 7689   2.533   2.326   3.131
 2556SOL    HW1 7690   2.499   2.237   3.101
 2556SOL    HW2 7691   2.559   2.380   3.051
 2557SOL     OW 7692   2.792   3.540   3.327
 2557SOL    HW1 7693   2.768   3.522   3.232
 2557SOL    HW2 7694   2.822   3.634   3.337
 2558SOL     OW 7695   2.335   2.362   2.053
 2558SOL    HW1 7696   2.396   2.442   2.057
 2558SOL    HW2 7697   2.240   2.393   2.060
 2559SOL     OW 7698   2.021   2.999   3.328
 2559SOL    HW1 7699   2.043   2.938   3.404
 2559SOL    HW2 7700   2.031   2.950   3.242
 2560SOL     OW 7701   3.209   2.921   3.096
 2560SOL    HW1 7702   3.233   2.858   3.022
 2560SOL    HW2 7703   3.119   2.961   3.078
 2561SOL     OW 7704   3.164   2.717   2.171
 2561SOL    HW1 7705   3.078   2.686   2.213
 2561SOL    HW2 7706   3.160   2.703   2.072
 2562SOL     OW 7707   3.621   3.609   3.016
 2562SOL    HW1 7708   3.682   3.639   2.943
 2562SOL    HW2 7709   3.583   3.520   2.994
 2563SOL     OW 7710   3.114   3.593   2.990
 2563SOL    HW1 7711   3.198   3.598   2.936
 2563SOL    HW2 7712   3.091   3.497   3.008
 2564SOL     OW 7713   1.945   3.120   2.884
 2564SOL    HW1 7714   1.940   3.119   2.984
 2564SOL    HW2 7715   1.862   3.079   2.846
 2565SOL     OW 7716   2.550   3.524   3.578
 2565SOL    HW1 7717   2.494   3.605   3.587
 2565SOL    HW2 7718   2.602   3.528   3.492
 2566SOL     OW 7719   3.588   1.997   2.385
 2566SOL    HW1 7720   3.661   1.980   2.318
 2566SOL    HW2 7721   3.557   1.910   2.423
 2567SOL     OW 7722   3.250   3.435   2.339
 2567SOL    HW1 7723   3.317   3.447   2.265
 2567SOL    HW2 7724   3.210   3.524   2.362
 2568SOL     OW 7725   1.992   3.656   3.713
 2568SOL    HW1 7726   1.951   3.582   3.766
 2568SOL    HW2 7727   2.056   3.707   3.771
 2569SOL     OW 7728   3.142   2.789   2.534
 2569SOL    HW1 7729   3.202   2.708   2.536
 2569SOL    HW2 7730   3.182   2.858   2.474
 2570SOL     OW 7731   2.692   3.135   3.284
 2570SOL    HW1 7732   2.687   3.168   3.379
 2570SOL    HW2 7733   2.606   3.154   3.238
 2571SOL     OW 7734   2.534   3.478   2.016
 2571SOL    HW1 7735   2.543   3.488   1.917
 2571SOL    HW2 7736   2.494   3.389   2.037
 2572SOL     OW 7737   3.512   3.582   3.256
 2572SOL    HW1 7738   3.565   3.592   3.172
 2572SOL    HW2 7739   3.485   3.672   3.290
 2573SOL     OW 7740   3.703   2.037   2.825
 2573SOL    HW1 7741   3.742   1.952   2.789
 2573SOL    HW2 7742   3.605   2.039   2.806
 2574SOL     OW 7743   2.125   2.188   2.582
 2574SOL    HW1 7744   2.046   2.239   2.548
 2574SOL    HW2 7745   2.116   2.173   2.680
 2575SOL     OW 7746   3.056   3.474   1.893
 2575SOL    HW1 7747   3.062   3.381   1.930
 2575SOL    HW2 7748   2.997   3.474   1.813
 2576SOL     OW 7749   2.684   2.864   3.234
 2576SOL    HW1 7750   2.724   2.863   3.142
 2576SOL    HW2 7751   2.694   2.956   3.274
 2577SOL     OW 7752   3.366   3.469   1.906
 2577SOL    HW1 7753   3.274   3.506   1.913
 2577SOL    HW2 7754   3.404   3.489   1.816
 2578SOL     OW 7755   2.234   3.150   3.352
 2578SOL    HW1 7756   2.221   3.243   3.318
 2578SOL    HW2 7757   2.150   3.098   3.339
 2579SOL     OW 7758   3.476   3.154   3.151
 2579SOL    HW1 7759   3.536   3.157   3.231
 2579SOL    HW2 7760   3.401   3.218   3.164
 2580SOL     OW 7761   2.901   2.960   2.558
 2580SOL    HW1 7762   2.831   2.913   2.612
 2580SOL    HW2 7763   2.960   2.892   2.515
 2581SOL     OW 7764   2.876   2.098   2.833
 2581SOL    HW1 7765   2.868   2.062   2.740
 2581SOL    HW2 7766   2.874   2.022   2.898
 2582SOL     OW 7767   2.452   3.349   2.353
 2582SOL    HW1 7768   2.494   3.291   2.283
 2582SOL    HW2 7769   2.408   3.428   2.309
 2583SOL     OW 7770   3.571   2.247   3.243
 2583SOL    HW1 7771   3.644   2.316   3.247
 2583SOL    HW2 7772   3.599   2.172   3.184
 2584SOL     OW 7773   2.117   3.210   2.152
 2584SOL    HW1 7774   2.021   3.211   2.125
 2584SOL    HW2 7775   2.129   3.263   2.236
 2585SOL     OW 7776   1.967   2.875   3.588
 2585SOL    HW1 7777   1.890   2.842   3.642
 2585SOL    HW2 7778   2.052   2.845   3.630
 2586SOL     OW 7779   2.534   2.065   3.351
 2586SOL    HW1 7780   2.624   2.049   3.311
 2586SOL    HW2 7781   2.542   2.070   3.450
 2587SOL     OW 7782   1.937   2.207   1.895
 2587SOL    HW1 7783   1.845   2.179   1.866
 2587SOL    HW2 7784   1.968   2.284   1.839
 2588SOL     OW 7785   3.302   2.718   3.260
 2588SOL    HW1 7786   3.245   2.770   3.197
 2588SOL    HW2 7787   3.398   2.730   3.236
 2589SOL     OW 7788   1.934   2.028   2.180
 2589SOL    HW1 7789   1.917   2.111   2.126
 2589SOL    HW2 7790   2.024   1.991   2.158
 2590SOL     OW 7791   3.045   3.197   1.981
 2590SOL    HW1 7792   2.946   3.186   1.983
 2590SOL    HW2 7793   3.079   3.212   2.074
 2591SOL     OW 7794   2.475   2.704   3.293
 2591SOL    HW1 7795   2.531   2.785   3.276
 2591SOL    HW2 7796   2.534   2.624   3.296
 2592SOL     OW 7797   3.355   3.629   2.821
 2592SOL    HW1 7798   3.388   3.693   2.752
 2592SOL    HW2 7799   3.421   3.623   2.896
 2593SOL     OW 7800   2.578   2.427   3.570
 2593SOL    HW1 7801   2.597   2.492   3.644
 2593SOL    HW2 7802   2.638   2.347   3.579
 2594SOL     OW 7803   3.312   3.082   3.495
 2594SOL    HW1 7804   3.303   3.072   3.594
 2594SOL    HW2 7805   3.408   3.075   3.469
 2595SOL     OW 7806   2.252   3.603   3.422
 2595SOL    HW1 7807   2.161   3.644   3.420
 2595SOL    HW2 7808   2.245   3.509   3.454
 2596SOL     OW 7809   3.536   2.745   3.116
 2596SOL    HW1 7810   3.509   2.656   3.079
 2596SOL    HW2 7811   3.537   2.813   3.043
 2597SOL     OW 7812   3.087   2.187   2.311
 2597SOL    HW1 7813   3.152   2.113   2.300
 2597SOL    HW2 7814   3.107   2.237   2.395
 2598SOL     OW 7815   3.639   2.204   3.504
 2598SOL    HW1 7816   3.622   2.235   3.410
 2598SOL    HW2 7817   3.555   2.167   3.542
 2599SOL     OW 7818   3.592   2.796   3.379
 2599SOL    HW1 7819   3.630   2.887   3.394
 2599SOL    HW2 7820   3.584   2.779   3.280
 2600SOL     OW 7821   2.721   3.236   1.878
 2600SOL    HW1 7822   2.675   3.251   1.966
 2600SOL    HW2 7823   2.765   3.321   1.848
 2601SOL     OW 7824   2.523   3.652   2.815
 2601SOL    HW1 7825   2.477   3.740   2.802
 2601SOL    HW2 7826   2.622   3.664   2.808
 2602SOL     OW 7827   2.721   2.818   2.723
 2602SOL    HW1 7828   2.775   2.749   2.771
 2602SOL    HW2 7829   2.689   2.887   2.789
 2603SOL     OW 7830   2.945   2.846   1.949
 2603SOL    HW1 7831   2.922   2.899   1.867
 2603SOL    HW2 7832   3.026   2.790   1.930
 2604SOL     OW 7833   3.723   3.431   2.713
 2604SOL    HW1 7834   3.652   3.419   2.643
 2604SOL    HW2 7835   3.724   3.352   2.773
 2605SOL     OW 7836   2.083   3.176   3.706
 2605SOL    HW1 7837   2.018   3.103   3.685
 2605SOL    HW2 7838   2.087   3.190   3.804
 2606SOL     OW 7839   1.941   3.102   2.515
 2606SOL    HW1 7840   1.940   3.055   2.603
 2606SOL    HW2 7841   2.023   3.074   2.464
 2607SOL     OW 7842   2.534   3.253   3.486
 2607SOL    HW1 7843   2.456   3.203   3.524
 2607SOL    HW2 7844   2.531   3.348   3.517
 2608SOL     OW 7845   3.686   2.054   3.089
 2608SOL    HW1 7846   3.682   1.964   3.133
 2608SOL    HW2 7847   3.689   2.043   2.990
 2609SOL     OW 7848   2.290   2.286   2.382
 2609SOL    HW1 7849   2.320   2.214   2.320
 2609SOL    HW2 7850   2.251   2.246   2.465
 2610SOL     OW 7851   3.567   3.349   2.966
 2610SOL    HW1 7852   3.474   3.324   2.939
 2610SOL    HW2 7853   3.593   3.299   3.048
 2611SOL     OW 7854   2.179   2.409   3.142
 2611SOL    HW1 7855   2.217   2.350   3.214
 2611SOL    HW2 7856   2.219   2.383   3.054
 2612SOL     OW 7857   2.674   3.448   2.549
 2612SOL    HW1 7858   2.706   3.458   2.455
 2612SOL    HW2 7859   2.595   3.386   2.551
 2613SOL     OW 7860   3.286   2.076   2.974
 2613SOL    HW1 7861   3.338   2.011   3.029
 2613SOL    HW2 7862   3.237   2.139   3.035
 2614SOL     OW 7863   2.863   1.896   3.016
 2614SOL    HW1 7864   2.800   1.824   2.985
 2614SOL    HW2 7865   2.956   1.860   3.016
 2615SOL     OW 7866   2.632   3.192   2.163
 2615SOL    HW1 7867   2.586   3.105   2.180
 2615SOL    HW2 7868   2.723   3.189   2.204
 2616SOL     OW 7869   2.480   3.429   3.146
 2616SOL    HW1 7870   2.475   3.511   3.203
 2616SOL    HW2 7871   2.569   3.426   3.101
 2617SOL     OW 7872   3.214   1.914   2.030
 2617SOL    HW1 7873   3.249   1.873   1.946
 2617SOL    HW2 7874   3.124   1.876   2.050
 2618SOL     OW 7875   3.162   2.315   2.553
 2618SOL    HW1 7876   3.103   2.395   2.557
 2618SOL    HW2 7877   3.177   2.280   2.646
 2619SOL     OW 7878   3.455   2.083   2.744
 2619SOL    HW1 7879   3.371   2.082   2.798
 2619SOL    HW2 7880   3.457   2.166   2.688
 2620SOL     OW 7881   1.901   2.939   2.162
 2620SOL    HW1 7882   2.000   2.928   2.153
 2620SOL    HW2 7883   1.861   2.853   2.194
 2621SOL     OW 7884   2.737   3.508   2.199
 2621SOL    HW1 7885   2.660   3.473   2.145
 2621SOL    HW2 7886   2.705   3.579   2.261
 2622SOL     OW 7887   2.092   2.490   3.837
 2622SOL    HW1 7888   1.999   2.488   3.874
 2622SOL    HW2 7889   2.093   2.451   3.745
 2623SOL     OW 7890   2.087   2.137   4.720
 2623SOL    HW1 7891   2.122   2.120   4.812
 2623SOL    HW2 7892   1.999   2.092   4.708
 2624SOL     OW 7893   1.881   2.230   4.371
 2624SOL    HW1 7894   1.799   2.273   4.410
 2624SOL    HW2 7895   1.853   2.157   4.308
 2625SOL     OW 7896   2.431   3.137   4.889
 2625SOL    HW1 7897   2.338   3.130   4.852
 2625SOL    HW2 7898   2.442   3.226   4.933
 2626SOL     OW 7899   3.417   3.373   4.427
 2626SOL    HW1 7900   3.360   3.357   4.508
 2626SOL    HW2 7901   3.358   3.383   4.347
 2627SOL     OW 7902   2.997   2.565   4.441
 2627SOL    HW1 7903   3.054   2.643   4.416
 2627SOL    HW2 7904   2.937   2.591   4.517
 2628SOL     OW 7905   3.617   2.469   3.955
 2628SOL    HW1 7906   3.605   2.456   3.856
 2628SOL    HW2 7907   3.587   2.388   4.004
 2629SOL     OW 7908   2.630   3.006   4.747
 2629SOL    HW1 7909   2.552   3.023   4.807
 2629SOL    HW2 7910   2.664   3.093   4.711
 2630SOL     OW 7911   2.547   2.874   4.389
 2630SOL    HW1 7912   2.616   2.858   4.459
 2630SOL    HW2 7913   2.474   2.931   4.427
 2631SOL     OW 7914   2.197   3.297   4.785
 2631SOL    HW1 7915   2.119   3.266   4.732
 2631SOL    HW2 7916   2.255   3.355   4.728
 2632SOL     OW 7917   3.465   2.309   4.461
 2632SOL    HW1 7918   3.391   2.355   4.411
 2632SOL    HW2 7919   3.516   2.377   4.514
 2633SOL     OW 7920   2.093   3.575   4.207
 2633SOL    HW1 7921   2.127   3.652   4.261
 2633SOL    HW2 7922   2.137   3.575   4.117
 2634SOL     OW 7923   2.092   3.296   4.262
 2634SOL    HW1 7924   2.066   3.392   4.262
 2634SOL    HW2 7925   2.021   3.242   4.307
 2635SOL     OW 7926   2.102   2.953   4.610
 2635SOL    HW1 7927   2.116   2.869   4.662
 2635SOL    HW2 7928   2.047   3.017   4.665
 2636SOL     OW 7929   2.482   3.648   5.163
 2636SOL    HW1 7930   2.390   3.631   5.198
 2636SOL    HW2 7931   2.510   3.740   5.189
 2637SOL     OW 7932   2.468   2.826   3.847
 2637SOL    HW1 7933   2.475   2.910   3.793
 2637SOL    HW2 7934   2.514   2.839   3.935
 2638SOL     OW 7935   1.984   2.505   4.287
 2638SOL    HW1 7936   1.939   2.417   4.304
 2638SOL    HW2 7937   1.983   2.559   4.371
 2639SOL     OW 7938   3.704   3.629   4.083
 2639SOL    HW1 7939   3.758   3.600   4.163
 2639SOL    HW2 7940   3.734   3.719   4.054
 2640SOL     OW 7941   1.889   3.458   3.841
 2640SOL    HW1 7942   1.870   3.362   3.862
 2640SOL    HW2 7943   1.856   3.516   3.916
 2641SOL     OW 7944   3.551   2.784   4.336
 2641SOL    HW1 7945   3.646   2.755   4.344
 2641SOL    HW2 7946   3.543   2.849   4.261
 2642SOL     OW 7947   3.503   2.970   4.156
 2642SOL    HW1 7948   3.589   2.972   4.104
 2642SOL    HW2 7949   3.517   3.017   4.244
 2643SOL     OW 7950   2.475   3.227   4.450
 2643SOL    HW1 7951   2.426   3.140   4.459
 2643SOL    HW2 7952   2.452   3.270   4.363
 2644SOL     OW 7953   2.671   1.866   4.226
 2644SOL    HW1 7954   2.711   1.957   4.217
 2644SOL    HW2 7955   2.571   1.874   4.232
 2645SOL     OW 7956   2.059   2.838   4.988
 2645SOL    HW1 7957   2.148   2.793   4.974
 2645SOL    HW2 7958   1.986   2.773   4.969
 2646SOL     OW 7959   3.387   2.861   3.914
 2646SOL    HW1 7960   3.324   2.785   3.927
 2646SOL    HW2 7961   3.435   2.879   4.000
 2647SOL     OW 7962   3.328   3.279   4.677
 2647SOL    HW1 7963   3.269   3.285   4.757
 2647SOL    HW2 7964   3.313   3.191   4.631
 2648SOL     OW 7965   3.529   3.576   4.296
 2648SOL    HW1 7966   3.488   3.553   4.208
 2648SOL    HW2 7967   3.511   3.502   4.361
 2649SOL     OW 7968   2.460   2.591   3.994
 2649SOL    HW1 7969   2.484   2.660   3.926
 2649SOL    HW2 7970   2.382   2.624   4.048
 2650SOL     OW 7971   3.143   2.207   4.668
 2650SOL    HW1 7972   3.057   2.157   4.655
 2650SOL    HW2 7973   3.205   2.153   4.724
 2651SOL     OW 7974   3.438   3.524   4.031
 2651SOL    HW1 7975   3.527   3.570   4.034
 2651SOL    HW2 7976   3.417   3.500   3.936
 2652SOL     OW 7977   2.669   2.467   5.189
 2652SOL    HW1 7978   2.622   2.464   5.278
 2652SOL    HW2 7979   2.618   2.412   5.123
 2653SOL     OW 7980   2.853   2.272   4.966
 2653SOL    HW1 7981   2.776   2.306   5.020
 2653SOL    HW2 7982   2.819   2.221   4.887
 2654SOL     OW 7983   2.903   2.563   4.153
 2654SOL    HW1 7984   2.929   2.559   4.249
 2654SOL    HW2 7985   2.818   2.512   4.139
 2655SOL     OW 7986   1.938   2.673   4.513
 2655SOL    HW1 7987   2.037   2.661   4.522
 2655SOL    HW2 7988   1.914   2.768   4.534
 2656SOL     OW 7989   1.992   3.683   5.295
 2656SOL    HW1 7990   1.982   3.668   5.394
 2656SOL    HW2 7991   1.906   3.719   5.259
 2657SOL     OW 7992   2.727   2.210   3.919
 2657SOL    HW1 7993   2.786   2.273   3.870
 2657SOL    HW2 7994   2.746   2.116   3.890
 2658SOL     OW 7995   3.224   3.006   4.269
 2658SOL    HW1 7996   3.307   2.977   4.221
 2658SOL    HW2 7997   3.175   3.073   4.213
 2659SOL     OW 7998   2.412   2.058   4.609
 2659SOL    HW1 7999   2.407   2.053   4.709
 2659SOL    HW2 8000   2.414   2.154   4.580
 2660SOL     OW 8001   2.870   3.318   4.201
 2660SOL    HW1 8002   2.824   3.390   4.149
 2660SOL    HW2 8003   2.866   3.338   4.299
 2661SOL     OW 8004   2.213   3.663   4.577
 2661SOL    HW1 8005   2.263   3.577   4.583
 2661SOL    HW2 8006   2.278   3.740   4.574
 2662SOL     OW 8007   3.657   2.928   4.597
 2662SOL    HW1 8008   3.595   2.913   4.521
 2662SOL    HW2 8009   3.605   2.939   4.682
 2663SOL     OW 8010   2.183   2.805   3.966
 2663SOL    HW1 8011   2.265   2.844   3.924
 2663SOL    HW2 8012   2.156   2.723   3.917
 2664SOL     OW 8013   3.320   2.597   4.452
 2664SOL    HW1 8014   3.315   2.532   4.527
 2664SOL    HW2 8015   3.400   2.656   4.465
 2665SOL     OW 8016   2.973   3.638   3.961
 2665SOL    HW1 8017   2.913   3.576   4.011
 2665SOL    HW2 8018   3.004   3.594   3.876
 2666SOL     OW 8019   3.494   3.239   3.805
 2666SOL    HW1 8020   3.462   3.333   3.795
 2666SOL    HW2 8021   3.418   3.176   3.793
 2667SOL     OW 8022   2.326   3.605   4.047
 2667SOL    HW1 8023   2.359   3.644   4.133
 2667SOL    HW2 8024   2.402   3.598   3.982
 2668SOL     OW 8025   3.262   1.969   4.150
 2668SOL    HW1 8026   3.238   1.932   4.060
 2668SOL    HW2 8027   3.361   1.985   4.154
 2669SOL     OW 8028   2.111   3.647   4.965
 2669SOL    HW1 8029   2.168   3.582   5.015
 2669SOL    HW2 8030   2.095   3.614   4.872
 2670SOL     OW 8031   2.802   3.560   4.628
 2670SOL    HW1 8032   2.882   3.503   4.649
 2670SOL    HW2 8033   2.753   3.520   4.551
 2671SOL     OW 8034   2.244   2.562   4.204
 2671SOL    HW1 8035   2.289   2.472   4.201
 2671SOL    HW2 8036   2.150   2.551   4.237
 2672SOL     OW 8037   2.476   1.984   3.841
 2672SOL    HW1 8038   2.574   1.962   3.848
 2672SOL    HW2 8039   2.445   1.967   3.748
 2673SOL     OW 8040   2.750   3.376   4.919
 2673SOL    HW1 8041   2.727   3.351   4.825
 2673SOL    HW2 8042   2.811   3.307   4.958
 2674SOL     OW 8043   2.665   3.264   4.648
 2674SOL    HW1 8044   2.755   3.278   4.606
 2674SOL    HW2 8045   2.594   3.266   4.577
 2675SOL     OW 8046   2.784   2.365   4.623
 2675SOL    HW1 8047   2.759   2.356   4.527
 2675SOL    HW2 8048   2.832   2.283   4.654
 2676SOL     OW 8049   2.401   1.926   4.236
 2676SOL    HW1 8050   2.320   1.927   4.294
 2676SOL    HW2 8051   2.404   2.009   4.181
 2677SOL     OW 8052   3.296   3.050   3.765
 2677SOL    HW1 8053   3.328   2.974   3.822
 2677SOL    HW2 8054   3.204   3.077   3.795
 2678SOL     OW 8055   2.159   1.897   3.895
 2678SOL    HW1 8056   2.208   1.981   3.874
 2678SOL    HW2 8057   2.221   1.832   3.940
 2679SOL     OW 8058   2.797   2.098   4.204
 2679SOL    HW1 8059   2.749   2.139   4.126
 2679SOL    HW2 8060   2.896   2.096   4.185
 2680SOL     OW 8061   3.089   3.432   4.517
 2680SOL    HW1 8062   3.110   3.506   4.452
 2680SOL    HW2 8063   3.157   3.432   4.590
 2681SOL     OW 8064   2.321   3.014   4.465
 2681SOL    HW1 8065   2.250   2.987   4.530
 2681SOL    HW2 8066   2.295   2.986   4.372
 2682SOL     OW 8067   3.133   3.659   4.315
 2682SOL    HW1 8068   3.177   3.723   4.251
 2682SOL    HW2 8069   3.083   3.711   4.385
 2683SOL     OW 8070   2.894   2.411   3.740
 2683SOL    HW1 8071   2.853   2.493   3.701
 2683SOL    HW2 8072   2.958   2.437   3.813
 2684SOL     OW 8073   2.423   2.084   4.871
 2684SOL    HW1 8074   2.461   2.000   4.908
 2684SOL    HW2 8075   2.335   2.103   4.915
 2685SOL     OW 8076   2.728   2.316   4.366
 2685SOL    HW1 8077   2.696   2.388   4.304
 2685SOL    HW2 8078   2.752   2.235   4.313
 2686SOL     OW 8079   2.879   1.901   4.477
 2686SOL    HW1 8080   2.807   1.906   4.408
 2686SOL    HW2 8081   2.855   1.832   4.546
 2687SOL     OW 8082   3.291   3.035   4.591
 2687SOL    HW1 8083   3.236   2.951   4.584
 2687SOL    HW2 8084   3.317   3.064   4.499
 2688SOL     OW 8085   3.328   2.452   4.716
 2688SOL    HW1 8086   3.298   2.357   4.723
 2688SOL    HW2 8087   3.401   2.468   4.782
 2689SOL     OW 8088   3.719   2.695   4.101
 2689SOL    HW1 8089   3.761   2.631   4.165
 2689SOL    HW2 8090   3.681   2.644   4.023
 2690SOL     OW 8091   2.350   3.247   3.898
 2690SOL    HW1 8092   2.263   3.232   3.945
 2690SOL    HW2 8093   2.333   3.273   3.803
 2691SOL     OW 8094   3.526   3.142   4.381
 2691SOL    HW1 8095   3.625   3.150   4.395
 2691SOL    HW2 8096   3.481   3.226   4.412
 2692SOL     OW 8097   3.252   2.437   3.802
 2692SOL    HW1 8098   3.198   2.416   3.883
 2692SOL    HW2 8099   3.343   2.396   3.811
 2693SOL     OW 8100   2.389   2.118   4.052
 2693SOL    HW1 8101   2.416   2.059   3.977
 2693SOL    HW2 8102   2.389   2.213   4.021
 2694SOL     OW 8103   3.616   3.085   5.312
 2694SOL    HW1 8104   3.707   3.046   5.299
 2694SOL    HW2 8105   3.624   3.181   5.336
 2695SOL     OW 8106   2.973   3.057   4.824
 2695SOL    HW1 8107   2.933   3.101   4.905
 2695SOL    HW2 8108   2.932   3.094   4.741
 2696SOL     OW 8109   3.500   2.961   4.803
 2696SOL    HW1 8110   3.505   3.042   4.862
 2696SOL    HW2 8111   3.414   2.963   4.752
 2697SOL     OW 8112   2.567   2.912   4.092
 2697SOL    HW1 8113   2.553   2.919   4.191
 2697SOL    HW2 8114   2.651   2.861   4.074
 2698SOL     OW 8115   2.272   2.675   4.975
 2698SOL    HW1 8116   2.358   2.687   5.025
 2698SOL    HW2 8117   2.230   2.588   5.002
 2699SOL     OW 8118   3.136   2.248   4.986
 2699SOL    HW1 8119   3.157   2.322   5.050
 2699SOL    HW2 8120   3.047   2.265   4.943
 2700SOL     OW 8121   1.926   3.426   5.055
 2700SOL    HW1 8122   1.880   3.508   5.021
 2700SOL    HW2 8123   2.024   3.445   5.064
 2701SOL     OW 8124   2.229   2.962   4.225
 2701SOL    HW1 8125   2.222   3.045   4.169
 2701SOL    HW2 8126   2.233   2.882   4.165
 2702SOL     OW 8127   2.428   2.399   4.589
 2702SOL    HW1 8128   2.440   2.465   4.515
 2702SOL    HW2 8129   2.474   2.433   4.672
 2703SOL     OW 8130   3.114   3.210   4.112
 2703SOL    HW1 8131   3.164   3.287   4.152
 2703SOL    HW2 8132   3.019   3.212   4.144
 2704SOL     OW 8133   3.134   3.307   4.866
 2704SOL    HW1 8134   3.181   3.320   4.953
 2704SOL    HW2 8135   3.068   3.233   4.875
 2705SOL     OW 8136   3.444   2.501   4.196
 2705SOL    HW1 8137   3.413   2.562   4.269
 2705SOL    HW2 8138   3.494   2.553   4.127
 2706SOL     OW 8139   2.216   3.372   5.053
 2706SOL    HW1 8140   2.195   3.328   4.966
 2706SOL    HW2 8141   2.313   3.398   5.056
 2707SOL     OW 8142   2.435   2.732   4.753
 2707SOL    HW1 8143   2.479   2.821   4.744
 2707SOL    HW2 8144   2.372   2.732   4.830
 2708SOL     OW 8145   3.222   2.724   4.769
 2708SOL    HW1 8146   3.147   2.724   4.703
 2708SOL    HW2 8147   3.259   2.632   4.778
 2709SOL     OW 8148   3.071   2.387   3.999
 2709SOL    HW1 8149   3.084   2.303   4.053
 2709SOL    HW2 8150   3.042   2.461   4.059
 2710SOL     OW 8151   2.169   2.075   4.955
 2710SOL    HW1 8152   2.146   2.112   5.045
 2710SOL    HW2 8153   2.139   1.980   4.949
 2711SOL     OW 8154   1.899   3.172   5.006
 2711SOL    HW1 8155   1.952   3.123   5.074
 2711SOL    HW2 8156   1.921   3.270   5.011
 2712SOL     OW 8157   2.594   2.496   4.788
 2712SOL    HW1 8158   2.653   2.470   4.712
 2712SOL    HW2 8159   2.566   2.592   4.777
 2713SOL     OW 8160   2.169   1.925   4.342
 2713SOL    HW1 8161   2.158   2.019   4.375
 2713SOL    HW2 8162   2.164   1.862   4.419
 2714SOL     OW 8163   3.484   2.229   4.098
 2714SOL    HW1 8164   3.486   2.153   4.162
 2714SOL    HW2 8165   3.436   2.306   4.138
 2715SOL     OW 8166   2.885   2.628   4.690
 2715SOL    HW1 8167   2.900   2.649   4.786
 2715SOL    HW2 8168   2.855   2.533   4.681
 2716SOL     OW 8169   3.402   2.136   3.849
 2716SOL    HW1 8170   3.341   2.061   3.872
 2716SOL    HW2 8171   3.424   2.188   3.932
 2717SOL     OW 8172   3.165   2.700   3.766
 2717SOL    HW1 8173   3.199   2.607   3.781
 2717SOL    HW2 8174   3.183   2.727   3.671
 2718SOL     OW 8175   2.930   3.195   4.573
 2718SOL    HW1 8176   2.937   3.111   4.518
 2718SOL    HW2 8177   2.992   3.264   4.537
 2719SOL     OW 8178   2.181   2.672   4.673
 2719SOL    HW1 8179   2.274   2.708   4.678
 2719SOL    HW2 8180   2.175   2.587   4.725
 2720SOL     OW 8181   2.201   2.371   4.730
 2720SOL    HW1 8182   2.149   2.288   4.713
 2720SOL    HW2 8183   2.278   2.376   4.666
 2721SOL     OW 8184   3.022   2.069   5.201
 2721SOL    HW1 8185   3.022   2.133   5.278
 2721SOL    HW2 8186   3.050   2.117   5.118
 2722SOL     OW 8187   1.870   3.188   3.924
 2722SOL    HW1 8188   1.777   3.209   3.893
 2722SOL    HW2 8189   1.880   3.089   3.937
 2723SOL     OW 8190   1.950   3.663   4.651
 2723SOL    HW1 8191   1.908   3.577   4.624
 2723SOL    HW2 8192   2.044   3.666   4.617
 2724SOL     OW 8193   2.366   3.430   4.634
 2724SOL    HW1 8194   2.432   3.504   4.643
 2724SOL    HW2 8195   2.410   3.351   4.592
 2725SOL     OW 8196   2.864   2.658   4.962
 2725SOL    HW1 8197   2.905   2.626   5.048
 2725SOL    HW2 8198   2.768   2.631   4.959
 2726SOL     OW 8199   1.902   2.406   4.838
 2726SOL    HW1 8200   1.987   2.373   4.797
 2726SOL    HW2 8201   1.915   2.421   4.936
 2727SOL     OW 8202   2.677   2.434   4.049
 2727SOL    HW1 8203   2.684   2.345   4.003
 2727SOL    HW2 8204   2.583   2.468   4.041
 2728SOL     OW 8205   3.519   2.466   4.930
 2728SOL    HW1 8206   3.481   2.397   4.992
 2728SOL    HW2 8207   3.601   2.430   4.886
 2729SOL     OW 8208   2.533   2.326   4.993
 2729SOL    HW1 8209   2.499   2.237   4.963
 2729SOL    HW2 8210   2.559   2.380   4.913
 2730SOL     OW 8211   2.792   3.540   5.189
 2730SOL    HW1 8212   2.768   3.522   5.094
 2730SOL    HW2 8213   2.822   3.634   5.199
 2731SOL     OW 8214   2.335   2.362   3.915
 2731SOL    HW1 8215   2.396   2.442   3.919
 2731SOL    HW2 8216   2.240   2.393   3.922
 2732SOL     OW 8217   2.021   2.999   5.190
 2732SOL    HW1 8218   2.043   2.938   5.266
 2732SOL    HW2 8219   2.031   2.950   5.104
 2733SOL     OW 8220   3.209   2.921   4.958
 2733SOL    HW1 8221   3.233   2.858   4.884
 2733SOL    HW2 8222   3.119   2.961   4.940
 2734SOL     OW 8223   3.164   2.717   4.033
 2734SOL    HW1 8224   3.078   2.686   4.075
 2734SOL    HW2 8225   3.160   2.703   3.934
 2735SOL     OW 8226   3.621   3.609   4.878
 2735SOL    HW1 8227   3.682   3.639   4.805
 2735SOL    HW2 8228   3.583   3.520   4.856
 2736SOL     OW 8229   3.114   3.593   4.852
 2736SOL    HW1 8230   3.198   3.598   4.798
 2736SOL    HW2 8231   3.091   3.497   4.870
 2737SOL     OW 8232   1.945   3.120   4.746
 2737SOL    HW1 8233   1.940   3.119   4.846
 2737SOL    HW2 8234   1.862   3.079   4.708
 2738SOL     OW 8235   3.588   1.997   4.247
 2738SOL    HW1 8236   3.661   1.980   4.180
 2738SOL    HW2 8237   3.557   1.910   4.285
 2739SOL     OW 8238   3.250   3.435   4.201
 2739SOL    HW1 8239   3.317   3.447   4.127
 2739SOL    HW2 8240   3.210   3.524   4.224
 2740SOL     OW 8241   3.142   2.789   4.396
 2740SOL    HW1 8242   3.202   2.708   4.398
 2740SOL    HW2 8243   3.182   2.858   4.336
 2741SOL     OW 8244   2.534   3.478   3.878
 2741SOL    HW1 8245   2.543   3.488   3.779
 2741SOL    HW2 8246   2.494   3.389   3.899
 2742SOL     OW 8247   3.703   2.037   4.687
 2742SOL    HW1 8248   3.742   1.952   4.651
 2742SOL    HW2 8249   3.605   2.039   4.668
 2743SOL     OW 8250   2.125   2.188   4.444
 2743SOL    HW1 8251   2.046   2.239   4.410
 2743SOL    HW2 8252   2.116   2.173   4.542
 2744SOL     OW 8253   3.056   3.474   3.755
 2744SOL    HW1 8254   3.062   3.381   3.792
 2744SOL    HW2 8255   2.997   3.474   3.675
 2745SOL     OW 8256   2.684   2.864   5.096
 2745SOL    HW1 8257   2.724   2.863   5.004
 2745SOL    HW2 8258   2.694   2.956   5.136
 2746SOL     OW 8259   2.778   2.772   4.015
 2746SOL    HW1 8260   2.841   2.810   3.947
 2746SOL    HW2 8261   2.818   2.689   4.054
 2747SOL     OW 8262   3.366   3.469   3.768
 2747SOL    HW1 8263   3.274   3.506   3.775
 2747SOL    HW2 8264   3.404   3.489   3.678
 2748SOL     OW 8265   3.476   3.154   5.013
 2748SOL    HW1 8266   3.536   3.157   5.093
 2748SOL    HW2 8267   3.401   3.218   5.026
 2749SOL     OW 8268   2.901   2.960   4.420
 2749SOL    HW1 8269   2.831   2.913   4.474
 2749SOL    HW2 8270   2.960   2.892   4.377
 2750SOL     OW 8271   2.876   2.098   4.695
 2750SOL    HW1 8272   2.868   2.062   4.602
 2750SOL    HW2 8273   2.874   2.022   4.760
 2751SOL     OW 8274   2.452   3.349   4.215
 2751SOL    HW1 8275   2.494   3.291   4.145
 2751SOL    HW2 8276   2.408   3.428   4.171
 2752SOL     OW 8277   3.571   2.247   5.105
 2752SOL    HW1 8278   3.644   2.316   5.109
 2752SOL    HW2 8279   3.599   2.172   5.046
 2753SOL     OW 8280   2.117   3.210   4.014
 2753SOL    HW1 8281   2.021   3.211   3.987
 2753SOL    HW2 8282   2.129   3.263   4.098
 2754SOL     OW 8283   2.534   2.065   5.213
 2754SOL    HW1 8284   2.624   2.049   5.173
 2754SOL    HW2 8285   2.542   2.070   5.312
 2755SOL     OW 8286   1.937   2.207   3.757
 2755SOL    HW1 8287   1.845   2.179   3.728
 2755SOL    HW2 8288   1.968   2.284   3.701
 2756SOL     OW 8289   1.934   2.028   4.042
 2756SOL    HW1 8290   1.917   2.111   3.988
 2756SOL    HW2 8291   2.024   1.991   4.020
 2757SOL     OW 8292   3.045   3.197   3.843
 2757SOL    HW1 8293   2.946   3.186   3.845
 2757SOL    HW2 8294   3.079   3.212   3.936
 2758SOL     OW 8295   2.475   2.704   5.155
 2758SOL    HW1 8296   2.531   2.785   5.138
 2758SOL    HW2 8297   2.534   2.624   5.158
 2759SOL     OW 8298   3.355   3.629   4.683
 2759SOL    HW1 8299   3.388   3.693   4.614
 2759SOL    HW2 8300   3.421   3.623   4.758
 2760SOL     OW 8301   2.252   3.603   5.284
 2760SOL    HW1 8302   2.161   3.644   5.282
 2760SOL    HW2 8303   2.245   3.509   5.316
 2761SOL     OW 8304   3.536   2.745   4.978
 2761SOL    HW1 8305   3.509   2.656   4.941
 2761SOL    HW2 8306   3.537   2.813   4.905
 2762SOL     OW 8307   3.087   2.187   4.173
 2762SOL    HW1 8308   3.152   2.113   4.162
 2762SOL    HW2 8309   3.107   2.237   4.257
 2763SOL     OW 8310   2.456   2.607   4.376
 2763SOL    HW1 8311   2.506   2.692   4.357
 2763SOL    HW2 8312   2.368   2.609   4.328
 2764SOL     OW 8313   3.639   2.204   5.366
 2764SOL    HW1 8314   3.622   2.235   5.272
 2764SOL    HW2 8315   3.555   2.167   5.404
 2765SOL     OW 8316   3.592   2.796   5.241
 2765SOL    HW1 8317   3.630   2.887   5.256
 2765SOL    HW2 8318   3.584   2.779   5.142
 2766SOL     OW 8319   2.721   3.236   3.740
 2766SOL    HW1 8320   2.675   3.251   3.828
 2766SOL    HW2 8321   2.765   3.321   3.710
 2767SOL     OW 8322   2.523   3.652   4.677
 2767SOL    HW1 8323   2.477   3.740   4.664
 2767SOL    HW2 8324   2.622   3.664   4.670
 2768SOL     OW 8325   2.721   2.818   4.585
 2768SOL    HW1 8326   2.775   2.749   4.633
 2768SOL    HW2 8327   2.689   2.887   4.651
 2769SOL     OW 8328   2.945   2.846   3.811
 2769SOL    HW1 8329   2.922   2.899   3.729
 2769SOL    HW2 8330   3.026   2.790   3.792
 2770SOL     OW 8331   3.723   3.431   4.575
 2770SOL    HW1 8332   3.652   3.419   4.505
 2770SOL    HW2 8333   3.724   3.352   4.635
 2771SOL     OW 8334   1.941   3.102   4.377
 2771SOL    HW1 8335   1.940   3.055   4.465
 2771SOL    HW2 8336   2.023   3.074   4.326
 2772SOL     OW 8337   3.686   2.054   4.951
 2772SOL    HW1 8338   3.682   1.964   4.995
 2772SOL    HW2 8339   3.689   2.043   4.852
 2773SOL     OW 8340   2.290   2.286   4.244
 2773SOL    HW1 8341   2.320   2.214   4.182
 2773SOL    HW2 8342   2.251   2.246   4.327
 2774SOL     OW 8343   3.567   3.349   4.828
 2774SOL    HW1 8344   3.474   3.324   4.801
 2774SOL    HW2 8345   3.593   3.299   4.910
 2775SOL     OW 8346   2.179   2.409   5.004
 2775SOL    HW1 8347   2.217   2.350   5.076
 2775SOL    HW2 8348   2.219   2.383   4.916
 2776SOL     OW 8349   2.674   3.448   4.411
 2776SOL    HW1 8350   2.706   3.458   4.317
 2776SOL    HW2 8351   2.595   3.386   4.413
 2777SOL     OW 8352   3.286   2.076   4.836
 2777SOL    HW1 8353   3.338   2.011   4.891
 2777SOL    HW2 8354   3.237   2.139   4.897
 2778SOL     OW 8355   2.863   1.896   4.878
 2778SOL    HW1 8356   2.800   1.824   4.847
 2778SOL    HW2 8357   2.956   1.860   4.878
 2779SOL     OW 8358   2.632   3.192   4.025
 2779SOL    HW1 8359   2.586   3.105   4.042
 2779SOL    HW2 8360   2.723   3.189   4.066
 2780SOL     OW 8361   2.480   3.429   5.008
 2780SOL    HW1 8362   2.475   3.511   5.065
 2780SOL    HW2 8363   2.569   3.426   4.963
 2781SOL     OW 8364   3.214   1.914   3.892
 2781SOL    HW1 8365   3.249   1.873   3.808
 2781SOL    HW2 8366   3.124   1.876   3.912
 2782SOL     OW 8367   3.162   2.315   4.415
 2782SOL    HW1 8368   3.103   2.395   4.419
 2782SOL    HW2 8369   3.177   2.280   4.508
 2783SOL     OW 8370   3.455   2.083   4.606
 2783SOL    HW1 8371   3.371   2.082   4.660
 2783SOL    HW2 8372   3.457   2.166   4.550
 2784SOL     OW 8373   1.901   2.939   4.024
 2784SOL    HW1 8374   2.000   2.928   4.015
 2784SOL    HW2 8375   1.861   2.853   4.056
 2785SOL     OW 8376   2.737   3.508   4.061
 2785SOL    HW1 8377   2.660   3.473   4.007
 2785SOL    HW2 8378   2.705   3.579   4.123
 2786SOL     OW 8379   2.092   4.352   0.113
 2786SOL    HW1 8380   1.999   4.350   0.150
 2786SOL    HW2 8381   2.093   4.313   0.021
 2787SOL     OW 8382   2.087   3.999   0.996
 2787SOL    HW1 8383   2.122   3.982   1.088
 2787SOL    HW2 8384   1.999   3.954   0.984
 2788SOL     OW 8385   1.881   4.092   0.647
 2788SOL    HW1 8386   1.799   4.135   0.686
 2788SOL    HW2 8387   1.853   4.019   0.584
 2789SOL     OW 8388   2.431   4.999   1.165
 2789SOL    HW1 8389   2.338   4.992   1.128
 2789SOL    HW2 8390   2.442   5.088   1.209
 2790SOL     OW 8391   3.417   5.235   0.703
 2790SOL    HW1 8392   3.360   5.219   0.784
 2790SOL    HW2 8393   3.358   5.245   0.623
 2791SOL     OW 8394   2.997   4.427   0.717
 2791SOL    HW1 8395   3.054   4.505   0.692
 2791SOL    HW2 8396   2.937   4.453   0.793
 2792SOL     OW 8397   3.617   4.331   0.231
 2792SOL    HW1 8398   3.605   4.318   0.132
 2792SOL    HW2 8399   3.587   4.250   0.280
 2793SOL     OW 8400   2.630   4.868   1.023
 2793SOL    HW1 8401   2.552   4.885   1.083
 2793SOL    HW2 8402   2.664   4.955   0.987
 2794SOL     OW 8403   2.712   4.522   1.823
 2794SOL    HW1 8404   2.708   4.598   1.888
 2794SOL    HW2 8405   2.734   4.558   1.732
 2795SOL     OW 8406   2.547   4.736   0.665
 2795SOL    HW1 8407   2.616   4.720   0.735
 2795SOL    HW2 8408   2.474   4.793   0.703
 2796SOL     OW 8409   2.548   4.885   1.803
 2796SOL    HW1 8410   2.608   4.964   1.817
 2796SOL    HW2 8411   2.462   4.916   1.762
 2797SOL     OW 8412   2.197   5.159   1.061
 2797SOL    HW1 8413   2.119   5.128   1.008
 2797SOL    HW2 8414   2.255   5.217   1.004
 2798SOL     OW 8415   2.300   4.116   1.499
 2798SOL    HW1 8416   2.382   4.060   1.508
 2798SOL    HW2 8417   2.219   4.058   1.503
 2799SOL     OW 8418   3.465   4.171   0.737
 2799SOL    HW1 8419   3.391   4.217   0.687
 2799SOL    HW2 8420   3.516   4.239   0.790
 2800SOL     OW 8421   2.102   4.815   0.886
 2800SOL    HW1 8422   2.116   4.731   0.938
 2800SOL    HW2 8423   2.047   4.879   0.941
 2801SOL     OW 8424   2.468   4.688   0.123
 2801SOL    HW1 8425   2.475   4.772   0.069
 2801SOL    HW2 8426   2.514   4.701   0.211
 2802SOL     OW 8427   3.456   3.838   1.480
 2802SOL    HW1 8428   3.438   3.905   1.408
 2802SOL    HW2 8429   3.453   3.884   1.569
 2803SOL     OW 8430   1.984   4.367   0.563
 2803SOL    HW1 8431   1.939   4.279   0.580
 2803SOL    HW2 8432   1.983   4.421   0.647
 2804SOL     OW 8433   3.551   4.646   0.612
 2804SOL    HW1 8434   3.646   4.617   0.620
 2804SOL    HW2 8435   3.543   4.711   0.537
 2805SOL     OW 8436   3.503   4.832   0.432
 2805SOL    HW1 8437   3.589   4.834   0.380
 2805SOL    HW2 8438   3.517   4.879   0.520
 2806SOL     OW 8439   1.975   4.461   1.597
 2806SOL    HW1 8440   2.063   4.448   1.642
 2806SOL    HW2 8441   1.962   4.558   1.575
 2807SOL     OW 8442   2.475   5.089   0.726
 2807SOL    HW1 8443   2.426   5.002   0.735
 2807SOL    HW2 8444   2.452   5.132   0.639
 2808SOL     OW 8445   3.155   4.952   1.423
 2808SOL    HW1 8446   3.192   4.879   1.365
 2808SOL    HW2 8447   3.207   4.957   1.508
 2809SOL     OW 8448   2.671   3.728   0.502
 2809SOL    HW1 8449   2.711   3.819   0.493
 2809SOL    HW2 8450   2.571   3.736   0.508
 2810SOL     OW 8451   2.059   4.700   1.264
 2810SOL    HW1 8452   2.148   4.655   1.250
 2810SOL    HW2 8453   1.986   4.635   1.245
 2811SOL     OW 8454   3.387   4.723   0.190
 2811SOL    HW1 8455   3.324   4.647   0.203
 2811SOL    HW2 8456   3.435   4.741   0.276
 2812SOL     OW 8457   2.179   3.975   1.801
 2812SOL    HW1 8458   2.250   4.046   1.807
 2812SOL    HW2 8459   2.091   4.014   1.829
 2813SOL     OW 8460   3.328   5.141   0.953
 2813SOL    HW1 8461   3.269   5.147   1.033
 2813SOL    HW2 8462   3.313   5.053   0.907
 2814SOL     OW 8463   2.460   4.453   0.270
 2814SOL    HW1 8464   2.484   4.522   0.202
 2814SOL    HW2 8465   2.382   4.486   0.324
 2815SOL     OW 8466   3.143   4.069   0.944
 2815SOL    HW1 8467   3.057   4.019   0.931
 2815SOL    HW2 8468   3.205   4.015   1.000
 2816SOL     OW 8469   2.669   4.329   1.465
 2816SOL    HW1 8470   2.622   4.326   1.554
 2816SOL    HW2 8471   2.618   4.274   1.399
 2817SOL     OW 8472   3.256   4.193   1.674
 2817SOL    HW1 8473   3.236   4.236   1.762
 2817SOL    HW2 8474   3.334   4.131   1.683
 2818SOL     OW 8475   2.835   4.614   1.572
 2818SOL    HW1 8476   2.881   4.530   1.543
 2818SOL    HW2 8477   2.779   4.648   1.497
 2819SOL     OW 8478   2.853   4.134   1.242
 2819SOL    HW1 8479   2.776   4.168   1.296
 2819SOL    HW2 8480   2.819   4.083   1.163
 2820SOL     OW 8481   2.903   4.425   0.429
 2820SOL    HW1 8482   2.929   4.421   0.525
 2820SOL    HW2 8483   2.818   4.374   0.415
 2821SOL     OW 8484   1.938   4.535   0.789
 2821SOL    HW1 8485   2.037   4.523   0.798
 2821SOL    HW2 8486   1.914   4.630   0.810
 2822SOL     OW 8487   2.727   4.072   0.195
 2822SOL    HW1 8488   2.786   4.135   0.146
 2822SOL    HW2 8489   2.746   3.978   0.166
 2823SOL     OW 8490   3.581   4.309   1.831
 2823SOL    HW1 8491   3.555   4.398   1.795
 2823SOL    HW2 8492   3.579   4.241   1.758
 2824SOL     OW 8493   3.224   4.868   0.545
 2824SOL    HW1 8494   3.307   4.839   0.497
 2824SOL    HW2 8495   3.175   4.935   0.489
 2825SOL     OW 8496   2.412   3.920   0.885
 2825SOL    HW1 8497   2.407   3.915   0.985
 2825SOL    HW2 8498   2.414   4.016   0.856
 2826SOL     OW 8499   3.657   4.790   0.873
 2826SOL    HW1 8500   3.595   4.775   0.797
 2826SOL    HW2 8501   3.605   4.801   0.958
 2827SOL     OW 8502   2.183   4.667   0.242
 2827SOL    HW1 8503   2.265   4.706   0.200
 2827SOL    HW2 8504   2.156   4.585   0.193
 2828SOL     OW 8505   3.320   4.459   0.728
 2828SOL    HW1 8506   3.315   4.394   0.803
 2828SOL    HW2 8507   3.400   4.518   0.741
 2829SOL     OW 8508   2.323   4.990   1.727
 2829SOL    HW1 8509   2.273   4.991   1.641
 2829SOL    HW2 8510   2.260   4.972   1.803
 2830SOL     OW 8511   2.064   4.009   1.498
 2830SOL    HW1 8512   1.984   4.069   1.485
 2830SOL    HW2 8513   2.054   3.960   1.584
 2831SOL     OW 8514   3.494   5.101   0.081
 2831SOL    HW1 8515   3.462   5.195   0.071
 2831SOL    HW2 8516   3.418   5.038   0.069
 2832SOL     OW 8517   3.262   3.831   0.426
 2832SOL    HW1 8518   3.238   3.794   0.336
 2832SOL    HW2 8519   3.361   3.847   0.430
 2833SOL     OW 8520   2.244   4.424   0.480
 2833SOL    HW1 8521   2.289   4.334   0.477
 2833SOL    HW2 8522   2.150   4.413   0.513
 2834SOL     OW 8523   3.409   3.946   1.729
 2834SOL    HW1 8524   3.404   3.983   1.821
 2834SOL    HW2 8525   3.337   3.877   1.717
 2835SOL     OW 8526   2.643   3.988   1.749
 2835SOL    HW1 8527   2.710   3.927   1.792
 2835SOL    HW2 8528   2.570   4.007   1.814
 2836SOL     OW 8529   3.213   4.314   1.433
 2836SOL    HW1 8530   3.241   4.271   1.518
 2836SOL    HW2 8531   3.238   4.410   1.434
 2837SOL     OW 8532   2.784   4.227   0.899
 2837SOL    HW1 8533   2.759   4.218   0.803
 2837SOL    HW2 8534   2.832   4.145   0.930
 2838SOL     OW 8535   2.401   3.788   0.512
 2838SOL    HW1 8536   2.320   3.789   0.570
 2838SOL    HW2 8537   2.404   3.871   0.457
 2839SOL     OW 8538   3.296   4.912   0.041
 2839SOL    HW1 8539   3.328   4.836   0.098
 2839SOL    HW2 8540   3.204   4.939   0.071
 2840SOL     OW 8541   2.797   3.960   0.480
 2840SOL    HW1 8542   2.749   4.001   0.402
 2840SOL    HW2 8543   2.896   3.958   0.461
 2841SOL     OW 8544   2.938   4.407   1.464
 2841SOL    HW1 8545   2.858   4.346   1.467
 2841SOL    HW2 8546   3.019   4.354   1.440
 2842SOL     OW 8547   3.089   5.294   0.793
 2842SOL    HW1 8548   3.110   5.368   0.728
 2842SOL    HW2 8549   3.157   5.294   0.866
 2843SOL     OW 8550   2.321   4.876   0.741
 2843SOL    HW1 8551   2.250   4.849   0.806
 2843SOL    HW2 8552   2.295   4.848   0.648
 2844SOL     OW 8553   2.894   4.273   0.016
 2844SOL    HW1 8554   2.853   4.355  -0.023
 2844SOL    HW2 8555   2.958   4.299   0.089
 2845SOL     OW 8556   1.940   4.280   1.386
 2845SOL    HW1 8557   2.032   4.279   1.345
 2845SOL    HW2 8558   1.934   4.354   1.453
 2846SOL     OW 8559   2.423   3.946   1.147
 2846SOL    HW1 8560   2.461   3.862   1.184
 2846SOL    HW2 8561   2.335   3.965   1.191
 2847SOL     OW 8562   2.728   4.178   0.642
 2847SOL    HW1 8563   2.696   4.250   0.580
 2847SOL    HW2 8564   2.752   4.097   0.589
 2848SOL     OW 8565   2.879   3.763   0.753
 2848SOL    HW1 8566   2.807   3.768   0.684
 2848SOL    HW2 8567   2.855   3.694   0.822
 2849SOL     OW 8568   3.291   4.897   0.867
 2849SOL    HW1 8569   3.236   4.813   0.860
 2849SOL    HW2 8570   3.317   4.926   0.775
 2850SOL     OW 8571   3.328   4.314   0.992
 2850SOL    HW1 8572   3.298   4.219   0.999
 2850SOL    HW2 8573   3.401   4.330   1.058
 2851SOL     OW 8574   3.719   4.557   0.377
 2851SOL    HW1 8575   3.761   4.493   0.441
 2851SOL    HW2 8576   3.681   4.506   0.299
 2852SOL     OW 8577   3.526   5.004   0.657
 2852SOL    HW1 8578   3.625   5.012   0.671
 2852SOL    HW2 8579   3.481   5.088   0.688
 2853SOL     OW 8580   3.252   4.299   0.078
 2853SOL    HW1 8581   3.198   4.278   0.159
 2853SOL    HW2 8582   3.343   4.258   0.087
 2854SOL     OW 8583   2.389   3.980   0.328
 2854SOL    HW1 8584   2.416   3.921   0.253
 2854SOL    HW2 8585   2.389   4.075   0.297
 2855SOL     OW 8586   3.616   4.947   1.588
 2855SOL    HW1 8587   3.707   4.908   1.575
 2855SOL    HW2 8588   3.624   5.043   1.612
 2856SOL     OW 8589   2.926   5.071   1.340
 2856SOL    HW1 8590   2.846   5.048   1.395
 2856SOL    HW2 8591   3.009   5.045   1.389
 2857SOL     OW 8592   2.973   4.919   1.100
 2857SOL    HW1 8593   2.933   4.963   1.181
 2857SOL    HW2 8594   2.932   4.956   1.017
 2858SOL     OW 8595   3.500   4.823   1.079
 2858SOL    HW1 8596   3.505   4.904   1.138
 2858SOL    HW2 8597   3.414   4.825   1.028
 2859SOL     OW 8598   2.777   3.813   1.402
 2859SOL    HW1 8599   2.802   3.793   1.307
 2859SOL    HW2 8600   2.849   3.869   1.444
 2860SOL     OW 8601   2.842   4.840   1.719
 2860SOL    HW1 8602   2.743   4.846   1.729
 2860SOL    HW2 8603   2.865   4.760   1.663
 2861SOL     OW 8604   2.567   4.774   0.368
 2861SOL    HW1 8605   2.553   4.781   0.467
 2861SOL    HW2 8606   2.651   4.723   0.350
 2862SOL     OW 8607   2.272   4.537   1.251
 2862SOL    HW1 8608   2.358   4.549   1.301
 2862SOL    HW2 8609   2.230   4.450   1.278
 2863SOL     OW 8610   3.136   4.110   1.262
 2863SOL    HW1 8611   3.157   4.184   1.326
 2863SOL    HW2 8612   3.047   4.127   1.219
 2864SOL     OW 8613   2.229   4.824   0.501
 2864SOL    HW1 8614   2.222   4.907   0.445
 2864SOL    HW2 8615   2.233   4.744   0.441
 2865SOL     OW 8616   2.428   4.261   0.865
 2865SOL    HW1 8617   2.440   4.327   0.791
 2865SOL    HW2 8618   2.474   4.295   0.948
 2866SOL     OW 8619   3.444   4.363   0.472
 2866SOL    HW1 8620   3.413   4.424   0.545
 2866SOL    HW2 8621   3.494   4.415   0.403
 2867SOL     OW 8622   2.264   4.475   1.598
 2867SOL    HW1 8623   2.332   4.530   1.551
 2867SOL    HW2 8624   2.304   4.387   1.625
 2868SOL     OW 8625   3.449   4.503   1.670
 2868SOL    HW1 8626   3.357   4.541   1.665
 2868SOL    HW2 8627   3.509   4.550   1.605
 2869SOL     OW 8628   2.875   3.829   1.770
 2869SOL    HW1 8629   2.881   3.914   1.718
 2869SOL    HW2 8630   2.907   3.753   1.713
 2870SOL     OW 8631   2.366   3.774   1.740
 2870SOL    HW1 8632   2.324   3.717   1.670
 2870SOL    HW2 8633   2.300   3.843   1.772
 2871SOL     OW 8634   2.435   4.594   1.029
 2871SOL    HW1 8635   2.479   4.683   1.020
 2871SOL    HW2 8636   2.372   4.594   1.106
 2872SOL     OW 8637   3.222   4.586   1.045
 2872SOL    HW1 8638   3.147   4.586   0.979
 2872SOL    HW2 8639   3.259   4.494   1.054
 2873SOL     OW 8640   3.071   4.249   0.275
 2873SOL    HW1 8641   3.084   4.165   0.329
 2873SOL    HW2 8642   3.042   4.323   0.335
 2874SOL     OW 8643   2.169   3.937   1.231
 2874SOL    HW1 8644   2.146   3.974   1.321
 2874SOL    HW2 8645   2.139   3.842   1.225
 2875SOL     OW 8646   1.899   5.034   1.282
 2875SOL    HW1 8647   1.952   4.985   1.350
 2875SOL    HW2 8648   1.921   5.132   1.287
 2876SOL     OW 8649   2.594   4.358   1.064
 2876SOL    HW1 8650   2.653   4.332   0.988
 2876SOL    HW2 8651   2.566   4.454   1.053
 2877SOL     OW 8652   3.590   4.659   1.854
 2877SOL    HW1 8653   3.544   4.652   1.765
 2877SOL    HW2 8654   3.528   4.703   1.920
 2878SOL     OW 8655   2.169   3.787   0.618
 2878SOL    HW1 8656   2.158   3.881   0.651
 2878SOL    HW2 8657   2.164   3.724   0.695
 2879SOL     OW 8658   3.484   4.091   0.374
 2879SOL    HW1 8659   3.486   4.015   0.438
 2879SOL    HW2 8660   3.436   4.168   0.414
 2880SOL     OW 8661   2.885   4.490   0.966
 2880SOL    HW1 8662   2.900   4.511   1.062
 2880SOL    HW2 8663   2.855   4.395   0.957
 2881SOL     OW 8664   3.721   5.242   1.605
 2881SOL    HW1 8665   3.735   5.269   1.510
 2881SOL    HW2 8666   3.804   5.264   1.658
 2882SOL     OW 8667   2.212   4.622   1.804
 2882SOL    HW1 8668   2.288   4.666   1.852
 2882SOL    HW2 8669   2.247   4.575   1.722
 2883SOL     OW 8670   3.402   3.998   0.125
 2883SOL    HW1 8671   3.341   3.923   0.148
 2883SOL    HW2 8672   3.424   4.050   0.208
 2884SOL     OW 8673   3.165   4.562   0.042
 2884SOL    HW1 8674   3.199   4.469   0.057
 2884SOL    HW2 8675   3.183   4.589  -0.053
 2885SOL     OW 8676   2.181   4.534   0.949
 2885SOL    HW1 8677   2.274   4.570   0.954
 2885SOL    HW2 8678   2.175   4.449   1.001
 2886SOL     OW 8679   2.201   4.233   1.006
 2886SOL    HW1 8680   2.149   4.150   0.989
 2886SOL    HW2 8681   2.278   4.238   0.942
 2887SOL     OW 8682   3.000   4.104   1.678
 2887SOL    HW1 8683   2.955   4.167   1.742
 2887SOL    HW2 8684   3.093   4.135   1.661
 2888SOL     OW 8685   3.022   3.931   1.477
 2888SOL    HW1 8686   3.022   3.995   1.554
 2888SOL    HW2 8687   3.050   3.979   1.394
 2889SOL     OW 8688   2.864   4.520   1.238
 2889SOL    HW1 8689   2.905   4.488   1.324
 2889SOL    HW2 8690   2.768   4.493   1.235
 2890SOL     OW 8691   1.902   4.268   1.114
 2890SOL    HW1 8692   1.987   4.235   1.073
 2890SOL    HW2 8693   1.915   4.283   1.212
 2891SOL     OW 8694   2.051   4.244   1.722
 2891SOL    HW1 8695   2.110   4.204   1.652
 2891SOL    HW2 8696   1.993   4.315   1.681
 2892SOL     OW 8697   3.231   4.674   1.660
 2892SOL    HW1 8698   3.270   4.763   1.680
 2892SOL    HW2 8699   3.241   4.654   1.563
 2893SOL     OW 8700   2.677   4.296   0.325
 2893SOL    HW1 8701   2.684   4.207   0.279
 2893SOL    HW2 8702   2.583   4.330   0.317
 2894SOL     OW 8703   3.519   4.328   1.206
 2894SOL    HW1 8704   3.481   4.259   1.268
 2894SOL    HW2 8705   3.601   4.292   1.162
 2895SOL     OW 8706   2.533   4.188   1.269
 2895SOL    HW1 8707   2.499   4.099   1.239
 2895SOL    HW2 8708   2.559   4.242   1.189
 2896SOL     OW 8709   2.335   4.224   0.191
 2896SOL    HW1 8710   2.396   4.304   0.195
 2896SOL    HW2 8711   2.240   4.255   0.198
 2897SOL     OW 8712   2.021   4.861   1.466
 2897SOL    HW1 8713   2.043   4.800   1.542
 2897SOL    HW2 8714   2.031   4.812   1.380
 2898SOL     OW 8715   3.209   4.783   1.234
 2898SOL    HW1 8716   3.233   4.720   1.160
 2898SOL    HW2 8717   3.119   4.823   1.216
 2899SOL     OW 8718   3.164   4.579   0.309
 2899SOL    HW1 8719   3.078   4.548   0.351
 2899SOL    HW2 8720   3.160   4.565   0.210
 2900SOL     OW 8721   1.945   4.982   1.022
 2900SOL    HW1 8722   1.940   4.981   1.122
 2900SOL    HW2 8723   1.862   4.941   0.984
 2901SOL     OW 8724   2.765   3.810   0.133
 2901SOL    HW1 8725   2.816   3.811   0.047
 2901SOL    HW2 8726   2.821   3.768   0.204
 2902SOL     OW 8727   3.588   3.859   0.523
 2902SOL    HW1 8728   3.661   3.842   0.456
 2902SOL    HW2 8729   3.557   3.772   0.561
 2903SOL     OW 8730   3.142   4.651   0.672
 2903SOL    HW1 8731   3.202   4.570   0.674
 2903SOL    HW2 8732   3.182   4.720   0.612
 2904SOL     OW 8733   2.692   4.997   1.422
 2904SOL    HW1 8734   2.687   5.030   1.517
 2904SOL    HW2 8735   2.606   5.016   1.376
 2905SOL     OW 8736   3.703   3.899   0.963
 2905SOL    HW1 8737   3.742   3.814   0.927
 2905SOL    HW2 8738   3.605   3.901   0.944
 2906SOL     OW 8739   2.125   4.050   0.720
 2906SOL    HW1 8740   2.046   4.101   0.686
 2906SOL    HW2 8741   2.116   4.035   0.818
 2907SOL     OW 8742   2.684   4.726   1.372
 2907SOL    HW1 8743   2.724   4.725   1.280
 2907SOL    HW2 8744   2.694   4.818   1.412
 2908SOL     OW 8745   2.778   4.634   0.291
 2908SOL    HW1 8746   2.841   4.672   0.223
 2908SOL    HW2 8747   2.818   4.551   0.330
 2909SOL     OW 8748   2.234   5.012   1.490
 2909SOL    HW1 8749   2.221   5.105   1.456
 2909SOL    HW2 8750   2.150   4.960   1.477
 2910SOL     OW 8751   3.476   5.016   1.289
 2910SOL    HW1 8752   3.536   5.019   1.369
 2910SOL    HW2 8753   3.401   5.080   1.302
 2911SOL     OW 8754   2.901   4.822   0.696
 2911SOL    HW1 8755   2.831   4.775   0.750
 2911SOL    HW2 8756   2.960   4.754   0.653
 2912SOL     OW 8757   2.876   3.960   0.971
 2912SOL    HW1 8758   2.868   3.924   0.878
 2912SOL    HW2 8759   2.874   3.884   1.036
 2913SOL     OW 8760   3.571   4.109   1.381
 2913SOL    HW1 8761   3.644   4.178   1.385
 2913SOL    HW2 8762   3.599   4.034   1.322
 2914SOL     OW 8763   1.967   4.737   1.726
 2914SOL    HW1 8764   1.890   4.704   1.780
 2914SOL    HW2 8765   2.052   4.707   1.768
 2915SOL     OW 8766   2.534   3.927   1.489
 2915SOL    HW1 8767   2.624   3.911   1.449
 2915SOL    HW2 8768   2.542   3.932   1.588
 2916SOL     OW 8769   1.937   4.069   0.033
 2916SOL    HW1 8770   1.845   4.041   0.004
 2916SOL    HW2 8771   1.968   4.146  -0.023
 2917SOL     OW 8772   3.302   4.580   1.398
 2917SOL    HW1 8773   3.245   4.632   1.335
 2917SOL    HW2 8774   3.398   4.592   1.374
 2918SOL     OW 8775   1.934   3.890   0.318
 2918SOL    HW1 8776   1.917   3.973   0.264
 2918SOL    HW2 8777   2.024   3.853   0.296
 2919SOL     OW 8778   2.475   4.566   1.431
 2919SOL    HW1 8779   2.531   4.647   1.414
 2919SOL    HW2 8780   2.534   4.486   1.434
 2920SOL     OW 8781   2.578   4.289   1.708
 2920SOL    HW1 8782   2.597   4.354   1.782
 2920SOL    HW2 8783   2.638   4.209   1.717
 2921SOL     OW 8784   3.312   4.944   1.633
 2921SOL    HW1 8785   3.303   4.934   1.732
 2921SOL    HW2 8786   3.408   4.937   1.607
 2922SOL     OW 8787   3.536   4.607   1.254
 2922SOL    HW1 8788   3.509   4.518   1.217
 2922SOL    HW2 8789   3.537   4.675   1.181
 2923SOL     OW 8790   3.087   4.049   0.449
 2923SOL    HW1 8791   3.152   3.975   0.438
 2923SOL    HW2 8792   3.107   4.099   0.533
 2924SOL     OW 8793   2.456   4.469   0.652
 2924SOL    HW1 8794   2.506   4.554   0.633
 2924SOL    HW2 8795   2.368   4.471   0.604
 2925SOL     OW 8796   3.639   4.066   1.642
 2925SOL    HW1 8797   3.622   4.097   1.548
 2925SOL    HW2 8798   3.555   4.029   1.680
 2926SOL     OW 8799   3.592   4.658   1.517
 2926SOL    HW1 8800   3.630   4.749   1.532
 2926SOL    HW2 8801   3.584   4.641   1.418
 2927SOL     OW 8802   2.721   4.680   0.861
 2927SOL    HW1 8803   2.775   4.611   0.909
 2927SOL    HW2 8804   2.689   4.749   0.927
 2928SOL     OW 8805   2.945   4.708   0.087
 2928SOL    HW1 8806   2.922   4.761   0.005
 2928SOL    HW2 8807   3.026   4.652   0.068
 2929SOL     OW 8808   2.083   5.038   1.844
 2929SOL    HW1 8809   2.018   4.965   1.823
 2929SOL    HW2 8810   2.087   5.052   1.942
 2930SOL     OW 8811   1.941   4.964   0.653
 2930SOL    HW1 8812   1.940   4.917   0.741
 2930SOL    HW2 8813   2.023   4.936   0.602
 2931SOL     OW 8814   2.534   5.115   1.624
 2931SOL    HW1 8815   2.456   5.065   1.662
 2931SOL    HW2 8816   2.531   5.210   1.655
 2932SOL     OW 8817   3.686   3.916   1.227
 2932SOL    HW1 8818   3.682   3.826   1.271
 2932SOL    HW2 8819   3.689   3.905   1.128
 2933SOL     OW 8820   2.290   4.148   0.520
 2933SOL    HW1 8821   2.320   4.076   0.458
 2933SOL    HW2 8822   2.251   4.108   0.603
 2934SOL     OW 8823   3.567   5.211   1.104
 2934SOL    HW1 8824   3.474   5.186   1.077
 2934SOL    HW2 8825   3.593   5.161   1.186
 2935SOL     OW 8826   2.179   4.271   1.280
 2935SOL    HW1 8827   2.217   4.212   1.352
 2935SOL    HW2 8828   2.219   4.245   1.192
 2936SOL     OW 8829   3.286   3.938   1.112
 2936SOL    HW1 8830   3.338   3.873   1.167
 2936SOL    HW2 8831   3.237   4.001   1.173
 2937SOL     OW 8832   2.863   3.758   1.154
 2937SOL    HW1 8833   2.800   3.686   1.123
 2937SOL    HW2 8834   2.956   3.722   1.154
 2938SOL     OW 8835   2.632   5.054   0.301
 2938SOL    HW1 8836   2.586   4.967   0.318
 2938SOL    HW2 8837   2.723   5.051   0.342
 2939SOL     OW 8838   3.214   3.776   0.168
 2939SOL    HW1 8839   3.249   3.735   0.084
 2939SOL    HW2 8840   3.124   3.738   0.188
 2940SOL     OW 8841   3.162   4.177   0.691
 2940SOL    HW1 8842   3.103   4.257   0.695
 2940SOL    HW2 8843   3.177   4.142   0.784
 2941SOL     OW 8844   3.455   3.945   0.882
 2941SOL    HW1 8845   3.371   3.944   0.936
 2941SOL    HW2 8846   3.457   4.028   0.826
 2942SOL     OW 8847   1.901   4.801   0.300
 2942SOL    HW1 8848   2.000   4.790   0.291
 2942SOL    HW2 8849   1.861   4.715   0.332
 2943SOL     OW 8850   2.092   4.352   1.975
 2943SOL    HW1 8851   1.999   4.350   2.012
 2943SOL    HW2 8852   2.093   4.313   1.883
 2944SOL     OW 8853   2.087   3.999   2.858
 2944SOL    HW1 8854   2.122   3.982   2.950
 2944SOL    HW2 8855   1.999   3.954   2.846
 2945SOL     OW 8856   1.881   4.092   2.509
 2945SOL    HW1 8857   1.799   4.135   2.548
 2945SOL    HW2 8858   1.853   4.019   2.446
 2946SOL     OW 8859   2.431   4.999   3.027
 2946SOL    HW1 8860   2.338   4.992   2.990
 2946SOL    HW2 8861   2.442   5.088   3.071
 2947SOL     OW 8862   3.417   5.235   2.565
 2947SOL    HW1 8863   3.360   5.219   2.646
 2947SOL    HW2 8864   3.358   5.245   2.485
 2948SOL     OW 8865   2.997   4.427   2.579
 2948SOL    HW1 8866   3.054   4.505   2.554
 2948SOL    HW2 8867   2.937   4.453   2.655
 2949SOL     OW 8868   3.617   4.331   2.093
 2949SOL    HW1 8869   3.605   4.318   1.994
 2949SOL    HW2 8870   3.587   4.250   2.142
 2950SOL     OW 8871   2.630   4.868   2.885
 2950SOL    HW1 8872   2.552   4.885   2.945
 2950SOL    HW2 8873   2.664   4.955   2.849
 2951SOL     OW 8874   2.712   4.522   3.685
 2951SOL    HW1 8875   2.708   4.598   3.750
 2951SOL    HW2 8876   2.734   4.558   3.594
 2952SOL     OW 8877   2.547   4.736   2.527
 2952SOL    HW1 8878   2.616   4.720   2.597
 2952SOL    HW2 8879   2.474   4.793   2.565
 2953SOL     OW 8880   2.548   4.885   3.665
 2953SOL    HW1 8881   2.608   4.964   3.679
 2953SOL    HW2 8882   2.462   4.916   3.624
 2954SOL     OW 8883   2.197   5.159   2.923
 2954SOL    HW1 8884   2.119   5.128   2.870
 2954SOL    HW2 8885   2.255   5.217   2.866
 2955SOL     OW 8886   2.300   4.116   3.361
 2955SOL    HW1 8887   2.382   4.060   3.370
 2955SOL    HW2 8888   2.219   4.058   3.365
 2956SOL     OW 8889   3.465   4.171   2.599
 2956SOL    HW1 8890   3.391   4.217   2.549
 2956SOL    HW2 8891   3.516   4.239   2.652
 2957SOL     OW 8892   2.102   4.815   2.748
 2957SOL    HW1 8893   2.116   4.731   2.800
 2957SOL    HW2 8894   2.047   4.879   2.803
 2958SOL     OW 8895   2.468   4.688   1.985
 2958SOL    HW1 8896   2.475   4.772   1.931
 2958SOL    HW2 8897   2.514   4.701   2.073
 2959SOL     OW 8898   3.456   3.838   3.342
 2959SOL    HW1 8899   3.438   3.905   3.270
 2959SOL    HW2 8900   3.453   3.884   3.431
 2960SOL     OW 8901   1.984   4.367   2.425
 2960SOL    HW1 8902   1.939   4.279   2.442
 2960SOL    HW2 8903   1.983   4.421   2.509
 2961SOL     OW 8904   3.551   4.646   2.474
 2961SOL    HW1 8905   3.646   4.617   2.482
 2961SOL    HW2 8906   3.543   4.711   2.399
 2962SOL     OW 8907   3.503   4.832   2.294
 2962SOL    HW1 8908   3.589   4.834   2.242
 2962SOL    HW2 8909   3.517   4.879   2.382
 2963SOL     OW 8910   1.975   4.461   3.459
 2963SOL    HW1 8911   2.063   4.448   3.504
 2963SOL    HW2 8912   1.962   4.558   3.437
 2964SOL     OW 8913   2.475   5.089   2.588
 2964SOL    HW1 8914   2.426   5.002   2.597
 2964SOL    HW2 8915   2.452   5.132   2.501
 2965SOL     OW 8916   3.155   4.952   3.285
 2965SOL    HW1 8917   3.192   4.879   3.227
 2965SOL    HW2 8918   3.207   4.957   3.370
 2966SOL     OW 8919   2.671   3.728   2.364
 2966SOL    HW1 8920   2.711   3.819   2.355
 2966SOL    HW2 8921   2.571   3.736   2.370
 2967SOL     OW 8922   2.059   4.700   3.126
 2967SOL    HW1 8923   2.148   4.655   3.112
 2967SOL    HW2 8924   1.986   4.635   3.107
 2968SOL     OW 8925   3.387   4.723   2.052
 2968SOL    HW1 8926   3.324   4.647   2.065
 2968SOL    HW2 8927   3.435   4.741   2.138
 2969SOL     OW 8928   2.179   3.975   3.663
 2969SOL    HW1 8929   2.250   4.046   3.669
 2969SOL    HW2 8930   2.091   4.014   3.691
 2970SOL     OW 8931   3.328   5.141   2.815
 2970SOL    HW1 8932   3.269   5.147   2.895
 2970SOL    HW2 8933   3.313   5.053   2.769
 2971SOL     OW 8934   2.460   4.453   2.132
 2971SOL    HW1 8935   2.484   4.522   2.064
 2971SOL    HW2 8936   2.382   4.486   2.186
 2972SOL     OW 8937   3.143   4.069   2.806
 2972SOL    HW1 8938   3.057   4.019   2.793
 2972SOL    HW2 8939   3.205   4.015   2.862
 2973SOL     OW 8940   2.669   4.329   3.327
 2973SOL    HW1 8941   2.622   4.326   3.416
 2973SOL    HW2 8942   2.618   4.274   3.261
 2974SOL     OW 8943   3.256   4.193   3.536
 2974SOL    HW1 8944   3.236   4.236   3.624
 2974SOL    HW2 8945   3.334   4.131   3.545
 2975SOL     OW 8946   2.835   4.614   3.434
 2975SOL    HW1 8947   2.881   4.530   3.405
 2975SOL    HW2 8948   2.779   4.648   3.359
 2976SOL     OW 8949   2.853   4.134   3.104
 2976SOL    HW1 8950   2.776   4.168   3.158
 2976SOL    HW2 8951   2.819   4.083   3.025
 2977SOL     OW 8952   2.903   4.425   2.291
 2977SOL    HW1 8953   2.929   4.421   2.387
 2977SOL    HW2 8954   2.818   4.374   2.277
 2978SOL     OW 8955   1.938   4.535   2.651
 2978SOL    HW1 8956   2.037   4.523   2.660
 2978SOL    HW2 8957   1.914   4.630   2.672
 2979SOL     OW 8958   2.727   4.072   2.057
 2979SOL    HW1 8959   2.786   4.135   2.008
 2979SOL    HW2 8960   2.746   3.978   2.028
 2980SOL     OW 8961   3.581   4.309   3.693
 2980SOL    HW1 8962   3.555   4.398   3.657
 2980SOL    HW2 8963   3.579   4.241   3.620
 2981SOL     OW 8964   3.224   4.868   2.407
 2981SOL    HW1 8965   3.307   4.839   2.359
 2981SOL    HW2 8966   3.175   4.935   2.351
 2982SOL     OW 8967   2.412   3.920   2.747
 2982SOL    HW1 8968   2.407   3.915   2.847
 2982SOL    HW2 8969   2.414   4.016   2.718
 2983SOL     OW 8970   3.657   4.790   2.735
 2983SOL    HW1 8971   3.595   4.775   2.659
 2983SOL    HW2 8972   3.605   4.801   2.820
 2984SOL     OW 8973   2.183   4.667   2.104
 2984SOL    HW1 8974   2.265   4.706   2.062
 2984SOL    HW2 8975   2.156   4.585   2.055
 2985SOL     OW 8976   3.320   4.459   2.590
 2985SOL    HW1 8977   3.315   4.394   2.665
 2985SOL    HW2 8978   3.400   4.518   2.603
 2986SOL     OW 8979   2.323   4.990   3.589
 2986SOL    HW1 8980   2.273   4.991   3.503
 2986SOL    HW2 8981   2.260   4.972   3.665
 2987SOL     OW 8982   2.064   4.009   3.360
 2987SOL    HW1 8983   1.984   4.069   3.347
 2987SOL    HW2 8984   2.054   3.960   3.446
 2988SOL     OW 8985   3.494   5.101   1.943
 2988SOL    HW1 8986   3.462   5.195   1.933
 2988SOL    HW2 8987   3.418   5.038   1.931
 2989SOL     OW 8988   3.262   3.831   2.288
 2989SOL    HW1 8989   3.238   3.794   2.198
 2989SOL    HW2 8990   3.361   3.847   2.292
 2990SOL     OW 8991   2.244   4.424   2.342
 2990SOL    HW1 8992   2.289   4.334   2.339
 2990SOL    HW2 8993   2.150   4.413   2.375
 2991SOL     OW 8994   3.409   3.946   3.591
 2991SOL    HW1 8995   3.404   3.983   3.683
 2991SOL    HW2 8996   3.337   3.877   3.579
 2992SOL     OW 8997   2.476   3.846   1.979
 2992SOL    HW1 8998   2.574   3.824   1.986
 2992SOL    HW2 8999   2.445   3.829   1.886
 2993SOL     OW 9000   2.643   3.988   3.611
 2993SOL    HW1 9001   2.710   3.927   3.654
 2993SOL    HW2 9002   2.570   4.007   3.676
 2994SOL     OW 9003   3.213   4.314   3.295
 2994SOL    HW1 9004   3.241   4.271   3.380
 2994SOL    HW2 9005   3.238   4.410   3.296
 2995SOL     OW 9006   2.784   4.227   2.761
 2995SOL    HW1 9007   2.759   4.218   2.665
 2995SOL    HW2 9008   2.832   4.145   2.792
 2996SOL     OW 9009   2.401   3.788   2.374
 2996SOL    HW1 9010   2.320   3.789   2.432
 2996SOL    HW2 9011   2.404   3.871   2.319
 2997SOL     OW 9012   3.296   4.912   1.903
 2997SOL    HW1 9013   3.328   4.836   1.960
 2997SOL    HW2 9014   3.204   4.939   1.933
 2998SOL     OW 9015   2.159   3.759   2.033
 2998SOL    HW1 9016   2.208   3.843   2.012
 2998SOL    HW2 9017   2.221   3.694   2.078
 2999SOL     OW 9018   2.797   3.960   2.342
 2999SOL    HW1 9019   2.749   4.001   2.264
 2999SOL    HW2 9020   2.896   3.958   2.323
 3000SOL     OW 9021   2.938   4.407   3.326
 3000SOL    HW1 9022   2.858   4.346   3.329
 3000SOL    HW2 9023   3.019   4.354   3.302
 3001SOL     OW 9024   3.089   5.294   2.655
 3001SOL    HW1 9025   3.110   5.368   2.590
 3001SOL    HW2 9026   3.157   5.294   2.728
 3002SOL     OW 9027   2.321   4.876   2.603
 3002SOL    HW1 9028   2.250   4.849   2.668
 3002SOL    HW2 9029   2.295   4.848   2.510
 3003SOL     OW 9030   2.894   4.273   1.878
 3003SOL    HW1 9031   2.853   4.355   1.839
 3003SOL    HW2 9032   2.958   4.299   1.951
 3004SOL     OW 9033   1.940   4.280   3.248
 3004SOL    HW1 9034   2.032   4.279   3.207
 3004SOL    HW2 9035   1.934   4.354   3.315
 3005SOL     OW 9036   2.423   3.946   3.009
 3005SOL    HW1 9037   2.461   3.862   3.046
 3005SOL    HW2 9038   2.335   3.965   3.053
 3006SOL     OW 9039   2.728   4.178   2.504
 3006SOL    HW1 9040   2.696   4.250   2.442
 3006SOL    HW2 9041   2.752   4.097   2.451
 3007SOL     OW 9042   2.879   3.763   2.615
 3007SOL    HW1 9043   2.807   3.768   2.546
 3007SOL    HW2 9044   2.855   3.694   2.684
 3008SOL     OW 9045   3.291   4.897   2.729
 3008SOL    HW1 9046   3.236   4.813   2.722
 3008SOL    HW2 9047   3.317   4.926   2.637
 3009SOL     OW 9048   3.328   4.314   2.854
 3009SOL    HW1 9049   3.298   4.219   2.861
 3009SOL    HW2 9050   3.401   4.330   2.920
 3010SOL     OW 9051   3.719   4.557   2.239
 3010SOL    HW1 9052   3.761   4.493   2.303
 3010SOL    HW2 9053   3.681   4.506   2.161
 3011SOL     OW 9054   3.526   5.004   2.519
 3011SOL    HW1 9055   3.625   5.012   2.533
 3011SOL    HW2 9056   3.481   5.088   2.550
 3012SOL     OW 9057   3.252   4.299   1.940
 3012SOL    HW1 9058   3.198   4.278   2.021
 3012SOL    HW2 9059   3.343   4.258   1.949
 3013SOL     OW 9060   2.389   3.980   2.190
 3013SOL    HW1 9061   2.416   3.921   2.115
 3013SOL    HW2 9062   2.389   4.075   2.159
 3014SOL     OW 9063   3.616   4.947   3.450
 3014SOL    HW1 9064   3.707   4.908   3.437
 3014SOL    HW2 9065   3.624   5.043   3.474
 3015SOL     OW 9066   2.926   5.071   3.202
 3015SOL    HW1 9067   2.846   5.048   3.257
 3015SOL    HW2 9068   3.009   5.045   3.251
 3016SOL     OW 9069   2.973   4.919   2.962
 3016SOL    HW1 9070   2.933   4.963   3.043
 3016SOL    HW2 9071   2.932   4.956   2.879
 3017SOL     OW 9072   3.500   4.823   2.941
 3017SOL    HW1 9073   3.505   4.904   3.000
 3017SOL    HW2 9074   3.414   4.825   2.890
 3018SOL     OW 9075   2.777   3.813   3.264
 3018SOL    HW1 9076   2.802   3.793   3.169
 3018SOL    HW2 9077   2.849   3.869   3.306
 3019SOL     OW 9078   2.842   4.840   3.581
 3019SOL    HW1 9079   2.743   4.846   3.591
 3019SOL    HW2 9080   2.865   4.760   3.525
 3020SOL     OW 9081   2.567   4.774   2.230
 3020SOL    HW1 9082   2.553   4.781   2.329
 3020SOL    HW2 9083   2.651   4.723   2.212
 3021SOL     OW 9084   2.272   4.537   3.113
 3021SOL    HW1 9085   2.358   4.549   3.163
 3021SOL    HW2 9086   2.230   4.450   3.140
 3022SOL     OW 9087   3.136   4.110   3.124
 3022SOL    HW1 9088   3.157   4.184   3.188
 3022SOL    HW2 9089   3.047   4.127   3.081
 3023SOL     OW 9090   2.229   4.824   2.363
 3023SOL    HW1 9091   2.222   4.907   2.307
 3023SOL    HW2 9092   2.233   4.744   2.303
 3024SOL     OW 9093   2.428   4.261   2.727
 3024SOL    HW1 9094   2.440   4.327   2.653
 3024SOL    HW2 9095   2.474   4.295   2.810
 3025SOL     OW 9096   3.444   4.363   2.334
 3025SOL    HW1 9097   3.413   4.424   2.407
 3025SOL    HW2 9098   3.494   4.415   2.265
 3026SOL     OW 9099   2.264   4.475   3.460
 3026SOL    HW1 9100   2.332   4.530   3.413
 3026SOL    HW2 9101   2.304   4.387   3.487
 3027SOL     OW 9102   3.449   4.503   3.532
 3027SOL    HW1 9103   3.357   4.541   3.527
 3027SOL    HW2 9104   3.509   4.550   3.467
 3028SOL     OW 9105   2.875   3.829   3.632
 3028SOL    HW1 9106   2.881   3.914   3.580
 3028SOL    HW2 9107   2.907   3.753   3.575
 3029SOL     OW 9108   2.366   3.774   3.602
 3029SOL    HW1 9109   2.324   3.717   3.532
 3029SOL    HW2 9110   2.300   3.843   3.634
 3030SOL     OW 9111   2.435   4.594   2.891
 3030SOL    HW1 9112   2.479   4.683   2.882
 3030SOL    HW2 9113   2.372   4.594   2.968
 3031SOL     OW 9114   3.222   4.586   2.907
 3031SOL    HW1 9115   3.147   4.586   2.841
 3031SOL    HW2 9116   3.259   4.494   2.916
 3032SOL     OW 9117   3.071   4.249   2.137
 3032SOL    HW1 9118   3.084   4.165   2.191
 3032SOL    HW2 9119   3.042   4.323   2.197
 3033SOL     OW 9120   2.169   3.937   3.093
 3033SOL    HW1 9121   2.146   3.974   3.183
 3033SOL    HW2 9122   2.139   3.842   3.087
 3034SOL     OW 9123   1.899   5.034   3.144
 3034SOL    HW1 9124   1.952   4.985   3.212
 3034SOL    HW2 9125   1.921   5.132   3.149
 3035SOL     OW 9126   2.594   4.358   2.926
 3035SOL    HW1 9127   2.653   4.332   2.850
 3035SOL    HW2 9128   2.566   4.454   2.915
 3036SOL     OW 9129   3.590   4.659   3.716
 3036SOL    HW1 9130   3.544   4.652   3.627
 3036SOL    HW2 9131   3.528   4.703   3.782
 3037SOL     OW 9132   2.169   3.787   2.480
 3037SOL    HW1 9133   2.158   3.881   2.513
 3037SOL    HW2 9134   2.164   3.724   2.557
 3038SOL     OW 9135   3.484   4.091   2.236
 3038SOL    HW1 9136   3.486   4.015   2.300
 3038SOL    HW2 9137   3.436   4.168   2.276
 3039SOL     OW 9138   2.885   4.490   2.828
 3039SOL    HW1 9139   2.900   4.511   2.924
 3039SOL    HW2 9140   2.855   4.395   2.819
 3040SOL     OW 9141   3.721   5.242   3.467
 3040SOL    HW1 9142   3.735   5.269   3.372
 3040SOL    HW2 9143   3.804   5.264   3.520
 3041SOL     OW 9144   2.212   4.622   3.666
 3041SOL    HW1 9145   2.288   4.666   3.714
 3041SOL    HW2 9146   2.247   4.575   3.584
 3042SOL     OW 9147   3.402   3.998   1.987
 3042SOL    HW1 9148   3.341   3.923   2.010
 3042SOL    HW2 9149   3.424   4.050   2.070
 3043SOL     OW 9150   3.165   4.562   1.904
 3043SOL    HW1 9151   3.199   4.469   1.919
 3043SOL    HW2 9152   3.183   4.589   1.809
 3044SOL     OW 9153   2.181   4.534   2.811
 3044SOL    HW1 9154   2.274   4.570   2.816
 3044SOL    HW2 9155   2.175   4.449   2.863
 3045SOL     OW 9156   2.201   4.233   2.868
 3045SOL    HW1 9157   2.149   4.150   2.851
 3045SOL    HW2 9158   2.278   4.238   2.804
 3046SOL     OW 9159   3.000   4.104   3.540
 3046SOL    HW1 9160   2.955   4.167   3.604
 3046SOL    HW2 9161   3.093   4.135   3.523
 3047SOL     OW 9162   3.022   3.931   3.339
 3047SOL    HW1 9163   3.022   3.995   3.416
 3047SOL    HW2 9164   3.050   3.979   3.256
 3048SOL     OW 9165   1.870   5.050   2.062
 3048SOL    HW1 9166   1.777   5.071   2.031
 3048SOL    HW2 9167   1.880   4.951   2.075
 3049SOL     OW 9168   2.864   4.520   3.100
 3049SOL    HW1 9169   2.905   4.488   3.186
 3049SOL    HW2 9170   2.768   4.493   3.097
 3050SOL     OW 9171   1.902   4.268   2.976
 3050SOL    HW1 9172   1.987   4.235   2.935
 3050SOL    HW2 9173   1.915   4.283   3.074
 3051SOL     OW 9174   2.051   4.244   3.584
 3051SOL    HW1 9175   2.110   4.204   3.514
 3051SOL    HW2 9176   1.993   4.315   3.543
 3052SOL     OW 9177   3.231   4.674   3.522
 3052SOL    HW1 9178   3.270   4.763   3.542
 3052SOL    HW2 9179   3.241   4.654   3.425
 3053SOL     OW 9180   2.677   4.296   2.187
 3053SOL    HW1 9181   2.684   4.207   2.141
 3053SOL    HW2 9182   2.583   4.330   2.179
 3054SOL     OW 9183   3.519   4.328   3.068
 3054SOL    HW1 9184   3.481   4.259   3.130
 3054SOL    HW2 9185   3.601   4.292   3.024
 3055SOL     OW 9186   2.533   4.188   3.131
 3055SOL    HW1 9187   2.499   4.099   3.101
 3055SOL    HW2 9188   2.559   4.242   3.051
 3056SOL     OW 9189   2.335   4.224   2.053
 3056SOL    HW1 9190   2.396   4.304   2.057
 3056SOL    HW2 9191   2.240   4.255   2.060
 3057SOL     OW 9192   2.021   4.861   3.328
 3057SOL    HW1 9193   2.043   4.800   3.404
 3057SOL    HW2 9194   2.031   4.812   3.242
 3058SOL     OW 9195   3.209   4.783   3.096
 3058SOL    HW1 9196   3.233   4.720   3.022
 3058SOL    HW2 9197   3.119   4.823   3.078
 3059SOL     OW 9198   3.164   4.579   2.171
 3059SOL    HW1 9199   3.078   4.548   2.213
 3059SOL    HW2 9200   3.160   4.565   2.072
 3060SOL     OW 9201   1.945   4.982   2.884
 3060SOL    HW1 9202   1.940   4.981   2.984
 3060SOL    HW2 9203   1.862   4.941   2.846
 3061SOL     OW 9204   3.588   3.859   2.385
 3061SOL    HW1 9205   3.661   3.842   2.318
 3061SOL    HW2 9206   3.557   3.772   2.423
 3062SOL     OW 9207   3.142   4.651   2.534
 3062SOL    HW1 9208   3.202   4.570   2.536
 3062SOL    HW2 9209   3.182   4.720   2.474
 3063SOL     OW 9210   2.692   4.997   3.284
 3063SOL    HW1 9211   2.687   5.030   3.379
 3063SOL    HW2 9212   2.606   5.016   3.238
 3064SOL     OW 9213   3.703   3.899   2.825
 3064SOL    HW1 9214   3.742   3.814   2.789
 3064SOL    HW2 9215   3.605   3.901   2.806
 3065SOL     OW 9216   2.125   4.050   2.582
 3065SOL    HW1 9217   2.046   4.101   2.548
 3065SOL    HW2 9218   2.116   4.035   2.680
 3066SOL     OW 9219   2.684   4.726   3.234
 3066SOL    HW1 9220   2.724   4.725   3.142
 3066SOL    HW2 9221   2.694   4.818   3.274
 3067SOL     OW 9222   2.778   4.634   2.153
 3067SOL    HW1 9223   2.841   4.672   2.085
 3067SOL    HW2 9224   2.818   4.551   2.192
 3068SOL     OW 9225   2.234   5.012   3.352
 3068SOL    HW1 9226   2.221   5.105   3.318
 3068SOL    HW2 9227   2.150   4.960   3.339
 3069SOL     OW 9228   3.476   5.016   3.151
 3069SOL    HW1 9229   3.536   5.019   3.231
 3069SOL    HW2 9230   3.401   5.080   3.164
 3070SOL     OW 9231   2.901   4.822   2.558
 3070SOL    HW1 9232   2.831   4.775   2.612
 3070SOL    HW2 9233   2.960   4.754   2.515
 3071SOL     OW 9234   2.876   3.960   2.833
 3071SOL    HW1 9235   2.868   3.924   2.740
 3071SOL    HW2 9236   2.874   3.884   2.898
 3072SOL     OW 9237   3.571   4.109   3.243
 3072SOL    HW1 9238   3.644   4.178   3.247
 3072SOL    HW2 9239   3.599   4.034   3.184
 3073SOL     OW 9240   1.967   4.737   3.588
 3073SOL    HW1 9241   1.890   4.704   3.642
 3073SOL    HW2 9242   2.052   4.707   3.630
 3074SOL     OW 9243   2.534   3.927   3.351
 3074SOL    HW1 9244   2.624   3.911   3.311
 3074SOL    HW2 9245   2.542   3.932   3.450
 3075SOL     OW 9246   1.937   4.069   1.895
 3075SOL    HW1 9247   1.845   4.041   1.866
 3075SOL    HW2 9248   1.968   4.146   1.839
 3076SOL     OW 9249   3.302   4.580   3.260
 3076SOL    HW1 9250   3.245   4.632   3.197
 3076SOL    HW2 9251   3.398   4.592   3.236
 3077SOL     OW 9252   1.934   3.890   2.180
 3077SOL    HW1 9253   1.917   3.973   2.126
 3077SOL    HW2 9254   2.024   3.853   2.158
 3078SOL     OW 9255   2.475   4.566   3.293
 3078SOL    HW1 9256   2.531   4.647   3.276
 3078SOL    HW2 9257   2.534   4.486   3.296
 3079SOL     OW 9258   2.578   4.289   3.570
 3079SOL    HW1 9259   2.597   4.354   3.644
 3079SOL    HW2 9260   2.638   4.209   3.579
 3080SOL     OW 9261   3.312   4.944   3.495
 3080SOL    HW1 9262   3.303   4.934   3.594
 3080SOL    HW2 9263   3.408   4.937   3.469
 3081SOL     OW 9264   3.536   4.607   3.116
 3081SOL    HW1 9265   3.509   4.518   3.079
 3081SOL    HW2 9266   3.537   4.675   3.043
 3082SOL     OW 9267   3.087   4.049   2.311
 3082SOL    HW1 9268   3.152   3.975   2.300
 3082SOL    HW2 9269   3.107   4.099   2.395
 3083SOL     OW 9270   2.456   4.469   2.514
 3083SOL    HW1 9271   2.506   4.554   2.495
 3083SOL    HW2 9272   2.368   4.471   2.466
 3084SOL     OW 9273   3.639   4.066   3.504
 3084SOL    HW1 9274   3.622   4.097   3.410
 3084SOL    HW2 9275   3.555   4.029   3.542
 3085SOL     OW 9276   3.592   4.658   3.379
 3085SOL    HW1 9277   3.630   4.749   3.394
 3085SOL    HW2 9278   3.584   4.641   3.280
 3086SOL     OW 9279   2.721   5.098   1.878
 3086SOL    HW1 9280   2.675   5.113   1.966
 3086SOL    HW2 9281   2.765   5.183   1.848
 3087SOL     OW 9282   2.721   4.680   2.723
 3087SOL    HW1 9283   2.775   4.611   2.771
 3087SOL    HW2 9284   2.689   4.749   2.789
 3088SOL     OW 9285   2.945   4.708   1.949
 3088SOL    HW1 9286   2.922   4.761   1.867
 3088SOL    HW2 9287   3.026   4.652   1.930
 3089SOL     OW 9288   2.083   5.038   3.706
 3089SOL    HW1 9289   2.018   4.965   3.685
 3089SOL    HW2 9290   2.087   5.052   3.804
 3090SOL     OW 9291   1.941   4.964   2.515
 3090SOL    HW1 9292   1.940   4.917   2.603
 3090SOL    HW2 9293   2.023   4.936   2.464
 3091SOL     OW 9294   2.534   5.115   3.486
 3091SOL    HW1 9295   2.456   5.065   3.524
 3091SOL    HW2 9296   2.531   5.210   3.517
 3092SOL     OW 9297   3.686   3.916   3.089
 3092SOL    HW1 9298   3.682   3.826   3.133
 3092SOL    HW2 9299   3.689   3.905   2.990
 3093SOL     OW 9300   2.290   4.148   2.382
 3093SOL    HW1 9301   2.320   4.076   2.320
 3093SOL    HW2 9302   2.251   4.108   2.465
 3094SOL     OW 9303   3.567   5.211   2.966
 3094SOL    HW1 9304   3.474   5.186   2.939
 3094SOL    HW2 9305   3.593   5.161   3.048
 3095SOL     OW 9306   2.179   4.271   3.142
 3095SOL    HW1 9307   2.217   4.212   3.214
 3095SOL    HW2 9308   2.219   4.245   3.054
 3096SOL     OW 9309   3.286   3.938   2.974
 3096SOL    HW1 9310   3.338   3.873   3.029
 3096SOL    HW2 9311   3.237   4.001   3.035
 3097SOL     OW 9312   2.863   3.758   3.016
 3097SOL    HW1 9313   2.800   3.686   2.985
 3097SOL    HW2 9314   2.956   3.722   3.016
 3098SOL     OW 9315   2.632   5.054   2.163
 3098SOL    HW1 9316   2.586   4.967   2.180
 3098SOL    HW2 9317   2.723   5.051   2.204
 3099SOL     OW 9318   3.214   3.776   2.030
 3099SOL    HW1 9319   3.249   3.735   1.946
 3099SOL    HW2 9320   3.124   3.738   2.050
 3100SOL     OW 9321   3.162   4.177   2.553
 3100SOL    HW1 9322   3.103   4.257   2.557
 3100SOL    HW2 9323   3.177   4.142   2.646
 3101SOL     OW 9324   3.455   3.945   2.744
 3101SOL    HW1 9325   3.371   3.944   2.798
 3101SOL    HW2 9326   3.457   4.028   2.688
 3102SOL     OW 9327   1.901   4.801   2.162
 3102SOL    HW1 9328   2.000   4.790   2.153
 3102SOL    HW2 9329   1.861   4.715   2.194
 3103SOL     OW 9330   2.092   4.352   3.837
 3103SOL    HW1 9331   1.999   4.350   3.874
 3103SOL    HW2 9332   2.093   4.313   3.745
 3104SOL     OW 9333   2.087   3.999   4.720
 3104SOL    HW1 9334   2.122   3.982   4.812
 3104SOL    HW2 9335   1.999   3.954   4.708
 3105SOL     OW 9336   1.881   4.092   4.371
 3105SOL    HW1 9337   1.799   4.135   4.410
 3105SOL    HW2 9338   1.853   4.019   4.308
 3106SOL     OW 9339   2.431   4.999   4.889
 3106SOL    HW1 9340   2.338   4.992   4.852
 3106SOL    HW2 9341   2.442   5.088   4.933
 3107SOL     OW 9342   3.417   5.235   4.427
 3107SOL    HW1 9343   3.360   5.219   4.508
 3107SOL    HW2 9344   3.358   5.245   4.347
 3108SOL     OW 9345   2.997   4.427   4.441
 3108SOL    HW1 9346   3.054   4.505   4.416
 3108SOL    HW2 9347   2.937   4.453   4.517
 3109SOL     OW 9348   3.617   4.331   3.955
 3109SOL    HW1 9349   3.605   4.318   3.856
 3109SOL    HW2 9350   3.587   4.250   4.004
 3110SOL     OW 9351   2.630   4.868   4.747
 3110SOL    HW1 9352   2.552   4.885   4.807
 3110SOL    HW2 9353   2.664   4.955   4.711
 3111SOL     OW 9354   2.547   4.736   4.389
 3111SOL    HW1 9355   2.616   4.720   4.459
 3111SOL    HW2 9356   2.474   4.793   4.427
 3112SOL     OW 9357   2.197   5.159   4.785
 3112SOL    HW1 9358   2.119   5.128   4.732
 3112SOL    HW2 9359   2.255   5.217   4.728
 3113SOL     OW 9360   3.465   4.171   4.461
 3113SOL    HW1 9361   3.391   4.217   4.411
 3113SOL    HW2 9362   3.516   4.239   4.514
 3114SOL     OW 9363   2.989   5.065   5.414
 3114SOL    HW1 9364   3.036   5.065   5.502
 3114SOL    HW2 9365   2.941   4.978   5.403
 3115SOL     OW 9366   2.102   4.815   4.610
 3115SOL    HW1 9367   2.116   4.731   4.662
 3115SOL    HW2 9368   2.047   4.879   4.665
 3116SOL     OW 9369   2.468   4.688   3.847
 3116SOL    HW1 9370   2.475   4.772   3.793
 3116SOL    HW2 9371   2.514   4.701   3.935
 3117SOL     OW 9372   1.984   4.367   4.287
 3117SOL    HW1 9373   1.939   4.279   4.304
 3117SOL    HW2 9374   1.983   4.421   4.371
 3118SOL     OW 9375   3.551   4.646   4.336
 3118SOL    HW1 9376   3.646   4.617   4.344
 3118SOL    HW2 9377   3.543   4.711   4.261
 3119SOL     OW 9378   3.503   4.832   4.156
 3119SOL    HW1 9379   3.589   4.834   4.104
 3119SOL    HW2 9380   3.517   4.879   4.244
 3120SOL     OW 9381   2.475   5.089   4.450
 3120SOL    HW1 9382   2.426   5.002   4.459
 3120SOL    HW2 9383   2.452   5.132   4.363
 3121SOL     OW 9384   2.671   3.728   4.226
 3121SOL    HW1 9385   2.711   3.819   4.217
 3121SOL    HW2 9386   2.571   3.736   4.232
 3122SOL     OW 9387   2.059   4.700   4.988
 3122SOL    HW1 9388   2.148   4.655   4.974
 3122SOL    HW2 9389   1.986   4.635   4.969
 3123SOL     OW 9390   3.387   4.723   3.914
 3123SOL    HW1 9391   3.324   4.647   3.927
 3123SOL    HW2 9392   3.435   4.741   4.000
 3124SOL     OW 9393   3.328   5.141   4.677
 3124SOL    HW1 9394   3.269   5.147   4.757
 3124SOL    HW2 9395   3.313   5.053   4.631
 3125SOL     OW 9396   2.460   4.453   3.994
 3125SOL    HW1 9397   2.484   4.522   3.926
 3125SOL    HW2 9398   2.382   4.486   4.048
 3126SOL     OW 9399   3.143   4.069   4.668
 3126SOL    HW1 9400   3.057   4.019   4.655
 3126SOL    HW2 9401   3.205   4.015   4.724
 3127SOL     OW 9402   2.669   4.329   5.189
 3127SOL    HW1 9403   2.622   4.326   5.278
 3127SOL    HW2 9404   2.618   4.274   5.123
 3128SOL     OW 9405   2.853   4.134   4.966
 3128SOL    HW1 9406   2.776   4.168   5.020
 3128SOL    HW2 9407   2.819   4.083   4.887
 3129SOL     OW 9408   2.903   4.425   4.153
 3129SOL    HW1 9409   2.929   4.421   4.249
 3129SOL    HW2 9410   2.818   4.374   4.139
 3130SOL     OW 9411   1.938   4.535   4.513
 3130SOL    HW1 9412   2.037   4.523   4.522
 3130SOL    HW2 9413   1.914   4.630   4.534
 3131SOL     OW 9414   2.727   4.072   3.919
 3131SOL    HW1 9415   2.786   4.135   3.870
 3131SOL    HW2 9416   2.746   3.978   3.890
 3132SOL     OW 9417   3.224   4.868   4.269
 3132SOL    HW1 9418   3.307   4.839   4.221
 3132SOL    HW2 9419   3.175   4.935   4.213
 3133SOL     OW 9420   2.412   3.920   4.609
 3133SOL    HW1 9421   2.407   3.915   4.709
 3133SOL    HW2 9422   2.414   4.016   4.580
 3134SOL     OW 9423   3.657   4.790   4.597
 3134SOL    HW1 9424   3.595   4.775   4.521
 3134SOL    HW2 9425   3.605   4.801   4.682
 3135SOL     OW 9426   2.183   4.667   3.966
 3135SOL    HW1 9427   2.265   4.706   3.924
 3135SOL    HW2 9428   2.156   4.585   3.917
 3136SOL     OW 9429   3.320   4.459   4.452
 3136SOL    HW1 9430   3.315   4.394   4.527
 3136SOL    HW2 9431   3.400   4.518   4.465
 3137SOL     OW 9432   3.494   5.101   3.805
 3137SOL    HW1 9433   3.462   5.195   3.795
 3137SOL    HW2 9434   3.418   5.038   3.793
 3138SOL     OW 9435   3.262   3.831   4.150
 3138SOL    HW1 9436   3.238   3.794   4.060
 3138SOL    HW2 9437   3.361   3.847   4.154
 3139SOL     OW 9438   2.244   4.424   4.204
 3139SOL    HW1 9439   2.289   4.334   4.201
 3139SOL    HW2 9440   2.150   4.413   4.237
 3140SOL     OW 9441   2.476   3.846   3.841
 3140SOL    HW1 9442   2.574   3.824   3.848
 3140SOL    HW2 9443   2.445   3.829   3.748
 3141SOL     OW 9444   2.784   4.227   4.623
 3141SOL    HW1 9445   2.759   4.218   4.527
 3141SOL    HW2 9446   2.832   4.145   4.654
 3142SOL     OW 9447   2.401   3.788   4.236
 3142SOL    HW1 9448   2.320   3.789   4.294
 3142SOL    HW2 9449   2.404   3.871   4.181
 3143SOL     OW 9450   3.296   4.912   3.765
 3143SOL    HW1 9451   3.328   4.836   3.822
 3143SOL    HW2 9452   3.204   4.939   3.795
 3144SOL     OW 9453   2.159   3.759   3.895
 3144SOL    HW1 9454   2.208   3.843   3.874
 3144SOL    HW2 9455   2.221   3.694   3.940
 3145SOL     OW 9456   2.797   3.960   4.204
 3145SOL    HW1 9457   2.749   4.001   4.126
 3145SOL    HW2 9458   2.896   3.958   4.185
 3146SOL     OW 9459   3.089   5.294   4.517
 3146SOL    HW1 9460   3.110   5.368   4.452
 3146SOL    HW2 9461   3.157   5.294   4.590
 3147SOL     OW 9462   2.321   4.876   4.465
 3147SOL    HW1 9463   2.250   4.849   4.530
 3147SOL    HW2 9464   2.295   4.848   4.372
 3148SOL     OW 9465   2.894   4.273   3.740
 3148SOL    HW1 9466   2.853   4.355   3.701
 3148SOL    HW2 9467   2.958   4.299   3.813
 3149SOL     OW 9468   2.423   3.946   4.871
 3149SOL    HW1 9469   2.461   3.862   4.908
 3149SOL    HW2 9470   2.335   3.965   4.915
 3150SOL     OW 9471   2.728   4.178   4.366
 3150SOL    HW1 9472   2.696   4.250   4.304
 3150SOL    HW2 9473   2.752   4.097   4.313
 3151SOL     OW 9474   2.879   3.763   4.477
 3151SOL    HW1 9475   2.807   3.768   4.408
 3151SOL    HW2 9476   2.855   3.694   4.546
 3152SOL     OW 9477   3.291   4.897   4.591
 3152SOL    HW1 9478   3.236   4.813   4.584
 3152SOL    HW2 9479   3.317   4.926   4.499
 3153SOL     OW 9480   3.328   4.314   4.716
 3153SOL    HW1 9481   3.298   4.219   4.723
 3153SOL    HW2 9482   3.401   4.330   4.782
 3154SOL     OW 9483   3.719   4.557   4.101
 3154SOL    HW1 9484   3.761   4.493   4.165
 3154SOL    HW2 9485   3.681   4.506   4.023
 3155SOL     OW 9486   3.526   5.004   4.381
 3155SOL    HW1 9487   3.625   5.012   4.395
 3155SOL    HW2 9488   3.481   5.088   4.412
 3156SOL     OW 9489   3.252   4.299   3.802
 3156SOL    HW1 9490   3.198   4.278   3.883
 3156SOL    HW2 9491   3.343   4.258   3.811
 3157SOL     OW 9492   2.389   3.980   4.052
 3157SOL    HW1 9493   2.416   3.921   3.977
 3157SOL    HW2 9494   2.389   4.075   4.021
 3158SOL     OW 9495   3.616   4.947   5.312
 3158SOL    HW1 9496   3.707   4.908   5.299
 3158SOL    HW2 9497   3.624   5.043   5.336
 3159SOL     OW 9498   2.926   5.071   5.064
 3159SOL    HW1 9499   2.846   5.048   5.119
 3159SOL    HW2 9500   3.009   5.045   5.113
 3160SOL     OW 9501   2.973   4.919   4.824
 3160SOL    HW1 9502   2.933   4.963   4.905
 3160SOL    HW2 9503   2.932   4.956   4.741
 3161SOL     OW 9504   3.500   4.823   4.803
 3161SOL    HW1 9505   3.505   4.904   4.862
 3161SOL    HW2 9506   3.414   4.825   4.752
 3162SOL     OW 9507   2.567   4.774   4.092
 3162SOL    HW1 9508   2.553   4.781   4.191
 3162SOL    HW2 9509   2.651   4.723   4.074
 3163SOL     OW 9510   2.272   4.537   4.975
 3163SOL    HW1 9511   2.358   4.549   5.025
 3163SOL    HW2 9512   2.230   4.450   5.002
 3164SOL     OW 9513   3.136   4.110   4.986
 3164SOL    HW1 9514   3.157   4.184   5.050
 3164SOL    HW2 9515   3.047   4.127   4.943
 3165SOL     OW 9516   2.229   4.824   4.225
 3165SOL    HW1 9517   2.222   4.907   4.169
 3165SOL    HW2 9518   2.233   4.744   4.165
 3166SOL     OW 9519   2.428   4.261   4.589
 3166SOL    HW1 9520   2.440   4.327   4.515
 3166SOL    HW2 9521   2.474   4.295   4.672
 3167SOL     OW 9522   3.444   4.363   4.196
 3167SOL    HW1 9523   3.413   4.424   4.269
 3167SOL    HW2 9524   3.494   4.415   4.127
 3168SOL     OW 9525   2.435   4.594   4.753
 3168SOL    HW1 9526   2.479   4.683   4.744
 3168SOL    HW2 9527   2.372   4.594   4.830
 3169SOL     OW 9528   3.222   4.586   4.769
 3169SOL    HW1 9529   3.147   4.586   4.703
 3169SOL    HW2 9530   3.259   4.494   4.778
 3170SOL     OW 9531   3.071   4.249   3.999
 3170SOL    HW1 9532   3.084   4.165   4.053
 3170SOL    HW2 9533   3.042   4.323   4.059
 3171SOL     OW 9534   2.169   3.937   4.955
 3171SOL    HW1 9535   2.146   3.974   5.045
 3171SOL    HW2 9536   2.139   3.842   4.949
 3172SOL     OW 9537   1.899   5.034   5.006
 3172SOL    HW1 9538   1.952   4.985   5.074
 3172SOL    HW2 9539   1.921   5.132   5.011
 3173SOL     OW 9540   2.594   4.358   4.788
 3173SOL    HW1 9541   2.653   4.332   4.712
 3173SOL    HW2 9542   2.566   4.454   4.777
 3174SOL     OW 9543   2.169   3.787   4.342
 3174SOL    HW1 9544   2.158   3.881   4.375
 3174SOL    HW2 9545   2.164   3.724   4.419
 3175SOL     OW 9546   3.484   4.091   4.098
 3175SOL    HW1 9547   3.486   4.015   4.162
 3175SOL    HW2 9548   3.436   4.168   4.138
 3176SOL     OW 9549   2.885   4.490   4.690
 3176SOL    HW1 9550   2.900   4.511   4.786
 3176SOL    HW2 9551   2.855   4.395   4.681
 3177SOL     OW 9552   3.402   3.998   3.849
 3177SOL    HW1 9553   3.341   3.923   3.872
 3177SOL    HW2 9554   3.424   4.050   3.932
 3178SOL     OW 9555   3.165   4.562   3.766
 3178SOL    HW1 9556   3.199   4.469   3.781
 3178SOL    HW2 9557   3.183   4.589   3.671
 3179SOL     OW 9558   2.181   4.534   4.673
 3179SOL    HW1 9559   2.274   4.570   4.678
 3179SOL    HW2 9560   2.175   4.449   4.725
 3180SOL     OW 9561   2.201   4.233   4.730
 3180SOL    HW1 9562   2.149   4.150   4.713
 3180SOL    HW2 9563   2.278   4.238   4.666
 3181SOL     OW 9564   3.022   3.931   5.201
 3181SOL    HW1 9565   3.022   3.995   5.278
 3181SOL    HW2 9566   3.050   3.979   5.118
 3182SOL     OW 9567   1.870   5.050   3.924
 3182SOL    HW1 9568   1.777   5.071   3.893
 3182SOL    HW2 9569   1.880   4.951   3.937
 3183SOL     OW 9570   2.864   4.520   4.962
 3183SOL    HW1 9571   2.905   4.488   5.048
 3183SOL    HW2 9572   2.768   4.493   4.959
 3184SOL     OW 9573   1.902   4.268   4.838
 3184SOL    HW1 9574   1.987   4.235   4.797
 3184SOL    HW2 9575   1.915   4.283   4.936
 3185SOL     OW 9576   2.677   4.296   4.049
 3185SOL    HW1 9577   2.684   4.207   4.003
 3185SOL    HW2 9578   2.583   4.330   4.041
 3186SOL     OW 9579   3.519   4.328   4.930
 3186SOL    HW1 9580   3.481   4.259   4.992
 3186SOL    HW2 9581   3.601   4.292   4.886
 3187SOL     OW 9582   2.533   4.188   4.993
 3187SOL    HW1 9583   2.499   4.099   4.963
 3187SOL    HW2 9584   2.559   4.242   4.913
 3188SOL     OW 9585   2.335   4.224   3.915
 3188SOL    HW1 9586   2.396   4.304   3.919
 3188SOL    HW2 9587   2.240   4.255   3.922
 3189SOL     OW 9588   2.021   4.861   5.190
 3189SOL    HW1 9589   2.043   4.800   5.266
 3189SOL    HW2 9590   2.031   4.812   5.104
 3190SOL     OW 9591   3.209   4.783   4.958
 3190SOL    HW1 9592   3.233   4.720   4.884
 3190SOL    HW2 9593   3.119   4.823   4.940
 3191SOL     OW 9594   3.164   4.579   4.033
 3191SOL    HW1 9595   3.078   4.548   4.075
 3191SOL    HW2 9596   3.160   4.565   3.934
 3192SOL     OW 9597   1.945   4.982   4.746
 3192SOL    HW1 9598   1.940   4.981   4.846
 3192SOL    HW2 9599   1.862   4.941   4.708
 3193SOL     OW 9600   3.588   3.859   4.247
 3193SOL    HW1 9601   3.661   3.842   4.180
 3193SOL    HW2 9602   3.557   3.772   4.285
 3194SOL     OW 9603   3.142   4.651   4.396
 3194SOL    HW1 9604   3.202   4.570   4.398
 3194SOL    HW2 9605   3.182   4.720   4.336
 3195SOL     OW 9606   2.692   4.997   5.146
 3195SOL    HW1 9607   2.687   5.030   5.241
 3195SOL    HW2 9608   2.606   5.016   5.100
 3196SOL     OW 9609   3.703   3.899   4.687
 3196SOL    HW1 9610   3.742   3.814   4.651
 3196SOL    HW2 9611   3.605   3.901   4.668
 3197SOL     OW 9612   2.125   4.050   4.444
 3197SOL    HW1 9613   2.046   4.101   4.410
 3197SOL    HW2 9614   2.116   4.035   4.542
 3198SOL     OW 9615   2.684   4.726   5.096
 3198SOL    HW1 9616   2.724   4.725   5.004
 3198SOL    HW2 9617   2.694   4.818   5.136
 3199SOL     OW 9618   2.778   4.634   4.015
 3199SOL    HW1 9619   2.841   4.672   3.947
 3199SOL    HW2 9620   2.818   4.551   4.054
 3200SOL     OW 9621   2.234   5.012   5.214
 3200SOL    HW1 9622   2.221   5.105   5.180
 3200SOL    HW2 9623   2.150   4.960   5.201
 3201SOL     OW 9624   3.476   5.016   5.013
 3201SOL    HW1 9625   3.536   5.019   5.093
 3201SOL    HW2 9626   3.401   5.080   5.026
 3202SOL     OW 9627   2.901   4.822   4.420
 3202SOL    HW1 9628   2.831   4.775   4.474
 3202SOL    HW2 9629   2.960   4.754   4.377
 3203SOL     OW 9630   2.876   3.960   4.695
 3203SOL    HW1 9631   2.868   3.924   4.602
 3203SOL    HW2 9632   2.874   3.884   4.760
 3204SOL     OW 9633   3.571   4.109   5.105
 3204SOL    HW1 9634   3.644   4.178   5.109
 3204SOL    HW2 9635   3.599   4.034   5.046
 3205SOL     OW 9636   2.534   3.927   5.213
 3205SOL    HW1 9637   2.624   3.911   5.173
 3205SOL    HW2 9638   2.542   3.932   5.312
 3206SOL     OW 9639   1.937   4.069   3.757
 3206SOL    HW1 9640   1.845   4.041   3.728
 3206SOL    HW2 9641   1.968   4.146   3.701
 3207SOL     OW 9642   1.934   3.890   4.042
 3207SOL    HW1 9643   1.917   3.973   3.988
 3207SOL    HW2 9644   2.024   3.853   4.020
 3208SOL     OW 9645   2.475   4.566   5.155
 3208SOL    HW1 9646   2.531   4.647   5.138
 3208SOL    HW2 9647   2.534   4.486   5.158
 3209SOL     OW 9648   3.536   4.607   4.978
 3209SOL    HW1 9649   3.509   4.518   4.941
 3209SOL    HW2 9650   3.537   4.675   4.905
 3210SOL     OW 9651   3.087   4.049   4.173
 3210SOL    HW1 9652   3.152   3.975   4.162
 3210SOL    HW2 9653   3.107   4.099   4.257
 3211SOL     OW 9654   2.456   4.469   4.376
 3211SOL    HW1 9655   2.506   4.554   4.357
 3211SOL    HW2 9656   2.368   4.471   4.328
 3212SOL     OW 9657   3.639   4.066   5.366
 3212SOL    HW1 9658   3.622   4.097   5.272
 3212SOL    HW2 9659   3.555   4.029   5.404
 3213SOL     OW 9660   3.592   4.658   5.241
 3213SOL    HW1 9661   3.630   4.749   5.256
 3213SOL    HW2 9662   3.584   4.641   5.142
 3214SOL     OW 9663   2.721   5.098   3.740
 3214SOL    HW1 9664   2.675   5.113   3.828
 3214SOL    HW2 9665   2.765   5.183   3.710
 3215SOL     OW 9666   2.721   4.680   4.585
 3215SOL    HW1 9667   2.775   4.611   4.633
 3215SOL    HW2 9668   2.689   4.749   4.651
 3216SOL     OW 9669   2.945   4.708   3.811
 3216SOL    HW1 9670   2.922   4.761   3.729
 3216SOL    HW2 9671   3.026   4.652   3.792
 3217SOL     OW 9672   1.941   4.964   4.377
 3217SOL    HW1 9673   1.940   4.917   4.465
 3217SOL    HW2 9674   2.023   4.936   4.326
 3218SOL     OW 9675   3.686   3.916   4.951
 3218SOL    HW1 9676   3.682   3.826   4.995
 3218SOL    HW2 9677   3.689   3.905   4.852
 3219SOL     OW 9678   2.290   4.148   4.244
 3219SOL    HW1 9679   2.320   4.076   4.182
 3219SOL    HW2 9680   2.251   4.108   4.327
 3220SOL     OW 9681   3.567   5.211   4.828
 3220SOL    HW1 9682   3.474   5.186   4.801
 3220SOL    HW2 9683   3.593   5.161   4.910
 3221SOL     OW 9684   2.179   4.271   5.004
 3221SOL    HW1 9685   2.217   4.212   5.076
 3221SOL    HW2 9686   2.219   4.245   4.916
 3222SOL     OW 9687   3.286   3.938   4.836
 3222SOL    HW1 9688   3.338   3.873   4.891
 3222SOL    HW2 9689   3.237   4.001   4.897
 3223SOL     OW 9690   2.863   3.758   4.878
 3223SOL    HW1 9691   2.800   3.686   4.847
 3223SOL    HW2 9692   2.956   3.722   4.878
 3224SOL     OW 9693   2.632   5.054   4.025
 3224SOL    HW1 9694   2.586   4.967   4.042
 3224SOL    HW2 9695   2.723   5.051   4.066
 3225SOL     OW 9696   3.214   3.776   3.892
 3225SOL    HW1 9697   3.249   3.735   3.808
 3225SOL    HW2 9698   3.124   3.738   3.912
 3226SOL     OW 9699   3.162   4.177   4.415
 3226SOL    HW1 9700   3.103   4.257   4.419
 3226SOL    HW2 9701   3.177   4.142   4.508
 3227SOL     OW 9702   3.455   3.945   4.606
 3227SOL    HW1 9703   3.371   3.944   4.660
 3227SOL    HW2 9704   3.457   4.028   4.550
 3228SOL     OW 9705   1.901   4.801   4.024
 3228SOL    HW1 9706   2.000   4.790   4.015
 3228SOL    HW2 9707   1.861   4.715   4.056
 3229SOL     OW 9708   3.954   0.628   0.113
 3229SOL    HW1 9709   3.861   0.626   0.150
 3229SOL    HW2 9710   3.955   0.589   0.021
 3230SOL     OW 9711   3.949   0.275   0.996
 3230SOL    HW1 9712   3.984   0.258   1.088
 3230SOL    HW2 9713   3.861   0.230   0.984
 3231SOL     OW 9714   3.743   0.368   0.647
 3231SOL    HW1 9715   3.661   0.411   0.686
 3231SOL    HW2 9716   3.715   0.295   0.584
 3232SOL     OW 9717   4.293   1.275   1.165
 3232SOL    HW1 9718   4.200   1.268   1.128
 3232SOL    HW2 9719   4.304   1.364   1.209
 3233SOL     OW 9720   5.279   1.511   0.703
 3233SOL    HW1 9721   5.222   1.495   0.784
 3233SOL    HW2 9722   5.220   1.521   0.623
 3234SOL     OW 9723   4.859   0.703   0.717
 3234SOL    HW1 9724   4.916   0.781   0.692
 3234SOL    HW2 9725   4.799   0.729   0.793
 3235SOL     OW 9726   4.492   1.144   1.023
 3235SOL    HW1 9727   4.414   1.161   1.083
 3235SOL    HW2 9728   4.526   1.231   0.987
 3236SOL     OW 9729   4.574   0.798   1.823
 3236SOL    HW1 9730   4.570   0.874   1.888
 3236SOL    HW2 9731   4.596   0.834   1.732
 3237SOL     OW 9732   4.409   1.012   0.665
 3237SOL    HW1 9733   4.478   0.996   0.735
 3237SOL    HW2 9734   4.336   1.069   0.703
 3238SOL     OW 9735   4.410   1.161   1.803
 3238SOL    HW1 9736   4.470   1.240   1.817
 3238SOL    HW2 9737   4.324   1.192   1.762
 3239SOL     OW 9738   4.059   1.435   1.061
 3239SOL    HW1 9739   3.981   1.404   1.008
 3239SOL    HW2 9740   4.117   1.493   1.004
 3240SOL     OW 9741   4.162   0.392   1.499
 3240SOL    HW1 9742   4.244   0.336   1.508
 3240SOL    HW2 9743   4.081   0.334   1.503
 3241SOL     OW 9744   3.955   1.713   0.483
 3241SOL    HW1 9745   3.989   1.790   0.537
 3241SOL    HW2 9746   3.999   1.713   0.393
 3242SOL     OW 9747   4.851   1.341   1.690
 3242SOL    HW1 9748   4.898   1.341   1.778
 3242SOL    HW2 9749   4.803   1.254   1.679
 3243SOL     OW 9750   3.954   1.434   0.538
 3243SOL    HW1 9751   3.928   1.530   0.538
 3243SOL    HW2 9752   3.883   1.380   0.583
 3244SOL     OW 9753   3.964   1.091   0.886
 3244SOL    HW1 9754   3.978   1.007   0.938
 3244SOL    HW2 9755   3.909   1.155   0.941
 3245SOL     OW 9756   4.344   1.786   1.439
 3245SOL    HW1 9757   4.252   1.769   1.474
 3245SOL    HW2 9758   4.372   1.878   1.465
 3246SOL     OW 9759   4.330   0.964   0.123
 3246SOL    HW1 9760   4.337   1.048   0.069
 3246SOL    HW2 9761   4.376   0.977   0.211
 3247SOL     OW 9762   3.846   0.643   0.563
 3247SOL    HW1 9763   3.801   0.555   0.580
 3247SOL    HW2 9764   3.845   0.697   0.647
 3248SOL     OW 9765   3.751   1.596   0.117
 3248SOL    HW1 9766   3.732   1.500   0.138
 3248SOL    HW2 9767   3.718   1.654   0.192
 3249SOL     OW 9768   5.413   0.922   0.612
 3249SOL    HW1 9769   5.508   0.893   0.620
 3249SOL    HW2 9770   5.405   0.987   0.537
 3250SOL     OW 9771   3.837   0.737   1.597
 3250SOL    HW1 9772   3.925   0.724   1.642
 3250SOL    HW2 9773   3.824   0.834   1.575
 3251SOL     OW 9774   4.337   1.365   0.726
 3251SOL    HW1 9775   4.288   1.278   0.735
 3251SOL    HW2 9776   4.314   1.408   0.639
 3252SOL     OW 9777   5.017   1.228   1.423
 3252SOL    HW1 9778   5.054   1.155   1.365
 3252SOL    HW2 9779   5.069   1.233   1.508
 3253SOL     OW 9780   4.533   0.004   0.502
 3253SOL    HW1 9781   4.573   0.095   0.493
 3253SOL    HW2 9782   4.433   0.012   0.508
 3254SOL     OW 9783   3.921   0.976   1.264
 3254SOL    HW1 9784   4.010   0.931   1.250
 3254SOL    HW2 9785   3.848   0.911   1.245
 3255SOL     OW 9786   4.911   1.792   1.616
 3255SOL    HW1 9787   4.935   1.852   1.540
 3255SOL    HW2 9788   4.918   1.697   1.586
 3256SOL     OW 9789   4.041   0.251   1.801
 3256SOL    HW1 9790   4.112   0.322   1.807
 3256SOL    HW2 9791   3.953   0.290   1.829
 3257SOL     OW 9792   4.322   0.729   0.270
 3257SOL    HW1 9793   4.346   0.798   0.202
 3257SOL    HW2 9794   4.244   0.762   0.324
 3258SOL     OW 9795   5.005   0.345   0.944
 3258SOL    HW1 9796   4.919   0.295   0.931
 3258SOL    HW2 9797   5.067   0.291   1.000
 3259SOL     OW 9798   4.531   0.605   1.465
 3259SOL    HW1 9799   4.484   0.602   1.554
 3259SOL    HW2 9800   4.480   0.550   1.399
 3260SOL     OW 9801   5.118   0.469   1.674
 3260SOL    HW1 9802   5.098   0.512   1.762
 3260SOL    HW2 9803   5.196   0.407   1.683
 3261SOL     OW 9804   4.697   0.890   1.572
 3261SOL    HW1 9805   4.743   0.806   1.543
 3261SOL    HW2 9806   4.641   0.924   1.497
 3262SOL     OW 9807   4.715   0.410   1.242
 3262SOL    HW1 9808   4.638   0.444   1.296
 3262SOL    HW2 9809   4.681   0.359   1.163
 3263SOL     OW 9810   4.765   0.701   0.429
 3263SOL    HW1 9811   4.791   0.697   0.525
 3263SOL    HW2 9812   4.680   0.650   0.415
 3264SOL     OW 9813   3.800   0.811   0.789
 3264SOL    HW1 9814   3.899   0.799   0.798
 3264SOL    HW2 9815   3.776   0.906   0.810
 3265SOL     OW 9816   3.854   1.821   1.571
 3265SOL    HW1 9817   3.844   1.806   1.670
 3265SOL    HW2 9818   3.768   1.857   1.535
 3266SOL     OW 9819   4.589   0.348   0.195
 3266SOL    HW1 9820   4.648   0.411   0.146
 3266SOL    HW2 9821   4.608   0.254   0.166
 3267SOL     OW 9822   5.086   1.144   0.545
 3267SOL    HW1 9823   5.169   1.115   0.497
 3267SOL    HW2 9824   5.037   1.211   0.489
 3268SOL     OW 9825   4.274   0.196   0.885
 3268SOL    HW1 9826   4.269   0.191   0.985
 3268SOL    HW2 9827   4.276   0.292   0.856
 3269SOL     OW 9828   4.732   1.456   0.477
 3269SOL    HW1 9829   4.686   1.528   0.425
 3269SOL    HW2 9830   4.728   1.476   0.575
 3270SOL     OW 9831   4.075   1.801   0.853
 3270SOL    HW1 9832   4.125   1.715   0.859
 3270SOL    HW2 9833   4.140   1.878   0.850
 3271SOL     OW 9834   4.951   1.550   1.506
 3271SOL    HW1 9835   4.957   1.473   1.570
 3271SOL    HW2 9836   4.899   1.524   1.426
 3272SOL     OW 9837   4.045   0.943   0.242
 3272SOL    HW1 9838   4.127   0.982   0.200
 3272SOL    HW2 9839   4.018   0.861   0.193
 3273SOL     OW 9840   4.185   1.266   1.727
 3273SOL    HW1 9841   4.135   1.267   1.641
 3273SOL    HW2 9842   4.122   1.248   1.803
 3274SOL     OW 9843   4.835   1.776   0.237
 3274SOL    HW1 9844   4.775   1.714   0.287
 3274SOL    HW2 9845   4.866   1.732   0.152
 3275SOL     OW 9846   3.926   0.285   1.498
 3275SOL    HW1 9847   3.846   0.345   1.485
 3275SOL    HW2 9848   3.916   0.236   1.584
 3276SOL     OW 9849   5.356   1.377   0.081
 3276SOL    HW1 9850   5.324   1.471   0.071
 3276SOL    HW2 9851   5.280   1.314   0.069
 3277SOL     OW 9852   4.188   1.743   0.323
 3277SOL    HW1 9853   4.221   1.782   0.409
 3277SOL    HW2 9854   4.264   1.736   0.258
 3278SOL     OW 9855   3.973   1.785   1.241
 3278SOL    HW1 9856   4.030   1.720   1.291
 3278SOL    HW2 9857   3.957   1.752   1.148
 3279SOL     OW 9858   4.664   1.698   0.904
 3279SOL    HW1 9859   4.744   1.641   0.925
 3279SOL    HW2 9860   4.615   1.658   0.827
 3280SOL     OW 9861   4.106   0.700   0.480
 3280SOL    HW1 9862   4.151   0.610   0.477
 3280SOL    HW2 9863   4.012   0.689   0.513
 3281SOL     OW 9864   4.338   0.122   0.117
 3281SOL    HW1 9865   4.436   0.100   0.124
 3281SOL    HW2 9866   4.307   0.105   0.024
 3282SOL     OW 9867   4.505   0.264   1.749
 3282SOL    HW1 9868   4.572   0.203   1.792
 3282SOL    HW2 9869   4.432   0.283   1.814
 3283SOL     OW 9870   4.612   1.514   1.195
 3283SOL    HW1 9871   4.589   1.489   1.101
 3283SOL    HW2 9872   4.673   1.445   1.234
 3284SOL     OW 9873   4.527   1.402   0.924
 3284SOL    HW1 9874   4.617   1.416   0.882
 3284SOL    HW2 9875   4.456   1.404   0.853
 3285SOL     OW 9876   4.646   0.503   0.899
 3285SOL    HW1 9877   4.621   0.494   0.803
 3285SOL    HW2 9878   4.694   0.421   0.930
 3286SOL     OW 9879   4.263   0.064   0.512
 3286SOL    HW1 9880   4.182   0.065   0.570
 3286SOL    HW2 9881   4.266   0.147   0.457
 3287SOL     OW 9882   4.021   0.035   0.171
 3287SOL    HW1 9883   4.070   0.119   0.150
 3287SOL    HW2 9884   4.083  -0.030   0.216
 3288SOL     OW 9885   4.659   0.236   0.480
 3288SOL    HW1 9886   4.611   0.277   0.402
 3288SOL    HW2 9887   4.758   0.234   0.461
 3289SOL     OW 9888   4.800   0.683   1.464
 3289SOL    HW1 9889   4.720   0.622   1.467
 3289SOL    HW2 9890   4.881   0.630   1.440
 3290SOL     OW 9891   4.951   1.570   0.793
 3290SOL    HW1 9892   4.972   1.644   0.728
 3290SOL    HW2 9893   5.019   1.570   0.866
 3291SOL     OW 9894   4.183   1.152   0.741
 3291SOL    HW1 9895   4.112   1.125   0.806
 3291SOL    HW2 9896   4.157   1.124   0.648
 3292SOL     OW 9897   4.995   1.797   0.591
 3292SOL    HW1 9898   5.039   1.861   0.527
 3292SOL    HW2 9899   4.945   1.849   0.661
 3293SOL     OW 9900   4.756   0.549   0.016
 3293SOL    HW1 9901   4.715   0.631  -0.023
 3293SOL    HW2 9902   4.820   0.575   0.089
 3294SOL     OW 9903   3.802   0.556   1.386
 3294SOL    HW1 9904   3.894   0.555   1.345
 3294SOL    HW2 9905   3.796   0.630   1.453
 3295SOL     OW 9906   4.285   0.222   1.147
 3295SOL    HW1 9907   4.323   0.138   1.184
 3295SOL    HW2 9908   4.197   0.241   1.191
 3296SOL     OW 9909   4.590   0.454   0.642
 3296SOL    HW1 9910   4.558   0.526   0.580
 3296SOL    HW2 9911   4.614   0.373   0.589
 3297SOL     OW 9912   4.741   0.039   0.753
 3297SOL    HW1 9913   4.669   0.044   0.684
 3297SOL    HW2 9914   4.717  -0.030   0.822
 3298SOL     OW 9915   4.212   1.385   0.174
 3298SOL    HW1 9916   4.125   1.370   0.221
 3298SOL    HW2 9917   4.195   1.411   0.079
 3299SOL     OW 9918   5.114   0.575   0.078
 3299SOL    HW1 9919   5.060   0.554   0.159
 3299SOL    HW2 9920   5.205   0.534   0.087
 3300SOL     OW 9921   4.251   0.256   0.328
 3300SOL    HW1 9922   4.278   0.197   0.253
 3300SOL    HW2 9923   4.251   0.351   0.297
 3301SOL     OW 9924   4.788   1.347   1.340
 3301SOL    HW1 9925   4.708   1.324   1.395
 3301SOL    HW2 9926   4.871   1.321   1.389
 3302SOL     OW 9927   4.835   1.195   1.100
 3302SOL    HW1 9928   4.795   1.239   1.181
 3302SOL    HW2 9929   4.794   1.232   1.017
 3303SOL     OW 9930   4.639   0.089   1.402
 3303SOL    HW1 9931   4.664   0.069   1.307
 3303SOL    HW2 9932   4.711   0.145   1.444
 3304SOL     OW 9933   4.704   1.116   1.719
 3304SOL    HW1 9934   4.605   1.122   1.729
 3304SOL    HW2 9935   4.727   1.036   1.663
 3305SOL     OW 9936   4.429   1.050   0.368
 3305SOL    HW1 9937   4.415   1.057   0.467
 3305SOL    HW2 9938   4.513   0.999   0.350
 3306SOL     OW 9939   4.134   0.813   1.251
 3306SOL    HW1 9940   4.220   0.825   1.301
 3306SOL    HW2 9941   4.092   0.726   1.278
 3307SOL     OW 9942   4.998   0.386   1.262
 3307SOL    HW1 9943   5.019   0.460   1.326
 3307SOL    HW2 9944   4.909   0.403   1.219
 3308SOL     OW 9945   3.788   1.564   1.331
 3308SOL    HW1 9946   3.742   1.646   1.297
 3308SOL    HW2 9947   3.886   1.583   1.340
 3309SOL     OW 9948   4.091   1.100   0.501
 3309SOL    HW1 9949   4.084   1.183   0.445
 3309SOL    HW2 9950   4.095   1.020   0.441
 3310SOL     OW 9951   4.290   0.537   0.865
 3310SOL    HW1 9952   4.302   0.603   0.791
 3310SOL    HW2 9953   4.336   0.571   0.948
 3311SOL     OW 9954   4.976   1.348   0.388
 3311SOL    HW1 9955   5.026   1.425   0.428
 3311SOL    HW2 9956   4.881   1.350   0.420
 3312SOL     OW 9957   4.996   1.445   1.142
 3312SOL    HW1 9958   5.043   1.458   1.229
 3312SOL    HW2 9959   4.930   1.371   1.151
 3313SOL     OW 9960   4.078   1.510   1.329
 3313SOL    HW1 9961   4.057   1.466   1.242
 3313SOL    HW2 9962   4.175   1.536   1.332
 3314SOL     OW 9963   4.126   0.751   1.598
 3314SOL    HW1 9964   4.194   0.806   1.551
 3314SOL    HW2 9965   4.166   0.663   1.625
 3315SOL     OW 9966   4.737   0.105   1.770
 3315SOL    HW1 9967   4.743   0.190   1.718
 3315SOL    HW2 9968   4.769   0.029   1.713
 3316SOL     OW 9969   4.228   0.050   1.740
 3316SOL    HW1 9970   4.186  -0.007   1.670
 3316SOL    HW2 9971   4.162   0.119   1.772
 3317SOL     OW 9972   4.297   0.870   1.029
 3317SOL    HW1 9973   4.341   0.959   1.020
 3317SOL    HW2 9974   4.234   0.870   1.106
 3318SOL     OW 9975   5.084   0.862   1.045
 3318SOL    HW1 9976   5.009   0.862   0.979
 3318SOL    HW2 9977   5.121   0.770   1.054
 3319SOL     OW 9978   4.933   0.525   0.275
 3319SOL    HW1 9979   4.946   0.441   0.329
 3319SOL    HW2 9980   4.904   0.599   0.335
 3320SOL     OW 9981   4.031   0.213   1.231
 3320SOL    HW1 9982   4.008   0.250   1.321
 3320SOL    HW2 9983   4.001   0.118   1.225
 3321SOL     OW 9984   3.761   1.310   1.282
 3321SOL    HW1 9985   3.814   1.261   1.350
 3321SOL    HW2 9986   3.783   1.408   1.287
 3322SOL     OW 9987   4.456   0.634   1.064
 3322SOL    HW1 9988   4.515   0.608   0.988
 3322SOL    HW2 9989   4.428   0.730   1.053
 3323SOL     OW 9990   4.031   0.063   0.618
 3323SOL    HW1 9991   4.020   0.157   0.651
 3323SOL    HW2 9992   4.026   0.000   0.695
 3324SOL     OW 9993   5.346   0.367   0.374
 3324SOL    HW1 9994   5.348   0.291   0.438
 3324SOL    HW2 9995   5.298   0.444   0.414
 3325SOL     OW 9996   4.747   0.766   0.966
 3325SOL    HW1 9997   4.762   0.787   1.062
 3325SOL    HW2 9998   4.717   0.671   0.957
 3326SOL     OW 9999   4.704   1.573   1.700
 3326SOL    HW110000   4.684   1.617   1.612
 3326SOL    HW210001   4.743   1.482   1.684
 3327SOL     OW10002   4.074   0.898   1.804
 3327SOL    HW110003   4.150   0.942   1.852
 3327SOL    HW210004   4.109   0.851   1.722
 3328SOL     OW10005   5.027   0.838   0.042
 3328SOL    HW110006   5.061   0.745   0.057
 3328SOL    HW210007   5.045   0.865  -0.053
 3329SOL     OW10008   4.792   1.333   0.849
 3329SOL    HW110009   4.799   1.249   0.794
 3329SOL    HW210010   4.854   1.402   0.813
 3330SOL     OW10011   4.043   0.810   0.949
 3330SOL    HW110012   4.136   0.846   0.954
 3330SOL    HW210013   4.037   0.725   1.001
 3331SOL     OW10014   4.063   0.509   1.006
 3331SOL    HW110015   4.011   0.426   0.989
 3331SOL    HW210016   4.140   0.514   0.942
 3332SOL     OW10017   4.862   0.380   1.678
 3332SOL    HW110018   4.817   0.443   1.742
 3332SOL    HW210019   4.955   0.411   1.661
 3333SOL     OW10020   4.884   0.207   1.477
 3333SOL    HW110021   4.884   0.271   1.554
 3333SOL    HW210022   4.912   0.255   1.394
 3334SOL     OW10023   3.812   1.801   0.927
 3334SOL    HW110024   3.770   1.715   0.900
 3334SOL    HW210025   3.906   1.804   0.893
 3335SOL     OW10026   4.228   1.568   0.910
 3335SOL    HW110027   4.294   1.642   0.919
 3335SOL    HW210028   4.272   1.489   0.868
 3336SOL     OW10029   4.726   0.796   1.238
 3336SOL    HW110030   4.767   0.764   1.324
 3336SOL    HW210031   4.630   0.769   1.235
 3337SOL     OW10032   3.764   0.544   1.114
 3337SOL    HW110033   3.849   0.511   1.073
 3337SOL    HW210034   3.777   0.559   1.212
 3338SOL     OW10035   3.913   0.520   1.722
 3338SOL    HW110036   3.972   0.480   1.652
 3338SOL    HW210037   3.855   0.591   1.681
 3339SOL     OW10038   4.539   0.572   0.325
 3339SOL    HW110039   4.546   0.483   0.279
 3339SOL    HW210040   4.445   0.606   0.317
 3340SOL     OW10041   3.976   1.564   1.744
 3340SOL    HW110042   3.946   1.621   1.820
 3340SOL    HW210043   3.969   1.467   1.770
 3341SOL     OW10044   4.395   0.464   1.269
 3341SOL    HW110045   4.361   0.375   1.239
 3341SOL    HW210046   4.421   0.518   1.189
 3342SOL     OW10047   4.654   1.678   1.465
 3342SOL    HW110048   4.630   1.660   1.370
 3342SOL    HW210049   4.684   1.772   1.475
 3343SOL     OW10050   4.197   0.500   0.191
 3343SOL    HW110051   4.258   0.580   0.195
 3343SOL    HW210052   4.102   0.531   0.198
 3344SOL     OW10053   3.883   1.137   1.466
 3344SOL    HW110054   3.905   1.076   1.542
 3344SOL    HW210055   3.893   1.088   1.380
 3345SOL     OW10056   5.071   1.059   1.234
 3345SOL    HW110057   5.095   0.996   1.160
 3345SOL    HW210058   4.981   1.099   1.216
 3346SOL     OW10059   5.026   0.855   0.309
 3346SOL    HW110060   4.940   0.824   0.351
 3346SOL    HW210061   5.022   0.841   0.210
 3347SOL     OW10062   4.976   1.731   1.128
 3347SOL    HW110063   5.060   1.736   1.074
 3347SOL    HW210064   4.953   1.635   1.146
 3348SOL     OW10065   3.807   1.258   1.022
 3348SOL    HW110066   3.802   1.257   1.122
 3348SOL    HW210067   3.724   1.217   0.984
 3349SOL     OW10068   4.412   1.662   1.716
 3349SOL    HW110069   4.356   1.743   1.725
 3349SOL    HW210070   4.464   1.666   1.630
 3350SOL     OW10071   4.627   0.086   0.133
 3350SOL    HW110072   4.678   0.087   0.047
 3350SOL    HW210073   4.683   0.044   0.204
 3351SOL     OW10074   5.112   1.573   0.477
 3351SOL    HW110075   5.179   1.585   0.403
 3351SOL    HW210076   5.072   1.662   0.500
 3352SOL     OW10077   3.854   1.794   1.851
 3352SOL    HW110078   3.813   1.720   1.904
 3352SOL    HW210079   3.918   1.845   1.909
 3353SOL     OW10080   5.004   0.927   0.672
 3353SOL    HW110081   5.064   0.846   0.674
 3353SOL    HW210082   5.044   0.996   0.612
 3354SOL     OW10083   4.554   1.273   1.422
 3354SOL    HW110084   4.549   1.306   1.517
 3354SOL    HW210085   4.468   1.292   1.376
 3355SOL     OW10086   4.396   1.616   0.154
 3355SOL    HW110087   4.405   1.626   0.055
 3355SOL    HW210088   4.356   1.527   0.175
 3356SOL     OW10089   3.987   0.326   0.720
 3356SOL    HW110090   3.908   0.377   0.686
 3356SOL    HW210091   3.978   0.311   0.818
 3357SOL     OW10092   4.918   1.612   0.031
 3357SOL    HW110093   4.924   1.519   0.068
 3357SOL    HW210094   4.859   1.612  -0.049
 3358SOL     OW10095   4.546   1.002   1.372
 3358SOL    HW110096   4.586   1.001   1.280
 3358SOL    HW210097   4.556   1.094   1.412
 3359SOL     OW10098   4.640   0.910   0.291
 3359SOL    HW110099   4.703   0.948   0.223
 3359SOL    HW210100   4.680   0.827   0.330
 3360SOL     OW10101   4.096   1.288   1.490
 3360SOL    HW110102   4.083   1.381   1.456
 3360SOL    HW210103   4.012   1.236   1.477
 3361SOL     OW10104   4.763   1.098   0.696
 3361SOL    HW110105   4.693   1.051   0.750
 3361SOL    HW210106   4.822   1.030   0.653
 3362SOL     OW10107   4.738   0.236   0.971
 3362SOL    HW110108   4.730   0.200   0.878
 3362SOL    HW210109   4.736   0.160   1.036
 3363SOL     OW10110   4.314   1.487   0.491
 3363SOL    HW110111   4.356   1.429   0.421
 3363SOL    HW210112   4.270   1.566   0.447
 3364SOL     OW10113   3.979   1.348   0.290
 3364SOL    HW110114   3.883   1.349   0.263
 3364SOL    HW210115   3.991   1.401   0.374
 3365SOL     OW10116   3.829   1.013   1.726
 3365SOL    HW110117   3.752   0.980   1.780
 3365SOL    HW210118   3.914   0.983   1.768
 3366SOL     OW10119   4.396   0.203   1.489
 3366SOL    HW110120   4.486   0.187   1.449
 3366SOL    HW210121   4.404   0.208   1.588
 3367SOL     OW10122   3.799   0.345   0.033
 3367SOL    HW110123   3.707   0.317   0.004
 3367SOL    HW210124   3.830   0.422  -0.023
 3368SOL     OW10125   5.164   0.856   1.398
 3368SOL    HW110126   5.107   0.908   1.335
 3368SOL    HW210127   5.260   0.868   1.374
 3369SOL     OW10128   3.796   0.166   0.318
 3369SOL    HW110129   3.779   0.249   0.264
 3369SOL    HW210130   3.886   0.129   0.296
 3370SOL     OW10131   4.907   1.335   0.119
 3370SOL    HW110132   4.808   1.324   0.121
 3370SOL    HW210133   4.941   1.350   0.212
 3371SOL     OW10134   4.337   0.842   1.431
 3371SOL    HW110135   4.393   0.923   1.414
 3371SOL    HW210136   4.396   0.762   1.434
 3372SOL     OW10137   4.440   0.565   1.708
 3372SOL    HW110138   4.459   0.630   1.782
 3372SOL    HW210139   4.500   0.485   1.717
 3373SOL     OW10140   5.174   1.220   1.633
 3373SOL    HW110141   5.165   1.210   1.732
 3373SOL    HW210142   5.270   1.213   1.607
 3374SOL     OW10143   4.114   1.741   1.560
 3374SOL    HW110144   4.023   1.782   1.558
 3374SOL    HW210145   4.107   1.647   1.592
 3375SOL     OW10146   4.949   0.325   0.449
 3375SOL    HW110147   5.014   0.251   0.438
 3375SOL    HW210148   4.969   0.375   0.533
 3376SOL     OW10149   4.318   0.745   0.652
 3376SOL    HW110150   4.368   0.830   0.633
 3376SOL    HW210151   4.230   0.747   0.604
 3377SOL     OW10152   4.583   1.374   0.016
 3377SOL    HW110153   4.537   1.389   0.104
 3377SOL    HW210154   4.627   1.459  -0.014
 3378SOL     OW10155   4.385   1.790   0.953
 3378SOL    HW110156   4.339   1.878   0.940
 3378SOL    HW210157   4.484   1.802   0.946
 3379SOL     OW10158   4.583   0.956   0.861
 3379SOL    HW110159   4.637   0.887   0.909
 3379SOL    HW210160   4.551   1.025   0.927
 3380SOL     OW10161   4.807   0.984   0.087
 3380SOL    HW110162   4.784   1.037   0.005
 3380SOL    HW210163   4.888   0.928   0.068
 3381SOL     OW10164   3.945   1.314   1.844
 3381SOL    HW110165   3.880   1.241   1.823
 3381SOL    HW210166   3.949   1.328   1.942
 3382SOL     OW10167   3.803   1.240   0.653
 3382SOL    HW110168   3.802   1.193   0.741
 3382SOL    HW210169   3.885   1.212   0.602
 3383SOL     OW10170   4.396   1.391   1.624
 3383SOL    HW110171   4.318   1.341   1.662
 3383SOL    HW210172   4.393   1.486   1.655
 3384SOL     OW10173   4.152   0.424   0.520
 3384SOL    HW110174   4.182   0.352   0.458
 3384SOL    HW210175   4.113   0.384   0.603
 3385SOL     OW10176   4.041   0.547   1.280
 3385SOL    HW110177   4.079   0.488   1.352
 3385SOL    HW210178   4.081   0.521   1.192
 3386SOL     OW10179   4.536   1.586   0.687
 3386SOL    HW110180   4.568   1.596   0.593
 3386SOL    HW210181   4.457   1.524   0.689
 3387SOL     OW10182   5.148   0.214   1.112
 3387SOL    HW110183   5.200   0.149   1.167
 3387SOL    HW210184   5.099   0.277   1.173
 3388SOL     OW10185   4.725   0.034   1.154
 3388SOL    HW110186   4.662  -0.038   1.123
 3388SOL    HW210187   4.818  -0.002   1.154
 3389SOL     OW10188   4.494   1.330   0.301
 3389SOL    HW110189   4.448   1.243   0.318
 3389SOL    HW210190   4.585   1.327   0.342
 3390SOL     OW10191   4.342   1.567   1.284
 3390SOL    HW110192   4.337   1.649   1.341
 3390SOL    HW210193   4.431   1.564   1.239
 3391SOL     OW10194   3.763   1.077   0.300
 3391SOL    HW110195   3.862   1.066   0.291
 3391SOL    HW210196   3.723   0.991   0.332
 3392SOL     OW10197   4.599   1.646   0.337
 3392SOL    HW110198   4.522   1.611   0.283
 3392SOL    HW210199   4.567   1.717   0.399
 3393SOL     OW10200   3.954   0.628   1.975
 3393SOL    HW110201   3.861   0.626   2.012
 3393SOL    HW210202   3.955   0.589   1.883
 3394SOL     OW10203   3.949   0.275   2.858
 3394SOL    HW110204   3.984   0.258   2.950
 3394SOL    HW210205   3.861   0.230   2.846
 3395SOL     OW10206   3.743   0.368   2.509
 3395SOL    HW110207   3.661   0.411   2.548
 3395SOL    HW210208   3.715   0.295   2.446
 3396SOL     OW10209   4.293   1.275   3.027
 3396SOL    HW110210   4.200   1.268   2.990
 3396SOL    HW210211   4.304   1.364   3.071
 3397SOL     OW10212   5.279   1.511   2.565
 3397SOL    HW110213   5.222   1.495   2.646
 3397SOL    HW210214   5.220   1.521   2.485
 3398SOL     OW10215   4.859   0.703   2.579
 3398SOL    HW110216   4.916   0.781   2.554
 3398SOL    HW210217   4.799   0.729   2.655
 3399SOL     OW10218   4.492   1.144   2.885
 3399SOL    HW110219   4.414   1.161   2.945
 3399SOL    HW210220   4.526   1.231   2.849
 3400SOL     OW10221   4.574   0.798   3.685
 3400SOL    HW110222   4.570   0.874   3.750
 3400SOL    HW210223   4.596   0.834   3.594
 3401SOL     OW10224   4.409   1.012   2.527
 3401SOL    HW110225   4.478   0.996   2.597
 3401SOL    HW210226   4.336   1.069   2.565
 3402SOL     OW10227   4.410   1.161   3.665
 3402SOL    HW110228   4.470   1.240   3.679
 3402SOL    HW210229   4.324   1.192   3.624
 3403SOL     OW10230   4.059   1.435   2.923
 3403SOL    HW110231   3.981   1.404   2.870
 3403SOL    HW210232   4.117   1.493   2.866
 3404SOL     OW10233   4.162   0.392   3.361
 3404SOL    HW110234   4.244   0.336   3.370
 3404SOL    HW210235   4.081   0.334   3.365
 3405SOL     OW10236   3.955   1.713   2.345
 3405SOL    HW110237   3.989   1.790   2.399
 3405SOL    HW210238   3.999   1.713   2.255
 3406SOL     OW10239   4.851   1.341   3.552
 3406SOL    HW110240   4.898   1.341   3.640
 3406SOL    HW210241   4.803   1.254   3.541
 3407SOL     OW10242   3.954   1.434   2.400
 3407SOL    HW110243   3.928   1.530   2.400
 3407SOL    HW210244   3.883   1.380   2.445
 3408SOL     OW10245   3.964   1.091   2.748
 3408SOL    HW110246   3.978   1.007   2.800
 3408SOL    HW210247   3.909   1.155   2.803
 3409SOL     OW10248   4.344   1.786   3.301
 3409SOL    HW110249   4.252   1.769   3.336
 3409SOL    HW210250   4.372   1.878   3.327
 3410SOL     OW10251   4.330   0.964   1.985
 3410SOL    HW110252   4.337   1.048   1.931
 3410SOL    HW210253   4.376   0.977   2.073
 3411SOL     OW10254   3.846   0.643   2.425
 3411SOL    HW110255   3.801   0.555   2.442
 3411SOL    HW210256   3.845   0.697   2.509
 3412SOL     OW10257   3.751   1.596   1.979
 3412SOL    HW110258   3.732   1.500   2.000
 3412SOL    HW210259   3.718   1.654   2.054
 3413SOL     OW10260   5.413   0.922   2.474
 3413SOL    HW110261   5.508   0.893   2.482
 3413SOL    HW210262   5.405   0.987   2.399
 3414SOL     OW10263   3.837   0.737   3.459
 3414SOL    HW110264   3.925   0.724   3.504
 3414SOL    HW210265   3.824   0.834   3.437
 3415SOL     OW10266   4.337   1.365   2.588
 3415SOL    HW110267   4.288   1.278   2.597
 3415SOL    HW210268   4.314   1.408   2.501
 3416SOL     OW10269   5.017   1.228   3.285
 3416SOL    HW110270   5.054   1.155   3.227
 3416SOL    HW210271   5.069   1.233   3.370
 3417SOL     OW10272   4.533   0.004   2.364
 3417SOL    HW110273   4.573   0.095   2.355
 3417SOL    HW210274   4.433   0.012   2.370
 3418SOL     OW10275   3.921   0.976   3.126
 3418SOL    HW110276   4.010   0.931   3.112
 3418SOL    HW210277   3.848   0.911   3.107
 3419SOL     OW10278   4.911   1.792   3.478
 3419SOL    HW110279   4.935   1.852   3.402
 3419SOL    HW210280   4.918   1.697   3.448
 3420SOL     OW10281   4.041   0.251   3.663
 3420SOL    HW110282   4.112   0.322   3.669
 3420SOL    HW210283   3.953   0.290   3.691
 3421SOL     OW10284   4.322   0.729   2.132
 3421SOL    HW110285   4.346   0.798   2.064
 3421SOL    HW210286   4.244   0.762   2.186
 3422SOL     OW10287   5.005   0.345   2.806
 3422SOL    HW110288   4.919   0.295   2.793
 3422SOL    HW210289   5.067   0.291   2.862
 3423SOL     OW10290   4.531   0.605   3.327
 3423SOL    HW110291   4.484   0.602   3.416
 3423SOL    HW210292   4.480   0.550   3.261
 3424SOL     OW10293   5.118   0.469   3.536
 3424SOL    HW110294   5.098   0.512   3.624
 3424SOL    HW210295   5.196   0.407   3.545
 3425SOL     OW10296   4.697   0.890   3.434
 3425SOL    HW110297   4.743   0.806   3.405
 3425SOL    HW210298   4.641   0.924   3.359
 3426SOL     OW10299   4.715   0.410   3.104
 3426SOL    HW110300   4.638   0.444   3.158
 3426SOL    HW210301   4.681   0.359   3.025
 3427SOL     OW10302   4.765   0.701   2.291
 3427SOL    HW110303   4.791   0.697   2.387
 3427SOL    HW210304   4.680   0.650   2.277
 3428SOL     OW10305   3.800   0.811   2.651
 3428SOL    HW110306   3.899   0.799   2.660
 3428SOL    HW210307   3.776   0.906   2.672
 3429SOL     OW10308   3.854   1.821   3.433
 3429SOL    HW110309   3.844   1.806   3.532
 3429SOL    HW210310   3.768   1.857   3.397
 3430SOL     OW10311   4.589   0.348   2.057
 3430SOL    HW110312   4.648   0.411   2.008
 3430SOL    HW210313   4.608   0.254   2.028
 3431SOL     OW10314   5.086   1.144   2.407
 3431SOL    HW110315   5.169   1.115   2.359
 3431SOL    HW210316   5.037   1.211   2.351
 3432SOL     OW10317   4.274   0.196   2.747
 3432SOL    HW110318   4.269   0.191   2.847
 3432SOL    HW210319   4.276   0.292   2.718
 3433SOL     OW10320   4.732   1.456   2.339
 3433SOL    HW110321   4.686   1.528   2.287
 3433SOL    HW210322   4.728   1.476   2.437
 3434SOL     OW10323   4.075   1.801   2.715
 3434SOL    HW110324   4.125   1.715   2.721
 3434SOL    HW210325   4.140   1.878   2.712
 3435SOL     OW10326   4.951   1.550   3.368
 3435SOL    HW110327   4.957   1.473   3.432
 3435SOL    HW210328   4.899   1.524   3.288
 3436SOL     OW10329   4.045   0.943   2.104
 3436SOL    HW110330   4.127   0.982   2.062
 3436SOL    HW210331   4.018   0.861   2.055
 3437SOL     OW10332   4.185   1.266   3.589
 3437SOL    HW110333   4.135   1.267   3.503
 3437SOL    HW210334   4.122   1.248   3.665
 3438SOL     OW10335   4.835   1.776   2.099
 3438SOL    HW110336   4.775   1.714   2.149
 3438SOL    HW210337   4.866   1.732   2.014
 3439SOL     OW10338   3.926   0.285   3.360
 3439SOL    HW110339   3.846   0.345   3.347
 3439SOL    HW210340   3.916   0.236   3.446
 3440SOL     OW10341   4.188   1.743   2.185
 3440SOL    HW110342   4.221   1.782   2.271
 3440SOL    HW210343   4.264   1.736   2.120
 3441SOL     OW10344   3.973   1.785   3.103
 3441SOL    HW110345   4.030   1.720   3.153
 3441SOL    HW210346   3.957   1.752   3.010
 3442SOL     OW10347   4.664   1.698   2.766
 3442SOL    HW110348   4.744   1.641   2.787
 3442SOL    HW210349   4.615   1.658   2.689
 3443SOL     OW10350   4.106   0.700   2.342
 3443SOL    HW110351   4.151   0.610   2.339
 3443SOL    HW210352   4.012   0.689   2.375
 3444SOL     OW10353   4.338   0.122   1.979
 3444SOL    HW110354   4.436   0.100   1.986
 3444SOL    HW210355   4.307   0.105   1.886
 3445SOL     OW10356   4.505   0.264   3.611
 3445SOL    HW110357   4.572   0.203   3.654
 3445SOL    HW210358   4.432   0.283   3.676
 3446SOL     OW10359   4.612   1.514   3.057
 3446SOL    HW110360   4.589   1.489   2.963
 3446SOL    HW210361   4.673   1.445   3.096
 3447SOL     OW10362   4.527   1.402   2.786
 3447SOL    HW110363   4.617   1.416   2.744
 3447SOL    HW210364   4.456   1.404   2.715
 3448SOL     OW10365   4.646   0.503   2.761
 3448SOL    HW110366   4.621   0.494   2.665
 3448SOL    HW210367   4.694   0.421   2.792
 3449SOL     OW10368   4.263   0.064   2.374
 3449SOL    HW110369   4.182   0.065   2.432
 3449SOL    HW210370   4.266   0.147   2.319
 3450SOL     OW10371   5.158   1.188   1.903
 3450SOL    HW110372   5.190   1.112   1.960
 3450SOL    HW210373   5.066   1.215   1.933
 3451SOL     OW10374   4.021   0.035   2.033
 3451SOL    HW110375   4.070   0.119   2.012
 3451SOL    HW210376   4.083  -0.030   2.078
 3452SOL     OW10377   4.659   0.236   2.342
 3452SOL    HW110378   4.611   0.277   2.264
 3452SOL    HW210379   4.758   0.234   2.323
 3453SOL     OW10380   4.800   0.683   3.326
 3453SOL    HW110381   4.720   0.622   3.329
 3453SOL    HW210382   4.881   0.630   3.302
 3454SOL     OW10383   4.951   1.570   2.655
 3454SOL    HW110384   4.972   1.644   2.590
 3454SOL    HW210385   5.019   1.570   2.728
 3455SOL     OW10386   4.183   1.152   2.603
 3455SOL    HW110387   4.112   1.125   2.668
 3455SOL    HW210388   4.157   1.124   2.510
 3456SOL     OW10389   4.995   1.797   2.453
 3456SOL    HW110390   5.039   1.861   2.389
 3456SOL    HW210391   4.945   1.849   2.523
 3457SOL     OW10392   4.756   0.549   1.878
 3457SOL    HW110393   4.715   0.631   1.839
 3457SOL    HW210394   4.820   0.575   1.951
 3458SOL     OW10395   3.802   0.556   3.248
 3458SOL    HW110396   3.894   0.555   3.207
 3458SOL    HW210397   3.796   0.630   3.315
 3459SOL     OW10398   4.285   0.222   3.009
 3459SOL    HW110399   4.323   0.138   3.046
 3459SOL    HW210400   4.197   0.241   3.053
 3460SOL     OW10401   4.590   0.454   2.504
 3460SOL    HW110402   4.558   0.526   2.442
 3460SOL    HW210403   4.614   0.373   2.451
 3461SOL     OW10404   4.741   0.039   2.615
 3461SOL    HW110405   4.669   0.044   2.546
 3461SOL    HW210406   4.717  -0.030   2.684
 3462SOL     OW10407   4.212   1.385   2.036
 3462SOL    HW110408   4.125   1.370   2.083
 3462SOL    HW210409   4.195   1.411   1.941
 3463SOL     OW10410   5.114   0.575   1.940
 3463SOL    HW110411   5.060   0.554   2.021
 3463SOL    HW210412   5.205   0.534   1.949
 3464SOL     OW10413   4.251   0.256   2.190
 3464SOL    HW110414   4.278   0.197   2.115
 3464SOL    HW210415   4.251   0.351   2.159
 3465SOL     OW10416   4.788   1.347   3.202
 3465SOL    HW110417   4.708   1.324   3.257
 3465SOL    HW210418   4.871   1.321   3.251
 3466SOL     OW10419   4.835   1.195   2.962
 3466SOL    HW110420   4.795   1.239   3.043
 3466SOL    HW210421   4.794   1.232   2.879
 3467SOL     OW10422   4.639   0.089   3.264
 3467SOL    HW110423   4.664   0.069   3.169
 3467SOL    HW210424   4.711   0.145   3.306
 3468SOL     OW10425   4.704   1.116   3.581
 3468SOL    HW110426   4.605   1.122   3.591
 3468SOL    HW210427   4.727   1.036   3.525
 3469SOL     OW10428   4.429   1.050   2.230
 3469SOL    HW110429   4.415   1.057   2.329
 3469SOL    HW210430   4.513   0.999   2.212
 3470SOL     OW10431   4.134   0.813   3.113
 3470SOL    HW110432   4.220   0.825   3.163
 3470SOL    HW210433   4.092   0.726   3.140
 3471SOL     OW10434   4.998   0.386   3.124
 3471SOL    HW110435   5.019   0.460   3.188
 3471SOL    HW210436   4.909   0.403   3.081
 3472SOL     OW10437   3.788   1.564   3.193
 3472SOL    HW110438   3.742   1.646   3.159
 3472SOL    HW210439   3.886   1.583   3.202
 3473SOL     OW10440   4.091   1.100   2.363
 3473SOL    HW110441   4.084   1.183   2.307
 3473SOL    HW210442   4.095   1.020   2.303
 3474SOL     OW10443   4.290   0.537   2.727
 3474SOL    HW110444   4.302   0.603   2.653
 3474SOL    HW210445   4.336   0.571   2.810
 3475SOL     OW10446   4.976   1.348   2.250
 3475SOL    HW110447   5.026   1.425   2.290
 3475SOL    HW210448   4.881   1.350   2.282
 3476SOL     OW10449   4.996   1.445   3.004
 3476SOL    HW110450   5.043   1.458   3.091
 3476SOL    HW210451   4.930   1.371   3.013
 3477SOL     OW10452   4.078   1.510   3.191
 3477SOL    HW110453   4.057   1.466   3.104
 3477SOL    HW210454   4.175   1.536   3.194
 3478SOL     OW10455   4.126   0.751   3.460
 3478SOL    HW110456   4.194   0.806   3.413
 3478SOL    HW210457   4.166   0.663   3.487
 3479SOL     OW10458   4.737   0.105   3.632
 3479SOL    HW110459   4.743   0.190   3.580
 3479SOL    HW210460   4.769   0.029   3.575
 3480SOL     OW10461   4.228   0.050   3.602
 3480SOL    HW110462   4.186  -0.007   3.532
 3480SOL    HW210463   4.162   0.119   3.634
 3481SOL     OW10464   4.297   0.870   2.891
 3481SOL    HW110465   4.341   0.959   2.882
 3481SOL    HW210466   4.234   0.870   2.968
 3482SOL     OW10467   5.084   0.862   2.907
 3482SOL    HW110468   5.009   0.862   2.841
 3482SOL    HW210469   5.121   0.770   2.916
 3483SOL     OW10470   4.933   0.525   2.137
 3483SOL    HW110471   4.946   0.441   2.191
 3483SOL    HW210472   4.904   0.599   2.197
 3484SOL     OW10473   4.031   0.213   3.093
 3484SOL    HW110474   4.008   0.250   3.183
 3484SOL    HW210475   4.001   0.118   3.087
 3485SOL     OW10476   3.761   1.310   3.144
 3485SOL    HW110477   3.814   1.261   3.212
 3485SOL    HW210478   3.783   1.408   3.149
 3486SOL     OW10479   4.456   0.634   2.926
 3486SOL    HW110480   4.515   0.608   2.850
 3486SOL    HW210481   4.428   0.730   2.915
 3487SOL     OW10482   4.031   0.063   2.480
 3487SOL    HW110483   4.020   0.157   2.513
 3487SOL    HW210484   4.026   0.000   2.557
 3488SOL     OW10485   5.346   0.367   2.236
 3488SOL    HW110486   5.348   0.291   2.300
 3488SOL    HW210487   5.298   0.444   2.276
 3489SOL     OW10488   4.747   0.766   2.828
 3489SOL    HW110489   4.762   0.787   2.924
 3489SOL    HW210490   4.717   0.671   2.819
 3490SOL     OW10491   4.704   1.573   3.562
 3490SOL    HW110492   4.684   1.617   3.474
 3490SOL    HW210493   4.743   1.482   3.546
 3491SOL     OW10494   4.074   0.898   3.666
 3491SOL    HW110495   4.150   0.942   3.714
 3491SOL    HW210496   4.109   0.851   3.584
 3492SOL     OW10497   5.027   0.838   1.904
 3492SOL    HW110498   5.061   0.745   1.919
 3492SOL    HW210499   5.045   0.865   1.809
 3493SOL     OW10500   4.792   1.333   2.711
 3493SOL    HW110501   4.799   1.249   2.656
 3493SOL    HW210502   4.854   1.402   2.675
 3494SOL     OW10503   4.043   0.810   2.811
 3494SOL    HW110504   4.136   0.846   2.816
 3494SOL    HW210505   4.037   0.725   2.863
 3495SOL     OW10506   4.063   0.509   2.868
 3495SOL    HW110507   4.011   0.426   2.851
 3495SOL    HW210508   4.140   0.514   2.804
 3496SOL     OW10509   4.862   0.380   3.540
 3496SOL    HW110510   4.817   0.443   3.604
 3496SOL    HW210511   4.955   0.411   3.523
 3497SOL     OW10512   4.884   0.207   3.339
 3497SOL    HW110513   4.884   0.271   3.416
 3497SOL    HW210514   4.912   0.255   3.256
 3498SOL     OW10515   3.732   1.326   2.062
 3498SOL    HW110516   3.639   1.347   2.031
 3498SOL    HW210517   3.742   1.227   2.075
 3499SOL     OW10518   3.812   1.801   2.789
 3499SOL    HW110519   3.770   1.715   2.762
 3499SOL    HW210520   3.906   1.804   2.755
 3500SOL     OW10521   4.228   1.568   2.772
 3500SOL    HW110522   4.294   1.642   2.781
 3500SOL    HW210523   4.272   1.489   2.730
 3501SOL     OW10524   4.726   0.796   3.100
 3501SOL    HW110525   4.767   0.764   3.186
 3501SOL    HW210526   4.630   0.769   3.097
 3502SOL     OW10527   3.764   0.544   2.976
 3502SOL    HW110528   3.849   0.511   2.935
 3502SOL    HW210529   3.777   0.559   3.074
 3503SOL     OW10530   3.913   0.520   3.584
 3503SOL    HW110531   3.972   0.480   3.514
 3503SOL    HW210532   3.855   0.591   3.543
 3504SOL     OW10533   4.539   0.572   2.187
 3504SOL    HW110534   4.546   0.483   2.141
 3504SOL    HW210535   4.445   0.606   2.179
 3505SOL     OW10536   3.976   1.564   3.606
 3505SOL    HW110537   3.946   1.621   3.682
 3505SOL    HW210538   3.969   1.467   3.632
 3506SOL     OW10539   4.395   0.464   3.131
 3506SOL    HW110540   4.361   0.375   3.101
 3506SOL    HW210541   4.421   0.518   3.051
 3507SOL     OW10542   4.654   1.678   3.327
 3507SOL    HW110543   4.630   1.660   3.232
 3507SOL    HW210544   4.684   1.772   3.337
 3508SOL     OW10545   4.197   0.500   2.053
 3508SOL    HW110546   4.258   0.580   2.057
 3508SOL    HW210547   4.102   0.531   2.060
 3509SOL     OW10548   3.883   1.137   3.328
 3509SOL    HW110549   3.905   1.076   3.404
 3509SOL    HW210550   3.893   1.088   3.242
 3510SOL     OW10551   5.071   1.059   3.096
 3510SOL    HW110552   5.095   0.996   3.022
 3510SOL    HW210553   4.981   1.099   3.078
 3511SOL     OW10554   5.026   0.855   2.171
 3511SOL    HW110555   4.940   0.824   2.213
 3511SOL    HW210556   5.022   0.841   2.072
 3512SOL     OW10557   4.976   1.731   2.990
 3512SOL    HW110558   5.060   1.736   2.936
 3512SOL    HW210559   4.953   1.635   3.008
 3513SOL     OW10560   3.807   1.258   2.884
 3513SOL    HW110561   3.802   1.257   2.984
 3513SOL    HW210562   3.724   1.217   2.846
 3514SOL     OW10563   4.412   1.662   3.578
 3514SOL    HW110564   4.356   1.743   3.587
 3514SOL    HW210565   4.464   1.666   3.492
 3515SOL     OW10566   5.112   1.573   2.339
 3515SOL    HW110567   5.179   1.585   2.265
 3515SOL    HW210568   5.072   1.662   2.362
 3516SOL     OW10569   3.854   1.794   3.713
 3516SOL    HW110570   3.813   1.720   3.766
 3516SOL    HW210571   3.918   1.845   3.771
 3517SOL     OW10572   5.004   0.927   2.534
 3517SOL    HW110573   5.064   0.846   2.536
 3517SOL    HW210574   5.044   0.996   2.474
 3518SOL     OW10575   4.554   1.273   3.284
 3518SOL    HW110576   4.549   1.306   3.379
 3518SOL    HW210577   4.468   1.292   3.238
 3519SOL     OW10578   4.396   1.616   2.016
 3519SOL    HW110579   4.405   1.626   1.917
 3519SOL    HW210580   4.356   1.527   2.037
 3520SOL     OW10581   3.987   0.326   2.582
 3520SOL    HW110582   3.908   0.377   2.548
 3520SOL    HW210583   3.978   0.311   2.680
 3521SOL     OW10584   4.918   1.612   1.893
 3521SOL    HW110585   4.924   1.519   1.930
 3521SOL    HW210586   4.859   1.612   1.813
 3522SOL     OW10587   4.546   1.002   3.234
 3522SOL    HW110588   4.586   1.001   3.142
 3522SOL    HW210589   4.556   1.094   3.274
 3523SOL     OW10590   4.640   0.910   2.153
 3523SOL    HW110591   4.703   0.948   2.085
 3523SOL    HW210592   4.680   0.827   2.192
 3524SOL     OW10593   4.096   1.288   3.352
 3524SOL    HW110594   4.083   1.381   3.318
 3524SOL    HW210595   4.012   1.236   3.339
 3525SOL     OW10596   4.763   1.098   2.558
 3525SOL    HW110597   4.693   1.051   2.612
 3525SOL    HW210598   4.822   1.030   2.515
 3526SOL     OW10599   4.738   0.236   2.833
 3526SOL    HW110600   4.730   0.200   2.740
 3526SOL    HW210601   4.736   0.160   2.898
 3527SOL     OW10602   4.314   1.487   2.353
 3527SOL    HW110603   4.356   1.429   2.283
 3527SOL    HW210604   4.270   1.566   2.309
 3528SOL     OW10605   3.979   1.348   2.152
 3528SOL    HW110606   3.883   1.349   2.125
 3528SOL    HW210607   3.991   1.401   2.236
 3529SOL     OW10608   3.829   1.013   3.588
 3529SOL    HW110609   3.752   0.980   3.642
 3529SOL    HW210610   3.914   0.983   3.630
 3530SOL     OW10611   4.396   0.203   3.351
 3530SOL    HW110612   4.486   0.187   3.311
 3530SOL    HW210613   4.404   0.208   3.450
 3531SOL     OW10614   3.799   0.345   1.895
 3531SOL    HW110615   3.707   0.317   1.866
 3531SOL    HW210616   3.830   0.422   1.839
 3532SOL     OW10617   5.164   0.856   3.260
 3532SOL    HW110618   5.107   0.908   3.197
 3532SOL    HW210619   5.260   0.868   3.236
 3533SOL     OW10620   3.796   0.166   2.180
 3533SOL    HW110621   3.779   0.249   2.126
 3533SOL    HW210622   3.886   0.129   2.158
 3534SOL     OW10623   4.907   1.335   1.981
 3534SOL    HW110624   4.808   1.324   1.983
 3534SOL    HW210625   4.941   1.350   2.074
 3535SOL     OW10626   4.337   0.842   3.293
 3535SOL    HW110627   4.393   0.923   3.276
 3535SOL    HW210628   4.396   0.762   3.296
 3536SOL     OW10629   4.440   0.565   3.570
 3536SOL    HW110630   4.459   0.630   3.644
 3536SOL    HW210631   4.500   0.485   3.579
 3537SOL     OW10632   5.174   1.220   3.495
 3537SOL    HW110633   5.165   1.210   3.594
 3537SOL    HW210634   5.270   1.213   3.469
 3538SOL     OW10635   4.114   1.741   3.422
 3538SOL    HW110636   4.023   1.782   3.420
 3538SOL    HW210637   4.107   1.647   3.454
 3539SOL     OW10638   4.949   0.325   2.311
 3539SOL    HW110639   5.014   0.251   2.300
 3539SOL    HW210640   4.969   0.375   2.395
 3540SOL     OW10641   4.318   0.745   2.514
 3540SOL    HW110642   4.368   0.830   2.495
 3540SOL    HW210643   4.230   0.747   2.466
 3541SOL     OW10644   4.583   1.374   1.878
 3541SOL    HW110645   4.537   1.389   1.966
 3541SOL    HW210646   4.627   1.459   1.848
 3542SOL     OW10647   4.385   1.790   2.815
 3542SOL    HW110648   4.339   1.878   2.802
 3542SOL    HW210649   4.484   1.802   2.808
 3543SOL     OW10650   4.583   0.956   2.723
 3543SOL    HW110651   4.637   0.887   2.771
 3543SOL    HW210652   4.551   1.025   2.789
 3544SOL     OW10653   4.807   0.984   1.949
 3544SOL    HW110654   4.784   1.037   1.867
 3544SOL    HW210655   4.888   0.928   1.930
 3545SOL     OW10656   3.945   1.314   3.706
 3545SOL    HW110657   3.880   1.241   3.685
 3545SOL    HW210658   3.949   1.328   3.804
 3546SOL     OW10659   3.803   1.240   2.515
 3546SOL    HW110660   3.802   1.193   2.603
 3546SOL    HW210661   3.885   1.212   2.464
 3547SOL     OW10662   4.396   1.391   3.486
 3547SOL    HW110663   4.318   1.341   3.524
 3547SOL    HW210664   4.393   1.486   3.517
 3548SOL     OW10665   4.152   0.424   2.382
 3548SOL    HW110666   4.182   0.352   2.320
 3548SOL    HW210667   4.113   0.384   2.465
 3549SOL     OW10668   4.041   0.547   3.142
 3549SOL    HW110669   4.079   0.488   3.214
 3549SOL    HW210670   4.081   0.521   3.054
 3550SOL     OW10671   4.536   1.586   2.549
 3550SOL    HW110672   4.568   1.596   2.455
 3550SOL    HW210673   4.457   1.524   2.551
 3551SOL     OW10674   5.148   0.214   2.974
 3551SOL    HW110675   5.200   0.149   3.029
 3551SOL    HW210676   5.099   0.277   3.035
 3552SOL     OW10677   4.725   0.034   3.016
 3552SOL    HW110678   4.662  -0.038   2.985
 3552SOL    HW210679   4.818  -0.002   3.016
 3553SOL     OW10680   4.494   1.330   2.163
 3553SOL    HW110681   4.448   1.243   2.180
 3553SOL    HW210682   4.585   1.327   2.204
 3554SOL     OW10683   4.342   1.567   3.146
 3554SOL    HW110684   4.337   1.649   3.203
 3554SOL    HW210685   4.431   1.564   3.101
 3555SOL     OW10686   3.763   1.077   2.162
 3555SOL    HW110687   3.862   1.066   2.153
 3555SOL    HW210688   3.723   0.991   2.194
 3556SOL     OW10689   4.599   1.646   2.199
 3556SOL    HW110690   4.522   1.611   2.145
 3556SOL    HW210691   4.567   1.717   2.261
 3557SOL     OW10692   3.954   0.628   3.837
 3557SOL    HW110693   3.861   0.626   3.874
 3557SOL    HW210694   3.955   0.589   3.745
 3558SOL     OW10695   3.949   0.275   4.720
 3558SOL    HW110696   3.984   0.258   4.812
 3558SOL    HW210697   3.861   0.230   4.708
 3559SOL     OW10698   3.743   0.368   4.371
 3559SOL    HW110699   3.661   0.411   4.410
 3559SOL    HW210700   3.715   0.295   4.308
 3560SOL     OW10701   4.293   1.275   4.889
 3560SOL    HW110702   4.200   1.268   4.852
 3560SOL    HW210703   4.304   1.364   4.933
 3561SOL     OW10704   5.279   1.511   4.427
 3561SOL    HW110705   5.222   1.495   4.508
 3561SOL    HW210706   5.220   1.521   4.347
 3562SOL     OW10707   4.859   0.703   4.441
 3562SOL    HW110708   4.916   0.781   4.416
 3562SOL    HW210709   4.799   0.729   4.517
 3563SOL     OW10710   4.492   1.144   4.747
 3563SOL    HW110711   4.414   1.161   4.807
 3563SOL    HW210712   4.526   1.231   4.711
 3564SOL     OW10713   4.409   1.012   4.389
 3564SOL    HW110714   4.478   0.996   4.459
 3564SOL    HW210715   4.336   1.069   4.427
 3565SOL     OW10716   4.059   1.435   4.785
 3565SOL    HW110717   3.981   1.404   4.732
 3565SOL    HW210718   4.117   1.493   4.728
 3566SOL     OW10719   3.955   1.713   4.207
 3566SOL    HW110720   3.989   1.790   4.261
 3566SOL    HW210721   3.999   1.713   4.117
 3567SOL     OW10722   3.954   1.434   4.262
 3567SOL    HW110723   3.928   1.530   4.262
 3567SOL    HW210724   3.883   1.380   4.307
 3568SOL     OW10725   3.964   1.091   4.610
 3568SOL    HW110726   3.978   1.007   4.662
 3568SOL    HW210727   3.909   1.155   4.665
 3569SOL     OW10728   4.344   1.786   5.163
 3569SOL    HW110729   4.252   1.769   5.198
 3569SOL    HW210730   4.372   1.878   5.189
 3570SOL     OW10731   4.330   0.964   3.847
 3570SOL    HW110732   4.337   1.048   3.793
 3570SOL    HW210733   4.376   0.977   3.935
 3571SOL     OW10734   3.846   0.643   4.287
 3571SOL    HW110735   3.801   0.555   4.304
 3571SOL    HW210736   3.845   0.697   4.371
 3572SOL     OW10737   3.751   1.596   3.841
 3572SOL    HW110738   3.732   1.500   3.862
 3572SOL    HW210739   3.718   1.654   3.916
 3573SOL     OW10740   5.413   0.922   4.336
 3573SOL    HW110741   5.508   0.893   4.344
 3573SOL    HW210742   5.405   0.987   4.261
 3574SOL     OW10743   4.337   1.365   4.450
 3574SOL    HW110744   4.288   1.278   4.459
 3574SOL    HW210745   4.314   1.408   4.363
 3575SOL     OW10746   5.017   1.228   5.147
 3575SOL    HW110747   5.054   1.155   5.089
 3575SOL    HW210748   5.069   1.233   5.232
 3576SOL     OW10749   4.533   0.004   4.226
 3576SOL    HW110750   4.573   0.095   4.217
 3576SOL    HW210751   4.433   0.012   4.232
 3577SOL     OW10752   3.921   0.976   4.988
 3577SOL    HW110753   4.010   0.931   4.974
 3577SOL    HW210754   3.848   0.911   4.969
 3578SOL     OW10755   4.322   0.729   3.994
 3578SOL    HW110756   4.346   0.798   3.926
 3578SOL    HW210757   4.244   0.762   4.048
 3579SOL     OW10758   5.005   0.345   4.668
 3579SOL    HW110759   4.919   0.295   4.655
 3579SOL    HW210760   5.067   0.291   4.724
 3580SOL     OW10761   4.531   0.605   5.189
 3580SOL    HW110762   4.484   0.602   5.278
 3580SOL    HW210763   4.480   0.550   5.123
 3581SOL     OW10764   4.715   0.410   4.966
 3581SOL    HW110765   4.638   0.444   5.020
 3581SOL    HW210766   4.681   0.359   4.887
 3582SOL     OW10767   4.765   0.701   4.153
 3582SOL    HW110768   4.791   0.697   4.249
 3582SOL    HW210769   4.680   0.650   4.139
 3583SOL     OW10770   3.800   0.811   4.513
 3583SOL    HW110771   3.899   0.799   4.522
 3583SOL    HW210772   3.776   0.906   4.534
 3584SOL     OW10773   3.854   1.821   5.295
 3584SOL    HW110774   3.844   1.806   5.394
 3584SOL    HW210775   3.768   1.857   5.259
 3585SOL     OW10776   4.589   0.348   3.919
 3585SOL    HW110777   4.648   0.411   3.870
 3585SOL    HW210778   4.608   0.254   3.890
 3586SOL     OW10779   5.086   1.144   4.269
 3586SOL    HW110780   5.169   1.115   4.221
 3586SOL    HW210781   5.037   1.211   4.213
 3587SOL     OW10782   4.274   0.196   4.609
 3587SOL    HW110783   4.269   0.191   4.709
 3587SOL    HW210784   4.276   0.292   4.580
 3588SOL     OW10785   4.732   1.456   4.201
 3588SOL    HW110786   4.686   1.528   4.149
 3588SOL    HW210787   4.728   1.476   4.299
 3589SOL     OW10788   4.075   1.801   4.577
 3589SOL    HW110789   4.125   1.715   4.583
 3589SOL    HW210790   4.140   1.878   4.574
 3590SOL     OW10791   4.045   0.943   3.966
 3590SOL    HW110792   4.127   0.982   3.924
 3590SOL    HW210793   4.018   0.861   3.917
 3591SOL     OW10794   4.835   1.776   3.961
 3591SOL    HW110795   4.775   1.714   4.011
 3591SOL    HW210796   4.866   1.732   3.876
 3592SOL     OW10797   4.188   1.743   4.047
 3592SOL    HW110798   4.221   1.782   4.133
 3592SOL    HW210799   4.264   1.736   3.982
 3593SOL     OW10800   3.973   1.785   4.965
 3593SOL    HW110801   4.030   1.720   5.015
 3593SOL    HW210802   3.957   1.752   4.872
 3594SOL     OW10803   4.664   1.698   4.628
 3594SOL    HW110804   4.744   1.641   4.649
 3594SOL    HW210805   4.615   1.658   4.551
 3595SOL     OW10806   4.106   0.700   4.204
 3595SOL    HW110807   4.151   0.610   4.201
 3595SOL    HW210808   4.012   0.689   4.237
 3596SOL     OW10809   4.338   0.122   3.841
 3596SOL    HW110810   4.436   0.100   3.848
 3596SOL    HW210811   4.307   0.105   3.748
 3597SOL     OW10812   4.612   1.514   4.919
 3597SOL    HW110813   4.589   1.489   4.825
 3597SOL    HW210814   4.673   1.445   4.958
 3598SOL     OW10815   4.527   1.402   4.648
 3598SOL    HW110816   4.617   1.416   4.606
 3598SOL    HW210817   4.456   1.404   4.577
 3599SOL     OW10818   4.646   0.503   4.623
 3599SOL    HW110819   4.621   0.494   4.527
 3599SOL    HW210820   4.694   0.421   4.654
 3600SOL     OW10821   4.263   0.064   4.236
 3600SOL    HW110822   4.182   0.065   4.294
 3600SOL    HW210823   4.266   0.147   4.181
 3601SOL     OW10824   5.158   1.188   3.765
 3601SOL    HW110825   5.190   1.112   3.822
 3601SOL    HW210826   5.066   1.215   3.795
 3602SOL     OW10827   4.021   0.035   3.895
 3602SOL    HW110828   4.070   0.119   3.874
 3602SOL    HW210829   4.083  -0.030   3.940
 3603SOL     OW10830   4.659   0.236   4.204
 3603SOL    HW110831   4.611   0.277   4.126
 3603SOL    HW210832   4.758   0.234   4.185
 3604SOL     OW10833   4.951   1.570   4.517
 3604SOL    HW110834   4.972   1.644   4.452
 3604SOL    HW210835   5.019   1.570   4.590
 3605SOL     OW10836   4.183   1.152   4.465
 3605SOL    HW110837   4.112   1.125   4.530
 3605SOL    HW210838   4.157   1.124   4.372
 3606SOL     OW10839   4.995   1.797   4.315
 3606SOL    HW110840   5.039   1.861   4.251
 3606SOL    HW210841   4.945   1.849   4.385
 3607SOL     OW10842   4.756   0.549   3.740
 3607SOL    HW110843   4.715   0.631   3.701
 3607SOL    HW210844   4.820   0.575   3.813
 3608SOL     OW10845   4.285   0.222   4.871
 3608SOL    HW110846   4.323   0.138   4.908
 3608SOL    HW210847   4.197   0.241   4.915
 3609SOL     OW10848   4.590   0.454   4.366
 3609SOL    HW110849   4.558   0.526   4.304
 3609SOL    HW210850   4.614   0.373   4.313
 3610SOL     OW10851   4.741   0.039   4.477
 3610SOL    HW110852   4.669   0.044   4.408
 3610SOL    HW210853   4.717  -0.030   4.546
 3611SOL     OW10854   4.212   1.385   3.898
 3611SOL    HW110855   4.125   1.370   3.945
 3611SOL    HW210856   4.195   1.411   3.803
 3612SOL     OW10857   5.114   0.575   3.802
 3612SOL    HW110858   5.060   0.554   3.883
 3612SOL    HW210859   5.205   0.534   3.811
 3613SOL     OW10860   4.251   0.256   4.052
 3613SOL    HW110861   4.278   0.197   3.977
 3613SOL    HW210862   4.251   0.351   4.021
 3614SOL     OW10863   4.835   1.195   4.824
 3614SOL    HW110864   4.795   1.239   4.905
 3614SOL    HW210865   4.794   1.232   4.741
 3615SOL     OW10866   4.429   1.050   4.092
 3615SOL    HW110867   4.415   1.057   4.191
 3615SOL    HW210868   4.513   0.999   4.074
 3616SOL     OW10869   4.134   0.813   4.975
 3616SOL    HW110870   4.220   0.825   5.025
 3616SOL    HW210871   4.092   0.726   5.002
 3617SOL     OW10872   4.998   0.386   4.986
 3617SOL    HW110873   5.019   0.460   5.050
 3617SOL    HW210874   4.909   0.403   4.943
 3618SOL     OW10875   3.788   1.564   5.055
 3618SOL    HW110876   3.742   1.646   5.021
 3618SOL    HW210877   3.886   1.583   5.064
 3619SOL     OW10878   4.091   1.100   4.225
 3619SOL    HW110879   4.084   1.183   4.169
 3619SOL    HW210880   4.095   1.020   4.165
 3620SOL     OW10881   4.290   0.537   4.589
 3620SOL    HW110882   4.302   0.603   4.515
 3620SOL    HW210883   4.336   0.571   4.672
 3621SOL     OW10884   4.976   1.348   4.112
 3621SOL    HW110885   5.026   1.425   4.152
 3621SOL    HW210886   4.881   1.350   4.144
 3622SOL     OW10887   4.996   1.445   4.866
 3622SOL    HW110888   5.043   1.458   4.953
 3622SOL    HW210889   4.930   1.371   4.875
 3623SOL     OW10890   4.078   1.510   5.053
 3623SOL    HW110891   4.057   1.466   4.966
 3623SOL    HW210892   4.175   1.536   5.056
 3624SOL     OW10893   4.297   0.870   4.753
 3624SOL    HW110894   4.341   0.959   4.744
 3624SOL    HW210895   4.234   0.870   4.830
 3625SOL     OW10896   5.084   0.862   4.769
 3625SOL    HW110897   5.009   0.862   4.703
 3625SOL    HW210898   5.121   0.770   4.778
 3626SOL     OW10899   4.933   0.525   3.999
 3626SOL    HW110900   4.946   0.441   4.053
 3626SOL    HW210901   4.904   0.599   4.059
 3627SOL     OW10902   4.031   0.213   4.955
 3627SOL    HW110903   4.008   0.250   5.045
 3627SOL    HW210904   4.001   0.118   4.949
 3628SOL     OW10905   3.761   1.310   5.006
 3628SOL    HW110906   3.814   1.261   5.074
 3628SOL    HW210907   3.783   1.408   5.011
 3629SOL     OW10908   4.456   0.634   4.788
 3629SOL    HW110909   4.515   0.608   4.712
 3629SOL    HW210910   4.428   0.730   4.777
 3630SOL     OW10911   4.031   0.063   4.342
 3630SOL    HW110912   4.020   0.157   4.375
 3630SOL    HW210913   4.026   0.000   4.419
 3631SOL     OW10914   5.346   0.367   4.098
 3631SOL    HW110915   5.348   0.291   4.162
 3631SOL    HW210916   5.298   0.444   4.138
 3632SOL     OW10917   4.747   0.766   4.690
 3632SOL    HW110918   4.762   0.787   4.786
 3632SOL    HW210919   4.717   0.671   4.681
 3633SOL     OW10920   5.027   0.838   3.766
 3633SOL    HW110921   5.061   0.745   3.781
 3633SOL    HW210922   5.045   0.865   3.671
 3634SOL     OW10923   4.792   1.333   4.573
 3634SOL    HW110924   4.799   1.249   4.518
 3634SOL    HW210925   4.854   1.402   4.537
 3635SOL     OW10926   4.043   0.810   4.673
 3635SOL    HW110927   4.136   0.846   4.678
 3635SOL    HW210928   4.037   0.725   4.725
 3636SOL     OW10929   4.063   0.509   4.730
 3636SOL    HW110930   4.011   0.426   4.713
 3636SOL    HW210931   4.140   0.514   4.666
 3637SOL     OW10932   4.884   0.207   5.201
 3637SOL    HW110933   4.884   0.271   5.278
 3637SOL    HW210934   4.912   0.255   5.118
 3638SOL     OW10935   3.732   1.326   3.924
 3638SOL    HW110936   3.639   1.347   3.893
 3638SOL    HW210937   3.742   1.227   3.937
 3639SOL     OW10938   3.812   1.801   4.651
 3639SOL    HW110939   3.770   1.715   4.624
 3639SOL    HW210940   3.906   1.804   4.617
 3640SOL     OW10941   4.228   1.568   4.634
 3640SOL    HW110942   4.294   1.642   4.643
 3640SOL    HW210943   4.272   1.489   4.592
 3641SOL     OW10944   4.726   0.796   4.962
 3641SOL    HW110945   4.767   0.764   5.048
 3641SOL    HW210946   4.630   0.769   4.959
 3642SOL     OW10947   3.764   0.544   4.838
 3642SOL    HW110948   3.849   0.511   4.797
 3642SOL    HW210949   3.777   0.559   4.936
 3643SOL     OW10950   4.539   0.572   4.049
 3643SOL    HW110951   4.546   0.483   4.003
 3643SOL    HW210952   4.445   0.606   4.041
 3644SOL     OW10953   4.395   0.464   4.993
 3644SOL    HW110954   4.361   0.375   4.963
 3644SOL    HW210955   4.421   0.518   4.913
 3645SOL     OW10956   4.654   1.678   5.189
 3645SOL    HW110957   4.630   1.660   5.094
 3645SOL    HW210958   4.684   1.772   5.199
 3646SOL     OW10959   4.197   0.500   3.915
 3646SOL    HW110960   4.258   0.580   3.919
 3646SOL    HW210961   4.102   0.531   3.922
 3647SOL     OW10962   3.883   1.137   5.190
 3647SOL    HW110963   3.905   1.076   5.266
 3647SOL    HW210964   3.893   1.088   5.104
 3648SOL     OW10965   5.071   1.059   4.958
 3648SOL    HW110966   5.095   0.996   4.884
 3648SOL    HW210967   4.981   1.099   4.940
 3649SOL     OW10968   5.026   0.855   4.033
 3649SOL    HW110969   4.940   0.824   4.075
 3649SOL    HW210970   5.022   0.841   3.934
 3650SOL     OW10971   4.976   1.731   4.852
 3650SOL    HW110972   5.060   1.736   4.798
 3650SOL    HW210973   4.953   1.635   4.870
 3651SOL     OW10974   3.807   1.258   4.746
 3651SOL    HW110975   3.802   1.257   4.846
 3651SOL    HW210976   3.724   1.217   4.708
 3652SOL     OW10977   5.112   1.573   4.201
 3652SOL    HW110978   5.179   1.585   4.127
 3652SOL    HW210979   5.072   1.662   4.224
 3653SOL     OW10980   5.004   0.927   4.396
 3653SOL    HW110981   5.064   0.846   4.398
 3653SOL    HW210982   5.044   0.996   4.336
 3654SOL     OW10983   4.396   1.616   3.878
 3654SOL    HW110984   4.405   1.626   3.779
 3654SOL    HW210985   4.356   1.527   3.899
 3655SOL     OW10986   3.987   0.326   4.444
 3655SOL    HW110987   3.908   0.377   4.410
 3655SOL    HW210988   3.978   0.311   4.542
 3656SOL     OW10989   4.918   1.612   3.755
 3656SOL    HW110990   4.924   1.519   3.792
 3656SOL    HW210991   4.859   1.612   3.675
 3657SOL     OW10992   4.546   1.002   5.096
 3657SOL    HW110993   4.586   1.001   5.004
 3657SOL    HW210994   4.556   1.094   5.136
 3658SOL     OW10995   4.640   0.910   4.015
 3658SOL    HW110996   4.703   0.948   3.947
 3658SOL    HW210997   4.680   0.827   4.054
 3659SOL     OW10998   4.763   1.098   4.420
 3659SOL    HW110999   4.693   1.051   4.474
 3659SOL    HW211000   4.822   1.030   4.377
 3660SOL     OW11001   4.738   0.236   4.695
 3660SOL    HW111002   4.730   0.200   4.602
 3660SOL    HW211003   4.736   0.160   4.760
 3661SOL     OW11004   4.314   1.487   4.215
 3661SOL    HW111005   4.356   1.429   4.145
 3661SOL    HW211006   4.270   1.566   4.171
 3662SOL     OW11007   3.979   1.348   4.014
 3662SOL    HW111008   3.883   1.349   3.987
 3662SOL    HW211009   3.991   1.401   4.098
 3663SOL     OW11010   3.799   0.345   3.757
 3663SOL    HW111011   3.707   0.317   3.728
 3663SOL    HW211012   3.830   0.422   3.701
 3664SOL     OW11013   3.796   0.166   4.042
 3664SOL    HW111014   3.779   0.249   3.988
 3664SOL    HW211015   3.886   0.129   4.020
 3665SOL     OW11016   4.907   1.335   3.843
 3665SOL    HW111017   4.808   1.324   3.845
 3665SOL    HW211018   4.941   1.350   3.936
 3666SOL     OW11019   4.337   0.842   5.155
 3666SOL    HW111020   4.393   0.923   5.138
 3666SOL    HW211021   4.396   0.762   5.158
 3667SOL     OW11022   4.114   1.741   5.284
 3667SOL    HW111023   4.023   1.782   5.282
 3667SOL    HW211024   4.107   1.647   5.316
 3668SOL     OW11025   4.949   0.325   4.173
 3668SOL    HW111026   5.014   0.251   4.162
 3668SOL    HW211027   4.969   0.375   4.257
 3669SOL     OW11028   4.318   0.745   4.376
 3669SOL    HW111029   4.368   0.830   4.357
 3669SOL    HW211030   4.230   0.747   4.328
 3670SOL     OW11031   4.583   1.374   3.740
 3670SOL    HW111032   4.537   1.389   3.828
 3670SOL    HW211033   4.627   1.459   3.710
 3671SOL     OW11034   4.385   1.790   4.677
 3671SOL    HW111035   4.339   1.878   4.664
 3671SOL    HW211036   4.484   1.802   4.670
 3672SOL     OW11037   4.583   0.956   4.585
 3672SOL    HW111038   4.637   0.887   4.633
 3672SOL    HW211039   4.551   1.025   4.651
 3673SOL     OW11040   4.807   0.984   3.811
 3673SOL    HW111041   4.784   1.037   3.729
 3673SOL    HW211042   4.888   0.928   3.792
 3674SOL     OW11043   3.803   1.240   4.377
 3674SOL    HW111044   3.802   1.193   4.465
 3674SOL    HW211045   3.885   1.212   4.326
 3675SOL     OW11046   4.152   0.424   4.244
 3675SOL    HW111047   4.182   0.352   4.182
 3675SOL    HW211048   4.113   0.384   4.327
 3676SOL     OW11049   4.041   0.547   5.004
 3676SOL    HW111050   4.079   0.488   5.076
 3676SOL    HW211051   4.081   0.521   4.916
 3677SOL     OW11052   4.536   1.586   4.411
 3677SOL    HW111053   4.568   1.596   4.317
 3677SOL    HW211054   4.457   1.524   4.413
 3678SOL     OW11055   5.148   0.214   4.836
 3678SOL    HW111056   5.200   0.149   4.891
 3678SOL    HW211057   5.099   0.277   4.897
 3679SOL     OW11058   4.725   0.034   4.878
 3679SOL    HW111059   4.662  -0.038   4.847
 3679SOL    HW211060   4.818  -0.002   4.878
 3680SOL     OW11061   4.494   1.330   4.025
 3680SOL    HW111062   4.448   1.243   4.042
 3680SOL    HW211063   4.585   1.327   4.066
 3681SOL     OW11064   4.342   1.567   5.008
 3681SOL    HW111065   4.337   1.649   5.065
 3681SOL    HW211066   4.431   1.564   4.963
 3682SOL     OW11067   3.763   1.077   4.024
 3682SOL    HW111068   3.862   1.066   4.015
 3682SOL    HW211069   3.723   0.991   4.056
 3683SOL     OW11070   4.599   1.646   4.061
 3683SOL    HW111071   4.522   1.611   4.007
 3683SOL    HW211072   4.567   1.717   4.123
 3684SOL     OW11073   3.954   2.490   0.113
 3684SOL    HW111074   3.861   2.488   0.150
 3684SOL    HW211075   3.955   2.451   0.021
 3685SOL     OW11076   3.949   2.137   0.996
 3685SOL    HW111077   3.984   2.120   1.088
 3685SOL    HW211078   3.861   2.092   0.984
 3686SOL     OW11079   3.743   2.230   0.647
 3686SOL    HW111080   3.661   2.273   0.686
 3686SOL    HW211081   3.715   2.157   0.584
 3687SOL     OW11082   4.293   3.137   1.165
 3687SOL    HW111083   4.200   3.130   1.128
 3687SOL    HW211084   4.304   3.226   1.209
 3688SOL     OW11085   5.279   3.373   0.703
 3688SOL    HW111086   5.222   3.357   0.784
 3688SOL    HW211087   5.220   3.383   0.623
 3689SOL     OW11088   4.859   2.565   0.717
 3689SOL    HW111089   4.916   2.643   0.692
 3689SOL    HW211090   4.799   2.591   0.793
 3690SOL     OW11091   4.492   3.006   1.023
 3690SOL    HW111092   4.414   3.023   1.083
 3690SOL    HW211093   4.526   3.093   0.987
 3691SOL     OW11094   4.574   2.660   1.823
 3691SOL    HW111095   4.570   2.736   1.888
 3691SOL    HW211096   4.596   2.696   1.732
 3692SOL     OW11097   4.409   2.874   0.665
 3692SOL    HW111098   4.478   2.858   0.735
 3692SOL    HW211099   4.336   2.931   0.703
 3693SOL     OW11100   4.410   3.023   1.803
 3693SOL    HW111101   4.470   3.102   1.817
 3693SOL    HW211102   4.324   3.054   1.762
 3694SOL     OW11103   4.059   3.297   1.061
 3694SOL    HW111104   3.981   3.266   1.008
 3694SOL    HW211105   4.117   3.355   1.004
 3695SOL     OW11106   4.162   2.254   1.499
 3695SOL    HW111107   4.244   2.198   1.508
 3695SOL    HW211108   4.081   2.196   1.503
 3696SOL     OW11109   3.955   3.575   0.483
 3696SOL    HW111110   3.989   3.652   0.537
 3696SOL    HW211111   3.999   3.575   0.393
 3697SOL     OW11112   4.851   3.203   1.690
 3697SOL    HW111113   4.898   3.203   1.778
 3697SOL    HW211114   4.803   3.116   1.679
 3698SOL     OW11115   3.954   3.296   0.538
 3698SOL    HW111116   3.928   3.392   0.538
 3698SOL    HW211117   3.883   3.242   0.583
 3699SOL     OW11118   3.964   2.953   0.886
 3699SOL    HW111119   3.978   2.869   0.938
 3699SOL    HW211120   3.909   3.017   0.941
 3700SOL     OW11121   4.344   3.648   1.439
 3700SOL    HW111122   4.252   3.631   1.474
 3700SOL    HW211123   4.372   3.740   1.465
 3701SOL     OW11124   4.330   2.826   0.123
 3701SOL    HW111125   4.337   2.910   0.069
 3701SOL    HW211126   4.376   2.839   0.211
 3702SOL     OW11127   3.846   2.505   0.563
 3702SOL    HW111128   3.801   2.417   0.580
 3702SOL    HW211129   3.845   2.559   0.647
 3703SOL     OW11130   3.751   3.458   0.117
 3703SOL    HW111131   3.732   3.362   0.138
 3703SOL    HW211132   3.718   3.516   0.192
 3704SOL     OW11133   5.413   2.784   0.612
 3704SOL    HW111134   5.508   2.755   0.620
 3704SOL    HW211135   5.405   2.849   0.537
 3705SOL     OW11136   3.837   2.599   1.597
 3705SOL    HW111137   3.925   2.586   1.642
 3705SOL    HW211138   3.824   2.696   1.575
 3706SOL     OW11139   4.337   3.227   0.726
 3706SOL    HW111140   4.288   3.140   0.735
 3706SOL    HW211141   4.314   3.270   0.639
 3707SOL     OW11142   5.017   3.090   1.423
 3707SOL    HW111143   5.054   3.017   1.365
 3707SOL    HW211144   5.069   3.095   1.508
 3708SOL     OW11145   4.533   1.866   0.502
 3708SOL    HW111146   4.573   1.957   0.493
 3708SOL    HW211147   4.433   1.874   0.508
 3709SOL     OW11148   3.921   2.838   1.264
 3709SOL    HW111149   4.010   2.793   1.250
 3709SOL    HW211150   3.848   2.773   1.245
 3710SOL     OW11151   4.911   3.654   1.616
 3710SOL    HW111152   4.935   3.714   1.540
 3710SOL    HW211153   4.918   3.559   1.586
 3711SOL     OW11154   4.041   2.113   1.801
 3711SOL    HW111155   4.112   2.184   1.807
 3711SOL    HW211156   3.953   2.152   1.829
 3712SOL     OW11157   4.322   2.591   0.270
 3712SOL    HW111158   4.346   2.660   0.202
 3712SOL    HW211159   4.244   2.624   0.324
 3713SOL     OW11160   5.005   2.207   0.944
 3713SOL    HW111161   4.919   2.157   0.931
 3713SOL    HW211162   5.067   2.153   1.000
 3714SOL     OW11163   4.531   2.467   1.465
 3714SOL    HW111164   4.484   2.464   1.554
 3714SOL    HW211165   4.480   2.412   1.399
 3715SOL     OW11166   5.118   2.331   1.674
 3715SOL    HW111167   5.098   2.374   1.762
 3715SOL    HW211168   5.196   2.269   1.683
 3716SOL     OW11169   4.697   2.752   1.572
 3716SOL    HW111170   4.743   2.668   1.543
 3716SOL    HW211171   4.641   2.786   1.497
 3717SOL     OW11172   4.715   2.272   1.242
 3717SOL    HW111173   4.638   2.306   1.296
 3717SOL    HW211174   4.681   2.221   1.163
 3718SOL     OW11175   4.765   2.563   0.429
 3718SOL    HW111176   4.791   2.559   0.525
 3718SOL    HW211177   4.680   2.512   0.415
 3719SOL     OW11178   3.800   2.673   0.789
 3719SOL    HW111179   3.899   2.661   0.798
 3719SOL    HW211180   3.776   2.768   0.810
 3720SOL     OW11181   3.854   3.683   1.571
 3720SOL    HW111182   3.844   3.668   1.670
 3720SOL    HW211183   3.768   3.719   1.535
 3721SOL     OW11184   4.589   2.210   0.195
 3721SOL    HW111185   4.648   2.273   0.146
 3721SOL    HW211186   4.608   2.116   0.166
 3722SOL     OW11187   5.086   3.006   0.545
 3722SOL    HW111188   5.169   2.977   0.497
 3722SOL    HW211189   5.037   3.073   0.489
 3723SOL     OW11190   4.274   2.058   0.885
 3723SOL    HW111191   4.269   2.053   0.985
 3723SOL    HW211192   4.276   2.154   0.856
 3724SOL     OW11193   4.732   3.318   0.477
 3724SOL    HW111194   4.686   3.390   0.425
 3724SOL    HW211195   4.728   3.338   0.575
 3725SOL     OW11196   4.075   3.663   0.853
 3725SOL    HW111197   4.125   3.577   0.859
 3725SOL    HW211198   4.140   3.740   0.850
 3726SOL     OW11199   4.951   3.412   1.506
 3726SOL    HW111200   4.957   3.335   1.570
 3726SOL    HW211201   4.899   3.386   1.426
 3727SOL     OW11202   4.045   2.805   0.242
 3727SOL    HW111203   4.127   2.844   0.200
 3727SOL    HW211204   4.018   2.723   0.193
 3728SOL     OW11205   4.185   3.128   1.727
 3728SOL    HW111206   4.135   3.129   1.641
 3728SOL    HW211207   4.122   3.110   1.803
 3729SOL     OW11208   4.835   3.638   0.237
 3729SOL    HW111209   4.775   3.576   0.287
 3729SOL    HW211210   4.866   3.594   0.152
 3730SOL     OW11211   3.926   2.147   1.498
 3730SOL    HW111212   3.846   2.207   1.485
 3730SOL    HW211213   3.916   2.098   1.584
 3731SOL     OW11214   5.356   3.239   0.081
 3731SOL    HW111215   5.324   3.333   0.071
 3731SOL    HW211216   5.280   3.176   0.069
 3732SOL     OW11217   4.188   3.605   0.323
 3732SOL    HW111218   4.221   3.644   0.409
 3732SOL    HW211219   4.264   3.598   0.258
 3733SOL     OW11220   3.973   3.647   1.241
 3733SOL    HW111221   4.030   3.582   1.291
 3733SOL    HW211222   3.957   3.614   1.148
 3734SOL     OW11223   4.664   3.560   0.904
 3734SOL    HW111224   4.744   3.503   0.925
 3734SOL    HW211225   4.615   3.520   0.827
 3735SOL     OW11226   4.106   2.562   0.480
 3735SOL    HW111227   4.151   2.472   0.477
 3735SOL    HW211228   4.012   2.551   0.513
 3736SOL     OW11229   4.505   2.126   1.749
 3736SOL    HW111230   4.572   2.065   1.792
 3736SOL    HW211231   4.432   2.145   1.814
 3737SOL     OW11232   4.612   3.376   1.195
 3737SOL    HW111233   4.589   3.351   1.101
 3737SOL    HW211234   4.673   3.307   1.234
 3738SOL     OW11235   4.527   3.264   0.924
 3738SOL    HW111236   4.617   3.278   0.882
 3738SOL    HW211237   4.456   3.266   0.853
 3739SOL     OW11238   4.646   2.365   0.899
 3739SOL    HW111239   4.621   2.356   0.803
 3739SOL    HW211240   4.694   2.283   0.930
 3740SOL     OW11241   4.263   1.926   0.512
 3740SOL    HW111242   4.182   1.927   0.570
 3740SOL    HW211243   4.266   2.009   0.457
 3741SOL     OW11244   4.659   2.098   0.480
 3741SOL    HW111245   4.611   2.139   0.402
 3741SOL    HW211246   4.758   2.096   0.461
 3742SOL     OW11247   4.800   2.545   1.464
 3742SOL    HW111248   4.720   2.484   1.467
 3742SOL    HW211249   4.881   2.492   1.440
 3743SOL     OW11250   4.951   3.432   0.793
 3743SOL    HW111251   4.972   3.506   0.728
 3743SOL    HW211252   5.019   3.432   0.866
 3744SOL     OW11253   4.183   3.014   0.741
 3744SOL    HW111254   4.112   2.987   0.806
 3744SOL    HW211255   4.157   2.986   0.648
 3745SOL     OW11256   4.995   3.659   0.591
 3745SOL    HW111257   5.039   3.723   0.527
 3745SOL    HW211258   4.945   3.711   0.661
 3746SOL     OW11259   4.756   2.411   0.016
 3746SOL    HW111260   4.715   2.493  -0.023
 3746SOL    HW211261   4.820   2.437   0.089
 3747SOL     OW11262   3.802   2.418   1.386
 3747SOL    HW111263   3.894   2.417   1.345
 3747SOL    HW211264   3.796   2.492   1.453
 3748SOL     OW11265   4.285   2.084   1.147
 3748SOL    HW111266   4.323   2.000   1.184
 3748SOL    HW211267   4.197   2.103   1.191
 3749SOL     OW11268   4.590   2.316   0.642
 3749SOL    HW111269   4.558   2.388   0.580
 3749SOL    HW211270   4.614   2.235   0.589
 3750SOL     OW11271   4.741   1.901   0.753
 3750SOL    HW111272   4.669   1.906   0.684
 3750SOL    HW211273   4.717   1.832   0.822
 3751SOL     OW11274   4.212   3.247   0.174
 3751SOL    HW111275   4.125   3.232   0.221
 3751SOL    HW211276   4.195   3.273   0.079
 3752SOL     OW11277   5.114   2.437   0.078
 3752SOL    HW111278   5.060   2.416   0.159
 3752SOL    HW211279   5.205   2.396   0.087
 3753SOL     OW11280   4.251   2.118   0.328
 3753SOL    HW111281   4.278   2.059   0.253
 3753SOL    HW211282   4.251   2.213   0.297
 3754SOL     OW11283   4.788   3.209   1.340
 3754SOL    HW111284   4.708   3.186   1.395
 3754SOL    HW211285   4.871   3.183   1.389
 3755SOL     OW11286   4.835   3.057   1.100
 3755SOL    HW111287   4.795   3.101   1.181
 3755SOL    HW211288   4.794   3.094   1.017
 3756SOL     OW11289   4.639   1.951   1.402
 3756SOL    HW111290   4.664   1.931   1.307
 3756SOL    HW211291   4.711   2.007   1.444
 3757SOL     OW11292   4.704   2.978   1.719
 3757SOL    HW111293   4.605   2.984   1.729
 3757SOL    HW211294   4.727   2.898   1.663
 3758SOL     OW11295   4.429   2.912   0.368
 3758SOL    HW111296   4.415   2.919   0.467
 3758SOL    HW211297   4.513   2.861   0.350
 3759SOL     OW11298   4.134   2.675   1.251
 3759SOL    HW111299   4.220   2.687   1.301
 3759SOL    HW211300   4.092   2.588   1.278
 3760SOL     OW11301   4.998   2.248   1.262
 3760SOL    HW111302   5.019   2.322   1.326
 3760SOL    HW211303   4.909   2.265   1.219
 3761SOL     OW11304   3.788   3.426   1.331
 3761SOL    HW111305   3.742   3.508   1.297
 3761SOL    HW211306   3.886   3.445   1.340
 3762SOL     OW11307   4.091   2.962   0.501
 3762SOL    HW111308   4.084   3.045   0.445
 3762SOL    HW211309   4.095   2.882   0.441
 3763SOL     OW11310   4.290   2.399   0.865
 3763SOL    HW111311   4.302   2.465   0.791
 3763SOL    HW211312   4.336   2.433   0.948
 3764SOL     OW11313   4.976   3.210   0.388
 3764SOL    HW111314   5.026   3.287   0.428
 3764SOL    HW211315   4.881   3.212   0.420
 3765SOL     OW11316   4.996   3.307   1.142
 3765SOL    HW111317   5.043   3.320   1.229
 3765SOL    HW211318   4.930   3.233   1.151
 3766SOL     OW11319   4.078   3.372   1.329
 3766SOL    HW111320   4.057   3.328   1.242
 3766SOL    HW211321   4.175   3.398   1.332
 3767SOL     OW11322   4.126   2.613   1.598
 3767SOL    HW111323   4.194   2.668   1.551
 3767SOL    HW211324   4.166   2.525   1.625
 3768SOL     OW11325   4.737   1.967   1.770
 3768SOL    HW111326   4.743   2.052   1.718
 3768SOL    HW211327   4.769   1.891   1.713
 3769SOL     OW11328   4.228   1.912   1.740
 3769SOL    HW111329   4.186   1.855   1.670
 3769SOL    HW211330   4.162   1.981   1.772
 3770SOL     OW11331   4.297   2.732   1.029
 3770SOL    HW111332   4.341   2.821   1.020
 3770SOL    HW211333   4.234   2.732   1.106
 3771SOL     OW11334   5.084   2.724   1.045
 3771SOL    HW111335   5.009   2.724   0.979
 3771SOL    HW211336   5.121   2.632   1.054
 3772SOL     OW11337   4.933   2.387   0.275
 3772SOL    HW111338   4.946   2.303   0.329
 3772SOL    HW211339   4.904   2.461   0.335
 3773SOL     OW11340   4.031   2.075   1.231
 3773SOL    HW111341   4.008   2.112   1.321
 3773SOL    HW211342   4.001   1.980   1.225
 3774SOL     OW11343   3.761   3.172   1.282
 3774SOL    HW111344   3.814   3.123   1.350
 3774SOL    HW211345   3.783   3.270   1.287
 3775SOL     OW11346   4.456   2.496   1.064
 3775SOL    HW111347   4.515   2.470   0.988
 3775SOL    HW211348   4.428   2.592   1.053
 3776SOL     OW11349   4.031   1.925   0.618
 3776SOL    HW111350   4.020   2.019   0.651
 3776SOL    HW211351   4.026   1.862   0.695
 3777SOL     OW11352   5.346   2.229   0.374
 3777SOL    HW111353   5.348   2.153   0.438
 3777SOL    HW211354   5.298   2.306   0.414
 3778SOL     OW11355   4.747   2.628   0.966
 3778SOL    HW111356   4.762   2.649   1.062
 3778SOL    HW211357   4.717   2.533   0.957
 3779SOL     OW11358   4.704   3.435   1.700
 3779SOL    HW111359   4.684   3.479   1.612
 3779SOL    HW211360   4.743   3.344   1.684
 3780SOL     OW11361   4.074   2.760   1.804
 3780SOL    HW111362   4.150   2.804   1.852
 3780SOL    HW211363   4.109   2.713   1.722
 3781SOL     OW11364   5.027   2.700   0.042
 3781SOL    HW111365   5.061   2.607   0.057
 3781SOL    HW211366   5.045   2.727  -0.053
 3782SOL     OW11367   4.792   3.195   0.849
 3782SOL    HW111368   4.799   3.111   0.794
 3782SOL    HW211369   4.854   3.264   0.813
 3783SOL     OW11370   4.043   2.672   0.949
 3783SOL    HW111371   4.136   2.708   0.954
 3783SOL    HW211372   4.037   2.587   1.001
 3784SOL     OW11373   4.063   2.371   1.006
 3784SOL    HW111374   4.011   2.288   0.989
 3784SOL    HW211375   4.140   2.376   0.942
 3785SOL     OW11376   4.862   2.242   1.678
 3785SOL    HW111377   4.817   2.305   1.742
 3785SOL    HW211378   4.955   2.273   1.661
 3786SOL     OW11379   4.884   2.069   1.477
 3786SOL    HW111380   4.884   2.133   1.554
 3786SOL    HW211381   4.912   2.117   1.394
 3787SOL     OW11382   3.812   3.663   0.927
 3787SOL    HW111383   3.770   3.577   0.900
 3787SOL    HW211384   3.906   3.666   0.893
 3788SOL     OW11385   4.228   3.430   0.910
 3788SOL    HW111386   4.294   3.504   0.919
 3788SOL    HW211387   4.272   3.351   0.868
 3789SOL     OW11388   4.726   2.658   1.238
 3789SOL    HW111389   4.767   2.626   1.324
 3789SOL    HW211390   4.630   2.631   1.235
 3790SOL     OW11391   3.764   2.406   1.114
 3790SOL    HW111392   3.849   2.373   1.073
 3790SOL    HW211393   3.777   2.421   1.212
 3791SOL     OW11394   3.913   2.382   1.722
 3791SOL    HW111395   3.972   2.342   1.652
 3791SOL    HW211396   3.855   2.453   1.681
 3792SOL     OW11397   4.539   2.434   0.325
 3792SOL    HW111398   4.546   2.345   0.279
 3792SOL    HW211399   4.445   2.468   0.317
 3793SOL     OW11400   3.976   3.426   1.744
 3793SOL    HW111401   3.946   3.483   1.820
 3793SOL    HW211402   3.969   3.329   1.770
 3794SOL     OW11403   4.395   2.326   1.269
 3794SOL    HW111404   4.361   2.237   1.239
 3794SOL    HW211405   4.421   2.380   1.189
 3795SOL     OW11406   4.654   3.540   1.465
 3795SOL    HW111407   4.630   3.522   1.370
 3795SOL    HW211408   4.684   3.634   1.475
 3796SOL     OW11409   4.197   2.362   0.191
 3796SOL    HW111410   4.258   2.442   0.195
 3796SOL    HW211411   4.102   2.393   0.198
 3797SOL     OW11412   3.883   2.999   1.466
 3797SOL    HW111413   3.905   2.938   1.542
 3797SOL    HW211414   3.893   2.950   1.380
 3798SOL     OW11415   5.071   2.921   1.234
 3798SOL    HW111416   5.095   2.858   1.160
 3798SOL    HW211417   4.981   2.961   1.216
 3799SOL     OW11418   5.026   2.717   0.309
 3799SOL    HW111419   4.940   2.686   0.351
 3799SOL    HW211420   5.022   2.703   0.210
 3800SOL     OW11421   4.976   3.593   1.128
 3800SOL    HW111422   5.060   3.598   1.074
 3800SOL    HW211423   4.953   3.497   1.146
 3801SOL     OW11424   3.807   3.120   1.022
 3801SOL    HW111425   3.802   3.119   1.122
 3801SOL    HW211426   3.724   3.079   0.984
 3802SOL     OW11427   4.412   3.524   1.716
 3802SOL    HW111428   4.356   3.605   1.725
 3802SOL    HW211429   4.464   3.528   1.630
 3803SOL     OW11430   4.627   1.948   0.133
 3803SOL    HW111431   4.678   1.949   0.047
 3803SOL    HW211432   4.683   1.906   0.204
 3804SOL     OW11433   5.112   3.435   0.477
 3804SOL    HW111434   5.179   3.447   0.403
 3804SOL    HW211435   5.072   3.524   0.500
 3805SOL     OW11436   3.854   3.656   1.851
 3805SOL    HW111437   3.813   3.582   1.904
 3805SOL    HW211438   3.918   3.707   1.909
 3806SOL     OW11439   5.004   2.789   0.672
 3806SOL    HW111440   5.064   2.708   0.674
 3806SOL    HW211441   5.044   2.858   0.612
 3807SOL     OW11442   4.554   3.135   1.422
 3807SOL    HW111443   4.549   3.168   1.517
 3807SOL    HW211444   4.468   3.154   1.376
 3808SOL     OW11445   4.396   3.478   0.154
 3808SOL    HW111446   4.405   3.488   0.055
 3808SOL    HW211447   4.356   3.389   0.175
 3809SOL     OW11448   3.987   2.188   0.720
 3809SOL    HW111449   3.908   2.239   0.686
 3809SOL    HW211450   3.978   2.173   0.818
 3810SOL     OW11451   4.918   3.474   0.031
 3810SOL    HW111452   4.924   3.381   0.068
 3810SOL    HW211453   4.859   3.474  -0.049
 3811SOL     OW11454   4.546   2.864   1.372
 3811SOL    HW111455   4.586   2.863   1.280
 3811SOL    HW211456   4.556   2.956   1.412
 3812SOL     OW11457   4.640   2.772   0.291
 3812SOL    HW111458   4.703   2.810   0.223
 3812SOL    HW211459   4.680   2.689   0.330
 3813SOL     OW11460   4.096   3.150   1.490
 3813SOL    HW111461   4.083   3.243   1.456
 3813SOL    HW211462   4.012   3.098   1.477
 3814SOL     OW11463   4.763   2.960   0.696
 3814SOL    HW111464   4.693   2.913   0.750
 3814SOL    HW211465   4.822   2.892   0.653
 3815SOL     OW11466   4.738   2.098   0.971
 3815SOL    HW111467   4.730   2.062   0.878
 3815SOL    HW211468   4.736   2.022   1.036
 3816SOL     OW11469   4.314   3.349   0.491
 3816SOL    HW111470   4.356   3.291   0.421
 3816SOL    HW211471   4.270   3.428   0.447
 3817SOL     OW11472   3.979   3.210   0.290
 3817SOL    HW111473   3.883   3.211   0.263
 3817SOL    HW211474   3.991   3.263   0.374
 3818SOL     OW11475   3.829   2.875   1.726
 3818SOL    HW111476   3.752   2.842   1.780
 3818SOL    HW211477   3.914   2.845   1.768
 3819SOL     OW11478   4.396   2.065   1.489
 3819SOL    HW111479   4.486   2.049   1.449
 3819SOL    HW211480   4.404   2.070   1.588
 3820SOL     OW11481   3.799   2.207   0.033
 3820SOL    HW111482   3.707   2.179   0.004
 3820SOL    HW211483   3.830   2.284  -0.023
 3821SOL     OW11484   5.164   2.718   1.398
 3821SOL    HW111485   5.107   2.770   1.335
 3821SOL    HW211486   5.260   2.730   1.374
 3822SOL     OW11487   3.796   2.028   0.318
 3822SOL    HW111488   3.779   2.111   0.264
 3822SOL    HW211489   3.886   1.991   0.296
 3823SOL     OW11490   4.907   3.197   0.119
 3823SOL    HW111491   4.808   3.186   0.121
 3823SOL    HW211492   4.941   3.212   0.212
 3824SOL     OW11493   4.337   2.704   1.431
 3824SOL    HW111494   4.393   2.785   1.414
 3824SOL    HW211495   4.396   2.624   1.434
 3825SOL     OW11496   4.440   2.427   1.708
 3825SOL    HW111497   4.459   2.492   1.782
 3825SOL    HW211498   4.500   2.347   1.717
 3826SOL     OW11499   5.174   3.082   1.633
 3826SOL    HW111500   5.165   3.072   1.732
 3826SOL    HW211501   5.270   3.075   1.607
 3827SOL     OW11502   4.114   3.603   1.560
 3827SOL    HW111503   4.023   3.644   1.558
 3827SOL    HW211504   4.107   3.509   1.592
 3828SOL     OW11505   4.949   2.187   0.449
 3828SOL    HW111506   5.014   2.113   0.438
 3828SOL    HW211507   4.969   2.237   0.533
 3829SOL     OW11508   4.318   2.607   0.652
 3829SOL    HW111509   4.368   2.692   0.633
 3829SOL    HW211510   4.230   2.609   0.604
 3830SOL     OW11511   4.583   3.236   0.016
 3830SOL    HW111512   4.537   3.251   0.104
 3830SOL    HW211513   4.627   3.321  -0.014
 3831SOL     OW11514   4.385   3.652   0.953
 3831SOL    HW111515   4.339   3.740   0.940
 3831SOL    HW211516   4.484   3.664   0.946
 3832SOL     OW11517   4.583   2.818   0.861
 3832SOL    HW111518   4.637   2.749   0.909
 3832SOL    HW211519   4.551   2.887   0.927
 3833SOL     OW11520   4.807   2.846   0.087
 3833SOL    HW111521   4.784   2.899   0.005
 3833SOL    HW211522   4.888   2.790   0.068
 3834SOL     OW11523   3.945   3.176   1.844
 3834SOL    HW111524   3.880   3.103   1.823
 3834SOL    HW211525   3.949   3.190   1.942
 3835SOL     OW11526   3.803   3.102   0.653
 3835SOL    HW111527   3.802   3.055   0.741
 3835SOL    HW211528   3.885   3.074   0.602
 3836SOL     OW11529   4.396   3.253   1.624
 3836SOL    HW111530   4.318   3.203   1.662
 3836SOL    HW211531   4.393   3.348   1.655
 3837SOL     OW11532   4.152   2.286   0.520
 3837SOL    HW111533   4.182   2.214   0.458
 3837SOL    HW211534   4.113   2.246   0.603
 3838SOL     OW11535   4.041   2.409   1.280
 3838SOL    HW111536   4.079   2.350   1.352
 3838SOL    HW211537   4.081   2.383   1.192
 3839SOL     OW11538   4.536   3.448   0.687
 3839SOL    HW111539   4.568   3.458   0.593
 3839SOL    HW211540   4.457   3.386   0.689
 3840SOL     OW11541   5.148   2.076   1.112
 3840SOL    HW111542   5.200   2.011   1.167
 3840SOL    HW211543   5.099   2.139   1.173
 3841SOL     OW11544   4.725   1.896   1.154
 3841SOL    HW111545   4.662   1.824   1.123
 3841SOL    HW211546   4.818   1.860   1.154
 3842SOL     OW11547   4.494   3.192   0.301
 3842SOL    HW111548   4.448   3.105   0.318
 3842SOL    HW211549   4.585   3.189   0.342
 3843SOL     OW11550   4.342   3.429   1.284
 3843SOL    HW111551   4.337   3.511   1.341
 3843SOL    HW211552   4.431   3.426   1.239
 3844SOL     OW11553   3.763   2.939   0.300
 3844SOL    HW111554   3.862   2.928   0.291
 3844SOL    HW211555   3.723   2.853   0.332
 3845SOL     OW11556   4.599   3.508   0.337
 3845SOL    HW111557   4.522   3.473   0.283
 3845SOL    HW211558   4.567   3.579   0.399
 3846SOL     OW11559   3.954   2.490   1.975
 3846SOL    HW111560   3.861   2.488   2.012
 3846SOL    HW211561   3.955   2.451   1.883
 3847SOL     OW11562   3.949   2.137   2.858
 3847SOL    HW111563   3.984   2.120   2.950
 3847SOL    HW211564   3.861   2.092   2.846
 3848SOL     OW11565   3.743   2.230   2.509
 3848SOL    HW111566   3.661   2.273   2.548
 3848SOL    HW211567   3.715   2.157   2.446
 3849SOL     OW11568   4.293   3.137   3.027
 3849SOL    HW111569   4.200   3.130   2.990
 3849SOL    HW211570   4.304   3.226   3.071
 3850SOL     OW11571   5.279   3.373   2.565
 3850SOL    HW111572   5.222   3.357   2.646
 3850SOL    HW211573   5.220   3.383   2.485
 3851SOL     OW11574   4.859   2.565   2.579
 3851SOL    HW111575   4.916   2.643   2.554
 3851SOL    HW211576   4.799   2.591   2.655
 3852SOL     OW11577   4.492   3.006   2.885
 3852SOL    HW111578   4.414   3.023   2.945
 3852SOL    HW211579   4.526   3.093   2.849
 3853SOL     OW11580   4.574   2.660   3.685
 3853SOL    HW111581   4.570   2.736   3.750
 3853SOL    HW211582   4.596   2.696   3.594
 3854SOL     OW11583   4.409   2.874   2.527
 3854SOL    HW111584   4.478   2.858   2.597
 3854SOL    HW211585   4.336   2.931   2.565
 3855SOL     OW11586   4.410   3.023   3.665
 3855SOL    HW111587   4.470   3.102   3.679
 3855SOL    HW211588   4.324   3.054   3.624
 3856SOL     OW11589   4.059   3.297   2.923
 3856SOL    HW111590   3.981   3.266   2.870
 3856SOL    HW211591   4.117   3.355   2.866
 3857SOL     OW11592   4.162   2.254   3.361
 3857SOL    HW111593   4.244   2.198   3.370
 3857SOL    HW211594   4.081   2.196   3.365
 3858SOL     OW11595   3.955   3.575   2.345
 3858SOL    HW111596   3.989   3.652   2.399
 3858SOL    HW211597   3.999   3.575   2.255
 3859SOL     OW11598   4.851   3.203   3.552
 3859SOL    HW111599   4.898   3.203   3.640
 3859SOL    HW211600   4.803   3.116   3.541
 3860SOL     OW11601   3.954   3.296   2.400
 3860SOL    HW111602   3.928   3.392   2.400
 3860SOL    HW211603   3.883   3.242   2.445
 3861SOL     OW11604   3.964   2.953   2.748
 3861SOL    HW111605   3.978   2.869   2.800
 3861SOL    HW211606   3.909   3.017   2.803
 3862SOL     OW11607   4.344   3.648   3.301
 3862SOL    HW111608   4.252   3.631   3.336
 3862SOL    HW211609   4.372   3.740   3.327
 3863SOL     OW11610   4.330   2.826   1.985
 3863SOL    HW111611   4.337   2.910   1.931
 3863SOL    HW211612   4.376   2.839   2.073
 3864SOL     OW11613   3.846   2.505   2.425
 3864SOL    HW111614   3.801   2.417   2.442
 3864SOL    HW211615   3.845   2.559   2.509
 3865SOL     OW11616   3.751   3.458   1.979
 3865SOL    HW111617   3.732   3.362   2.000
 3865SOL    HW211618   3.718   3.516   2.054
 3866SOL     OW11619   5.413   2.784   2.474
 3866SOL    HW111620   5.508   2.755   2.482
 3866SOL    HW211621   5.405   2.849   2.399
 3867SOL     OW11622   3.837   2.599   3.459
 3867SOL    HW111623   3.925   2.586   3.504
 3867SOL    HW211624   3.824   2.696   3.437
 3868SOL     OW11625   4.337   3.227   2.588
 3868SOL    HW111626   4.288   3.140   2.597
 3868SOL    HW211627   4.314   3.270   2.501
 3869SOL     OW11628   5.017   3.090   3.285
 3869SOL    HW111629   5.054   3.017   3.227
 3869SOL    HW211630   5.069   3.095   3.370
 3870SOL     OW11631   4.533   1.866   2.364
 3870SOL    HW111632   4.573   1.957   2.355
 3870SOL    HW211633   4.433   1.874   2.370
 3871SOL     OW11634   3.921   2.838   3.126
 3871SOL    HW111635   4.010   2.793   3.112
 3871SOL    HW211636   3.848   2.773   3.107
 3872SOL     OW11637   4.911   3.654   3.478
 3872SOL    HW111638   4.935   3.714   3.402
 3872SOL    HW211639   4.918   3.559   3.448
 3873SOL     OW11640   4.041   2.113   3.663
 3873SOL    HW111641   4.112   2.184   3.669
 3873SOL    HW211642   3.953   2.152   3.691
 3874SOL     OW11643   4.322   2.591   2.132
 3874SOL    HW111644   4.346   2.660   2.064
 3874SOL    HW211645   4.244   2.624   2.186
 3875SOL     OW11646   5.005   2.207   2.806
 3875SOL    HW111647   4.919   2.157   2.793
 3875SOL    HW211648   5.067   2.153   2.862
 3876SOL     OW11649   4.531   2.467   3.327
 3876SOL    HW111650   4.484   2.464   3.416
 3876SOL    HW211651   4.480   2.412   3.261
 3877SOL     OW11652   5.118   2.331   3.536
 3877SOL    HW111653   5.098   2.374   3.624
 3877SOL    HW211654   5.196   2.269   3.545
 3878SOL     OW11655   4.697   2.752   3.434
 3878SOL    HW111656   4.743   2.668   3.405
 3878SOL    HW211657   4.641   2.786   3.359
 3879SOL     OW11658   4.715   2.272   3.104
 3879SOL    HW111659   4.638   2.306   3.158
 3879SOL    HW211660   4.681   2.221   3.025
 3880SOL     OW11661   4.765   2.563   2.291
 3880SOL    HW111662   4.791   2.559   2.387
 3880SOL    HW211663   4.680   2.512   2.277
 3881SOL     OW11664   3.800   2.673   2.651
 3881SOL    HW111665   3.899   2.661   2.660
 3881SOL    HW211666   3.776   2.768   2.672
 3882SOL     OW11667   3.854   3.683   3.433
 3882SOL    HW111668   3.844   3.668   3.532
 3882SOL    HW211669   3.768   3.719   3.397
 3883SOL     OW11670   4.589   2.210   2.057
 3883SOL    HW111671   4.648   2.273   2.008
 3883SOL    HW211672   4.608   2.116   2.028
 3884SOL     OW11673   5.086   3.006   2.407
 3884SOL    HW111674   5.169   2.977   2.359
 3884SOL    HW211675   5.037   3.073   2.351
 3885SOL     OW11676   4.274   2.058   2.747
 3885SOL    HW111677   4.269   2.053   2.847
 3885SOL    HW211678   4.276   2.154   2.718
 3886SOL     OW11679   4.732   3.318   2.339
 3886SOL    HW111680   4.686   3.390   2.287
 3886SOL    HW211681   4.728   3.338   2.437
 3887SOL     OW11682   4.075   3.663   2.715
 3887SOL    HW111683   4.125   3.577   2.721
 3887SOL    HW211684   4.140   3.740   2.712
 3888SOL     OW11685   4.951   3.412   3.368
 3888SOL    HW111686   4.957   3.335   3.432
 3888SOL    HW211687   4.899   3.386   3.288
 3889SOL     OW11688   4.045   2.805   2.104
 3889SOL    HW111689   4.127   2.844   2.062
 3889SOL    HW211690   4.018   2.723   2.055
 3890SOL     OW11691   4.185   3.128   3.589
 3890SOL    HW111692   4.135   3.129   3.503
 3890SOL    HW211693   4.122   3.110   3.665
 3891SOL     OW11694   4.835   3.638   2.099
 3891SOL    HW111695   4.775   3.576   2.149
 3891SOL    HW211696   4.866   3.594   2.014
 3892SOL     OW11697   3.926   2.147   3.360
 3892SOL    HW111698   3.846   2.207   3.347
 3892SOL    HW211699   3.916   2.098   3.446
 3893SOL     OW11700   4.188   3.605   2.185
 3893SOL    HW111701   4.221   3.644   2.271
 3893SOL    HW211702   4.264   3.598   2.120
 3894SOL     OW11703   3.973   3.647   3.103
 3894SOL    HW111704   4.030   3.582   3.153
 3894SOL    HW211705   3.957   3.614   3.010
 3895SOL     OW11706   4.664   3.560   2.766
 3895SOL    HW111707   4.744   3.503   2.787
 3895SOL    HW211708   4.615   3.520   2.689
 3896SOL     OW11709   4.106   2.562   2.342
 3896SOL    HW111710   4.151   2.472   2.339
 3896SOL    HW211711   4.012   2.551   2.375
 3897SOL     OW11712   4.338   1.984   1.979
 3897SOL    HW111713   4.436   1.962   1.986
 3897SOL    HW211714   4.307   1.967   1.886
 3898SOL     OW11715   4.505   2.126   3.611
 3898SOL    HW111716   4.572   2.065   3.654
 3898SOL    HW211717   4.432   2.145   3.676
 3899SOL     OW11718   4.612   3.376   3.057
 3899SOL    HW111719   4.589   3.351   2.963
 3899SOL    HW211720   4.673   3.307   3.096
 3900SOL     OW11721   4.527   3.264   2.786
 3900SOL    HW111722   4.617   3.278   2.744
 3900SOL    HW211723   4.456   3.266   2.715
 3901SOL     OW11724   4.646   2.365   2.761
 3901SOL    HW111725   4.621   2.356   2.665
 3901SOL    HW211726   4.694   2.283   2.792
 3902SOL     OW11727   4.263   1.926   2.374
 3902SOL    HW111728   4.182   1.927   2.432
 3902SOL    HW211729   4.266   2.009   2.319
 3903SOL     OW11730   5.158   3.050   1.903
 3903SOL    HW111731   5.190   2.974   1.960
 3903SOL    HW211732   5.066   3.077   1.933
 3904SOL     OW11733   4.021   1.897   2.033
 3904SOL    HW111734   4.070   1.981   2.012
 3904SOL    HW211735   4.083   1.832   2.078
 3905SOL     OW11736   4.659   2.098   2.342
 3905SOL    HW111737   4.611   2.139   2.264
 3905SOL    HW211738   4.758   2.096   2.323
 3906SOL     OW11739   4.800   2.545   3.326
 3906SOL    HW111740   4.720   2.484   3.329
 3906SOL    HW211741   4.881   2.492   3.302
 3907SOL     OW11742   4.951   3.432   2.655
 3907SOL    HW111743   4.972   3.506   2.590
 3907SOL    HW211744   5.019   3.432   2.728
 3908SOL     OW11745   4.183   3.014   2.603
 3908SOL    HW111746   4.112   2.987   2.668
 3908SOL    HW211747   4.157   2.986   2.510
 3909SOL     OW11748   4.995   3.659   2.453
 3909SOL    HW111749   5.039   3.723   2.389
 3909SOL    HW211750   4.945   3.711   2.523
 3910SOL     OW11751   4.756   2.411   1.878
 3910SOL    HW111752   4.715   2.493   1.839
 3910SOL    HW211753   4.820   2.437   1.951
 3911SOL     OW11754   3.802   2.418   3.248
 3911SOL    HW111755   3.894   2.417   3.207
 3911SOL    HW211756   3.796   2.492   3.315
 3912SOL     OW11757   4.285   2.084   3.009
 3912SOL    HW111758   4.323   2.000   3.046
 3912SOL    HW211759   4.197   2.103   3.053
 3913SOL     OW11760   4.590   2.316   2.504
 3913SOL    HW111761   4.558   2.388   2.442
 3913SOL    HW211762   4.614   2.235   2.451
 3914SOL     OW11763   4.741   1.901   2.615
 3914SOL    HW111764   4.669   1.906   2.546
 3914SOL    HW211765   4.717   1.832   2.684
 3915SOL     OW11766   4.212   3.247   2.036
 3915SOL    HW111767   4.125   3.232   2.083
 3915SOL    HW211768   4.195   3.273   1.941
 3916SOL     OW11769   5.114   2.437   1.940
 3916SOL    HW111770   5.060   2.416   2.021
 3916SOL    HW211771   5.205   2.396   1.949
 3917SOL     OW11772   4.251   2.118   2.190
 3917SOL    HW111773   4.278   2.059   2.115
 3917SOL    HW211774   4.251   2.213   2.159
 3918SOL     OW11775   4.788   3.209   3.202
 3918SOL    HW111776   4.708   3.186   3.257
 3918SOL    HW211777   4.871   3.183   3.251
 3919SOL     OW11778   4.835   3.057   2.962
 3919SOL    HW111779   4.795   3.101   3.043
 3919SOL    HW211780   4.794   3.094   2.879
 3920SOL     OW11781   4.639   1.951   3.264
 3920SOL    HW111782   4.664   1.931   3.169
 3920SOL    HW211783   4.711   2.007   3.306
 3921SOL     OW11784   4.704   2.978   3.581
 3921SOL    HW111785   4.605   2.984   3.591
 3921SOL    HW211786   4.727   2.898   3.525
 3922SOL     OW11787   4.429   2.912   2.230
 3922SOL    HW111788   4.415   2.919   2.329
 3922SOL    HW211789   4.513   2.861   2.212
 3923SOL     OW11790   4.134   2.675   3.113
 3923SOL    HW111791   4.220   2.687   3.163
 3923SOL    HW211792   4.092   2.588   3.140
 3924SOL     OW11793   4.998   2.248   3.124
 3924SOL    HW111794   5.019   2.322   3.188
 3924SOL    HW211795   4.909   2.265   3.081
 3925SOL     OW11796   3.788   3.426   3.193
 3925SOL    HW111797   3.742   3.508   3.159
 3925SOL    HW211798   3.886   3.445   3.202
 3926SOL     OW11799   4.091   2.962   2.363
 3926SOL    HW111800   4.084   3.045   2.307
 3926SOL    HW211801   4.095   2.882   2.303
 3927SOL     OW11802   4.290   2.399   2.727
 3927SOL    HW111803   4.302   2.465   2.653
 3927SOL    HW211804   4.336   2.433   2.810
 3928SOL     OW11805   4.976   3.210   2.250
 3928SOL    HW111806   5.026   3.287   2.290
 3928SOL    HW211807   4.881   3.212   2.282
 3929SOL     OW11808   4.996   3.307   3.004
 3929SOL    HW111809   5.043   3.320   3.091
 3929SOL    HW211810   4.930   3.233   3.013
 3930SOL     OW11811   4.078   3.372   3.191
 3930SOL    HW111812   4.057   3.328   3.104
 3930SOL    HW211813   4.175   3.398   3.194
 3931SOL     OW11814   4.126   2.613   3.460
 3931SOL    HW111815   4.194   2.668   3.413
 3931SOL    HW211816   4.166   2.525   3.487
 3932SOL     OW11817   4.737   1.967   3.632
 3932SOL    HW111818   4.743   2.052   3.580
 3932SOL    HW211819   4.769   1.891   3.575
 3933SOL     OW11820   4.228   1.912   3.602
 3933SOL    HW111821   4.186   1.855   3.532
 3933SOL    HW211822   4.162   1.981   3.634
 3934SOL     OW11823   4.297   2.732   2.891
 3934SOL    HW111824   4.341   2.821   2.882
 3934SOL    HW211825   4.234   2.732   2.968
 3935SOL     OW11826   5.084   2.724   2.907
 3935SOL    HW111827   5.009   2.724   2.841
 3935SOL    HW211828   5.121   2.632   2.916
 3936SOL     OW11829   4.933   2.387   2.137
 3936SOL    HW111830   4.946   2.303   2.191
 3936SOL    HW211831   4.904   2.461   2.197
 3937SOL     OW11832   4.031   2.075   3.093
 3937SOL    HW111833   4.008   2.112   3.183
 3937SOL    HW211834   4.001   1.980   3.087
 3938SOL     OW11835   3.761   3.172   3.144
 3938SOL    HW111836   3.814   3.123   3.212
 3938SOL    HW211837   3.783   3.270   3.149
 3939SOL     OW11838   4.456   2.496   2.926
 3939SOL    HW111839   4.515   2.470   2.850
 3939SOL    HW211840   4.428   2.592   2.915
 3940SOL     OW11841   4.031   1.925   2.480
 3940SOL    HW111842   4.020   2.019   2.513
 3940SOL    HW211843   4.026   1.862   2.557
 3941SOL     OW11844   5.346   2.229   2.236
 3941SOL    HW111845   5.348   2.153   2.300
 3941SOL    HW211846   5.298   2.306   2.276
 3942SOL     OW11847   4.747   2.628   2.828
 3942SOL    HW111848   4.762   2.649   2.924
 3942SOL    HW211849   4.717   2.533   2.819
 3943SOL     OW11850   4.704   3.435   3.562
 3943SOL    HW111851   4.684   3.479   3.474
 3943SOL    HW211852   4.743   3.344   3.546
 3944SOL     OW11853   4.074   2.760   3.666
 3944SOL    HW111854   4.150   2.804   3.714
 3944SOL    HW211855   4.109   2.713   3.584
 3945SOL     OW11856   5.027   2.700   1.904
 3945SOL    HW111857   5.061   2.607   1.919
 3945SOL    HW211858   5.045   2.727   1.809
 3946SOL     OW11859   4.792   3.195   2.711
 3946SOL    HW111860   4.799   3.111   2.656
 3946SOL    HW211861   4.854   3.264   2.675
 3947SOL     OW11862   4.043   2.672   2.811
 3947SOL    HW111863   4.136   2.708   2.816
 3947SOL    HW211864   4.037   2.587   2.863
 3948SOL     OW11865   4.063   2.371   2.868
 3948SOL    HW111866   4.011   2.288   2.851
 3948SOL    HW211867   4.140   2.376   2.804
 3949SOL     OW11868   4.862   2.242   3.540
 3949SOL    HW111869   4.817   2.305   3.604
 3949SOL    HW211870   4.955   2.273   3.523
 3950SOL     OW11871   4.884   2.069   3.339
 3950SOL    HW111872   4.884   2.133   3.416
 3950SOL    HW211873   4.912   2.117   3.256
 3951SOL     OW11874   3.732   3.188   2.062
 3951SOL    HW111875   3.639   3.209   2.031
 3951SOL    HW211876   3.742   3.089   2.075
 3952SOL     OW11877   3.812   3.663   2.789
 3952SOL    HW111878   3.770   3.577   2.762
 3952SOL    HW211879   3.906   3.666   2.755
 3953SOL     OW11880   4.228   3.430   2.772
 3953SOL    HW111881   4.294   3.504   2.781
 3953SOL    HW211882   4.272   3.351   2.730
 3954SOL     OW11883   4.726   2.658   3.100
 3954SOL    HW111884   4.767   2.626   3.186
 3954SOL    HW211885   4.630   2.631   3.097
 3955SOL     OW11886   3.764   2.406   2.976
 3955SOL    HW111887   3.849   2.373   2.935
 3955SOL    HW211888   3.777   2.421   3.074
 3956SOL     OW11889   3.913   2.382   3.584
 3956SOL    HW111890   3.972   2.342   3.514
 3956SOL    HW211891   3.855   2.453   3.543
 3957SOL     OW11892   4.539   2.434   2.187
 3957SOL    HW111893   4.546   2.345   2.141
 3957SOL    HW211894   4.445   2.468   2.179
 3958SOL     OW11895   3.976   3.426   3.606
 3958SOL    HW111896   3.946   3.483   3.682
 3958SOL    HW211897   3.969   3.329   3.632
 3959SOL     OW11898   4.395   2.326   3.131
 3959SOL    HW111899   4.361   2.237   3.101
 3959SOL    HW211900   4.421   2.380   3.051
 3960SOL     OW11901   4.654   3.540   3.327
 3960SOL    HW111902   4.630   3.522   3.232
 3960SOL    HW211903   4.684   3.634   3.337
 3961SOL     OW11904   4.197   2.362   2.053
 3961SOL    HW111905   4.258   2.442   2.057
 3961SOL    HW211906   4.102   2.393   2.060
 3962SOL     OW11907   3.883   2.999   3.328
 3962SOL    HW111908   3.905   2.938   3.404
 3962SOL    HW211909   3.893   2.950   3.242
 3963SOL     OW11910   5.071   2.921   3.096
 3963SOL    HW111911   5.095   2.858   3.022
 3963SOL    HW211912   4.981   2.961   3.078
 3964SOL     OW11913   5.026   2.717   2.171
 3964SOL    HW111914   4.940   2.686   2.213
 3964SOL    HW211915   5.022   2.703   2.072
 3965SOL     OW11916   4.976   3.593   2.990
 3965SOL    HW111917   5.060   3.598   2.936
 3965SOL    HW211918   4.953   3.497   3.008
 3966SOL     OW11919   3.807   3.120   2.884
 3966SOL    HW111920   3.802   3.119   2.984
 3966SOL    HW211921   3.724   3.079   2.846
 3967SOL     OW11922   4.412   3.524   3.578
 3967SOL    HW111923   4.356   3.605   3.587
 3967SOL    HW211924   4.464   3.528   3.492
 3968SOL     OW11925   5.112   3.435   2.339
 3968SOL    HW111926   5.179   3.447   2.265
 3968SOL    HW211927   5.072   3.524   2.362
 3969SOL     OW11928   3.854   3.656   3.713
 3969SOL    HW111929   3.813   3.582   3.766
 3969SOL    HW211930   3.918   3.707   3.771
 3970SOL     OW11931   5.004   2.789   2.534
 3970SOL    HW111932   5.064   2.708   2.536
 3970SOL    HW211933   5.044   2.858   2.474
 3971SOL     OW11934   4.554   3.135   3.284
 3971SOL    HW111935   4.549   3.168   3.379
 3971SOL    HW211936   4.468   3.154   3.238
 3972SOL     OW11937   4.396   3.478   2.016
 3972SOL    HW111938   4.405   3.488   1.917
 3972SOL    HW211939   4.356   3.389   2.037
 3973SOL     OW11940   3.987   2.188   2.582
 3973SOL    HW111941   3.908   2.239   2.548
 3973SOL    HW211942   3.978   2.173   2.680
 3974SOL     OW11943   4.918   3.474   1.893
 3974SOL    HW111944   4.924   3.381   1.930
 3974SOL    HW211945   4.859   3.474   1.813
 3975SOL     OW11946   4.546   2.864   3.234
 3975SOL    HW111947   4.586   2.863   3.142
 3975SOL    HW211948   4.556   2.956   3.274
 3976SOL     OW11949   4.640   2.772   2.153
 3976SOL    HW111950   4.703   2.810   2.085
 3976SOL    HW211951   4.680   2.689   2.192
 3977SOL     OW11952   4.096   3.150   3.352
 3977SOL    HW111953   4.083   3.243   3.318
 3977SOL    HW211954   4.012   3.098   3.339
 3978SOL     OW11955   4.763   2.960   2.558
 3978SOL    HW111956   4.693   2.913   2.612
 3978SOL    HW211957   4.822   2.892   2.515
 3979SOL     OW11958   4.738   2.098   2.833
 3979SOL    HW111959   4.730   2.062   2.740
 3979SOL    HW211960   4.736   2.022   2.898
 3980SOL     OW11961   4.314   3.349   2.353
 3980SOL    HW111962   4.356   3.291   2.283
 3980SOL    HW211963   4.270   3.428   2.309
 3981SOL     OW11964   3.979   3.210   2.152
 3981SOL    HW111965   3.883   3.211   2.125
 3981SOL    HW211966   3.991   3.263   2.236
 3982SOL     OW11967   3.829   2.875   3.588
 3982SOL    HW111968   3.752   2.842   3.642
 3982SOL    HW211969   3.914   2.845   3.630
 3983SOL     OW11970   4.396   2.065   3.351
 3983SOL    HW111971   4.486   2.049   3.311
 3983SOL    HW211972   4.404   2.070   3.450
 3984SOL     OW11973   3.799   2.207   1.895
 3984SOL    HW111974   3.707   2.179   1.866
 3984SOL    HW211975   3.830   2.284   1.839
 3985SOL     OW11976   5.164   2.718   3.260
 3985SOL    HW111977   5.107   2.770   3.197
 3985SOL    HW211978   5.260   2.730   3.236
 3986SOL     OW11979   3.796   2.028   2.180
 3986SOL    HW111980   3.779   2.111   2.126
 3986SOL    HW211981   3.886   1.991   2.158
 3987SOL     OW11982   4.907   3.197   1.981
 3987SOL    HW111983   4.808   3.186   1.983
 3987SOL    HW211984   4.941   3.212   2.074
 3988SOL     OW11985   4.337   2.704   3.293
 3988SOL    HW111986   4.393   2.785   3.276
 3988SOL    HW211987   4.396   2.624   3.296
 3989SOL     OW11988   4.440   2.427   3.570
 3989SOL    HW111989   4.459   2.492   3.644
 3989SOL    HW211990   4.500   2.347   3.579
 3990SOL     OW11991   5.174   3.082   3.495
 3990SOL    HW111992   5.165   3.072   3.594
 3990SOL    HW211993   5.270   3.075   3.469
 3991SOL     OW11994   4.114   3.603   3.422
 3991SOL    HW111995   4.023   3.644   3.420
 3991SOL    HW211996   4.107   3.509   3.454
 3992SOL     OW11997   4.949   2.187   2.311
 3992SOL    HW111998   5.014   2.113   2.300
 3992SOL    HW211999   4.969   2.237   2.395
 3993SOL     OW12000   4.318   2.607   2.514
 3993SOL    HW112001   4.368   2.692   2.495
 3993SOL    HW212002   4.230   2.609   2.466
 3994SOL     OW12003   4.583   3.236   1.878
 3994SOL    HW112004   4.537   3.251   1.966
 3994SOL    HW212005   4.627   3.321   1.848
 3995SOL     OW12006   4.385   3.652   2.815
 3995SOL    HW112007   4.339   3.740   2.802
 3995SOL    HW212008   4.484   3.664   2.808
 3996SOL     OW12009   4.583   2.818   2.723
 3996SOL    HW112010   4.637   2.749   2.771
 3996SOL    HW212011   4.551   2.887   2.789
 3997SOL     OW12012   4.807   2.846   1.949
 3997SOL    HW112013   4.784   2.899   1.867
 3997SOL    HW212014   4.888   2.790   1.930
 3998SOL     OW12015   3.945   3.176   3.706
 3998SOL    HW112016   3.880   3.103   3.685
 3998SOL    HW212017   3.949   3.190   3.804
 3999SOL     OW12018   3.803   3.102   2.515
 3999SOL    HW112019   3.802   3.055   2.603
 3999SOL    HW212020   3.885   3.074   2.464
 4000SOL     OW12021   4.396   3.253   3.486
 4000SOL    HW112022   4.318   3.203   3.524
 4000SOL    HW212023   4.393   3.348   3.517
 4001SOL     OW12024   4.152   2.286   2.382
 4001SOL    HW112025   4.182   2.214   2.320
 4001SOL    HW212026   4.113   2.246   2.465
 4002SOL     OW12027   4.041   2.409   3.142
 4002SOL    HW112028   4.079   2.350   3.214
 4002SOL    HW212029   4.081   2.383   3.054
 4003SOL     OW12030   4.536   3.448   2.549
 4003SOL    HW112031   4.568   3.458   2.455
 4003SOL    HW212032   4.457   3.386   2.551
 4004SOL     OW12033   5.148   2.076   2.974
 4004SOL    HW112034   5.200   2.011   3.029
 4004SOL    HW212035   5.099   2.139   3.035
 4005SOL     OW12036   4.725   1.896   3.016
 4005SOL    HW112037   4.662   1.824   2.985
 4005SOL    HW212038   4.818   1.860   3.016
 4006SOL     OW12039   4.494   3.192   2.163
 4006SOL    HW112040   4.448   3.105   2.180
 4006SOL    HW212041   4.585   3.189   2.204
 4007SOL     OW12042   4.342   3.429   3.146
 4007SOL    HW112043   4.337   3.511   3.203
 4007SOL    HW212044   4.431   3.426   3.101
 4008SOL     OW12045   5.076   1.914   2.030
 4008SOL    HW112046   5.111   1.873   1.946
 4008SOL    HW212047   4.986   1.876   2.050
 4009SOL     OW12048   3.763   2.939   2.162
 4009SOL    HW112049   3.862   2.928   2.153
 4009SOL    HW212050   3.723   2.853   2.194
 4010SOL     OW12051   4.599   3.508   2.199
 4010SOL    HW112052   4.522   3.473   2.145
 4010SOL    HW212053   4.567   3.579   2.261
 4011SOL     OW12054   3.954   2.490   3.837
 4011SOL    HW112055   3.861   2.488   3.874
 4011SOL    HW212056   3.955   2.451   3.745
 4012SOL     OW12057   3.949   2.137   4.720
 4012SOL    HW112058   3.984   2.120   4.812
 4012SOL    HW212059   3.861   2.092   4.708
 4013SOL     OW12060   3.743   2.230   4.371
 4013SOL    HW112061   3.661   2.273   4.410
 4013SOL    HW212062   3.715   2.157   4.308
 4014SOL     OW12063   4.293   3.137   4.889
 4014SOL    HW112064   4.200   3.130   4.852
 4014SOL    HW212065   4.304   3.226   4.933
 4015SOL     OW12066   5.279   3.373   4.427
 4015SOL    HW112067   5.222   3.357   4.508
 4015SOL    HW212068   5.220   3.383   4.347
 4016SOL     OW12069   4.859   2.565   4.441
 4016SOL    HW112070   4.916   2.643   4.416
 4016SOL    HW212071   4.799   2.591   4.517
 4017SOL     OW12072   4.492   3.006   4.747
 4017SOL    HW112073   4.414   3.023   4.807
 4017SOL    HW212074   4.526   3.093   4.711
 4018SOL     OW12075   4.409   2.874   4.389
 4018SOL    HW112076   4.478   2.858   4.459
 4018SOL    HW212077   4.336   2.931   4.427
 4019SOL     OW12078   4.059   3.297   4.785
 4019SOL    HW112079   3.981   3.266   4.732
 4019SOL    HW212080   4.117   3.355   4.728
 4020SOL     OW12081   3.955   3.575   4.207
 4020SOL    HW112082   3.989   3.652   4.261
 4020SOL    HW212083   3.999   3.575   4.117
 4021SOL     OW12084   3.954   3.296   4.262
 4021SOL    HW112085   3.928   3.392   4.262
 4021SOL    HW212086   3.883   3.242   4.307
 4022SOL     OW12087   3.964   2.953   4.610
 4022SOL    HW112088   3.978   2.869   4.662
 4022SOL    HW212089   3.909   3.017   4.665
 4023SOL     OW12090   4.344   3.648   5.163
 4023SOL    HW112091   4.252   3.631   5.198
 4023SOL    HW212092   4.372   3.740   5.189
 4024SOL     OW12093   4.330   2.826   3.847
 4024SOL    HW112094   4.337   2.910   3.793
 4024SOL    HW212095   4.376   2.839   3.935
 4025SOL     OW12096   5.318   1.976   5.204
 4025SOL    HW112097   5.300   2.043   5.132
 4025SOL    HW212098   5.315   2.022   5.293
 4026SOL     OW12099   3.846   2.505   4.287
 4026SOL    HW112100   3.801   2.417   4.304
 4026SOL    HW212101   3.845   2.559   4.371
 4027SOL     OW12102   3.751   3.458   3.841
 4027SOL    HW112103   3.732   3.362   3.862
 4027SOL    HW212104   3.718   3.516   3.916
 4028SOL     OW12105   5.413   2.784   4.336
 4028SOL    HW112106   5.508   2.755   4.344
 4028SOL    HW212107   5.405   2.849   4.261
 4029SOL     OW12108   4.337   3.227   4.450
 4029SOL    HW112109   4.288   3.140   4.459
 4029SOL    HW212110   4.314   3.270   4.363
 4030SOL     OW12111   5.017   3.090   5.147
 4030SOL    HW112112   5.054   3.017   5.089
 4030SOL    HW212113   5.069   3.095   5.232
 4031SOL     OW12114   4.533   1.866   4.226
 4031SOL    HW112115   4.573   1.957   4.217
 4031SOL    HW212116   4.433   1.874   4.232
 4032SOL     OW12117   3.921   2.838   4.988
 4032SOL    HW112118   4.010   2.793   4.974
 4032SOL    HW212119   3.848   2.773   4.969
 4033SOL     OW12120   4.322   2.591   3.994
 4033SOL    HW112121   4.346   2.660   3.926
 4033SOL    HW212122   4.244   2.624   4.048
 4034SOL     OW12123   5.005   2.207   4.668
 4034SOL    HW112124   4.919   2.157   4.655
 4034SOL    HW212125   5.067   2.153   4.724
 4035SOL     OW12126   4.531   2.467   5.189
 4035SOL    HW112127   4.484   2.464   5.278
 4035SOL    HW212128   4.480   2.412   5.123
 4036SOL     OW12129   4.715   2.272   4.966
 4036SOL    HW112130   4.638   2.306   5.020
 4036SOL    HW212131   4.681   2.221   4.887
 4037SOL     OW12132   4.765   2.563   4.153
 4037SOL    HW112133   4.791   2.559   4.249
 4037SOL    HW212134   4.680   2.512   4.139
 4038SOL     OW12135   3.800   2.673   4.513
 4038SOL    HW112136   3.899   2.661   4.522
 4038SOL    HW212137   3.776   2.768   4.534
 4039SOL     OW12138   3.854   3.683   5.295
 4039SOL    HW112139   3.844   3.668   5.394
 4039SOL    HW212140   3.768   3.719   5.259
 4040SOL     OW12141   4.589   2.210   3.919
 4040SOL    HW112142   4.648   2.273   3.870
 4040SOL    HW212143   4.608   2.116   3.890
 4041SOL     OW12144   5.086   3.006   4.269
 4041SOL    HW112145   5.169   2.977   4.221
 4041SOL    HW212146   5.037   3.073   4.213
 4042SOL     OW12147   4.274   2.058   4.609
 4042SOL    HW112148   4.269   2.053   4.709
 4042SOL    HW212149   4.276   2.154   4.580
 4043SOL     OW12150   4.732   3.318   4.201
 4043SOL    HW112151   4.686   3.390   4.149
 4043SOL    HW212152   4.728   3.338   4.299
 4044SOL     OW12153   4.075   3.663   4.577
 4044SOL    HW112154   4.125   3.577   4.583
 4044SOL    HW212155   4.140   3.740   4.574
 4045SOL     OW12156   4.045   2.805   3.966
 4045SOL    HW112157   4.127   2.844   3.924
 4045SOL    HW212158   4.018   2.723   3.917
 4046SOL     OW12159   4.835   3.638   3.961
 4046SOL    HW112160   4.775   3.576   4.011
 4046SOL    HW212161   4.866   3.594   3.876
 4047SOL     OW12162   4.188   3.605   4.047
 4047SOL    HW112163   4.221   3.644   4.133
 4047SOL    HW212164   4.264   3.598   3.982
 4048SOL     OW12165   3.973   3.647   4.965
 4048SOL    HW112166   4.030   3.582   5.015
 4048SOL    HW212167   3.957   3.614   4.872
 4049SOL     OW12168   4.664   3.560   4.628
 4049SOL    HW112169   4.744   3.503   4.649
 4049SOL    HW212170   4.615   3.520   4.551
 4050SOL     OW12171   4.106   2.562   4.204
 4050SOL    HW112172   4.151   2.472   4.201
 4050SOL    HW212173   4.012   2.551   4.237
 4051SOL     OW12174   4.338   1.984   3.841
 4051SOL    HW112175   4.436   1.962   3.848
 4051SOL    HW212176   4.307   1.967   3.748
 4052SOL     OW12177   4.612   3.376   4.919
 4052SOL    HW112178   4.589   3.351   4.825
 4052SOL    HW212179   4.673   3.307   4.958
 4053SOL     OW12180   4.527   3.264   4.648
 4053SOL    HW112181   4.617   3.278   4.606
 4053SOL    HW212182   4.456   3.266   4.577
 4054SOL     OW12183   4.646   2.365   4.623
 4054SOL    HW112184   4.621   2.356   4.527
 4054SOL    HW212185   4.694   2.283   4.654
 4055SOL     OW12186   4.263   1.926   4.236
 4055SOL    HW112187   4.182   1.927   4.294
 4055SOL    HW212188   4.266   2.009   4.181
 4056SOL     OW12189   5.158   3.050   3.765
 4056SOL    HW112190   5.190   2.974   3.822
 4056SOL    HW212191   5.066   3.077   3.795
 4057SOL     OW12192   4.021   1.897   3.895
 4057SOL    HW112193   4.070   1.981   3.874
 4057SOL    HW212194   4.083   1.832   3.940
 4058SOL     OW12195   4.659   2.098   4.204
 4058SOL    HW112196   4.611   2.139   4.126
 4058SOL    HW212197   4.758   2.096   4.185
 4059SOL     OW12198   4.951   3.432   4.517
 4059SOL    HW112199   4.972   3.506   4.452
 4059SOL    HW212200   5.019   3.432   4.590
 4060SOL     OW12201   4.183   3.014   4.465
 4060SOL    HW112202   4.112   2.987   4.530
 4060SOL    HW212203   4.157   2.986   4.372
 4061SOL     OW12204   4.995   3.659   4.315
 4061SOL    HW112205   5.039   3.723   4.251
 4061SOL    HW212206   4.945   3.711   4.385
 4062SOL     OW12207   4.756   2.411   3.740
 4062SOL    HW112208   4.715   2.493   3.701
 4062SOL    HW212209   4.820   2.437   3.813
 4063SOL     OW12210   4.285   2.084   4.871
 4063SOL    HW112211   4.323   2.000   4.908
 4063SOL    HW212212   4.197   2.103   4.915
 4064SOL     OW12213   4.590   2.316   4.366
 4064SOL    HW112214   4.558   2.388   4.304
 4064SOL    HW212215   4.614   2.235   4.313
 4065SOL     OW12216   4.741   1.901   4.477
 4065SOL    HW112217   4.669   1.906   4.408
 4065SOL    HW212218   4.717   1.832   4.546
 4066SOL     OW12219   4.212   3.247   3.898
 4066SOL    HW112220   4.125   3.232   3.945
 4066SOL    HW212221   4.195   3.273   3.803
 4067SOL     OW12222   5.114   2.437   3.802
 4067SOL    HW112223   5.060   2.416   3.883
 4067SOL    HW212224   5.205   2.396   3.811
 4068SOL     OW12225   4.251   2.118   4.052
 4068SOL    HW112226   4.278   2.059   3.977
 4068SOL    HW212227   4.251   2.213   4.021
 4069SOL     OW12228   4.835   3.057   4.824
 4069SOL    HW112229   4.795   3.101   4.905
 4069SOL    HW212230   4.794   3.094   4.741
 4070SOL     OW12231   4.429   2.912   4.092
 4070SOL    HW112232   4.415   2.919   4.191
 4070SOL    HW212233   4.513   2.861   4.074
 4071SOL     OW12234   4.134   2.675   4.975
 4071SOL    HW112235   4.220   2.687   5.025
 4071SOL    HW212236   4.092   2.588   5.002
 4072SOL     OW12237   4.998   2.248   4.986
 4072SOL    HW112238   5.019   2.322   5.050
 4072SOL    HW212239   4.909   2.265   4.943
 4073SOL     OW12240   3.788   3.426   5.055
 4073SOL    HW112241   3.742   3.508   5.021
 4073SOL    HW212242   3.886   3.445   5.064
 4074SOL     OW12243   4.091   2.962   4.225
 4074SOL    HW112244   4.084   3.045   4.169
 4074SOL    HW212245   4.095   2.882   4.165
 4075SOL     OW12246   4.290   2.399   4.589
 4075SOL    HW112247   4.302   2.465   4.515
 4075SOL    HW212248   4.336   2.433   4.672
 4076SOL     OW12249   4.976   3.210   4.112
 4076SOL    HW112250   5.026   3.287   4.152
 4076SOL    HW212251   4.881   3.212   4.144
 4077SOL     OW12252   4.996   3.307   4.866
 4077SOL    HW112253   5.043   3.320   4.953
 4077SOL    HW212254   4.930   3.233   4.875
 4078SOL     OW12255   4.078   3.372   5.053
 4078SOL    HW112256   4.057   3.328   4.966
 4078SOL    HW212257   4.175   3.398   5.056
 4079SOL     OW12258   4.297   2.732   4.753
 4079SOL    HW112259   4.341   2.821   4.744
 4079SOL    HW212260   4.234   2.732   4.830
 4080SOL     OW12261   5.084   2.724   4.769
 4080SOL    HW112262   5.009   2.724   4.703
 4080SOL    HW212263   5.121   2.632   4.778
 4081SOL     OW12264   4.933   2.387   3.999
 4081SOL    HW112265   4.946   2.303   4.053
 4081SOL    HW212266   4.904   2.461   4.059
 4082SOL     OW12267   4.031   2.075   4.955
 4082SOL    HW112268   4.008   2.112   5.045
 4082SOL    HW212269   4.001   1.980   4.949
 4083SOL     OW12270   3.761   3.172   5.006
 4083SOL    HW112271   3.814   3.123   5.074
 4083SOL    HW212272   3.783   3.270   5.011
 4084SOL     OW12273   4.456   2.496   4.788
 4084SOL    HW112274   4.515   2.470   4.712
 4084SOL    HW212275   4.428   2.592   4.777
 4085SOL     OW12276   4.031   1.925   4.342
 4085SOL    HW112277   4.020   2.019   4.375
 4085SOL    HW212278   4.026   1.862   4.419
 4086SOL     OW12279   5.346   2.229   4.098
 4086SOL    HW112280   5.348   2.153   4.162
 4086SOL    HW212281   5.298   2.306   4.138
 4087SOL     OW12282   4.747   2.628   4.690
 4087SOL    HW112283   4.762   2.649   4.786
 4087SOL    HW212284   4.717   2.533   4.681
 4088SOL     OW12285   5.027   2.700   3.766
 4088SOL    HW112286   5.061   2.607   3.781
 4088SOL    HW212287   5.045   2.727   3.671
 4089SOL     OW12288   4.792   3.195   4.573
 4089SOL    HW112289   4.799   3.111   4.518
 4089SOL    HW212290   4.854   3.264   4.537
 4090SOL     OW12291   4.043   2.672   4.673
 4090SOL    HW112292   4.136   2.708   4.678
 4090SOL    HW212293   4.037   2.587   4.725
 4091SOL     OW12294   4.063   2.371   4.730
 4091SOL    HW112295   4.011   2.288   4.713
 4091SOL    HW212296   4.140   2.376   4.666
 4092SOL     OW12297   4.884   2.069   5.201
 4092SOL    HW112298   4.884   2.133   5.278
 4092SOL    HW212299   4.912   2.117   5.118
 4093SOL     OW12300   3.732   3.188   3.924
 4093SOL    HW112301   3.639   3.209   3.893
 4093SOL    HW212302   3.742   3.089   3.937
 4094SOL     OW12303   3.812   3.663   4.651
 4094SOL    HW112304   3.770   3.577   4.624
 4094SOL    HW212305   3.906   3.666   4.617
 4095SOL     OW12306   4.228   3.430   4.634
 4095SOL    HW112307   4.294   3.504   4.643
 4095SOL    HW212308   4.272   3.351   4.592
 4096SOL     OW12309   4.726   2.658   4.962
 4096SOL    HW112310   4.767   2.626   5.048
 4096SOL    HW212311   4.630   2.631   4.959
 4097SOL     OW12312   3.764   2.406   4.838
 4097SOL    HW112313   3.849   2.373   4.797
 4097SOL    HW212314   3.777   2.421   4.936
 4098SOL     OW12315   4.539   2.434   4.049
 4098SOL    HW112316   4.546   2.345   4.003
 4098SOL    HW212317   4.445   2.468   4.041
 4099SOL     OW12318   4.395   2.326   4.993
 4099SOL    HW112319   4.361   2.237   4.963
 4099SOL    HW212320   4.421   2.380   4.913
 4100SOL     OW12321   4.654   3.540   5.189
 4100SOL    HW112322   4.630   3.522   5.094
 4100SOL    HW212323   4.684   3.634   5.199
 4101SOL     OW12324   4.197   2.362   3.915
 4101SOL    HW112325   4.258   2.442   3.919
 4101SOL    HW212326   4.102   2.393   3.922
 4102SOL     OW12327   3.883   2.999   5.190
 4102SOL    HW112328   3.905   2.938   5.266
 4102SOL    HW212329   3.893   2.950   5.104
 4103SOL     OW12330   5.071   2.921   4.958
 4103SOL    HW112331   5.095   2.858   4.884
 4103SOL    HW212332   4.981   2.961   4.940
 4104SOL     OW12333   5.026   2.717   4.033
 4104SOL    HW112334   4.940   2.686   4.075
 4104SOL    HW212335   5.022   2.703   3.934
 4105SOL     OW12336   4.976   3.593   4.852
 4105SOL    HW112337   5.060   3.598   4.798
 4105SOL    HW212338   4.953   3.497   4.870
 4106SOL     OW12339   3.807   3.120   4.746
 4106SOL    HW112340   3.802   3.119   4.846
 4106SOL    HW212341   3.724   3.079   4.708
 4107SOL     OW12342   5.112   3.435   4.201
 4107SOL    HW112343   5.179   3.447   4.127
 4107SOL    HW212344   5.072   3.524   4.224
 4108SOL     OW12345   5.004   2.789   4.396
 4108SOL    HW112346   5.064   2.708   4.398
 4108SOL    HW212347   5.044   2.858   4.336
 4109SOL     OW12348   4.396   3.478   3.878
 4109SOL    HW112349   4.405   3.488   3.779
 4109SOL    HW212350   4.356   3.389   3.899
 4110SOL     OW12351   3.987   2.188   4.444
 4110SOL    HW112352   3.908   2.239   4.410
 4110SOL    HW212353   3.978   2.173   4.542
 4111SOL     OW12354   4.918   3.474   3.755
 4111SOL    HW112355   4.924   3.381   3.792
 4111SOL    HW212356   4.859   3.474   3.675
 4112SOL     OW12357   4.546   2.864   5.096
 4112SOL    HW112358   4.586   2.863   5.004
 4112SOL    HW212359   4.556   2.956   5.136
 4113SOL     OW12360   4.640   2.772   4.015
 4113SOL    HW112361   4.703   2.810   3.947
 4113SOL    HW212362   4.680   2.689   4.054
 4114SOL     OW12363   4.763   2.960   4.420
 4114SOL    HW112364   4.693   2.913   4.474
 4114SOL    HW212365   4.822   2.892   4.377
 4115SOL     OW12366   4.738   2.098   4.695
 4115SOL    HW112367   4.730   2.062   4.602
 4115SOL    HW212368   4.736   2.022   4.760
 4116SOL     OW12369   4.314   3.349   4.215
 4116SOL    HW112370   4.356   3.291   4.145
 4116SOL    HW212371   4.270   3.428   4.171
 4117SOL     OW12372   3.979   3.210   4.014
 4117SOL    HW112373   3.883   3.211   3.987
 4117SOL    HW212374   3.991   3.263   4.098
 4118SOL     OW12375   4.396   2.065   5.213
 4118SOL    HW112376   4.486   2.049   5.173
 4118SOL    HW212377   4.404   2.070   5.312
 4119SOL     OW12378   3.799   2.207   3.757
 4119SOL    HW112379   3.707   2.179   3.728
 4119SOL    HW212380   3.830   2.284   3.701
 4120SOL     OW12381   3.796   2.028   4.042
 4120SOL    HW112382   3.779   2.111   3.988
 4120SOL    HW212383   3.886   1.991   4.020
 4121SOL     OW12384   4.907   3.197   3.843
 4121SOL    HW112385   4.808   3.186   3.845
 4121SOL    HW212386   4.941   3.212   3.936
 4122SOL     OW12387   4.337   2.704   5.155
 4122SOL    HW112388   4.393   2.785   5.138
 4122SOL    HW212389   4.396   2.624   5.158
 4123SOL     OW12390   4.114   3.603   5.284
 4123SOL    HW112391   4.023   3.644   5.282
 4123SOL    HW212392   4.107   3.509   5.316
 4124SOL     OW12393   4.949   2.187   4.173
 4124SOL    HW112394   5.014   2.113   4.162
 4124SOL    HW212395   4.969   2.237   4.257
 4125SOL     OW12396   4.318   2.607   4.376
 4125SOL    HW112397   4.368   2.692   4.357
 4125SOL    HW212398   4.230   2.609   4.328
 4126SOL     OW12399   4.583   3.236   3.740
 4126SOL    HW112400   4.537   3.251   3.828
 4126SOL    HW212401   4.627   3.321   3.710
 4127SOL     OW12402   4.385   3.652   4.677
 4127SOL    HW112403   4.339   3.740   4.664
 4127SOL    HW212404   4.484   3.664   4.670
 4128SOL     OW12405   4.583   2.818   4.585
 4128SOL    HW112406   4.637   2.749   4.633
 4128SOL    HW212407   4.551   2.887   4.651
 4129SOL     OW12408   4.807   2.846   3.811
 4129SOL    HW112409   4.784   2.899   3.729
 4129SOL    HW212410   4.888   2.790   3.792
 4130SOL     OW12411   3.803   3.102   4.377
 4130SOL    HW112412   3.802   3.055   4.465
 4130SOL    HW212413   3.885   3.074   4.326
 4131SOL     OW12414   4.152   2.286   4.244
 4131SOL    HW112415   4.182   2.214   4.182
 4131SOL    HW212416   4.113   2.246   4.327
 4132SOL     OW12417   4.041   2.409   5.004
 4132SOL    HW112418   4.079   2.350   5.076
 4132SOL    HW212419   4.081   2.383   4.916
 4133SOL     OW12420   4.536   3.448   4.411
 4133SOL    HW112421   4.568   3.458   4.317
 4133SOL    HW212422   4.457   3.386   4.413
 4134SOL     OW12423   5.148   2.076   4.836
 4134SOL    HW112424   5.200   2.011   4.891
 4134SOL    HW212425   5.099   2.139   4.897
 4135SOL     OW12426   4.725   1.896   4.878
 4135SOL    HW112427   4.662   1.824   4.847
 4135SOL    HW212428   4.818   1.860   4.878
 4136SOL     OW12429   4.494   3.192   4.025
 4136SOL    HW112430   4.448   3.105   4.042
 4136SOL    HW212431   4.585   3.189   4.066
 4137SOL     OW12432   4.342   3.429   5.008
 4137SOL    HW112433   4.337   3.511   5.065
 4137SOL    HW212434   4.431   3.426   4.963
 4138SOL     OW12435   5.076   1.914   3.892
 4138SOL    HW112436   5.111   1.873   3.808
 4138SOL    HW212437   4.986   1.876   3.912
 4139SOL     OW12438   3.763   2.939   4.024
 4139SOL    HW112439   3.862   2.928   4.015
 4139SOL    HW212440   3.723   2.853   4.056
 4140SOL     OW12441   4.599   3.508   4.061
 4140SOL    HW112442   4.522   3.473   4.007
 4140SOL    HW212443   4.567   3.579   4.123
 4141SOL     OW12444   3.954   4.352   0.113
 4141SOL    HW112445   3.861   4.350   0.150
 4141SOL    HW212446   3.955   4.313   0.021
 4142SOL     OW12447   3.949   3.999   0.996
 4142SOL    HW112448   3.984   3.982   1.088
 4142SOL    HW212449   3.861   3.954   0.984
 4143SOL     OW12450   3.743   4.092   0.647
 4143SOL    HW112451   3.661   4.135   0.686
 4143SOL    HW212452   3.715   4.019   0.584
 4144SOL     OW12453   4.293   4.999   1.165
 4144SOL    HW112454   4.200   4.992   1.128
 4144SOL    HW212455   4.304   5.088   1.209
 4145SOL     OW12456   5.279   5.235   0.703
 4145SOL    HW112457   5.222   5.219   0.784
 4145SOL    HW212458   5.220   5.245   0.623
 4146SOL     OW12459   4.859   4.427   0.717
 4146SOL    HW112460   4.916   4.505   0.692
 4146SOL    HW212461   4.799   4.453   0.793
 4147SOL     OW12462   4.492   4.868   1.023
 4147SOL    HW112463   4.414   4.885   1.083
 4147SOL    HW212464   4.526   4.955   0.987
 4148SOL     OW12465   4.574   4.522   1.823
 4148SOL    HW112466   4.570   4.598   1.888
 4148SOL    HW212467   4.596   4.558   1.732
 4149SOL     OW12468   4.409   4.736   0.665
 4149SOL    HW112469   4.478   4.720   0.735
 4149SOL    HW212470   4.336   4.793   0.703
 4150SOL     OW12471   4.410   4.885   1.803
 4150SOL    HW112472   4.470   4.964   1.817
 4150SOL    HW212473   4.324   4.916   1.762
 4151SOL     OW12474   4.059   5.159   1.061
 4151SOL    HW112475   3.981   5.128   1.008
 4151SOL    HW212476   4.117   5.217   1.004
 4152SOL     OW12477   4.162   4.116   1.499
 4152SOL    HW112478   4.244   4.060   1.508
 4152SOL    HW212479   4.081   4.058   1.503
 4153SOL     OW12480   3.964   4.815   0.886
 4153SOL    HW112481   3.978   4.731   0.938
 4153SOL    HW212482   3.909   4.879   0.941
 4154SOL     OW12483   4.330   4.688   0.123
 4154SOL    HW112484   4.337   4.772   0.069
 4154SOL    HW212485   4.376   4.701   0.211
 4155SOL     OW12486   3.846   4.367   0.563
 4155SOL    HW112487   3.801   4.279   0.580
 4155SOL    HW212488   3.845   4.421   0.647
 4156SOL     OW12489   5.413   4.646   0.612
 4156SOL    HW112490   5.508   4.617   0.620
 4156SOL    HW212491   5.405   4.711   0.537
 4157SOL     OW12492   3.837   4.461   1.597
 4157SOL    HW112493   3.925   4.448   1.642
 4157SOL    HW212494   3.824   4.558   1.575
 4158SOL     OW12495   4.337   5.089   0.726
 4158SOL    HW112496   4.288   5.002   0.735
 4158SOL    HW212497   4.314   5.132   0.639
 4159SOL     OW12498   5.017   4.952   1.423
 4159SOL    HW112499   5.054   4.879   1.365
 4159SOL    HW212500   5.069   4.957   1.508
 4160SOL     OW12501   4.533   3.728   0.502
 4160SOL    HW112502   4.573   3.819   0.493
 4160SOL    HW212503   4.433   3.736   0.508
 4161SOL     OW12504   3.921   4.700   1.264
 4161SOL    HW112505   4.010   4.655   1.250
 4161SOL    HW212506   3.848   4.635   1.245
 4162SOL     OW12507   4.041   3.975   1.801
 4162SOL    HW112508   4.112   4.046   1.807
 4162SOL    HW212509   3.953   4.014   1.829
 4163SOL     OW12510   4.322   4.453   0.270
 4163SOL    HW112511   4.346   4.522   0.202
 4163SOL    HW212512   4.244   4.486   0.324
 4164SOL     OW12513   5.005   4.069   0.944
 4164SOL    HW112514   4.919   4.019   0.931
 4164SOL    HW212515   5.067   4.015   1.000
 4165SOL     OW12516   4.531   4.329   1.465
 4165SOL    HW112517   4.484   4.326   1.554
 4165SOL    HW212518   4.480   4.274   1.399
 4166SOL     OW12519   5.118   4.193   1.674
 4166SOL    HW112520   5.098   4.236   1.762
 4166SOL    HW212521   5.196   4.131   1.683
 4167SOL     OW12522   4.697   4.614   1.572
 4167SOL    HW112523   4.743   4.530   1.543
 4167SOL    HW212524   4.641   4.648   1.497
 4168SOL     OW12525   4.715   4.134   1.242
 4168SOL    HW112526   4.638   4.168   1.296
 4168SOL    HW212527   4.681   4.083   1.163
 4169SOL     OW12528   4.765   4.425   0.429
 4169SOL    HW112529   4.791   4.421   0.525
 4169SOL    HW212530   4.680   4.374   0.415
 4170SOL     OW12531   3.800   4.535   0.789
 4170SOL    HW112532   3.899   4.523   0.798
 4170SOL    HW212533   3.776   4.630   0.810
 4171SOL     OW12534   4.589   4.072   0.195
 4171SOL    HW112535   4.648   4.135   0.146
 4171SOL    HW212536   4.608   3.978   0.166
 4172SOL     OW12537   5.086   4.868   0.545
 4172SOL    HW112538   5.169   4.839   0.497
 4172SOL    HW212539   5.037   4.935   0.489
 4173SOL     OW12540   4.274   3.920   0.885
 4173SOL    HW112541   4.269   3.915   0.985
 4173SOL    HW212542   4.276   4.016   0.856
 4174SOL     OW12543   4.045   4.667   0.242
 4174SOL    HW112544   4.127   4.706   0.200
 4174SOL    HW212545   4.018   4.585   0.193
 4175SOL     OW12546   4.185   4.990   1.727
 4175SOL    HW112547   4.135   4.991   1.641
 4175SOL    HW212548   4.122   4.972   1.803
 4176SOL     OW12549   3.926   4.009   1.498
 4176SOL    HW112550   3.846   4.069   1.485
 4176SOL    HW212551   3.916   3.960   1.584
 4177SOL     OW12552   4.106   4.424   0.480
 4177SOL    HW112553   4.151   4.334   0.477
 4177SOL    HW212554   4.012   4.413   0.513
 4178SOL     OW12555   4.505   3.988   1.749
 4178SOL    HW112556   4.572   3.927   1.792
 4178SOL    HW212557   4.432   4.007   1.814
 4179SOL     OW12558   4.646   4.227   0.899
 4179SOL    HW112559   4.621   4.218   0.803
 4179SOL    HW212560   4.694   4.145   0.930
 4180SOL     OW12561   4.263   3.788   0.512
 4180SOL    HW112562   4.182   3.789   0.570
 4180SOL    HW212563   4.266   3.871   0.457
 4181SOL     OW12564   4.659   3.960   0.480
 4181SOL    HW112565   4.611   4.001   0.402
 4181SOL    HW212566   4.758   3.958   0.461
 4182SOL     OW12567   4.800   4.407   1.464
 4182SOL    HW112568   4.720   4.346   1.467
 4182SOL    HW212569   4.881   4.354   1.440
 4183SOL     OW12570   4.951   5.294   0.793
 4183SOL    HW112571   4.972   5.368   0.728
 4183SOL    HW212572   5.019   5.294   0.866
 4184SOL     OW12573   4.183   4.876   0.741
 4184SOL    HW112574   4.112   4.849   0.806
 4184SOL    HW212575   4.157   4.848   0.648
 4185SOL     OW12576   4.756   4.273   0.016
 4185SOL    HW112577   4.715   4.355  -0.023
 4185SOL    HW212578   4.820   4.299   0.089
 4186SOL     OW12579   3.802   4.280   1.386
 4186SOL    HW112580   3.894   4.279   1.345
 4186SOL    HW212581   3.796   4.354   1.453
 4187SOL     OW12582   4.285   3.946   1.147
 4187SOL    HW112583   4.323   3.862   1.184
 4187SOL    HW212584   4.197   3.965   1.191
 4188SOL     OW12585   4.590   4.178   0.642
 4188SOL    HW112586   4.558   4.250   0.580
 4188SOL    HW212587   4.614   4.097   0.589
 4189SOL     OW12588   4.741   3.763   0.753
 4189SOL    HW112589   4.669   3.768   0.684
 4189SOL    HW212590   4.717   3.694   0.822
 4190SOL     OW12591   5.114   4.299   0.078
 4190SOL    HW112592   5.060   4.278   0.159
 4190SOL    HW212593   5.205   4.258   0.087
 4191SOL     OW12594   4.251   3.980   0.328
 4191SOL    HW112595   4.278   3.921   0.253
 4191SOL    HW212596   4.251   4.075   0.297
 4192SOL     OW12597   4.788   5.071   1.340
 4192SOL    HW112598   4.708   5.048   1.395
 4192SOL    HW212599   4.871   5.045   1.389
 4193SOL     OW12600   4.835   4.919   1.100
 4193SOL    HW112601   4.795   4.963   1.181
 4193SOL    HW212602   4.794   4.956   1.017
 4194SOL     OW12603   4.639   3.813   1.402
 4194SOL    HW112604   4.664   3.793   1.307
 4194SOL    HW212605   4.711   3.869   1.444
 4195SOL     OW12606   4.704   4.840   1.719
 4195SOL    HW112607   4.605   4.846   1.729
 4195SOL    HW212608   4.727   4.760   1.663
 4196SOL     OW12609   4.429   4.774   0.368
 4196SOL    HW112610   4.415   4.781   0.467
 4196SOL    HW212611   4.513   4.723   0.350
 4197SOL     OW12612   4.134   4.537   1.251
 4197SOL    HW112613   4.220   4.549   1.301
 4197SOL    HW212614   4.092   4.450   1.278
 4198SOL     OW12615   4.998   4.110   1.262
 4198SOL    HW112616   5.019   4.184   1.326
 4198SOL    HW212617   4.909   4.127   1.219
 4199SOL     OW12618   4.091   4.824   0.501
 4199SOL    HW112619   4.084   4.907   0.445
 4199SOL    HW212620   4.095   4.744   0.441
 4200SOL     OW12621   4.290   4.261   0.865
 4200SOL    HW112622   4.302   4.327   0.791
 4200SOL    HW212623   4.336   4.295   0.948
 4201SOL     OW12624   4.976   5.072   0.388
 4201SOL    HW112625   5.026   5.149   0.428
 4201SOL    HW212626   4.881   5.074   0.420
 4202SOL     OW12627   4.126   4.475   1.598
 4202SOL    HW112628   4.194   4.530   1.551
 4202SOL    HW212629   4.166   4.387   1.625
 4203SOL     OW12630   4.737   3.829   1.770
 4203SOL    HW112631   4.743   3.914   1.718
 4203SOL    HW212632   4.769   3.753   1.713
 4204SOL     OW12633   4.228   3.774   1.740
 4204SOL    HW112634   4.186   3.717   1.670
 4204SOL    HW212635   4.162   3.843   1.772
 4205SOL     OW12636   4.297   4.594   1.029
 4205SOL    HW112637   4.341   4.683   1.020
 4205SOL    HW212638   4.234   4.594   1.106
 4206SOL     OW12639   5.084   4.586   1.045
 4206SOL    HW112640   5.009   4.586   0.979
 4206SOL    HW212641   5.121   4.494   1.054
 4207SOL     OW12642   4.933   4.249   0.275
 4207SOL    HW112643   4.946   4.165   0.329
 4207SOL    HW212644   4.904   4.323   0.335
 4208SOL     OW12645   4.031   3.937   1.231
 4208SOL    HW112646   4.008   3.974   1.321
 4208SOL    HW212647   4.001   3.842   1.225
 4209SOL     OW12648   3.761   5.034   1.282
 4209SOL    HW112649   3.814   4.985   1.350
 4209SOL    HW212650   3.783   5.132   1.287
 4210SOL     OW12651   4.456   4.358   1.064
 4210SOL    HW112652   4.515   4.332   0.988
 4210SOL    HW212653   4.428   4.454   1.053
 4211SOL     OW12654   4.031   3.787   0.618
 4211SOL    HW112655   4.020   3.881   0.651
 4211SOL    HW212656   4.026   3.724   0.695
 4212SOL     OW12657   5.346   4.091   0.374
 4212SOL    HW112658   5.348   4.015   0.438
 4212SOL    HW212659   5.298   4.168   0.414
 4213SOL     OW12660   4.747   4.490   0.966
 4213SOL    HW112661   4.762   4.511   1.062
 4213SOL    HW212662   4.717   4.395   0.957
 4214SOL     OW12663   4.074   4.622   1.804
 4214SOL    HW112664   4.150   4.666   1.852
 4214SOL    HW212665   4.109   4.575   1.722
 4215SOL     OW12666   5.027   4.562   0.042
 4215SOL    HW112667   5.061   4.469   0.057
 4215SOL    HW212668   5.045   4.589  -0.053
 4216SOL     OW12669   4.043   4.534   0.949
 4216SOL    HW112670   4.136   4.570   0.954
 4216SOL    HW212671   4.037   4.449   1.001
 4217SOL     OW12672   4.063   4.233   1.006
 4217SOL    HW112673   4.011   4.150   0.989
 4217SOL    HW212674   4.140   4.238   0.942
 4218SOL     OW12675   4.862   4.104   1.678
 4218SOL    HW112676   4.817   4.167   1.742
 4218SOL    HW212677   4.955   4.135   1.661
 4219SOL     OW12678   4.884   3.931   1.477
 4219SOL    HW112679   4.884   3.995   1.554
 4219SOL    HW212680   4.912   3.979   1.394
 4220SOL     OW12681   4.726   4.520   1.238
 4220SOL    HW112682   4.767   4.488   1.324
 4220SOL    HW212683   4.630   4.493   1.235
 4221SOL     OW12684   3.764   4.268   1.114
 4221SOL    HW112685   3.849   4.235   1.073
 4221SOL    HW212686   3.777   4.283   1.212
 4222SOL     OW12687   3.913   4.244   1.722
 4222SOL    HW112688   3.972   4.204   1.652
 4222SOL    HW212689   3.855   4.315   1.681
 4223SOL     OW12690   4.539   4.296   0.325
 4223SOL    HW112691   4.546   4.207   0.279
 4223SOL    HW212692   4.445   4.330   0.317
 4224SOL     OW12693   4.395   4.188   1.269
 4224SOL    HW112694   4.361   4.099   1.239
 4224SOL    HW212695   4.421   4.242   1.189
 4225SOL     OW12696   4.197   4.224   0.191
 4225SOL    HW112697   4.258   4.304   0.195
 4225SOL    HW212698   4.102   4.255   0.198
 4226SOL     OW12699   3.883   4.861   1.466
 4226SOL    HW112700   3.905   4.800   1.542
 4226SOL    HW212701   3.893   4.812   1.380
 4227SOL     OW12702   5.071   4.783   1.234
 4227SOL    HW112703   5.095   4.720   1.160
 4227SOL    HW212704   4.981   4.823   1.216
 4228SOL     OW12705   5.026   4.579   0.309
 4228SOL    HW112706   4.940   4.548   0.351
 4228SOL    HW212707   5.022   4.565   0.210
 4229SOL     OW12708   3.807   4.982   1.022
 4229SOL    HW112709   3.802   4.981   1.122
 4229SOL    HW212710   3.724   4.941   0.984
 4230SOL     OW12711   4.627   3.810   0.133
 4230SOL    HW112712   4.678   3.811   0.047
 4230SOL    HW212713   4.683   3.768   0.204
 4231SOL     OW12714   5.004   4.651   0.672
 4231SOL    HW112715   5.064   4.570   0.674
 4231SOL    HW212716   5.044   4.720   0.612
 4232SOL     OW12717   4.554   4.997   1.422
 4232SOL    HW112718   4.549   5.030   1.517
 4232SOL    HW212719   4.468   5.016   1.376
 4233SOL     OW12720   3.987   4.050   0.720
 4233SOL    HW112721   3.908   4.101   0.686
 4233SOL    HW212722   3.978   4.035   0.818
 4234SOL     OW12723   4.546   4.726   1.372
 4234SOL    HW112724   4.586   4.725   1.280
 4234SOL    HW212725   4.556   4.818   1.412
 4235SOL     OW12726   4.640   4.634   0.291
 4235SOL    HW112727   4.703   4.672   0.223
 4235SOL    HW212728   4.680   4.551   0.330
 4236SOL     OW12729   4.096   5.012   1.490
 4236SOL    HW112730   4.083   5.105   1.456
 4236SOL    HW212731   4.012   4.960   1.477
 4237SOL     OW12732   4.763   4.822   0.696
 4237SOL    HW112733   4.693   4.775   0.750
 4237SOL    HW212734   4.822   4.754   0.653
 4238SOL     OW12735   4.738   3.960   0.971
 4238SOL    HW112736   4.730   3.924   0.878
 4238SOL    HW212737   4.736   3.884   1.036
 4239SOL     OW12738   3.829   4.737   1.726
 4239SOL    HW112739   3.752   4.704   1.780
 4239SOL    HW212740   3.914   4.707   1.768
 4240SOL     OW12741   4.396   3.927   1.489
 4240SOL    HW112742   4.486   3.911   1.449
 4240SOL    HW212743   4.404   3.932   1.588
 4241SOL     OW12744   3.799   4.069   0.033
 4241SOL    HW112745   3.707   4.041   0.004
 4241SOL    HW212746   3.830   4.146  -0.023
 4242SOL     OW12747   5.164   4.580   1.398
 4242SOL    HW112748   5.107   4.632   1.335
 4242SOL    HW212749   5.260   4.592   1.374
 4243SOL     OW12750   3.796   3.890   0.318
 4243SOL    HW112751   3.779   3.973   0.264
 4243SOL    HW212752   3.886   3.853   0.296
 4244SOL     OW12753   4.907   5.059   0.119
 4244SOL    HW112754   4.808   5.048   0.121
 4244SOL    HW212755   4.941   5.074   0.212
 4245SOL     OW12756   4.337   4.566   1.431
 4245SOL    HW112757   4.393   4.647   1.414
 4245SOL    HW212758   4.396   4.486   1.434
 4246SOL     OW12759   4.440   4.289   1.708
 4246SOL    HW112760   4.459   4.354   1.782
 4246SOL    HW212761   4.500   4.209   1.717
 4247SOL     OW12762   5.174   4.944   1.633
 4247SOL    HW112763   5.165   4.934   1.732
 4247SOL    HW212764   5.270   4.937   1.607
 4248SOL     OW12765   4.949   4.049   0.449
 4248SOL    HW112766   5.014   3.975   0.438
 4248SOL    HW212767   4.969   4.099   0.533
 4249SOL     OW12768   4.318   4.469   0.652
 4249SOL    HW112769   4.368   4.554   0.633
 4249SOL    HW212770   4.230   4.471   0.604
 4250SOL     OW12771   4.583   4.680   0.861
 4250SOL    HW112772   4.637   4.611   0.909
 4250SOL    HW212773   4.551   4.749   0.927
 4251SOL     OW12774   4.807   4.708   0.087
 4251SOL    HW112775   4.784   4.761   0.005
 4251SOL    HW212776   4.888   4.652   0.068
 4252SOL     OW12777   3.945   5.038   1.844
 4252SOL    HW112778   3.880   4.965   1.823
 4252SOL    HW212779   3.949   5.052   1.942
 4253SOL     OW12780   3.803   4.964   0.653
 4253SOL    HW112781   3.802   4.917   0.741
 4253SOL    HW212782   3.885   4.936   0.602
 4254SOL     OW12783   4.396   5.115   1.624
 4254SOL    HW112784   4.318   5.065   1.662
 4254SOL    HW212785   4.393   5.210   1.655
 4255SOL     OW12786   4.152   4.148   0.520
 4255SOL    HW112787   4.182   4.076   0.458
 4255SOL    HW212788   4.113   4.108   0.603
 4256SOL     OW12789   4.041   4.271   1.280
 4256SOL    HW112790   4.079   4.212   1.352
 4256SOL    HW212791   4.081   4.245   1.192
 4257SOL     OW12792   5.148   3.938   1.112
 4257SOL    HW112793   5.200   3.873   1.167
 4257SOL    HW212794   5.099   4.001   1.173
 4258SOL     OW12795   4.725   3.758   1.154
 4258SOL    HW112796   4.662   3.686   1.123
 4258SOL    HW212797   4.818   3.722   1.154
 4259SOL     OW12798   4.494   5.054   0.301
 4259SOL    HW112799   4.448   4.967   0.318
 4259SOL    HW212800   4.585   5.051   0.342
 4260SOL     OW12801   3.763   4.801   0.300
 4260SOL    HW112802   3.862   4.790   0.291
 4260SOL    HW212803   3.723   4.715   0.332
 4261SOL     OW12804   3.954   4.352   1.975
 4261SOL    HW112805   3.861   4.350   2.012
 4261SOL    HW212806   3.955   4.313   1.883
 4262SOL     OW12807   3.949   3.999   2.858
 4262SOL    HW112808   3.984   3.982   2.950
 4262SOL    HW212809   3.861   3.954   2.846
 4263SOL     OW12810   3.743   4.092   2.509
 4263SOL    HW112811   3.661   4.135   2.548
 4263SOL    HW212812   3.715   4.019   2.446
 4264SOL     OW12813   4.293   4.999   3.027
 4264SOL    HW112814   4.200   4.992   2.990
 4264SOL    HW212815   4.304   5.088   3.071
 4265SOL     OW12816   5.279   5.235   2.565
 4265SOL    HW112817   5.222   5.219   2.646
 4265SOL    HW212818   5.220   5.245   2.485
 4266SOL     OW12819   4.859   4.427   2.579
 4266SOL    HW112820   4.916   4.505   2.554
 4266SOL    HW212821   4.799   4.453   2.655
 4267SOL     OW12822   4.492   4.868   2.885
 4267SOL    HW112823   4.414   4.885   2.945
 4267SOL    HW212824   4.526   4.955   2.849
 4268SOL     OW12825   4.574   4.522   3.685
 4268SOL    HW112826   4.570   4.598   3.750
 4268SOL    HW212827   4.596   4.558   3.594
 4269SOL     OW12828   4.409   4.736   2.527
 4269SOL    HW112829   4.478   4.720   2.597
 4269SOL    HW212830   4.336   4.793   2.565
 4270SOL     OW12831   4.410   4.885   3.665
 4270SOL    HW112832   4.470   4.964   3.679
 4270SOL    HW212833   4.324   4.916   3.624
 4271SOL     OW12834   4.059   5.159   2.923
 4271SOL    HW112835   3.981   5.128   2.870
 4271SOL    HW212836   4.117   5.217   2.866
 4272SOL     OW12837   4.162   4.116   3.361
 4272SOL    HW112838   4.244   4.060   3.370
 4272SOL    HW212839   4.081   4.058   3.365
 4273SOL     OW12840   3.964   4.815   2.748
 4273SOL    HW112841   3.978   4.731   2.800
 4273SOL    HW212842   3.909   4.879   2.803
 4274SOL     OW12843   4.330   4.688   1.985
 4274SOL    HW112844   4.337   4.772   1.931
 4274SOL    HW212845   4.376   4.701   2.073
 4275SOL     OW12846   3.846   4.367   2.425
 4275SOL    HW112847   3.801   4.279   2.442
 4275SOL    HW212848   3.845   4.421   2.509
 4276SOL     OW12849   5.413   4.646   2.474
 4276SOL    HW112850   5.508   4.617   2.482
 4276SOL    HW212851   5.405   4.711   2.399
 4277SOL     OW12852   3.837   4.461   3.459
 4277SOL    HW112853   3.925   4.448   3.504
 4277SOL    HW212854   3.824   4.558   3.437
 4278SOL     OW12855   4.337   5.089   2.588
 4278SOL    HW112856   4.288   5.002   2.597
 4278SOL    HW212857   4.314   5.132   2.501
 4279SOL     OW12858   5.017   4.952   3.285
 4279SOL    HW112859   5.054   4.879   3.227
 4279SOL    HW212860   5.069   4.957   3.370
 4280SOL     OW12861   4.533   3.728   2.364
 4280SOL    HW112862   4.573   3.819   2.355
 4280SOL    HW212863   4.433   3.736   2.370
 4281SOL     OW12864   3.921   4.700   3.126
 4281SOL    HW112865   4.010   4.655   3.112
 4281SOL    HW212866   3.848   4.635   3.107
 4282SOL     OW12867   4.041   3.975   3.663
 4282SOL    HW112868   4.112   4.046   3.669
 4282SOL    HW212869   3.953   4.014   3.691
 4283SOL     OW12870   4.322   4.453   2.132
 4283SOL    HW112871   4.346   4.522   2.064
 4283SOL    HW212872   4.244   4.486   2.186
 4284SOL     OW12873   5.005   4.069   2.806
 4284SOL    HW112874   4.919   4.019   2.793
 4284SOL    HW212875   5.067   4.015   2.862
 4285SOL     OW12876   4.531   4.329   3.327
 4285SOL    HW112877   4.484   4.326   3.416
 4285SOL    HW212878   4.480   4.274   3.261
 4286SOL     OW12879   5.118   4.193   3.536
 4286SOL    HW112880   5.098   4.236   3.624
 4286SOL    HW212881   5.196   4.131   3.545
 4287SOL     OW12882   4.697   4.614   3.434
 4287SOL    HW112883   4.743   4.530   3.405
 4287SOL    HW212884   4.641   4.648   3.359
 4288SOL     OW12885   4.715   4.134   3.104
 4288SOL    HW112886   4.638   4.168   3.158
 4288SOL    HW212887   4.681   4.083   3.025
 4289SOL     OW12888   4.765   4.425   2.291
 4289SOL    HW112889   4.791   4.421   2.387
 4289SOL    HW212890   4.680   4.374   2.277
 4290SOL     OW12891   3.800   4.535   2.651
 4290SOL    HW112892   3.899   4.523   2.660
 4290SOL    HW212893   3.776   4.630   2.672
 4291SOL     OW12894   4.589   4.072   2.057
 4291SOL    HW112895   4.648   4.135   2.008
 4291SOL    HW212896   4.608   3.978   2.028
 4292SOL     OW12897   5.086   4.868   2.407
 4292SOL    HW112898   5.169   4.839   2.359
 4292SOL    HW212899   5.037   4.935   2.351
 4293SOL     OW12900   4.274   3.920   2.747
 4293SOL    HW112901   4.269   3.915   2.847
 4293SOL    HW212902   4.276   4.016   2.718
 4294SOL     OW12903   4.045   4.667   2.104
 4294SOL    HW112904   4.127   4.706   2.062
 4294SOL    HW212905   4.018   4.585   2.055
 4295SOL     OW12906   4.185   4.990   3.589
 4295SOL    HW112907   4.135   4.991   3.503
 4295SOL    HW212908   4.122   4.972   3.665
 4296SOL     OW12909   3.926   4.009   3.360
 4296SOL    HW112910   3.846   4.069   3.347
 4296SOL    HW212911   3.916   3.960   3.446
 4297SOL     OW12912   4.106   4.424   2.342
 4297SOL    HW112913   4.151   4.334   2.339
 4297SOL    HW212914   4.012   4.413   2.375
 4298SOL     OW12915   4.338   3.846   1.979
 4298SOL    HW112916   4.436   3.824   1.986
 4298SOL    HW212917   4.307   3.829   1.886
 4299SOL     OW12918   4.505   3.988   3.611
 4299SOL    HW112919   4.572   3.927   3.654
 4299SOL    HW212920   4.432   4.007   3.676
 4300SOL     OW12921   4.646   4.227   2.761
 4300SOL    HW112922   4.621   4.218   2.665
 4300SOL    HW212923   4.694   4.145   2.792
 4301SOL     OW12924   4.263   3.788   2.374
 4301SOL    HW112925   4.182   3.789   2.432
 4301SOL    HW212926   4.266   3.871   2.319
 4302SOL     OW12927   5.158   4.912   1.903
 4302SOL    HW112928   5.190   4.836   1.960
 4302SOL    HW212929   5.066   4.939   1.933
 4303SOL     OW12930   4.021   3.759   2.033
 4303SOL    HW112931   4.070   3.843   2.012
 4303SOL    HW212932   4.083   3.694   2.078
 4304SOL     OW12933   4.659   3.960   2.342
 4304SOL    HW112934   4.611   4.001   2.264
 4304SOL    HW212935   4.758   3.958   2.323
 4305SOL     OW12936   4.800   4.407   3.326
 4305SOL    HW112937   4.720   4.346   3.329
 4305SOL    HW212938   4.881   4.354   3.302
 4306SOL     OW12939   4.951   5.294   2.655
 4306SOL    HW112940   4.972   5.368   2.590
 4306SOL    HW212941   5.019   5.294   2.728
 4307SOL     OW12942   4.183   4.876   2.603
 4307SOL    HW112943   4.112   4.849   2.668
 4307SOL    HW212944   4.157   4.848   2.510
 4308SOL     OW12945   4.756   4.273   1.878
 4308SOL    HW112946   4.715   4.355   1.839
 4308SOL    HW212947   4.820   4.299   1.951
 4309SOL     OW12948   3.802   4.280   3.248
 4309SOL    HW112949   3.894   4.279   3.207
 4309SOL    HW212950   3.796   4.354   3.315
 4310SOL     OW12951   4.285   3.946   3.009
 4310SOL    HW112952   4.323   3.862   3.046
 4310SOL    HW212953   4.197   3.965   3.053
 4311SOL     OW12954   4.590   4.178   2.504
 4311SOL    HW112955   4.558   4.250   2.442
 4311SOL    HW212956   4.614   4.097   2.451
 4312SOL     OW12957   4.741   3.763   2.615
 4312SOL    HW112958   4.669   3.768   2.546
 4312SOL    HW212959   4.717   3.694   2.684
 4313SOL     OW12960   5.114   4.299   1.940
 4313SOL    HW112961   5.060   4.278   2.021
 4313SOL    HW212962   5.205   4.258   1.949
 4314SOL     OW12963   4.251   3.980   2.190
 4314SOL    HW112964   4.278   3.921   2.115
 4314SOL    HW212965   4.251   4.075   2.159
 4315SOL     OW12966   4.788   5.071   3.202
 4315SOL    HW112967   4.708   5.048   3.257
 4315SOL    HW212968   4.871   5.045   3.251
 4316SOL     OW12969   4.835   4.919   2.962
 4316SOL    HW112970   4.795   4.963   3.043
 4316SOL    HW212971   4.794   4.956   2.879
 4317SOL     OW12972   4.639   3.813   3.264
 4317SOL    HW112973   4.664   3.793   3.169
 4317SOL    HW212974   4.711   3.869   3.306
 4318SOL     OW12975   4.704   4.840   3.581
 4318SOL    HW112976   4.605   4.846   3.591
 4318SOL    HW212977   4.727   4.760   3.525
 4319SOL     OW12978   4.429   4.774   2.230
 4319SOL    HW112979   4.415   4.781   2.329
 4319SOL    HW212980   4.513   4.723   2.212
 4320SOL     OW12981   4.134   4.537   3.113
 4320SOL    HW112982   4.220   4.549   3.163
 4320SOL    HW212983   4.092   4.450   3.140
 4321SOL     OW12984   4.998   4.110   3.124
 4321SOL    HW112985   5.019   4.184   3.188
 4321SOL    HW212986   4.909   4.127   3.081
 4322SOL     OW12987   4.091   4.824   2.363
 4322SOL    HW112988   4.084   4.907   2.307
 4322SOL    HW212989   4.095   4.744   2.303
 4323SOL     OW12990   4.290   4.261   2.727
 4323SOL    HW112991   4.302   4.327   2.653
 4323SOL    HW212992   4.336   4.295   2.810
 4324SOL     OW12993   4.976   5.072   2.250
 4324SOL    HW112994   5.026   5.149   2.290
 4324SOL    HW212995   4.881   5.074   2.282
 4325SOL     OW12996   4.126   4.475   3.460
 4325SOL    HW112997   4.194   4.530   3.413
 4325SOL    HW212998   4.166   4.387   3.487
 4326SOL     OW12999   4.737   3.829   3.632
 4326SOL    HW113000   4.743   3.914   3.580
 4326SOL    HW213001   4.769   3.753   3.575
 4327SOL     OW13002   4.228   3.774   3.602
 4327SOL    HW113003   4.186   3.717   3.532
 4327SOL    HW213004   4.162   3.843   3.634
 4328SOL     OW13005   4.297   4.594   2.891
 4328SOL    HW113006   4.341   4.683   2.882
 4328SOL    HW213007   4.234   4.594   2.968
 4329SOL     OW13008   5.084   4.586   2.907
 4329SOL    HW113009   5.009   4.586   2.841
 4329SOL    HW213010   5.121   4.494   2.916
 4330SOL     OW13011   4.933   4.249   2.137
 4330SOL    HW113012   4.946   4.165   2.191
 4330SOL    HW213013   4.904   4.323   2.197
 4331SOL     OW13014   4.031   3.937   3.093
 4331SOL    HW113015   4.008   3.974   3.183
 4331SOL    HW213016   4.001   3.842   3.087
 4332SOL     OW13017   3.761   5.034   3.144
 4332SOL    HW113018   3.814   4.985   3.212
 4332SOL    HW213019   3.783   5.132   3.149
 4333SOL     OW13020   4.456   4.358   2.926
 4333SOL    HW113021   4.515   4.332   2.850
 4333SOL    HW213022   4.428   4.454   2.915
 4334SOL     OW13023   4.031   3.787   2.480
 4334SOL    HW113024   4.020   3.881   2.513
 4334SOL    HW213025   4.026   3.724   2.557
 4335SOL     OW13026   5.346   4.091   2.236
 4335SOL    HW113027   5.348   4.015   2.300
 4335SOL    HW213028   5.298   4.168   2.276
 4336SOL     OW13029   4.747   4.490   2.828
 4336SOL    HW113030   4.762   4.511   2.924
 4336SOL    HW213031   4.717   4.395   2.819
 4337SOL     OW13032   4.074   4.622   3.666
 4337SOL    HW113033   4.150   4.666   3.714
 4337SOL    HW213034   4.109   4.575   3.584
 4338SOL     OW13035   5.027   4.562   1.904
 4338SOL    HW113036   5.061   4.469   1.919
 4338SOL    HW213037   5.045   4.589   1.809
 4339SOL     OW13038   4.043   4.534   2.811
 4339SOL    HW113039   4.136   4.570   2.816
 4339SOL    HW213040   4.037   4.449   2.863
 4340SOL     OW13041   4.063   4.233   2.868
 4340SOL    HW113042   4.011   4.150   2.851
 4340SOL    HW213043   4.140   4.238   2.804
 4341SOL     OW13044   4.862   4.104   3.540
 4341SOL    HW113045   4.817   4.167   3.604
 4341SOL    HW213046   4.955   4.135   3.523
 4342SOL     OW13047   4.884   3.931   3.339
 4342SOL    HW113048   4.884   3.995   3.416
 4342SOL    HW213049   4.912   3.979   3.256
 4343SOL     OW13050   3.732   5.050   2.062
 4343SOL    HW113051   3.639   5.071   2.031
 4343SOL    HW213052   3.742   4.951   2.075
 4344SOL     OW13053   4.726   4.520   3.100
 4344SOL    HW113054   4.767   4.488   3.186
 4344SOL    HW213055   4.630   4.493   3.097
 4345SOL     OW13056   3.764   4.268   2.976
 4345SOL    HW113057   3.849   4.235   2.935
 4345SOL    HW213058   3.777   4.283   3.074
 4346SOL     OW13059   3.913   4.244   3.584
 4346SOL    HW113060   3.972   4.204   3.514
 4346SOL    HW213061   3.855   4.315   3.543
 4347SOL     OW13062   4.539   4.296   2.187
 4347SOL    HW113063   4.546   4.207   2.141
 4347SOL    HW213064   4.445   4.330   2.179
 4348SOL     OW13065   4.395   4.188   3.131
 4348SOL    HW113066   4.361   4.099   3.101
 4348SOL    HW213067   4.421   4.242   3.051
 4349SOL     OW13068   4.197   4.224   2.053
 4349SOL    HW113069   4.258   4.304   2.057
 4349SOL    HW213070   4.102   4.255   2.060
 4350SOL     OW13071   3.883   4.861   3.328
 4350SOL    HW113072   3.905   4.800   3.404
 4350SOL    HW213073   3.893   4.812   3.242
 4351SOL     OW13074   5.071   4.783   3.096
 4351SOL    HW113075   5.095   4.720   3.022
 4351SOL    HW213076   4.981   4.823   3.078
 4352SOL     OW13077   5.026   4.579   2.171
 4352SOL    HW113078   4.940   4.548   2.213
 4352SOL    HW213079   5.022   4.565   2.072
 4353SOL     OW13080   3.807   4.982   2.884
 4353SOL    HW113081   3.802   4.981   2.984
 4353SOL    HW213082   3.724   4.941   2.846
 4354SOL     OW13083   5.004   4.651   2.534
 4354SOL    HW113084   5.064   4.570   2.536
 4354SOL    HW213085   5.044   4.720   2.474
 4355SOL     OW13086   4.554   4.997   3.284
 4355SOL    HW113087   4.549   5.030   3.379
 4355SOL    HW213088   4.468   5.016   3.238
 4356SOL     OW13089   3.987   4.050   2.582
 4356SOL    HW113090   3.908   4.101   2.548
 4356SOL    HW213091   3.978   4.035   2.680
 4357SOL     OW13092   4.546   4.726   3.234
 4357SOL    HW113093   4.586   4.725   3.142
 4357SOL    HW213094   4.556   4.818   3.274
 4358SOL     OW13095   4.640   4.634   2.153
 4358SOL    HW113096   4.703   4.672   2.085
 4358SOL    HW213097   4.680   4.551   2.192
 4359SOL     OW13098   4.096   5.012   3.352
 4359SOL    HW113099   4.083   5.105   3.318
 4359SOL    HW213100   4.012   4.960   3.339
 4360SOL     OW13101   4.763   4.822   2.558
 4360SOL    HW113102   4.693   4.775   2.612
 4360SOL    HW213103   4.822   4.754   2.515
 4361SOL     OW13104   4.738   3.960   2.833
 4361SOL    HW113105   4.730   3.924   2.740
 4361SOL    HW213106   4.736   3.884   2.898
 4362SOL     OW13107   3.829   4.737   3.588
 4362SOL    HW113108   3.752   4.704   3.642
 4362SOL    HW213109   3.914   4.707   3.630
 4363SOL     OW13110   4.396   3.927   3.351
 4363SOL    HW113111   4.486   3.911   3.311
 4363SOL    HW213112   4.404   3.932   3.450
 4364SOL     OW13113   3.799   4.069   1.895
 4364SOL    HW113114   3.707   4.041   1.866
 4364SOL    HW213115   3.830   4.146   1.839
 4365SOL     OW13116   5.164   4.580   3.260
 4365SOL    HW113117   5.107   4.632   3.197
 4365SOL    HW213118   5.260   4.592   3.236
 4366SOL     OW13119   3.796   3.890   2.180
 4366SOL    HW113120   3.779   3.973   2.126
 4366SOL    HW213121   3.886   3.853   2.158
 4367SOL     OW13122   4.907   5.059   1.981
 4367SOL    HW113123   4.808   5.048   1.983
 4367SOL    HW213124   4.941   5.074   2.074
 4368SOL     OW13125   4.337   4.566   3.293
 4368SOL    HW113126   4.393   4.647   3.276
 4368SOL    HW213127   4.396   4.486   3.296
 4369SOL     OW13128   4.440   4.289   3.570
 4369SOL    HW113129   4.459   4.354   3.644
 4369SOL    HW213130   4.500   4.209   3.579
 4370SOL     OW13131   5.174   4.944   3.495
 4370SOL    HW113132   5.165   4.934   3.594
 4370SOL    HW213133   5.270   4.937   3.469
 4371SOL     OW13134   4.949   4.049   2.311
 4371SOL    HW113135   5.014   3.975   2.300
 4371SOL    HW213136   4.969   4.099   2.395
 4372SOL     OW13137   4.318   4.469   2.514
 4372SOL    HW113138   4.368   4.554   2.495
 4372SOL    HW213139   4.230   4.471   2.466
 4373SOL     OW13140   4.583   5.098   1.878
 4373SOL    HW113141   4.537   5.113   1.966
 4373SOL    HW213142   4.627   5.183   1.848
 4374SOL     OW13143   4.583   4.680   2.723
 4374SOL    HW113144   4.637   4.611   2.771
 4374SOL    HW213145   4.551   4.749   2.789
 4375SOL     OW13146   4.807   4.708   1.949
 4375SOL    HW113147   4.784   4.761   1.867
 4375SOL    HW213148   4.888   4.652   1.930
 4376SOL     OW13149   3.945   5.038   3.706
 4376SOL    HW113150   3.880   4.965   3.685
 4376SOL    HW213151   3.949   5.052   3.804
 4377SOL     OW13152   3.803   4.964   2.515
 4377SOL    HW113153   3.802   4.917   2.603
 4377SOL    HW213154   3.885   4.936   2.464
 4378SOL     OW13155   4.396   5.115   3.486
 4378SOL    HW113156   4.318   5.065   3.524
 4378SOL    HW213157   4.393   5.210   3.517
 4379SOL     OW13158   4.152   4.148   2.382
 4379SOL    HW113159   4.182   4.076   2.320
 4379SOL    HW213160   4.113   4.108   2.465
 4380SOL     OW13161   4.041   4.271   3.142
 4380SOL    HW113162   4.079   4.212   3.214
 4380SOL    HW213163   4.081   4.245   3.054
 4381SOL     OW13164   5.148   3.938   2.974
 4381SOL    HW113165   5.200   3.873   3.029
 4381SOL    HW213166   5.099   4.001   3.035
 4382SOL     OW13167   4.725   3.758   3.016
 4382SOL    HW113168   4.662   3.686   2.985
 4382SOL    HW213169   4.818   3.722   3.016
 4383SOL     OW13170   4.494   5.054   2.163
 4383SOL    HW113171   4.448   4.967   2.180
 4383SOL    HW213172   4.585   5.051   2.204
 4384SOL     OW13173   5.076   3.776   2.030
 4384SOL    HW113174   5.111   3.735   1.946
 4384SOL    HW213175   4.986   3.738   2.050
 4385SOL     OW13176   3.763   4.801   2.162
 4385SOL    HW113177   3.862   4.790   2.153
 4385SOL    HW213178   3.723   4.715   2.194
 4386SOL     OW13179   3.954   4.352   3.837
 4386SOL    HW113180   3.861   4.350   3.874
 4386SOL    HW213181   3.955   4.313   3.745
 4387SOL     OW13182   3.949   3.999   4.720
 4387SOL    HW113183   3.984   3.982   4.812
 4387SOL    HW213184   3.861   3.954   4.708
 4388SOL     OW13185   3.743   4.092   4.371
 4388SOL    HW113186   3.661   4.135   4.410
 4388SOL    HW213187   3.715   4.019   4.308
 4389SOL     OW13188   4.293   4.999   4.889
 4389SOL    HW113189   4.200   4.992   4.852
 4389SOL    HW213190   4.304   5.088   4.933
 4390SOL     OW13191   5.279   5.235   4.427
 4390SOL    HW113192   5.222   5.219   4.508
 4390SOL    HW213193   5.220   5.245   4.347
 4391SOL     OW13194   4.859   4.427   4.441
 4391SOL    HW113195   4.916   4.505   4.416
 4391SOL    HW213196   4.799   4.453   4.517
 4392SOL     OW13197   4.492   4.868   4.747
 4392SOL    HW113198   4.414   4.885   4.807
 4392SOL    HW213199   4.526   4.955   4.711
 4393SOL     OW13200   4.409   4.736   4.389
 4393SOL    HW113201   4.478   4.720   4.459
 4393SOL    HW213202   4.336   4.793   4.427
 4394SOL     OW13203   4.059   5.159   4.785
 4394SOL    HW113204   3.981   5.128   4.732
 4394SOL    HW213205   4.117   5.217   4.728
 4395SOL     OW13206   3.964   4.815   4.610
 4395SOL    HW113207   3.978   4.731   4.662
 4395SOL    HW213208   3.909   4.879   4.665
 4396SOL     OW13209   4.330   4.688   3.847
 4396SOL    HW113210   4.337   4.772   3.793
 4396SOL    HW213211   4.376   4.701   3.935
 4397SOL     OW13212   5.318   3.838   5.204
 4397SOL    HW113213   5.300   3.905   5.132
 4397SOL    HW213214   5.315   3.884   5.293
 4398SOL     OW13215   3.846   4.367   4.287
 4398SOL    HW113216   3.801   4.279   4.304
 4398SOL    HW213217   3.845   4.421   4.371
 4399SOL     OW13218   5.413   4.646   4.336
 4399SOL    HW113219   5.508   4.617   4.344
 4399SOL    HW213220   5.405   4.711   4.261
 4400SOL     OW13221   4.337   5.089   4.450
 4400SOL    HW113222   4.288   5.002   4.459
 4400SOL    HW213223   4.314   5.132   4.363
 4401SOL     OW13224   5.017   4.952   5.147
 4401SOL    HW113225   5.054   4.879   5.089
 4401SOL    HW213226   5.069   4.957   5.232
 4402SOL     OW13227   4.533   3.728   4.226
 4402SOL    HW113228   4.573   3.819   4.217
 4402SOL    HW213229   4.433   3.736   4.232
 4403SOL     OW13230   3.921   4.700   4.988
 4403SOL    HW113231   4.010   4.655   4.974
 4403SOL    HW213232   3.848   4.635   4.969
 4404SOL     OW13233   4.322   4.453   3.994
 4404SOL    HW113234   4.346   4.522   3.926
 4404SOL    HW213235   4.244   4.486   4.048
 4405SOL     OW13236   5.005   4.069   4.668
 4405SOL    HW113237   4.919   4.019   4.655
 4405SOL    HW213238   5.067   4.015   4.724
 4406SOL     OW13239   4.531   4.329   5.189
 4406SOL    HW113240   4.484   4.326   5.278
 4406SOL    HW213241   4.480   4.274   5.123
 4407SOL     OW13242   4.715   4.134   4.966
 4407SOL    HW113243   4.638   4.168   5.020
 4407SOL    HW213244   4.681   4.083   4.887
 4408SOL     OW13245   4.765   4.425   4.153
 4408SOL    HW113246   4.791   4.421   4.249
 4408SOL    HW213247   4.680   4.374   4.139
 4409SOL     OW13248   3.800   4.535   4.513
 4409SOL    HW113249   3.899   4.523   4.522
 4409SOL    HW213250   3.776   4.630   4.534
 4410SOL     OW13251   4.589   4.072   3.919
 4410SOL    HW113252   4.648   4.135   3.870
 4410SOL    HW213253   4.608   3.978   3.890
 4411SOL     OW13254   5.086   4.868   4.269
 4411SOL    HW113255   5.169   4.839   4.221
 4411SOL    HW213256   5.037   4.935   4.213
 4412SOL     OW13257   4.274   3.920   4.609
 4412SOL    HW113258   4.269   3.915   4.709
 4412SOL    HW213259   4.276   4.016   4.580
 4413SOL     OW13260   4.045   4.667   3.966
 4413SOL    HW113261   4.127   4.706   3.924
 4413SOL    HW213262   4.018   4.585   3.917
 4414SOL     OW13263   4.106   4.424   4.204
 4414SOL    HW113264   4.151   4.334   4.201
 4414SOL    HW213265   4.012   4.413   4.237
 4415SOL     OW13266   4.338   3.846   3.841
 4415SOL    HW113267   4.436   3.824   3.848
 4415SOL    HW213268   4.307   3.829   3.748
 4416SOL     OW13269   4.646   4.227   4.623
 4416SOL    HW113270   4.621   4.218   4.527
 4416SOL    HW213271   4.694   4.145   4.654
 4417SOL     OW13272   4.263   3.788   4.236
 4417SOL    HW113273   4.182   3.789   4.294
 4417SOL    HW213274   4.266   3.871   4.181
 4418SOL     OW13275   5.158   4.912   3.765
 4418SOL    HW113276   5.190   4.836   3.822
 4418SOL    HW213277   5.066   4.939   3.795
 4419SOL     OW13278   4.021   3.759   3.895
 4419SOL    HW113279   4.070   3.843   3.874
 4419SOL    HW213280   4.083   3.694   3.940
 4420SOL     OW13281   4.659   3.960   4.204
 4420SOL    HW113282   4.611   4.001   4.126
 4420SOL    HW213283   4.758   3.958   4.185
 4421SOL     OW13284   4.951   5.294   4.517
 4421SOL    HW113285   4.972   5.368   4.452
 4421SOL    HW213286   5.019   5.294   4.590
 4422SOL     OW13287   4.183   4.876   4.465
 4422SOL    HW113288   4.112   4.849   4.530
 4422SOL    HW213289   4.157   4.848   4.372
 4423SOL     OW13290   4.756   4.273   3.740
 4423SOL    HW113291   4.715   4.355   3.701
 4423SOL    HW213292   4.820   4.299   3.813
 4424SOL     OW13293   4.285   3.946   4.871
 4424SOL    HW113294   4.323   3.862   4.908
 4424SOL    HW213295   4.197   3.965   4.915
 4425SOL     OW13296   4.590   4.178   4.366
 4425SOL    HW113297   4.558   4.250   4.304
 4425SOL    HW213298   4.614   4.097   4.313
 4426SOL     OW13299   4.741   3.763   4.477
 4426SOL    HW113300   4.669   3.768   4.408
 4426SOL    HW213301   4.717   3.694   4.546
 4427SOL     OW13302   5.114   4.299   3.802
 4427SOL    HW113303   5.060   4.278   3.883
 4427SOL    HW213304   5.205   4.258   3.811
 4428SOL     OW13305   4.251   3.980   4.052
 4428SOL    HW113306   4.278   3.921   3.977
 4428SOL    HW213307   4.251   4.075   4.021
 4429SOL     OW13308   4.788   5.071   5.064
 4429SOL    HW113309   4.708   5.048   5.119
 4429SOL    HW213310   4.871   5.045   5.113
 4430SOL     OW13311   4.835   4.919   4.824
 4430SOL    HW113312   4.795   4.963   4.905
 4430SOL    HW213313   4.794   4.956   4.741
 4431SOL     OW13314   4.429   4.774   4.092
 4431SOL    HW113315   4.415   4.781   4.191
 4431SOL    HW213316   4.513   4.723   4.074
 4432SOL     OW13317   4.134   4.537   4.975
 4432SOL    HW113318   4.220   4.549   5.025
 4432SOL    HW213319   4.092   4.450   5.002
 4433SOL     OW13320   4.998   4.110   4.986
 4433SOL    HW113321   5.019   4.184   5.050
 4433SOL    HW213322   4.909   4.127   4.943
 4434SOL     OW13323   4.091   4.824   4.225
 4434SOL    HW113324   4.084   4.907   4.169
 4434SOL    HW213325   4.095   4.744   4.165
 4435SOL     OW13326   4.290   4.261   4.589
 4435SOL    HW113327   4.302   4.327   4.515
 4435SOL    HW213328   4.336   4.295   4.672
 4436SOL     OW13329   4.976   5.072   4.112
 4436SOL    HW113330   5.026   5.149   4.152
 4436SOL    HW213331   4.881   5.074   4.144
 4437SOL     OW13332   4.297   4.594   4.753
 4437SOL    HW113333   4.341   4.683   4.744
 4437SOL    HW213334   4.234   4.594   4.830
 4438SOL     OW13335   5.084   4.586   4.769
 4438SOL    HW113336   5.009   4.586   4.703
 4438SOL    HW213337   5.121   4.494   4.778
 4439SOL     OW13338   4.933   4.249   3.999
 4439SOL    HW113339   4.946   4.165   4.053
 4439SOL    HW213340   4.904   4.323   4.059
 4440SOL     OW13341   4.031   3.937   4.955
 4440SOL    HW113342   4.008   3.974   5.045
 4440SOL    HW213343   4.001   3.842   4.949
 4441SOL     OW13344   3.761   5.034   5.006
 4441SOL    HW113345   3.814   4.985   5.074
 4441SOL    HW213346   3.783   5.132   5.011
 4442SOL     OW13347   4.456   4.358   4.788
 4442SOL    HW113348   4.515   4.332   4.712
 4442SOL    HW213349   4.428   4.454   4.777
 4443SOL     OW13350   4.031   3.787   4.342
 4443SOL    HW113351   4.020   3.881   4.375
 4443SOL    HW213352   4.026   3.724   4.419
 4444SOL     OW13353   5.346   4.091   4.098
 4444SOL    HW113354   5.348   4.015   4.162
 4444SOL    HW213355   5.298   4.168   4.138
 4445SOL     OW13356   4.747   4.490   4.690
 4445SOL    HW113357   4.762   4.511   4.786
 4445SOL    HW213358   4.717   4.395   4.681
 4446SOL     OW13359   5.027   4.562   3.766
 4446SOL    HW113360   5.061   4.469   3.781
 4446SOL    HW213361   5.045   4.589   3.671
 4447SOL     OW13362   4.043   4.534   4.673
 4447SOL    HW113363   4.136   4.570   4.678
 4447SOL    HW213364   4.037   4.449   4.725
 4448SOL     OW13365   4.063   4.233   4.730
 4448SOL    HW113366   4.011   4.150   4.713
 4448SOL    HW213367   4.140   4.238   4.666
 4449SOL     OW13368   4.884   3.931   5.201
 4449SOL    HW113369   4.884   3.995   5.278
 4449SOL    HW213370   4.912   3.979   5.118
 4450SOL     OW13371   3.732   5.050   3.924
 4450SOL    HW113372   3.639   5.071   3.893
 4450SOL    HW213373   3.742   4.951   3.937
 4451SOL     OW13374   4.726   4.520   4.962
 4451SOL    HW113375   4.767   4.488   5.048
 4451SOL    HW213376   4.630   4.493   4.959
 4452SOL     OW13377   3.764   4.268   4.838
 4452SOL    HW113378   3.849   4.235   4.797
 4452SOL    HW213379   3.777   4.283   4.936
 4453SOL     OW13380   4.539   4.296   4.049
 4453SOL    HW113381   4.546   4.207   4.003
 4453SOL    HW213382   4.445   4.330   4.041
 4454SOL     OW13383   4.395   4.188   4.993
 4454SOL    HW113384   4.361   4.099   4.963
 4454SOL    HW213385   4.421   4.242   4.913
 4455SOL     OW13386   4.197   4.224   3.915
 4455SOL    HW113387   4.258   4.304   3.919
 4455SOL    HW213388   4.102   4.255   3.922
 4456SOL     OW13389   3.883   4.861   5.190
 4456SOL    HW113390   3.905   4.800   5.266
 4456SOL    HW213391   3.893   4.812   5.104
 4457SOL     OW13392   5.071   4.783   4.958
 4457SOL    HW113393   5.095   4.720   4.884
 4457SOL    HW213394   4.981   4.823   4.940
 4458SOL     OW13395   5.026   4.579   4.033
 4458SOL    HW113396   4.940   4.548   4.075
 4458SOL    HW213397   5.022   4.565   3.934
 4459SOL     OW13398   3.807   4.982   4.746
 4459SOL    HW113399   3.802   4.981   4.846
 4459SOL    HW213400   3.724   4.941   4.708
 4460SOL     OW13401   5.004   4.651   4.396
 4460SOL    HW113402   5.064   4.570   4.398
 4460SOL    HW213403   5.044   4.720   4.336
 4461SOL     OW13404   4.554   4.997   5.146
 4461SOL    HW113405   4.549   5.030   5.241
 4461SOL    HW213406   4.468   5.016   5.100
 4462SOL     OW13407   3.987   4.050   4.444
 4462SOL    HW113408   3.908   4.101   4.410
 4462SOL    HW213409   3.978   4.035   4.542
 4463SOL     OW13410   4.546   4.726   5.096
 4463SOL    HW113411   4.586   4.725   5.004
 4463SOL    HW213412   4.556   4.818   5.136
 4464SOL     OW13413   4.640   4.634   4.015
 4464SOL    HW113414   4.703   4.672   3.947
 4464SOL    HW213415   4.680   4.551   4.054
 4465SOL     OW13416   4.096   5.012   5.214
 4465SOL    HW113417   4.083   5.105   5.180
 4465SOL    HW213418   4.012   4.960   5.201
 4466SOL     OW13419   4.763   4.822   4.420
 4466SOL    HW113420   4.693   4.775   4.474
 4466SOL    HW213421   4.822   4.754   4.377
 4467SOL     OW13422   4.738   3.960   4.695
 4467SOL    HW113423   4.730   3.924   4.602
 4467SOL    HW213424   4.736   3.884   4.760
 4468SOL     OW13425   4.396   3.927   5.213
 4468SOL    HW113426   4.486   3.911   5.173
 4468SOL    HW213427   4.404   3.932   5.312
 4469SOL     OW13428   3.799   4.069   3.757
 4469SOL    HW113429   3.707   4.041   3.728
 4469SOL    HW213430   3.830   4.146   3.701
 4470SOL     OW13431   3.796   3.890   4.042
 4470SOL    HW113432   3.779   3.973   3.988
 4470SOL    HW213433   3.886   3.853   4.020
 4471SOL     OW13434   4.907   5.059   3.843
 4471SOL    HW113435   4.808   5.048   3.845
 4471SOL    HW213436   4.941   5.074   3.936
 4472SOL     OW13437   4.337   4.566   5.155
 4472SOL    HW113438   4.393   4.647   5.138
 4472SOL    HW213439   4.396   4.486   5.158
 4473SOL     OW13440   4.949   4.049   4.173
 4473SOL    HW113441   5.014   3.975   4.162
 4473SOL    HW213442   4.969   4.099   4.257
 4474SOL     OW13443   4.318   4.469   4.376
 4474SOL    HW113444   4.368   4.554   4.357
 4474SOL    HW213445   4.230   4.471   4.328
 4475SOL     OW13446   4.583   5.098   3.740
 4475SOL    HW113447   4.537   5.113   3.828
 4475SOL    HW213448   4.627   5.183   3.710
 4476SOL     OW13449   4.583   4.680   4.585
 4476SOL    HW113450   4.637   4.611   4.633
 4476SOL    HW213451   4.551   4.749   4.651
 4477SOL     OW13452   4.807   4.708   3.811
 4477SOL    HW113453   4.784   4.761   3.729
 4477SOL    HW213454   4.888   4.652   3.792
 4478SOL     OW13455   3.803   4.964   4.377
 4478SOL    HW113456   3.802   4.917   4.465
 4478SOL    HW213457   3.885   4.936   4.326
 4479SOL     OW13458   4.152   4.148   4.244
 4479SOL    HW113459   4.182   4.076   4.182
 4479SOL    HW213460   4.113   4.108   4.327
 4480SOL     OW13461   4.041   4.271   5.004
 4480SOL    HW113462   4.079   4.212   5.076
 4480SOL    HW213463   4.081   4.245   4.916
 4481SOL     OW13464   5.148   3.938   4.836
 4481SOL    HW113465   5.200   3.873   4.891
 4481SOL    HW213466   5.099   4.001   4.897
 4482SOL     OW13467   4.725   3.758   4.878
 4482SOL    HW113468   4.662   3.686   4.847
 4482SOL    HW213469   4.818   3.722   4.878
 4483SOL     OW13470   4.494   5.054   4.025
 4483SOL    HW113471   4.448   4.967   4.042
 4483SOL    HW213472   4.585   5.051   4.066
 4484SOL     OW13473   5.076   3.776   3.892
 4484SOL    HW113474   5.111   3.735   3.808
 4484SOL    HW213475   4.986   3.738   3.912
 4485SOL     OW13476   3.763   4.801   4.024
 4485SOL    HW113477   3.862   4.790   4.015
 4485SOL    HW213478   3.723   4.715   4.056
   5.15680   5.15680   5.15680
