mobley_3572203_GMX.gro created by acpype (v: 2023.10.27) on Wed May 20 23:48:30 2026
 2393
    1MOL     C1    1   2.733   2.548   2.366
    1MOL     C2    2   2.885   2.460   2.186
    1MOL     C3    3   2.294   2.715   2.938
    1MOL     C4    4   2.809   2.428   2.314
    1MOL     C5    5   2.374   2.609   2.864
    1MOL     C6    6   2.438   2.665   2.737
    1MOL     C7    7   2.521   2.559   2.665
    1MOL     C8    8   2.589   2.615   2.541
    1MOL     O1    9   2.732   2.659   2.315
    1MOL     O2   10   2.666   2.512   2.480
    1MOL     H1   11   2.958   2.540   2.203
    1MOL     H2   12   2.939   2.371   2.151
    1MOL     H3   13   2.817   2.492   2.107
    1MOL     H4   14   2.358   2.799   2.968
    1MOL     H5   15   2.213   2.754   2.875
    1MOL     H6   16   2.249   2.673   3.029
    1MOL     H7   17   2.880   2.395   2.391
    1MOL     H8   18   2.737   2.347   2.295
    1MOL     H9   19   2.308   2.525   2.839
    1MOL    H10   20   2.452   2.570   2.931
    1MOL    H11   21   2.360   2.703   2.670
    1MOL    H12   22   2.502   2.750   2.764
    1MOL    H13   23   2.458   2.474   2.637
    1MOL    H14   24   2.598   2.518   2.733
    1MOL    H15   25   2.656   2.698   2.567
    1MOL    H16   26   2.515   2.651   2.469
   97SOL     OW   27   1.592   1.629   1.625
   97SOL    HW1   28   1.619   1.663   1.535
   97SOL    HW2   29   1.671   1.591   1.671
  127SOL     OW   30   1.859   1.518   1.605
  127SOL    HW1   31   1.873   1.545   1.510
  127SOL    HW2   32   1.942   1.540   1.658
  163SOL     OW   33   1.650   1.720   1.394
  163SOL    HW1   34   1.703   1.730   1.310
  163SOL    HW2   35   1.623   1.810   1.428
  219SOL     OW   36   1.555   1.511   2.565
  219SOL    HW1   37   1.498   1.495   2.646
  219SOL    HW2   38   1.496   1.521   2.485
  227SOL     OW   39   1.460   1.505   3.201
  227SOL    HW1   40   1.484   1.599   3.227
  227SOL    HW2   41   1.444   1.451   3.283
  238SOL     OW   42   1.842   1.767   2.221
  238SOL    HW1   43   1.896   1.738   2.301
  238SOL    HW2   44   1.872   1.857   2.192
  241SOL     OW   45   1.641   1.108   2.294
  241SOL    HW1   46   1.727   1.110   2.242
  241SOL    HW2   47   1.655   1.155   2.382
  250SOL     OW   48   1.466   1.417   2.815
  250SOL    HW1   49   1.407   1.423   2.895
  250SOL    HW2   50   1.451   1.329   2.769
  251SOL     OW   51   1.667   1.714   2.434
  251SOL    HW1   52   1.626   1.691   2.346
  251SOL    HW2   53   1.649   1.640   2.499
  254SOL     OW   54   1.576   1.662   2.169
  254SOL    HW1   55   1.665   1.708   2.172
  254SOL    HW2   56   1.555   1.638   2.074
  268SOL     OW   57   1.795   1.066   2.735
  268SOL    HW1   58   1.733   1.051   2.659
  268SOL    HW2   59   1.743   1.077   2.820
  273SOL     OW   60   1.111   1.776   2.099
  273SOL    HW1   61   1.051   1.714   2.149
  273SOL    HW2   62   1.142   1.732   2.014
  275SOL     OW   63   1.632   1.377   1.943
  275SOL    HW1   64   1.600   1.471   1.933
  275SOL    HW2   65   1.556   1.314   1.931
  293SOL     OW   66   1.227   1.570   2.655
  293SOL    HW1   67   1.248   1.644   2.590
  293SOL    HW2   68   1.295   1.570   2.728
  295SOL     OW   69   1.271   1.797   2.453
  295SOL    HW1   70   1.315   1.861   2.389
  295SOL    HW2   71   1.221   1.849   2.523
  305SOL     OW   72   1.664   1.280   2.519
  305SOL    HW1   73   1.763   1.288   2.533
  305SOL    HW2   74   1.619   1.364   2.550
  310SOL     OW   75   1.592   1.629   3.487
  310SOL    HW1   76   1.619   1.663   3.397
  310SOL    HW2   77   1.671   1.591   3.533
  312SOL     OW   78   1.638   1.099   2.941
  312SOL    HW1   79   1.643   1.180   3.000
  312SOL    HW2   80   1.552   1.101   2.890
  322SOL     OW   81   1.272   1.445   3.004
  322SOL    HW1   82   1.319   1.458   3.091
  322SOL    HW2   83   1.206   1.371   3.013
  340SOL     OW   84   1.859   1.518   3.467
  340SOL    HW1   85   1.873   1.545   3.372
  340SOL    HW2   86   1.942   1.540   3.520
  365SOL     OW   87   1.759   1.747   3.016
  365SOL    HW1   88   1.820   1.777   2.943
  365SOL    HW2   89   1.721   1.658   2.994
  366SOL     OW   90   1.252   1.731   2.990
  366SOL    HW1   91   1.336   1.736   2.936
  366SOL    HW2   92   1.229   1.635   3.008
  370SOL     OW   93   1.388   1.573   2.339
  370SOL    HW1   94   1.455   1.585   2.265
  370SOL    HW2   95   1.348   1.662   2.362
  375SOL     OW   96   1.650   1.720   3.256
  375SOL    HW1   97   1.703   1.730   3.172
  375SOL    HW2   98   1.623   1.810   3.290
  381SOL     OW   99   1.504   1.607   1.906
  381SOL    HW1  100   1.412   1.644   1.913
  381SOL    HW2  101   1.542   1.627   1.816
  383SOL     OW  102   1.614   1.292   3.151
  383SOL    HW1  103   1.674   1.295   3.231
  383SOL    HW2  104   1.539   1.356   3.164
  396SOL     OW  105   1.493   1.767   2.821
  396SOL    HW1  106   1.526   1.831   2.752
  396SOL    HW2  107   1.559   1.761   2.896
  409SOL     OW  108   1.861   1.569   2.713
  409SOL    HW1  109   1.790   1.557   2.643
  409SOL    HW2  110   1.862   1.490   2.773
  415SOL     OW  111   1.705   1.487   2.966
  415SOL    HW1  112   1.612   1.462   2.939
  415SOL    HW2  113   1.731   1.437   3.048
  611SOL     OW  114   1.594   1.976   1.480
  611SOL    HW1  115   1.576   2.043   1.408
  611SOL    HW2  116   1.591   2.022   1.569
  631SOL     OW  117   1.394   2.331   1.674
  631SOL    HW1  118   1.374   2.374   1.762
  631SOL    HW2  119   1.472   2.269   1.683
  638SOL     OW  120   1.719   2.447   1.831
  638SOL    HW1  121   1.693   2.536   1.795
  638SOL    HW2  122   1.717   2.379   1.758
  656SOL     OW  123   1.547   2.084   1.729
  656SOL    HW1  124   1.542   2.121   1.821
  656SOL    HW2  125   1.475   2.015   1.717
  659SOL     OW  126   1.351   2.452   1.433
  659SOL    HW1  127   1.379   2.409   1.518
  659SOL    HW2  128   1.376   2.548   1.434
  681SOL     OW  129   1.754   3.085   1.588
  681SOL    HW1  130   1.845   3.046   1.575
  681SOL    HW2  131   1.762   3.181   1.612
  683SOL     OW  132   1.592   3.491   1.625
  683SOL    HW1  133   1.619   3.525   1.535
  683SOL    HW2  134   1.671   3.453   1.671
  699SOL     OW  135   1.587   2.641   1.670
  699SOL    HW1  136   1.495   2.679   1.665
  699SOL    HW2  137   1.647   2.688   1.605
  708SOL     OW  138   1.728   2.797   1.854
  708SOL    HW1  139   1.682   2.790   1.765
  708SOL    HW2  140   1.666   2.841   1.920
  713SOL     OW  141   1.859   3.380   1.605
  713SOL    HW1  142   1.873   3.407   1.510
  713SOL    HW2  143   1.942   3.402   1.658
  720SOL     OW  144   1.138   2.242   1.678
  720SOL    HW1  145   1.093   2.305   1.742
  720SOL    HW2  146   1.231   2.273   1.661
  728SOL     OW  147   1.369   2.812   1.660
  728SOL    HW1  148   1.408   2.901   1.680
  728SOL    HW2  149   1.379   2.792   1.563
  730SOL     OW  150   1.657   2.466   1.206
  730SOL    HW1  151   1.619   2.397   1.268
  730SOL    HW2  152   1.739   2.430   1.162
  757SOL     OW  153   1.614   3.154   1.289
  757SOL    HW1  154   1.674   3.157   1.369
  757SOL    HW2  155   1.539   3.218   1.302
  761SOL     OW  156   1.709   2.247   1.381
  761SOL    HW1  157   1.782   2.316   1.385
  761SOL    HW2  158   1.737   2.172   1.322
  766SOL     OW  159   1.440   2.718   1.398
  766SOL    HW1  160   1.383   2.770   1.335
  766SOL    HW2  161   1.536   2.730   1.374
  772SOL     OW  162   1.450   3.082   1.633
  772SOL    HW1  163   1.441   3.072   1.732
  772SOL    HW2  164   1.546   3.075   1.607
  774SOL     OW  165   1.674   2.745   1.254
  774SOL    HW1  166   1.647   2.656   1.217
  774SOL    HW2  167   1.675   2.813   1.181
  777SOL     OW  168   1.777   2.204   1.642
  777SOL    HW1  169   1.760   2.235   1.548
  777SOL    HW2  170   1.693   2.167   1.680
  778SOL     OW  171   1.730   2.796   1.517
  778SOL    HW1  172   1.768   2.887   1.532
  778SOL    HW2  173   1.722   2.779   1.418
  787SOL     OW  174   1.824   2.054   1.227
  787SOL    HW1  175   1.820   1.964   1.271
  787SOL    HW2  176   1.827   2.043   1.128
  805SOL     OW  177   1.555   3.373   2.565
  805SOL    HW1  178   1.498   3.357   2.646
  805SOL    HW2  179   1.496   3.383   2.485
  806SOL     OW  180   1.135   2.565   2.579
  806SOL    HW1  181   1.192   2.643   2.554
  806SOL    HW2  182   1.075   2.591   2.655
  807SOL     OW  183   1.755   2.469   2.093
  807SOL    HW1  184   1.743   2.456   1.994
  807SOL    HW2  185   1.725   2.388   2.142
  813SOL     OW  186   1.460   3.367   3.201
  813SOL    HW1  187   1.484   3.461   3.227
  813SOL    HW2  188   1.444   3.313   3.283
  815SOL     OW  189   1.603   2.309   2.599
  815SOL    HW1  190   1.529   2.355   2.549
  815SOL    HW2  191   1.654   2.377   2.652
  822SOL     OW  192   1.594   1.976   3.342
  822SOL    HW1  193   1.576   2.043   3.270
  822SOL    HW2  194   1.591   2.022   3.431
  824SOL     OW  195   1.842   3.629   2.221
  824SOL    HW1  196   1.896   3.600   2.301
  824SOL    HW2  197   1.872   3.719   2.192
  826SOL     OW  198   1.689   2.784   2.474
  826SOL    HW1  199   1.784   2.755   2.482
  826SOL    HW2  200   1.681   2.849   2.399
  827SOL     OW  201   1.641   2.970   2.294
  827SOL    HW1  202   1.727   2.972   2.242
  827SOL    HW2  203   1.655   3.017   2.382
  830SOL     OW  204   1.293   3.090   3.285
  830SOL    HW1  205   1.330   3.017   3.227
  830SOL    HW2  206   1.345   3.095   3.370
  833SOL     OW  207   1.525   2.861   2.052
  833SOL    HW1  208   1.462   2.785   2.065
  833SOL    HW2  209   1.573   2.879   2.138
  836SOL     OW  210   1.466   3.279   2.815
  836SOL    HW1  211   1.407   3.285   2.895
  836SOL    HW2  212   1.451   3.191   2.769
  837SOL     OW  213   1.667   3.576   2.434
  837SOL    HW1  214   1.626   3.553   2.346
  837SOL    HW2  215   1.649   3.502   2.499
  839SOL     OW  216   1.281   2.207   2.806
  839SOL    HW1  217   1.195   2.157   2.793
  839SOL    HW2  218   1.343   2.153   2.862
  840SOL     OW  219   1.576   3.524   2.169
  840SOL    HW1  220   1.665   3.570   2.172
  840SOL    HW2  221   1.555   3.500   2.074
  842SOL     OW  222   1.394   2.331   3.536
  842SOL    HW1  223   1.374   2.374   3.624
  842SOL    HW2  224   1.472   2.269   3.545
  844SOL     OW  225   0.991   2.272   3.104
  844SOL    HW1  226   0.914   2.306   3.158
  844SOL    HW2  227   0.957   2.221   3.025
  845SOL     OW  228   1.041   2.563   2.291
  845SOL    HW1  229   1.067   2.559   2.387
  845SOL    HW2  230   0.956   2.512   2.277
  849SOL     OW  231   1.719   2.447   3.693
  849SOL    HW1  232   1.693   2.536   3.657
  849SOL    HW2  233   1.717   2.379   3.620
  850SOL     OW  234   1.362   3.006   2.407
  850SOL    HW1  235   1.445   2.977   2.359
  850SOL    HW2  236   1.313   3.073   2.351
  852SOL     OW  237   1.008   3.318   2.339
  852SOL    HW1  238   0.962   3.390   2.287
  852SOL    HW2  239   1.004   3.338   2.437
  854SOL     OW  240   1.795   2.928   2.735
  854SOL    HW1  241   1.733   2.913   2.659
  854SOL    HW2  242   1.743   2.939   2.820
  855SOL     OW  243   1.227   3.412   3.368
  855SOL    HW1  244   1.233   3.335   3.432
  855SOL    HW2  245   1.175   3.386   3.288
  857SOL     OW  246   1.458   2.597   2.590
  857SOL    HW1  247   1.453   2.532   2.665
  857SOL    HW2  248   1.538   2.656   2.603
  861SOL     OW  249   1.632   3.239   1.943
  861SOL    HW1  250   1.600   3.333   1.933
  861SOL    HW2  251   1.556   3.176   1.931
  863SOL     OW  252   1.400   1.969   2.288
  863SOL    HW1  253   1.376   1.932   2.198
  863SOL    HW2  254   1.499   1.985   2.292
  867SOL     OW  255   1.547   2.084   3.591
  867SOL    HW1  256   1.542   2.121   3.683
  867SOL    HW2  257   1.475   2.015   3.579
  871SOL     OW  258   1.351   2.452   3.295
  871SOL    HW1  259   1.379   2.409   3.380
  871SOL    HW2  260   1.376   2.548   3.296
  873SOL     OW  261   0.922   2.365   2.761
  873SOL    HW1  262   0.897   2.356   2.665
  873SOL    HW2  263   0.970   2.283   2.792
  875SOL     OW  264   1.434   3.050   1.903
  875SOL    HW1  265   1.466   2.974   1.960
  875SOL    HW2  266   1.342   3.077   1.933
  877SOL     OW  267   0.935   2.098   2.342
  877SOL    HW1  268   0.887   2.139   2.264
  877SOL    HW2  269   1.034   2.096   2.323
  878SOL     OW  270   1.076   2.545   3.326
  878SOL    HW1  271   0.996   2.484   3.329
  878SOL    HW2  272   1.157   2.492   3.302
  879SOL     OW  273   1.227   3.432   2.655
  879SOL    HW1  274   1.248   3.506   2.590
  879SOL    HW2  275   1.295   3.432   2.728
  881SOL     OW  276   1.271   3.659   2.453
  881SOL    HW1  277   1.315   3.723   2.389
  881SOL    HW2  278   1.221   3.711   2.523
  882SOL     OW  279   1.032   2.411   1.878
  882SOL    HW1  280   0.991   2.493   1.839
  882SOL    HW2  281   1.096   2.437   1.951
  885SOL     OW  282   0.866   2.316   2.504
  885SOL    HW1  283   0.834   2.388   2.442
  885SOL    HW2  284   0.890   2.235   2.451
  886SOL     OW  285   1.017   1.901   2.615
  886SOL    HW1  286   0.945   1.906   2.546
  886SOL    HW2  287   0.993   1.832   2.684
  887SOL     OW  288   1.429   3.035   2.729
  887SOL    HW1  289   1.374   2.951   2.722
  887SOL    HW2  290   1.455   3.064   2.637
  888SOL     OW  291   1.466   2.452   2.854
  888SOL    HW1  292   1.436   2.357   2.861
  888SOL    HW2  293   1.539   2.468   2.920
  889SOL     OW  294   1.857   2.695   2.239
  889SOL    HW1  295   1.899   2.631   2.303
  889SOL    HW2  296   1.819   2.644   2.161
  891SOL     OW  297   1.664   3.142   2.519
  891SOL    HW1  298   1.763   3.150   2.533
  891SOL    HW2  299   1.619   3.226   2.550
  892SOL     OW  300   1.390   2.437   1.940
  892SOL    HW1  301   1.336   2.416   2.021
  892SOL    HW2  302   1.481   2.396   1.949
  894SOL     OW  303   1.754   3.085   3.450
  894SOL    HW1  304   1.845   3.046   3.437
  894SOL    HW2  305   1.762   3.181   3.474
  895SOL     OW  306   1.064   3.209   3.202
  895SOL    HW1  307   0.984   3.186   3.257
  895SOL    HW2  308   1.147   3.183   3.251
  896SOL     OW  309   1.592   3.491   3.487
  896SOL    HW1  310   1.619   3.525   3.397
  896SOL    HW2  311   1.671   3.453   3.533
  897SOL     OW  312   1.111   3.057   2.962
  897SOL    HW1  313   1.071   3.101   3.043
  897SOL    HW2  314   1.070   3.094   2.879
  898SOL     OW  315   1.638   2.961   2.941
  898SOL    HW1  316   1.643   3.042   3.000
  898SOL    HW2  317   1.552   2.963   2.890
  903SOL     OW  318   1.274   2.248   3.124
  903SOL    HW1  319   1.295   2.322   3.188
  903SOL    HW2  320   1.185   2.265   3.081
  907SOL     OW  321   1.252   3.210   2.250
  907SOL    HW1  322   1.302   3.287   2.290
  907SOL    HW2  323   1.157   3.212   2.282
  908SOL     OW  324   1.272   3.307   3.004
  908SOL    HW1  325   1.319   3.320   3.091
  908SOL    HW2  326   1.206   3.233   3.013
  909SOL     OW  327   1.582   2.501   2.334
  909SOL    HW1  328   1.551   2.562   2.407
  909SOL    HW2  329   1.632   2.553   2.265
  912SOL     OW  330   1.587   2.641   3.532
  912SOL    HW1  331   1.495   2.679   3.527
  912SOL    HW2  332   1.647   2.688   3.467
  916SOL     OW  333   1.360   2.724   2.907
  916SOL    HW1  334   1.285   2.724   2.841
  916SOL    HW2  335   1.397   2.632   2.916
  917SOL     OW  336   1.209   2.387   2.137
  917SOL    HW1  337   1.222   2.303   2.191
  917SOL    HW2  338   1.180   2.461   2.197
  921SOL     OW  339   1.728   2.797   3.716
  921SOL    HW1  340   1.682   2.790   3.627
  921SOL    HW2  341   1.666   2.841   3.782
  923SOL     OW  342   1.622   2.229   2.236
  923SOL    HW1  343   1.624   2.153   2.300
  923SOL    HW2  344   1.574   2.306   2.276
  924SOL     OW  345   1.023   2.628   2.828
  924SOL    HW1  346   1.038   2.649   2.924
  924SOL    HW2  347   0.993   2.533   2.819
  926SOL     OW  348   1.859   3.380   3.467
  926SOL    HW1  349   1.873   3.407   3.372
  926SOL    HW2  350   1.942   3.402   3.520
  928SOL     OW  351   1.540   2.136   1.987
  928SOL    HW1  352   1.479   2.061   2.010
  928SOL    HW2  353   1.562   2.188   2.070
  929SOL     OW  354   1.303   2.700   1.904
  929SOL    HW1  355   1.337   2.607   1.919
  929SOL    HW2  356   1.321   2.727   1.809
  930SOL     OW  357   1.068   3.195   2.711
  930SOL    HW1  358   1.075   3.111   2.656
  930SOL    HW2  359   1.130   3.264   2.675
  933SOL     OW  360   1.138   2.242   3.540
  933SOL    HW1  361   1.093   2.305   3.604
  933SOL    HW2  362   1.231   2.273   3.523
  934SOL     OW  363   1.160   2.069   3.339
  934SOL    HW1  364   1.160   2.133   3.416
  934SOL    HW2  365   1.188   2.117   3.256
  938SOL     OW  366   1.002   2.658   3.100
  938SOL    HW1  367   1.043   2.626   3.186
  938SOL    HW2  368   0.906   2.631   3.097
  941SOL     OW  369   1.369   2.812   3.522
  941SOL    HW1  370   1.408   2.901   3.542
  941SOL    HW2  371   1.379   2.792   3.425
  943SOL     OW  372   1.657   2.466   3.068
  943SOL    HW1  373   1.619   2.397   3.130
  943SOL    HW2  374   1.739   2.430   3.024
  949SOL     OW  375   1.347   2.921   3.096
  949SOL    HW1  376   1.371   2.858   3.022
  949SOL    HW2  377   1.257   2.961   3.078
  950SOL     OW  378   1.302   2.717   2.171
  950SOL    HW1  379   1.216   2.686   2.213
  950SOL    HW2  380   1.298   2.703   2.072
  951SOL     OW  381   1.759   3.609   3.016
  951SOL    HW1  382   1.820   3.639   2.943
  951SOL    HW2  383   1.721   3.520   2.994
  952SOL     OW  384   1.252   3.593   2.990
  952SOL    HW1  385   1.336   3.598   2.936
  952SOL    HW2  386   1.229   3.497   3.008
  955SOL     OW  387   1.726   1.997   2.385
  955SOL    HW1  388   1.799   1.980   2.318
  955SOL    HW2  389   1.695   1.910   2.423
  956SOL     OW  390   1.388   3.435   2.339
  956SOL    HW1  391   1.455   3.447   2.265
  956SOL    HW2  392   1.348   3.524   2.362
  958SOL     OW  393   1.280   2.789   2.534
  958SOL    HW1  394   1.340   2.708   2.536
  958SOL    HW2  395   1.320   2.858   2.474
  961SOL     OW  396   1.650   3.582   3.256
  961SOL    HW1  397   1.703   3.592   3.172
  961SOL    HW2  398   1.623   3.672   3.290
  962SOL     OW  399   1.841   2.037   2.825
  962SOL    HW1  400   1.880   1.952   2.789
  962SOL    HW2  401   1.743   2.039   2.806
  964SOL     OW  402   1.194   3.474   1.893
  964SOL    HW1  403   1.200   3.381   1.930
  964SOL    HW2  404   1.135   3.474   1.813
  966SOL     OW  405   0.916   2.772   2.153
  966SOL    HW1  406   0.979   2.810   2.085
  966SOL    HW2  407   0.956   2.689   2.192
  967SOL     OW  408   1.504   3.469   1.906
  967SOL    HW1  409   1.412   3.506   1.913
  967SOL    HW2  410   1.542   3.489   1.816
  969SOL     OW  411   1.614   3.154   3.151
  969SOL    HW1  412   1.674   3.157   3.231
  969SOL    HW2  413   1.539   3.218   3.164
  970SOL     OW  414   1.039   2.960   2.558
  970SOL    HW1  415   0.969   2.913   2.612
  970SOL    HW2  416   1.098   2.892   2.515
  971SOL     OW  417   1.014   2.098   2.833
  971SOL    HW1  418   1.006   2.062   2.740
  971SOL    HW2  419   1.012   2.022   2.898
  973SOL     OW  420   1.709   2.247   3.243
  973SOL    HW1  421   1.782   2.316   3.247
  973SOL    HW2  422   1.737   2.172   3.184
  978SOL     OW  423   1.440   2.718   3.260
  978SOL    HW1  424   1.383   2.770   3.197
  978SOL    HW2  425   1.536   2.730   3.236
  980SOL     OW  426   1.183   3.197   1.981
  980SOL    HW1  427   1.084   3.186   1.983
  980SOL    HW2  428   1.217   3.212   2.074
  982SOL     OW  429   1.493   3.629   2.821
  982SOL    HW1  430   1.526   3.693   2.752
  982SOL    HW2  431   1.559   3.623   2.896
  984SOL     OW  432   1.450   3.082   3.495
  984SOL    HW1  433   1.441   3.072   3.594
  984SOL    HW2  434   1.546   3.075   3.469
  986SOL     OW  435   1.674   2.745   3.116
  986SOL    HW1  436   1.647   2.656   3.079
  986SOL    HW2  437   1.675   2.813   3.043
  987SOL     OW  438   1.225   2.187   2.311
  987SOL    HW1  439   1.290   2.113   2.300
  987SOL    HW2  440   1.245   2.237   2.395
  989SOL     OW  441   1.777   2.204   3.504
  989SOL    HW1  442   1.760   2.235   3.410
  989SOL    HW2  443   1.693   2.167   3.542
  990SOL     OW  444   1.730   2.796   3.379
  990SOL    HW1  445   1.768   2.887   3.394
  990SOL    HW2  446   1.722   2.779   3.280
  993SOL     OW  447   0.859   2.818   2.723
  993SOL    HW1  448   0.913   2.749   2.771
  993SOL    HW2  449   0.827   2.887   2.789
  994SOL     OW  450   1.083   2.846   1.949
  994SOL    HW1  451   1.060   2.899   1.867
  994SOL    HW2  452   1.164   2.790   1.930
  995SOL     OW  453   1.861   3.431   2.713
  995SOL    HW1  454   1.790   3.419   2.643
  995SOL    HW2  455   1.862   3.352   2.773
  999SOL     OW  456   1.824   2.054   3.089
  999SOL    HW1  457   1.820   1.964   3.133
  999SOL    HW2  458   1.827   2.043   2.990
 1001SOL     OW  459   1.705   3.349   2.966
 1001SOL    HW1  460   1.612   3.324   2.939
 1001SOL    HW2  461   1.731   3.299   3.048
 1004SOL     OW  462   1.424   2.076   2.974
 1004SOL    HW1  463   1.476   2.011   3.029
 1004SOL    HW2  464   1.375   2.139   3.035
 1005SOL     OW  465   1.001   1.896   3.016
 1005SOL    HW1  466   0.938   1.824   2.985
 1005SOL    HW2  467   1.094   1.860   3.016
 1008SOL     OW  468   1.352   1.914   2.030
 1008SOL    HW1  469   1.387   1.873   1.946
 1008SOL    HW2  470   1.262   1.876   2.050
 1009SOL     OW  471   1.300   2.315   2.553
 1009SOL    HW1  472   1.241   2.395   2.557
 1009SOL    HW2  473   1.315   2.280   2.646
 1010SOL     OW  474   1.593   2.083   2.744
 1010SOL    HW1  475   1.509   2.082   2.798
 1010SOL    HW2  476   1.595   2.166   2.688
 1019SOL     OW  477   1.755   2.469   3.955
 1019SOL    HW1  478   1.743   2.456   3.856
 1019SOL    HW2  479   1.725   2.388   4.004
 1037SOL     OW  480   1.525   2.861   3.914
 1037SOL    HW1  481   1.462   2.785   3.927
 1037SOL    HW2  482   1.573   2.879   4.000
 1057SOL     OW  483   1.632   3.239   3.805
 1057SOL    HW1  484   1.600   3.333   3.795
 1057SOL    HW2  485   1.556   3.176   3.793
 1068SOL     OW  486   1.434   3.050   3.765
 1068SOL    HW1  487   1.466   2.974   3.822
 1068SOL    HW2  488   1.342   3.077   3.795
 1080SOL     OW  489   1.857   2.695   4.101
 1080SOL    HW1  490   1.899   2.631   4.165
 1080SOL    HW2  491   1.819   2.644   4.023
 1083SOL     OW  492   1.390   2.437   3.802
 1083SOL    HW1  493   1.336   2.416   3.883
 1083SOL    HW2  494   1.481   2.396   3.811
 1107SOL     OW  495   1.540   2.136   3.849
 1107SOL    HW1  496   1.479   2.061   3.872
 1107SOL    HW2  497   1.562   2.188   3.932
 1108SOL     OW  498   1.303   2.700   3.766
 1108SOL    HW1  499   1.337   2.607   3.781
 1108SOL    HW2  500   1.321   2.727   3.671
 1352SOL     OW  501   1.594   3.838   3.342
 1352SOL    HW1  502   1.576   3.905   3.270
 1352SOL    HW2  503   1.591   3.884   3.431
 1382SOL     OW  504   1.400   3.831   2.288
 1382SOL    HW1  505   1.376   3.794   2.198
 1382SOL    HW2  506   1.499   3.847   2.292
 1455SOL     OW  507   1.726   3.859   2.385
 1455SOL    HW1  508   1.799   3.842   2.318
 1455SOL    HW2  509   1.695   3.772   2.423
 1458SOL     OW  510   1.841   3.899   2.825
 1458SOL    HW1  511   1.880   3.814   2.789
 1458SOL    HW2  512   1.743   3.901   2.806
 1486SOL     OW  513   1.824   3.916   3.089
 1486SOL    HW1  514   1.820   3.826   3.133
 1486SOL    HW2  515   1.827   3.905   2.990
 1493SOL     OW  516   1.352   3.776   2.030
 1493SOL    HW1  517   1.387   3.735   1.946
 1493SOL    HW2  518   1.262   3.738   2.050
 1495SOL     OW  519   1.593   3.945   2.744
 1495SOL    HW1  520   1.509   3.944   2.798
 1495SOL    HW2  521   1.595   4.028   2.688
 1634SOL     OW  522   2.548   1.161   1.803
 1634SOL    HW1  523   2.608   1.240   1.817
 1634SOL    HW2  524   2.462   1.192   1.762
 1640SOL     OW  525   2.989   1.341   1.690
 1640SOL    HW1  526   3.036   1.341   1.778
 1640SOL    HW2  527   2.941   1.254   1.679
 1643SOL     OW  528   2.482   1.786   1.439
 1643SOL    HW1  529   2.390   1.769   1.474
 1643SOL    HW2  530   2.510   1.878   1.465
 1657SOL     OW  531   3.049   1.792   1.616
 1657SOL    HW1  532   3.073   1.852   1.540
 1657SOL    HW2  533   3.056   1.697   1.586
 1670SOL     OW  534   1.992   1.821   1.571
 1670SOL    HW1  535   1.982   1.806   1.670
 1670SOL    HW2  536   1.906   1.857   1.535
 1678SOL     OW  537   3.089   1.550   1.506
 1678SOL    HW1  538   3.095   1.473   1.570
 1678SOL    HW2  539   3.037   1.524   1.426
 1681SOL     OW  540   2.323   1.266   1.727
 1681SOL    HW1  541   2.273   1.267   1.641
 1681SOL    HW2  542   2.260   1.248   1.803
 1687SOL     OW  543   2.111   1.785   1.241
 1687SOL    HW1  544   2.168   1.720   1.291
 1687SOL    HW2  545   2.095   1.752   1.148
 1693SOL     OW  546   2.750   1.514   1.195
 1693SOL    HW1  547   2.727   1.489   1.101
 1693SOL    HW2  548   2.811   1.445   1.234
 1718SOL     OW  549   2.926   1.347   1.340
 1718SOL    HW1  550   2.846   1.324   1.395
 1718SOL    HW2  551   3.009   1.321   1.389
 1719SOL     OW  552   3.454   1.629   1.625
 1719SOL    HW1  553   3.481   1.663   1.535
 1719SOL    HW2  554   3.533   1.591   1.671
 1723SOL     OW  555   2.842   1.116   1.719
 1723SOL    HW1  556   2.743   1.122   1.729
 1723SOL    HW2  557   2.865   1.036   1.663
 1727SOL     OW  558   1.926   1.564   1.331
 1727SOL    HW1  559   1.880   1.646   1.297
 1727SOL    HW2  560   2.024   1.583   1.340
 1733SOL     OW  561   2.216   1.510   1.329
 1733SOL    HW1  562   2.195   1.466   1.242
 1733SOL    HW2  563   2.313   1.536   1.332
 1748SOL     OW  564   2.842   1.573   1.700
 1748SOL    HW1  565   2.822   1.617   1.612
 1748SOL    HW2  566   2.881   1.482   1.684
 1766SOL     OW  567   2.114   1.564   1.744
 1766SOL    HW1  568   2.084   1.621   1.820
 1766SOL    HW2  569   2.107   1.467   1.770
 1768SOL     OW  570   2.792   1.678   1.465
 1768SOL    HW1  571   2.768   1.660   1.370
 1768SOL    HW2  572   2.822   1.772   1.475
 1774SOL     OW  573   3.114   1.731   1.128
 1774SOL    HW1  574   3.198   1.736   1.074
 1774SOL    HW2  575   3.091   1.635   1.146
 1776SOL     OW  576   2.550   1.662   1.716
 1776SOL    HW1  577   2.494   1.743   1.725
 1776SOL    HW2  578   2.602   1.666   1.630
 1780SOL     OW  579   1.992   1.794   1.851
 1780SOL    HW1  580   1.951   1.720   1.904
 1780SOL    HW2  581   2.056   1.845   1.909
 1782SOL     OW  582   2.692   1.273   1.422
 1782SOL    HW1  583   2.687   1.306   1.517
 1782SOL    HW2  584   2.606   1.292   1.376
 1784SOL     OW  585   3.512   1.720   1.394
 1784SOL    HW1  586   3.565   1.730   1.310
 1784SOL    HW2  587   3.485   1.810   1.428
 1791SOL     OW  588   2.234   1.288   1.490
 1791SOL    HW1  589   2.221   1.381   1.456
 1791SOL    HW2  590   2.150   1.236   1.477
 1808SOL     OW  591   2.252   1.741   1.560
 1808SOL    HW1  592   2.161   1.782   1.558
 1808SOL    HW2  593   2.245   1.647   1.592
 1819SOL     OW  594   2.083   1.314   1.844
 1819SOL    HW1  595   2.018   1.241   1.823
 1819SOL    HW2  596   2.087   1.328   1.942
 1821SOL     OW  597   2.534   1.391   1.624
 1821SOL    HW1  598   2.456   1.341   1.662
 1821SOL    HW2  599   2.531   1.486   1.655
 1830SOL     OW  600   2.480   1.567   1.284
 1830SOL    HW1  601   2.475   1.649   1.341
 1830SOL    HW2  602   2.569   1.564   1.239
 1839SOL     OW  603   2.431   1.275   3.027
 1839SOL    HW1  604   2.338   1.268   2.990
 1839SOL    HW2  605   2.442   1.364   3.071
 1840SOL     OW  606   3.417   1.511   2.565
 1840SOL    HW1  607   3.360   1.495   2.646
 1840SOL    HW2  608   3.358   1.521   2.485
 1843SOL     OW  609   2.630   1.144   2.885
 1843SOL    HW1  610   2.552   1.161   2.945
 1843SOL    HW2  611   2.664   1.231   2.849
 1845SOL     OW  612   2.547   1.012   2.527
 1845SOL    HW1  613   2.616   0.996   2.597
 1845SOL    HW2  614   2.474   1.069   2.565
 1846SOL     OW  615   2.548   1.161   3.665
 1846SOL    HW1  616   2.608   1.240   3.679
 1846SOL    HW2  617   2.462   1.192   3.624
 1847SOL     OW  618   2.197   1.435   2.923
 1847SOL    HW1  619   2.119   1.404   2.870
 1847SOL    HW2  620   2.255   1.493   2.866
 1848SOL     OW  621   3.322   1.505   3.201
 1848SOL    HW1  622   3.346   1.599   3.227
 1848SOL    HW2  623   3.306   1.451   3.283
 1851SOL     OW  624   2.093   1.713   2.345
 1851SOL    HW1  625   2.127   1.790   2.399
 1851SOL    HW2  626   2.137   1.713   2.255
 1852SOL     OW  627   2.989   1.341   3.552
 1852SOL    HW1  628   3.036   1.341   3.640
 1852SOL    HW2  629   2.941   1.254   3.541
 1853SOL     OW  630   2.092   1.434   2.400
 1853SOL    HW1  631   2.066   1.530   2.400
 1853SOL    HW2  632   2.021   1.380   2.445
 1854SOL     OW  633   2.102   1.091   2.748
 1854SOL    HW1  634   2.116   1.007   2.800
 1854SOL    HW2  635   2.047   1.155   2.803
 1855SOL     OW  636   2.482   1.786   3.301
 1855SOL    HW1  637   2.390   1.769   3.336
 1855SOL    HW2  638   2.510   1.878   3.327
 1856SOL     OW  639   2.468   0.964   1.985
 1856SOL    HW1  640   2.475   1.048   1.931
 1856SOL    HW2  641   2.514   0.977   2.073
 1859SOL     OW  642   3.704   1.767   2.221
 1859SOL    HW1  643   3.758   1.738   2.301
 1859SOL    HW2  644   3.734   1.857   2.192
 1860SOL     OW  645   1.889   1.596   1.979
 1860SOL    HW1  646   1.870   1.500   2.000
 1860SOL    HW2  647   1.856   1.654   2.054
 1862SOL     OW  648   3.503   1.108   2.294
 1862SOL    HW1  649   3.589   1.110   2.242
 1862SOL    HW2  650   3.517   1.155   2.382
 1864SOL     OW  651   2.475   1.365   2.588
 1864SOL    HW1  652   2.426   1.278   2.597
 1864SOL    HW2  653   2.452   1.408   2.501
 1865SOL     OW  654   3.155   1.228   3.285
 1865SOL    HW1  655   3.192   1.155   3.227
 1865SOL    HW2  656   3.207   1.233   3.370
 1867SOL     OW  657   2.059   0.976   3.126
 1867SOL    HW1  658   2.148   0.931   3.112
 1867SOL    HW2  659   1.986   0.911   3.107
 1869SOL     OW  660   3.049   1.792   3.478
 1869SOL    HW1  661   3.073   1.852   3.402
 1869SOL    HW2  662   3.056   1.697   3.448
 1871SOL     OW  663   3.328   1.417   2.815
 1871SOL    HW1  664   3.269   1.423   2.895
 1871SOL    HW2  665   3.313   1.329   2.769
 1872SOL     OW  666   3.529   1.714   2.434
 1872SOL    HW1  667   3.488   1.691   2.346
 1872SOL    HW2  668   3.511   1.640   2.499
 1875SOL     OW  669   3.438   1.662   2.169
 1875SOL    HW1  670   3.527   1.708   2.172
 1875SOL    HW2  671   3.417   1.638   2.074
 1882SOL     OW  672   1.992   1.821   3.433
 1882SOL    HW1  673   1.982   1.806   3.532
 1882SOL    HW2  674   1.906   1.857   3.397
 1885SOL     OW  675   3.224   1.144   2.407
 1885SOL    HW1  676   3.307   1.115   2.359
 1885SOL    HW2  677   3.175   1.211   2.351
 1887SOL     OW  678   2.870   1.456   2.339
 1887SOL    HW1  679   2.824   1.528   2.287
 1887SOL    HW2  680   2.866   1.476   2.437
 1888SOL     OW  681   2.213   1.801   2.715
 1888SOL    HW1  682   2.263   1.715   2.721
 1888SOL    HW2  683   2.278   1.878   2.712
 1890SOL     OW  684   3.089   1.550   3.368
 1890SOL    HW1  685   3.095   1.473   3.432
 1890SOL    HW2  686   3.037   1.524   3.288
 1891SOL     OW  687   2.183   0.943   2.104
 1891SOL    HW1  688   2.265   0.982   2.062
 1891SOL    HW2  689   2.156   0.861   2.055
 1893SOL     OW  690   2.323   1.266   3.589
 1893SOL    HW1  691   2.273   1.267   3.503
 1893SOL    HW2  692   2.260   1.248   3.665
 1894SOL     OW  693   2.973   1.776   2.099
 1894SOL    HW1  694   2.913   1.714   2.149
 1894SOL    HW2  695   3.004   1.732   2.014
 1896SOL     OW  696   3.494   1.377   1.943
 1896SOL    HW1  697   3.462   1.471   1.933
 1896SOL    HW2  698   3.418   1.314   1.931
 1897SOL     OW  699   2.326   1.743   2.185
 1897SOL    HW1  700   2.359   1.782   2.271
 1897SOL    HW2  701   2.402   1.736   2.120
 1899SOL     OW  702   2.111   1.785   3.103
 1899SOL    HW1  703   2.168   1.720   3.153
 1899SOL    HW2  704   2.095   1.752   3.010
 1900SOL     OW  705   2.802   1.698   2.766
 1900SOL    HW1  706   2.882   1.641   2.787
 1900SOL    HW2  707   2.753   1.658   2.689
 1905SOL     OW  708   2.750   1.514   3.057
 1905SOL    HW1  709   2.727   1.489   2.963
 1905SOL    HW2  710   2.811   1.445   3.096
 1907SOL     OW  711   2.665   1.402   2.786
 1907SOL    HW1  712   2.755   1.416   2.744
 1907SOL    HW2  713   2.594   1.404   2.715
 1910SOL     OW  714   3.296   1.188   1.903
 1910SOL    HW1  715   3.328   1.112   1.960
 1910SOL    HW2  716   3.204   1.215   1.933
 1914SOL     OW  717   3.089   1.570   2.655
 1914SOL    HW1  718   3.110   1.644   2.590
 1914SOL    HW2  719   3.157   1.570   2.728
 1915SOL     OW  720   2.321   1.152   2.603
 1915SOL    HW1  721   2.250   1.125   2.668
 1915SOL    HW2  722   2.295   1.124   2.510
 1916SOL     OW  723   3.133   1.797   2.453
 1916SOL    HW1  724   3.177   1.861   2.389
 1916SOL    HW2  725   3.083   1.849   2.523
 1922SOL     OW  726   3.291   1.173   2.729
 1922SOL    HW1  727   3.236   1.089   2.722
 1922SOL    HW2  728   3.317   1.202   2.637
 1925SOL     OW  729   2.350   1.385   2.036
 1925SOL    HW1  730   2.263   1.370   2.083
 1925SOL    HW2  731   2.333   1.411   1.941
 1926SOL     OW  732   3.526   1.280   2.519
 1926SOL    HW1  733   3.625   1.288   2.533
 1926SOL    HW2  734   3.481   1.364   2.550
 1930SOL     OW  735   2.926   1.347   3.202
 1930SOL    HW1  736   2.846   1.324   3.257
 1930SOL    HW2  737   3.009   1.321   3.251
 1931SOL     OW  738   3.454   1.629   3.487
 1931SOL    HW1  739   3.481   1.663   3.397
 1931SOL    HW2  740   3.533   1.591   3.533
 1932SOL     OW  741   2.973   1.195   2.962
 1932SOL    HW1  742   2.933   1.239   3.043
 1932SOL    HW2  743   2.932   1.232   2.879
 1933SOL     OW  744   3.500   1.099   2.941
 1933SOL    HW1  745   3.505   1.180   3.000
 1933SOL    HW2  746   3.414   1.101   2.890
 1935SOL     OW  747   2.842   1.116   3.581
 1935SOL    HW1  748   2.743   1.122   3.591
 1935SOL    HW2  749   2.865   1.036   3.525
 1936SOL     OW  750   2.567   1.050   2.230
 1936SOL    HW1  751   2.553   1.057   2.329
 1936SOL    HW2  752   2.651   0.999   2.212
 1939SOL     OW  753   1.926   1.564   3.193
 1939SOL    HW1  754   1.880   1.646   3.159
 1939SOL    HW2  755   2.024   1.583   3.202
 1940SOL     OW  756   2.229   1.100   2.363
 1940SOL    HW1  757   2.222   1.183   2.307
 1940SOL    HW2  758   2.233   1.020   2.303
 1942SOL     OW  759   3.114   1.348   2.250
 1942SOL    HW1  760   3.164   1.425   2.290
 1942SOL    HW2  761   3.019   1.350   2.282
 1943SOL     OW  762   3.134   1.445   3.004
 1943SOL    HW1  763   3.181   1.458   3.091
 1943SOL    HW2  764   3.068   1.371   3.013
 1945SOL     OW  765   2.216   1.510   3.191
 1945SOL    HW1  766   2.195   1.466   3.104
 1945SOL    HW2  767   2.313   1.536   3.194
 1950SOL     OW  768   2.435   0.870   2.891
 1950SOL    HW1  769   2.479   0.959   2.882
 1950SOL    HW2  770   2.372   0.870   2.968
 1954SOL     OW  771   1.899   1.310   3.144
 1954SOL    HW1  772   1.952   1.261   3.212
 1954SOL    HW2  773   1.921   1.408   3.149
 1960SOL     OW  774   2.842   1.573   3.562
 1960SOL    HW1  775   2.822   1.617   3.474
 1960SOL    HW2  776   2.881   1.482   3.546
 1961SOL     OW  777   3.721   1.518   3.467
 1961SOL    HW1  778   3.735   1.545   3.372
 1961SOL    HW2  779   3.804   1.540   3.520
 1965SOL     OW  780   2.930   1.333   2.711
 1965SOL    HW1  781   2.937   1.249   2.656
 1965SOL    HW2  782   2.992   1.402   2.675
 1970SOL     OW  783   1.870   1.326   2.062
 1970SOL    HW1  784   1.777   1.347   2.031
 1970SOL    HW2  785   1.880   1.227   2.075
 1971SOL     OW  786   1.950   1.801   2.789
 1971SOL    HW1  787   1.908   1.715   2.762
 1971SOL    HW2  788   2.044   1.804   2.755
 1972SOL     OW  789   2.366   1.568   2.772
 1972SOL    HW1  790   2.432   1.642   2.781
 1972SOL    HW2  791   2.410   1.489   2.730
 1979SOL     OW  792   2.114   1.564   3.606
 1979SOL    HW1  793   2.084   1.621   3.682
 1979SOL    HW2  794   2.107   1.467   3.632
 1981SOL     OW  795   2.792   1.678   3.327
 1981SOL    HW1  796   2.768   1.660   3.232
 1981SOL    HW2  797   2.822   1.772   3.337
 1983SOL     OW  798   2.021   1.137   3.328
 1983SOL    HW1  799   2.043   1.076   3.404
 1983SOL    HW2  800   2.031   1.088   3.242
 1984SOL     OW  801   3.209   1.059   3.096
 1984SOL    HW1  802   3.233   0.996   3.022
 1984SOL    HW2  803   3.119   1.099   3.078
 1986SOL     OW  804   3.621   1.747   3.016
 1986SOL    HW1  805   3.682   1.777   2.943
 1986SOL    HW2  806   3.583   1.658   2.994
 1987SOL     OW  807   3.114   1.731   2.990
 1987SOL    HW1  808   3.198   1.736   2.936
 1987SOL    HW2  809   3.091   1.635   3.008
 1988SOL     OW  810   1.945   1.258   2.884
 1988SOL    HW1  811   1.940   1.257   2.984
 1988SOL    HW2  812   1.862   1.217   2.846
 1989SOL     OW  813   2.550   1.662   3.578
 1989SOL    HW1  814   2.494   1.743   3.587
 1989SOL    HW2  815   2.602   1.666   3.492
 1991SOL     OW  816   3.250   1.573   2.339
 1991SOL    HW1  817   3.317   1.585   2.265
 1991SOL    HW2  818   3.210   1.662   2.362
 1992SOL     OW  819   1.992   1.794   3.713
 1992SOL    HW1  820   1.951   1.720   3.766
 1992SOL    HW2  821   2.056   1.845   3.771
 1993SOL     OW  822   3.142   0.927   2.534
 1993SOL    HW1  823   3.202   0.846   2.536
 1993SOL    HW2  824   3.182   0.996   2.474
 1994SOL     OW  825   2.692   1.273   3.284
 1994SOL    HW1  826   2.687   1.306   3.379
 1994SOL    HW2  827   2.606   1.292   3.238
 1995SOL     OW  828   2.534   1.616   2.016
 1995SOL    HW1  829   2.543   1.626   1.917
 1995SOL    HW2  830   2.494   1.527   2.037
 1996SOL     OW  831   3.512   1.720   3.256
 1996SOL    HW1  832   3.565   1.730   3.172
 1996SOL    HW2  833   3.485   1.810   3.290
 1999SOL     OW  834   3.056   1.612   1.893
 1999SOL    HW1  835   3.062   1.519   1.930
 1999SOL    HW2  836   2.997   1.612   1.813
 2000SOL     OW  837   2.684   1.002   3.234
 2000SOL    HW1  838   2.724   1.001   3.142
 2000SOL    HW2  839   2.694   1.094   3.274
 2001SOL     OW  840   2.778   0.910   2.153
 2001SOL    HW1  841   2.841   0.948   2.085
 2001SOL    HW2  842   2.818   0.827   2.192
 2002SOL     OW  843   3.366   1.607   1.906
 2002SOL    HW1  844   3.274   1.644   1.913
 2002SOL    HW2  845   3.404   1.627   1.816
 2003SOL     OW  846   2.234   1.288   3.352
 2003SOL    HW1  847   2.221   1.381   3.318
 2003SOL    HW2  848   2.150   1.236   3.339
 2004SOL     OW  849   3.476   1.292   3.151
 2004SOL    HW1  850   3.536   1.295   3.231
 2004SOL    HW2  851   3.401   1.356   3.164
 2005SOL     OW  852   2.901   1.098   2.558
 2005SOL    HW1  853   2.831   1.051   2.612
 2005SOL    HW2  854   2.960   1.030   2.515
 2007SOL     OW  855   2.452   1.487   2.353
 2007SOL    HW1  856   2.494   1.429   2.283
 2007SOL    HW2  857   2.408   1.566   2.309
 2009SOL     OW  858   2.117   1.348   2.152
 2009SOL    HW1  859   2.021   1.349   2.125
 2009SOL    HW2  860   2.129   1.401   2.236
 2015SOL     OW  861   3.045   1.335   1.981
 2015SOL    HW1  862   2.946   1.324   1.983
 2015SOL    HW2  863   3.079   1.350   2.074
 2017SOL     OW  864   3.355   1.767   2.821
 2017SOL    HW1  865   3.388   1.831   2.752
 2017SOL    HW2  866   3.421   1.761   2.896
 2019SOL     OW  867   3.312   1.220   3.495
 2019SOL    HW1  868   3.303   1.210   3.594
 2019SOL    HW2  869   3.408   1.213   3.469
 2020SOL     OW  870   2.252   1.741   3.422
 2020SOL    HW1  871   2.161   1.782   3.420
 2020SOL    HW2  872   2.245   1.647   3.454
 2026SOL     OW  873   2.721   1.374   1.878
 2026SOL    HW1  874   2.675   1.389   1.966
 2026SOL    HW2  875   2.765   1.459   1.848
 2027SOL     OW  876   2.523   1.790   2.815
 2027SOL    HW1  877   2.477   1.878   2.802
 2027SOL    HW2  878   2.622   1.802   2.808
 2028SOL     OW  879   2.721   0.956   2.723
 2028SOL    HW1  880   2.775   0.887   2.771
 2028SOL    HW2  881   2.689   1.025   2.789
 2029SOL     OW  882   2.945   0.984   1.949
 2029SOL    HW1  883   2.922   1.037   1.867
 2029SOL    HW2  884   3.026   0.928   1.930
 2030SOL     OW  885   3.723   1.569   2.713
 2030SOL    HW1  886   3.652   1.557   2.643
 2030SOL    HW2  887   3.724   1.490   2.773
 2031SOL     OW  888   2.083   1.314   3.706
 2031SOL    HW1  889   2.018   1.241   3.685
 2031SOL    HW2  890   2.087   1.328   3.804
 2032SOL     OW  891   1.941   1.240   2.515
 2032SOL    HW1  892   1.940   1.193   2.603
 2032SOL    HW2  893   2.023   1.212   2.464
 2033SOL     OW  894   2.534   1.391   3.486
 2033SOL    HW1  895   2.456   1.341   3.524
 2033SOL    HW2  896   2.531   1.486   3.517
 2036SOL     OW  897   3.567   1.487   2.966
 2036SOL    HW1  898   3.474   1.462   2.939
 2036SOL    HW2  899   3.593   1.437   3.048
 2038SOL     OW  900   2.674   1.586   2.549
 2038SOL    HW1  901   2.706   1.596   2.455
 2038SOL    HW2  902   2.595   1.524   2.551
 2041SOL     OW  903   2.632   1.330   2.163
 2041SOL    HW1  904   2.586   1.243   2.180
 2041SOL    HW2  905   2.723   1.327   2.204
 2042SOL     OW  906   2.480   1.567   3.146
 2042SOL    HW1  907   2.475   1.649   3.203
 2042SOL    HW2  908   2.569   1.564   3.101
 2046SOL     OW  909   1.901   1.077   2.162
 2046SOL    HW1  910   2.000   1.066   2.153
 2046SOL    HW2  911   1.861   0.991   2.194
 2047SOL     OW  912   2.737   1.646   2.199
 2047SOL    HW1  913   2.660   1.611   2.145
 2047SOL    HW2  914   2.705   1.717   2.261
 2066SOL     OW  915   1.889   1.596   3.841
 2066SOL    HW1  916   1.870   1.500   3.862
 2066SOL    HW2  917   1.856   1.654   3.916
 2091SOL     OW  918   2.973   1.776   3.961
 2091SOL    HW1  919   2.913   1.714   4.011
 2091SOL    HW2  920   3.004   1.732   3.876
 2093SOL     OW  921   2.326   1.743   4.047
 2093SOL    HW1  922   2.359   1.782   4.133
 2093SOL    HW2  923   2.402   1.736   3.982
 2116SOL     OW  924   2.350   1.385   3.898
 2116SOL    HW1  925   2.263   1.370   3.945
 2116SOL    HW2  926   2.333   1.411   3.803
 2167SOL     OW  927   2.534   1.616   3.878
 2167SOL    HW1  928   2.543   1.626   3.779
 2167SOL    HW2  929   2.494   1.527   3.899
 2170SOL     OW  930   3.056   1.612   3.755
 2170SOL    HW1  931   3.062   1.519   3.792
 2170SOL    HW2  932   2.997   1.612   3.675
 2173SOL     OW  933   3.366   1.607   3.768
 2173SOL    HW1  934   3.274   1.644   3.775
 2173SOL    HW2  935   3.404   1.627   3.678
 2191SOL     OW  936   2.721   1.374   3.740
 2191SOL    HW1  937   2.675   1.389   3.828
 2191SOL    HW2  938   2.765   1.459   3.710
 2210SOL     OW  939   2.737   1.646   4.061
 2210SOL    HW1  940   2.660   1.611   4.007
 2210SOL    HW2  941   2.705   1.717   4.123
 2212SOL     OW  942   2.087   2.137   0.996
 2212SOL    HW1  943   2.122   2.120   1.088
 2212SOL    HW2  944   1.999   2.092   0.984
 2214SOL     OW  945   2.431   3.137   1.165
 2214SOL    HW1  946   2.338   3.130   1.128
 2214SOL    HW2  947   2.442   3.226   1.209
 2218SOL     OW  948   2.630   3.006   1.023
 2218SOL    HW1  949   2.552   3.023   1.083
 2218SOL    HW2  950   2.664   3.093   0.987
 2219SOL     OW  951   2.712   2.660   1.823
 2219SOL    HW1  952   2.708   2.736   1.888
 2219SOL    HW2  953   2.734   2.696   1.732
 2221SOL     OW  954   2.548   3.023   1.803
 2221SOL    HW1  955   2.608   3.102   1.817
 2221SOL    HW2  956   2.462   3.054   1.762
 2222SOL     OW  957   2.197   3.297   1.061
 2222SOL    HW1  958   2.119   3.266   1.008
 2222SOL    HW2  959   2.255   3.355   1.004
 2223SOL     OW  960   3.322   3.367   1.339
 2223SOL    HW1  961   3.346   3.461   1.365
 2223SOL    HW2  962   3.306   3.313   1.421
 2224SOL     OW  963   2.300   2.254   1.499
 2224SOL    HW1  964   2.382   2.198   1.508
 2224SOL    HW2  965   2.219   2.196   1.503
 2227SOL     OW  966   2.989   3.203   1.690
 2227SOL    HW1  967   3.036   3.203   1.778
 2227SOL    HW2  968   2.941   3.116   1.679
 2229SOL     OW  969   2.102   2.953   0.886
 2229SOL    HW1  970   2.116   2.869   0.938
 2229SOL    HW2  971   2.047   3.017   0.941
 2230SOL     OW  972   2.482   3.648   1.439
 2230SOL    HW1  973   2.390   3.631   1.474
 2230SOL    HW2  974   2.510   3.740   1.465
 2232SOL     OW  975   3.456   1.976   1.480
 2232SOL    HW1  976   3.438   2.043   1.408
 2232SOL    HW2  977   3.453   2.022   1.569
 2238SOL     OW  978   1.975   2.599   1.597
 2238SOL    HW1  979   2.063   2.586   1.642
 2238SOL    HW2  980   1.962   2.696   1.575
 2240SOL     OW  981   3.155   3.090   1.423
 2240SOL    HW1  982   3.192   3.017   1.365
 2240SOL    HW2  983   3.207   3.095   1.508
 2242SOL     OW  984   2.059   2.838   1.264
 2242SOL    HW1  985   2.148   2.793   1.250
 2242SOL    HW2  986   1.986   2.773   1.245
 2244SOL     OW  987   3.049   3.654   1.616
 2244SOL    HW1  988   3.073   3.714   1.540
 2244SOL    HW2  989   3.056   3.559   1.586
 2245SOL     OW  990   2.179   2.113   1.801
 2245SOL    HW1  991   2.250   2.184   1.807
 2245SOL    HW2  992   2.091   2.152   1.829
 2249SOL     OW  993   3.143   2.207   0.944
 2249SOL    HW1  994   3.057   2.157   0.931
 2249SOL    HW2  995   3.205   2.153   1.000
 2251SOL     OW  996   2.669   2.467   1.465
 2251SOL    HW1  997   2.622   2.464   1.554
 2251SOL    HW2  998   2.618   2.412   1.399
 2252SOL     OW  999   3.256   2.331   1.674
 2252SOL    HW1 1000   3.236   2.374   1.762
 2252SOL    HW2 1001   3.334   2.269   1.683
 2253SOL     OW 1002   2.835   2.752   1.572
 2253SOL    HW1 1003   2.881   2.668   1.543
 2253SOL    HW2 1004   2.779   2.786   1.497
 2254SOL     OW 1005   2.853   2.272   1.242
 2254SOL    HW1 1006   2.776   2.306   1.296
 2254SOL    HW2 1007   2.819   2.221   1.163
 2257SOL     OW 1008   1.992   3.683   1.571
 2257SOL    HW1 1009   1.982   3.668   1.670
 2257SOL    HW2 1010   1.906   3.719   1.535
 2259SOL     OW 1011   3.581   2.447   1.831
 2259SOL    HW1 1012   3.555   2.536   1.795
 2259SOL    HW2 1013   3.579   2.379   1.758
 2261SOL     OW 1014   2.412   2.058   0.885
 2261SOL    HW1 1015   2.407   2.053   0.985
 2261SOL    HW2 1016   2.414   2.154   0.856
 2265SOL     OW 1017   3.089   3.412   1.506
 2265SOL    HW1 1018   3.095   3.335   1.570
 2265SOL    HW2 1019   3.037   3.386   1.426
 2268SOL     OW 1020   2.323   3.128   1.727
 2268SOL    HW1 1021   2.273   3.129   1.641
 2268SOL    HW2 1022   2.260   3.110   1.803
 2270SOL     OW 1023   2.064   2.147   1.498
 2270SOL    HW1 1024   1.984   2.207   1.485
 2270SOL    HW2 1025   2.054   2.098   1.584
 2274SOL     OW 1026   2.111   3.647   1.241
 2274SOL    HW1 1027   2.168   3.582   1.291
 2274SOL    HW2 1028   2.095   3.614   1.148
 2277SOL     OW 1029   3.409   2.084   1.729
 2277SOL    HW1 1030   3.404   2.121   1.821
 2277SOL    HW2 1031   3.337   2.015   1.717
 2278SOL     OW 1032   2.643   2.126   1.749
 2278SOL    HW1 1033   2.710   2.065   1.792
 2278SOL    HW2 1034   2.570   2.145   1.814
 2279SOL     OW 1035   2.750   3.376   1.195
 2279SOL    HW1 1036   2.727   3.351   1.101
 2279SOL    HW2 1037   2.811   3.307   1.234
 2280SOL     OW 1038   3.213   2.452   1.433
 2280SOL    HW1 1039   3.241   2.409   1.518
 2280SOL    HW2 1040   3.238   2.548   1.434
 2281SOL     OW 1041   2.665   3.264   0.924
 2281SOL    HW1 1042   2.755   3.278   0.882
 2281SOL    HW2 1043   2.594   3.266   0.853
 2282SOL     OW 1044   2.784   2.365   0.899
 2282SOL    HW1 1045   2.759   2.356   0.803
 2282SOL    HW2 1046   2.832   2.283   0.930
 2286SOL     OW 1047   2.938   2.545   1.464
 2286SOL    HW1 1048   2.858   2.484   1.467
 2286SOL    HW2 1049   3.019   2.492   1.440
 2291SOL     OW 1050   1.940   2.418   1.386
 2291SOL    HW1 1051   2.032   2.417   1.345
 2291SOL    HW2 1052   1.934   2.492   1.453
 2292SOL     OW 1053   2.423   2.084   1.147
 2292SOL    HW1 1054   2.461   2.000   1.184
 2292SOL    HW2 1055   2.335   2.103   1.191
 2296SOL     OW 1056   3.328   2.452   0.992
 2296SOL    HW1 1057   3.298   2.357   0.999
 2296SOL    HW2 1058   3.401   2.468   1.058
 2302SOL     OW 1059   3.616   3.085   1.588
 2302SOL    HW1 1060   3.707   3.046   1.575
 2302SOL    HW2 1061   3.624   3.181   1.612
 2303SOL     OW 1062   2.926   3.209   1.340
 2303SOL    HW1 1063   2.846   3.186   1.395
 2303SOL    HW2 1064   3.009   3.183   1.389
 2304SOL     OW 1065   3.454   3.491   1.625
 2304SOL    HW1 1066   3.481   3.525   1.535
 2304SOL    HW2 1067   3.533   3.453   1.671
 2305SOL     OW 1068   2.973   3.057   1.100
 2305SOL    HW1 1069   2.933   3.101   1.181
 2305SOL    HW2 1070   2.932   3.094   1.017
 2307SOL     OW 1071   2.777   1.951   1.402
 2307SOL    HW1 1072   2.802   1.931   1.307
 2307SOL    HW2 1073   2.849   2.007   1.444
 2308SOL     OW 1074   2.842   2.978   1.719
 2308SOL    HW1 1075   2.743   2.984   1.729
 2308SOL    HW2 1076   2.865   2.898   1.663
 2310SOL     OW 1077   2.272   2.675   1.251
 2310SOL    HW1 1078   2.358   2.687   1.301
 2310SOL    HW2 1079   2.230   2.588   1.278
 2311SOL     OW 1080   3.136   2.248   1.262
 2311SOL    HW1 1081   3.157   2.322   1.326
 2311SOL    HW2 1082   3.047   2.265   1.219
 2312SOL     OW 1083   1.926   3.426   1.331
 2312SOL    HW1 1084   1.880   3.508   1.297
 2312SOL    HW2 1085   2.024   3.445   1.340
 2314SOL     OW 1086   2.428   2.399   0.865
 2314SOL    HW1 1087   2.440   2.465   0.791
 2314SOL    HW2 1088   2.474   2.433   0.948
 2316SOL     OW 1089   3.134   3.307   1.142
 2316SOL    HW1 1090   3.181   3.320   1.229
 2316SOL    HW2 1091   3.068   3.233   1.151
 2318SOL     OW 1092   2.216   3.372   1.329
 2318SOL    HW1 1093   2.195   3.328   1.242
 2318SOL    HW2 1094   2.313   3.398   1.332
 2319SOL     OW 1095   2.264   2.613   1.598
 2319SOL    HW1 1096   2.332   2.668   1.551
 2319SOL    HW2 1097   2.304   2.525   1.625
 2320SOL     OW 1098   3.449   2.641   1.670
 2320SOL    HW1 1099   3.357   2.679   1.665
 2320SOL    HW2 1100   3.509   2.688   1.605
 2321SOL     OW 1101   2.875   1.967   1.770
 2321SOL    HW1 1102   2.881   2.052   1.718
 2321SOL    HW2 1103   2.907   1.891   1.713
 2322SOL     OW 1104   2.366   1.912   1.740
 2322SOL    HW1 1105   2.324   1.855   1.670
 2322SOL    HW2 1106   2.300   1.981   1.772
 2323SOL     OW 1107   2.435   2.732   1.029
 2323SOL    HW1 1108   2.479   2.821   1.020
 2323SOL    HW2 1109   2.372   2.732   1.106
 2324SOL     OW 1110   3.222   2.724   1.045
 2324SOL    HW1 1111   3.147   2.724   0.979
 2324SOL    HW2 1112   3.259   2.632   1.054
 2326SOL     OW 1113   2.169   2.075   1.231
 2326SOL    HW1 1114   2.146   2.112   1.321
 2326SOL    HW2 1115   2.139   1.980   1.225
 2327SOL     OW 1116   1.899   3.172   1.282
 2327SOL    HW1 1117   1.952   3.123   1.350
 2327SOL    HW2 1118   1.921   3.270   1.287
 2328SOL     OW 1119   2.594   2.496   1.064
 2328SOL    HW1 1120   2.653   2.470   0.988
 2328SOL    HW2 1121   2.566   2.592   1.053
 2329SOL     OW 1122   3.590   2.797   1.854
 2329SOL    HW1 1123   3.544   2.790   1.765
 2329SOL    HW2 1124   3.528   2.841   1.920
 2332SOL     OW 1125   2.885   2.628   0.966
 2332SOL    HW1 1126   2.900   2.649   1.062
 2332SOL    HW2 1127   2.855   2.533   0.957
 2333SOL     OW 1128   2.842   3.435   1.700
 2333SOL    HW1 1129   2.822   3.479   1.612
 2333SOL    HW2 1130   2.881   3.344   1.684
 2334SOL     OW 1131   3.721   3.380   1.605
 2334SOL    HW1 1132   3.735   3.407   1.510
 2334SOL    HW2 1133   3.804   3.402   1.658
 2335SOL     OW 1134   2.212   2.760   1.804
 2335SOL    HW1 1135   2.288   2.804   1.852
 2335SOL    HW2 1136   2.247   2.713   1.722
 2339SOL     OW 1137   2.181   2.672   0.949
 2339SOL    HW1 1138   2.274   2.708   0.954
 2339SOL    HW2 1139   2.175   2.587   1.001
 2340SOL     OW 1140   2.201   2.371   1.006
 2340SOL    HW1 1141   2.149   2.288   0.989
 2340SOL    HW2 1142   2.278   2.376   0.942
 2341SOL     OW 1143   3.000   2.242   1.678
 2341SOL    HW1 1144   2.955   2.305   1.742
 2341SOL    HW2 1145   3.093   2.273   1.661
 2342SOL     OW 1146   3.022   2.069   1.477
 2342SOL    HW1 1147   3.022   2.133   1.554
 2342SOL    HW2 1148   3.050   2.117   1.394
 2345SOL     OW 1149   2.864   2.658   1.238
 2345SOL    HW1 1150   2.905   2.626   1.324
 2345SOL    HW2 1151   2.768   2.631   1.235
 2346SOL     OW 1152   1.902   2.406   1.114
 2346SOL    HW1 1153   1.987   2.373   1.073
 2346SOL    HW2 1154   1.915   2.421   1.212
 2347SOL     OW 1155   2.051   2.382   1.722
 2347SOL    HW1 1156   2.110   2.342   1.652
 2347SOL    HW2 1157   1.993   2.453   1.681
 2348SOL     OW 1158   3.231   2.812   1.660
 2348SOL    HW1 1159   3.270   2.901   1.680
 2348SOL    HW2 1160   3.241   2.792   1.563
 2350SOL     OW 1161   3.519   2.466   1.206
 2350SOL    HW1 1162   3.481   2.397   1.268
 2350SOL    HW2 1163   3.601   2.430   1.162
 2351SOL     OW 1164   2.114   3.426   1.744
 2351SOL    HW1 1165   2.084   3.483   1.820
 2351SOL    HW2 1166   2.107   3.329   1.770
 2352SOL     OW 1167   2.533   2.326   1.269
 2352SOL    HW1 1168   2.499   2.237   1.239
 2352SOL    HW2 1169   2.559   2.380   1.189
 2353SOL     OW 1170   2.792   3.540   1.465
 2353SOL    HW1 1171   2.768   3.522   1.370
 2353SOL    HW2 1172   2.822   3.634   1.475
 2355SOL     OW 1173   2.021   2.999   1.466
 2355SOL    HW1 1174   2.043   2.938   1.542
 2355SOL    HW2 1175   2.031   2.950   1.380
 2356SOL     OW 1176   3.209   2.921   1.234
 2356SOL    HW1 1177   3.233   2.858   1.160
 2356SOL    HW2 1178   3.119   2.961   1.216
 2360SOL     OW 1179   1.945   3.120   1.022
 2360SOL    HW1 1180   1.940   3.119   1.122
 2360SOL    HW2 1181   1.862   3.079   0.984
 2361SOL     OW 1182   2.550   3.524   1.716
 2361SOL    HW1 1183   2.494   3.605   1.725
 2361SOL    HW2 1184   2.602   3.528   1.630
 2365SOL     OW 1185   1.992   3.656   1.851
 2365SOL    HW1 1186   1.951   3.582   1.904
 2365SOL    HW2 1187   2.056   3.707   1.909
 2367SOL     OW 1188   2.692   3.135   1.422
 2367SOL    HW1 1189   2.687   3.168   1.517
 2367SOL    HW2 1190   2.606   3.154   1.376
 2373SOL     OW 1191   2.684   2.864   1.372
 2373SOL    HW1 1192   2.724   2.863   1.280
 2373SOL    HW2 1193   2.694   2.956   1.412
 2376SOL     OW 1194   2.234   3.150   1.490
 2376SOL    HW1 1195   2.221   3.243   1.456
 2376SOL    HW2 1196   2.150   3.098   1.477
 2377SOL     OW 1197   3.476   3.154   1.289
 2377SOL    HW1 1198   3.536   3.157   1.369
 2377SOL    HW2 1199   3.401   3.218   1.302
 2379SOL     OW 1200   2.876   2.098   0.971
 2379SOL    HW1 1201   2.868   2.062   0.878
 2379SOL    HW2 1202   2.874   2.022   1.036
 2381SOL     OW 1203   3.571   2.247   1.381
 2381SOL    HW1 1204   3.644   2.316   1.385
 2381SOL    HW2 1205   3.599   2.172   1.322
 2383SOL     OW 1206   1.967   2.875   1.726
 2383SOL    HW1 1207   1.890   2.842   1.780
 2383SOL    HW2 1208   2.052   2.845   1.768
 2384SOL     OW 1209   2.534   2.065   1.489
 2384SOL    HW1 1210   2.624   2.049   1.449
 2384SOL    HW2 1211   2.542   2.070   1.588
 2386SOL     OW 1212   3.302   2.718   1.398
 2386SOL    HW1 1213   3.245   2.770   1.335
 2386SOL    HW2 1214   3.398   2.730   1.374
 2389SOL     OW 1215   2.475   2.704   1.431
 2389SOL    HW1 1216   2.531   2.785   1.414
 2389SOL    HW2 1217   2.534   2.624   1.434
 2391SOL     OW 1218   2.578   2.427   1.708
 2391SOL    HW1 1219   2.597   2.492   1.782
 2391SOL    HW2 1220   2.638   2.347   1.717
 2392SOL     OW 1221   3.312   3.082   1.633
 2392SOL    HW1 1222   3.303   3.072   1.732
 2392SOL    HW2 1223   3.408   3.075   1.607
 2393SOL     OW 1224   2.252   3.603   1.560
 2393SOL    HW1 1225   2.161   3.644   1.558
 2393SOL    HW2 1226   2.245   3.509   1.592
 2394SOL     OW 1227   3.536   2.745   1.254
 2394SOL    HW1 1228   3.509   2.656   1.217
 2394SOL    HW2 1229   3.537   2.813   1.181
 2397SOL     OW 1230   3.639   2.204   1.642
 2397SOL    HW1 1231   3.622   2.235   1.548
 2397SOL    HW2 1232   3.555   2.167   1.680
 2398SOL     OW 1233   3.592   2.796   1.517
 2398SOL    HW1 1234   3.630   2.887   1.532
 2398SOL    HW2 1235   3.584   2.779   1.418
 2401SOL     OW 1236   2.721   2.818   0.861
 2401SOL    HW1 1237   2.775   2.749   0.909
 2401SOL    HW2 1238   2.689   2.887   0.927
 2404SOL     OW 1239   2.083   3.176   1.844
 2404SOL    HW1 1240   2.018   3.103   1.823
 2404SOL    HW2 1241   2.087   3.190   1.942
 2406SOL     OW 1242   2.534   3.253   1.624
 2406SOL    HW1 1243   2.456   3.203   1.662
 2406SOL    HW2 1244   2.531   3.348   1.655
 2410SOL     OW 1245   2.179   2.409   1.280
 2410SOL    HW1 1246   2.217   2.350   1.352
 2410SOL    HW2 1247   2.219   2.383   1.192
 2412SOL     OW 1248   3.286   2.076   1.112
 2412SOL    HW1 1249   3.338   2.011   1.167
 2412SOL    HW2 1250   3.237   2.139   1.173
 2413SOL     OW 1251   2.863   1.896   1.154
 2413SOL    HW1 1252   2.800   1.824   1.123
 2413SOL    HW2 1253   2.956   1.860   1.154
 2415SOL     OW 1254   2.480   3.429   1.284
 2415SOL    HW1 1255   2.475   3.511   1.341
 2415SOL    HW2 1256   2.569   3.426   1.239
 2421SOL     OW 1257   2.092   2.490   1.975
 2421SOL    HW1 1258   1.999   2.488   2.012
 2421SOL    HW2 1259   2.093   2.451   1.883
 2422SOL     OW 1260   2.087   2.137   2.858
 2422SOL    HW1 1261   2.122   2.120   2.950
 2422SOL    HW2 1262   1.999   2.092   2.846
 2423SOL     OW 1263   1.881   2.230   2.509
 2423SOL    HW1 1264   1.799   2.273   2.548
 2423SOL    HW2 1265   1.853   2.157   2.446
 2424SOL     OW 1266   2.431   3.137   3.027
 2424SOL    HW1 1267   2.338   3.130   2.990
 2424SOL    HW2 1268   2.442   3.226   3.071
 2425SOL     OW 1269   3.417   3.373   2.565
 2425SOL    HW1 1270   3.360   3.357   2.646
 2425SOL    HW2 1271   3.358   3.383   2.485
 2426SOL     OW 1272   2.997   2.565   2.579
 2426SOL    HW1 1273   3.054   2.643   2.554
 2426SOL    HW2 1274   2.937   2.591   2.655
 2427SOL     OW 1275   3.617   2.469   2.093
 2427SOL    HW1 1276   3.605   2.456   1.994
 2427SOL    HW2 1277   3.587   2.388   2.142
 2428SOL     OW 1278   2.630   3.006   2.885
 2428SOL    HW1 1279   2.552   3.023   2.945
 2428SOL    HW2 1280   2.664   3.093   2.849
 2429SOL     OW 1281   2.712   2.660   3.685
 2429SOL    HW1 1282   2.708   2.736   3.750
 2429SOL    HW2 1283   2.734   2.696   3.594
 2430SOL     OW 1284   2.547   2.874   2.527
 2430SOL    HW1 1285   2.616   2.858   2.597
 2430SOL    HW2 1286   2.474   2.931   2.565
 2431SOL     OW 1287   2.548   3.023   3.665
 2431SOL    HW1 1288   2.608   3.102   3.679
 2431SOL    HW2 1289   2.462   3.054   3.624
 2432SOL     OW 1290   2.197   3.297   2.923
 2432SOL    HW1 1291   2.119   3.266   2.870
 2432SOL    HW2 1292   2.255   3.355   2.866
 2433SOL     OW 1293   3.322   3.367   3.201
 2433SOL    HW1 1294   3.346   3.461   3.227
 2433SOL    HW2 1295   3.306   3.313   3.283
 2434SOL     OW 1296   2.300   2.254   3.361
 2434SOL    HW1 1297   2.382   2.198   3.370
 2434SOL    HW2 1298   2.219   2.196   3.365
 2435SOL     OW 1299   3.465   2.309   2.599
 2435SOL    HW1 1300   3.391   2.355   2.549
 2435SOL    HW2 1301   3.516   2.377   2.652
 2436SOL     OW 1302   2.093   3.575   2.345
 2436SOL    HW1 1303   2.127   3.652   2.399
 2436SOL    HW2 1304   2.137   3.575   2.255
 2437SOL     OW 1305   2.989   3.203   3.552
 2437SOL    HW1 1306   3.036   3.203   3.640
 2437SOL    HW2 1307   2.941   3.116   3.541
 2438SOL     OW 1308   2.092   3.296   2.400
 2438SOL    HW1 1309   2.066   3.392   2.400
 2438SOL    HW2 1310   2.021   3.242   2.445
 2439SOL     OW 1311   2.102   2.953   2.748
 2439SOL    HW1 1312   2.116   2.869   2.800
 2439SOL    HW2 1313   2.047   3.017   2.803
 2440SOL     OW 1314   2.482   3.648   3.301
 2440SOL    HW1 1315   2.390   3.631   3.336
 2440SOL    HW2 1316   2.510   3.740   3.327
 2441SOL     OW 1317   2.468   2.826   1.985
 2441SOL    HW1 1318   2.475   2.910   1.931
 2441SOL    HW2 1319   2.514   2.839   2.073
 2442SOL     OW 1320   3.456   1.976   3.342
 2442SOL    HW1 1321   3.438   2.043   3.270
 2442SOL    HW2 1322   3.453   2.022   3.431
 2443SOL     OW 1323   1.984   2.505   2.425
 2443SOL    HW1 1324   1.939   2.417   2.442
 2443SOL    HW2 1325   1.983   2.559   2.509
 2444SOL     OW 1326   3.704   3.629   2.221
 2444SOL    HW1 1327   3.758   3.600   2.301
 2444SOL    HW2 1328   3.734   3.719   2.192
 2445SOL     OW 1329   1.889   3.458   1.979
 2445SOL    HW1 1330   1.870   3.362   2.000
 2445SOL    HW2 1331   1.856   3.516   2.054
 2446SOL     OW 1332   3.551   2.784   2.474
 2446SOL    HW1 1333   3.646   2.755   2.482
 2446SOL    HW2 1334   3.543   2.849   2.399
 2447SOL     OW 1335   3.503   2.970   2.294
 2447SOL    HW1 1336   3.589   2.972   2.242
 2447SOL    HW2 1337   3.517   3.017   2.382
 2448SOL     OW 1338   1.975   2.599   3.459
 2448SOL    HW1 1339   2.063   2.586   3.504
 2448SOL    HW2 1340   1.962   2.696   3.437
 2449SOL     OW 1341   2.475   3.227   2.588
 2449SOL    HW1 1342   2.426   3.140   2.597
 2449SOL    HW2 1343   2.452   3.270   2.501
 2450SOL     OW 1344   3.155   3.090   3.285
 2450SOL    HW1 1345   3.192   3.017   3.227
 2450SOL    HW2 1346   3.207   3.095   3.370
 2451SOL     OW 1347   2.671   1.866   2.364
 2451SOL    HW1 1348   2.711   1.957   2.355
 2451SOL    HW2 1349   2.571   1.874   2.370
 2452SOL     OW 1350   2.059   2.838   3.126
 2452SOL    HW1 1351   2.148   2.793   3.112
 2452SOL    HW2 1352   1.986   2.773   3.107
 2453SOL     OW 1353   3.387   2.861   2.052
 2453SOL    HW1 1354   3.324   2.785   2.065
 2453SOL    HW2 1355   3.435   2.879   2.138
 2454SOL     OW 1356   3.049   3.654   3.478
 2454SOL    HW1 1357   3.073   3.714   3.402
 2454SOL    HW2 1358   3.056   3.559   3.448
 2455SOL     OW 1359   2.179   2.113   3.663
 2455SOL    HW1 1360   2.250   2.184   3.669
 2455SOL    HW2 1361   2.091   2.152   3.691
 2456SOL     OW 1362   3.328   3.279   2.815
 2456SOL    HW1 1363   3.269   3.285   2.895
 2456SOL    HW2 1364   3.313   3.191   2.769
 2457SOL     OW 1365   3.529   3.576   2.434
 2457SOL    HW1 1366   3.488   3.553   2.346
 2457SOL    HW2 1367   3.511   3.502   2.499
 2458SOL     OW 1368   2.460   2.591   2.132
 2458SOL    HW1 1369   2.484   2.660   2.064
 2458SOL    HW2 1370   2.382   2.624   2.186
 2459SOL     OW 1371   3.143   2.207   2.806
 2459SOL    HW1 1372   3.057   2.157   2.793
 2459SOL    HW2 1373   3.205   2.153   2.862
 2460SOL     OW 1374   3.438   3.524   2.169
 2460SOL    HW1 1375   3.527   3.570   2.172
 2460SOL    HW2 1376   3.417   3.500   2.074
 2461SOL     OW 1377   2.669   2.467   3.327
 2461SOL    HW1 1378   2.622   2.464   3.416
 2461SOL    HW2 1379   2.618   2.412   3.261
 2462SOL     OW 1380   3.256   2.331   3.536
 2462SOL    HW1 1381   3.236   2.374   3.624
 2462SOL    HW2 1382   3.334   2.269   3.545
 2463SOL     OW 1383   2.835   2.752   3.434
 2463SOL    HW1 1384   2.881   2.668   3.405
 2463SOL    HW2 1385   2.779   2.786   3.359
 2464SOL     OW 1386   2.853   2.272   3.104
 2464SOL    HW1 1387   2.776   2.306   3.158
 2464SOL    HW2 1388   2.819   2.221   3.025
 2465SOL     OW 1389   1.938   2.673   2.651
 2465SOL    HW1 1390   2.037   2.661   2.660
 2465SOL    HW2 1391   1.914   2.768   2.672
 2466SOL     OW 1392   1.992   3.683   3.433
 2466SOL    HW1 1393   1.982   3.668   3.532
 2466SOL    HW2 1394   1.906   3.719   3.397
 2467SOL     OW 1395   2.727   2.210   2.057
 2467SOL    HW1 1396   2.786   2.273   2.008
 2467SOL    HW2 1397   2.746   2.116   2.028
 2468SOL     OW 1398   3.581   2.447   3.693
 2468SOL    HW1 1399   3.555   2.536   3.657
 2468SOL    HW2 1400   3.579   2.379   3.620
 2469SOL     OW 1401   3.224   3.006   2.407
 2469SOL    HW1 1402   3.307   2.977   2.359
 2469SOL    HW2 1403   3.175   3.073   2.351
 2470SOL     OW 1404   2.412   2.058   2.747
 2470SOL    HW1 1405   2.407   2.053   2.847
 2470SOL    HW2 1406   2.414   2.154   2.718
 2471SOL     OW 1407   2.870   3.318   2.339
 2471SOL    HW1 1408   2.824   3.390   2.287
 2471SOL    HW2 1409   2.866   3.338   2.437
 2472SOL     OW 1410   2.213   3.663   2.715
 2472SOL    HW1 1411   2.263   3.577   2.721
 2472SOL    HW2 1412   2.278   3.740   2.712
 2473SOL     OW 1413   3.657   2.928   2.735
 2473SOL    HW1 1414   3.595   2.913   2.659
 2473SOL    HW2 1415   3.605   2.939   2.820
 2474SOL     OW 1416   3.089   3.412   3.368
 2474SOL    HW1 1417   3.095   3.335   3.432
 2474SOL    HW2 1418   3.037   3.386   3.288
 2475SOL     OW 1419   2.183   2.805   2.104
 2475SOL    HW1 1420   2.265   2.844   2.062
 2475SOL    HW2 1421   2.156   2.723   2.055
 2476SOL     OW 1422   3.320   2.597   2.590
 2476SOL    HW1 1423   3.315   2.532   2.665
 2476SOL    HW2 1424   3.400   2.656   2.603
 2477SOL     OW 1425   2.323   3.128   3.589
 2477SOL    HW1 1426   2.273   3.129   3.503
 2477SOL    HW2 1427   2.260   3.110   3.665
 2478SOL     OW 1428   2.973   3.638   2.099
 2478SOL    HW1 1429   2.913   3.576   2.149
 2478SOL    HW2 1430   3.004   3.594   2.014
 2479SOL     OW 1431   2.064   2.147   3.360
 2479SOL    HW1 1432   1.984   2.207   3.347
 2479SOL    HW2 1433   2.054   2.098   3.446
 2480SOL     OW 1434   3.494   3.239   1.943
 2480SOL    HW1 1435   3.462   3.333   1.933
 2480SOL    HW2 1436   3.418   3.176   1.931
 2481SOL     OW 1437   2.326   3.605   2.185
 2481SOL    HW1 1438   2.359   3.644   2.271
 2481SOL    HW2 1439   2.402   3.598   2.120
 2482SOL     OW 1440   3.262   1.969   2.288
 2482SOL    HW1 1441   3.238   1.932   2.198
 2482SOL    HW2 1442   3.361   1.985   2.292
 2483SOL     OW 1443   2.111   3.647   3.103
 2483SOL    HW1 1444   2.168   3.582   3.153
 2483SOL    HW2 1445   2.095   3.614   3.010
 2484SOL     OW 1446   2.802   3.560   2.766
 2484SOL    HW1 1447   2.882   3.503   2.787
 2484SOL    HW2 1448   2.753   3.520   2.689
 2485SOL     OW 1449   2.244   2.562   2.342
 2485SOL    HW1 1450   2.289   2.472   2.339
 2485SOL    HW2 1451   2.150   2.551   2.375
 2486SOL     OW 1452   3.409   2.084   3.591
 2486SOL    HW1 1453   3.404   2.121   3.683
 2486SOL    HW2 1454   3.337   2.015   3.579
 2487SOL     OW 1455   2.476   1.984   1.979
 2487SOL    HW1 1456   2.574   1.962   1.986
 2487SOL    HW2 1457   2.445   1.967   1.886
 2488SOL     OW 1458   2.643   2.126   3.611
 2488SOL    HW1 1459   2.710   2.065   3.654
 2488SOL    HW2 1460   2.570   2.145   3.676
 2489SOL     OW 1461   2.750   3.376   3.057
 2489SOL    HW1 1462   2.727   3.351   2.963
 2489SOL    HW2 1463   2.811   3.307   3.096
 2490SOL     OW 1464   3.213   2.452   3.295
 2490SOL    HW1 1465   3.241   2.409   3.380
 2490SOL    HW2 1466   3.238   2.548   3.296
 2491SOL     OW 1467   2.665   3.264   2.786
 2491SOL    HW1 1468   2.755   3.278   2.744
 2491SOL    HW2 1469   2.594   3.266   2.715
 2492SOL     OW 1470   2.784   2.365   2.761
 2492SOL    HW1 1471   2.759   2.356   2.665
 2492SOL    HW2 1472   2.832   2.283   2.792
 2493SOL     OW 1473   2.401   1.926   2.374
 2493SOL    HW1 1474   2.320   1.927   2.432
 2493SOL    HW2 1475   2.404   2.009   2.319
 2494SOL     OW 1476   3.296   3.050   1.903
 2494SOL    HW1 1477   3.328   2.974   1.960
 2494SOL    HW2 1478   3.204   3.077   1.933
 2495SOL     OW 1479   2.159   1.897   2.033
 2495SOL    HW1 1480   2.208   1.981   2.012
 2495SOL    HW2 1481   2.221   1.832   2.078
 2496SOL     OW 1482   2.797   2.098   2.342
 2496SOL    HW1 1483   2.749   2.139   2.264
 2496SOL    HW2 1484   2.896   2.096   2.323
 2497SOL     OW 1485   2.938   2.545   3.326
 2497SOL    HW1 1486   2.858   2.484   3.329
 2497SOL    HW2 1487   3.019   2.492   3.302
 2498SOL     OW 1488   3.089   3.432   2.655
 2498SOL    HW1 1489   3.110   3.506   2.590
 2498SOL    HW2 1490   3.157   3.432   2.728
 2499SOL     OW 1491   2.321   3.014   2.603
 2499SOL    HW1 1492   2.250   2.987   2.668
 2499SOL    HW2 1493   2.295   2.986   2.510
 2500SOL     OW 1494   3.133   3.659   2.453
 2500SOL    HW1 1495   3.177   3.723   2.389
 2500SOL    HW2 1496   3.083   3.711   2.523
 2501SOL     OW 1497   2.894   2.411   1.878
 2501SOL    HW1 1498   2.853   2.493   1.839
 2501SOL    HW2 1499   2.958   2.437   1.951
 2502SOL     OW 1500   1.940   2.418   3.248
 2502SOL    HW1 1501   2.032   2.417   3.207
 2502SOL    HW2 1502   1.934   2.492   3.315
 2503SOL     OW 1503   2.423   2.084   3.009
 2503SOL    HW1 1504   2.461   2.000   3.046
 2503SOL    HW2 1505   2.335   2.103   3.053
 2504SOL     OW 1506   2.879   1.901   2.615
 2504SOL    HW1 1507   2.807   1.906   2.546
 2504SOL    HW2 1508   2.855   1.832   2.684
 2505SOL     OW 1509   3.291   3.035   2.729
 2505SOL    HW1 1510   3.236   2.951   2.722
 2505SOL    HW2 1511   3.317   3.064   2.637
 2506SOL     OW 1512   3.328   2.452   2.854
 2506SOL    HW1 1513   3.298   2.357   2.861
 2506SOL    HW2 1514   3.401   2.468   2.920
 2507SOL     OW 1515   3.719   2.695   2.239
 2507SOL    HW1 1516   3.761   2.631   2.303
 2507SOL    HW2 1517   3.681   2.644   2.161
 2508SOL     OW 1518   2.350   3.247   2.036
 2508SOL    HW1 1519   2.263   3.232   2.083
 2508SOL    HW2 1520   2.333   3.273   1.941
 2509SOL     OW 1521   3.526   3.142   2.519
 2509SOL    HW1 1522   3.625   3.150   2.533
 2509SOL    HW2 1523   3.481   3.226   2.550
 2510SOL     OW 1524   3.252   2.437   1.940
 2510SOL    HW1 1525   3.198   2.416   2.021
 2510SOL    HW2 1526   3.343   2.396   1.949
 2511SOL     OW 1527   2.389   2.118   2.190
 2511SOL    HW1 1528   2.416   2.059   2.115
 2511SOL    HW2 1529   2.389   2.213   2.159
 2512SOL     OW 1530   3.616   3.085   3.450
 2512SOL    HW1 1531   3.707   3.046   3.437
 2512SOL    HW2 1532   3.624   3.181   3.474
 2513SOL     OW 1533   2.926   3.209   3.202
 2513SOL    HW1 1534   2.846   3.186   3.257
 2513SOL    HW2 1535   3.009   3.183   3.251
 2514SOL     OW 1536   3.454   3.491   3.487
 2514SOL    HW1 1537   3.481   3.525   3.397
 2514SOL    HW2 1538   3.533   3.453   3.533
 2515SOL     OW 1539   2.973   3.057   2.962
 2515SOL    HW1 1540   2.933   3.101   3.043
 2515SOL    HW2 1541   2.932   3.094   2.879
 2516SOL     OW 1542   3.500   2.961   2.941
 2516SOL    HW1 1543   3.505   3.042   3.000
 2516SOL    HW2 1544   3.414   2.963   2.890
 2517SOL     OW 1545   2.777   1.951   3.264
 2517SOL    HW1 1546   2.802   1.931   3.169
 2517SOL    HW2 1547   2.849   2.007   3.306
 2518SOL     OW 1548   2.842   2.978   3.581
 2518SOL    HW1 1549   2.743   2.984   3.591
 2518SOL    HW2 1550   2.865   2.898   3.525
 2519SOL     OW 1551   2.567   2.912   2.230
 2519SOL    HW1 1552   2.553   2.919   2.329
 2519SOL    HW2 1553   2.651   2.861   2.212
 2520SOL     OW 1554   3.136   2.248   3.124
 2520SOL    HW1 1555   3.157   2.322   3.188
 2520SOL    HW2 1556   3.047   2.265   3.081
 2521SOL     OW 1557   1.926   3.426   3.193
 2521SOL    HW1 1558   1.880   3.508   3.159
 2521SOL    HW2 1559   2.024   3.445   3.202
 2522SOL     OW 1560   2.229   2.962   2.363
 2522SOL    HW1 1561   2.222   3.045   2.307
 2522SOL    HW2 1562   2.233   2.882   2.303
 2523SOL     OW 1563   3.114   3.210   2.250
 2523SOL    HW1 1564   3.164   3.287   2.290
 2523SOL    HW2 1565   3.019   3.212   2.282
 2524SOL     OW 1566   3.134   3.307   3.004
 2524SOL    HW1 1567   3.181   3.320   3.091
 2524SOL    HW2 1568   3.068   3.233   3.013
 2525SOL     OW 1569   3.444   2.501   2.334
 2525SOL    HW1 1570   3.413   2.562   2.407
 2525SOL    HW2 1571   3.494   2.553   2.265
 2526SOL     OW 1572   2.216   3.372   3.191
 2526SOL    HW1 1573   2.195   3.328   3.104
 2526SOL    HW2 1574   2.313   3.398   3.194
 2527SOL     OW 1575   2.264   2.613   3.460
 2527SOL    HW1 1576   2.332   2.668   3.413
 2527SOL    HW2 1577   2.304   2.525   3.487
 2528SOL     OW 1578   3.449   2.641   3.532
 2528SOL    HW1 1579   3.357   2.679   3.527
 2528SOL    HW2 1580   3.509   2.688   3.467
 2529SOL     OW 1581   2.875   1.967   3.632
 2529SOL    HW1 1582   2.881   2.052   3.580
 2529SOL    HW2 1583   2.907   1.891   3.575
 2530SOL     OW 1584   2.366   1.912   3.602
 2530SOL    HW1 1585   2.324   1.855   3.532
 2530SOL    HW2 1586   2.300   1.981   3.634
 2531SOL     OW 1587   3.222   2.724   2.907
 2531SOL    HW1 1588   3.147   2.724   2.841
 2531SOL    HW2 1589   3.259   2.632   2.916
 2532SOL     OW 1590   2.169   2.075   3.093
 2532SOL    HW1 1591   2.146   2.112   3.183
 2532SOL    HW2 1592   2.139   1.980   3.087
 2533SOL     OW 1593   1.899   3.172   3.144
 2533SOL    HW1 1594   1.952   3.123   3.212
 2533SOL    HW2 1595   1.921   3.270   3.149
 2534SOL     OW 1596   3.590   2.797   3.716
 2534SOL    HW1 1597   3.544   2.790   3.627
 2534SOL    HW2 1598   3.528   2.841   3.782
 2535SOL     OW 1599   2.169   1.925   2.480
 2535SOL    HW1 1600   2.158   2.019   2.513
 2535SOL    HW2 1601   2.164   1.862   2.557
 2536SOL     OW 1602   3.484   2.229   2.236
 2536SOL    HW1 1603   3.486   2.153   2.300
 2536SOL    HW2 1604   3.436   2.306   2.276
 2537SOL     OW 1605   2.885   2.628   2.828
 2537SOL    HW1 1606   2.900   2.649   2.924
 2537SOL    HW2 1607   2.855   2.533   2.819
 2538SOL     OW 1608   2.842   3.435   3.562
 2538SOL    HW1 1609   2.822   3.479   3.474
 2538SOL    HW2 1610   2.881   3.344   3.546
 2539SOL     OW 1611   3.721   3.380   3.467
 2539SOL    HW1 1612   3.735   3.407   3.372
 2539SOL    HW2 1613   3.804   3.402   3.520
 2540SOL     OW 1614   2.212   2.760   3.666
 2540SOL    HW1 1615   2.288   2.804   3.714
 2540SOL    HW2 1616   2.247   2.713   3.584
 2541SOL     OW 1617   3.402   2.136   1.987
 2541SOL    HW1 1618   3.341   2.061   2.010
 2541SOL    HW2 1619   3.424   2.188   2.070
 2542SOL     OW 1620   3.165   2.700   1.904
 2542SOL    HW1 1621   3.199   2.607   1.919
 2542SOL    HW2 1622   3.183   2.727   1.809
 2543SOL     OW 1623   2.930   3.195   2.711
 2543SOL    HW1 1624   2.937   3.111   2.656
 2543SOL    HW2 1625   2.992   3.264   2.675
 2544SOL     OW 1626   2.201   2.371   2.868
 2544SOL    HW1 1627   2.149   2.288   2.851
 2544SOL    HW2 1628   2.278   2.376   2.804
 2545SOL     OW 1629   3.000   2.242   3.540
 2545SOL    HW1 1630   2.955   2.305   3.604
 2545SOL    HW2 1631   3.093   2.273   3.523
 2546SOL     OW 1632   3.022   2.069   3.339
 2546SOL    HW1 1633   3.022   2.133   3.416
 2546SOL    HW2 1634   3.050   2.117   3.256
 2547SOL     OW 1635   1.870   3.188   2.062
 2547SOL    HW1 1636   1.777   3.209   2.031
 2547SOL    HW2 1637   1.880   3.089   2.075
 2548SOL     OW 1638   1.950   3.663   2.789
 2548SOL    HW1 1639   1.908   3.577   2.762
 2548SOL    HW2 1640   2.044   3.666   2.755
 2549SOL     OW 1641   2.366   3.430   2.772
 2549SOL    HW1 1642   2.432   3.504   2.781
 2549SOL    HW2 1643   2.410   3.351   2.730
 2550SOL     OW 1644   2.864   2.658   3.100
 2550SOL    HW1 1645   2.905   2.626   3.186
 2550SOL    HW2 1646   2.768   2.631   3.097
 2551SOL     OW 1647   1.902   2.406   2.976
 2551SOL    HW1 1648   1.987   2.373   2.935
 2551SOL    HW2 1649   1.915   2.421   3.074
 2552SOL     OW 1650   2.051   2.382   3.584
 2552SOL    HW1 1651   2.110   2.342   3.514
 2552SOL    HW2 1652   1.993   2.453   3.543
 2553SOL     OW 1653   3.231   2.812   3.522
 2553SOL    HW1 1654   3.270   2.901   3.542
 2553SOL    HW2 1655   3.241   2.792   3.425
 2554SOL     OW 1656   3.519   2.466   3.068
 2554SOL    HW1 1657   3.481   2.397   3.130
 2554SOL    HW2 1658   3.601   2.430   3.024
 2555SOL     OW 1659   2.114   3.426   3.606
 2555SOL    HW1 1660   2.084   3.483   3.682
 2555SOL    HW2 1661   2.107   3.329   3.632
 2556SOL     OW 1662   2.533   2.326   3.131
 2556SOL    HW1 1663   2.499   2.237   3.101
 2556SOL    HW2 1664   2.559   2.380   3.051
 2557SOL     OW 1665   2.792   3.540   3.327
 2557SOL    HW1 1666   2.768   3.522   3.232
 2557SOL    HW2 1667   2.822   3.634   3.337
 2558SOL     OW 1668   2.335   2.362   2.053
 2558SOL    HW1 1669   2.396   2.442   2.057
 2558SOL    HW2 1670   2.240   2.393   2.060
 2559SOL     OW 1671   2.021   2.999   3.328
 2559SOL    HW1 1672   2.043   2.938   3.404
 2559SOL    HW2 1673   2.031   2.950   3.242
 2560SOL     OW 1674   3.209   2.921   3.096
 2560SOL    HW1 1675   3.233   2.858   3.022
 2560SOL    HW2 1676   3.119   2.961   3.078
 2561SOL     OW 1677   3.164   2.717   2.171
 2561SOL    HW1 1678   3.078   2.686   2.213
 2561SOL    HW2 1679   3.160   2.703   2.072
 2562SOL     OW 1680   3.621   3.609   3.016
 2562SOL    HW1 1681   3.682   3.639   2.943
 2562SOL    HW2 1682   3.583   3.520   2.994
 2563SOL     OW 1683   3.114   3.593   2.990
 2563SOL    HW1 1684   3.198   3.598   2.936
 2563SOL    HW2 1685   3.091   3.497   3.008
 2564SOL     OW 1686   1.945   3.120   2.884
 2564SOL    HW1 1687   1.940   3.119   2.984
 2564SOL    HW2 1688   1.862   3.079   2.846
 2565SOL     OW 1689   2.550   3.524   3.578
 2565SOL    HW1 1690   2.494   3.605   3.587
 2565SOL    HW2 1691   2.602   3.528   3.492
 2566SOL     OW 1692   3.588   1.997   2.385
 2566SOL    HW1 1693   3.661   1.980   2.318
 2566SOL    HW2 1694   3.557   1.910   2.423
 2567SOL     OW 1695   3.250   3.435   2.339
 2567SOL    HW1 1696   3.317   3.447   2.265
 2567SOL    HW2 1697   3.210   3.524   2.362
 2568SOL     OW 1698   1.992   3.656   3.713
 2568SOL    HW1 1699   1.951   3.582   3.766
 2568SOL    HW2 1700   2.056   3.707   3.771
 2569SOL     OW 1701   3.142   2.789   2.534
 2569SOL    HW1 1702   3.202   2.708   2.536
 2569SOL    HW2 1703   3.182   2.858   2.474
 2570SOL     OW 1704   2.692   3.135   3.284
 2570SOL    HW1 1705   2.687   3.168   3.379
 2570SOL    HW2 1706   2.606   3.154   3.238
 2571SOL     OW 1707   2.534   3.478   2.016
 2571SOL    HW1 1708   2.543   3.488   1.917
 2571SOL    HW2 1709   2.494   3.389   2.037
 2572SOL     OW 1710   3.512   3.582   3.256
 2572SOL    HW1 1711   3.565   3.592   3.172
 2572SOL    HW2 1712   3.485   3.672   3.290
 2573SOL     OW 1713   3.703   2.037   2.825
 2573SOL    HW1 1714   3.742   1.952   2.789
 2573SOL    HW2 1715   3.605   2.039   2.806
 2574SOL     OW 1716   2.125   2.188   2.582
 2574SOL    HW1 1717   2.046   2.239   2.548
 2574SOL    HW2 1718   2.116   2.173   2.680
 2575SOL     OW 1719   3.056   3.474   1.893
 2575SOL    HW1 1720   3.062   3.381   1.930
 2575SOL    HW2 1721   2.997   3.474   1.813
 2576SOL     OW 1722   2.684   2.864   3.234
 2576SOL    HW1 1723   2.724   2.863   3.142
 2576SOL    HW2 1724   2.694   2.956   3.274
 2577SOL     OW 1725   3.366   3.469   1.906
 2577SOL    HW1 1726   3.274   3.506   1.913
 2577SOL    HW2 1727   3.404   3.489   1.816
 2578SOL     OW 1728   2.234   3.150   3.352
 2578SOL    HW1 1729   2.221   3.243   3.318
 2578SOL    HW2 1730   2.150   3.098   3.339
 2579SOL     OW 1731   3.476   3.154   3.151
 2579SOL    HW1 1732   3.536   3.157   3.231
 2579SOL    HW2 1733   3.401   3.218   3.164
 2580SOL     OW 1734   2.901   2.960   2.558
 2580SOL    HW1 1735   2.831   2.913   2.612
 2580SOL    HW2 1736   2.960   2.892   2.515
 2581SOL     OW 1737   2.876   2.098   2.833
 2581SOL    HW1 1738   2.868   2.062   2.740
 2581SOL    HW2 1739   2.874   2.022   2.898
 2582SOL     OW 1740   2.452   3.349   2.353
 2582SOL    HW1 1741   2.494   3.291   2.283
 2582SOL    HW2 1742   2.408   3.428   2.309
 2583SOL     OW 1743   3.571   2.247   3.243
 2583SOL    HW1 1744   3.644   2.316   3.247
 2583SOL    HW2 1745   3.599   2.172   3.184
 2584SOL     OW 1746   2.117   3.210   2.152
 2584SOL    HW1 1747   2.021   3.211   2.125
 2584SOL    HW2 1748   2.129   3.263   2.236
 2585SOL     OW 1749   1.967   2.875   3.588
 2585SOL    HW1 1750   1.890   2.842   3.642
 2585SOL    HW2 1751   2.052   2.845   3.630
 2586SOL     OW 1752   2.534   2.065   3.351
 2586SOL    HW1 1753   2.624   2.049   3.311
 2586SOL    HW2 1754   2.542   2.070   3.450
 2587SOL     OW 1755   1.937   2.207   1.895
 2587SOL    HW1 1756   1.845   2.179   1.866
 2587SOL    HW2 1757   1.968   2.284   1.839
 2588SOL     OW 1758   3.302   2.718   3.260
 2588SOL    HW1 1759   3.245   2.770   3.197
 2588SOL    HW2 1760   3.398   2.730   3.236
 2589SOL     OW 1761   1.934   2.028   2.180
 2589SOL    HW1 1762   1.917   2.111   2.126
 2589SOL    HW2 1763   2.024   1.991   2.158
 2590SOL     OW 1764   3.045   3.197   1.981
 2590SOL    HW1 1765   2.946   3.186   1.983
 2590SOL    HW2 1766   3.079   3.212   2.074
 2591SOL     OW 1767   2.475   2.704   3.293
 2591SOL    HW1 1768   2.531   2.785   3.276
 2591SOL    HW2 1769   2.534   2.624   3.296
 2592SOL     OW 1770   3.355   3.629   2.821
 2592SOL    HW1 1771   3.388   3.693   2.752
 2592SOL    HW2 1772   3.421   3.623   2.896
 2593SOL     OW 1773   2.578   2.427   3.570
 2593SOL    HW1 1774   2.597   2.492   3.644
 2593SOL    HW2 1775   2.638   2.347   3.579
 2594SOL     OW 1776   3.312   3.082   3.495
 2594SOL    HW1 1777   3.303   3.072   3.594
 2594SOL    HW2 1778   3.408   3.075   3.469
 2595SOL     OW 1779   2.252   3.603   3.422
 2595SOL    HW1 1780   2.161   3.644   3.420
 2595SOL    HW2 1781   2.245   3.509   3.454
 2596SOL     OW 1782   3.536   2.745   3.116
 2596SOL    HW1 1783   3.509   2.656   3.079
 2596SOL    HW2 1784   3.537   2.813   3.043
 2597SOL     OW 1785   3.087   2.187   2.311
 2597SOL    HW1 1786   3.152   2.113   2.300
 2597SOL    HW2 1787   3.107   2.237   2.395
 2598SOL     OW 1788   3.639   2.204   3.504
 2598SOL    HW1 1789   3.622   2.235   3.410
 2598SOL    HW2 1790   3.555   2.167   3.542
 2599SOL     OW 1791   3.592   2.796   3.379
 2599SOL    HW1 1792   3.630   2.887   3.394
 2599SOL    HW2 1793   3.584   2.779   3.280
 2600SOL     OW 1794   2.721   3.236   1.878
 2600SOL    HW1 1795   2.675   3.251   1.966
 2600SOL    HW2 1796   2.765   3.321   1.848
 2601SOL     OW 1797   2.523   3.652   2.815
 2601SOL    HW1 1798   2.477   3.740   2.802
 2601SOL    HW2 1799   2.622   3.664   2.808
 2602SOL     OW 1800   2.721   2.818   2.723
 2602SOL    HW1 1801   2.775   2.749   2.771
 2602SOL    HW2 1802   2.689   2.887   2.789
 2603SOL     OW 1803   2.945   2.846   1.949
 2603SOL    HW1 1804   2.922   2.899   1.867
 2603SOL    HW2 1805   3.026   2.790   1.930
 2604SOL     OW 1806   3.723   3.431   2.713
 2604SOL    HW1 1807   3.652   3.419   2.643
 2604SOL    HW2 1808   3.724   3.352   2.773
 2605SOL     OW 1809   2.083   3.176   3.706
 2605SOL    HW1 1810   2.018   3.103   3.685
 2605SOL    HW2 1811   2.087   3.190   3.804
 2606SOL     OW 1812   1.941   3.102   2.515
 2606SOL    HW1 1813   1.940   3.055   2.603
 2606SOL    HW2 1814   2.023   3.074   2.464
 2607SOL     OW 1815   2.534   3.253   3.486
 2607SOL    HW1 1816   2.456   3.203   3.524
 2607SOL    HW2 1817   2.531   3.348   3.517
 2608SOL     OW 1818   3.686   2.054   3.089
 2608SOL    HW1 1819   3.682   1.964   3.133
 2608SOL    HW2 1820   3.689   2.043   2.990
 2609SOL     OW 1821   2.290   2.286   2.382
 2609SOL    HW1 1822   2.320   2.214   2.320
 2609SOL    HW2 1823   2.251   2.246   2.465
 2610SOL     OW 1824   3.567   3.349   2.966
 2610SOL    HW1 1825   3.474   3.324   2.939
 2610SOL    HW2 1826   3.593   3.299   3.048
 2611SOL     OW 1827   2.179   2.409   3.142
 2611SOL    HW1 1828   2.217   2.350   3.214
 2611SOL    HW2 1829   2.219   2.383   3.054
 2612SOL     OW 1830   2.674   3.448   2.549
 2612SOL    HW1 1831   2.706   3.458   2.455
 2612SOL    HW2 1832   2.595   3.386   2.551
 2613SOL     OW 1833   3.286   2.076   2.974
 2613SOL    HW1 1834   3.338   2.011   3.029
 2613SOL    HW2 1835   3.237   2.139   3.035
 2614SOL     OW 1836   2.863   1.896   3.016
 2614SOL    HW1 1837   2.800   1.824   2.985
 2614SOL    HW2 1838   2.956   1.860   3.016
 2615SOL     OW 1839   2.632   3.192   2.163
 2615SOL    HW1 1840   2.586   3.105   2.180
 2615SOL    HW2 1841   2.723   3.189   2.204
 2616SOL     OW 1842   2.480   3.429   3.146
 2616SOL    HW1 1843   2.475   3.511   3.203
 2616SOL    HW2 1844   2.569   3.426   3.101
 2617SOL     OW 1845   3.214   1.914   2.030
 2617SOL    HW1 1846   3.249   1.873   1.946
 2617SOL    HW2 1847   3.124   1.876   2.050
 2618SOL     OW 1848   3.162   2.315   2.553
 2618SOL    HW1 1849   3.103   2.395   2.557
 2618SOL    HW2 1850   3.177   2.280   2.646
 2619SOL     OW 1851   3.455   2.083   2.744
 2619SOL    HW1 1852   3.371   2.082   2.798
 2619SOL    HW2 1853   3.457   2.166   2.688
 2620SOL     OW 1854   1.901   2.939   2.162
 2620SOL    HW1 1855   2.000   2.928   2.153
 2620SOL    HW2 1856   1.861   2.853   2.194
 2621SOL     OW 1857   2.737   3.508   2.199
 2621SOL    HW1 1858   2.660   3.473   2.145
 2621SOL    HW2 1859   2.705   3.579   2.261
 2622SOL     OW 1860   2.092   2.490   3.837
 2622SOL    HW1 1861   1.999   2.488   3.874
 2622SOL    HW2 1862   2.093   2.451   3.745
 2628SOL     OW 1863   3.617   2.469   3.955
 2628SOL    HW1 1864   3.605   2.456   3.856
 2628SOL    HW2 1865   3.587   2.388   4.004
 2637SOL     OW 1866   2.468   2.826   3.847
 2637SOL    HW1 1867   2.475   2.910   3.793
 2637SOL    HW2 1868   2.514   2.839   3.935
 2640SOL     OW 1869   1.889   3.458   3.841
 2640SOL    HW1 1870   1.870   3.362   3.862
 2640SOL    HW2 1871   1.856   3.516   3.916
 2644SOL     OW 1872   2.671   1.866   4.226
 2644SOL    HW1 1873   2.711   1.957   4.217
 2644SOL    HW2 1874   2.571   1.874   4.232
 2646SOL     OW 1875   3.387   2.861   3.914
 2646SOL    HW1 1876   3.324   2.785   3.927
 2646SOL    HW2 1877   3.435   2.879   4.000
 2649SOL     OW 1878   2.460   2.591   3.994
 2649SOL    HW1 1879   2.484   2.660   3.926
 2649SOL    HW2 1880   2.382   2.624   4.048
 2654SOL     OW 1881   2.903   2.563   4.153
 2654SOL    HW1 1882   2.929   2.559   4.249
 2654SOL    HW2 1883   2.818   2.512   4.139
 2657SOL     OW 1884   2.727   2.210   3.919
 2657SOL    HW1 1885   2.786   2.273   3.870
 2657SOL    HW2 1886   2.746   2.116   3.890
 2663SOL     OW 1887   2.183   2.805   3.966
 2663SOL    HW1 1888   2.265   2.844   3.924
 2663SOL    HW2 1889   2.156   2.723   3.917
 2665SOL     OW 1890   2.973   3.638   3.961
 2665SOL    HW1 1891   2.913   3.576   4.011
 2665SOL    HW2 1892   3.004   3.594   3.876
 2666SOL     OW 1893   3.494   3.239   3.805
 2666SOL    HW1 1894   3.462   3.333   3.795
 2666SOL    HW2 1895   3.418   3.176   3.793
 2671SOL     OW 1896   2.244   2.562   4.204
 2671SOL    HW1 1897   2.289   2.472   4.201
 2671SOL    HW2 1898   2.150   2.551   4.237
 2672SOL     OW 1899   2.476   1.984   3.841
 2672SOL    HW1 1900   2.574   1.962   3.848
 2672SOL    HW2 1901   2.445   1.967   3.748
 2676SOL     OW 1902   2.401   1.926   4.236
 2676SOL    HW1 1903   2.320   1.927   4.294
 2676SOL    HW2 1904   2.404   2.009   4.181
 2677SOL     OW 1905   3.296   3.050   3.765
 2677SOL    HW1 1906   3.328   2.974   3.822
 2677SOL    HW2 1907   3.204   3.077   3.795
 2678SOL     OW 1908   2.159   1.897   3.895
 2678SOL    HW1 1909   2.208   1.981   3.874
 2678SOL    HW2 1910   2.221   1.832   3.940
 2679SOL     OW 1911   2.797   2.098   4.204
 2679SOL    HW1 1912   2.749   2.139   4.126
 2679SOL    HW2 1913   2.896   2.096   4.185
 2683SOL     OW 1914   2.894   2.411   3.740
 2683SOL    HW1 1915   2.853   2.493   3.701
 2683SOL    HW2 1916   2.958   2.437   3.813
 2690SOL     OW 1917   2.350   3.247   3.898
 2690SOL    HW1 1918   2.263   3.232   3.945
 2690SOL    HW2 1919   2.333   3.273   3.803
 2692SOL     OW 1920   3.252   2.437   3.802
 2692SOL    HW1 1921   3.198   2.416   3.883
 2692SOL    HW2 1922   3.343   2.396   3.811
 2693SOL     OW 1923   2.389   2.118   4.052
 2693SOL    HW1 1924   2.416   2.059   3.977
 2693SOL    HW2 1925   2.389   2.213   4.021
 2697SOL     OW 1926   2.567   2.912   4.092
 2697SOL    HW1 1927   2.553   2.919   4.191
 2697SOL    HW2 1928   2.651   2.861   4.074
 2701SOL     OW 1929   2.229   2.962   4.225
 2701SOL    HW1 1930   2.222   3.045   4.169
 2701SOL    HW2 1931   2.233   2.882   4.165
 2703SOL     OW 1932   3.114   3.210   4.112
 2703SOL    HW1 1933   3.164   3.287   4.152
 2703SOL    HW2 1934   3.019   3.212   4.144
 2709SOL     OW 1935   3.071   2.387   3.999
 2709SOL    HW1 1936   3.084   2.303   4.053
 2709SOL    HW2 1937   3.042   2.461   4.059
 2716SOL     OW 1938   3.402   2.136   3.849
 2716SOL    HW1 1939   3.341   2.061   3.872
 2716SOL    HW2 1940   3.424   2.188   3.932
 2717SOL     OW 1941   3.165   2.700   3.766
 2717SOL    HW1 1942   3.199   2.607   3.781
 2717SOL    HW2 1943   3.183   2.727   3.671
 2722SOL     OW 1944   1.870   3.188   3.924
 2722SOL    HW1 1945   1.777   3.209   3.893
 2722SOL    HW2 1946   1.880   3.089   3.937
 2727SOL     OW 1947   2.677   2.434   4.049
 2727SOL    HW1 1948   2.684   2.345   4.003
 2727SOL    HW2 1949   2.583   2.468   4.041
 2731SOL     OW 1950   2.335   2.362   3.915
 2731SOL    HW1 1951   2.396   2.442   3.919
 2731SOL    HW2 1952   2.240   2.393   3.922
 2734SOL     OW 1953   3.164   2.717   4.033
 2734SOL    HW1 1954   3.078   2.686   4.075
 2734SOL    HW2 1955   3.160   2.703   3.934
 2741SOL     OW 1956   2.534   3.478   3.878
 2741SOL    HW1 1957   2.543   3.488   3.779
 2741SOL    HW2 1958   2.494   3.389   3.899
 2744SOL     OW 1959   3.056   3.474   3.755
 2744SOL    HW1 1960   3.062   3.381   3.792
 2744SOL    HW2 1961   2.997   3.474   3.675
 2746SOL     OW 1962   2.778   2.772   4.015
 2746SOL    HW1 1963   2.841   2.810   3.947
 2746SOL    HW2 1964   2.818   2.689   4.054
 2747SOL     OW 1965   3.366   3.469   3.768
 2747SOL    HW1 1966   3.274   3.506   3.775
 2747SOL    HW2 1967   3.404   3.489   3.678
 2753SOL     OW 1968   2.117   3.210   4.014
 2753SOL    HW1 1969   2.021   3.211   3.987
 2753SOL    HW2 1970   2.129   3.263   4.098
 2755SOL     OW 1971   1.937   2.207   3.757
 2755SOL    HW1 1972   1.845   2.179   3.728
 2755SOL    HW2 1973   1.968   2.284   3.701
 2756SOL     OW 1974   1.934   2.028   4.042
 2756SOL    HW1 1975   1.917   2.111   3.988
 2756SOL    HW2 1976   2.024   1.991   4.020
 2757SOL     OW 1977   3.045   3.197   3.843
 2757SOL    HW1 1978   2.946   3.186   3.845
 2757SOL    HW2 1979   3.079   3.212   3.936
 2762SOL     OW 1980   3.087   2.187   4.173
 2762SOL    HW1 1981   3.152   2.113   4.162
 2762SOL    HW2 1982   3.107   2.237   4.257
 2766SOL     OW 1983   2.721   3.236   3.740
 2766SOL    HW1 1984   2.675   3.251   3.828
 2766SOL    HW2 1985   2.765   3.321   3.710
 2769SOL     OW 1986   2.945   2.846   3.811
 2769SOL    HW1 1987   2.922   2.899   3.729
 2769SOL    HW2 1988   3.026   2.790   3.792
 2773SOL     OW 1989   2.290   2.286   4.244
 2773SOL    HW1 1990   2.320   2.214   4.182
 2773SOL    HW2 1991   2.251   2.246   4.327
 2779SOL     OW 1992   2.632   3.192   4.025
 2779SOL    HW1 1993   2.586   3.105   4.042
 2779SOL    HW2 1994   2.723   3.189   4.066
 2781SOL     OW 1995   3.214   1.914   3.892
 2781SOL    HW1 1996   3.249   1.873   3.808
 2781SOL    HW2 1997   3.124   1.876   3.912
 2784SOL     OW 1998   1.901   2.939   4.024
 2784SOL    HW1 1999   2.000   2.928   4.015
 2784SOL    HW2 2000   1.861   2.853   4.056
 2785SOL     OW 2001   2.737   3.508   4.061
 2785SOL    HW1 2002   2.660   3.473   4.007
 2785SOL    HW2 2003   2.705   3.579   4.123
 2812SOL     OW 2004   2.179   3.975   1.801
 2812SOL    HW1 2005   2.250   4.046   1.807
 2812SOL    HW2 2006   2.091   4.014   1.829
 2835SOL     OW 2007   2.643   3.988   1.749
 2835SOL    HW1 2008   2.710   3.927   1.792
 2835SOL    HW2 2009   2.570   4.007   1.814
 2859SOL     OW 2010   2.777   3.813   1.402
 2859SOL    HW1 2011   2.802   3.793   1.307
 2859SOL    HW2 2012   2.849   3.869   1.444
 2869SOL     OW 2013   2.875   3.829   1.770
 2869SOL    HW1 2014   2.881   3.914   1.718
 2869SOL    HW2 2015   2.907   3.753   1.713
 2870SOL     OW 2016   2.366   3.774   1.740
 2870SOL    HW1 2017   2.324   3.717   1.670
 2870SOL    HW2 2018   2.300   3.843   1.772
 2888SOL     OW 2019   3.022   3.931   1.477
 2888SOL    HW1 2020   3.022   3.995   1.554
 2888SOL    HW2 2021   3.050   3.979   1.394
 2915SOL     OW 2022   2.534   3.927   1.489
 2915SOL    HW1 2023   2.624   3.911   1.449
 2915SOL    HW2 2024   2.542   3.932   1.588
 2944SOL     OW 2025   2.087   3.999   2.858
 2944SOL    HW1 2026   2.122   3.982   2.950
 2944SOL    HW2 2027   1.999   3.954   2.846
 2945SOL     OW 2028   1.881   4.092   2.509
 2945SOL    HW1 2029   1.799   4.135   2.548
 2945SOL    HW2 2030   1.853   4.019   2.446
 2955SOL     OW 2031   2.300   4.116   3.361
 2955SOL    HW1 2032   2.382   4.060   3.370
 2955SOL    HW2 2033   2.219   4.058   3.365
 2959SOL     OW 2034   3.456   3.838   3.342
 2959SOL    HW1 2035   3.438   3.905   3.270
 2959SOL    HW2 2036   3.453   3.884   3.431
 2966SOL     OW 2037   2.671   3.728   2.364
 2966SOL    HW1 2038   2.711   3.819   2.355
 2966SOL    HW2 2039   2.571   3.736   2.370
 2972SOL     OW 2040   3.143   4.069   2.806
 2972SOL    HW1 2041   3.057   4.019   2.793
 2972SOL    HW2 2042   3.205   4.015   2.862
 2976SOL     OW 2043   2.853   4.134   3.104
 2976SOL    HW1 2044   2.776   4.168   3.158
 2976SOL    HW2 2045   2.819   4.083   3.025
 2979SOL     OW 2046   2.727   4.072   2.057
 2979SOL    HW1 2047   2.786   4.135   2.008
 2979SOL    HW2 2048   2.746   3.978   2.028
 2982SOL     OW 2049   2.412   3.920   2.747
 2982SOL    HW1 2050   2.407   3.915   2.847
 2982SOL    HW2 2051   2.414   4.016   2.718
 2987SOL     OW 2052   2.064   4.009   3.360
 2987SOL    HW1 2053   1.984   4.069   3.347
 2987SOL    HW2 2054   2.054   3.960   3.446
 2989SOL     OW 2055   3.262   3.831   2.288
 2989SOL    HW1 2056   3.238   3.794   2.198
 2989SOL    HW2 2057   3.361   3.847   2.292
 2992SOL     OW 2058   2.476   3.846   1.979
 2992SOL    HW1 2059   2.574   3.824   1.986
 2992SOL    HW2 2060   2.445   3.829   1.886
 2993SOL     OW 2061   2.643   3.988   3.611
 2993SOL    HW1 2062   2.710   3.927   3.654
 2993SOL    HW2 2063   2.570   4.007   3.676
 2995SOL     OW 2064   2.784   4.227   2.761
 2995SOL    HW1 2065   2.759   4.218   2.665
 2995SOL    HW2 2066   2.832   4.145   2.792
 2996SOL     OW 2067   2.401   3.788   2.374
 2996SOL    HW1 2068   2.320   3.789   2.432
 2996SOL    HW2 2069   2.404   3.871   2.319
 2998SOL     OW 2070   2.159   3.759   2.033
 2998SOL    HW1 2071   2.208   3.843   2.012
 2998SOL    HW2 2072   2.221   3.694   2.078
 2999SOL     OW 2073   2.797   3.960   2.342
 2999SOL    HW1 2074   2.749   4.001   2.264
 2999SOL    HW2 2075   2.896   3.958   2.323
 3005SOL     OW 2076   2.423   3.946   3.009
 3005SOL    HW1 2077   2.461   3.862   3.046
 3005SOL    HW2 2078   2.335   3.965   3.053
 3006SOL     OW 2079   2.728   4.178   2.504
 3006SOL    HW1 2080   2.696   4.250   2.442
 3006SOL    HW2 2081   2.752   4.097   2.451
 3007SOL     OW 2082   2.879   3.763   2.615
 3007SOL    HW1 2083   2.807   3.768   2.546
 3007SOL    HW2 2084   2.855   3.694   2.684
 3013SOL     OW 2085   2.389   3.980   2.190
 3013SOL    HW1 2086   2.416   3.921   2.115
 3013SOL    HW2 2087   2.389   4.075   2.159
 3018SOL     OW 2088   2.777   3.813   3.264
 3018SOL    HW1 2089   2.802   3.793   3.169
 3018SOL    HW2 2090   2.849   3.869   3.306
 3022SOL     OW 2091   3.136   4.110   3.124
 3022SOL    HW1 2092   3.157   4.184   3.188
 3022SOL    HW2 2093   3.047   4.127   3.081
 3024SOL     OW 2094   2.428   4.261   2.727
 3024SOL    HW1 2095   2.440   4.327   2.653
 3024SOL    HW2 2096   2.474   4.295   2.810
 3028SOL     OW 2097   2.875   3.829   3.632
 3028SOL    HW1 2098   2.881   3.914   3.580
 3028SOL    HW2 2099   2.907   3.753   3.575
 3029SOL     OW 2100   2.366   3.774   3.602
 3029SOL    HW1 2101   2.324   3.717   3.532
 3029SOL    HW2 2102   2.300   3.843   3.634
 3032SOL     OW 2103   3.071   4.249   2.137
 3032SOL    HW1 2104   3.084   4.165   2.191
 3032SOL    HW2 2105   3.042   4.323   2.197
 3033SOL     OW 2106   2.169   3.937   3.093
 3033SOL    HW1 2107   2.146   3.974   3.183
 3033SOL    HW2 2108   2.139   3.842   3.087
 3037SOL     OW 2109   2.169   3.787   2.480
 3037SOL    HW1 2110   2.158   3.881   2.513
 3037SOL    HW2 2111   2.164   3.724   2.557
 3038SOL     OW 2112   3.484   4.091   2.236
 3038SOL    HW1 2113   3.486   4.015   2.300
 3038SOL    HW2 2114   3.436   4.168   2.276
 3042SOL     OW 2115   3.402   3.998   1.987
 3042SOL    HW1 2116   3.341   3.923   2.010
 3042SOL    HW2 2117   3.424   4.050   2.070
 3045SOL     OW 2118   2.201   4.233   2.868
 3045SOL    HW1 2119   2.149   4.150   2.851
 3045SOL    HW2 2120   2.278   4.238   2.804
 3047SOL     OW 2121   3.022   3.931   3.339
 3047SOL    HW1 2122   3.022   3.995   3.416
 3047SOL    HW2 2123   3.050   3.979   3.256
 3053SOL     OW 2124   2.677   4.296   2.187
 3053SOL    HW1 2125   2.684   4.207   2.141
 3053SOL    HW2 2126   2.583   4.330   2.179
 3055SOL     OW 2127   2.533   4.188   3.131
 3055SOL    HW1 2128   2.499   4.099   3.101
 3055SOL    HW2 2129   2.559   4.242   3.051
 3056SOL     OW 2130   2.335   4.224   2.053
 3056SOL    HW1 2131   2.396   4.304   2.057
 3056SOL    HW2 2132   2.240   4.255   2.060
 3061SOL     OW 2133   3.588   3.859   2.385
 3061SOL    HW1 2134   3.661   3.842   2.318
 3061SOL    HW2 2135   3.557   3.772   2.423
 3064SOL     OW 2136   3.703   3.899   2.825
 3064SOL    HW1 2137   3.742   3.814   2.789
 3064SOL    HW2 2138   3.605   3.901   2.806
 3065SOL     OW 2139   2.125   4.050   2.582
 3065SOL    HW1 2140   2.046   4.101   2.548
 3065SOL    HW2 2141   2.116   4.035   2.680
 3071SOL     OW 2142   2.876   3.960   2.833
 3071SOL    HW1 2143   2.868   3.924   2.740
 3071SOL    HW2 2144   2.874   3.884   2.898
 3074SOL     OW 2145   2.534   3.927   3.351
 3074SOL    HW1 2146   2.624   3.911   3.311
 3074SOL    HW2 2147   2.542   3.932   3.450
 3075SOL     OW 2148   1.937   4.069   1.895
 3075SOL    HW1 2149   1.845   4.041   1.866
 3075SOL    HW2 2150   1.968   4.146   1.839
 3077SOL     OW 2151   1.934   3.890   2.180
 3077SOL    HW1 2152   1.917   3.973   2.126
 3077SOL    HW2 2153   2.024   3.853   2.158
 3082SOL     OW 2154   3.087   4.049   2.311
 3082SOL    HW1 2155   3.152   3.975   2.300
 3082SOL    HW2 2156   3.107   4.099   2.395
 3093SOL     OW 2157   2.290   4.148   2.382
 3093SOL    HW1 2158   2.320   4.076   2.320
 3093SOL    HW2 2159   2.251   4.108   2.465
 3096SOL     OW 2160   3.286   3.938   2.974
 3096SOL    HW1 2161   3.338   3.873   3.029
 3096SOL    HW2 2162   3.237   4.001   3.035
 3097SOL     OW 2163   2.863   3.758   3.016
 3097SOL    HW1 2164   2.800   3.686   2.985
 3097SOL    HW2 2165   2.956   3.722   3.016
 3099SOL     OW 2166   3.214   3.776   2.030
 3099SOL    HW1 2167   3.249   3.735   1.946
 3099SOL    HW2 2168   3.124   3.738   2.050
 3100SOL     OW 2169   3.162   4.177   2.553
 3100SOL    HW1 2170   3.103   4.257   2.557
 3100SOL    HW2 2171   3.177   4.142   2.646
 3101SOL     OW 2172   3.455   3.945   2.744
 3101SOL    HW1 2173   3.371   3.944   2.798
 3101SOL    HW2 2174   3.457   4.028   2.688
 3140SOL     OW 2175   2.476   3.846   3.841
 3140SOL    HW1 2176   2.574   3.824   3.848
 3140SOL    HW2 2177   2.445   3.829   3.748
 3265SOL     OW 2178   3.854   1.821   1.571
 3265SOL    HW1 2179   3.844   1.806   1.670
 3265SOL    HW2 2180   3.768   1.857   1.535
 3352SOL     OW 2181   3.854   1.794   1.851
 3352SOL    HW1 2182   3.813   1.720   1.904
 3352SOL    HW2 2183   3.918   1.845   1.909
 3405SOL     OW 2184   3.955   1.713   2.345
 3405SOL    HW1 2185   3.989   1.790   2.399
 3405SOL    HW2 2186   3.999   1.713   2.255
 3407SOL     OW 2187   3.954   1.434   2.400
 3407SOL    HW1 2188   3.928   1.530   2.400
 3407SOL    HW2 2189   3.883   1.380   2.445
 3412SOL     OW 2190   3.751   1.596   1.979
 3412SOL    HW1 2191   3.732   1.500   2.000
 3412SOL    HW2 2192   3.718   1.654   2.054
 3429SOL     OW 2193   3.854   1.821   3.433
 3429SOL    HW1 2194   3.844   1.806   3.532
 3429SOL    HW2 2195   3.768   1.857   3.397
 3434SOL     OW 2196   4.075   1.801   2.715
 3434SOL    HW1 2197   4.125   1.715   2.721
 3434SOL    HW2 2198   4.140   1.878   2.712
 3441SOL     OW 2199   3.973   1.785   3.103
 3441SOL    HW1 2200   4.030   1.720   3.153
 3441SOL    HW2 2201   3.957   1.752   3.010
 3472SOL     OW 2202   3.788   1.564   3.193
 3472SOL    HW1 2203   3.742   1.646   3.159
 3472SOL    HW2 2204   3.886   1.583   3.202
 3498SOL     OW 2205   3.732   1.326   2.062
 3498SOL    HW1 2206   3.639   1.347   2.031
 3498SOL    HW2 2207   3.742   1.227   2.075
 3499SOL     OW 2208   3.812   1.801   2.789
 3499SOL    HW1 2209   3.770   1.715   2.762
 3499SOL    HW2 2210   3.906   1.804   2.755
 3705SOL     OW 2211   3.837   2.599   1.597
 3705SOL    HW1 2212   3.925   2.586   1.642
 3705SOL    HW2 2213   3.824   2.696   1.575
 3711SOL     OW 2214   4.041   2.113   1.801
 3711SOL    HW1 2215   4.112   2.184   1.807
 3711SOL    HW2 2216   3.953   2.152   1.829
 3730SOL     OW 2217   3.926   2.147   1.498
 3730SOL    HW1 2218   3.846   2.207   1.485
 3730SOL    HW2 2219   3.916   2.098   1.584
 3747SOL     OW 2220   3.802   2.418   1.386
 3747SOL    HW1 2221   3.894   2.417   1.345
 3747SOL    HW2 2222   3.796   2.492   1.453
 3780SOL     OW 2223   4.074   2.760   1.804
 3780SOL    HW1 2224   4.150   2.804   1.852
 3780SOL    HW2 2225   4.109   2.713   1.722
 3791SOL     OW 2226   3.913   2.382   1.722
 3791SOL    HW1 2227   3.972   2.342   1.652
 3791SOL    HW2 2228   3.855   2.453   1.681
 3797SOL     OW 2229   3.883   2.999   1.466
 3797SOL    HW1 2230   3.905   2.938   1.542
 3797SOL    HW2 2231   3.893   2.950   1.380
 3818SOL     OW 2232   3.829   2.875   1.726
 3818SOL    HW1 2233   3.752   2.842   1.780
 3818SOL    HW2 2234   3.914   2.845   1.768
 3834SOL     OW 2235   3.945   3.176   1.844
 3834SOL    HW1 2236   3.880   3.103   1.823
 3834SOL    HW2 2237   3.949   3.190   1.942
 3846SOL     OW 2238   3.954   2.490   1.975
 3846SOL    HW1 2239   3.861   2.488   2.012
 3846SOL    HW2 2240   3.955   2.451   1.883
 3847SOL     OW 2241   3.949   2.137   2.858
 3847SOL    HW1 2242   3.984   2.120   2.950
 3847SOL    HW2 2243   3.861   2.092   2.846
 3848SOL     OW 2244   3.743   2.230   2.509
 3848SOL    HW1 2245   3.661   2.273   2.548
 3848SOL    HW2 2246   3.715   2.157   2.446
 3856SOL     OW 2247   4.059   3.297   2.923
 3856SOL    HW1 2248   3.981   3.266   2.870
 3856SOL    HW2 2249   4.117   3.355   2.866
 3857SOL     OW 2250   4.162   2.254   3.361
 3857SOL    HW1 2251   4.244   2.198   3.370
 3857SOL    HW2 2252   4.081   2.196   3.365
 3858SOL     OW 2253   3.955   3.575   2.345
 3858SOL    HW1 2254   3.989   3.652   2.399
 3858SOL    HW2 2255   3.999   3.575   2.255
 3860SOL     OW 2256   3.954   3.296   2.400
 3860SOL    HW1 2257   3.928   3.392   2.400
 3860SOL    HW2 2258   3.883   3.242   2.445
 3861SOL     OW 2259   3.964   2.953   2.748
 3861SOL    HW1 2260   3.978   2.869   2.800
 3861SOL    HW2 2261   3.909   3.017   2.803
 3864SOL     OW 2262   3.846   2.505   2.425
 3864SOL    HW1 2263   3.801   2.417   2.442
 3864SOL    HW2 2264   3.845   2.559   2.509
 3865SOL     OW 2265   3.751   3.458   1.979
 3865SOL    HW1 2266   3.732   3.362   2.000
 3865SOL    HW2 2267   3.718   3.516   2.054
 3867SOL     OW 2268   3.837   2.599   3.459
 3867SOL    HW1 2269   3.925   2.586   3.504
 3867SOL    HW2 2270   3.824   2.696   3.437
 3871SOL     OW 2271   3.921   2.838   3.126
 3871SOL    HW1 2272   4.010   2.793   3.112
 3871SOL    HW2 2273   3.848   2.773   3.107
 3874SOL     OW 2274   4.322   2.591   2.132
 3874SOL    HW1 2275   4.346   2.660   2.064
 3874SOL    HW2 2276   4.244   2.624   2.186
 3881SOL     OW 2277   3.800   2.673   2.651
 3881SOL    HW1 2278   3.899   2.661   2.660
 3881SOL    HW2 2279   3.776   2.768   2.672
 3885SOL     OW 2280   4.274   2.058   2.747
 3885SOL    HW1 2281   4.269   2.053   2.847
 3885SOL    HW2 2282   4.276   2.154   2.718
 3889SOL     OW 2283   4.045   2.805   2.104
 3889SOL    HW1 2284   4.127   2.844   2.062
 3889SOL    HW2 2285   4.018   2.723   2.055
 3892SOL     OW 2286   3.926   2.147   3.360
 3892SOL    HW1 2287   3.846   2.207   3.347
 3892SOL    HW2 2288   3.916   2.098   3.446
 3896SOL     OW 2289   4.106   2.562   2.342
 3896SOL    HW1 2290   4.151   2.472   2.339
 3896SOL    HW2 2291   4.012   2.551   2.375
 3904SOL     OW 2292   4.021   1.897   2.033
 3904SOL    HW1 2293   4.070   1.981   2.012
 3904SOL    HW2 2294   4.083   1.832   2.078
 3908SOL     OW 2295   4.183   3.014   2.603
 3908SOL    HW1 2296   4.112   2.987   2.668
 3908SOL    HW2 2297   4.157   2.986   2.510
 3911SOL     OW 2298   3.802   2.418   3.248
 3911SOL    HW1 2299   3.894   2.417   3.207
 3911SOL    HW2 2300   3.796   2.492   3.315
 3917SOL     OW 2301   4.251   2.118   2.190
 3917SOL    HW1 2302   4.278   2.059   2.115
 3917SOL    HW2 2303   4.251   2.213   2.159
 3923SOL     OW 2304   4.134   2.675   3.113
 3923SOL    HW1 2305   4.220   2.687   3.163
 3923SOL    HW2 2306   4.092   2.588   3.140
 3925SOL     OW 2307   3.788   3.426   3.193
 3925SOL    HW1 2308   3.742   3.508   3.159
 3925SOL    HW2 2309   3.886   3.445   3.202
 3926SOL     OW 2310   4.091   2.962   2.363
 3926SOL    HW1 2311   4.084   3.045   2.307
 3926SOL    HW2 2312   4.095   2.882   2.303
 3927SOL     OW 2313   4.290   2.399   2.727
 3927SOL    HW1 2314   4.302   2.465   2.653
 3927SOL    HW2 2315   4.336   2.433   2.810
 3931SOL     OW 2316   4.126   2.613   3.460
 3931SOL    HW1 2317   4.194   2.668   3.413
 3931SOL    HW2 2318   4.166   2.525   3.487
 3934SOL     OW 2319   4.297   2.732   2.891
 3934SOL    HW1 2320   4.341   2.821   2.882
 3934SOL    HW2 2321   4.234   2.732   2.968
 3937SOL     OW 2322   4.031   2.075   3.093
 3937SOL    HW1 2323   4.008   2.112   3.183
 3937SOL    HW2 2324   4.001   1.980   3.087
 3938SOL     OW 2325   3.761   3.172   3.144
 3938SOL    HW1 2326   3.814   3.123   3.212
 3938SOL    HW2 2327   3.783   3.270   3.149
 3940SOL     OW 2328   4.031   1.925   2.480
 3940SOL    HW1 2329   4.020   2.019   2.513
 3940SOL    HW2 2330   4.026   1.862   2.557
 3947SOL     OW 2331   4.043   2.672   2.811
 3947SOL    HW1 2332   4.136   2.708   2.816
 3947SOL    HW2 2333   4.037   2.587   2.863
 3948SOL     OW 2334   4.063   2.371   2.868
 3948SOL    HW1 2335   4.011   2.288   2.851
 3948SOL    HW2 2336   4.140   2.376   2.804
 3951SOL     OW 2337   3.732   3.188   2.062
 3951SOL    HW1 2338   3.639   3.209   2.031
 3951SOL    HW2 2339   3.742   3.089   2.075
 3952SOL     OW 2340   3.812   3.663   2.789
 3952SOL    HW1 2341   3.770   3.577   2.762
 3952SOL    HW2 2342   3.906   3.666   2.755
 3955SOL     OW 2343   3.764   2.406   2.976
 3955SOL    HW1 2344   3.849   2.373   2.935
 3955SOL    HW2 2345   3.777   2.421   3.074
 3956SOL     OW 2346   3.913   2.382   3.584
 3956SOL    HW1 2347   3.972   2.342   3.514
 3956SOL    HW2 2348   3.855   2.453   3.543
 3961SOL     OW 2349   4.197   2.362   2.053
 3961SOL    HW1 2350   4.258   2.442   2.057
 3961SOL    HW2 2351   4.102   2.393   2.060
 3962SOL     OW 2352   3.883   2.999   3.328
 3962SOL    HW1 2353   3.905   2.938   3.404
 3962SOL    HW2 2354   3.893   2.950   3.242
 3966SOL     OW 2355   3.807   3.120   2.884
 3966SOL    HW1 2356   3.802   3.119   2.984
 3966SOL    HW2 2357   3.724   3.079   2.846
 3973SOL     OW 2358   3.987   2.188   2.582
 3973SOL    HW1 2359   3.908   2.239   2.548
 3973SOL    HW2 2360   3.978   2.173   2.680
 3977SOL     OW 2361   4.096   3.150   3.352
 3977SOL    HW1 2362   4.083   3.243   3.318
 3977SOL    HW2 2363   4.012   3.098   3.339
 3981SOL     OW 2364   3.979   3.210   2.152
 3981SOL    HW1 2365   3.883   3.211   2.125
 3981SOL    HW2 2366   3.991   3.263   2.236
 3982SOL     OW 2367   3.829   2.875   3.588
 3982SOL    HW1 2368   3.752   2.842   3.642
 3982SOL    HW2 2369   3.914   2.845   3.630
 3984SOL     OW 2370   3.799   2.207   1.895
 3984SOL    HW1 2371   3.707   2.179   1.866
 3984SOL    HW2 2372   3.830   2.284   1.839
 3986SOL     OW 2373   3.796   2.028   2.180
 3986SOL    HW1 2374   3.779   2.111   2.126
 3986SOL    HW2 2375   3.886   1.991   2.158
 3993SOL     OW 2376   4.318   2.607   2.514
 3993SOL    HW1 2377   4.368   2.692   2.495
 3993SOL    HW2 2378   4.230   2.609   2.466
 3999SOL     OW 2379   3.803   3.102   2.515
 3999SOL    HW1 2380   3.802   3.055   2.603
 3999SOL    HW2 2381   3.885   3.074   2.464
 4001SOL     OW 2382   4.152   2.286   2.382
 4001SOL    HW1 2383   4.182   2.214   2.320
 4001SOL    HW2 2384   4.113   2.246   2.465
 4002SOL     OW 2385   4.041   2.409   3.142
 4002SOL    HW1 2386   4.079   2.350   3.214
 4002SOL    HW2 2387   4.081   2.383   3.054
 4009SOL     OW 2388   3.763   2.939   2.162
 4009SOL    HW1 2389   3.862   2.928   2.153
 4009SOL    HW2 2390   3.723   2.853   2.194
 4119SOL     OW 2391   3.799   2.207   3.757
 4119SOL    HW1 2392   3.707   2.179   3.728
 4119SOL    HW2 2393   3.830   2.284   3.701
   5.15680   5.15680   5.15680
