; mobley_8260524_GMX_OPLS.top created by acpype (v: 2023.10.27) on Wed May 20 23:42:50 2026

; Include forcefield parameters
#include "ffoplsaa.itp"

; Include mobley_8260524_GMX.itp topology
#include "mobley_8260524_GMX.itp"

; Ligand position restraints
#ifdef POSRES_LIG
#include "posre_mobley_8260524.itp"
#endif

[ system ]
 mobley_8260524

[ molecules ]
; Compound        nmols
 mobley_8260524   1     
