mobley_8260524_GMX.gro created by acpype (v: 2023.10.27) on Wed May 20 23:42:50 2026
 7
    1  MOL   C1    1  -0.059   0.302  -0.093
    1  MOL   C2    2  -0.065   0.183  -0.085
    1  MOL   C3    3  -0.071   0.037  -0.074
    1  MOL   H1    4  -0.055   0.409  -0.101
    1  MOL   H2    5   0.000   0.000   0.000
    1  MOL   H3    6  -0.172   0.005  -0.044
    1  MOL   H4    7  -0.048  -0.010  -0.170
    3.43200     8.37000     3.40200
