mobley_7066554_GMX.gro created by acpype (v: 2023.10.27) on Wed May 20 23:51:09 2026
   13
    1MOL     C1    1   2.201   2.373   2.261
    1MOL     C2    2   2.413   2.257   2.267
    1MOL     C3    3   2.199   2.376   2.401
    1MOL     C4    4   2.411   2.260   2.406
    1MOL     C5    5   2.308   2.314   2.194
    1MOL     C6    6   2.304   2.320   2.473
    1MOL     O1    7   2.310   2.311   2.058
    1MOL    CL1    8   2.302   2.324   2.645
    1MOL     H1    9   2.119   2.417   2.206
    1MOL     H2   10   2.496   2.211   2.215
    1MOL     H3   11   2.115   2.423   2.452
    1MOL     H4   12   2.493   2.216   2.462
    1MOL     H5   13   2.387   2.259   2.029
   4.62522   4.62522   4.62522
