; mobley_5732611_GMX_OPLS.itp created by acpype (v: 2023.10.27) on Wed May 20 23:46:55 2026

; For OPLS atomtypes manual fine tuning
; AC_at:OPLS_at:OPLScode: Possible_Alternatives (see ffoplsaa.atp and ffoplsaanb.itp)
; cc:C*:opls_500: ['506', '507', '508', '514']
; cd:C*:opls_500: ['506', '507', '508', '514']
; c3:CT:opls_135: ['136', '137', '149', '157', '158', '206', '209', '210', '223B', '224B', '245', '246', '274', '283', '284', '285', '292', '292B', '293B', '296', '307', '308', '505']
; nd:NB:opls_511: []
; na:NA:opls_503: ['512']
; h4:HA:opls_146: []
; h5:HA:opls_146: []
; hc:HC:opls_140: []
; hn:H:opls_240: ['241', '290', '301', '304', '310', '504', '513']

[ moleculetype ]
;name            nrexcl
 mobley_5732611   3

[ atoms ]
;   nr  type  resi  res  atom  cgnr     charge      mass       ; qtot   bond_type
     1 opls_500     1   MOL    C1    1    -0.261600     12.01100 ; qtot -0.262  C*  
     2 opls_500     1   MOL    C2    2     0.386400     12.01100 ; qtot  0.125  C*  
     3 opls_500     1   MOL    C3    3     0.304600     12.01100 ; qtot  0.429  C*  
     4 opls_135     1   MOL    C4    4    -0.113400     12.01100 ; qtot  0.316  CT  
     5 opls_511     1   MOL    N1    5    -0.664999     14.00670 ; qtot -0.349  NB  
     6 opls_503     1   MOL    N2    6    -0.322900     14.00670 ; qtot -0.672  NA  
     7 opls_146     1   MOL    H1    7     0.176000      1.00800 ; qtot -0.496  HA  
     8 opls_146     1   MOL    H2    8     0.059100      1.00800 ; qtot -0.437  HA  
     9 opls_140     1   MOL    H3    9     0.046033      1.00800 ; qtot -0.391  HC  
    10 opls_140     1   MOL    H4   10     0.046033      1.00800 ; qtot -0.345  HC  
    11 opls_140     1   MOL    H5   11     0.046033      1.00800 ; qtot -0.299  HC  
    12 opls_240     1   MOL    H6   12     0.298700      1.00800 ; qtot  0.000  H   

[ bonds ]
;   ai     aj funct   r             k
     1      3   1 ;    1.3730e-01    3.2321e+05 ;     C1 - C3         C* - C*    
     1      6   1 ;    1.3803e-01    2.8075e+05 ;     C1 - N2         C* - NA    
     1      7   1 ;    1.0809e-01    3.0854e+05 ;     C1 - H1         C* - HA    
     2      5   1 ;    1.3158e-01    3.5122e+05 ;     C2 - N1         C* - NB    
     2      6   1 ;    1.3803e-01    2.8075e+05 ;     C2 - N2         C* - NA    
     2      8   1 ;    1.0820e-01    3.0708e+05 ;     C2 - H2         C* - HA    
     3      4   1 ;    1.5018e-01    2.1244e+05 ;     C3 - C4         C* - CT    
     3      5   1 ;    1.3713e-01    2.8947e+05 ;     C3 - N1         C* - NB    
     4      9   1 ;    1.0962e-01    2.8891e+05 ;     C4 - H3         CT - HC    
     4     10   1 ;    1.0962e-01    2.8891e+05 ;     C4 - H4         CT - HC    
     4     11   1 ;    1.0962e-01    2.8891e+05 ;     C4 - H5         CT - HC    
     6     12   1 ;    1.0095e-01    4.0315e+05 ;     N2 - H6         NA - H     

[ pairs ]
;   ai     aj    funct
     1      8      1 ;     C1 - H2    
     1      9      1 ;     C1 - H3    
     1     10      1 ;     C1 - H4    
     1     11      1 ;     C1 - H5    
     2      4      1 ;     C2 - C4    
     3      8      1 ;     C3 - H2    
     3     12      1 ;     C3 - H6    
     5      9      1 ;     N1 - H3    
     5     10      1 ;     N1 - H4    
     5     11      1 ;     N1 - H5    
     5     12      1 ;     N1 - H6    
     6      4      1 ;     N2 - C4    
     7      2      1 ;     H1 - C2    
     7      4      1 ;     H1 - C4    
     7      5      1 ;     H1 - N1    
     7     12      1 ;     H1 - H6    
     8     12      1 ;     H2 - H6    

[ angles ]
;   ai     aj     ak    funct   theta         cth
     1      3      4      1 ;    1.2668e+02    5.0258e+02 ;     C1 - C3   - C4       C* -   C* - CT  
     1      3      5      1 ;    1.1158e+02    5.9789e+02 ;     C1 - C3   - N1       C* -   C* - NB  
     1      6      2      1 ;    1.1048e+02    6.9546e+02 ;     C1 - N2   - C2       C* -   NA - C*  
     1      6     12      1 ;    1.2567e+02    4.6384e+02 ;     C1 - N2   - H6       C* -   NA - H   
     2      5      3      1 ;    1.0537e+02    7.3094e+02 ;     C2 - N1   - C3       C* -   NB - C*  
     2      6     12      1 ;    1.2567e+02    4.6384e+02 ;     C2 - N2   - H6       C* -   NA - H   
     3      1      6      1 ;    1.0675e+02    6.0927e+02 ;     C3 - C1   - N2       C* -   C* - NA  
     3      1      7      1 ;    1.2911e+02    3.6777e+02 ;     C3 - C1   - H1       C* -   C* - HA  
     3      4      9      1 ;    1.1062e+02    3.6777e+02 ;     C3 - C4   - H3       C* -   CT - HC  
     3      4     10      1 ;    1.1062e+02    3.6777e+02 ;     C3 - C4   - H4       C* -   CT - HC  
     3      4     11      1 ;    1.1062e+02    3.6777e+02 ;     C3 - C4   - H5       C* -   CT - HC  
     4      3      5      1 ;    1.2089e+02    5.4643e+02 ;     C4 - C3   - N1       CT -   C* - NB  
     5      2      6      1 ;    1.1201e+02    6.4408e+02 ;     N1 - C2   - N2       NB -   C* - NA  
     5      2      8      1 ;    1.2562e+02    4.0886e+02 ;     N1 - C2   - H2       NB -   C* - HA  
     6      1      7      1 ;    1.2101e+02    4.0158e+02 ;     N2 - C1   - H1       NA -   C* - HA  
     6      2      8      1 ;    1.2178e+02    4.0024e+02 ;     N2 - C2   - H2       NA -   C* - HA  
     9      4     10      1 ;    1.0773e+02    2.9957e+02 ;     H3 - C4   - H4       HC -   CT - HC  
     9      4     11      1 ;    1.0773e+02    2.9957e+02 ;     H3 - C4   - H5       HC -   CT - HC  
    10      4     11      1 ;    1.0773e+02    2.9957e+02 ;     H4 - C4   - H5       HC -   CT - HC  

[ dihedrals ] ; propers
; for gromacs 4.5 or higher, using funct 9
;    i      j      k      l   func   phase     kd      pn
     1      3      4      9      9 ;     0.00   0.00000   0 ;     C1-    C3-    C4-    H3
     1      3      4     10      9 ;     0.00   0.00000   0 ;     C1-    C3-    C4-    H4
     1      3      4     11      9 ;     0.00   0.00000   0 ;     C1-    C3-    C4-    H5
     1      3      5      2      9 ;   180.00  19.87400   2 ;     C1-    C3-    N1-    C2
     1      6      2      5      9 ;   180.00   7.11280   2 ;     C1-    N2-    C2-    N1
     1      6      2      8      9 ;   180.00   7.11280   2 ;     C1-    N2-    C2-    H2
     2      5      3      4      9 ;   180.00  19.87400   2 ;     C2-    N1-    C3-    C4
     3      1      6      2      9 ;   180.00   7.11280   2 ;     C3-    C1-    N2-    C2
     3      1      6     12      9 ;   180.00   7.11280   2 ;     C3-    C1-    N2-    H6
     3      5      2      6      9 ;   180.00  19.87400   2 ;     C3-    N1-    C2-    N2
     3      5      2      8      9 ;   180.00  19.87400   2 ;     C3-    N1-    C2-    H2
     5      2      6     12      9 ;   180.00   7.11280   2 ;     N1-    C2-    N2-    H6
     5      3      4      9      9 ;     0.00   0.00000   0 ;     N1-    C3-    C4-    H3
     5      3      4     10      9 ;     0.00   0.00000   0 ;     N1-    C3-    C4-    H4
     5      3      4     11      9 ;     0.00   0.00000   0 ;     N1-    C3-    C4-    H5
     6      1      3      4      9 ;   180.00  16.73600   2 ;     N2-    C1-    C3-    C4
     6      1      3      5      9 ;   180.00  16.73600   2 ;     N2-    C1-    C3-    N1
     7      1      3      4      9 ;   180.00  16.73600   2 ;     H1-    C1-    C3-    C4
     7      1      3      5      9 ;   180.00  16.73600   2 ;     H1-    C1-    C3-    N1
     7      1      6      2      9 ;   180.00   7.11280   2 ;     H1-    C1-    N2-    C2
     7      1      6     12      9 ;   180.00   7.11280   2 ;     H1-    C1-    N2-    H6
     8      2      6     12      9 ;   180.00   7.11280   2 ;     H2-    C2-    N2-    H6

[ dihedrals ] ; impropers
; treated as propers in GROMACS to use correct AMBER analytical function
;    i      j      k      l   func   phase     kd      pn
     1      2      6     12      4 ;   180.00   4.60240   2 ;     C1-    C2-    N2-    H6
     4      1      3      5      4 ;   180.00   4.60240   2 ;     C4-    C1-    C3-    N1
     6      1      7      3      4 ;   180.00   4.60240   2 ;     N2-    C1-    H1-    C3
     8      6      2      5      4 ;   180.00   4.60240   2 ;     H2-    N2-    C2-    N1
