%VERSION  VERSION_STAMP = V0001.000  DATE = 05/20/26  23:46:56                  
%FLAG TITLE                                                                     
%FORMAT(20a4)                                                                   
4_methyl_1h_imidazole                                                           
%FLAG POINTERS                                                                  
%FORMAT(10I8)                                                                   
      12       8       6       6      12       7      18       8       0       0
      50       1       6       7       8       9      14       5       9       0
       0       0       0       0       0       0       0       0      12       0
       0
%FLAG ATOM_NAME                                                                 
%FORMAT(20a4)                                                                   
C1  C2  C3  C4  N1  N2  H1  H2  H3  H4  H5  H6  
%FLAG CHARGE                                                                    
%FORMAT(5E16.8)                                                                 
 -4.76695368E+00  7.04109672E+00  5.55051258E+00 -2.06640882E+00 -1.20996072E+01
 -5.88398067E+00  3.20712480E+00  1.07693793E+00  8.38827136E-01  8.38827136E-01
  8.38827136E-01  5.44300101E+00
%FLAG ATOMIC_NUMBER                                                             
%FORMAT(10I8)                                                                   
       6       6       6       6       7       7       1       1       1       1
       1       1
%FLAG MASS                                                                      
%FORMAT(5E16.8)                                                                 
  1.20100000E+01  1.20100000E+01  1.20100000E+01  1.20100000E+01  1.40100000E+01
  1.40100000E+01  1.00800000E+00  1.00800000E+00  1.00800000E+00  1.00800000E+00
  1.00800000E+00  1.00800000E+00
%FLAG ATOM_TYPE_INDEX                                                           
%FORMAT(10I8)                                                                   
       1       1       1       2       3       4       5       6       7       7
       7       8
%FLAG NUMBER_EXCLUDED_ATOMS                                                     
%FORMAT(10I8)                                                                   
      11       7       9       6       7       3       1       1       2       1
       1       1
%FLAG NONBONDED_PARM_INDEX                                                      
%FORMAT(10I8)                                                                   
       1       2       4       7      11      16      22      29       2       3
       5       8      12      17      23      30       4       5       6       9
      13      18      24      31       7       8       9      10      14      19
      25      32      11      12      13      14      15      20      26      33
      16      17      18      19      20      21      27      34      22      23
      24      25      26      27      28      35      29      30      31      32
      33      34      35      36
%FLAG RESIDUE_LABEL                                                             
%FORMAT(20a4)                                                                   
MOL 
%FLAG RESIDUE_POINTER                                                           
%FORMAT(10I8)                                                                   
       1
%FLAG BOND_FORCE_CONSTANT                                                       
%FORMAT(5E16.8)                                                                 
  3.86240000E+02  3.35500000E+02  3.68720000E+02  4.19720000E+02  3.66970000E+02
  2.53870000E+02  3.45930000E+02  3.45250000E+02  4.81770000E+02
%FLAG BOND_EQUIL_VALUE                                                          
%FORMAT(5E16.8)                                                                 
  1.37300000E+00  1.38030000E+00  1.08090000E+00  1.31580000E+00  1.08200000E+00
  1.50180000E+00  1.37130000E+00  1.09620000E+00  1.00950000E+00
%FLAG ANGLE_FORCE_CONSTANT                                                      
%FORMAT(5E16.8)                                                                 
  6.00600000E+01  7.14500000E+01  8.31100000E+01  5.54300000E+01  8.73500000E+01
  7.28100000E+01  4.39500000E+01  4.39500000E+01  6.53000000E+01  7.69700000E+01
  4.88600000E+01  4.79900000E+01  4.78300000E+01  3.58000000E+01
%FLAG ANGLE_EQUIL_VALUE                                                         
%FORMAT(5E16.8)                                                                 
  2.21098404E+00  1.94743921E+00  1.92824058E+00  2.19335621E+00  1.83905422E+00
  1.86313978E+00  2.25339556E+00  1.93068405E+00  2.10992944E+00  1.95494413E+00
  2.19248355E+00  2.11202383E+00  2.12546287E+00  1.88024401E+00
%FLAG DIHEDRAL_FORCE_CONSTANT                                                   
%FORMAT(5E16.8)                                                                 
  0.00000000E+00  4.75000000E+00  1.70000000E+00  4.00000000E+00  1.10000000E+00
%FLAG DIHEDRAL_PERIODICITY                                                      
%FORMAT(5E16.8)                                                                 
  3.00000000E+00  2.00000000E+00  2.00000000E+00  2.00000000E+00  2.00000000E+00
%FLAG DIHEDRAL_PHASE                                                            
%FORMAT(5E16.8)                                                                 
  0.00000000E+00  3.14159400E+00  3.14159400E+00  3.14159400E+00  3.14159400E+00
%FLAG SCEE_SCALE_FACTOR                                                         
%FORMAT(5E16.8)                                                                 
  1.20000000E+00  1.20000000E+00  1.20000000E+00  1.20000000E+00  0.00000000E+00
%FLAG SCNB_SCALE_FACTOR                                                         
%FORMAT(5E16.8)                                                                 
  2.00000000E+00  2.00000000E+00  2.00000000E+00  2.00000000E+00  0.00000000E+00
%FLAG SOLTY                                                                     
%FORMAT(5E16.8)                                                                 
  0.00000000E+00  0.00000000E+00  0.00000000E+00  0.00000000E+00  0.00000000E+00
  0.00000000E+00  0.00000000E+00  0.00000000E+00  0.00000000E+00
%FLAG LENNARD_JONES_ACOEF                                                       
%FORMAT(5E16.8)                                                                 
  6.96551276E+05  8.43969952E+05  1.02073671E+06  7.69642101E+05  9.31115275E+05
  8.49322032E+05  8.20152428E+05  9.96191545E+05  9.08092643E+05  9.62429652E+05
  6.27751680E+04  7.75673747E+04  7.05112106E+04  7.19580450E+04  4.56536476E+03
  5.22195041E+04  6.46910138E+04  5.87815925E+04  5.96470418E+04  3.69092714E+03
  2.97255425E+03  8.12662403E+04  1.00235148E+05  9.11435380E+04  9.33839501E+04
  6.02863188E+03  4.88692384E+03  7.94617769E+03  1.71458823E+03  2.23577481E+03
  2.01475241E+03  1.82491629E+03  6.76796831E+01  5.02830284E+01  9.47421632E+01
  1.34728399E-01
%FLAG LENNARD_JONES_BCOEF                                                       
%FORMAT(5E16.8)                                                                 
  5.24668528E+02  5.90251928E+02  6.63431737E+02  5.44830041E+02  6.12468585E+02
  5.65406768E+02  6.82622272E+02  7.68900328E+02  7.09588248E+02  8.86629877E+02
  1.00073628E+02  1.13692208E+02  1.04776275E+02  1.28466555E+02  1.71467049E+01
  9.12729468E+01  1.03827676E+02  9.56653235E+01  1.16962018E+02  1.54173833E+01
  1.38359132E+01  1.21392023E+02  1.37787728E+02  1.27000718E+02  1.56025608E+02
  2.10068861E+01  1.89134207E+01  2.57122925E+01  1.46824710E+01  1.71355763E+01
  1.57231024E+01  1.81620725E+01  1.85338491E+00  1.59752321E+00  2.33785449E+00
  7.34107347E-02
%FLAG BONDS_INC_HYDROGEN                                                        
%FORMAT(10I8)                                                                   
       0      18       3       3      21       5       9      24       8       9
      27       8       9      30       8      15      33       9
%FLAG BONDS_WITHOUT_HYDROGEN                                                    
%FORMAT(10I8)                                                                   
       0       6       1       0      15       2       3      12       4       3
      15       2       6       9       6       6      12       7
%FLAG ANGLES_INC_HYDROGEN                                                       
%FORMAT(10I8)                                                                   
       0      15      33       4       3      15      33       4       6       0
      18       7       6       9      24       8       6       9      27       8
       6       9      30       8      12       3      21      11      15       0
      18      12      15       3      21      13      24       9      27      14
      24       9      30      14      27       9      30      14
%FLAG ANGLES_WITHOUT_HYDROGEN                                                   
%FORMAT(10I8)                                                                   
       0       6       9       1       0       6      12       2       0      15
       3       3       3      12       6       5       6       0      15       6
       9       6      12       9      12       3      15      10
%FLAG DIHEDRALS_INC_HYDROGEN                                                    
%FORMAT(10I8)                                                                   
       0       6       9      24       1       0       6       9      27       1
       0       6       9      30       1       0      15       3      21       3
      18       0      15       3       3       6       0      15      33       3
       6      12       3      21       2      18       0       6       9       4
      12       3      15      33       3      18       0       6      12       4
      12       6       9      24       1      12       6       9      27       1
      12       6       9      30       1      18       0      15      33       3
      21       3      15      33       3      15       0     -18      -6       5
      21      15      -3     -12       5       0       3     -15     -33       5
%FLAG DIHEDRALS_WITHOUT_HYDROGEN                                                
%FORMAT(10I8)                                                                   
       0       6     -12       3       2       0      15      -3      12       3
       3      12       6       9       2       6       0     -15       3       3
       6      12      -3      15       2      15       0       6       9       4
      15       0      -6      12       4       9       0      -6     -12       5
%FLAG EXCLUDED_ATOMS_LIST                                                       
%FORMAT(10I8)                                                                   
       2       3       4       5       6       7       8       9      10      11
      12       3       4       5       6       7       8      12       4       5
       6       7       8       9      10      11      12       5       6       7
       9      10      11       6       7       8       9      10      11      12
       7       8      12      12      12      10      11      11       0       0
%FLAG HBOND_ACOEF                                                               
%FORMAT(5E16.8)                                                                 

%FLAG HBOND_BCOEF                                                               
%FORMAT(5E16.8)                                                                 

%FLAG HBCUT                                                                     
%FORMAT(5E16.8)                                                                 

%FLAG AMBER_ATOM_TYPE                                                           
%FORMAT(20a4)                                                                   
cc  cc  cd  c3  nd  na  h4  h5  hc  hc  hc  hn  
%FLAG TREE_CHAIN_CLASSIFICATION                                                 
%FORMAT(20a4)                                                                   
BLA BLA BLA BLA BLA BLA BLA BLA BLA BLA BLA BLA 
%FLAG JOIN_ARRAY                                                                
%FORMAT(10I8)                                                                   
       0       0       0       0       0       0       0       0       0       0
       0       0
%FLAG IROTAT                                                                    
%FORMAT(10I8)                                                                   
       0       0       0       0       0       0       0       0       0       0
       0       0
%FLAG RADIUS_SET                                                                
%FORMAT(1a80)                                                                   
modified Bondi radii (mbondi)                                                   
%FLAG RADII                                                                     
%FORMAT(5E16.8)                                                                 
  1.70000000E+00  1.70000000E+00  1.70000000E+00  1.70000000E+00  1.55000000E+00
  1.55000000E+00  1.30000000E+00  1.30000000E+00  1.30000000E+00  1.30000000E+00
  1.30000000E+00  1.30000000E+00
%FLAG SCREEN                                                                    
%FORMAT(5E16.8)                                                                 
  7.20000000E-01  7.20000000E-01  7.20000000E-01  7.20000000E-01  7.90000000E-01
  7.90000000E-01  8.50000000E-01  8.50000000E-01  8.50000000E-01  8.50000000E-01
  8.50000000E-01  8.50000000E-01
%FLAG IPOL                                                                      
%FORMAT(1I8)                                                                    
       0
