mobley_5732611_GMX.gro created by acpype (v: 2023.10.27) on Wed May 20 23:46:55 2026
 12
    1  MOL   C1    1   0.078  -0.022   0.071
    1  MOL   C2    2   0.172  -0.067   0.266
    1  MOL   C3    3   0.215  -0.034   0.060
    1  MOL   C4    4   0.298  -0.022  -0.061
    1  MOL   N1    5   0.272  -0.063   0.181
    1  MOL   N2    6   0.052  -0.043   0.204
    1  MOL   H1    7  -0.000  -0.000   0.000
    1  MOL   H2    8   0.178  -0.087   0.372
    1  MOL   H3    9   0.389  -0.083  -0.053
    1  MOL   H4   10   0.244  -0.053  -0.152
    1  MOL   H5   11   0.329   0.083  -0.078
    1  MOL   H6   12  -0.039  -0.041   0.248
    8.54600     3.38800    10.48000
