4_methyl_1h_imidazole
    12
   0.7820000  -0.2150000   0.7130000   1.7160000  -0.6690000   2.6570000
   2.1470000  -0.3430000   0.5980000   2.9750000  -0.2150000  -0.6110000
   2.7220000  -0.6260000   1.8120000   0.5220000  -0.4260000   2.0380000
  -0.0020000  -0.0010000   0.0020000   1.7830000  -0.8690000   3.7170000
   3.8850000  -0.8300000  -0.5340000   2.4450000  -0.5340000  -1.5230000
   3.2930000   0.8250000  -0.7840000  -0.3880000  -0.4060000   2.4800000
