; mobley_5732611_GMX_OPLS.top created by acpype (v: 2023.10.27) on Wed May 20 23:46:55 2026

; Include forcefield parameters
#include "ffoplsaa.itp"

; Include mobley_5732611_GMX.itp topology
#include "mobley_5732611_GMX.itp"

; Ligand position restraints
#ifdef POSRES_LIG
#include "posre_mobley_5732611.itp"
#endif

[ system ]
 mobley_5732611

[ molecules ]
; Compound        nmols
 mobley_5732611   1     
