mobley_4364398_GMX.gro created by acpype (v: 2023.10.27) on Thu May 21 00:01:26 2026
    5
    1MOL     C1    1   2.146   2.126   2.124
    1MOL     I1    2   2.021   2.228   2.260
    1MOL     H1    3   2.212   2.196   2.071
    1MOL     H2    4   2.209   2.053   2.175
    1MOL     H3    5   2.087   2.073   2.049
   4.27060   4.27060   4.27060
