mobley_4364398_GMX.gro created by acpype (v: 2023.10.27) on Thu May 21 00:01:26 2026
 7835
    1MOL     C1    1   2.146   2.126   2.124
    1MOL     I1    2   2.021   2.228   2.260
    1MOL     H1    3   2.212   2.196   2.071
    1MOL     H2    4   2.209   2.053   2.175
    1MOL     H3    5   2.087   2.073   2.049
    2SOL     OW    6   0.230   0.628   0.113
    2SOL    HW1    7   0.137   0.626   0.150
    2SOL    HW2    8   0.231   0.589   0.021
    3SOL     OW    9   0.225   0.275   0.996
    3SOL    HW1   10   0.260   0.258   1.088
    3SOL    HW2   11   0.137   0.230   0.984
    4SOL     OW   12   0.019   0.368   0.647
    4SOL    HW1   13  -0.063   0.411   0.686
    4SOL    HW2   14  -0.009   0.295   0.584
    5SOL     OW   15   0.569   1.275   1.165
    5SOL    HW1   16   0.476   1.268   1.128
    5SOL    HW2   17   0.580   1.364   1.209
    6SOL     OW   18   1.555   1.511   0.703
    6SOL    HW1   19   1.498   1.495   0.784
    6SOL    HW2   20   1.496   1.521   0.623
    7SOL     OW   21   1.135   0.703   0.717
    7SOL    HW1   22   1.192   0.781   0.692
    7SOL    HW2   23   1.075   0.729   0.793
    8SOL     OW   24   1.755   0.607   0.231
    8SOL    HW1   25   1.743   0.594   0.132
    8SOL    HW2   26   1.725   0.526   0.280
    9SOL     OW   27   0.768   1.144   1.023
    9SOL    HW1   28   0.690   1.161   1.083
    9SOL    HW2   29   0.802   1.231   0.987
   10SOL     OW   30   0.850   0.798   1.823
   10SOL    HW1   31   0.846   0.874   1.888
   10SOL    HW2   32   0.872   0.834   1.732
   11SOL     OW   33   0.685   1.012   0.665
   11SOL    HW1   34   0.754   0.996   0.735
   11SOL    HW2   35   0.612   1.069   0.703
   12SOL     OW   36   0.686   1.161   1.803
   12SOL    HW1   37   0.746   1.240   1.817
   12SOL    HW2   38   0.600   1.192   1.762
   13SOL     OW   39   0.335   1.435   1.061
   13SOL    HW1   40   0.257   1.404   1.008
   13SOL    HW2   41   0.393   1.493   1.004
   14SOL     OW   42   1.460   1.505   1.339
   14SOL    HW1   43   1.484   1.599   1.365
   14SOL    HW2   44   1.444   1.451   1.421
   15SOL     OW   45   0.438   0.392   1.499
   15SOL    HW1   46   0.520   0.336   1.508
   15SOL    HW2   47   0.357   0.334   1.503
   16SOL     OW   48   1.603   0.447   0.737
   16SOL    HW1   49   1.529   0.493   0.687
   16SOL    HW2   50   1.654   0.515   0.790
   17SOL     OW   51   0.231   1.713   0.483
   17SOL    HW1   52   0.265   1.790   0.537
   17SOL    HW2   53   0.275   1.713   0.393
   18SOL     OW   54   1.127   1.341   1.690
   18SOL    HW1   55   1.174   1.341   1.778
   18SOL    HW2   56   1.079   1.254   1.679
   19SOL     OW   57   0.230   1.434   0.538
   19SOL    HW1   58   0.204   1.530   0.538
   19SOL    HW2   59   0.159   1.380   0.583
   20SOL     OW   60   0.240   1.091   0.886
   20SOL    HW1   61   0.254   1.007   0.938
   20SOL    HW2   62   0.185   1.155   0.941
   21SOL     OW   63   0.620   1.786   1.439
   21SOL    HW1   64   0.528   1.769   1.474
   21SOL    HW2   65   0.648   1.878   1.465
   22SOL     OW   66   0.606   0.964   0.123
   22SOL    HW1   67   0.613   1.048   0.069
   22SOL    HW2   68   0.652   0.977   0.211
   23SOL     OW   69   1.594   0.114   1.480
   23SOL    HW1   70   1.576   0.181   1.408
   23SOL    HW2   71   1.591   0.160   1.569
   24SOL     OW   72   0.122   0.643   0.563
   24SOL    HW1   73   0.077   0.555   0.580
   24SOL    HW2   74   0.121   0.697   0.647
   25SOL     OW   75   1.842   1.767   0.359
   25SOL    HW1   76   1.896   1.738   0.439
   25SOL    HW2   77   1.872   1.857   0.330
   26SOL     OW   78   0.027   1.596   0.117
   26SOL    HW1   79   0.008   1.500   0.138
   26SOL    HW2   80  -0.006   1.654   0.192
   27SOL     OW   81   1.689   0.922   0.612
   27SOL    HW1   82   1.784   0.893   0.620
   27SOL    HW2   83   1.681   0.987   0.537
   28SOL     OW   84   1.641   1.108   0.432
   28SOL    HW1   85   1.727   1.110   0.380
   28SOL    HW2   86   1.655   1.155   0.520
   29SOL     OW   87   0.113   0.737   1.597
   29SOL    HW1   88   0.201   0.724   1.642
   29SOL    HW2   89   0.100   0.834   1.575
   30SOL     OW   90   0.613   1.365   0.726
   30SOL    HW1   91   0.564   1.278   0.735
   30SOL    HW2   92   0.590   1.408   0.639
   31SOL     OW   93   1.293   1.228   1.423
   31SOL    HW1   94   1.330   1.155   1.365
   31SOL    HW2   95   1.345   1.233   1.508
   32SOL     OW   96   0.809   0.004   0.502
   32SOL    HW1   97   0.849   0.095   0.493
   32SOL    HW2   98   0.709   0.012   0.508
   33SOL     OW   99   0.197   0.976   1.264
   33SOL    HW1  100   0.286   0.931   1.250
   33SOL    HW2  101   0.124   0.911   1.245
   34SOL     OW  102   1.525   0.999   0.190
   34SOL    HW1  103   1.462   0.923   0.203
   34SOL    HW2  104   1.573   1.017   0.276
   35SOL     OW  105   1.187   1.792   1.616
   35SOL    HW1  106   1.211   1.852   1.540
   35SOL    HW2  107   1.194   1.697   1.586
   36SOL     OW  108   0.317   0.251   1.801
   36SOL    HW1  109   0.388   0.322   1.807
   36SOL    HW2  110   0.229   0.290   1.829
   37SOL     OW  111   1.466   1.417   0.953
   37SOL    HW1  112   1.407   1.423   1.033
   37SOL    HW2  113   1.451   1.329   0.907
   38SOL     OW  114   1.667   1.714   0.572
   38SOL    HW1  115   1.626   1.691   0.484
   38SOL    HW2  116   1.649   1.640   0.637
   39SOL     OW  117   0.598   0.729   0.270
   39SOL    HW1  118   0.622   0.798   0.202
   39SOL    HW2  119   0.520   0.762   0.324
   40SOL     OW  120   1.281   0.345   0.944
   40SOL    HW1  121   1.195   0.295   0.931
   40SOL    HW2  122   1.343   0.291   1.000
   41SOL     OW  123   1.576   1.662   0.307
   41SOL    HW1  124   1.665   1.708   0.310
   41SOL    HW2  125   1.555   1.638   0.212
   42SOL     OW  126   0.807   0.605   1.465
   42SOL    HW1  127   0.760   0.602   1.554
   42SOL    HW2  128   0.756   0.550   1.399
   43SOL     OW  129   1.394   0.469   1.674
   43SOL    HW1  130   1.374   0.512   1.762
   43SOL    HW2  131   1.472   0.407   1.683
   44SOL     OW  132   0.973   0.890   1.572
   44SOL    HW1  133   1.019   0.806   1.543
   44SOL    HW2  134   0.917   0.924   1.497
   45SOL     OW  135   0.991   0.410   1.242
   45SOL    HW1  136   0.914   0.444   1.296
   45SOL    HW2  137   0.957   0.359   1.163
   46SOL     OW  138   1.041   0.701   0.429
   46SOL    HW1  139   1.067   0.697   0.525
   46SOL    HW2  140   0.956   0.650   0.415
   47SOL     OW  141   0.076   0.811   0.789
   47SOL    HW1  142   0.175   0.799   0.798
   47SOL    HW2  143   0.052   0.906   0.810
   48SOL     OW  144   0.130   1.821   1.571
   48SOL    HW1  145   0.120   1.806   1.670
   48SOL    HW2  146   0.044   1.857   1.535
   49SOL     OW  147   0.865   0.348   0.195
   49SOL    HW1  148   0.924   0.411   0.146
   49SOL    HW2  149   0.884   0.254   0.166
   50SOL     OW  150   1.719   0.585   1.831
   50SOL    HW1  151   1.693   0.674   1.795
   50SOL    HW2  152   1.717   0.517   1.758
   51SOL     OW  153   1.362   1.144   0.545
   51SOL    HW1  154   1.445   1.115   0.497
   51SOL    HW2  155   1.313   1.211   0.489
   52SOL     OW  156   0.550   0.196   0.885
   52SOL    HW1  157   0.545   0.191   0.985
   52SOL    HW2  158   0.552   0.292   0.856
   53SOL     OW  159   1.008   1.456   0.477
   53SOL    HW1  160   0.962   1.528   0.425
   53SOL    HW2  161   1.004   1.476   0.575
   54SOL     OW  162   0.351   1.801   0.853
   54SOL    HW1  163   0.401   1.715   0.859
   54SOL    HW2  164   0.416   1.878   0.850
   55SOL     OW  165   1.795   1.066   0.873
   55SOL    HW1  166   1.733   1.051   0.797
   55SOL    HW2  167   1.743   1.077   0.958
   56SOL     OW  168   1.227   1.550   1.506
   56SOL    HW1  169   1.233   1.473   1.570
   56SOL    HW2  170   1.175   1.524   1.426
   57SOL     OW  171   0.321   0.943   0.242
   57SOL    HW1  172   0.403   0.982   0.200
   57SOL    HW2  173   0.294   0.861   0.193
   58SOL     OW  174   1.458   0.735   0.728
   58SOL    HW1  175   1.453   0.670   0.803
   58SOL    HW2  176   1.538   0.794   0.741
   59SOL     OW  177   0.461   1.266   1.727
   59SOL    HW1  178   0.411   1.267   1.641
   59SOL    HW2  179   0.398   1.248   1.803
   60SOL     OW  180   1.111   1.776   0.237
   60SOL    HW1  181   1.051   1.714   0.287
   60SOL    HW2  182   1.142   1.732   0.152
   61SOL     OW  183   0.202   0.285   1.498
   61SOL    HW1  184   0.122   0.345   1.485
   61SOL    HW2  185   0.192   0.236   1.584
   62SOL     OW  186   1.632   1.377   0.081
   62SOL    HW1  187   1.600   1.471   0.071
   62SOL    HW2  188   1.556   1.314   0.069
   63SOL     OW  189   0.464   1.743   0.323
   63SOL    HW1  190   0.497   1.782   0.409
   63SOL    HW2  191   0.540   1.736   0.258
   64SOL     OW  192   1.400   0.107   0.426
   64SOL    HW1  193   1.376   0.070   0.336
   64SOL    HW2  194   1.499   0.123   0.430
   65SOL     OW  195   0.249   1.785   1.241
   65SOL    HW1  196   0.306   1.720   1.291
   65SOL    HW2  197   0.233   1.752   1.148
   66SOL     OW  198   0.940   1.698   0.904
   66SOL    HW1  199   1.020   1.641   0.925
   66SOL    HW2  200   0.891   1.658   0.827
   67SOL     OW  201   0.382   0.700   0.480
   67SOL    HW1  202   0.427   0.610   0.477
   67SOL    HW2  203   0.288   0.689   0.513
   68SOL     OW  204   1.547   0.222   1.729
   68SOL    HW1  205   1.542   0.259   1.821
   68SOL    HW2  206   1.475   0.153   1.717
   69SOL     OW  207   0.614   0.122   0.117
   69SOL    HW1  208   0.712   0.100   0.124
   69SOL    HW2  209   0.583   0.105   0.024
   70SOL     OW  210   0.781   0.264   1.749
   70SOL    HW1  211   0.848   0.203   1.792
   70SOL    HW2  212   0.708   0.283   1.814
   71SOL     OW  213   0.888   1.514   1.195
   71SOL    HW1  214   0.865   1.489   1.101
   71SOL    HW2  215   0.949   1.445   1.234
   72SOL     OW  216   1.351   0.590   1.433
   72SOL    HW1  217   1.379   0.547   1.518
   72SOL    HW2  218   1.376   0.686   1.434
   73SOL     OW  219   0.803   1.402   0.924
   73SOL    HW1  220   0.893   1.416   0.882
   73SOL    HW2  221   0.732   1.404   0.853
   74SOL     OW  222   0.922   0.503   0.899
   74SOL    HW1  223   0.897   0.494   0.803
   74SOL    HW2  224   0.970   0.421   0.930
   75SOL     OW  225   0.539   0.064   0.512
   75SOL    HW1  226   0.458   0.065   0.570
   75SOL    HW2  227   0.542   0.147   0.457
   76SOL     OW  228   1.434   1.188   0.041
   76SOL    HW1  229   1.466   1.112   0.098
   76SOL    HW2  230   1.342   1.215   0.071
   77SOL     OW  231   0.297   0.035   0.171
   77SOL    HW1  232   0.346   0.119   0.150
   77SOL    HW2  233   0.359  -0.030   0.216
   78SOL     OW  234   0.935   0.236   0.480
   78SOL    HW1  235   0.887   0.277   0.402
   78SOL    HW2  236   1.034   0.234   0.461
   79SOL     OW  237   1.076   0.683   1.464
   79SOL    HW1  238   0.996   0.622   1.467
   79SOL    HW2  239   1.157   0.630   1.440
   80SOL     OW  240   1.227   1.570   0.793
   80SOL    HW1  241   1.248   1.644   0.728
   80SOL    HW2  242   1.295   1.570   0.866
   81SOL     OW  243   0.459   1.152   0.741
   81SOL    HW1  244   0.388   1.125   0.806
   81SOL    HW2  245   0.433   1.124   0.648
   82SOL     OW  246   1.271   1.797   0.591
   82SOL    HW1  247   1.315   1.861   0.527
   82SOL    HW2  248   1.221   1.849   0.661
   83SOL     OW  249   1.032   0.549   0.016
   83SOL    HW1  250   0.991   0.631  -0.023
   83SOL    HW2  251   1.096   0.575   0.089
   84SOL     OW  252   0.078   0.556   1.386
   84SOL    HW1  253   0.170   0.555   1.345
   84SOL    HW2  254   0.072   0.630   1.453
   85SOL     OW  255   0.561   0.222   1.147
   85SOL    HW1  256   0.599   0.138   1.184
   85SOL    HW2  257   0.473   0.241   1.191
   86SOL     OW  258   0.866   0.454   0.642
   86SOL    HW1  259   0.834   0.526   0.580
   86SOL    HW2  260   0.890   0.373   0.589
   87SOL     OW  261   1.017   0.039   0.753
   87SOL    HW1  262   0.945   0.044   0.684
   87SOL    HW2  263   0.993  -0.030   0.822
   88SOL     OW  264   1.429   1.173   0.867
   88SOL    HW1  265   1.374   1.089   0.860
   88SOL    HW2  266   1.455   1.202   0.775
   89SOL     OW  267   1.466   0.590   0.992
   89SOL    HW1  268   1.436   0.495   0.999
   89SOL    HW2  269   1.539   0.606   1.058
   90SOL     OW  270   1.857   0.833   0.377
   90SOL    HW1  271   1.899   0.769   0.441
   90SOL    HW2  272   1.819   0.782   0.299
   91SOL     OW  273   0.488   1.385   0.174
   91SOL    HW1  274   0.401   1.370   0.221
   91SOL    HW2  275   0.471   1.411   0.079
   92SOL     OW  276   1.664   1.280   0.657
   92SOL    HW1  277   1.763   1.288   0.671
   92SOL    HW2  278   1.619   1.364   0.688
   93SOL     OW  279   1.390   0.575   0.078
   93SOL    HW1  280   1.336   0.554   0.159
   93SOL    HW2  281   1.481   0.534   0.087
   94SOL     OW  282   0.527   0.256   0.328
   94SOL    HW1  283   0.554   0.197   0.253
   94SOL    HW2  284   0.527   0.351   0.297
   95SOL     OW  285   1.754   1.223   1.588
   95SOL    HW1  286   1.845   1.184   1.575
   95SOL    HW2  287   1.762   1.319   1.612
   96SOL     OW  288   1.064   1.347   1.340
   96SOL    HW1  289   0.984   1.324   1.395
   96SOL    HW2  290   1.147   1.321   1.389
   97SOL     OW  291   1.592   1.629   1.625
   97SOL    HW1  292   1.619   1.663   1.535
   97SOL    HW2  293   1.671   1.591   1.671
   98SOL     OW  294   1.111   1.195   1.100
   98SOL    HW1  295   1.071   1.239   1.181
   98SOL    HW2  296   1.070   1.232   1.017
   99SOL     OW  297   1.638   1.099   1.079
   99SOL    HW1  298   1.643   1.180   1.138
   99SOL    HW2  299   1.552   1.101   1.028
  100SOL     OW  300   0.915   0.089   1.402
  100SOL    HW1  301   0.940   0.069   1.307
  100SOL    HW2  302   0.987   0.145   1.444
  101SOL     OW  303   0.980   1.116   1.719
  101SOL    HW1  304   0.881   1.122   1.729
  101SOL    HW2  305   1.003   1.036   1.663
  102SOL     OW  306   0.705   1.050   0.368
  102SOL    HW1  307   0.691   1.057   0.467
  102SOL    HW2  308   0.789   0.999   0.350
  103SOL     OW  309   0.410   0.813   1.251
  103SOL    HW1  310   0.496   0.825   1.301
  103SOL    HW2  311   0.368   0.726   1.278
  104SOL     OW  312   1.274   0.386   1.262
  104SOL    HW1  313   1.295   0.460   1.326
  104SOL    HW2  314   1.185   0.403   1.219
  105SOL     OW  315   0.064   1.564   1.331
  105SOL    HW1  316   0.018   1.646   1.297
  105SOL    HW2  317   0.162   1.583   1.340
  106SOL     OW  318   0.367   1.100   0.501
  106SOL    HW1  319   0.360   1.183   0.445
  106SOL    HW2  320   0.371   1.020   0.441
  107SOL     OW  321   0.566   0.537   0.865
  107SOL    HW1  322   0.578   0.603   0.791
  107SOL    HW2  323   0.612   0.571   0.948
  108SOL     OW  324   1.252   1.348   0.388
  108SOL    HW1  325   1.302   1.425   0.428
  108SOL    HW2  326   1.157   1.350   0.420
  109SOL     OW  327   1.272   1.445   1.142
  109SOL    HW1  328   1.319   1.458   1.229
  109SOL    HW2  329   1.206   1.371   1.151
  110SOL     OW  330   1.582   0.639   0.472
  110SOL    HW1  331   1.551   0.700   0.545
  110SOL    HW2  332   1.632   0.691   0.403
  111SOL     OW  333   0.354   1.510   1.329
  111SOL    HW1  334   0.333   1.466   1.242
  111SOL    HW2  335   0.451   1.536   1.332
  112SOL     OW  336   0.402   0.751   1.598
  112SOL    HW1  337   0.470   0.806   1.551
  112SOL    HW2  338   0.442   0.663   1.625
  113SOL     OW  339   1.587   0.779   1.670
  113SOL    HW1  340   1.495   0.817   1.665
  113SOL    HW2  341   1.647   0.826   1.605
  114SOL     OW  342   1.013   0.105   1.770
  114SOL    HW1  343   1.019   0.190   1.718
  114SOL    HW2  344   1.045   0.029   1.713
  115SOL     OW  345   0.504   0.050   1.740
  115SOL    HW1  346   0.462  -0.007   1.670
  115SOL    HW2  347   0.438   0.119   1.772
  116SOL     OW  348   0.573   0.870   1.029
  116SOL    HW1  349   0.617   0.959   1.020
  116SOL    HW2  350   0.510   0.870   1.106
  117SOL     OW  351   1.360   0.862   1.045
  117SOL    HW1  352   1.285   0.862   0.979
  117SOL    HW2  353   1.397   0.770   1.054
  118SOL     OW  354   1.209   0.525   0.275
  118SOL    HW1  355   1.222   0.441   0.329
  118SOL    HW2  356   1.180   0.599   0.335
  119SOL     OW  357   0.307   0.213   1.231
  119SOL    HW1  358   0.284   0.250   1.321
  119SOL    HW2  359   0.277   0.118   1.225
  120SOL     OW  360   0.037   1.310   1.282
  120SOL    HW1  361   0.090   1.261   1.350
  120SOL    HW2  362   0.059   1.408   1.287
  121SOL     OW  363   0.732   0.634   1.064
  121SOL    HW1  364   0.791   0.608   0.988
  121SOL    HW2  365   0.704   0.730   1.053
  122SOL     OW  366   1.728   0.935   1.854
  122SOL    HW1  367   1.682   0.928   1.765
  122SOL    HW2  368   1.666   0.979   1.920
  123SOL     OW  369   0.307   0.063   0.618
  123SOL    HW1  370   0.296   0.157   0.651
  123SOL    HW2  371   0.302   0.000   0.695
  124SOL     OW  372   1.622   0.367   0.374
  124SOL    HW1  373   1.624   0.291   0.438
  124SOL    HW2  374   1.574   0.444   0.414
  125SOL     OW  375   1.023   0.766   0.966
  125SOL    HW1  376   1.038   0.787   1.062
  125SOL    HW2  377   0.993   0.671   0.957
  126SOL     OW  378   0.980   1.573   1.700
  126SOL    HW1  379   0.960   1.617   1.612
  126SOL    HW2  380   1.019   1.482   1.684
  127SOL     OW  381   1.859   1.518   1.605
  127SOL    HW1  382   1.873   1.545   1.510
  127SOL    HW2  383   1.942   1.540   1.658
  128SOL     OW  384   0.350   0.898   1.804
  128SOL    HW1  385   0.426   0.942   1.852
  128SOL    HW2  386   0.385   0.851   1.722
  129SOL     OW  387   1.540   0.274   0.125
  129SOL    HW1  388   1.479   0.199   0.148
  129SOL    HW2  389   1.562   0.326   0.208
  130SOL     OW  390   1.303   0.838   0.042
  130SOL    HW1  391   1.337   0.745   0.057
  130SOL    HW2  392   1.321   0.865  -0.053
  131SOL     OW  393   1.068   1.333   0.849
  131SOL    HW1  394   1.075   1.249   0.794
  131SOL    HW2  395   1.130   1.402   0.813
  132SOL     OW  396   0.319   0.810   0.949
  132SOL    HW1  397   0.412   0.846   0.954
  132SOL    HW2  398   0.313   0.725   1.001
  133SOL     OW  399   0.339   0.509   1.006
  133SOL    HW1  400   0.287   0.426   0.989
  133SOL    HW2  401   0.416   0.514   0.942
  134SOL     OW  402   1.138   0.380   1.678
  134SOL    HW1  403   1.093   0.443   1.742
  134SOL    HW2  404   1.231   0.411   1.661
  135SOL     OW  405   1.160   0.207   1.477
  135SOL    HW1  406   1.160   0.271   1.554
  135SOL    HW2  407   1.188   0.255   1.394
  136SOL     OW  408   0.008   1.326   0.200
  136SOL    HW1  409  -0.085   1.347   0.169
  136SOL    HW2  410   0.018   1.227   0.213
  137SOL     OW  411   0.088   1.801   0.927
  137SOL    HW1  412   0.046   1.715   0.900
  137SOL    HW2  413   0.182   1.804   0.893
  138SOL     OW  414   0.504   1.568   0.910
  138SOL    HW1  415   0.570   1.642   0.919
  138SOL    HW2  416   0.548   1.489   0.868
  139SOL     OW  417   1.002   0.796   1.238
  139SOL    HW1  418   1.043   0.764   1.324
  139SOL    HW2  419   0.906   0.769   1.235
  140SOL     OW  420   0.040   0.544   1.114
  140SOL    HW1  421   0.125   0.511   1.073
  140SOL    HW2  422   0.053   0.559   1.212
  141SOL     OW  423   0.189   0.520   1.722
  141SOL    HW1  424   0.248   0.480   1.652
  141SOL    HW2  425   0.131   0.591   1.681
  142SOL     OW  426   1.369   0.950   1.660
  142SOL    HW1  427   1.408   1.039   1.680
  142SOL    HW2  428   1.379   0.930   1.563
  143SOL     OW  429   0.815   0.572   0.325
  143SOL    HW1  430   0.822   0.483   0.279
  143SOL    HW2  431   0.721   0.606   0.317
  144SOL     OW  432   1.657   0.604   1.206
  144SOL    HW1  433   1.619   0.535   1.268
  144SOL    HW2  434   1.739   0.568   1.162
  145SOL     OW  435   0.252   1.564   1.744
  145SOL    HW1  436   0.222   1.621   1.820
  145SOL    HW2  437   0.245   1.467   1.770
  146SOL     OW  438   0.671   0.464   1.269
  146SOL    HW1  439   0.637   0.375   1.239
  146SOL    HW2  440   0.697   0.518   1.189
  147SOL     OW  441   0.930   1.678   1.465
  147SOL    HW1  442   0.906   1.660   1.370
  147SOL    HW2  443   0.960   1.772   1.475
  148SOL     OW  444   0.473   0.500   0.191
  148SOL    HW1  445   0.534   0.580   0.195
  148SOL    HW2  446   0.378   0.531   0.198
  149SOL     OW  447   0.159   1.137   1.466
  149SOL    HW1  448   0.181   1.076   1.542
  149SOL    HW2  449   0.169   1.088   1.380
  150SOL     OW  450   1.347   1.059   1.234
  150SOL    HW1  451   1.371   0.996   1.160
  150SOL    HW2  452   1.257   1.099   1.216
  151SOL     OW  453   1.302   0.855   0.309
  151SOL    HW1  454   1.216   0.824   0.351
  151SOL    HW2  455   1.298   0.841   0.210
  152SOL     OW  456   1.759   1.747   1.154
  152SOL    HW1  457   1.820   1.777   1.081
  152SOL    HW2  458   1.721   1.658   1.132
  153SOL     OW  459   1.252   1.731   1.128
  153SOL    HW1  460   1.336   1.736   1.074
  153SOL    HW2  461   1.229   1.635   1.146
  154SOL     OW  462   0.083   1.258   1.022
  154SOL    HW1  463   0.078   1.257   1.122
  154SOL    HW2  464   0.000   1.217   0.984
  155SOL     OW  465   0.688   1.662   1.716
  155SOL    HW1  466   0.632   1.743   1.725
  155SOL    HW2  467   0.740   1.666   1.630
  156SOL     OW  468   0.903   0.086   0.133
  156SOL    HW1  469   0.954   0.087   0.047
  156SOL    HW2  470   0.959   0.044   0.204
  157SOL     OW  471   1.726   0.135   0.523
  157SOL    HW1  472   1.799   0.118   0.456
  157SOL    HW2  473   1.695   0.048   0.561
  158SOL     OW  474   1.388   1.573   0.477
  158SOL    HW1  475   1.455   1.585   0.403
  158SOL    HW2  476   1.348   1.662   0.500
  159SOL     OW  477   0.130   1.794   1.851
  159SOL    HW1  478   0.089   1.720   1.904
  159SOL    HW2  479   0.194   1.845   1.909
  160SOL     OW  480   1.280   0.927   0.672
  160SOL    HW1  481   1.340   0.846   0.674
  160SOL    HW2  482   1.320   0.996   0.612
  161SOL     OW  483   0.830   1.273   1.422
  161SOL    HW1  484   0.825   1.306   1.517
  161SOL    HW2  485   0.744   1.292   1.376
  162SOL     OW  486   0.672   1.616   0.154
  162SOL    HW1  487   0.681   1.626   0.055
  162SOL    HW2  488   0.632   1.527   0.175
  163SOL     OW  489   1.650   1.720   1.394
  163SOL    HW1  490   1.703   1.730   1.310
  163SOL    HW2  491   1.623   1.810   1.428
  164SOL     OW  492   1.841   0.175   0.963
  164SOL    HW1  493   1.880   0.090   0.927
  164SOL    HW2  494   1.743   0.177   0.944
  165SOL     OW  495   0.263   0.326   0.720
  165SOL    HW1  496   0.184   0.377   0.686
  165SOL    HW2  497   0.254   0.311   0.818
  166SOL     OW  498   1.194   1.612   0.031
  166SOL    HW1  499   1.200   1.519   0.068
  166SOL    HW2  500   1.135   1.612  -0.049
  167SOL     OW  501   0.822   1.002   1.372
  167SOL    HW1  502   0.862   1.001   1.280
  167SOL    HW2  503   0.832   1.094   1.412
  168SOL     OW  504   0.916   0.910   0.291
  168SOL    HW1  505   0.979   0.948   0.223
  168SOL    HW2  506   0.956   0.827   0.330
  169SOL     OW  507   1.504   1.607   0.044
  169SOL    HW1  508   1.412   1.644   0.051
  169SOL    HW2  509   1.542   1.627  -0.046
  170SOL     OW  510   0.372   1.288   1.490
  170SOL    HW1  511   0.359   1.381   1.456
  170SOL    HW2  512   0.288   1.236   1.477
  171SOL     OW  513   1.614   1.292   1.289
  171SOL    HW1  514   1.674   1.295   1.369
  171SOL    HW2  515   1.539   1.356   1.302
  172SOL     OW  516   1.039   1.098   0.696
  172SOL    HW1  517   0.969   1.051   0.750
  172SOL    HW2  518   1.098   1.030   0.653
  173SOL     OW  519   1.014   0.236   0.971
  173SOL    HW1  520   1.006   0.200   0.878
  173SOL    HW2  521   1.012   0.160   1.036
  174SOL     OW  522   0.590   1.487   0.491
  174SOL    HW1  523   0.632   1.429   0.421
  174SOL    HW2  524   0.546   1.566   0.447
  175SOL     OW  525   1.709   0.385   1.381
  175SOL    HW1  526   1.782   0.454   1.385
  175SOL    HW2  527   1.737   0.310   1.322
  176SOL     OW  528   0.255   1.348   0.290
  176SOL    HW1  529   0.159   1.349   0.263
  176SOL    HW2  530   0.267   1.401   0.374
  177SOL     OW  531   0.105   1.013   1.726
  177SOL    HW1  532   0.028   0.980   1.780
  177SOL    HW2  533   0.190   0.983   1.768
  178SOL     OW  534   0.672   0.203   1.489
  178SOL    HW1  535   0.762   0.187   1.449
  178SOL    HW2  536   0.680   0.208   1.588
  179SOL     OW  537   0.075   0.345   0.033
  179SOL    HW1  538  -0.017   0.317   0.004
  179SOL    HW2  539   0.106   0.422  -0.023
  180SOL     OW  540   1.440   0.856   1.398
  180SOL    HW1  541   1.383   0.908   1.335
  180SOL    HW2  542   1.536   0.868   1.374
  181SOL     OW  543   0.072   0.166   0.318
  181SOL    HW1  544   0.055   0.249   0.264
  181SOL    HW2  545   0.162   0.129   0.296
  182SOL     OW  546   1.183   1.335   0.119
  182SOL    HW1  547   1.084   1.324   0.121
  182SOL    HW2  548   1.217   1.350   0.212
  183SOL     OW  549   0.613   0.842   1.431
  183SOL    HW1  550   0.669   0.923   1.414
  183SOL    HW2  551   0.672   0.762   1.434
  184SOL     OW  552   1.493   1.767   0.959
  184SOL    HW1  553   1.526   1.831   0.890
  184SOL    HW2  554   1.559   1.761   1.034
  185SOL     OW  555   0.716   0.565   1.708
  185SOL    HW1  556   0.735   0.630   1.782
  185SOL    HW2  557   0.776   0.485   1.717
  186SOL     OW  558   1.450   1.220   1.633
  186SOL    HW1  559   1.441   1.210   1.732
  186SOL    HW2  560   1.546   1.213   1.607
  187SOL     OW  561   0.390   1.741   1.560
  187SOL    HW1  562   0.299   1.782   1.558
  187SOL    HW2  563   0.383   1.647   1.592
  188SOL     OW  564   1.674   0.883   1.254
  188SOL    HW1  565   1.647   0.794   1.217
  188SOL    HW2  566   1.675   0.951   1.181
  189SOL     OW  567   1.225   0.325   0.449
  189SOL    HW1  568   1.290   0.251   0.438
  189SOL    HW2  569   1.245   0.375   0.533
  190SOL     OW  570   0.594   0.745   0.652
  190SOL    HW1  571   0.644   0.830   0.633
  190SOL    HW2  572   0.506   0.747   0.604
  191SOL     OW  573   1.777   0.342   1.642
  191SOL    HW1  574   1.760   0.373   1.548
  191SOL    HW2  575   1.693   0.305   1.680
  192SOL     OW  576   1.730   0.934   1.517
  192SOL    HW1  577   1.768   1.025   1.532
  192SOL    HW2  578   1.722   0.917   1.418
  193SOL     OW  579   0.859   1.374   0.016
  193SOL    HW1  580   0.813   1.389   0.104
  193SOL    HW2  581   0.903   1.459  -0.014
  194SOL     OW  582   0.661   1.790   0.953
  194SOL    HW1  583   0.615   1.878   0.940
  194SOL    HW2  584   0.760   1.802   0.946
  195SOL     OW  585   0.859   0.956   0.861
  195SOL    HW1  586   0.913   0.887   0.909
  195SOL    HW2  587   0.827   1.025   0.927
  196SOL     OW  588   1.083   0.984   0.087
  196SOL    HW1  589   1.060   1.037   0.005
  196SOL    HW2  590   1.164   0.928   0.068
  197SOL     OW  591   1.861   1.569   0.851
  197SOL    HW1  592   1.790   1.557   0.781
  197SOL    HW2  593   1.862   1.490   0.911
  198SOL     OW  594   0.221   1.314   1.844
  198SOL    HW1  595   0.156   1.241   1.823
  198SOL    HW2  596   0.225   1.328   1.942
  199SOL     OW  597   0.079   1.240   0.653
  199SOL    HW1  598   0.078   1.193   0.741
  199SOL    HW2  599   0.161   1.212   0.602
  200SOL     OW  600   0.672   1.391   1.624
  200SOL    HW1  601   0.594   1.341   1.662
  200SOL    HW2  602   0.669   1.486   1.655
  201SOL     OW  603   1.824   0.192   1.227
  201SOL    HW1  604   1.820   0.102   1.271
  201SOL    HW2  605   1.827   0.181   1.128
  202SOL     OW  606   0.428   0.424   0.520
  202SOL    HW1  607   0.458   0.352   0.458
  202SOL    HW2  608   0.389   0.384   0.603
  203SOL     OW  609   1.705   1.487   1.104
  203SOL    HW1  610   1.612   1.462   1.077
  203SOL    HW2  611   1.731   1.437   1.186
  204SOL     OW  612   0.317   0.547   1.280
  204SOL    HW1  613   0.355   0.488   1.352
  204SOL    HW2  614   0.357   0.521   1.192
  205SOL     OW  615   0.812   1.586   0.687
  205SOL    HW1  616   0.844   1.596   0.593
  205SOL    HW2  617   0.733   1.524   0.689
  206SOL     OW  618   1.424   0.214   1.112
  206SOL    HW1  619   1.476   0.149   1.167
  206SOL    HW2  620   1.375   0.277   1.173
  207SOL     OW  621   1.001   0.034   1.154
  207SOL    HW1  622   0.938  -0.038   1.123
  207SOL    HW2  623   1.094  -0.002   1.154
  208SOL     OW  624   0.770   1.330   0.301
  208SOL    HW1  625   0.724   1.243   0.318
  208SOL    HW2  626   0.861   1.327   0.342
  209SOL     OW  627   0.618   1.567   1.284
  209SOL    HW1  628   0.613   1.649   1.341
  209SOL    HW2  629   0.707   1.564   1.239
  210SOL     OW  630   1.352   0.052   0.168
  210SOL    HW1  631   1.387   0.011   0.084
  210SOL    HW2  632   1.262   0.014   0.188
  211SOL     OW  633   1.300   0.453   0.691
  211SOL    HW1  634   1.241   0.533   0.695
  211SOL    HW2  635   1.315   0.418   0.784
  212SOL     OW  636   1.593   0.221   0.882
  212SOL    HW1  637   1.509   0.220   0.936
  212SOL    HW2  638   1.595   0.304   0.826
  213SOL     OW  639   0.039   1.077   0.300
  213SOL    HW1  640   0.138   1.066   0.291
  213SOL    HW2  641  -0.001   0.991   0.332
  214SOL     OW  642   0.875   1.646   0.337
  214SOL    HW1  643   0.798   1.611   0.283
  214SOL    HW2  644   0.843   1.717   0.399
  215SOL     OW  645   0.230   0.628   1.975
  215SOL    HW1  646   0.137   0.626   2.012
  215SOL    HW2  647   0.231   0.589   1.883
  216SOL     OW  648   0.225   0.275   2.858
  216SOL    HW1  649   0.260   0.258   2.950
  216SOL    HW2  650   0.137   0.230   2.846
  217SOL     OW  651   0.019   0.368   2.509
  217SOL    HW1  652  -0.063   0.411   2.548
  217SOL    HW2  653  -0.009   0.295   2.446
  218SOL     OW  654   0.569   1.275   3.027
  218SOL    HW1  655   0.476   1.268   2.990
  218SOL    HW2  656   0.580   1.364   3.071
  219SOL     OW  657   1.555   1.511   2.565
  219SOL    HW1  658   1.498   1.495   2.646
  219SOL    HW2  659   1.496   1.521   2.485
  220SOL     OW  660   1.135   0.703   2.579
  220SOL    HW1  661   1.192   0.781   2.554
  220SOL    HW2  662   1.075   0.729   2.655
  221SOL     OW  663   1.755   0.607   2.093
  221SOL    HW1  664   1.743   0.594   1.994
  221SOL    HW2  665   1.725   0.526   2.142
  222SOL     OW  666   0.768   1.144   2.885
  222SOL    HW1  667   0.690   1.161   2.945
  222SOL    HW2  668   0.802   1.231   2.849
  223SOL     OW  669   0.850   0.798   3.685
  223SOL    HW1  670   0.846   0.874   3.750
  223SOL    HW2  671   0.872   0.834   3.594
  224SOL     OW  672   0.685   1.012   2.527
  224SOL    HW1  673   0.754   0.996   2.597
  224SOL    HW2  674   0.612   1.069   2.565
  225SOL     OW  675   0.686   1.161   3.665
  225SOL    HW1  676   0.746   1.240   3.679
  225SOL    HW2  677   0.600   1.192   3.624
  226SOL     OW  678   0.335   1.435   2.923
  226SOL    HW1  679   0.257   1.404   2.870
  226SOL    HW2  680   0.393   1.493   2.866
  227SOL     OW  681   1.460   1.505   3.201
  227SOL    HW1  682   1.484   1.599   3.227
  227SOL    HW2  683   1.444   1.451   3.283
  228SOL     OW  684   0.438   0.392   3.361
  228SOL    HW1  685   0.520   0.336   3.370
  228SOL    HW2  686   0.357   0.334   3.365
  229SOL     OW  687   1.603   0.447   2.599
  229SOL    HW1  688   1.529   0.493   2.549
  229SOL    HW2  689   1.654   0.515   2.652
  230SOL     OW  690   0.231   1.713   2.345
  230SOL    HW1  691   0.265   1.790   2.399
  230SOL    HW2  692   0.275   1.713   2.255
  231SOL     OW  693   1.127   1.341   3.552
  231SOL    HW1  694   1.174   1.341   3.640
  231SOL    HW2  695   1.079   1.254   3.541
  232SOL     OW  696   0.230   1.434   2.400
  232SOL    HW1  697   0.204   1.530   2.400
  232SOL    HW2  698   0.159   1.380   2.445
  233SOL     OW  699   0.240   1.091   2.748
  233SOL    HW1  700   0.254   1.007   2.800
  233SOL    HW2  701   0.185   1.155   2.803
  234SOL     OW  702   0.620   1.786   3.301
  234SOL    HW1  703   0.528   1.769   3.336
  234SOL    HW2  704   0.648   1.878   3.327
  235SOL     OW  705   0.606   0.964   1.985
  235SOL    HW1  706   0.613   1.048   1.931
  235SOL    HW2  707   0.652   0.977   2.073
  236SOL     OW  708   1.594   0.114   3.342
  236SOL    HW1  709   1.576   0.181   3.270
  236SOL    HW2  710   1.591   0.160   3.431
  237SOL     OW  711   0.122   0.643   2.425
  237SOL    HW1  712   0.077   0.555   2.442
  237SOL    HW2  713   0.121   0.697   2.509
  238SOL     OW  714   1.842   1.767   2.221
  238SOL    HW1  715   1.896   1.738   2.301
  238SOL    HW2  716   1.872   1.857   2.192
  239SOL     OW  717   0.027   1.596   1.979
  239SOL    HW1  718   0.008   1.500   2.000
  239SOL    HW2  719  -0.006   1.654   2.054
  240SOL     OW  720   1.689   0.922   2.474
  240SOL    HW1  721   1.784   0.893   2.482
  240SOL    HW2  722   1.681   0.987   2.399
  241SOL     OW  723   1.641   1.108   2.294
  241SOL    HW1  724   1.727   1.110   2.242
  241SOL    HW2  725   1.655   1.155   2.382
  242SOL     OW  726   0.113   0.737   3.459
  242SOL    HW1  727   0.201   0.724   3.504
  242SOL    HW2  728   0.100   0.834   3.437
  243SOL     OW  729   0.613   1.365   2.588
  243SOL    HW1  730   0.564   1.278   2.597
  243SOL    HW2  731   0.590   1.408   2.501
  244SOL     OW  732   1.293   1.228   3.285
  244SOL    HW1  733   1.330   1.155   3.227
  244SOL    HW2  734   1.345   1.233   3.370
  245SOL     OW  735   0.809   0.004   2.364
  245SOL    HW1  736   0.849   0.095   2.355
  245SOL    HW2  737   0.709   0.012   2.370
  246SOL     OW  738   0.197   0.976   3.126
  246SOL    HW1  739   0.286   0.931   3.112
  246SOL    HW2  740   0.124   0.911   3.107
  247SOL     OW  741   1.525   0.999   2.052
  247SOL    HW1  742   1.462   0.923   2.065
  247SOL    HW2  743   1.573   1.017   2.138
  248SOL     OW  744   1.187   1.792   3.478
  248SOL    HW1  745   1.211   1.852   3.402
  248SOL    HW2  746   1.194   1.697   3.448
  249SOL     OW  747   0.317   0.251   3.663
  249SOL    HW1  748   0.388   0.322   3.669
  249SOL    HW2  749   0.229   0.290   3.691
  250SOL     OW  750   1.466   1.417   2.815
  250SOL    HW1  751   1.407   1.423   2.895
  250SOL    HW2  752   1.451   1.329   2.769
  251SOL     OW  753   1.667   1.714   2.434
  251SOL    HW1  754   1.626   1.691   2.346
  251SOL    HW2  755   1.649   1.640   2.499
  252SOL     OW  756   0.598   0.729   2.132
  252SOL    HW1  757   0.622   0.798   2.064
  252SOL    HW2  758   0.520   0.762   2.186
  253SOL     OW  759   1.281   0.345   2.806
  253SOL    HW1  760   1.195   0.295   2.793
  253SOL    HW2  761   1.343   0.291   2.862
  254SOL     OW  762   1.576   1.662   2.169
  254SOL    HW1  763   1.665   1.708   2.172
  254SOL    HW2  764   1.555   1.638   2.074
  255SOL     OW  765   0.807   0.605   3.327
  255SOL    HW1  766   0.760   0.602   3.416
  255SOL    HW2  767   0.756   0.550   3.261
  256SOL     OW  768   1.394   0.469   3.536
  256SOL    HW1  769   1.374   0.512   3.624
  256SOL    HW2  770   1.472   0.407   3.545
  257SOL     OW  771   0.973   0.890   3.434
  257SOL    HW1  772   1.019   0.806   3.405
  257SOL    HW2  773   0.917   0.924   3.359
  258SOL     OW  774   0.991   0.410   3.104
  258SOL    HW1  775   0.914   0.444   3.158
  258SOL    HW2  776   0.957   0.359   3.025
  259SOL     OW  777   1.041   0.701   2.291
  259SOL    HW1  778   1.067   0.697   2.387
  259SOL    HW2  779   0.956   0.650   2.277
  260SOL     OW  780   0.076   0.811   2.651
  260SOL    HW1  781   0.175   0.799   2.660
  260SOL    HW2  782   0.052   0.906   2.672
  261SOL     OW  783   0.130   1.821   3.433
  261SOL    HW1  784   0.120   1.806   3.532
  261SOL    HW2  785   0.044   1.857   3.397
  262SOL     OW  786   0.865   0.348   2.057
  262SOL    HW1  787   0.924   0.411   2.008
  262SOL    HW2  788   0.884   0.254   2.028
  263SOL     OW  789   1.719   0.585   3.693
  263SOL    HW1  790   1.693   0.674   3.657
  263SOL    HW2  791   1.717   0.517   3.620
  264SOL     OW  792   1.362   1.144   2.407
  264SOL    HW1  793   1.445   1.115   2.359
  264SOL    HW2  794   1.313   1.211   2.351
  265SOL     OW  795   0.550   0.196   2.747
  265SOL    HW1  796   0.545   0.191   2.847
  265SOL    HW2  797   0.552   0.292   2.718
  266SOL     OW  798   1.008   1.456   2.339
  266SOL    HW1  799   0.962   1.528   2.287
  266SOL    HW2  800   1.004   1.476   2.437
  267SOL     OW  801   0.351   1.801   2.715
  267SOL    HW1  802   0.401   1.715   2.721
  267SOL    HW2  803   0.416   1.878   2.712
  268SOL     OW  804   1.795   1.066   2.735
  268SOL    HW1  805   1.733   1.051   2.659
  268SOL    HW2  806   1.743   1.077   2.820
  269SOL     OW  807   1.227   1.550   3.368
  269SOL    HW1  808   1.233   1.473   3.432
  269SOL    HW2  809   1.175   1.524   3.288
  270SOL     OW  810   0.321   0.943   2.104
  270SOL    HW1  811   0.403   0.982   2.062
  270SOL    HW2  812   0.294   0.861   2.055
  271SOL     OW  813   1.458   0.735   2.590
  271SOL    HW1  814   1.453   0.670   2.665
  271SOL    HW2  815   1.538   0.794   2.603
  272SOL     OW  816   0.461   1.266   3.589
  272SOL    HW1  817   0.411   1.267   3.503
  272SOL    HW2  818   0.398   1.248   3.665
  273SOL     OW  819   1.111   1.776   2.099
  273SOL    HW1  820   1.051   1.714   2.149
  273SOL    HW2  821   1.142   1.732   2.014
  274SOL     OW  822   0.202   0.285   3.360
  274SOL    HW1  823   0.122   0.345   3.347
  274SOL    HW2  824   0.192   0.236   3.446
  275SOL     OW  825   1.632   1.377   1.943
  275SOL    HW1  826   1.600   1.471   1.933
  275SOL    HW2  827   1.556   1.314   1.931
  276SOL     OW  828   0.464   1.743   2.185
  276SOL    HW1  829   0.497   1.782   2.271
  276SOL    HW2  830   0.540   1.736   2.120
  277SOL     OW  831   1.400   0.107   2.288
  277SOL    HW1  832   1.376   0.070   2.198
  277SOL    HW2  833   1.499   0.123   2.292
  278SOL     OW  834   0.249   1.785   3.103
  278SOL    HW1  835   0.306   1.720   3.153
  278SOL    HW2  836   0.233   1.752   3.010
  279SOL     OW  837   0.940   1.698   2.766
  279SOL    HW1  838   1.020   1.641   2.787
  279SOL    HW2  839   0.891   1.658   2.689
  280SOL     OW  840   0.382   0.700   2.342
  280SOL    HW1  841   0.427   0.610   2.339
  280SOL    HW2  842   0.288   0.689   2.375
  281SOL     OW  843   1.547   0.222   3.591
  281SOL    HW1  844   1.542   0.259   3.683
  281SOL    HW2  845   1.475   0.153   3.579
  282SOL     OW  846   0.614   0.122   1.979
  282SOL    HW1  847   0.712   0.100   1.986
  282SOL    HW2  848   0.583   0.105   1.886
  283SOL     OW  849   0.781   0.264   3.611
  283SOL    HW1  850   0.848   0.203   3.654
  283SOL    HW2  851   0.708   0.283   3.676
  284SOL     OW  852   0.888   1.514   3.057
  284SOL    HW1  853   0.865   1.489   2.963
  284SOL    HW2  854   0.949   1.445   3.096
  285SOL     OW  855   1.351   0.590   3.295
  285SOL    HW1  856   1.379   0.547   3.380
  285SOL    HW2  857   1.376   0.686   3.296
  286SOL     OW  858   0.803   1.402   2.786
  286SOL    HW1  859   0.893   1.416   2.744
  286SOL    HW2  860   0.732   1.404   2.715
  287SOL     OW  861   0.922   0.503   2.761
  287SOL    HW1  862   0.897   0.494   2.665
  287SOL    HW2  863   0.970   0.421   2.792
  288SOL     OW  864   0.539   0.064   2.374
  288SOL    HW1  865   0.458   0.065   2.432
  288SOL    HW2  866   0.542   0.147   2.319
  289SOL     OW  867   1.434   1.188   1.903
  289SOL    HW1  868   1.466   1.112   1.960
  289SOL    HW2  869   1.342   1.215   1.933
  290SOL     OW  870   0.297   0.035   2.033
  290SOL    HW1  871   0.346   0.119   2.012
  290SOL    HW2  872   0.359  -0.030   2.078
  291SOL     OW  873   0.935   0.236   2.342
  291SOL    HW1  874   0.887   0.277   2.264
  291SOL    HW2  875   1.034   0.234   2.323
  292SOL     OW  876   1.076   0.683   3.326
  292SOL    HW1  877   0.996   0.622   3.329
  292SOL    HW2  878   1.157   0.630   3.302
  293SOL     OW  879   1.227   1.570   2.655
  293SOL    HW1  880   1.248   1.644   2.590
  293SOL    HW2  881   1.295   1.570   2.728
  294SOL     OW  882   0.459   1.152   2.603
  294SOL    HW1  883   0.388   1.125   2.668
  294SOL    HW2  884   0.433   1.124   2.510
  295SOL     OW  885   1.271   1.797   2.453
  295SOL    HW1  886   1.315   1.861   2.389
  295SOL    HW2  887   1.221   1.849   2.523
  296SOL     OW  888   1.032   0.549   1.878
  296SOL    HW1  889   0.991   0.631   1.839
  296SOL    HW2  890   1.096   0.575   1.951
  297SOL     OW  891   0.078   0.556   3.248
  297SOL    HW1  892   0.170   0.555   3.207
  297SOL    HW2  893   0.072   0.630   3.315
  298SOL     OW  894   0.561   0.222   3.009
  298SOL    HW1  895   0.599   0.138   3.046
  298SOL    HW2  896   0.473   0.241   3.053
  299SOL     OW  897   0.866   0.454   2.504
  299SOL    HW1  898   0.834   0.526   2.442
  299SOL    HW2  899   0.890   0.373   2.451
  300SOL     OW  900   1.017   0.039   2.615
  300SOL    HW1  901   0.945   0.044   2.546
  300SOL    HW2  902   0.993  -0.030   2.684
  301SOL     OW  903   1.429   1.173   2.729
  301SOL    HW1  904   1.374   1.089   2.722
  301SOL    HW2  905   1.455   1.202   2.637
  302SOL     OW  906   1.466   0.590   2.854
  302SOL    HW1  907   1.436   0.495   2.861
  302SOL    HW2  908   1.539   0.606   2.920
  303SOL     OW  909   1.857   0.833   2.239
  303SOL    HW1  910   1.899   0.769   2.303
  303SOL    HW2  911   1.819   0.782   2.161
  304SOL     OW  912   0.488   1.385   2.036
  304SOL    HW1  913   0.401   1.370   2.083
  304SOL    HW2  914   0.471   1.411   1.941
  305SOL     OW  915   1.664   1.280   2.519
  305SOL    HW1  916   1.763   1.288   2.533
  305SOL    HW2  917   1.619   1.364   2.550
  306SOL     OW  918   1.390   0.575   1.940
  306SOL    HW1  919   1.336   0.554   2.021
  306SOL    HW2  920   1.481   0.534   1.949
  307SOL     OW  921   0.527   0.256   2.190
  307SOL    HW1  922   0.554   0.197   2.115
  307SOL    HW2  923   0.527   0.351   2.159
  308SOL     OW  924   1.754   1.223   3.450
  308SOL    HW1  925   1.845   1.184   3.437
  308SOL    HW2  926   1.762   1.319   3.474
  309SOL     OW  927   1.064   1.347   3.202
  309SOL    HW1  928   0.984   1.324   3.257
  309SOL    HW2  929   1.147   1.321   3.251
  310SOL     OW  930   1.592   1.629   3.487
  310SOL    HW1  931   1.619   1.663   3.397
  310SOL    HW2  932   1.671   1.591   3.533
  311SOL     OW  933   1.111   1.195   2.962
  311SOL    HW1  934   1.071   1.239   3.043
  311SOL    HW2  935   1.070   1.232   2.879
  312SOL     OW  936   1.638   1.099   2.941
  312SOL    HW1  937   1.643   1.180   3.000
  312SOL    HW2  938   1.552   1.101   2.890
  313SOL     OW  939   0.915   0.089   3.264
  313SOL    HW1  940   0.940   0.069   3.169
  313SOL    HW2  941   0.987   0.145   3.306
  314SOL     OW  942   0.980   1.116   3.581
  314SOL    HW1  943   0.881   1.122   3.591
  314SOL    HW2  944   1.003   1.036   3.525
  315SOL     OW  945   0.705   1.050   2.230
  315SOL    HW1  946   0.691   1.057   2.329
  315SOL    HW2  947   0.789   0.999   2.212
  316SOL     OW  948   0.410   0.813   3.113
  316SOL    HW1  949   0.496   0.825   3.163
  316SOL    HW2  950   0.368   0.726   3.140
  317SOL     OW  951   1.274   0.386   3.124
  317SOL    HW1  952   1.295   0.460   3.188
  317SOL    HW2  953   1.185   0.403   3.081
  318SOL     OW  954   0.064   1.564   3.193
  318SOL    HW1  955   0.018   1.646   3.159
  318SOL    HW2  956   0.162   1.583   3.202
  319SOL     OW  957   0.367   1.100   2.363
  319SOL    HW1  958   0.360   1.183   2.307
  319SOL    HW2  959   0.371   1.020   2.303
  320SOL     OW  960   0.566   0.537   2.727
  320SOL    HW1  961   0.578   0.603   2.653
  320SOL    HW2  962   0.612   0.571   2.810
  321SOL     OW  963   1.252   1.348   2.250
  321SOL    HW1  964   1.302   1.425   2.290
  321SOL    HW2  965   1.157   1.350   2.282
  322SOL     OW  966   1.272   1.445   3.004
  322SOL    HW1  967   1.319   1.458   3.091
  322SOL    HW2  968   1.206   1.371   3.013
  323SOL     OW  969   1.582   0.639   2.334
  323SOL    HW1  970   1.551   0.700   2.407
  323SOL    HW2  971   1.632   0.691   2.265
  324SOL     OW  972   0.354   1.510   3.191
  324SOL    HW1  973   0.333   1.466   3.104
  324SOL    HW2  974   0.451   1.536   3.194
  325SOL     OW  975   0.402   0.751   3.460
  325SOL    HW1  976   0.470   0.806   3.413
  325SOL    HW2  977   0.442   0.663   3.487
  326SOL     OW  978   1.587   0.779   3.532
  326SOL    HW1  979   1.495   0.817   3.527
  326SOL    HW2  980   1.647   0.826   3.467
  327SOL     OW  981   1.013   0.105   3.632
  327SOL    HW1  982   1.019   0.190   3.580
  327SOL    HW2  983   1.045   0.029   3.575
  328SOL     OW  984   0.504   0.050   3.602
  328SOL    HW1  985   0.462  -0.007   3.532
  328SOL    HW2  986   0.438   0.119   3.634
  329SOL     OW  987   0.573   0.870   2.891
  329SOL    HW1  988   0.617   0.959   2.882
  329SOL    HW2  989   0.510   0.870   2.968
  330SOL     OW  990   1.360   0.862   2.907
  330SOL    HW1  991   1.285   0.862   2.841
  330SOL    HW2  992   1.397   0.770   2.916
  331SOL     OW  993   1.209   0.525   2.137
  331SOL    HW1  994   1.222   0.441   2.191
  331SOL    HW2  995   1.180   0.599   2.197
  332SOL     OW  996   0.307   0.213   3.093
  332SOL    HW1  997   0.284   0.250   3.183
  332SOL    HW2  998   0.277   0.118   3.087
  333SOL     OW  999   0.037   1.310   3.144
  333SOL    HW1 1000   0.090   1.261   3.212
  333SOL    HW2 1001   0.059   1.408   3.149
  334SOL     OW 1002   0.732   0.634   2.926
  334SOL    HW1 1003   0.791   0.608   2.850
  334SOL    HW2 1004   0.704   0.730   2.915
  335SOL     OW 1005   1.728   0.935   3.716
  335SOL    HW1 1006   1.682   0.928   3.627
  335SOL    HW2 1007   1.666   0.979   3.782
  336SOL     OW 1008   0.307   0.063   2.480
  336SOL    HW1 1009   0.296   0.157   2.513
  336SOL    HW2 1010   0.302   0.000   2.557
  337SOL     OW 1011   1.622   0.367   2.236
  337SOL    HW1 1012   1.624   0.291   2.300
  337SOL    HW2 1013   1.574   0.444   2.276
  338SOL     OW 1014   1.023   0.766   2.828
  338SOL    HW1 1015   1.038   0.787   2.924
  338SOL    HW2 1016   0.993   0.671   2.819
  339SOL     OW 1017   0.980   1.573   3.562
  339SOL    HW1 1018   0.960   1.617   3.474
  339SOL    HW2 1019   1.019   1.482   3.546
  340SOL     OW 1020   1.859   1.518   3.467
  340SOL    HW1 1021   1.873   1.545   3.372
  340SOL    HW2 1022   1.942   1.540   3.520
  341SOL     OW 1023   0.350   0.898   3.666
  341SOL    HW1 1024   0.426   0.942   3.714
  341SOL    HW2 1025   0.385   0.851   3.584
  342SOL     OW 1026   1.540   0.274   1.987
  342SOL    HW1 1027   1.479   0.199   2.010
  342SOL    HW2 1028   1.562   0.326   2.070
  343SOL     OW 1029   1.303   0.838   1.904
  343SOL    HW1 1030   1.337   0.745   1.919
  343SOL    HW2 1031   1.321   0.865   1.809
  344SOL     OW 1032   1.068   1.333   2.711
  344SOL    HW1 1033   1.075   1.249   2.656
  344SOL    HW2 1034   1.130   1.402   2.675
  345SOL     OW 1035   0.319   0.810   2.811
  345SOL    HW1 1036   0.412   0.846   2.816
  345SOL    HW2 1037   0.313   0.725   2.863
  346SOL     OW 1038   0.339   0.509   2.868
  346SOL    HW1 1039   0.287   0.426   2.851
  346SOL    HW2 1040   0.416   0.514   2.804
  347SOL     OW 1041   1.138   0.380   3.540
  347SOL    HW1 1042   1.093   0.443   3.604
  347SOL    HW2 1043   1.231   0.411   3.523
  348SOL     OW 1044   1.160   0.207   3.339
  348SOL    HW1 1045   1.160   0.271   3.416
  348SOL    HW2 1046   1.188   0.255   3.256
  349SOL     OW 1047   0.008   1.326   2.062
  349SOL    HW1 1048  -0.085   1.347   2.031
  349SOL    HW2 1049   0.018   1.227   2.075
  350SOL     OW 1050   0.088   1.801   2.789
  350SOL    HW1 1051   0.046   1.715   2.762
  350SOL    HW2 1052   0.182   1.804   2.755
  351SOL     OW 1053   0.504   1.568   2.772
  351SOL    HW1 1054   0.570   1.642   2.781
  351SOL    HW2 1055   0.548   1.489   2.730
  352SOL     OW 1056   1.002   0.796   3.100
  352SOL    HW1 1057   1.043   0.764   3.186
  352SOL    HW2 1058   0.906   0.769   3.097
  353SOL     OW 1059   0.040   0.544   2.976
  353SOL    HW1 1060   0.125   0.511   2.935
  353SOL    HW2 1061   0.053   0.559   3.074
  354SOL     OW 1062   0.189   0.520   3.584
  354SOL    HW1 1063   0.248   0.480   3.514
  354SOL    HW2 1064   0.131   0.591   3.543
  355SOL     OW 1065   1.369   0.950   3.522
  355SOL    HW1 1066   1.408   1.039   3.542
  355SOL    HW2 1067   1.379   0.930   3.425
  356SOL     OW 1068   0.815   0.572   2.187
  356SOL    HW1 1069   0.822   0.483   2.141
  356SOL    HW2 1070   0.721   0.606   2.179
  357SOL     OW 1071   1.657   0.604   3.068
  357SOL    HW1 1072   1.619   0.535   3.130
  357SOL    HW2 1073   1.739   0.568   3.024
  358SOL     OW 1074   0.252   1.564   3.606
  358SOL    HW1 1075   0.222   1.621   3.682
  358SOL    HW2 1076   0.245   1.467   3.632
  359SOL     OW 1077   0.671   0.464   3.131
  359SOL    HW1 1078   0.637   0.375   3.101
  359SOL    HW2 1079   0.697   0.518   3.051
  360SOL     OW 1080   0.930   1.678   3.327
  360SOL    HW1 1081   0.906   1.660   3.232
  360SOL    HW2 1082   0.960   1.772   3.337
  361SOL     OW 1083   0.473   0.500   2.053
  361SOL    HW1 1084   0.534   0.580   2.057
  361SOL    HW2 1085   0.378   0.531   2.060
  362SOL     OW 1086   0.159   1.137   3.328
  362SOL    HW1 1087   0.181   1.076   3.404
  362SOL    HW2 1088   0.169   1.088   3.242
  363SOL     OW 1089   1.347   1.059   3.096
  363SOL    HW1 1090   1.371   0.996   3.022
  363SOL    HW2 1091   1.257   1.099   3.078
  364SOL     OW 1092   1.302   0.855   2.171
  364SOL    HW1 1093   1.216   0.824   2.213
  364SOL    HW2 1094   1.298   0.841   2.072
  365SOL     OW 1095   1.759   1.747   3.016
  365SOL    HW1 1096   1.820   1.777   2.943
  365SOL    HW2 1097   1.721   1.658   2.994
  366SOL     OW 1098   1.252   1.731   2.990
  366SOL    HW1 1099   1.336   1.736   2.936
  366SOL    HW2 1100   1.229   1.635   3.008
  367SOL     OW 1101   0.083   1.258   2.884
  367SOL    HW1 1102   0.078   1.257   2.984
  367SOL    HW2 1103   0.000   1.217   2.846
  368SOL     OW 1104   0.688   1.662   3.578
  368SOL    HW1 1105   0.632   1.743   3.587
  368SOL    HW2 1106   0.740   1.666   3.492
  369SOL     OW 1107   1.726   0.135   2.385
  369SOL    HW1 1108   1.799   0.118   2.318
  369SOL    HW2 1109   1.695   0.048   2.423
  370SOL     OW 1110   1.388   1.573   2.339
  370SOL    HW1 1111   1.455   1.585   2.265
  370SOL    HW2 1112   1.348   1.662   2.362
  371SOL     OW 1113   0.130   1.794   3.713
  371SOL    HW1 1114   0.089   1.720   3.766
  371SOL    HW2 1115   0.194   1.845   3.771
  372SOL     OW 1116   1.280   0.927   2.534
  372SOL    HW1 1117   1.340   0.846   2.536
  372SOL    HW2 1118   1.320   0.996   2.474
  373SOL     OW 1119   0.830   1.273   3.284
  373SOL    HW1 1120   0.825   1.306   3.379
  373SOL    HW2 1121   0.744   1.292   3.238
  374SOL     OW 1122   0.672   1.616   2.016
  374SOL    HW1 1123   0.681   1.626   1.917
  374SOL    HW2 1124   0.632   1.527   2.037
  375SOL     OW 1125   1.650   1.720   3.256
  375SOL    HW1 1126   1.703   1.730   3.172
  375SOL    HW2 1127   1.623   1.810   3.290
  376SOL     OW 1128   1.841   0.175   2.825
  376SOL    HW1 1129   1.880   0.090   2.789
  376SOL    HW2 1130   1.743   0.177   2.806
  377SOL     OW 1131   0.263   0.326   2.582
  377SOL    HW1 1132   0.184   0.377   2.548
  377SOL    HW2 1133   0.254   0.311   2.680
  378SOL     OW 1134   1.194   1.612   1.893
  378SOL    HW1 1135   1.200   1.519   1.930
  378SOL    HW2 1136   1.135   1.612   1.813
  379SOL     OW 1137   0.822   1.002   3.234
  379SOL    HW1 1138   0.862   1.001   3.142
  379SOL    HW2 1139   0.832   1.094   3.274
  380SOL     OW 1140   0.916   0.910   2.153
  380SOL    HW1 1141   0.979   0.948   2.085
  380SOL    HW2 1142   0.956   0.827   2.192
  381SOL     OW 1143   1.504   1.607   1.906
  381SOL    HW1 1144   1.412   1.644   1.913
  381SOL    HW2 1145   1.542   1.627   1.816
  382SOL     OW 1146   0.372   1.288   3.352
  382SOL    HW1 1147   0.359   1.381   3.318
  382SOL    HW2 1148   0.288   1.236   3.339
  383SOL     OW 1149   1.614   1.292   3.151
  383SOL    HW1 1150   1.674   1.295   3.231
  383SOL    HW2 1151   1.539   1.356   3.164
  384SOL     OW 1152   1.039   1.098   2.558
  384SOL    HW1 1153   0.969   1.051   2.612
  384SOL    HW2 1154   1.098   1.030   2.515
  385SOL     OW 1155   1.014   0.236   2.833
  385SOL    HW1 1156   1.006   0.200   2.740
  385SOL    HW2 1157   1.012   0.160   2.898
  386SOL     OW 1158   0.590   1.487   2.353
  386SOL    HW1 1159   0.632   1.429   2.283
  386SOL    HW2 1160   0.546   1.566   2.309
  387SOL     OW 1161   1.709   0.385   3.243
  387SOL    HW1 1162   1.782   0.454   3.247
  387SOL    HW2 1163   1.737   0.310   3.184
  388SOL     OW 1164   0.255   1.348   2.152
  388SOL    HW1 1165   0.159   1.349   2.125
  388SOL    HW2 1166   0.267   1.401   2.236
  389SOL     OW 1167   0.105   1.013   3.588
  389SOL    HW1 1168   0.028   0.980   3.642
  389SOL    HW2 1169   0.190   0.983   3.630
  390SOL     OW 1170   0.672   0.203   3.351
  390SOL    HW1 1171   0.762   0.187   3.311
  390SOL    HW2 1172   0.680   0.208   3.450
  391SOL     OW 1173   0.075   0.345   1.895
  391SOL    HW1 1174  -0.017   0.317   1.866
  391SOL    HW2 1175   0.106   0.422   1.839
  392SOL     OW 1176   1.440   0.856   3.260
  392SOL    HW1 1177   1.383   0.908   3.197
  392SOL    HW2 1178   1.536   0.868   3.236
  393SOL     OW 1179   0.072   0.166   2.180
  393SOL    HW1 1180   0.055   0.249   2.126
  393SOL    HW2 1181   0.162   0.129   2.158
  394SOL     OW 1182   1.183   1.335   1.981
  394SOL    HW1 1183   1.084   1.324   1.983
  394SOL    HW2 1184   1.217   1.350   2.074
  395SOL     OW 1185   0.613   0.842   3.293
  395SOL    HW1 1186   0.669   0.923   3.276
  395SOL    HW2 1187   0.672   0.762   3.296
  396SOL     OW 1188   1.493   1.767   2.821
  396SOL    HW1 1189   1.526   1.831   2.752
  396SOL    HW2 1190   1.559   1.761   2.896
  397SOL     OW 1191   0.716   0.565   3.570
  397SOL    HW1 1192   0.735   0.630   3.644
  397SOL    HW2 1193   0.776   0.485   3.579
  398SOL     OW 1194   1.450   1.220   3.495
  398SOL    HW1 1195   1.441   1.210   3.594
  398SOL    HW2 1196   1.546   1.213   3.469
  399SOL     OW 1197   0.390   1.741   3.422
  399SOL    HW1 1198   0.299   1.782   3.420
  399SOL    HW2 1199   0.383   1.647   3.454
  400SOL     OW 1200   1.674   0.883   3.116
  400SOL    HW1 1201   1.647   0.794   3.079
  400SOL    HW2 1202   1.675   0.951   3.043
  401SOL     OW 1203   1.225   0.325   2.311
  401SOL    HW1 1204   1.290   0.251   2.300
  401SOL    HW2 1205   1.245   0.375   2.395
  402SOL     OW 1206   0.594   0.745   2.514
  402SOL    HW1 1207   0.644   0.830   2.495
  402SOL    HW2 1208   0.506   0.747   2.466
  403SOL     OW 1209   1.777   0.342   3.504
  403SOL    HW1 1210   1.760   0.373   3.410
  403SOL    HW2 1211   1.693   0.305   3.542
  404SOL     OW 1212   1.730   0.934   3.379
  404SOL    HW1 1213   1.768   1.025   3.394
  404SOL    HW2 1214   1.722   0.917   3.280
  405SOL     OW 1215   0.859   1.374   1.878
  405SOL    HW1 1216   0.813   1.389   1.966
  405SOL    HW2 1217   0.903   1.459   1.848
  406SOL     OW 1218   0.661   1.790   2.815
  406SOL    HW1 1219   0.615   1.878   2.802
  406SOL    HW2 1220   0.760   1.802   2.808
  407SOL     OW 1221   0.859   0.956   2.723
  407SOL    HW1 1222   0.913   0.887   2.771
  407SOL    HW2 1223   0.827   1.025   2.789
  408SOL     OW 1224   1.083   0.984   1.949
  408SOL    HW1 1225   1.060   1.037   1.867
  408SOL    HW2 1226   1.164   0.928   1.930
  409SOL     OW 1227   1.861   1.569   2.713
  409SOL    HW1 1228   1.790   1.557   2.643
  409SOL    HW2 1229   1.862   1.490   2.773
  410SOL     OW 1230   0.221   1.314   3.706
  410SOL    HW1 1231   0.156   1.241   3.685
  410SOL    HW2 1232   0.225   1.328   3.804
  411SOL     OW 1233   0.079   1.240   2.515
  411SOL    HW1 1234   0.078   1.193   2.603
  411SOL    HW2 1235   0.161   1.212   2.464
  412SOL     OW 1236   0.672   1.391   3.486
  412SOL    HW1 1237   0.594   1.341   3.524
  412SOL    HW2 1238   0.669   1.486   3.517
  413SOL     OW 1239   1.824   0.192   3.089
  413SOL    HW1 1240   1.820   0.102   3.133
  413SOL    HW2 1241   1.827   0.181   2.990
  414SOL     OW 1242   0.428   0.424   2.382
  414SOL    HW1 1243   0.458   0.352   2.320
  414SOL    HW2 1244   0.389   0.384   2.465
  415SOL     OW 1245   1.705   1.487   2.966
  415SOL    HW1 1246   1.612   1.462   2.939
  415SOL    HW2 1247   1.731   1.437   3.048
  416SOL     OW 1248   0.317   0.547   3.142
  416SOL    HW1 1249   0.355   0.488   3.214
  416SOL    HW2 1250   0.357   0.521   3.054
  417SOL     OW 1251   0.812   1.586   2.549
  417SOL    HW1 1252   0.844   1.596   2.455
  417SOL    HW2 1253   0.733   1.524   2.551
  418SOL     OW 1254   1.424   0.214   2.974
  418SOL    HW1 1255   1.476   0.149   3.029
  418SOL    HW2 1256   1.375   0.277   3.035
  419SOL     OW 1257   1.001   0.034   3.016
  419SOL    HW1 1258   0.938  -0.038   2.985
  419SOL    HW2 1259   1.094  -0.002   3.016
  420SOL     OW 1260   0.770   1.330   2.163
  420SOL    HW1 1261   0.724   1.243   2.180
  420SOL    HW2 1262   0.861   1.327   2.204
  421SOL     OW 1263   0.618   1.567   3.146
  421SOL    HW1 1264   0.613   1.649   3.203
  421SOL    HW2 1265   0.707   1.564   3.101
  422SOL     OW 1266   1.352   0.052   2.030
  422SOL    HW1 1267   1.387   0.011   1.946
  422SOL    HW2 1268   1.262   0.014   2.050
  423SOL     OW 1269   1.300   0.453   2.553
  423SOL    HW1 1270   1.241   0.533   2.557
  423SOL    HW2 1271   1.315   0.418   2.646
  424SOL     OW 1272   1.593   0.221   2.744
  424SOL    HW1 1273   1.509   0.220   2.798
  424SOL    HW2 1274   1.595   0.304   2.688
  425SOL     OW 1275   0.039   1.077   2.162
  425SOL    HW1 1276   0.138   1.066   2.153
  425SOL    HW2 1277  -0.001   0.991   2.194
  426SOL     OW 1278   0.875   1.646   2.199
  426SOL    HW1 1279   0.798   1.611   2.145
  426SOL    HW2 1280   0.843   1.717   2.261
  427SOL     OW 1281   0.230   0.628   3.837
  427SOL    HW1 1282   0.137   0.626   3.874
  427SOL    HW2 1283   0.231   0.589   3.745
  428SOL     OW 1284   1.135   0.703   4.441
  428SOL    HW1 1285   1.192   0.781   4.416
  428SOL    HW2 1286   1.075   0.729   4.517
  429SOL     OW 1287   1.755   0.607   3.955
  429SOL    HW1 1288   1.743   0.594   3.856
  429SOL    HW2 1289   1.725   0.526   4.004
  430SOL     OW 1290   0.231   1.713   4.207
  430SOL    HW1 1291   0.265   1.790   4.261
  430SOL    HW2 1292   0.275   1.713   4.117
  431SOL     OW 1293   0.230   1.434   4.262
  431SOL    HW1 1294   0.204   1.530   4.262
  431SOL    HW2 1295   0.159   1.380   4.307
  432SOL     OW 1296   0.606   0.964   3.847
  432SOL    HW1 1297   0.613   1.048   3.793
  432SOL    HW2 1298   0.652   0.977   3.935
  433SOL     OW 1299   1.842   1.767   4.083
  433SOL    HW1 1300   1.896   1.738   4.163
  433SOL    HW2 1301   1.872   1.857   4.054
  434SOL     OW 1302   0.027   1.596   3.841
  434SOL    HW1 1303   0.008   1.500   3.862
  434SOL    HW2 1304  -0.006   1.654   3.916
  435SOL     OW 1305   1.689   0.922   4.336
  435SOL    HW1 1306   1.784   0.893   4.344
  435SOL    HW2 1307   1.681   0.987   4.261
  436SOL     OW 1308   1.641   1.108   4.156
  436SOL    HW1 1309   1.727   1.110   4.104
  436SOL    HW2 1310   1.655   1.155   4.244
  437SOL     OW 1311   0.809   0.004   4.226
  437SOL    HW1 1312   0.849   0.095   4.217
  437SOL    HW2 1313   0.709   0.012   4.232
  438SOL     OW 1314   1.525   0.999   3.914
  438SOL    HW1 1315   1.462   0.923   3.927
  438SOL    HW2 1316   1.573   1.017   4.000
  439SOL     OW 1317   0.598   0.729   3.994
  439SOL    HW1 1318   0.622   0.798   3.926
  439SOL    HW2 1319   0.520   0.762   4.048
  440SOL     OW 1320   1.576   1.662   4.031
  440SOL    HW1 1321   1.665   1.708   4.034
  440SOL    HW2 1322   1.555   1.638   3.936
  441SOL     OW 1323   0.865   0.348   3.919
  441SOL    HW1 1324   0.924   0.411   3.870
  441SOL    HW2 1325   0.884   0.254   3.890
  442SOL     OW 1326   0.321   0.943   3.966
  442SOL    HW1 1327   0.403   0.982   3.924
  442SOL    HW2 1328   0.294   0.861   3.917
  443SOL     OW 1329   1.458   0.735   4.452
  443SOL    HW1 1330   1.453   0.670   4.527
  443SOL    HW2 1331   1.538   0.794   4.465
  444SOL     OW 1332   1.111   1.776   3.961
  444SOL    HW1 1333   1.051   1.714   4.011
  444SOL    HW2 1334   1.142   1.732   3.876
  445SOL     OW 1335   1.632   1.377   3.805
  445SOL    HW1 1336   1.600   1.471   3.795
  445SOL    HW2 1337   1.556   1.314   3.793
  446SOL     OW 1338   0.464   1.743   4.047
  446SOL    HW1 1339   0.497   1.782   4.133
  446SOL    HW2 1340   0.540   1.736   3.982
  447SOL     OW 1341   1.400   0.107   4.150
  447SOL    HW1 1342   1.376   0.070   4.060
  447SOL    HW2 1343   1.499   0.123   4.154
  448SOL     OW 1344   0.614   0.122   3.841
  448SOL    HW1 1345   0.712   0.100   3.848
  448SOL    HW2 1346   0.583   0.105   3.748
  449SOL     OW 1347   1.434   1.188   3.765
  449SOL    HW1 1348   1.466   1.112   3.822
  449SOL    HW2 1349   1.342   1.215   3.795
  450SOL     OW 1350   0.297   0.035   3.895
  450SOL    HW1 1351   0.346   0.119   3.874
  450SOL    HW2 1352   0.359  -0.030   3.940
  451SOL     OW 1353   0.935   0.236   4.204
  451SOL    HW1 1354   0.887   0.277   4.126
  451SOL    HW2 1355   1.034   0.234   4.185
  452SOL     OW 1356   1.227   1.570   4.517
  452SOL    HW1 1357   1.248   1.644   4.452
  452SOL    HW2 1358   1.295   1.570   4.590
  453SOL     OW 1359   0.459   1.152   4.465
  453SOL    HW1 1360   0.388   1.125   4.530
  453SOL    HW2 1361   0.433   1.124   4.372
  454SOL     OW 1362   1.271   1.797   4.315
  454SOL    HW1 1363   1.315   1.861   4.251
  454SOL    HW2 1364   1.221   1.849   4.385
  455SOL     OW 1365   1.032   0.549   3.740
  455SOL    HW1 1366   0.991   0.631   3.701
  455SOL    HW2 1367   1.096   0.575   3.813
  456SOL     OW 1368   1.429   1.173   4.591
  456SOL    HW1 1369   1.374   1.089   4.584
  456SOL    HW2 1370   1.455   1.202   4.499
  457SOL     OW 1371   1.857   0.833   4.101
  457SOL    HW1 1372   1.899   0.769   4.165
  457SOL    HW2 1373   1.819   0.782   4.023
  458SOL     OW 1374   0.488   1.385   3.898
  458SOL    HW1 1375   0.401   1.370   3.945
  458SOL    HW2 1376   0.471   1.411   3.803
  459SOL     OW 1377   1.390   0.575   3.802
  459SOL    HW1 1378   1.336   0.554   3.883
  459SOL    HW2 1379   1.481   0.534   3.811
  460SOL     OW 1380   0.527   0.256   4.052
  460SOL    HW1 1381   0.554   0.197   3.977
  460SOL    HW2 1382   0.527   0.351   4.021
  461SOL     OW 1383   0.705   1.050   4.092
  461SOL    HW1 1384   0.691   1.057   4.191
  461SOL    HW2 1385   0.789   0.999   4.074
  462SOL     OW 1386   0.367   1.100   4.225
  462SOL    HW1 1387   0.360   1.183   4.169
  462SOL    HW2 1388   0.371   1.020   4.165
  463SOL     OW 1389   1.252   1.348   4.112
  463SOL    HW1 1390   1.302   1.425   4.152
  463SOL    HW2 1391   1.157   1.350   4.144
  464SOL     OW 1392   1.582   0.639   4.196
  464SOL    HW1 1393   1.551   0.700   4.269
  464SOL    HW2 1394   1.632   0.691   4.127
  465SOL     OW 1395   1.209   0.525   3.999
  465SOL    HW1 1396   1.222   0.441   4.053
  465SOL    HW2 1397   1.180   0.599   4.059
  466SOL     OW 1398   1.622   0.367   4.098
  466SOL    HW1 1399   1.624   0.291   4.162
  466SOL    HW2 1400   1.574   0.444   4.138
  467SOL     OW 1401   1.540   0.274   3.849
  467SOL    HW1 1402   1.479   0.199   3.872
  467SOL    HW2 1403   1.562   0.326   3.932
  468SOL     OW 1404   1.303   0.838   3.766
  468SOL    HW1 1405   1.337   0.745   3.781
  468SOL    HW2 1406   1.321   0.865   3.671
  469SOL     OW 1407   0.008   1.326   3.924
  469SOL    HW1 1408  -0.085   1.347   3.893
  469SOL    HW2 1409   0.018   1.227   3.937
  470SOL     OW 1410   0.815   0.572   4.049
  470SOL    HW1 1411   0.822   0.483   4.003
  470SOL    HW2 1412   0.721   0.606   4.041
  471SOL     OW 1413   0.473   0.500   3.915
  471SOL    HW1 1414   0.534   0.580   3.919
  471SOL    HW2 1415   0.378   0.531   3.922
  472SOL     OW 1416   1.302   0.855   4.033
  472SOL    HW1 1417   1.216   0.824   4.075
  472SOL    HW2 1418   1.298   0.841   3.934
  473SOL     OW 1419   1.726   0.135   4.247
  473SOL    HW1 1420   1.799   0.118   4.180
  473SOL    HW2 1421   1.695   0.048   4.285
  474SOL     OW 1422   0.672   1.616   3.878
  474SOL    HW1 1423   0.681   1.626   3.779
  474SOL    HW2 1424   0.632   1.527   3.899
  475SOL     OW 1425   0.263   0.326   4.444
  475SOL    HW1 1426   0.184   0.377   4.410
  475SOL    HW2 1427   0.254   0.311   4.542
  476SOL     OW 1428   1.194   1.612   3.755
  476SOL    HW1 1429   1.200   1.519   3.792
  476SOL    HW2 1430   1.135   1.612   3.675
  477SOL     OW 1431   0.916   0.910   4.015
  477SOL    HW1 1432   0.979   0.948   3.947
  477SOL    HW2 1433   0.956   0.827   4.054
  478SOL     OW 1434   1.504   1.607   3.768
  478SOL    HW1 1435   1.412   1.644   3.775
  478SOL    HW2 1436   1.542   1.627   3.678
  479SOL     OW 1437   0.590   1.487   4.215
  479SOL    HW1 1438   0.632   1.429   4.145
  479SOL    HW2 1439   0.546   1.566   4.171
  480SOL     OW 1440   0.255   1.348   4.014
  480SOL    HW1 1441   0.159   1.349   3.987
  480SOL    HW2 1442   0.267   1.401   4.098
  481SOL     OW 1443   0.075   0.345   3.757
  481SOL    HW1 1444  -0.017   0.317   3.728
  481SOL    HW2 1445   0.106   0.422   3.701
  482SOL     OW 1446   0.072   0.166   4.042
  482SOL    HW1 1447   0.055   0.249   3.988
  482SOL    HW2 1448   0.162   0.129   4.020
  483SOL     OW 1449   1.183   1.335   3.843
  483SOL    HW1 1450   1.084   1.324   3.845
  483SOL    HW2 1451   1.217   1.350   3.936
  484SOL     OW 1452   1.225   0.325   4.173
  484SOL    HW1 1453   1.290   0.251   4.162
  484SOL    HW2 1454   1.245   0.375   4.257
  485SOL     OW 1455   0.859   1.374   3.740
  485SOL    HW1 1456   0.813   1.389   3.828
  485SOL    HW2 1457   0.903   1.459   3.710
  486SOL     OW 1458   1.083   0.984   3.811
  486SOL    HW1 1459   1.060   1.037   3.729
  486SOL    HW2 1460   1.164   0.928   3.792
  487SOL     OW 1461   0.428   0.424   4.244
  487SOL    HW1 1462   0.458   0.352   4.182
  487SOL    HW2 1463   0.389   0.384   4.327
  488SOL     OW 1464   0.770   1.330   4.025
  488SOL    HW1 1465   0.724   1.243   4.042
  488SOL    HW2 1466   0.861   1.327   4.066
  489SOL     OW 1467   1.352   0.052   3.892
  489SOL    HW1 1468   1.387   0.011   3.808
  489SOL    HW2 1469   1.262   0.014   3.912
  490SOL     OW 1470   0.039   1.077   4.024
  490SOL    HW1 1471   0.138   1.066   4.015
  490SOL    HW2 1472  -0.001   0.991   4.056
  491SOL     OW 1473   0.875   1.646   4.061
  491SOL    HW1 1474   0.798   1.611   4.007
  491SOL    HW2 1475   0.843   1.717   4.123
  492SOL     OW 1476   0.230   2.490   0.113
  492SOL    HW1 1477   0.137   2.488   0.150
  492SOL    HW2 1478   0.231   2.451   0.021
  493SOL     OW 1479   0.225   2.137   0.996
  493SOL    HW1 1480   0.260   2.120   1.088
  493SOL    HW2 1481   0.137   2.092   0.984
  494SOL     OW 1482   0.019   2.230   0.647
  494SOL    HW1 1483  -0.063   2.273   0.686
  494SOL    HW2 1484  -0.009   2.157   0.584
  495SOL     OW 1485   0.569   3.137   1.165
  495SOL    HW1 1486   0.476   3.130   1.128
  495SOL    HW2 1487   0.580   3.226   1.209
  496SOL     OW 1488   1.555   3.373   0.703
  496SOL    HW1 1489   1.498   3.357   0.784
  496SOL    HW2 1490   1.496   3.383   0.623
  497SOL     OW 1491   1.135   2.565   0.717
  497SOL    HW1 1492   1.192   2.643   0.692
  497SOL    HW2 1493   1.075   2.591   0.793
  498SOL     OW 1494   1.755   2.469   0.231
  498SOL    HW1 1495   1.743   2.456   0.132
  498SOL    HW2 1496   1.725   2.388   0.280
  499SOL     OW 1497   0.768   3.006   1.023
  499SOL    HW1 1498   0.690   3.023   1.083
  499SOL    HW2 1499   0.802   3.093   0.987
  500SOL     OW 1500   0.850   2.660   1.823
  500SOL    HW1 1501   0.846   2.736   1.888
  500SOL    HW2 1502   0.872   2.696   1.732
  501SOL     OW 1503   0.685   2.874   0.665
  501SOL    HW1 1504   0.754   2.858   0.735
  501SOL    HW2 1505   0.612   2.931   0.703
  502SOL     OW 1506   0.686   3.023   1.803
  502SOL    HW1 1507   0.746   3.102   1.817
  502SOL    HW2 1508   0.600   3.054   1.762
  503SOL     OW 1509   0.335   3.297   1.061
  503SOL    HW1 1510   0.257   3.266   1.008
  503SOL    HW2 1511   0.393   3.355   1.004
  504SOL     OW 1512   1.460   3.367   1.339
  504SOL    HW1 1513   1.484   3.461   1.365
  504SOL    HW2 1514   1.444   3.313   1.421
  505SOL     OW 1515   0.438   2.254   1.499
  505SOL    HW1 1516   0.520   2.198   1.508
  505SOL    HW2 1517   0.357   2.196   1.503
  506SOL     OW 1518   1.603   2.309   0.737
  506SOL    HW1 1519   1.529   2.355   0.687
  506SOL    HW2 1520   1.654   2.377   0.790
  507SOL     OW 1521   0.231   3.575   0.483
  507SOL    HW1 1522   0.265   3.652   0.537
  507SOL    HW2 1523   0.275   3.575   0.393
  508SOL     OW 1524   1.127   3.203   1.690
  508SOL    HW1 1525   1.174   3.203   1.778
  508SOL    HW2 1526   1.079   3.116   1.679
  509SOL     OW 1527   0.230   3.296   0.538
  509SOL    HW1 1528   0.204   3.392   0.538
  509SOL    HW2 1529   0.159   3.242   0.583
  510SOL     OW 1530   0.240   2.953   0.886
  510SOL    HW1 1531   0.254   2.869   0.938
  510SOL    HW2 1532   0.185   3.017   0.941
  511SOL     OW 1533   0.620   3.648   1.439
  511SOL    HW1 1534   0.528   3.631   1.474
  511SOL    HW2 1535   0.648   3.740   1.465
  512SOL     OW 1536   0.606   2.826   0.123
  512SOL    HW1 1537   0.613   2.910   0.069
  512SOL    HW2 1538   0.652   2.839   0.211
  513SOL     OW 1539   1.594   1.976   1.480
  513SOL    HW1 1540   1.576   2.043   1.408
  513SOL    HW2 1541   1.591   2.022   1.569
  514SOL     OW 1542   0.122   2.505   0.563
  514SOL    HW1 1543   0.077   2.417   0.580
  514SOL    HW2 1544   0.121   2.559   0.647
  515SOL     OW 1545   1.842   3.629   0.359
  515SOL    HW1 1546   1.896   3.600   0.439
  515SOL    HW2 1547   1.872   3.719   0.330
  516SOL     OW 1548   0.027   3.458   0.117
  516SOL    HW1 1549   0.008   3.362   0.138
  516SOL    HW2 1550  -0.006   3.516   0.192
  517SOL     OW 1551   1.689   2.784   0.612
  517SOL    HW1 1552   1.784   2.755   0.620
  517SOL    HW2 1553   1.681   2.849   0.537
  518SOL     OW 1554   1.641   2.970   0.432
  518SOL    HW1 1555   1.727   2.972   0.380
  518SOL    HW2 1556   1.655   3.017   0.520
  519SOL     OW 1557   0.113   2.599   1.597
  519SOL    HW1 1558   0.201   2.586   1.642
  519SOL    HW2 1559   0.100   2.696   1.575
  520SOL     OW 1560   0.613   3.227   0.726
  520SOL    HW1 1561   0.564   3.140   0.735
  520SOL    HW2 1562   0.590   3.270   0.639
  521SOL     OW 1563   1.293   3.090   1.423
  521SOL    HW1 1564   1.330   3.017   1.365
  521SOL    HW2 1565   1.345   3.095   1.508
  522SOL     OW 1566   0.809   1.866   0.502
  522SOL    HW1 1567   0.849   1.957   0.493
  522SOL    HW2 1568   0.709   1.874   0.508
  523SOL     OW 1569   0.197   2.838   1.264
  523SOL    HW1 1570   0.286   2.793   1.250
  523SOL    HW2 1571   0.124   2.773   1.245
  524SOL     OW 1572   1.525   2.861   0.190
  524SOL    HW1 1573   1.462   2.785   0.203
  524SOL    HW2 1574   1.573   2.879   0.276
  525SOL     OW 1575   1.187   3.654   1.616
  525SOL    HW1 1576   1.211   3.714   1.540
  525SOL    HW2 1577   1.194   3.559   1.586
  526SOL     OW 1578   0.317   2.113   1.801
  526SOL    HW1 1579   0.388   2.184   1.807
  526SOL    HW2 1580   0.229   2.152   1.829
  527SOL     OW 1581   1.466   3.279   0.953
  527SOL    HW1 1582   1.407   3.285   1.033
  527SOL    HW2 1583   1.451   3.191   0.907
  528SOL     OW 1584   1.667   3.576   0.572
  528SOL    HW1 1585   1.626   3.553   0.484
  528SOL    HW2 1586   1.649   3.502   0.637
  529SOL     OW 1587   0.598   2.591   0.270
  529SOL    HW1 1588   0.622   2.660   0.202
  529SOL    HW2 1589   0.520   2.624   0.324
  530SOL     OW 1590   1.281   2.207   0.944
  530SOL    HW1 1591   1.195   2.157   0.931
  530SOL    HW2 1592   1.343   2.153   1.000
  531SOL     OW 1593   1.576   3.524   0.307
  531SOL    HW1 1594   1.665   3.570   0.310
  531SOL    HW2 1595   1.555   3.500   0.212
  532SOL     OW 1596   0.807   2.467   1.465
  532SOL    HW1 1597   0.760   2.464   1.554
  532SOL    HW2 1598   0.756   2.412   1.399
  533SOL     OW 1599   1.394   2.331   1.674
  533SOL    HW1 1600   1.374   2.374   1.762
  533SOL    HW2 1601   1.472   2.269   1.683
  534SOL     OW 1602   0.973   2.752   1.572
  534SOL    HW1 1603   1.019   2.668   1.543
  534SOL    HW2 1604   0.917   2.786   1.497
  535SOL     OW 1605   0.991   2.272   1.242
  535SOL    HW1 1606   0.914   2.306   1.296
  535SOL    HW2 1607   0.957   2.221   1.163
  536SOL     OW 1608   1.041   2.563   0.429
  536SOL    HW1 1609   1.067   2.559   0.525
  536SOL    HW2 1610   0.956   2.512   0.415
  537SOL     OW 1611   0.076   2.673   0.789
  537SOL    HW1 1612   0.175   2.661   0.798
  537SOL    HW2 1613   0.052   2.768   0.810
  538SOL     OW 1614   0.130   3.683   1.571
  538SOL    HW1 1615   0.120   3.668   1.670
  538SOL    HW2 1616   0.044   3.719   1.535
  539SOL     OW 1617   0.865   2.210   0.195
  539SOL    HW1 1618   0.924   2.273   0.146
  539SOL    HW2 1619   0.884   2.116   0.166
  540SOL     OW 1620   1.719   2.447   1.831
  540SOL    HW1 1621   1.693   2.536   1.795
  540SOL    HW2 1622   1.717   2.379   1.758
  541SOL     OW 1623   1.362   3.006   0.545
  541SOL    HW1 1624   1.445   2.977   0.497
  541SOL    HW2 1625   1.313   3.073   0.489
  542SOL     OW 1626   0.550   2.058   0.885
  542SOL    HW1 1627   0.545   2.053   0.985
  542SOL    HW2 1628   0.552   2.154   0.856
  543SOL     OW 1629   1.008   3.318   0.477
  543SOL    HW1 1630   0.962   3.390   0.425
  543SOL    HW2 1631   1.004   3.338   0.575
  544SOL     OW 1632   0.351   3.663   0.853
  544SOL    HW1 1633   0.401   3.577   0.859
  544SOL    HW2 1634   0.416   3.740   0.850
  545SOL     OW 1635   1.795   2.928   0.873
  545SOL    HW1 1636   1.733   2.913   0.797
  545SOL    HW2 1637   1.743   2.939   0.958
  546SOL     OW 1638   1.227   3.412   1.506
  546SOL    HW1 1639   1.233   3.335   1.570
  546SOL    HW2 1640   1.175   3.386   1.426
  547SOL     OW 1641   0.321   2.805   0.242
  547SOL    HW1 1642   0.403   2.844   0.200
  547SOL    HW2 1643   0.294   2.723   0.193
  548SOL     OW 1644   1.458   2.597   0.728
  548SOL    HW1 1645   1.453   2.532   0.803
  548SOL    HW2 1646   1.538   2.656   0.741
  549SOL     OW 1647   0.461   3.128   1.727
  549SOL    HW1 1648   0.411   3.129   1.641
  549SOL    HW2 1649   0.398   3.110   1.803
  550SOL     OW 1650   1.111   3.638   0.237
  550SOL    HW1 1651   1.051   3.576   0.287
  550SOL    HW2 1652   1.142   3.594   0.152
  551SOL     OW 1653   0.202   2.147   1.498
  551SOL    HW1 1654   0.122   2.207   1.485
  551SOL    HW2 1655   0.192   2.098   1.584
  552SOL     OW 1656   1.632   3.239   0.081
  552SOL    HW1 1657   1.600   3.333   0.071
  552SOL    HW2 1658   1.556   3.176   0.069
  553SOL     OW 1659   0.464   3.605   0.323
  553SOL    HW1 1660   0.497   3.644   0.409
  553SOL    HW2 1661   0.540   3.598   0.258
  554SOL     OW 1662   1.400   1.969   0.426
  554SOL    HW1 1663   1.376   1.932   0.336
  554SOL    HW2 1664   1.499   1.985   0.430
  555SOL     OW 1665   0.249   3.647   1.241
  555SOL    HW1 1666   0.306   3.582   1.291
  555SOL    HW2 1667   0.233   3.614   1.148
  556SOL     OW 1668   0.940   3.560   0.904
  556SOL    HW1 1669   1.020   3.503   0.925
  556SOL    HW2 1670   0.891   3.520   0.827
  557SOL     OW 1671   0.382   2.562   0.480
  557SOL    HW1 1672   0.427   2.472   0.477
  557SOL    HW2 1673   0.288   2.551   0.513
  558SOL     OW 1674   1.547   2.084   1.729
  558SOL    HW1 1675   1.542   2.121   1.821
  558SOL    HW2 1676   1.475   2.015   1.717
  559SOL     OW 1677   0.614   1.984   0.117
  559SOL    HW1 1678   0.712   1.962   0.124
  559SOL    HW2 1679   0.583   1.967   0.024
  560SOL     OW 1680   0.781   2.126   1.749
  560SOL    HW1 1681   0.848   2.065   1.792
  560SOL    HW2 1682   0.708   2.145   1.814
  561SOL     OW 1683   0.888   3.376   1.195
  561SOL    HW1 1684   0.865   3.351   1.101
  561SOL    HW2 1685   0.949   3.307   1.234
  562SOL     OW 1686   1.351   2.452   1.433
  562SOL    HW1 1687   1.379   2.409   1.518
  562SOL    HW2 1688   1.376   2.548   1.434
  563SOL     OW 1689   0.803   3.264   0.924
  563SOL    HW1 1690   0.893   3.278   0.882
  563SOL    HW2 1691   0.732   3.266   0.853
  564SOL     OW 1692   0.922   2.365   0.899
  564SOL    HW1 1693   0.897   2.356   0.803
  564SOL    HW2 1694   0.970   2.283   0.930
  565SOL     OW 1695   0.539   1.926   0.512
  565SOL    HW1 1696   0.458   1.927   0.570
  565SOL    HW2 1697   0.542   2.009   0.457
  566SOL     OW 1698   1.434   3.050   0.041
  566SOL    HW1 1699   1.466   2.974   0.098
  566SOL    HW2 1700   1.342   3.077   0.071
  567SOL     OW 1701   0.297   1.897   0.171
  567SOL    HW1 1702   0.346   1.981   0.150
  567SOL    HW2 1703   0.359   1.832   0.216
  568SOL     OW 1704   0.935   2.098   0.480
  568SOL    HW1 1705   0.887   2.139   0.402
  568SOL    HW2 1706   1.034   2.096   0.461
  569SOL     OW 1707   1.076   2.545   1.464
  569SOL    HW1 1708   0.996   2.484   1.467
  569SOL    HW2 1709   1.157   2.492   1.440
  570SOL     OW 1710   1.227   3.432   0.793
  570SOL    HW1 1711   1.248   3.506   0.728
  570SOL    HW2 1712   1.295   3.432   0.866
  571SOL     OW 1713   0.459   3.014   0.741
  571SOL    HW1 1714   0.388   2.987   0.806
  571SOL    HW2 1715   0.433   2.986   0.648
  572SOL     OW 1716   1.271   3.659   0.591
  572SOL    HW1 1717   1.315   3.723   0.527
  572SOL    HW2 1718   1.221   3.711   0.661
  573SOL     OW 1719   1.032   2.411   0.016
  573SOL    HW1 1720   0.991   2.493  -0.023
  573SOL    HW2 1721   1.096   2.437   0.089
  574SOL     OW 1722   0.078   2.418   1.386
  574SOL    HW1 1723   0.170   2.417   1.345
  574SOL    HW2 1724   0.072   2.492   1.453
  575SOL     OW 1725   0.561   2.084   1.147
  575SOL    HW1 1726   0.599   2.000   1.184
  575SOL    HW2 1727   0.473   2.103   1.191
  576SOL     OW 1728   0.866   2.316   0.642
  576SOL    HW1 1729   0.834   2.388   0.580
  576SOL    HW2 1730   0.890   2.235   0.589
  577SOL     OW 1731   1.017   1.901   0.753
  577SOL    HW1 1732   0.945   1.906   0.684
  577SOL    HW2 1733   0.993   1.832   0.822
  578SOL     OW 1734   1.429   3.035   0.867
  578SOL    HW1 1735   1.374   2.951   0.860
  578SOL    HW2 1736   1.455   3.064   0.775
  579SOL     OW 1737   1.466   2.452   0.992
  579SOL    HW1 1738   1.436   2.357   0.999
  579SOL    HW2 1739   1.539   2.468   1.058
  580SOL     OW 1740   1.857   2.695   0.377
  580SOL    HW1 1741   1.899   2.631   0.441
  580SOL    HW2 1742   1.819   2.644   0.299
  581SOL     OW 1743   0.488   3.247   0.174
  581SOL    HW1 1744   0.401   3.232   0.221
  581SOL    HW2 1745   0.471   3.273   0.079
  582SOL     OW 1746   1.664   3.142   0.657
  582SOL    HW1 1747   1.763   3.150   0.671
  582SOL    HW2 1748   1.619   3.226   0.688
  583SOL     OW 1749   1.390   2.437   0.078
  583SOL    HW1 1750   1.336   2.416   0.159
  583SOL    HW2 1751   1.481   2.396   0.087
  584SOL     OW 1752   0.527   2.118   0.328
  584SOL    HW1 1753   0.554   2.059   0.253
  584SOL    HW2 1754   0.527   2.213   0.297
  585SOL     OW 1755   1.754   3.085   1.588
  585SOL    HW1 1756   1.845   3.046   1.575
  585SOL    HW2 1757   1.762   3.181   1.612
  586SOL     OW 1758   1.064   3.209   1.340
  586SOL    HW1 1759   0.984   3.186   1.395
  586SOL    HW2 1760   1.147   3.183   1.389
  587SOL     OW 1761   1.592   3.491   1.625
  587SOL    HW1 1762   1.619   3.525   1.535
  587SOL    HW2 1763   1.671   3.453   1.671
  588SOL     OW 1764   1.111   3.057   1.100
  588SOL    HW1 1765   1.071   3.101   1.181
  588SOL    HW2 1766   1.070   3.094   1.017
  589SOL     OW 1767   1.638   2.961   1.079
  589SOL    HW1 1768   1.643   3.042   1.138
  589SOL    HW2 1769   1.552   2.963   1.028
  590SOL     OW 1770   0.915   1.951   1.402
  590SOL    HW1 1771   0.940   1.931   1.307
  590SOL    HW2 1772   0.987   2.007   1.444
  591SOL     OW 1773   0.980   2.978   1.719
  591SOL    HW1 1774   0.881   2.984   1.729
  591SOL    HW2 1775   1.003   2.898   1.663
  592SOL     OW 1776   0.705   2.912   0.368
  592SOL    HW1 1777   0.691   2.919   0.467
  592SOL    HW2 1778   0.789   2.861   0.350
  593SOL     OW 1779   0.410   2.675   1.251
  593SOL    HW1 1780   0.496   2.687   1.301
  593SOL    HW2 1781   0.368   2.588   1.278
  594SOL     OW 1782   1.274   2.248   1.262
  594SOL    HW1 1783   1.295   2.322   1.326
  594SOL    HW2 1784   1.185   2.265   1.219
  595SOL     OW 1785   0.064   3.426   1.331
  595SOL    HW1 1786   0.018   3.508   1.297
  595SOL    HW2 1787   0.162   3.445   1.340
  596SOL     OW 1788   0.367   2.962   0.501
  596SOL    HW1 1789   0.360   3.045   0.445
  596SOL    HW2 1790   0.371   2.882   0.441
  597SOL     OW 1791   0.566   2.399   0.865
  597SOL    HW1 1792   0.578   2.465   0.791
  597SOL    HW2 1793   0.612   2.433   0.948
  598SOL     OW 1794   1.252   3.210   0.388
  598SOL    HW1 1795   1.302   3.287   0.428
  598SOL    HW2 1796   1.157   3.212   0.420
  599SOL     OW 1797   1.272   3.307   1.142
  599SOL    HW1 1798   1.319   3.320   1.229
  599SOL    HW2 1799   1.206   3.233   1.151
  600SOL     OW 1800   1.582   2.501   0.472
  600SOL    HW1 1801   1.551   2.562   0.545
  600SOL    HW2 1802   1.632   2.553   0.403
  601SOL     OW 1803   0.354   3.372   1.329
  601SOL    HW1 1804   0.333   3.328   1.242
  601SOL    HW2 1805   0.451   3.398   1.332
  602SOL     OW 1806   0.402   2.613   1.598
  602SOL    HW1 1807   0.470   2.668   1.551
  602SOL    HW2 1808   0.442   2.525   1.625
  603SOL     OW 1809   1.587   2.641   1.670
  603SOL    HW1 1810   1.495   2.679   1.665
  603SOL    HW2 1811   1.647   2.688   1.605
  604SOL     OW 1812   1.013   1.967   1.770
  604SOL    HW1 1813   1.019   2.052   1.718
  604SOL    HW2 1814   1.045   1.891   1.713
  605SOL     OW 1815   0.504   1.912   1.740
  605SOL    HW1 1816   0.462   1.855   1.670
  605SOL    HW2 1817   0.438   1.981   1.772
  606SOL     OW 1818   0.573   2.732   1.029
  606SOL    HW1 1819   0.617   2.821   1.020
  606SOL    HW2 1820   0.510   2.732   1.106
  607SOL     OW 1821   1.360   2.724   1.045
  607SOL    HW1 1822   1.285   2.724   0.979
  607SOL    HW2 1823   1.397   2.632   1.054
  608SOL     OW 1824   1.209   2.387   0.275
  608SOL    HW1 1825   1.222   2.303   0.329
  608SOL    HW2 1826   1.180   2.461   0.335
  609SOL     OW 1827   0.307   2.075   1.231
  609SOL    HW1 1828   0.284   2.112   1.321
  609SOL    HW2 1829   0.277   1.980   1.225
  610SOL     OW 1830   0.037   3.172   1.282
  610SOL    HW1 1831   0.090   3.123   1.350
  610SOL    HW2 1832   0.059   3.270   1.287
  611SOL     OW 1833   0.732   2.496   1.064
  611SOL    HW1 1834   0.791   2.470   0.988
  611SOL    HW2 1835   0.704   2.592   1.053
  612SOL     OW 1836   1.728   2.797   1.854
  612SOL    HW1 1837   1.682   2.790   1.765
  612SOL    HW2 1838   1.666   2.841   1.920
  613SOL     OW 1839   0.307   1.925   0.618
  613SOL    HW1 1840   0.296   2.019   0.651
  613SOL    HW2 1841   0.302   1.862   0.695
  614SOL     OW 1842   1.622   2.229   0.374
  614SOL    HW1 1843   1.624   2.153   0.438
  614SOL    HW2 1844   1.574   2.306   0.414
  615SOL     OW 1845   1.023   2.628   0.966
  615SOL    HW1 1846   1.038   2.649   1.062
  615SOL    HW2 1847   0.993   2.533   0.957
  616SOL     OW 1848   0.980   3.435   1.700
  616SOL    HW1 1849   0.960   3.479   1.612
  616SOL    HW2 1850   1.019   3.344   1.684
  617SOL     OW 1851   1.859   3.380   1.605
  617SOL    HW1 1852   1.873   3.407   1.510
  617SOL    HW2 1853   1.942   3.402   1.658
  618SOL     OW 1854   0.350   2.760   1.804
  618SOL    HW1 1855   0.426   2.804   1.852
  618SOL    HW2 1856   0.385   2.713   1.722
  619SOL     OW 1857   1.540   2.136   0.125
  619SOL    HW1 1858   1.479   2.061   0.148
  619SOL    HW2 1859   1.562   2.188   0.208
  620SOL     OW 1860   1.303   2.700   0.042
  620SOL    HW1 1861   1.337   2.607   0.057
  620SOL    HW2 1862   1.321   2.727  -0.053
  621SOL     OW 1863   1.068   3.195   0.849
  621SOL    HW1 1864   1.075   3.111   0.794
  621SOL    HW2 1865   1.130   3.264   0.813
  622SOL     OW 1866   0.319   2.672   0.949
  622SOL    HW1 1867   0.412   2.708   0.954
  622SOL    HW2 1868   0.313   2.587   1.001
  623SOL     OW 1869   0.339   2.371   1.006
  623SOL    HW1 1870   0.287   2.288   0.989
  623SOL    HW2 1871   0.416   2.376   0.942
  624SOL     OW 1872   1.138   2.242   1.678
  624SOL    HW1 1873   1.093   2.305   1.742
  624SOL    HW2 1874   1.231   2.273   1.661
  625SOL     OW 1875   1.160   2.069   1.477
  625SOL    HW1 1876   1.160   2.133   1.554
  625SOL    HW2 1877   1.188   2.117   1.394
  626SOL     OW 1878   0.008   3.188   0.200
  626SOL    HW1 1879  -0.085   3.209   0.169
  626SOL    HW2 1880   0.018   3.089   0.213
  627SOL     OW 1881   0.088   3.663   0.927
  627SOL    HW1 1882   0.046   3.577   0.900
  627SOL    HW2 1883   0.182   3.666   0.893
  628SOL     OW 1884   0.504   3.430   0.910
  628SOL    HW1 1885   0.570   3.504   0.919
  628SOL    HW2 1886   0.548   3.351   0.868
  629SOL     OW 1887   1.002   2.658   1.238
  629SOL    HW1 1888   1.043   2.626   1.324
  629SOL    HW2 1889   0.906   2.631   1.235
  630SOL     OW 1890   0.040   2.406   1.114
  630SOL    HW1 1891   0.125   2.373   1.073
  630SOL    HW2 1892   0.053   2.421   1.212
  631SOL     OW 1893   0.189   2.382   1.722
  631SOL    HW1 1894   0.248   2.342   1.652
  631SOL    HW2 1895   0.131   2.453   1.681
  632SOL     OW 1896   1.369   2.812   1.660
  632SOL    HW1 1897   1.408   2.901   1.680
  632SOL    HW2 1898   1.379   2.792   1.563
  633SOL     OW 1899   0.815   2.434   0.325
  633SOL    HW1 1900   0.822   2.345   0.279
  633SOL    HW2 1901   0.721   2.468   0.317
  634SOL     OW 1902   1.657   2.466   1.206
  634SOL    HW1 1903   1.619   2.397   1.268
  634SOL    HW2 1904   1.739   2.430   1.162
  635SOL     OW 1905   0.252   3.426   1.744
  635SOL    HW1 1906   0.222   3.483   1.820
  635SOL    HW2 1907   0.245   3.329   1.770
  636SOL     OW 1908   0.671   2.326   1.269
  636SOL    HW1 1909   0.637   2.237   1.239
  636SOL    HW2 1910   0.697   2.380   1.189
  637SOL     OW 1911   0.930   3.540   1.465
  637SOL    HW1 1912   0.906   3.522   1.370
  637SOL    HW2 1913   0.960   3.634   1.475
  638SOL     OW 1914   0.473   2.362   0.191
  638SOL    HW1 1915   0.534   2.442   0.195
  638SOL    HW2 1916   0.378   2.393   0.198
  639SOL     OW 1917   0.159   2.999   1.466
  639SOL    HW1 1918   0.181   2.938   1.542
  639SOL    HW2 1919   0.169   2.950   1.380
  640SOL     OW 1920   1.347   2.921   1.234
  640SOL    HW1 1921   1.371   2.858   1.160
  640SOL    HW2 1922   1.257   2.961   1.216
  641SOL     OW 1923   1.302   2.717   0.309
  641SOL    HW1 1924   1.216   2.686   0.351
  641SOL    HW2 1925   1.298   2.703   0.210
  642SOL     OW 1926   1.759   3.609   1.154
  642SOL    HW1 1927   1.820   3.639   1.081
  642SOL    HW2 1928   1.721   3.520   1.132
  643SOL     OW 1929   1.252   3.593   1.128
  643SOL    HW1 1930   1.336   3.598   1.074
  643SOL    HW2 1931   1.229   3.497   1.146
  644SOL     OW 1932   0.083   3.120   1.022
  644SOL    HW1 1933   0.078   3.119   1.122
  644SOL    HW2 1934   0.000   3.079   0.984
  645SOL     OW 1935   0.688   3.524   1.716
  645SOL    HW1 1936   0.632   3.605   1.725
  645SOL    HW2 1937   0.740   3.528   1.630
  646SOL     OW 1938   0.903   1.948   0.133
  646SOL    HW1 1939   0.954   1.949   0.047
  646SOL    HW2 1940   0.959   1.906   0.204
  647SOL     OW 1941   1.726   1.997   0.523
  647SOL    HW1 1942   1.799   1.980   0.456
  647SOL    HW2 1943   1.695   1.910   0.561
  648SOL     OW 1944   1.388   3.435   0.477
  648SOL    HW1 1945   1.455   3.447   0.403
  648SOL    HW2 1946   1.348   3.524   0.500
  649SOL     OW 1947   0.130   3.656   1.851
  649SOL    HW1 1948   0.089   3.582   1.904
  649SOL    HW2 1949   0.194   3.707   1.909
  650SOL     OW 1950   1.280   2.789   0.672
  650SOL    HW1 1951   1.340   2.708   0.674
  650SOL    HW2 1952   1.320   2.858   0.612
  651SOL     OW 1953   0.830   3.135   1.422
  651SOL    HW1 1954   0.825   3.168   1.517
  651SOL    HW2 1955   0.744   3.154   1.376
  652SOL     OW 1956   0.672   3.478   0.154
  652SOL    HW1 1957   0.681   3.488   0.055
  652SOL    HW2 1958   0.632   3.389   0.175
  653SOL     OW 1959   1.650   3.582   1.394
  653SOL    HW1 1960   1.703   3.592   1.310
  653SOL    HW2 1961   1.623   3.672   1.428
  654SOL     OW 1962   1.841   2.037   0.963
  654SOL    HW1 1963   1.880   1.952   0.927
  654SOL    HW2 1964   1.743   2.039   0.944
  655SOL     OW 1965   0.263   2.188   0.720
  655SOL    HW1 1966   0.184   2.239   0.686
  655SOL    HW2 1967   0.254   2.173   0.818
  656SOL     OW 1968   1.194   3.474   0.031
  656SOL    HW1 1969   1.200   3.381   0.068
  656SOL    HW2 1970   1.135   3.474  -0.049
  657SOL     OW 1971   0.822   2.864   1.372
  657SOL    HW1 1972   0.862   2.863   1.280
  657SOL    HW2 1973   0.832   2.956   1.412
  658SOL     OW 1974   0.916   2.772   0.291
  658SOL    HW1 1975   0.979   2.810   0.223
  658SOL    HW2 1976   0.956   2.689   0.330
  659SOL     OW 1977   1.504   3.469   0.044
  659SOL    HW1 1978   1.412   3.506   0.051
  659SOL    HW2 1979   1.542   3.489  -0.046
  660SOL     OW 1980   0.372   3.150   1.490
  660SOL    HW1 1981   0.359   3.243   1.456
  660SOL    HW2 1982   0.288   3.098   1.477
  661SOL     OW 1983   1.614   3.154   1.289
  661SOL    HW1 1984   1.674   3.157   1.369
  661SOL    HW2 1985   1.539   3.218   1.302
  662SOL     OW 1986   1.039   2.960   0.696
  662SOL    HW1 1987   0.969   2.913   0.750
  662SOL    HW2 1988   1.098   2.892   0.653
  663SOL     OW 1989   1.014   2.098   0.971
  663SOL    HW1 1990   1.006   2.062   0.878
  663SOL    HW2 1991   1.012   2.022   1.036
  664SOL     OW 1992   0.590   3.349   0.491
  664SOL    HW1 1993   0.632   3.291   0.421
  664SOL    HW2 1994   0.546   3.428   0.447
  665SOL     OW 1995   1.709   2.247   1.381
  665SOL    HW1 1996   1.782   2.316   1.385
  665SOL    HW2 1997   1.737   2.172   1.322
  666SOL     OW 1998   0.255   3.210   0.290
  666SOL    HW1 1999   0.159   3.211   0.263
  666SOL    HW2 2000   0.267   3.263   0.374
  667SOL     OW 2001   0.105   2.875   1.726
  667SOL    HW1 2002   0.028   2.842   1.780
  667SOL    HW2 2003   0.190   2.845   1.768
  668SOL     OW 2004   0.672   2.065   1.489
  668SOL    HW1 2005   0.762   2.049   1.449
  668SOL    HW2 2006   0.680   2.070   1.588
  669SOL     OW 2007   0.075   2.207   0.033
  669SOL    HW1 2008  -0.017   2.179   0.004
  669SOL    HW2 2009   0.106   2.284  -0.023
  670SOL     OW 2010   1.440   2.718   1.398
  670SOL    HW1 2011   1.383   2.770   1.335
  670SOL    HW2 2012   1.536   2.730   1.374
  671SOL     OW 2013   0.072   2.028   0.318
  671SOL    HW1 2014   0.055   2.111   0.264
  671SOL    HW2 2015   0.162   1.991   0.296
  672SOL     OW 2016   1.183   3.197   0.119
  672SOL    HW1 2017   1.084   3.186   0.121
  672SOL    HW2 2018   1.217   3.212   0.212
  673SOL     OW 2019   0.613   2.704   1.431
  673SOL    HW1 2020   0.669   2.785   1.414
  673SOL    HW2 2021   0.672   2.624   1.434
  674SOL     OW 2022   1.493   3.629   0.959
  674SOL    HW1 2023   1.526   3.693   0.890
  674SOL    HW2 2024   1.559   3.623   1.034
  675SOL     OW 2025   0.716   2.427   1.708
  675SOL    HW1 2026   0.735   2.492   1.782
  675SOL    HW2 2027   0.776   2.347   1.717
  676SOL     OW 2028   1.450   3.082   1.633
  676SOL    HW1 2029   1.441   3.072   1.732
  676SOL    HW2 2030   1.546   3.075   1.607
  677SOL     OW 2031   0.390   3.603   1.560
  677SOL    HW1 2032   0.299   3.644   1.558
  677SOL    HW2 2033   0.383   3.509   1.592
  678SOL     OW 2034   1.674   2.745   1.254
  678SOL    HW1 2035   1.647   2.656   1.217
  678SOL    HW2 2036   1.675   2.813   1.181
  679SOL     OW 2037   1.225   2.187   0.449
  679SOL    HW1 2038   1.290   2.113   0.438
  679SOL    HW2 2039   1.245   2.237   0.533
  680SOL     OW 2040   0.594   2.607   0.652
  680SOL    HW1 2041   0.644   2.692   0.633
  680SOL    HW2 2042   0.506   2.609   0.604
  681SOL     OW 2043   1.777   2.204   1.642
  681SOL    HW1 2044   1.760   2.235   1.548
  681SOL    HW2 2045   1.693   2.167   1.680
  682SOL     OW 2046   1.730   2.796   1.517
  682SOL    HW1 2047   1.768   2.887   1.532
  682SOL    HW2 2048   1.722   2.779   1.418
  683SOL     OW 2049   0.859   3.236   0.016
  683SOL    HW1 2050   0.813   3.251   0.104
  683SOL    HW2 2051   0.903   3.321  -0.014
  684SOL     OW 2052   0.661   3.652   0.953
  684SOL    HW1 2053   0.615   3.740   0.940
  684SOL    HW2 2054   0.760   3.664   0.946
  685SOL     OW 2055   0.859   2.818   0.861
  685SOL    HW1 2056   0.913   2.749   0.909
  685SOL    HW2 2057   0.827   2.887   0.927
  686SOL     OW 2058   1.083   2.846   0.087
  686SOL    HW1 2059   1.060   2.899   0.005
  686SOL    HW2 2060   1.164   2.790   0.068
  687SOL     OW 2061   1.861   3.431   0.851
  687SOL    HW1 2062   1.790   3.419   0.781
  687SOL    HW2 2063   1.862   3.352   0.911
  688SOL     OW 2064   0.221   3.176   1.844
  688SOL    HW1 2065   0.156   3.103   1.823
  688SOL    HW2 2066   0.225   3.190   1.942
  689SOL     OW 2067   0.079   3.102   0.653
  689SOL    HW1 2068   0.078   3.055   0.741
  689SOL    HW2 2069   0.161   3.074   0.602
  690SOL     OW 2070   0.672   3.253   1.624
  690SOL    HW1 2071   0.594   3.203   1.662
  690SOL    HW2 2072   0.669   3.348   1.655
  691SOL     OW 2073   1.824   2.054   1.227
  691SOL    HW1 2074   1.820   1.964   1.271
  691SOL    HW2 2075   1.827   2.043   1.128
  692SOL     OW 2076   0.428   2.286   0.520
  692SOL    HW1 2077   0.458   2.214   0.458
  692SOL    HW2 2078   0.389   2.246   0.603
  693SOL     OW 2079   1.705   3.349   1.104
  693SOL    HW1 2080   1.612   3.324   1.077
  693SOL    HW2 2081   1.731   3.299   1.186
  694SOL     OW 2082   0.317   2.409   1.280
  694SOL    HW1 2083   0.355   2.350   1.352
  694SOL    HW2 2084   0.357   2.383   1.192
  695SOL     OW 2085   0.812   3.448   0.687
  695SOL    HW1 2086   0.844   3.458   0.593
  695SOL    HW2 2087   0.733   3.386   0.689
  696SOL     OW 2088   1.424   2.076   1.112
  696SOL    HW1 2089   1.476   2.011   1.167
  696SOL    HW2 2090   1.375   2.139   1.173
  697SOL     OW 2091   1.001   1.896   1.154
  697SOL    HW1 2092   0.938   1.824   1.123
  697SOL    HW2 2093   1.094   1.860   1.154
  698SOL     OW 2094   0.770   3.192   0.301
  698SOL    HW1 2095   0.724   3.105   0.318
  698SOL    HW2 2096   0.861   3.189   0.342
  699SOL     OW 2097   0.618   3.429   1.284
  699SOL    HW1 2098   0.613   3.511   1.341
  699SOL    HW2 2099   0.707   3.426   1.239
  700SOL     OW 2100   1.300   2.315   0.691
  700SOL    HW1 2101   1.241   2.395   0.695
  700SOL    HW2 2102   1.315   2.280   0.784
  701SOL     OW 2103   1.593   2.083   0.882
  701SOL    HW1 2104   1.509   2.082   0.936
  701SOL    HW2 2105   1.595   2.166   0.826
  702SOL     OW 2106   0.039   2.939   0.300
  702SOL    HW1 2107   0.138   2.928   0.291
  702SOL    HW2 2108  -0.001   2.853   0.332
  703SOL     OW 2109   0.875   3.508   0.337
  703SOL    HW1 2110   0.798   3.473   0.283
  703SOL    HW2 2111   0.843   3.579   0.399
  704SOL     OW 2112   0.230   2.490   1.975
  704SOL    HW1 2113   0.137   2.488   2.012
  704SOL    HW2 2114   0.231   2.451   1.883
  705SOL     OW 2115   0.225   2.137   2.858
  705SOL    HW1 2116   0.260   2.120   2.950
  705SOL    HW2 2117   0.137   2.092   2.846
  706SOL     OW 2118   0.019   2.230   2.509
  706SOL    HW1 2119  -0.063   2.273   2.548
  706SOL    HW2 2120  -0.009   2.157   2.446
  707SOL     OW 2121   0.569   3.137   3.027
  707SOL    HW1 2122   0.476   3.130   2.990
  707SOL    HW2 2123   0.580   3.226   3.071
  708SOL     OW 2124   1.555   3.373   2.565
  708SOL    HW1 2125   1.498   3.357   2.646
  708SOL    HW2 2126   1.496   3.383   2.485
  709SOL     OW 2127   1.135   2.565   2.579
  709SOL    HW1 2128   1.192   2.643   2.554
  709SOL    HW2 2129   1.075   2.591   2.655
  710SOL     OW 2130   1.755   2.469   2.093
  710SOL    HW1 2131   1.743   2.456   1.994
  710SOL    HW2 2132   1.725   2.388   2.142
  711SOL     OW 2133   0.768   3.006   2.885
  711SOL    HW1 2134   0.690   3.023   2.945
  711SOL    HW2 2135   0.802   3.093   2.849
  712SOL     OW 2136   0.850   2.660   3.685
  712SOL    HW1 2137   0.846   2.736   3.750
  712SOL    HW2 2138   0.872   2.696   3.594
  713SOL     OW 2139   0.685   2.874   2.527
  713SOL    HW1 2140   0.754   2.858   2.597
  713SOL    HW2 2141   0.612   2.931   2.565
  714SOL     OW 2142   0.686   3.023   3.665
  714SOL    HW1 2143   0.746   3.102   3.679
  714SOL    HW2 2144   0.600   3.054   3.624
  715SOL     OW 2145   0.335   3.297   2.923
  715SOL    HW1 2146   0.257   3.266   2.870
  715SOL    HW2 2147   0.393   3.355   2.866
  716SOL     OW 2148   1.460   3.367   3.201
  716SOL    HW1 2149   1.484   3.461   3.227
  716SOL    HW2 2150   1.444   3.313   3.283
  717SOL     OW 2151   0.438   2.254   3.361
  717SOL    HW1 2152   0.520   2.198   3.370
  717SOL    HW2 2153   0.357   2.196   3.365
  718SOL     OW 2154   1.603   2.309   2.599
  718SOL    HW1 2155   1.529   2.355   2.549
  718SOL    HW2 2156   1.654   2.377   2.652
  719SOL     OW 2157   0.231   3.575   2.345
  719SOL    HW1 2158   0.265   3.652   2.399
  719SOL    HW2 2159   0.275   3.575   2.255
  720SOL     OW 2160   1.127   3.203   3.552
  720SOL    HW1 2161   1.174   3.203   3.640
  720SOL    HW2 2162   1.079   3.116   3.541
  721SOL     OW 2163   0.230   3.296   2.400
  721SOL    HW1 2164   0.204   3.392   2.400
  721SOL    HW2 2165   0.159   3.242   2.445
  722SOL     OW 2166   0.240   2.953   2.748
  722SOL    HW1 2167   0.254   2.869   2.800
  722SOL    HW2 2168   0.185   3.017   2.803
  723SOL     OW 2169   0.620   3.648   3.301
  723SOL    HW1 2170   0.528   3.631   3.336
  723SOL    HW2 2171   0.648   3.740   3.327
  724SOL     OW 2172   0.606   2.826   1.985
  724SOL    HW1 2173   0.613   2.910   1.931
  724SOL    HW2 2174   0.652   2.839   2.073
  725SOL     OW 2175   1.594   1.976   3.342
  725SOL    HW1 2176   1.576   2.043   3.270
  725SOL    HW2 2177   1.591   2.022   3.431
  726SOL     OW 2178   0.122   2.505   2.425
  726SOL    HW1 2179   0.077   2.417   2.442
  726SOL    HW2 2180   0.121   2.559   2.509
  727SOL     OW 2181   1.842   3.629   2.221
  727SOL    HW1 2182   1.896   3.600   2.301
  727SOL    HW2 2183   1.872   3.719   2.192
  728SOL     OW 2184   0.027   3.458   1.979
  728SOL    HW1 2185   0.008   3.362   2.000
  728SOL    HW2 2186  -0.006   3.516   2.054
  729SOL     OW 2187   1.689   2.784   2.474
  729SOL    HW1 2188   1.784   2.755   2.482
  729SOL    HW2 2189   1.681   2.849   2.399
  730SOL     OW 2190   1.641   2.970   2.294
  730SOL    HW1 2191   1.727   2.972   2.242
  730SOL    HW2 2192   1.655   3.017   2.382
  731SOL     OW 2193   0.113   2.599   3.459
  731SOL    HW1 2194   0.201   2.586   3.504
  731SOL    HW2 2195   0.100   2.696   3.437
  732SOL     OW 2196   0.613   3.227   2.588
  732SOL    HW1 2197   0.564   3.140   2.597
  732SOL    HW2 2198   0.590   3.270   2.501
  733SOL     OW 2199   1.293   3.090   3.285
  733SOL    HW1 2200   1.330   3.017   3.227
  733SOL    HW2 2201   1.345   3.095   3.370
  734SOL     OW 2202   0.809   1.866   2.364
  734SOL    HW1 2203   0.849   1.957   2.355
  734SOL    HW2 2204   0.709   1.874   2.370
  735SOL     OW 2205   0.197   2.838   3.126
  735SOL    HW1 2206   0.286   2.793   3.112
  735SOL    HW2 2207   0.124   2.773   3.107
  736SOL     OW 2208   1.525   2.861   2.052
  736SOL    HW1 2209   1.462   2.785   2.065
  736SOL    HW2 2210   1.573   2.879   2.138
  737SOL     OW 2211   1.187   3.654   3.478
  737SOL    HW1 2212   1.211   3.714   3.402
  737SOL    HW2 2213   1.194   3.559   3.448
  738SOL     OW 2214   0.317   2.113   3.663
  738SOL    HW1 2215   0.388   2.184   3.669
  738SOL    HW2 2216   0.229   2.152   3.691
  739SOL     OW 2217   1.466   3.279   2.815
  739SOL    HW1 2218   1.407   3.285   2.895
  739SOL    HW2 2219   1.451   3.191   2.769
  740SOL     OW 2220   1.667   3.576   2.434
  740SOL    HW1 2221   1.626   3.553   2.346
  740SOL    HW2 2222   1.649   3.502   2.499
  741SOL     OW 2223   0.598   2.591   2.132
  741SOL    HW1 2224   0.622   2.660   2.064
  741SOL    HW2 2225   0.520   2.624   2.186
  742SOL     OW 2226   1.281   2.207   2.806
  742SOL    HW1 2227   1.195   2.157   2.793
  742SOL    HW2 2228   1.343   2.153   2.862
  743SOL     OW 2229   1.576   3.524   2.169
  743SOL    HW1 2230   1.665   3.570   2.172
  743SOL    HW2 2231   1.555   3.500   2.074
  744SOL     OW 2232   0.807   2.467   3.327
  744SOL    HW1 2233   0.760   2.464   3.416
  744SOL    HW2 2234   0.756   2.412   3.261
  745SOL     OW 2235   1.394   2.331   3.536
  745SOL    HW1 2236   1.374   2.374   3.624
  745SOL    HW2 2237   1.472   2.269   3.545
  746SOL     OW 2238   0.973   2.752   3.434
  746SOL    HW1 2239   1.019   2.668   3.405
  746SOL    HW2 2240   0.917   2.786   3.359
  747SOL     OW 2241   0.991   2.272   3.104
  747SOL    HW1 2242   0.914   2.306   3.158
  747SOL    HW2 2243   0.957   2.221   3.025
  748SOL     OW 2244   1.041   2.563   2.291
  748SOL    HW1 2245   1.067   2.559   2.387
  748SOL    HW2 2246   0.956   2.512   2.277
  749SOL     OW 2247   0.076   2.673   2.651
  749SOL    HW1 2248   0.175   2.661   2.660
  749SOL    HW2 2249   0.052   2.768   2.672
  750SOL     OW 2250   0.130   3.683   3.433
  750SOL    HW1 2251   0.120   3.668   3.532
  750SOL    HW2 2252   0.044   3.719   3.397
  751SOL     OW 2253   0.865   2.210   2.057
  751SOL    HW1 2254   0.924   2.273   2.008
  751SOL    HW2 2255   0.884   2.116   2.028
  752SOL     OW 2256   1.719   2.447   3.693
  752SOL    HW1 2257   1.693   2.536   3.657
  752SOL    HW2 2258   1.717   2.379   3.620
  753SOL     OW 2259   1.362   3.006   2.407
  753SOL    HW1 2260   1.445   2.977   2.359
  753SOL    HW2 2261   1.313   3.073   2.351
  754SOL     OW 2262   0.550   2.058   2.747
  754SOL    HW1 2263   0.545   2.053   2.847
  754SOL    HW2 2264   0.552   2.154   2.718
  755SOL     OW 2265   1.008   3.318   2.339
  755SOL    HW1 2266   0.962   3.390   2.287
  755SOL    HW2 2267   1.004   3.338   2.437
  756SOL     OW 2268   0.351   3.663   2.715
  756SOL    HW1 2269   0.401   3.577   2.721
  756SOL    HW2 2270   0.416   3.740   2.712
  757SOL     OW 2271   1.795   2.928   2.735
  757SOL    HW1 2272   1.733   2.913   2.659
  757SOL    HW2 2273   1.743   2.939   2.820
  758SOL     OW 2274   1.227   3.412   3.368
  758SOL    HW1 2275   1.233   3.335   3.432
  758SOL    HW2 2276   1.175   3.386   3.288
  759SOL     OW 2277   0.321   2.805   2.104
  759SOL    HW1 2278   0.403   2.844   2.062
  759SOL    HW2 2279   0.294   2.723   2.055
  760SOL     OW 2280   1.458   2.597   2.590
  760SOL    HW1 2281   1.453   2.532   2.665
  760SOL    HW2 2282   1.538   2.656   2.603
  761SOL     OW 2283   0.461   3.128   3.589
  761SOL    HW1 2284   0.411   3.129   3.503
  761SOL    HW2 2285   0.398   3.110   3.665
  762SOL     OW 2286   1.111   3.638   2.099
  762SOL    HW1 2287   1.051   3.576   2.149
  762SOL    HW2 2288   1.142   3.594   2.014
  763SOL     OW 2289   0.202   2.147   3.360
  763SOL    HW1 2290   0.122   2.207   3.347
  763SOL    HW2 2291   0.192   2.098   3.446
  764SOL     OW 2292   1.632   3.239   1.943
  764SOL    HW1 2293   1.600   3.333   1.933
  764SOL    HW2 2294   1.556   3.176   1.931
  765SOL     OW 2295   0.464   3.605   2.185
  765SOL    HW1 2296   0.497   3.644   2.271
  765SOL    HW2 2297   0.540   3.598   2.120
  766SOL     OW 2298   1.400   1.969   2.288
  766SOL    HW1 2299   1.376   1.932   2.198
  766SOL    HW2 2300   1.499   1.985   2.292
  767SOL     OW 2301   0.249   3.647   3.103
  767SOL    HW1 2302   0.306   3.582   3.153
  767SOL    HW2 2303   0.233   3.614   3.010
  768SOL     OW 2304   0.940   3.560   2.766
  768SOL    HW1 2305   1.020   3.503   2.787
  768SOL    HW2 2306   0.891   3.520   2.689
  769SOL     OW 2307   0.382   2.562   2.342
  769SOL    HW1 2308   0.427   2.472   2.339
  769SOL    HW2 2309   0.288   2.551   2.375
  770SOL     OW 2310   1.547   2.084   3.591
  770SOL    HW1 2311   1.542   2.121   3.683
  770SOL    HW2 2312   1.475   2.015   3.579
  771SOL     OW 2313   0.614   1.984   1.979
  771SOL    HW1 2314   0.712   1.962   1.986
  771SOL    HW2 2315   0.583   1.967   1.886
  772SOL     OW 2316   0.781   2.126   3.611
  772SOL    HW1 2317   0.848   2.065   3.654
  772SOL    HW2 2318   0.708   2.145   3.676
  773SOL     OW 2319   0.888   3.376   3.057
  773SOL    HW1 2320   0.865   3.351   2.963
  773SOL    HW2 2321   0.949   3.307   3.096
  774SOL     OW 2322   1.351   2.452   3.295
  774SOL    HW1 2323   1.379   2.409   3.380
  774SOL    HW2 2324   1.376   2.548   3.296
  775SOL     OW 2325   0.803   3.264   2.786
  775SOL    HW1 2326   0.893   3.278   2.744
  775SOL    HW2 2327   0.732   3.266   2.715
  776SOL     OW 2328   0.922   2.365   2.761
  776SOL    HW1 2329   0.897   2.356   2.665
  776SOL    HW2 2330   0.970   2.283   2.792
  777SOL     OW 2331   0.539   1.926   2.374
  777SOL    HW1 2332   0.458   1.927   2.432
  777SOL    HW2 2333   0.542   2.009   2.319
  778SOL     OW 2334   1.434   3.050   1.903
  778SOL    HW1 2335   1.466   2.974   1.960
  778SOL    HW2 2336   1.342   3.077   1.933
  779SOL     OW 2337   0.297   1.897   2.033
  779SOL    HW1 2338   0.346   1.981   2.012
  779SOL    HW2 2339   0.359   1.832   2.078
  780SOL     OW 2340   0.935   2.098   2.342
  780SOL    HW1 2341   0.887   2.139   2.264
  780SOL    HW2 2342   1.034   2.096   2.323
  781SOL     OW 2343   1.076   2.545   3.326
  781SOL    HW1 2344   0.996   2.484   3.329
  781SOL    HW2 2345   1.157   2.492   3.302
  782SOL     OW 2346   1.227   3.432   2.655
  782SOL    HW1 2347   1.248   3.506   2.590
  782SOL    HW2 2348   1.295   3.432   2.728
  783SOL     OW 2349   0.459   3.014   2.603
  783SOL    HW1 2350   0.388   2.987   2.668
  783SOL    HW2 2351   0.433   2.986   2.510
  784SOL     OW 2352   1.271   3.659   2.453
  784SOL    HW1 2353   1.315   3.723   2.389
  784SOL    HW2 2354   1.221   3.711   2.523
  785SOL     OW 2355   1.032   2.411   1.878
  785SOL    HW1 2356   0.991   2.493   1.839
  785SOL    HW2 2357   1.096   2.437   1.951
  786SOL     OW 2358   0.078   2.418   3.248
  786SOL    HW1 2359   0.170   2.417   3.207
  786SOL    HW2 2360   0.072   2.492   3.315
  787SOL     OW 2361   0.561   2.084   3.009
  787SOL    HW1 2362   0.599   2.000   3.046
  787SOL    HW2 2363   0.473   2.103   3.053
  788SOL     OW 2364   0.866   2.316   2.504
  788SOL    HW1 2365   0.834   2.388   2.442
  788SOL    HW2 2366   0.890   2.235   2.451
  789SOL     OW 2367   1.017   1.901   2.615
  789SOL    HW1 2368   0.945   1.906   2.546
  789SOL    HW2 2369   0.993   1.832   2.684
  790SOL     OW 2370   1.429   3.035   2.729
  790SOL    HW1 2371   1.374   2.951   2.722
  790SOL    HW2 2372   1.455   3.064   2.637
  791SOL     OW 2373   1.466   2.452   2.854
  791SOL    HW1 2374   1.436   2.357   2.861
  791SOL    HW2 2375   1.539   2.468   2.920
  792SOL     OW 2376   1.857   2.695   2.239
  792SOL    HW1 2377   1.899   2.631   2.303
  792SOL    HW2 2378   1.819   2.644   2.161
  793SOL     OW 2379   0.488   3.247   2.036
  793SOL    HW1 2380   0.401   3.232   2.083
  793SOL    HW2 2381   0.471   3.273   1.941
  794SOL     OW 2382   1.664   3.142   2.519
  794SOL    HW1 2383   1.763   3.150   2.533
  794SOL    HW2 2384   1.619   3.226   2.550
  795SOL     OW 2385   1.390   2.437   1.940
  795SOL    HW1 2386   1.336   2.416   2.021
  795SOL    HW2 2387   1.481   2.396   1.949
  796SOL     OW 2388   0.527   2.118   2.190
  796SOL    HW1 2389   0.554   2.059   2.115
  796SOL    HW2 2390   0.527   2.213   2.159
  797SOL     OW 2391   1.754   3.085   3.450
  797SOL    HW1 2392   1.845   3.046   3.437
  797SOL    HW2 2393   1.762   3.181   3.474
  798SOL     OW 2394   1.064   3.209   3.202
  798SOL    HW1 2395   0.984   3.186   3.257
  798SOL    HW2 2396   1.147   3.183   3.251
  799SOL     OW 2397   1.592   3.491   3.487
  799SOL    HW1 2398   1.619   3.525   3.397
  799SOL    HW2 2399   1.671   3.453   3.533
  800SOL     OW 2400   1.111   3.057   2.962
  800SOL    HW1 2401   1.071   3.101   3.043
  800SOL    HW2 2402   1.070   3.094   2.879
  801SOL     OW 2403   1.638   2.961   2.941
  801SOL    HW1 2404   1.643   3.042   3.000
  801SOL    HW2 2405   1.552   2.963   2.890
  802SOL     OW 2406   0.915   1.951   3.264
  802SOL    HW1 2407   0.940   1.931   3.169
  802SOL    HW2 2408   0.987   2.007   3.306
  803SOL     OW 2409   0.980   2.978   3.581
  803SOL    HW1 2410   0.881   2.984   3.591
  803SOL    HW2 2411   1.003   2.898   3.525
  804SOL     OW 2412   0.705   2.912   2.230
  804SOL    HW1 2413   0.691   2.919   2.329
  804SOL    HW2 2414   0.789   2.861   2.212
  805SOL     OW 2415   0.410   2.675   3.113
  805SOL    HW1 2416   0.496   2.687   3.163
  805SOL    HW2 2417   0.368   2.588   3.140
  806SOL     OW 2418   1.274   2.248   3.124
  806SOL    HW1 2419   1.295   2.322   3.188
  806SOL    HW2 2420   1.185   2.265   3.081
  807SOL     OW 2421   0.064   3.426   3.193
  807SOL    HW1 2422   0.018   3.508   3.159
  807SOL    HW2 2423   0.162   3.445   3.202
  808SOL     OW 2424   0.367   2.962   2.363
  808SOL    HW1 2425   0.360   3.045   2.307
  808SOL    HW2 2426   0.371   2.882   2.303
  809SOL     OW 2427   0.566   2.399   2.727
  809SOL    HW1 2428   0.578   2.465   2.653
  809SOL    HW2 2429   0.612   2.433   2.810
  810SOL     OW 2430   1.252   3.210   2.250
  810SOL    HW1 2431   1.302   3.287   2.290
  810SOL    HW2 2432   1.157   3.212   2.282
  811SOL     OW 2433   1.272   3.307   3.004
  811SOL    HW1 2434   1.319   3.320   3.091
  811SOL    HW2 2435   1.206   3.233   3.013
  812SOL     OW 2436   1.582   2.501   2.334
  812SOL    HW1 2437   1.551   2.562   2.407
  812SOL    HW2 2438   1.632   2.553   2.265
  813SOL     OW 2439   0.354   3.372   3.191
  813SOL    HW1 2440   0.333   3.328   3.104
  813SOL    HW2 2441   0.451   3.398   3.194
  814SOL     OW 2442   0.402   2.613   3.460
  814SOL    HW1 2443   0.470   2.668   3.413
  814SOL    HW2 2444   0.442   2.525   3.487
  815SOL     OW 2445   1.587   2.641   3.532
  815SOL    HW1 2446   1.495   2.679   3.527
  815SOL    HW2 2447   1.647   2.688   3.467
  816SOL     OW 2448   1.013   1.967   3.632
  816SOL    HW1 2449   1.019   2.052   3.580
  816SOL    HW2 2450   1.045   1.891   3.575
  817SOL     OW 2451   0.504   1.912   3.602
  817SOL    HW1 2452   0.462   1.855   3.532
  817SOL    HW2 2453   0.438   1.981   3.634
  818SOL     OW 2454   0.573   2.732   2.891
  818SOL    HW1 2455   0.617   2.821   2.882
  818SOL    HW2 2456   0.510   2.732   2.968
  819SOL     OW 2457   1.360   2.724   2.907
  819SOL    HW1 2458   1.285   2.724   2.841
  819SOL    HW2 2459   1.397   2.632   2.916
  820SOL     OW 2460   1.209   2.387   2.137
  820SOL    HW1 2461   1.222   2.303   2.191
  820SOL    HW2 2462   1.180   2.461   2.197
  821SOL     OW 2463   0.307   2.075   3.093
  821SOL    HW1 2464   0.284   2.112   3.183
  821SOL    HW2 2465   0.277   1.980   3.087
  822SOL     OW 2466   0.037   3.172   3.144
  822SOL    HW1 2467   0.090   3.123   3.212
  822SOL    HW2 2468   0.059   3.270   3.149
  823SOL     OW 2469   0.732   2.496   2.926
  823SOL    HW1 2470   0.791   2.470   2.850
  823SOL    HW2 2471   0.704   2.592   2.915
  824SOL     OW 2472   1.728   2.797   3.716
  824SOL    HW1 2473   1.682   2.790   3.627
  824SOL    HW2 2474   1.666   2.841   3.782
  825SOL     OW 2475   0.307   1.925   2.480
  825SOL    HW1 2476   0.296   2.019   2.513
  825SOL    HW2 2477   0.302   1.862   2.557
  826SOL     OW 2478   1.622   2.229   2.236
  826SOL    HW1 2479   1.624   2.153   2.300
  826SOL    HW2 2480   1.574   2.306   2.276
  827SOL     OW 2481   1.023   2.628   2.828
  827SOL    HW1 2482   1.038   2.649   2.924
  827SOL    HW2 2483   0.993   2.533   2.819
  828SOL     OW 2484   0.980   3.435   3.562
  828SOL    HW1 2485   0.960   3.479   3.474
  828SOL    HW2 2486   1.019   3.344   3.546
  829SOL     OW 2487   1.859   3.380   3.467
  829SOL    HW1 2488   1.873   3.407   3.372
  829SOL    HW2 2489   1.942   3.402   3.520
  830SOL     OW 2490   0.350   2.760   3.666
  830SOL    HW1 2491   0.426   2.804   3.714
  830SOL    HW2 2492   0.385   2.713   3.584
  831SOL     OW 2493   1.540   2.136   1.987
  831SOL    HW1 2494   1.479   2.061   2.010
  831SOL    HW2 2495   1.562   2.188   2.070
  832SOL     OW 2496   1.303   2.700   1.904
  832SOL    HW1 2497   1.337   2.607   1.919
  832SOL    HW2 2498   1.321   2.727   1.809
  833SOL     OW 2499   1.068   3.195   2.711
  833SOL    HW1 2500   1.075   3.111   2.656
  833SOL    HW2 2501   1.130   3.264   2.675
  834SOL     OW 2502   0.319   2.672   2.811
  834SOL    HW1 2503   0.412   2.708   2.816
  834SOL    HW2 2504   0.313   2.587   2.863
  835SOL     OW 2505   0.339   2.371   2.868
  835SOL    HW1 2506   0.287   2.288   2.851
  835SOL    HW2 2507   0.416   2.376   2.804
  836SOL     OW 2508   1.138   2.242   3.540
  836SOL    HW1 2509   1.093   2.305   3.604
  836SOL    HW2 2510   1.231   2.273   3.523
  837SOL     OW 2511   1.160   2.069   3.339
  837SOL    HW1 2512   1.160   2.133   3.416
  837SOL    HW2 2513   1.188   2.117   3.256
  838SOL     OW 2514   0.008   3.188   2.062
  838SOL    HW1 2515  -0.085   3.209   2.031
  838SOL    HW2 2516   0.018   3.089   2.075
  839SOL     OW 2517   0.088   3.663   2.789
  839SOL    HW1 2518   0.046   3.577   2.762
  839SOL    HW2 2519   0.182   3.666   2.755
  840SOL     OW 2520   0.504   3.430   2.772
  840SOL    HW1 2521   0.570   3.504   2.781
  840SOL    HW2 2522   0.548   3.351   2.730
  841SOL     OW 2523   1.002   2.658   3.100
  841SOL    HW1 2524   1.043   2.626   3.186
  841SOL    HW2 2525   0.906   2.631   3.097
  842SOL     OW 2526   0.040   2.406   2.976
  842SOL    HW1 2527   0.125   2.373   2.935
  842SOL    HW2 2528   0.053   2.421   3.074
  843SOL     OW 2529   0.189   2.382   3.584
  843SOL    HW1 2530   0.248   2.342   3.514
  843SOL    HW2 2531   0.131   2.453   3.543
  844SOL     OW 2532   1.369   2.812   3.522
  844SOL    HW1 2533   1.408   2.901   3.542
  844SOL    HW2 2534   1.379   2.792   3.425
  845SOL     OW 2535   0.815   2.434   2.187
  845SOL    HW1 2536   0.822   2.345   2.141
  845SOL    HW2 2537   0.721   2.468   2.179
  846SOL     OW 2538   1.657   2.466   3.068
  846SOL    HW1 2539   1.619   2.397   3.130
  846SOL    HW2 2540   1.739   2.430   3.024
  847SOL     OW 2541   0.252   3.426   3.606
  847SOL    HW1 2542   0.222   3.483   3.682
  847SOL    HW2 2543   0.245   3.329   3.632
  848SOL     OW 2544   0.671   2.326   3.131
  848SOL    HW1 2545   0.637   2.237   3.101
  848SOL    HW2 2546   0.697   2.380   3.051
  849SOL     OW 2547   0.930   3.540   3.327
  849SOL    HW1 2548   0.906   3.522   3.232
  849SOL    HW2 2549   0.960   3.634   3.337
  850SOL     OW 2550   0.473   2.362   2.053
  850SOL    HW1 2551   0.534   2.442   2.057
  850SOL    HW2 2552   0.378   2.393   2.060
  851SOL     OW 2553   0.159   2.999   3.328
  851SOL    HW1 2554   0.181   2.938   3.404
  851SOL    HW2 2555   0.169   2.950   3.242
  852SOL     OW 2556   1.347   2.921   3.096
  852SOL    HW1 2557   1.371   2.858   3.022
  852SOL    HW2 2558   1.257   2.961   3.078
  853SOL     OW 2559   1.302   2.717   2.171
  853SOL    HW1 2560   1.216   2.686   2.213
  853SOL    HW2 2561   1.298   2.703   2.072
  854SOL     OW 2562   1.759   3.609   3.016
  854SOL    HW1 2563   1.820   3.639   2.943
  854SOL    HW2 2564   1.721   3.520   2.994
  855SOL     OW 2565   1.252   3.593   2.990
  855SOL    HW1 2566   1.336   3.598   2.936
  855SOL    HW2 2567   1.229   3.497   3.008
  856SOL     OW 2568   0.083   3.120   2.884
  856SOL    HW1 2569   0.078   3.119   2.984
  856SOL    HW2 2570   0.000   3.079   2.846
  857SOL     OW 2571   0.688   3.524   3.578
  857SOL    HW1 2572   0.632   3.605   3.587
  857SOL    HW2 2573   0.740   3.528   3.492
  858SOL     OW 2574   1.726   1.997   2.385
  858SOL    HW1 2575   1.799   1.980   2.318
  858SOL    HW2 2576   1.695   1.910   2.423
  859SOL     OW 2577   1.388   3.435   2.339
  859SOL    HW1 2578   1.455   3.447   2.265
  859SOL    HW2 2579   1.348   3.524   2.362
  860SOL     OW 2580   0.130   3.656   3.713
  860SOL    HW1 2581   0.089   3.582   3.766
  860SOL    HW2 2582   0.194   3.707   3.771
  861SOL     OW 2583   1.280   2.789   2.534
  861SOL    HW1 2584   1.340   2.708   2.536
  861SOL    HW2 2585   1.320   2.858   2.474
  862SOL     OW 2586   0.830   3.135   3.284
  862SOL    HW1 2587   0.825   3.168   3.379
  862SOL    HW2 2588   0.744   3.154   3.238
  863SOL     OW 2589   0.672   3.478   2.016
  863SOL    HW1 2590   0.681   3.488   1.917
  863SOL    HW2 2591   0.632   3.389   2.037
  864SOL     OW 2592   1.650   3.582   3.256
  864SOL    HW1 2593   1.703   3.592   3.172
  864SOL    HW2 2594   1.623   3.672   3.290
  865SOL     OW 2595   1.841   2.037   2.825
  865SOL    HW1 2596   1.880   1.952   2.789
  865SOL    HW2 2597   1.743   2.039   2.806
  866SOL     OW 2598   0.263   2.188   2.582
  866SOL    HW1 2599   0.184   2.239   2.548
  866SOL    HW2 2600   0.254   2.173   2.680
  867SOL     OW 2601   1.194   3.474   1.893
  867SOL    HW1 2602   1.200   3.381   1.930
  867SOL    HW2 2603   1.135   3.474   1.813
  868SOL     OW 2604   0.822   2.864   3.234
  868SOL    HW1 2605   0.862   2.863   3.142
  868SOL    HW2 2606   0.832   2.956   3.274
  869SOL     OW 2607   0.916   2.772   2.153
  869SOL    HW1 2608   0.979   2.810   2.085
  869SOL    HW2 2609   0.956   2.689   2.192
  870SOL     OW 2610   1.504   3.469   1.906
  870SOL    HW1 2611   1.412   3.506   1.913
  870SOL    HW2 2612   1.542   3.489   1.816
  871SOL     OW 2613   0.372   3.150   3.352
  871SOL    HW1 2614   0.359   3.243   3.318
  871SOL    HW2 2615   0.288   3.098   3.339
  872SOL     OW 2616   1.614   3.154   3.151
  872SOL    HW1 2617   1.674   3.157   3.231
  872SOL    HW2 2618   1.539   3.218   3.164
  873SOL     OW 2619   1.039   2.960   2.558
  873SOL    HW1 2620   0.969   2.913   2.612
  873SOL    HW2 2621   1.098   2.892   2.515
  874SOL     OW 2622   1.014   2.098   2.833
  874SOL    HW1 2623   1.006   2.062   2.740
  874SOL    HW2 2624   1.012   2.022   2.898
  875SOL     OW 2625   0.590   3.349   2.353
  875SOL    HW1 2626   0.632   3.291   2.283
  875SOL    HW2 2627   0.546   3.428   2.309
  876SOL     OW 2628   1.709   2.247   3.243
  876SOL    HW1 2629   1.782   2.316   3.247
  876SOL    HW2 2630   1.737   2.172   3.184
  877SOL     OW 2631   0.255   3.210   2.152
  877SOL    HW1 2632   0.159   3.211   2.125
  877SOL    HW2 2633   0.267   3.263   2.236
  878SOL     OW 2634   0.105   2.875   3.588
  878SOL    HW1 2635   0.028   2.842   3.642
  878SOL    HW2 2636   0.190   2.845   3.630
  879SOL     OW 2637   0.672   2.065   3.351
  879SOL    HW1 2638   0.762   2.049   3.311
  879SOL    HW2 2639   0.680   2.070   3.450
  880SOL     OW 2640   0.075   2.207   1.895
  880SOL    HW1 2641  -0.017   2.179   1.866
  880SOL    HW2 2642   0.106   2.284   1.839
  881SOL     OW 2643   1.440   2.718   3.260
  881SOL    HW1 2644   1.383   2.770   3.197
  881SOL    HW2 2645   1.536   2.730   3.236
  882SOL     OW 2646   0.072   2.028   2.180
  882SOL    HW1 2647   0.055   2.111   2.126
  882SOL    HW2 2648   0.162   1.991   2.158
  883SOL     OW 2649   1.183   3.197   1.981
  883SOL    HW1 2650   1.084   3.186   1.983
  883SOL    HW2 2651   1.217   3.212   2.074
  884SOL     OW 2652   0.613   2.704   3.293
  884SOL    HW1 2653   0.669   2.785   3.276
  884SOL    HW2 2654   0.672   2.624   3.296
  885SOL     OW 2655   1.493   3.629   2.821
  885SOL    HW1 2656   1.526   3.693   2.752
  885SOL    HW2 2657   1.559   3.623   2.896
  886SOL     OW 2658   0.716   2.427   3.570
  886SOL    HW1 2659   0.735   2.492   3.644
  886SOL    HW2 2660   0.776   2.347   3.579
  887SOL     OW 2661   1.450   3.082   3.495
  887SOL    HW1 2662   1.441   3.072   3.594
  887SOL    HW2 2663   1.546   3.075   3.469
  888SOL     OW 2664   0.390   3.603   3.422
  888SOL    HW1 2665   0.299   3.644   3.420
  888SOL    HW2 2666   0.383   3.509   3.454
  889SOL     OW 2667   1.674   2.745   3.116
  889SOL    HW1 2668   1.647   2.656   3.079
  889SOL    HW2 2669   1.675   2.813   3.043
  890SOL     OW 2670   1.225   2.187   2.311
  890SOL    HW1 2671   1.290   2.113   2.300
  890SOL    HW2 2672   1.245   2.237   2.395
  891SOL     OW 2673   0.594   2.607   2.514
  891SOL    HW1 2674   0.644   2.692   2.495
  891SOL    HW2 2675   0.506   2.609   2.466
  892SOL     OW 2676   1.777   2.204   3.504
  892SOL    HW1 2677   1.760   2.235   3.410
  892SOL    HW2 2678   1.693   2.167   3.542
  893SOL     OW 2679   1.730   2.796   3.379
  893SOL    HW1 2680   1.768   2.887   3.394
  893SOL    HW2 2681   1.722   2.779   3.280
  894SOL     OW 2682   0.859   3.236   1.878
  894SOL    HW1 2683   0.813   3.251   1.966
  894SOL    HW2 2684   0.903   3.321   1.848
  895SOL     OW 2685   0.661   3.652   2.815
  895SOL    HW1 2686   0.615   3.740   2.802
  895SOL    HW2 2687   0.760   3.664   2.808
  896SOL     OW 2688   0.859   2.818   2.723
  896SOL    HW1 2689   0.913   2.749   2.771
  896SOL    HW2 2690   0.827   2.887   2.789
  897SOL     OW 2691   1.083   2.846   1.949
  897SOL    HW1 2692   1.060   2.899   1.867
  897SOL    HW2 2693   1.164   2.790   1.930
  898SOL     OW 2694   1.861   3.431   2.713
  898SOL    HW1 2695   1.790   3.419   2.643
  898SOL    HW2 2696   1.862   3.352   2.773
  899SOL     OW 2697   0.221   3.176   3.706
  899SOL    HW1 2698   0.156   3.103   3.685
  899SOL    HW2 2699   0.225   3.190   3.804
  900SOL     OW 2700   0.079   3.102   2.515
  900SOL    HW1 2701   0.078   3.055   2.603
  900SOL    HW2 2702   0.161   3.074   2.464
  901SOL     OW 2703   0.672   3.253   3.486
  901SOL    HW1 2704   0.594   3.203   3.524
  901SOL    HW2 2705   0.669   3.348   3.517
  902SOL     OW 2706   1.824   2.054   3.089
  902SOL    HW1 2707   1.820   1.964   3.133
  902SOL    HW2 2708   1.827   2.043   2.990
  903SOL     OW 2709   0.428   2.286   2.382
  903SOL    HW1 2710   0.458   2.214   2.320
  903SOL    HW2 2711   0.389   2.246   2.465
  904SOL     OW 2712   1.705   3.349   2.966
  904SOL    HW1 2713   1.612   3.324   2.939
  904SOL    HW2 2714   1.731   3.299   3.048
  905SOL     OW 2715   0.317   2.409   3.142
  905SOL    HW1 2716   0.355   2.350   3.214
  905SOL    HW2 2717   0.357   2.383   3.054
  906SOL     OW 2718   0.812   3.448   2.549
  906SOL    HW1 2719   0.844   3.458   2.455
  906SOL    HW2 2720   0.733   3.386   2.551
  907SOL     OW 2721   1.424   2.076   2.974
  907SOL    HW1 2722   1.476   2.011   3.029
  907SOL    HW2 2723   1.375   2.139   3.035
  908SOL     OW 2724   1.001   1.896   3.016
  908SOL    HW1 2725   0.938   1.824   2.985
  908SOL    HW2 2726   1.094   1.860   3.016
  909SOL     OW 2727   0.770   3.192   2.163
  909SOL    HW1 2728   0.724   3.105   2.180
  909SOL    HW2 2729   0.861   3.189   2.204
  910SOL     OW 2730   0.618   3.429   3.146
  910SOL    HW1 2731   0.613   3.511   3.203
  910SOL    HW2 2732   0.707   3.426   3.101
  911SOL     OW 2733   1.352   1.914   2.030
  911SOL    HW1 2734   1.387   1.873   1.946
  911SOL    HW2 2735   1.262   1.876   2.050
  912SOL     OW 2736   1.300   2.315   2.553
  912SOL    HW1 2737   1.241   2.395   2.557
  912SOL    HW2 2738   1.315   2.280   2.646
  913SOL     OW 2739   1.593   2.083   2.744
  913SOL    HW1 2740   1.509   2.082   2.798
  913SOL    HW2 2741   1.595   2.166   2.688
  914SOL     OW 2742   0.039   2.939   2.162
  914SOL    HW1 2743   0.138   2.928   2.153
  914SOL    HW2 2744  -0.001   2.853   2.194
  915SOL     OW 2745   0.875   3.508   2.199
  915SOL    HW1 2746   0.798   3.473   2.145
  915SOL    HW2 2747   0.843   3.579   2.261
  916SOL     OW 2748   0.230   2.490   3.837
  916SOL    HW1 2749   0.137   2.488   3.874
  916SOL    HW2 2750   0.231   2.451   3.745
  917SOL     OW 2751   1.135   2.565   4.441
  917SOL    HW1 2752   1.192   2.643   4.416
  917SOL    HW2 2753   1.075   2.591   4.517
  918SOL     OW 2754   1.755   2.469   3.955
  918SOL    HW1 2755   1.743   2.456   3.856
  918SOL    HW2 2756   1.725   2.388   4.004
  919SOL     OW 2757   0.231   3.575   4.207
  919SOL    HW1 2758   0.265   3.652   4.261
  919SOL    HW2 2759   0.275   3.575   4.117
  920SOL     OW 2760   0.230   3.296   4.262
  920SOL    HW1 2761   0.204   3.392   4.262
  920SOL    HW2 2762   0.159   3.242   4.307
  921SOL     OW 2763   0.606   2.826   3.847
  921SOL    HW1 2764   0.613   2.910   3.793
  921SOL    HW2 2765   0.652   2.839   3.935
  922SOL     OW 2766   1.842   3.629   4.083
  922SOL    HW1 2767   1.896   3.600   4.163
  922SOL    HW2 2768   1.872   3.719   4.054
  923SOL     OW 2769   0.027   3.458   3.841
  923SOL    HW1 2770   0.008   3.362   3.862
  923SOL    HW2 2771  -0.006   3.516   3.916
  924SOL     OW 2772   1.689   2.784   4.336
  924SOL    HW1 2773   1.784   2.755   4.344
  924SOL    HW2 2774   1.681   2.849   4.261
  925SOL     OW 2775   1.641   2.970   4.156
  925SOL    HW1 2776   1.727   2.972   4.104
  925SOL    HW2 2777   1.655   3.017   4.244
  926SOL     OW 2778   0.809   1.866   4.226
  926SOL    HW1 2779   0.849   1.957   4.217
  926SOL    HW2 2780   0.709   1.874   4.232
  927SOL     OW 2781   1.525   2.861   3.914
  927SOL    HW1 2782   1.462   2.785   3.927
  927SOL    HW2 2783   1.573   2.879   4.000
  928SOL     OW 2784   0.598   2.591   3.994
  928SOL    HW1 2785   0.622   2.660   3.926
  928SOL    HW2 2786   0.520   2.624   4.048
  929SOL     OW 2787   1.576   3.524   4.031
  929SOL    HW1 2788   1.665   3.570   4.034
  929SOL    HW2 2789   1.555   3.500   3.936
  930SOL     OW 2790   0.865   2.210   3.919
  930SOL    HW1 2791   0.924   2.273   3.870
  930SOL    HW2 2792   0.884   2.116   3.890
  931SOL     OW 2793   0.321   2.805   3.966
  931SOL    HW1 2794   0.403   2.844   3.924
  931SOL    HW2 2795   0.294   2.723   3.917
  932SOL     OW 2796   1.458   2.597   4.452
  932SOL    HW1 2797   1.453   2.532   4.527
  932SOL    HW2 2798   1.538   2.656   4.465
  933SOL     OW 2799   1.111   3.638   3.961
  933SOL    HW1 2800   1.051   3.576   4.011
  933SOL    HW2 2801   1.142   3.594   3.876
  934SOL     OW 2802   1.632   3.239   3.805
  934SOL    HW1 2803   1.600   3.333   3.795
  934SOL    HW2 2804   1.556   3.176   3.793
  935SOL     OW 2805   0.464   3.605   4.047
  935SOL    HW1 2806   0.497   3.644   4.133
  935SOL    HW2 2807   0.540   3.598   3.982
  936SOL     OW 2808   1.400   1.969   4.150
  936SOL    HW1 2809   1.376   1.932   4.060
  936SOL    HW2 2810   1.499   1.985   4.154
  937SOL     OW 2811   0.614   1.984   3.841
  937SOL    HW1 2812   0.712   1.962   3.848
  937SOL    HW2 2813   0.583   1.967   3.748
  938SOL     OW 2814   1.434   3.050   3.765
  938SOL    HW1 2815   1.466   2.974   3.822
  938SOL    HW2 2816   1.342   3.077   3.795
  939SOL     OW 2817   0.297   1.897   3.895
  939SOL    HW1 2818   0.346   1.981   3.874
  939SOL    HW2 2819   0.359   1.832   3.940
  940SOL     OW 2820   0.935   2.098   4.204
  940SOL    HW1 2821   0.887   2.139   4.126
  940SOL    HW2 2822   1.034   2.096   4.185
  941SOL     OW 2823   1.227   3.432   4.517
  941SOL    HW1 2824   1.248   3.506   4.452
  941SOL    HW2 2825   1.295   3.432   4.590
  942SOL     OW 2826   0.459   3.014   4.465
  942SOL    HW1 2827   0.388   2.987   4.530
  942SOL    HW2 2828   0.433   2.986   4.372
  943SOL     OW 2829   1.271   3.659   4.315
  943SOL    HW1 2830   1.315   3.723   4.251
  943SOL    HW2 2831   1.221   3.711   4.385
  944SOL     OW 2832   1.032   2.411   3.740
  944SOL    HW1 2833   0.991   2.493   3.701
  944SOL    HW2 2834   1.096   2.437   3.813
  945SOL     OW 2835   1.429   3.035   4.591
  945SOL    HW1 2836   1.374   2.951   4.584
  945SOL    HW2 2837   1.455   3.064   4.499
  946SOL     OW 2838   1.857   2.695   4.101
  946SOL    HW1 2839   1.899   2.631   4.165
  946SOL    HW2 2840   1.819   2.644   4.023
  947SOL     OW 2841   0.488   3.247   3.898
  947SOL    HW1 2842   0.401   3.232   3.945
  947SOL    HW2 2843   0.471   3.273   3.803
  948SOL     OW 2844   1.390   2.437   3.802
  948SOL    HW1 2845   1.336   2.416   3.883
  948SOL    HW2 2846   1.481   2.396   3.811
  949SOL     OW 2847   0.527   2.118   4.052
  949SOL    HW1 2848   0.554   2.059   3.977
  949SOL    HW2 2849   0.527   2.213   4.021
  950SOL     OW 2850   0.705   2.912   4.092
  950SOL    HW1 2851   0.691   2.919   4.191
  950SOL    HW2 2852   0.789   2.861   4.074
  951SOL     OW 2853   0.367   2.962   4.225
  951SOL    HW1 2854   0.360   3.045   4.169
  951SOL    HW2 2855   0.371   2.882   4.165
  952SOL     OW 2856   1.252   3.210   4.112
  952SOL    HW1 2857   1.302   3.287   4.152
  952SOL    HW2 2858   1.157   3.212   4.144
  953SOL     OW 2859   1.582   2.501   4.196
  953SOL    HW1 2860   1.551   2.562   4.269
  953SOL    HW2 2861   1.632   2.553   4.127
  954SOL     OW 2862   1.209   2.387   3.999
  954SOL    HW1 2863   1.222   2.303   4.053
  954SOL    HW2 2864   1.180   2.461   4.059
  955SOL     OW 2865   1.622   2.229   4.098
  955SOL    HW1 2866   1.624   2.153   4.162
  955SOL    HW2 2867   1.574   2.306   4.138
  956SOL     OW 2868   1.540   2.136   3.849
  956SOL    HW1 2869   1.479   2.061   3.872
  956SOL    HW2 2870   1.562   2.188   3.932
  957SOL     OW 2871   1.303   2.700   3.766
  957SOL    HW1 2872   1.337   2.607   3.781
  957SOL    HW2 2873   1.321   2.727   3.671
  958SOL     OW 2874   0.008   3.188   3.924
  958SOL    HW1 2875  -0.085   3.209   3.893
  958SOL    HW2 2876   0.018   3.089   3.937
  959SOL     OW 2877   0.815   2.434   4.049
  959SOL    HW1 2878   0.822   2.345   4.003
  959SOL    HW2 2879   0.721   2.468   4.041
  960SOL     OW 2880   0.473   2.362   3.915
  960SOL    HW1 2881   0.534   2.442   3.919
  960SOL    HW2 2882   0.378   2.393   3.922
  961SOL     OW 2883   1.302   2.717   4.033
  961SOL    HW1 2884   1.216   2.686   4.075
  961SOL    HW2 2885   1.298   2.703   3.934
  962SOL     OW 2886   1.726   1.997   4.247
  962SOL    HW1 2887   1.799   1.980   4.180
  962SOL    HW2 2888   1.695   1.910   4.285
  963SOL     OW 2889   0.672   3.478   3.878
  963SOL    HW1 2890   0.681   3.488   3.779
  963SOL    HW2 2891   0.632   3.389   3.899
  964SOL     OW 2892   0.263   2.188   4.444
  964SOL    HW1 2893   0.184   2.239   4.410
  964SOL    HW2 2894   0.254   2.173   4.542
  965SOL     OW 2895   1.194   3.474   3.755
  965SOL    HW1 2896   1.200   3.381   3.792
  965SOL    HW2 2897   1.135   3.474   3.675
  966SOL     OW 2898   0.916   2.772   4.015
  966SOL    HW1 2899   0.979   2.810   3.947
  966SOL    HW2 2900   0.956   2.689   4.054
  967SOL     OW 2901   1.504   3.469   3.768
  967SOL    HW1 2902   1.412   3.506   3.775
  967SOL    HW2 2903   1.542   3.489   3.678
  968SOL     OW 2904   0.590   3.349   4.215
  968SOL    HW1 2905   0.632   3.291   4.145
  968SOL    HW2 2906   0.546   3.428   4.171
  969SOL     OW 2907   0.255   3.210   4.014
  969SOL    HW1 2908   0.159   3.211   3.987
  969SOL    HW2 2909   0.267   3.263   4.098
  970SOL     OW 2910   0.075   2.207   3.757
  970SOL    HW1 2911  -0.017   2.179   3.728
  970SOL    HW2 2912   0.106   2.284   3.701
  971SOL     OW 2913   0.072   2.028   4.042
  971SOL    HW1 2914   0.055   2.111   3.988
  971SOL    HW2 2915   0.162   1.991   4.020
  972SOL     OW 2916   1.183   3.197   3.843
  972SOL    HW1 2917   1.084   3.186   3.845
  972SOL    HW2 2918   1.217   3.212   3.936
  973SOL     OW 2919   1.225   2.187   4.173
  973SOL    HW1 2920   1.290   2.113   4.162
  973SOL    HW2 2921   1.245   2.237   4.257
  974SOL     OW 2922   0.859   3.236   3.740
  974SOL    HW1 2923   0.813   3.251   3.828
  974SOL    HW2 2924   0.903   3.321   3.710
  975SOL     OW 2925   1.083   2.846   3.811
  975SOL    HW1 2926   1.060   2.899   3.729
  975SOL    HW2 2927   1.164   2.790   3.792
  976SOL     OW 2928   0.428   2.286   4.244
  976SOL    HW1 2929   0.458   2.214   4.182
  976SOL    HW2 2930   0.389   2.246   4.327
  977SOL     OW 2931   0.770   3.192   4.025
  977SOL    HW1 2932   0.724   3.105   4.042
  977SOL    HW2 2933   0.861   3.189   4.066
  978SOL     OW 2934   1.352   1.914   3.892
  978SOL    HW1 2935   1.387   1.873   3.808
  978SOL    HW2 2936   1.262   1.876   3.912
  979SOL     OW 2937   0.039   2.939   4.024
  979SOL    HW1 2938   0.138   2.928   4.015
  979SOL    HW2 2939  -0.001   2.853   4.056
  980SOL     OW 2940   0.875   3.508   4.061
  980SOL    HW1 2941   0.798   3.473   4.007
  980SOL    HW2 2942   0.843   3.579   4.123
  981SOL     OW 2943   0.225   3.999   0.996
  981SOL    HW1 2944   0.260   3.982   1.088
  981SOL    HW2 2945   0.137   3.954   0.984
  982SOL     OW 2946   0.019   4.092   0.647
  982SOL    HW1 2947  -0.063   4.135   0.686
  982SOL    HW2 2948  -0.009   4.019   0.584
  983SOL     OW 2949   0.438   4.116   1.499
  983SOL    HW1 2950   0.520   4.060   1.508
  983SOL    HW2 2951   0.357   4.058   1.503
  984SOL     OW 2952   1.603   4.171   0.737
  984SOL    HW1 2953   1.529   4.217   0.687
  984SOL    HW2 2954   1.654   4.239   0.790
  985SOL     OW 2955   1.594   3.838   1.480
  985SOL    HW1 2956   1.576   3.905   1.408
  985SOL    HW2 2957   1.591   3.884   1.569
  986SOL     OW 2958   0.122   4.367   0.563
  986SOL    HW1 2959   0.077   4.279   0.580
  986SOL    HW2 2960   0.121   4.421   0.647
  987SOL     OW 2961   0.809   3.728   0.502
  987SOL    HW1 2962   0.849   3.819   0.493
  987SOL    HW2 2963   0.709   3.736   0.508
  988SOL     OW 2964   0.317   3.975   1.801
  988SOL    HW1 2965   0.388   4.046   1.807
  988SOL    HW2 2966   0.229   4.014   1.829
  989SOL     OW 2967   1.281   4.069   0.944
  989SOL    HW1 2968   1.195   4.019   0.931
  989SOL    HW2 2969   1.343   4.015   1.000
  990SOL     OW 2970   1.394   4.193   1.674
  990SOL    HW1 2971   1.374   4.236   1.762
  990SOL    HW2 2972   1.472   4.131   1.683
  991SOL     OW 2973   0.973   4.614   1.572
  991SOL    HW1 2974   1.019   4.530   1.543
  991SOL    HW2 2975   0.917   4.648   1.497
  992SOL     OW 2976   0.991   4.134   1.242
  992SOL    HW1 2977   0.914   4.168   1.296
  992SOL    HW2 2978   0.957   4.083   1.163
  993SOL     OW 2979   0.865   4.072   0.195
  993SOL    HW1 2980   0.924   4.135   0.146
  993SOL    HW2 2981   0.884   3.978   0.166
  994SOL     OW 2982   1.719   4.309   1.831
  994SOL    HW1 2983   1.693   4.398   1.795
  994SOL    HW2 2984   1.717   4.241   1.758
  995SOL     OW 2985   0.550   3.920   0.885
  995SOL    HW1 2986   0.545   3.915   0.985
  995SOL    HW2 2987   0.552   4.016   0.856
  996SOL     OW 2988   0.202   4.009   1.498
  996SOL    HW1 2989   0.122   4.069   1.485
  996SOL    HW2 2990   0.192   3.960   1.584
  997SOL     OW 2991   1.400   3.831   0.426
  997SOL    HW1 2992   1.376   3.794   0.336
  997SOL    HW2 2993   1.499   3.847   0.430
  998SOL     OW 2994   1.547   3.946   1.729
  998SOL    HW1 2995   1.542   3.983   1.821
  998SOL    HW2 2996   1.475   3.877   1.717
  999SOL     OW 2997   0.614   3.846   0.117
  999SOL    HW1 2998   0.712   3.824   0.124
  999SOL    HW2 2999   0.583   3.829   0.024
 1000SOL     OW 3000   0.781   3.988   1.749
 1000SOL    HW1 3001   0.848   3.927   1.792
 1000SOL    HW2 3002   0.708   4.007   1.814
 1001SOL     OW 3003   1.351   4.314   1.433
 1001SOL    HW1 3004   1.379   4.271   1.518
 1001SOL    HW2 3005   1.376   4.410   1.434
 1002SOL     OW 3006   0.539   3.788   0.512
 1002SOL    HW1 3007   0.458   3.789   0.570
 1002SOL    HW2 3008   0.542   3.871   0.457
 1003SOL     OW 3009   0.297   3.759   0.171
 1003SOL    HW1 3010   0.346   3.843   0.150
 1003SOL    HW2 3011   0.359   3.694   0.216
 1004SOL     OW 3012   0.935   3.960   0.480
 1004SOL    HW1 3013   0.887   4.001   0.402
 1004SOL    HW2 3014   1.034   3.958   0.461
 1005SOL     OW 3015   0.078   4.280   1.386
 1005SOL    HW1 3016   0.170   4.279   1.345
 1005SOL    HW2 3017   0.072   4.354   1.453
 1006SOL     OW 3018   0.561   3.946   1.147
 1006SOL    HW1 3019   0.599   3.862   1.184
 1006SOL    HW2 3020   0.473   3.965   1.191
 1007SOL     OW 3021   1.017   3.763   0.753
 1007SOL    HW1 3022   0.945   3.768   0.684
 1007SOL    HW2 3023   0.993   3.694   0.822
 1008SOL     OW 3024   1.466   4.314   0.992
 1008SOL    HW1 3025   1.436   4.219   0.999
 1008SOL    HW2 3026   1.539   4.330   1.058
 1009SOL     OW 3027   0.527   3.980   0.328
 1009SOL    HW1 3028   0.554   3.921   0.253
 1009SOL    HW2 3029   0.527   4.075   0.297
 1010SOL     OW 3030   0.915   3.813   1.402
 1010SOL    HW1 3031   0.940   3.793   1.307
 1010SOL    HW2 3032   0.987   3.869   1.444
 1011SOL     OW 3033   1.274   4.110   1.262
 1011SOL    HW1 3034   1.295   4.184   1.326
 1011SOL    HW2 3035   1.185   4.127   1.219
 1012SOL     OW 3036   0.566   4.261   0.865
 1012SOL    HW1 3037   0.578   4.327   0.791
 1012SOL    HW2 3038   0.612   4.295   0.948
 1013SOL     OW 3039   1.013   3.829   1.770
 1013SOL    HW1 3040   1.019   3.914   1.718
 1013SOL    HW2 3041   1.045   3.753   1.713
 1014SOL     OW 3042   0.504   3.774   1.740
 1014SOL    HW1 3043   0.462   3.717   1.670
 1014SOL    HW2 3044   0.438   3.843   1.772
 1015SOL     OW 3045   0.307   3.937   1.231
 1015SOL    HW1 3046   0.284   3.974   1.321
 1015SOL    HW2 3047   0.277   3.842   1.225
 1016SOL     OW 3048   0.732   4.358   1.064
 1016SOL    HW1 3049   0.791   4.332   0.988
 1016SOL    HW2 3050   0.704   4.454   1.053
 1017SOL     OW 3051   0.307   3.787   0.618
 1017SOL    HW1 3052   0.296   3.881   0.651
 1017SOL    HW2 3053   0.302   3.724   0.695
 1018SOL     OW 3054   1.622   4.091   0.374
 1018SOL    HW1 3055   1.624   4.015   0.438
 1018SOL    HW2 3056   1.574   4.168   0.414
 1019SOL     OW 3057   1.540   3.998   0.125
 1019SOL    HW1 3058   1.479   3.923   0.148
 1019SOL    HW2 3059   1.562   4.050   0.208
 1020SOL     OW 3060   0.339   4.233   1.006
 1020SOL    HW1 3061   0.287   4.150   0.989
 1020SOL    HW2 3062   0.416   4.238   0.942
 1021SOL     OW 3063   1.138   4.104   1.678
 1021SOL    HW1 3064   1.093   4.167   1.742
 1021SOL    HW2 3065   1.231   4.135   1.661
 1022SOL     OW 3066   1.160   3.931   1.477
 1022SOL    HW1 3067   1.160   3.995   1.554
 1022SOL    HW2 3068   1.188   3.979   1.394
 1023SOL     OW 3069   0.040   4.268   1.114
 1023SOL    HW1 3070   0.125   4.235   1.073
 1023SOL    HW2 3071   0.053   4.283   1.212
 1024SOL     OW 3072   0.189   4.244   1.722
 1024SOL    HW1 3073   0.248   4.204   1.652
 1024SOL    HW2 3074   0.131   4.315   1.681
 1025SOL     OW 3075   0.815   4.296   0.325
 1025SOL    HW1 3076   0.822   4.207   0.279
 1025SOL    HW2 3077   0.721   4.330   0.317
 1026SOL     OW 3078   1.657   4.328   1.206
 1026SOL    HW1 3079   1.619   4.259   1.268
 1026SOL    HW2 3080   1.739   4.292   1.162
 1027SOL     OW 3081   0.671   4.188   1.269
 1027SOL    HW1 3082   0.637   4.099   1.239
 1027SOL    HW2 3083   0.697   4.242   1.189
 1028SOL     OW 3084   0.903   3.810   0.133
 1028SOL    HW1 3085   0.954   3.811   0.047
 1028SOL    HW2 3086   0.959   3.768   0.204
 1029SOL     OW 3087   1.726   3.859   0.523
 1029SOL    HW1 3088   1.799   3.842   0.456
 1029SOL    HW2 3089   1.695   3.772   0.561
 1030SOL     OW 3090   1.841   3.899   0.963
 1030SOL    HW1 3091   1.880   3.814   0.927
 1030SOL    HW2 3092   1.743   3.901   0.944
 1031SOL     OW 3093   0.263   4.050   0.720
 1031SOL    HW1 3094   0.184   4.101   0.686
 1031SOL    HW2 3095   0.254   4.035   0.818
 1032SOL     OW 3096   1.014   3.960   0.971
 1032SOL    HW1 3097   1.006   3.924   0.878
 1032SOL    HW2 3098   1.012   3.884   1.036
 1033SOL     OW 3099   1.709   4.109   1.381
 1033SOL    HW1 3100   1.782   4.178   1.385
 1033SOL    HW2 3101   1.737   4.034   1.322
 1034SOL     OW 3102   0.672   3.927   1.489
 1034SOL    HW1 3103   0.762   3.911   1.449
 1034SOL    HW2 3104   0.680   3.932   1.588
 1035SOL     OW 3105   0.075   4.069   0.033
 1035SOL    HW1 3106  -0.017   4.041   0.004
 1035SOL    HW2 3107   0.106   4.146  -0.023
 1036SOL     OW 3108   0.072   3.890   0.318
 1036SOL    HW1 3109   0.055   3.973   0.264
 1036SOL    HW2 3110   0.162   3.853   0.296
 1037SOL     OW 3111   0.716   4.289   1.708
 1037SOL    HW1 3112   0.735   4.354   1.782
 1037SOL    HW2 3113   0.776   4.209   1.717
 1038SOL     OW 3114   1.225   4.049   0.449
 1038SOL    HW1 3115   1.290   3.975   0.438
 1038SOL    HW2 3116   1.245   4.099   0.533
 1039SOL     OW 3117   0.594   4.469   0.652
 1039SOL    HW1 3118   0.644   4.554   0.633
 1039SOL    HW2 3119   0.506   4.471   0.604
 1040SOL     OW 3120   1.777   4.066   1.642
 1040SOL    HW1 3121   1.760   4.097   1.548
 1040SOL    HW2 3122   1.693   4.029   1.680
 1041SOL     OW 3123   1.824   3.916   1.227
 1041SOL    HW1 3124   1.820   3.826   1.271
 1041SOL    HW2 3125   1.827   3.905   1.128
 1042SOL     OW 3126   0.428   4.148   0.520
 1042SOL    HW1 3127   0.458   4.076   0.458
 1042SOL    HW2 3128   0.389   4.108   0.603
 1043SOL     OW 3129   1.424   3.938   1.112
 1043SOL    HW1 3130   1.476   3.873   1.167
 1043SOL    HW2 3131   1.375   4.001   1.173
 1044SOL     OW 3132   1.001   3.758   1.154
 1044SOL    HW1 3133   0.938   3.686   1.123
 1044SOL    HW2 3134   1.094   3.722   1.154
 1045SOL     OW 3135   1.300   4.177   0.691
 1045SOL    HW1 3136   1.241   4.257   0.695
 1045SOL    HW2 3137   1.315   4.142   0.784
 1046SOL     OW 3138   1.593   3.945   0.882
 1046SOL    HW1 3139   1.509   3.944   0.936
 1046SOL    HW2 3140   1.595   4.028   0.826
 1047SOL     OW 3141   0.225   3.999   2.858
 1047SOL    HW1 3142   0.260   3.982   2.950
 1047SOL    HW2 3143   0.137   3.954   2.846
 1048SOL     OW 3144   0.019   4.092   2.509
 1048SOL    HW1 3145  -0.063   4.135   2.548
 1048SOL    HW2 3146  -0.009   4.019   2.446
 1049SOL     OW 3147   1.755   4.331   2.093
 1049SOL    HW1 3148   1.743   4.318   1.994
 1049SOL    HW2 3149   1.725   4.250   2.142
 1050SOL     OW 3150   0.438   4.116   3.361
 1050SOL    HW1 3151   0.520   4.060   3.370
 1050SOL    HW2 3152   0.357   4.058   3.365
 1051SOL     OW 3153   1.603   4.171   2.599
 1051SOL    HW1 3154   1.529   4.217   2.549
 1051SOL    HW2 3155   1.654   4.239   2.652
 1052SOL     OW 3156   1.594   3.838   3.342
 1052SOL    HW1 3157   1.576   3.905   3.270
 1052SOL    HW2 3158   1.591   3.884   3.431
 1053SOL     OW 3159   0.122   4.367   2.425
 1053SOL    HW1 3160   0.077   4.279   2.442
 1053SOL    HW2 3161   0.121   4.421   2.509
 1054SOL     OW 3162   0.809   3.728   2.364
 1054SOL    HW1 3163   0.849   3.819   2.355
 1054SOL    HW2 3164   0.709   3.736   2.370
 1055SOL     OW 3165   0.317   3.975   3.663
 1055SOL    HW1 3166   0.388   4.046   3.669
 1055SOL    HW2 3167   0.229   4.014   3.691
 1056SOL     OW 3168   1.281   4.069   2.806
 1056SOL    HW1 3169   1.195   4.019   2.793
 1056SOL    HW2 3170   1.343   4.015   2.862
 1057SOL     OW 3171   1.394   4.193   3.536
 1057SOL    HW1 3172   1.374   4.236   3.624
 1057SOL    HW2 3173   1.472   4.131   3.545
 1058SOL     OW 3174   0.973   4.614   3.434
 1058SOL    HW1 3175   1.019   4.530   3.405
 1058SOL    HW2 3176   0.917   4.648   3.359
 1059SOL     OW 3177   0.991   4.134   3.104
 1059SOL    HW1 3178   0.914   4.168   3.158
 1059SOL    HW2 3179   0.957   4.083   3.025
 1060SOL     OW 3180   0.865   4.072   2.057
 1060SOL    HW1 3181   0.924   4.135   2.008
 1060SOL    HW2 3182   0.884   3.978   2.028
 1061SOL     OW 3183   1.719   4.309   3.693
 1061SOL    HW1 3184   1.693   4.398   3.657
 1061SOL    HW2 3185   1.717   4.241   3.620
 1062SOL     OW 3186   0.550   3.920   2.747
 1062SOL    HW1 3187   0.545   3.915   2.847
 1062SOL    HW2 3188   0.552   4.016   2.718
 1063SOL     OW 3189   0.202   4.009   3.360
 1063SOL    HW1 3190   0.122   4.069   3.347
 1063SOL    HW2 3191   0.192   3.960   3.446
 1064SOL     OW 3192   1.400   3.831   2.288
 1064SOL    HW1 3193   1.376   3.794   2.198
 1064SOL    HW2 3194   1.499   3.847   2.292
 1065SOL     OW 3195   1.547   3.946   3.591
 1065SOL    HW1 3196   1.542   3.983   3.683
 1065SOL    HW2 3197   1.475   3.877   3.579
 1066SOL     OW 3198   0.614   3.846   1.979
 1066SOL    HW1 3199   0.712   3.824   1.986
 1066SOL    HW2 3200   0.583   3.829   1.886
 1067SOL     OW 3201   0.781   3.988   3.611
 1067SOL    HW1 3202   0.848   3.927   3.654
 1067SOL    HW2 3203   0.708   4.007   3.676
 1068SOL     OW 3204   1.351   4.314   3.295
 1068SOL    HW1 3205   1.379   4.271   3.380
 1068SOL    HW2 3206   1.376   4.410   3.296
 1069SOL     OW 3207   0.539   3.788   2.374
 1069SOL    HW1 3208   0.458   3.789   2.432
 1069SOL    HW2 3209   0.542   3.871   2.319
 1070SOL     OW 3210   0.297   3.759   2.033
 1070SOL    HW1 3211   0.346   3.843   2.012
 1070SOL    HW2 3212   0.359   3.694   2.078
 1071SOL     OW 3213   0.935   3.960   2.342
 1071SOL    HW1 3214   0.887   4.001   2.264
 1071SOL    HW2 3215   1.034   3.958   2.323
 1072SOL     OW 3216   0.078   4.280   3.248
 1072SOL    HW1 3217   0.170   4.279   3.207
 1072SOL    HW2 3218   0.072   4.354   3.315
 1073SOL     OW 3219   0.561   3.946   3.009
 1073SOL    HW1 3220   0.599   3.862   3.046
 1073SOL    HW2 3221   0.473   3.965   3.053
 1074SOL     OW 3222   1.017   3.763   2.615
 1074SOL    HW1 3223   0.945   3.768   2.546
 1074SOL    HW2 3224   0.993   3.694   2.684
 1075SOL     OW 3225   1.466   4.314   2.854
 1075SOL    HW1 3226   1.436   4.219   2.861
 1075SOL    HW2 3227   1.539   4.330   2.920
 1076SOL     OW 3228   0.527   3.980   2.190
 1076SOL    HW1 3229   0.554   3.921   2.115
 1076SOL    HW2 3230   0.527   4.075   2.159
 1077SOL     OW 3231   0.915   3.813   3.264
 1077SOL    HW1 3232   0.940   3.793   3.169
 1077SOL    HW2 3233   0.987   3.869   3.306
 1078SOL     OW 3234   1.274   4.110   3.124
 1078SOL    HW1 3235   1.295   4.184   3.188
 1078SOL    HW2 3236   1.185   4.127   3.081
 1079SOL     OW 3237   0.566   4.261   2.727
 1079SOL    HW1 3238   0.578   4.327   2.653
 1079SOL    HW2 3239   0.612   4.295   2.810
 1080SOL     OW 3240   1.013   3.829   3.632
 1080SOL    HW1 3241   1.019   3.914   3.580
 1080SOL    HW2 3242   1.045   3.753   3.575
 1081SOL     OW 3243   0.504   3.774   3.602
 1081SOL    HW1 3244   0.462   3.717   3.532
 1081SOL    HW2 3245   0.438   3.843   3.634
 1082SOL     OW 3246   0.307   3.937   3.093
 1082SOL    HW1 3247   0.284   3.974   3.183
 1082SOL    HW2 3248   0.277   3.842   3.087
 1083SOL     OW 3249   0.732   4.358   2.926
 1083SOL    HW1 3250   0.791   4.332   2.850
 1083SOL    HW2 3251   0.704   4.454   2.915
 1084SOL     OW 3252   0.307   3.787   2.480
 1084SOL    HW1 3253   0.296   3.881   2.513
 1084SOL    HW2 3254   0.302   3.724   2.557
 1085SOL     OW 3255   1.622   4.091   2.236
 1085SOL    HW1 3256   1.624   4.015   2.300
 1085SOL    HW2 3257   1.574   4.168   2.276
 1086SOL     OW 3258   1.540   3.998   1.987
 1086SOL    HW1 3259   1.479   3.923   2.010
 1086SOL    HW2 3260   1.562   4.050   2.070
 1087SOL     OW 3261   1.303   4.562   1.904
 1087SOL    HW1 3262   1.337   4.469   1.919
 1087SOL    HW2 3263   1.321   4.589   1.809
 1088SOL     OW 3264   0.339   4.233   2.868
 1088SOL    HW1 3265   0.287   4.150   2.851
 1088SOL    HW2 3266   0.416   4.238   2.804
 1089SOL     OW 3267   1.138   4.104   3.540
 1089SOL    HW1 3268   1.093   4.167   3.604
 1089SOL    HW2 3269   1.231   4.135   3.523
 1090SOL     OW 3270   1.160   3.931   3.339
 1090SOL    HW1 3271   1.160   3.995   3.416
 1090SOL    HW2 3272   1.188   3.979   3.256
 1091SOL     OW 3273   0.040   4.268   2.976
 1091SOL    HW1 3274   0.125   4.235   2.935
 1091SOL    HW2 3275   0.053   4.283   3.074
 1092SOL     OW 3276   0.189   4.244   3.584
 1092SOL    HW1 3277   0.248   4.204   3.514
 1092SOL    HW2 3278   0.131   4.315   3.543
 1093SOL     OW 3279   0.815   4.296   2.187
 1093SOL    HW1 3280   0.822   4.207   2.141
 1093SOL    HW2 3281   0.721   4.330   2.179
 1094SOL     OW 3282   1.657   4.328   3.068
 1094SOL    HW1 3283   1.619   4.259   3.130
 1094SOL    HW2 3284   1.739   4.292   3.024
 1095SOL     OW 3285   0.671   4.188   3.131
 1095SOL    HW1 3286   0.637   4.099   3.101
 1095SOL    HW2 3287   0.697   4.242   3.051
 1096SOL     OW 3288   1.726   3.859   2.385
 1096SOL    HW1 3289   1.799   3.842   2.318
 1096SOL    HW2 3290   1.695   3.772   2.423
 1097SOL     OW 3291   1.841   3.899   2.825
 1097SOL    HW1 3292   1.880   3.814   2.789
 1097SOL    HW2 3293   1.743   3.901   2.806
 1098SOL     OW 3294   0.263   4.050   2.582
 1098SOL    HW1 3295   0.184   4.101   2.548
 1098SOL    HW2 3296   0.254   4.035   2.680
 1099SOL     OW 3297   1.014   3.960   2.833
 1099SOL    HW1 3298   1.006   3.924   2.740
 1099SOL    HW2 3299   1.012   3.884   2.898
 1100SOL     OW 3300   1.709   4.109   3.243
 1100SOL    HW1 3301   1.782   4.178   3.247
 1100SOL    HW2 3302   1.737   4.034   3.184
 1101SOL     OW 3303   0.672   3.927   3.351
 1101SOL    HW1 3304   0.762   3.911   3.311
 1101SOL    HW2 3305   0.680   3.932   3.450
 1102SOL     OW 3306   0.075   4.069   1.895
 1102SOL    HW1 3307  -0.017   4.041   1.866
 1102SOL    HW2 3308   0.106   4.146   1.839
 1103SOL     OW 3309   0.072   3.890   2.180
 1103SOL    HW1 3310   0.055   3.973   2.126
 1103SOL    HW2 3311   0.162   3.853   2.158
 1104SOL     OW 3312   0.716   4.289   3.570
 1104SOL    HW1 3313   0.735   4.354   3.644
 1104SOL    HW2 3314   0.776   4.209   3.579
 1105SOL     OW 3315   1.225   4.049   2.311
 1105SOL    HW1 3316   1.290   3.975   2.300
 1105SOL    HW2 3317   1.245   4.099   2.395
 1106SOL     OW 3318   0.594   4.469   2.514
 1106SOL    HW1 3319   0.644   4.554   2.495
 1106SOL    HW2 3320   0.506   4.471   2.466
 1107SOL     OW 3321   1.777   4.066   3.504
 1107SOL    HW1 3322   1.760   4.097   3.410
 1107SOL    HW2 3323   1.693   4.029   3.542
 1108SOL     OW 3324   1.824   3.916   3.089
 1108SOL    HW1 3325   1.820   3.826   3.133
 1108SOL    HW2 3326   1.827   3.905   2.990
 1109SOL     OW 3327   0.428   4.148   2.382
 1109SOL    HW1 3328   0.458   4.076   2.320
 1109SOL    HW2 3329   0.389   4.108   2.465
 1110SOL     OW 3330   1.424   3.938   2.974
 1110SOL    HW1 3331   1.476   3.873   3.029
 1110SOL    HW2 3332   1.375   4.001   3.035
 1111SOL     OW 3333   1.001   3.758   3.016
 1111SOL    HW1 3334   0.938   3.686   2.985
 1111SOL    HW2 3335   1.094   3.722   3.016
 1112SOL     OW 3336   1.352   3.776   2.030
 1112SOL    HW1 3337   1.387   3.735   1.946
 1112SOL    HW2 3338   1.262   3.738   2.050
 1113SOL     OW 3339   1.300   4.177   2.553
 1113SOL    HW1 3340   1.241   4.257   2.557
 1113SOL    HW2 3341   1.315   4.142   2.646
 1114SOL     OW 3342   1.593   3.945   2.744
 1114SOL    HW1 3343   1.509   3.944   2.798
 1114SOL    HW2 3344   1.595   4.028   2.688
 1115SOL     OW 3345   1.135   4.427   4.441
 1115SOL    HW1 3346   1.192   4.505   4.416
 1115SOL    HW2 3347   1.075   4.453   4.517
 1116SOL     OW 3348   1.755   4.331   3.955
 1116SOL    HW1 3349   1.743   4.318   3.856
 1116SOL    HW2 3350   1.725   4.250   4.004
 1117SOL     OW 3351   0.122   4.367   4.287
 1117SOL    HW1 3352   0.077   4.279   4.304
 1117SOL    HW2 3353   0.121   4.421   4.371
 1118SOL     OW 3354   0.809   3.728   4.226
 1118SOL    HW1 3355   0.849   3.819   4.217
 1118SOL    HW2 3356   0.709   3.736   4.232
 1119SOL     OW 3357   0.865   4.072   3.919
 1119SOL    HW1 3358   0.924   4.135   3.870
 1119SOL    HW2 3359   0.884   3.978   3.890
 1120SOL     OW 3360   1.400   3.831   4.150
 1120SOL    HW1 3361   1.376   3.794   4.060
 1120SOL    HW2 3362   1.499   3.847   4.154
 1121SOL     OW 3363   0.382   4.424   4.204
 1121SOL    HW1 3364   0.427   4.334   4.201
 1121SOL    HW2 3365   0.288   4.413   4.237
 1122SOL     OW 3366   0.614   3.846   3.841
 1122SOL    HW1 3367   0.712   3.824   3.848
 1122SOL    HW2 3368   0.583   3.829   3.748
 1123SOL     OW 3369   0.297   3.759   3.895
 1123SOL    HW1 3370   0.346   3.843   3.874
 1123SOL    HW2 3371   0.359   3.694   3.940
 1124SOL     OW 3372   0.935   3.960   4.204
 1124SOL    HW1 3373   0.887   4.001   4.126
 1124SOL    HW2 3374   1.034   3.958   4.185
 1125SOL     OW 3375   0.527   3.980   4.052
 1125SOL    HW1 3376   0.554   3.921   3.977
 1125SOL    HW2 3377   0.527   4.075   4.021
 1126SOL     OW 3378   1.622   4.091   4.098
 1126SOL    HW1 3379   1.624   4.015   4.162
 1126SOL    HW2 3380   1.574   4.168   4.138
 1127SOL     OW 3381   1.540   3.998   3.849
 1127SOL    HW1 3382   1.479   3.923   3.872
 1127SOL    HW2 3383   1.562   4.050   3.932
 1128SOL     OW 3384   1.303   4.562   3.766
 1128SOL    HW1 3385   1.337   4.469   3.781
 1128SOL    HW2 3386   1.321   4.589   3.671
 1129SOL     OW 3387   0.815   4.296   4.049
 1129SOL    HW1 3388   0.822   4.207   4.003
 1129SOL    HW2 3389   0.721   4.330   4.041
 1130SOL     OW 3390   1.726   3.859   4.247
 1130SOL    HW1 3391   1.799   3.842   4.180
 1130SOL    HW2 3392   1.695   3.772   4.285
 1131SOL     OW 3393   0.263   4.050   4.444
 1131SOL    HW1 3394   0.184   4.101   4.410
 1131SOL    HW2 3395   0.254   4.035   4.542
 1132SOL     OW 3396   0.075   4.069   3.757
 1132SOL    HW1 3397  -0.017   4.041   3.728
 1132SOL    HW2 3398   0.106   4.146   3.701
 1133SOL     OW 3399   0.072   3.890   4.042
 1133SOL    HW1 3400   0.055   3.973   3.988
 1133SOL    HW2 3401   0.162   3.853   4.020
 1134SOL     OW 3402   1.225   4.049   4.173
 1134SOL    HW1 3403   1.290   3.975   4.162
 1134SOL    HW2 3404   1.245   4.099   4.257
 1135SOL     OW 3405   0.428   4.148   4.244
 1135SOL    HW1 3406   0.458   4.076   4.182
 1135SOL    HW2 3407   0.389   4.108   4.327
 1136SOL     OW 3408   1.352   3.776   3.892
 1136SOL    HW1 3409   1.387   3.735   3.808
 1136SOL    HW2 3410   1.262   3.738   3.912
 1137SOL     OW 3411   2.092   0.628   0.113
 1137SOL    HW1 3412   1.999   0.626   0.150
 1137SOL    HW2 3413   2.093   0.589   0.021
 1138SOL     OW 3414   2.087   0.275   0.996
 1138SOL    HW1 3415   2.122   0.258   1.088
 1138SOL    HW2 3416   1.999   0.230   0.984
 1139SOL     OW 3417   1.881   0.368   0.647
 1139SOL    HW1 3418   1.799   0.411   0.686
 1139SOL    HW2 3419   1.853   0.295   0.584
 1140SOL     OW 3420   2.431   1.275   1.165
 1140SOL    HW1 3421   2.338   1.268   1.128
 1140SOL    HW2 3422   2.442   1.364   1.209
 1141SOL     OW 3423   3.417   1.511   0.703
 1141SOL    HW1 3424   3.360   1.495   0.784
 1141SOL    HW2 3425   3.358   1.521   0.623
 1142SOL     OW 3426   2.997   0.703   0.717
 1142SOL    HW1 3427   3.054   0.781   0.692
 1142SOL    HW2 3428   2.937   0.729   0.793
 1143SOL     OW 3429   3.617   0.607   0.231
 1143SOL    HW1 3430   3.605   0.594   0.132
 1143SOL    HW2 3431   3.587   0.526   0.280
 1144SOL     OW 3432   2.630   1.144   1.023
 1144SOL    HW1 3433   2.552   1.161   1.083
 1144SOL    HW2 3434   2.664   1.231   0.987
 1145SOL     OW 3435   2.712   0.798   1.823
 1145SOL    HW1 3436   2.708   0.874   1.888
 1145SOL    HW2 3437   2.734   0.834   1.732
 1146SOL     OW 3438   2.547   1.012   0.665
 1146SOL    HW1 3439   2.616   0.996   0.735
 1146SOL    HW2 3440   2.474   1.069   0.703
 1147SOL     OW 3441   2.548   1.161   1.803
 1147SOL    HW1 3442   2.608   1.240   1.817
 1147SOL    HW2 3443   2.462   1.192   1.762
 1148SOL     OW 3444   2.197   1.435   1.061
 1148SOL    HW1 3445   2.119   1.404   1.008
 1148SOL    HW2 3446   2.255   1.493   1.004
 1149SOL     OW 3447   3.322   1.505   1.339
 1149SOL    HW1 3448   3.346   1.599   1.365
 1149SOL    HW2 3449   3.306   1.451   1.421
 1150SOL     OW 3450   2.300   0.392   1.499
 1150SOL    HW1 3451   2.382   0.336   1.508
 1150SOL    HW2 3452   2.219   0.334   1.503
 1151SOL     OW 3453   3.465   0.447   0.737
 1151SOL    HW1 3454   3.391   0.493   0.687
 1151SOL    HW2 3455   3.516   0.515   0.790
 1152SOL     OW 3456   2.093   1.713   0.483
 1152SOL    HW1 3457   2.127   1.790   0.537
 1152SOL    HW2 3458   2.137   1.713   0.393
 1153SOL     OW 3459   2.989   1.341   1.690
 1153SOL    HW1 3460   3.036   1.341   1.778
 1153SOL    HW2 3461   2.941   1.254   1.679
 1154SOL     OW 3462   2.092   1.434   0.538
 1154SOL    HW1 3463   2.066   1.530   0.538
 1154SOL    HW2 3464   2.021   1.380   0.583
 1155SOL     OW 3465   2.102   1.091   0.886
 1155SOL    HW1 3466   2.116   1.007   0.938
 1155SOL    HW2 3467   2.047   1.155   0.941
 1156SOL     OW 3468   2.482   1.786   1.439
 1156SOL    HW1 3469   2.390   1.769   1.474
 1156SOL    HW2 3470   2.510   1.878   1.465
 1157SOL     OW 3471   2.468   0.964   0.123
 1157SOL    HW1 3472   2.475   1.048   0.069
 1157SOL    HW2 3473   2.514   0.977   0.211
 1158SOL     OW 3474   3.456   0.114   1.480
 1158SOL    HW1 3475   3.438   0.181   1.408
 1158SOL    HW2 3476   3.453   0.160   1.569
 1159SOL     OW 3477   1.984   0.643   0.563
 1159SOL    HW1 3478   1.939   0.555   0.580
 1159SOL    HW2 3479   1.983   0.697   0.647
 1160SOL     OW 3480   3.704   1.767   0.359
 1160SOL    HW1 3481   3.758   1.738   0.439
 1160SOL    HW2 3482   3.734   1.857   0.330
 1161SOL     OW 3483   1.889   1.596   0.117
 1161SOL    HW1 3484   1.870   1.500   0.138
 1161SOL    HW2 3485   1.856   1.654   0.192
 1162SOL     OW 3486   3.551   0.922   0.612
 1162SOL    HW1 3487   3.646   0.893   0.620
 1162SOL    HW2 3488   3.543   0.987   0.537
 1163SOL     OW 3489   3.503   1.108   0.432
 1163SOL    HW1 3490   3.589   1.110   0.380
 1163SOL    HW2 3491   3.517   1.155   0.520
 1164SOL     OW 3492   1.975   0.737   1.597
 1164SOL    HW1 3493   2.063   0.724   1.642
 1164SOL    HW2 3494   1.962   0.834   1.575
 1165SOL     OW 3495   2.475   1.365   0.726
 1165SOL    HW1 3496   2.426   1.278   0.735
 1165SOL    HW2 3497   2.452   1.408   0.639
 1166SOL     OW 3498   3.155   1.228   1.423
 1166SOL    HW1 3499   3.192   1.155   1.365
 1166SOL    HW2 3500   3.207   1.233   1.508
 1167SOL     OW 3501   2.671   0.004   0.502
 1167SOL    HW1 3502   2.711   0.095   0.493
 1167SOL    HW2 3503   2.571   0.012   0.508
 1168SOL     OW 3504   2.059   0.976   1.264
 1168SOL    HW1 3505   2.148   0.931   1.250
 1168SOL    HW2 3506   1.986   0.911   1.245
 1169SOL     OW 3507   3.387   0.999   0.190
 1169SOL    HW1 3508   3.324   0.923   0.203
 1169SOL    HW2 3509   3.435   1.017   0.276
 1170SOL     OW 3510   3.049   1.792   1.616
 1170SOL    HW1 3511   3.073   1.852   1.540
 1170SOL    HW2 3512   3.056   1.697   1.586
 1171SOL     OW 3513   2.179   0.251   1.801
 1171SOL    HW1 3514   2.250   0.322   1.807
 1171SOL    HW2 3515   2.091   0.290   1.829
 1172SOL     OW 3516   3.328   1.417   0.953
 1172SOL    HW1 3517   3.269   1.423   1.033
 1172SOL    HW2 3518   3.313   1.329   0.907
 1173SOL     OW 3519   3.529   1.714   0.572
 1173SOL    HW1 3520   3.488   1.691   0.484
 1173SOL    HW2 3521   3.511   1.640   0.637
 1174SOL     OW 3522   2.460   0.729   0.270
 1174SOL    HW1 3523   2.484   0.798   0.202
 1174SOL    HW2 3524   2.382   0.762   0.324
 1175SOL     OW 3525   3.143   0.345   0.944
 1175SOL    HW1 3526   3.057   0.295   0.931
 1175SOL    HW2 3527   3.205   0.291   1.000
 1176SOL     OW 3528   3.438   1.662   0.307
 1176SOL    HW1 3529   3.527   1.708   0.310
 1176SOL    HW2 3530   3.417   1.638   0.212
 1177SOL     OW 3531   2.669   0.605   1.465
 1177SOL    HW1 3532   2.622   0.602   1.554
 1177SOL    HW2 3533   2.618   0.550   1.399
 1178SOL     OW 3534   3.256   0.469   1.674
 1178SOL    HW1 3535   3.236   0.512   1.762
 1178SOL    HW2 3536   3.334   0.407   1.683
 1179SOL     OW 3537   2.835   0.890   1.572
 1179SOL    HW1 3538   2.881   0.806   1.543
 1179SOL    HW2 3539   2.779   0.924   1.497
 1180SOL     OW 3540   2.853   0.410   1.242
 1180SOL    HW1 3541   2.776   0.444   1.296
 1180SOL    HW2 3542   2.819   0.359   1.163
 1181SOL     OW 3543   2.903   0.701   0.429
 1181SOL    HW1 3544   2.929   0.697   0.525
 1181SOL    HW2 3545   2.818   0.650   0.415
 1182SOL     OW 3546   1.938   0.811   0.789
 1182SOL    HW1 3547   2.037   0.799   0.798
 1182SOL    HW2 3548   1.914   0.906   0.810
 1183SOL     OW 3549   1.992   1.821   1.571
 1183SOL    HW1 3550   1.982   1.806   1.670
 1183SOL    HW2 3551   1.906   1.857   1.535
 1184SOL     OW 3552   2.727   0.348   0.195
 1184SOL    HW1 3553   2.786   0.411   0.146
 1184SOL    HW2 3554   2.746   0.254   0.166
 1185SOL     OW 3555   3.581   0.585   1.831
 1185SOL    HW1 3556   3.555   0.674   1.795
 1185SOL    HW2 3557   3.579   0.517   1.758
 1186SOL     OW 3558   3.224   1.144   0.545
 1186SOL    HW1 3559   3.307   1.115   0.497
 1186SOL    HW2 3560   3.175   1.211   0.489
 1187SOL     OW 3561   2.412   0.196   0.885
 1187SOL    HW1 3562   2.407   0.191   0.985
 1187SOL    HW2 3563   2.414   0.292   0.856
 1188SOL     OW 3564   2.870   1.456   0.477
 1188SOL    HW1 3565   2.824   1.528   0.425
 1188SOL    HW2 3566   2.866   1.476   0.575
 1189SOL     OW 3567   2.213   1.801   0.853
 1189SOL    HW1 3568   2.263   1.715   0.859
 1189SOL    HW2 3569   2.278   1.878   0.850
 1190SOL     OW 3570   3.657   1.066   0.873
 1190SOL    HW1 3571   3.595   1.051   0.797
 1190SOL    HW2 3572   3.605   1.077   0.958
 1191SOL     OW 3573   3.089   1.550   1.506
 1191SOL    HW1 3574   3.095   1.473   1.570
 1191SOL    HW2 3575   3.037   1.524   1.426
 1192SOL     OW 3576   2.183   0.943   0.242
 1192SOL    HW1 3577   2.265   0.982   0.200
 1192SOL    HW2 3578   2.156   0.861   0.193
 1193SOL     OW 3579   3.320   0.735   0.728
 1193SOL    HW1 3580   3.315   0.670   0.803
 1193SOL    HW2 3581   3.400   0.794   0.741
 1194SOL     OW 3582   2.323   1.266   1.727
 1194SOL    HW1 3583   2.273   1.267   1.641
 1194SOL    HW2 3584   2.260   1.248   1.803
 1195SOL     OW 3585   2.973   1.776   0.237
 1195SOL    HW1 3586   2.913   1.714   0.287
 1195SOL    HW2 3587   3.004   1.732   0.152
 1196SOL     OW 3588   2.064   0.285   1.498
 1196SOL    HW1 3589   1.984   0.345   1.485
 1196SOL    HW2 3590   2.054   0.236   1.584
 1197SOL     OW 3591   3.494   1.377   0.081
 1197SOL    HW1 3592   3.462   1.471   0.071
 1197SOL    HW2 3593   3.418   1.314   0.069
 1198SOL     OW 3594   2.326   1.743   0.323
 1198SOL    HW1 3595   2.359   1.782   0.409
 1198SOL    HW2 3596   2.402   1.736   0.258
 1199SOL     OW 3597   3.262   0.107   0.426
 1199SOL    HW1 3598   3.238   0.070   0.336
 1199SOL    HW2 3599   3.361   0.123   0.430
 1200SOL     OW 3600   2.111   1.785   1.241
 1200SOL    HW1 3601   2.168   1.720   1.291
 1200SOL    HW2 3602   2.095   1.752   1.148
 1201SOL     OW 3603   2.802   1.698   0.904
 1201SOL    HW1 3604   2.882   1.641   0.925
 1201SOL    HW2 3605   2.753   1.658   0.827
 1202SOL     OW 3606   2.244   0.700   0.480
 1202SOL    HW1 3607   2.289   0.610   0.477
 1202SOL    HW2 3608   2.150   0.689   0.513
 1203SOL     OW 3609   3.409   0.222   1.729
 1203SOL    HW1 3610   3.404   0.259   1.821
 1203SOL    HW2 3611   3.337   0.153   1.717
 1204SOL     OW 3612   2.476   0.122   0.117
 1204SOL    HW1 3613   2.574   0.100   0.124
 1204SOL    HW2 3614   2.445   0.105   0.024
 1205SOL     OW 3615   2.643   0.264   1.749
 1205SOL    HW1 3616   2.710   0.203   1.792
 1205SOL    HW2 3617   2.570   0.283   1.814
 1206SOL     OW 3618   2.750   1.514   1.195
 1206SOL    HW1 3619   2.727   1.489   1.101
 1206SOL    HW2 3620   2.811   1.445   1.234
 1207SOL     OW 3621   3.213   0.590   1.433
 1207SOL    HW1 3622   3.241   0.547   1.518
 1207SOL    HW2 3623   3.238   0.686   1.434
 1208SOL     OW 3624   2.665   1.402   0.924
 1208SOL    HW1 3625   2.755   1.416   0.882
 1208SOL    HW2 3626   2.594   1.404   0.853
 1209SOL     OW 3627   2.784   0.503   0.899
 1209SOL    HW1 3628   2.759   0.494   0.803
 1209SOL    HW2 3629   2.832   0.421   0.930
 1210SOL     OW 3630   2.401   0.064   0.512
 1210SOL    HW1 3631   2.320   0.065   0.570
 1210SOL    HW2 3632   2.404   0.147   0.457
 1211SOL     OW 3633   3.296   1.188   0.041
 1211SOL    HW1 3634   3.328   1.112   0.098
 1211SOL    HW2 3635   3.204   1.215   0.071
 1212SOL     OW 3636   2.159   0.035   0.171
 1212SOL    HW1 3637   2.208   0.119   0.150
 1212SOL    HW2 3638   2.221  -0.030   0.216
 1213SOL     OW 3639   2.797   0.236   0.480
 1213SOL    HW1 3640   2.749   0.277   0.402
 1213SOL    HW2 3641   2.896   0.234   0.461
 1214SOL     OW 3642   2.938   0.683   1.464
 1214SOL    HW1 3643   2.858   0.622   1.467
 1214SOL    HW2 3644   3.019   0.630   1.440
 1215SOL     OW 3645   3.089   1.570   0.793
 1215SOL    HW1 3646   3.110   1.644   0.728
 1215SOL    HW2 3647   3.157   1.570   0.866
 1216SOL     OW 3648   2.321   1.152   0.741
 1216SOL    HW1 3649   2.250   1.125   0.806
 1216SOL    HW2 3650   2.295   1.124   0.648
 1217SOL     OW 3651   3.133   1.797   0.591
 1217SOL    HW1 3652   3.177   1.861   0.527
 1217SOL    HW2 3653   3.083   1.849   0.661
 1218SOL     OW 3654   2.894   0.549   0.016
 1218SOL    HW1 3655   2.853   0.631  -0.023
 1218SOL    HW2 3656   2.958   0.575   0.089
 1219SOL     OW 3657   1.940   0.556   1.386
 1219SOL    HW1 3658   2.032   0.555   1.345
 1219SOL    HW2 3659   1.934   0.630   1.453
 1220SOL     OW 3660   2.423   0.222   1.147
 1220SOL    HW1 3661   2.461   0.138   1.184
 1220SOL    HW2 3662   2.335   0.241   1.191
 1221SOL     OW 3663   2.728   0.454   0.642
 1221SOL    HW1 3664   2.696   0.526   0.580
 1221SOL    HW2 3665   2.752   0.373   0.589
 1222SOL     OW 3666   2.879   0.039   0.753
 1222SOL    HW1 3667   2.807   0.044   0.684
 1222SOL    HW2 3668   2.855  -0.030   0.822
 1223SOL     OW 3669   3.291   1.173   0.867
 1223SOL    HW1 3670   3.236   1.089   0.860
 1223SOL    HW2 3671   3.317   1.202   0.775
 1224SOL     OW 3672   3.328   0.590   0.992
 1224SOL    HW1 3673   3.298   0.495   0.999
 1224SOL    HW2 3674   3.401   0.606   1.058
 1225SOL     OW 3675   3.719   0.833   0.377
 1225SOL    HW1 3676   3.761   0.769   0.441
 1225SOL    HW2 3677   3.681   0.782   0.299
 1226SOL     OW 3678   2.350   1.385   0.174
 1226SOL    HW1 3679   2.263   1.370   0.221
 1226SOL    HW2 3680   2.333   1.411   0.079
 1227SOL     OW 3681   3.526   1.280   0.657
 1227SOL    HW1 3682   3.625   1.288   0.671
 1227SOL    HW2 3683   3.481   1.364   0.688
 1228SOL     OW 3684   3.252   0.575   0.078
 1228SOL    HW1 3685   3.198   0.554   0.159
 1228SOL    HW2 3686   3.343   0.534   0.087
 1229SOL     OW 3687   2.389   0.256   0.328
 1229SOL    HW1 3688   2.416   0.197   0.253
 1229SOL    HW2 3689   2.389   0.351   0.297
 1230SOL     OW 3690   3.616   1.223   1.588
 1230SOL    HW1 3691   3.707   1.184   1.575
 1230SOL    HW2 3692   3.624   1.319   1.612
 1231SOL     OW 3693   2.926   1.347   1.340
 1231SOL    HW1 3694   2.846   1.324   1.395
 1231SOL    HW2 3695   3.009   1.321   1.389
 1232SOL     OW 3696   3.454   1.629   1.625
 1232SOL    HW1 3697   3.481   1.663   1.535
 1232SOL    HW2 3698   3.533   1.591   1.671
 1233SOL     OW 3699   2.973   1.195   1.100
 1233SOL    HW1 3700   2.933   1.239   1.181
 1233SOL    HW2 3701   2.932   1.232   1.017
 1234SOL     OW 3702   3.500   1.099   1.079
 1234SOL    HW1 3703   3.505   1.180   1.138
 1234SOL    HW2 3704   3.414   1.101   1.028
 1235SOL     OW 3705   2.777   0.089   1.402
 1235SOL    HW1 3706   2.802   0.069   1.307
 1235SOL    HW2 3707   2.849   0.145   1.444
 1236SOL     OW 3708   2.842   1.116   1.719
 1236SOL    HW1 3709   2.743   1.122   1.729
 1236SOL    HW2 3710   2.865   1.036   1.663
 1237SOL     OW 3711   2.567   1.050   0.368
 1237SOL    HW1 3712   2.553   1.057   0.467
 1237SOL    HW2 3713   2.651   0.999   0.350
 1238SOL     OW 3714   2.272   0.813   1.251
 1238SOL    HW1 3715   2.358   0.825   1.301
 1238SOL    HW2 3716   2.230   0.726   1.278
 1239SOL     OW 3717   3.136   0.386   1.262
 1239SOL    HW1 3718   3.157   0.460   1.326
 1239SOL    HW2 3719   3.047   0.403   1.219
 1240SOL     OW 3720   1.926   1.564   1.331
 1240SOL    HW1 3721   1.880   1.646   1.297
 1240SOL    HW2 3722   2.024   1.583   1.340
 1241SOL     OW 3723   2.229   1.100   0.501
 1241SOL    HW1 3724   2.222   1.183   0.445
 1241SOL    HW2 3725   2.233   1.020   0.441
 1242SOL     OW 3726   2.428   0.537   0.865
 1242SOL    HW1 3727   2.440   0.603   0.791
 1242SOL    HW2 3728   2.474   0.571   0.948
 1243SOL     OW 3729   3.114   1.348   0.388
 1243SOL    HW1 3730   3.164   1.425   0.428
 1243SOL    HW2 3731   3.019   1.350   0.420
 1244SOL     OW 3732   3.134   1.445   1.142
 1244SOL    HW1 3733   3.181   1.458   1.229
 1244SOL    HW2 3734   3.068   1.371   1.151
 1245SOL     OW 3735   3.444   0.639   0.472
 1245SOL    HW1 3736   3.413   0.700   0.545
 1245SOL    HW2 3737   3.494   0.691   0.403
 1246SOL     OW 3738   2.216   1.510   1.329
 1246SOL    HW1 3739   2.195   1.466   1.242
 1246SOL    HW2 3740   2.313   1.536   1.332
 1247SOL     OW 3741   2.264   0.751   1.598
 1247SOL    HW1 3742   2.332   0.806   1.551
 1247SOL    HW2 3743   2.304   0.663   1.625
 1248SOL     OW 3744   3.449   0.779   1.670
 1248SOL    HW1 3745   3.357   0.817   1.665
 1248SOL    HW2 3746   3.509   0.826   1.605
 1249SOL     OW 3747   2.875   0.105   1.770
 1249SOL    HW1 3748   2.881   0.190   1.718
 1249SOL    HW2 3749   2.907   0.029   1.713
 1250SOL     OW 3750   2.366   0.050   1.740
 1250SOL    HW1 3751   2.324  -0.007   1.670
 1250SOL    HW2 3752   2.300   0.119   1.772
 1251SOL     OW 3753   2.435   0.870   1.029
 1251SOL    HW1 3754   2.479   0.959   1.020
 1251SOL    HW2 3755   2.372   0.870   1.106
 1252SOL     OW 3756   3.222   0.862   1.045
 1252SOL    HW1 3757   3.147   0.862   0.979
 1252SOL    HW2 3758   3.259   0.770   1.054
 1253SOL     OW 3759   3.071   0.525   0.275
 1253SOL    HW1 3760   3.084   0.441   0.329
 1253SOL    HW2 3761   3.042   0.599   0.335
 1254SOL     OW 3762   2.169   0.213   1.231
 1254SOL    HW1 3763   2.146   0.250   1.321
 1254SOL    HW2 3764   2.139   0.118   1.225
 1255SOL     OW 3765   1.899   1.310   1.282
 1255SOL    HW1 3766   1.952   1.261   1.350
 1255SOL    HW2 3767   1.921   1.408   1.287
 1256SOL     OW 3768   2.594   0.634   1.064
 1256SOL    HW1 3769   2.653   0.608   0.988
 1256SOL    HW2 3770   2.566   0.730   1.053
 1257SOL     OW 3771   3.590   0.935   1.854
 1257SOL    HW1 3772   3.544   0.928   1.765
 1257SOL    HW2 3773   3.528   0.979   1.920
 1258SOL     OW 3774   2.169   0.063   0.618
 1258SOL    HW1 3775   2.158   0.157   0.651
 1258SOL    HW2 3776   2.164   0.000   0.695
 1259SOL     OW 3777   3.484   0.367   0.374
 1259SOL    HW1 3778   3.486   0.291   0.438
 1259SOL    HW2 3779   3.436   0.444   0.414
 1260SOL     OW 3780   2.885   0.766   0.966
 1260SOL    HW1 3781   2.900   0.787   1.062
 1260SOL    HW2 3782   2.855   0.671   0.957
 1261SOL     OW 3783   2.842   1.573   1.700
 1261SOL    HW1 3784   2.822   1.617   1.612
 1261SOL    HW2 3785   2.881   1.482   1.684
 1262SOL     OW 3786   3.721   1.518   1.605
 1262SOL    HW1 3787   3.735   1.545   1.510
 1262SOL    HW2 3788   3.804   1.540   1.658
 1263SOL     OW 3789   2.212   0.898   1.804
 1263SOL    HW1 3790   2.288   0.942   1.852
 1263SOL    HW2 3791   2.247   0.851   1.722
 1264SOL     OW 3792   3.402   0.274   0.125
 1264SOL    HW1 3793   3.341   0.199   0.148
 1264SOL    HW2 3794   3.424   0.326   0.208
 1265SOL     OW 3795   3.165   0.838   0.042
 1265SOL    HW1 3796   3.199   0.745   0.057
 1265SOL    HW2 3797   3.183   0.865  -0.053
 1266SOL     OW 3798   2.930   1.333   0.849
 1266SOL    HW1 3799   2.937   1.249   0.794
 1266SOL    HW2 3800   2.992   1.402   0.813
 1267SOL     OW 3801   2.181   0.810   0.949
 1267SOL    HW1 3802   2.274   0.846   0.954
 1267SOL    HW2 3803   2.175   0.725   1.001
 1268SOL     OW 3804   2.201   0.509   1.006
 1268SOL    HW1 3805   2.149   0.426   0.989
 1268SOL    HW2 3806   2.278   0.514   0.942
 1269SOL     OW 3807   3.000   0.380   1.678
 1269SOL    HW1 3808   2.955   0.443   1.742
 1269SOL    HW2 3809   3.093   0.411   1.661
 1270SOL     OW 3810   3.022   0.207   1.477
 1270SOL    HW1 3811   3.022   0.271   1.554
 1270SOL    HW2 3812   3.050   0.255   1.394
 1271SOL     OW 3813   1.870   1.326   0.200
 1271SOL    HW1 3814   1.777   1.347   0.169
 1271SOL    HW2 3815   1.880   1.227   0.213
 1272SOL     OW 3816   1.950   1.801   0.927
 1272SOL    HW1 3817   1.908   1.715   0.900
 1272SOL    HW2 3818   2.044   1.804   0.893
 1273SOL     OW 3819   2.366   1.568   0.910
 1273SOL    HW1 3820   2.432   1.642   0.919
 1273SOL    HW2 3821   2.410   1.489   0.868
 1274SOL     OW 3822   2.864   0.796   1.238
 1274SOL    HW1 3823   2.905   0.764   1.324
 1274SOL    HW2 3824   2.768   0.769   1.235
 1275SOL     OW 3825   1.902   0.544   1.114
 1275SOL    HW1 3826   1.987   0.511   1.073
 1275SOL    HW2 3827   1.915   0.559   1.212
 1276SOL     OW 3828   2.051   0.520   1.722
 1276SOL    HW1 3829   2.110   0.480   1.652
 1276SOL    HW2 3830   1.993   0.591   1.681
 1277SOL     OW 3831   3.231   0.950   1.660
 1277SOL    HW1 3832   3.270   1.039   1.680
 1277SOL    HW2 3833   3.241   0.930   1.563
 1278SOL     OW 3834   2.677   0.572   0.325
 1278SOL    HW1 3835   2.684   0.483   0.279
 1278SOL    HW2 3836   2.583   0.606   0.317
 1279SOL     OW 3837   3.519   0.604   1.206
 1279SOL    HW1 3838   3.481   0.535   1.268
 1279SOL    HW2 3839   3.601   0.568   1.162
 1280SOL     OW 3840   2.114   1.564   1.744
 1280SOL    HW1 3841   2.084   1.621   1.820
 1280SOL    HW2 3842   2.107   1.467   1.770
 1281SOL     OW 3843   2.533   0.464   1.269
 1281SOL    HW1 3844   2.499   0.375   1.239
 1281SOL    HW2 3845   2.559   0.518   1.189
 1282SOL     OW 3846   2.792   1.678   1.465
 1282SOL    HW1 3847   2.768   1.660   1.370
 1282SOL    HW2 3848   2.822   1.772   1.475
 1283SOL     OW 3849   2.335   0.500   0.191
 1283SOL    HW1 3850   2.396   0.580   0.195
 1283SOL    HW2 3851   2.240   0.531   0.198
 1284SOL     OW 3852   2.021   1.137   1.466
 1284SOL    HW1 3853   2.043   1.076   1.542
 1284SOL    HW2 3854   2.031   1.088   1.380
 1285SOL     OW 3855   3.209   1.059   1.234
 1285SOL    HW1 3856   3.233   0.996   1.160
 1285SOL    HW2 3857   3.119   1.099   1.216
 1286SOL     OW 3858   3.164   0.855   0.309
 1286SOL    HW1 3859   3.078   0.824   0.351
 1286SOL    HW2 3860   3.160   0.841   0.210
 1287SOL     OW 3861   3.621   1.747   1.154
 1287SOL    HW1 3862   3.682   1.777   1.081
 1287SOL    HW2 3863   3.583   1.658   1.132
 1288SOL     OW 3864   3.114   1.731   1.128
 1288SOL    HW1 3865   3.198   1.736   1.074
 1288SOL    HW2 3866   3.091   1.635   1.146
 1289SOL     OW 3867   1.945   1.258   1.022
 1289SOL    HW1 3868   1.940   1.257   1.122
 1289SOL    HW2 3869   1.862   1.217   0.984
 1290SOL     OW 3870   2.550   1.662   1.716
 1290SOL    HW1 3871   2.494   1.743   1.725
 1290SOL    HW2 3872   2.602   1.666   1.630
 1291SOL     OW 3873   2.765   0.086   0.133
 1291SOL    HW1 3874   2.816   0.087   0.047
 1291SOL    HW2 3875   2.821   0.044   0.204
 1292SOL     OW 3876   3.588   0.135   0.523
 1292SOL    HW1 3877   3.661   0.118   0.456
 1292SOL    HW2 3878   3.557   0.048   0.561
 1293SOL     OW 3879   3.250   1.573   0.477
 1293SOL    HW1 3880   3.317   1.585   0.403
 1293SOL    HW2 3881   3.210   1.662   0.500
 1294SOL     OW 3882   1.992   1.794   1.851
 1294SOL    HW1 3883   1.951   1.720   1.904
 1294SOL    HW2 3884   2.056   1.845   1.909
 1295SOL     OW 3885   3.142   0.927   0.672
 1295SOL    HW1 3886   3.202   0.846   0.674
 1295SOL    HW2 3887   3.182   0.996   0.612
 1296SOL     OW 3888   2.692   1.273   1.422
 1296SOL    HW1 3889   2.687   1.306   1.517
 1296SOL    HW2 3890   2.606   1.292   1.376
 1297SOL     OW 3891   2.534   1.616   0.154
 1297SOL    HW1 3892   2.543   1.626   0.055
 1297SOL    HW2 3893   2.494   1.527   0.175
 1298SOL     OW 3894   3.512   1.720   1.394
 1298SOL    HW1 3895   3.565   1.730   1.310
 1298SOL    HW2 3896   3.485   1.810   1.428
 1299SOL     OW 3897   3.703   0.175   0.963
 1299SOL    HW1 3898   3.742   0.090   0.927
 1299SOL    HW2 3899   3.605   0.177   0.944
 1300SOL     OW 3900   2.125   0.326   0.720
 1300SOL    HW1 3901   2.046   0.377   0.686
 1300SOL    HW2 3902   2.116   0.311   0.818
 1301SOL     OW 3903   3.056   1.612   0.031
 1301SOL    HW1 3904   3.062   1.519   0.068
 1301SOL    HW2 3905   2.997   1.612  -0.049
 1302SOL     OW 3906   2.684   1.002   1.372
 1302SOL    HW1 3907   2.724   1.001   1.280
 1302SOL    HW2 3908   2.694   1.094   1.412
 1303SOL     OW 3909   2.778   0.910   0.291
 1303SOL    HW1 3910   2.841   0.948   0.223
 1303SOL    HW2 3911   2.818   0.827   0.330
 1304SOL     OW 3912   3.366   1.607   0.044
 1304SOL    HW1 3913   3.274   1.644   0.051
 1304SOL    HW2 3914   3.404   1.627  -0.046
 1305SOL     OW 3915   2.234   1.288   1.490
 1305SOL    HW1 3916   2.221   1.381   1.456
 1305SOL    HW2 3917   2.150   1.236   1.477
 1306SOL     OW 3918   3.476   1.292   1.289
 1306SOL    HW1 3919   3.536   1.295   1.369
 1306SOL    HW2 3920   3.401   1.356   1.302
 1307SOL     OW 3921   2.901   1.098   0.696
 1307SOL    HW1 3922   2.831   1.051   0.750
 1307SOL    HW2 3923   2.960   1.030   0.653
 1308SOL     OW 3924   2.876   0.236   0.971
 1308SOL    HW1 3925   2.868   0.200   0.878
 1308SOL    HW2 3926   2.874   0.160   1.036
 1309SOL     OW 3927   2.452   1.487   0.491
 1309SOL    HW1 3928   2.494   1.429   0.421
 1309SOL    HW2 3929   2.408   1.566   0.447
 1310SOL     OW 3930   3.571   0.385   1.381
 1310SOL    HW1 3931   3.644   0.454   1.385
 1310SOL    HW2 3932   3.599   0.310   1.322
 1311SOL     OW 3933   2.117   1.348   0.290
 1311SOL    HW1 3934   2.021   1.349   0.263
 1311SOL    HW2 3935   2.129   1.401   0.374
 1312SOL     OW 3936   1.967   1.013   1.726
 1312SOL    HW1 3937   1.890   0.980   1.780
 1312SOL    HW2 3938   2.052   0.983   1.768
 1313SOL     OW 3939   2.534   0.203   1.489
 1313SOL    HW1 3940   2.624   0.187   1.449
 1313SOL    HW2 3941   2.542   0.208   1.588
 1314SOL     OW 3942   1.937   0.345   0.033
 1314SOL    HW1 3943   1.845   0.317   0.004
 1314SOL    HW2 3944   1.968   0.422  -0.023
 1315SOL     OW 3945   3.302   0.856   1.398
 1315SOL    HW1 3946   3.245   0.908   1.335
 1315SOL    HW2 3947   3.398   0.868   1.374
 1316SOL     OW 3948   1.934   0.166   0.318
 1316SOL    HW1 3949   1.917   0.249   0.264
 1316SOL    HW2 3950   2.024   0.129   0.296
 1317SOL     OW 3951   3.045   1.335   0.119
 1317SOL    HW1 3952   2.946   1.324   0.121
 1317SOL    HW2 3953   3.079   1.350   0.212
 1318SOL     OW 3954   2.475   0.842   1.431
 1318SOL    HW1 3955   2.531   0.923   1.414
 1318SOL    HW2 3956   2.534   0.762   1.434
 1319SOL     OW 3957   3.355   1.767   0.959
 1319SOL    HW1 3958   3.388   1.831   0.890
 1319SOL    HW2 3959   3.421   1.761   1.034
 1320SOL     OW 3960   2.578   0.565   1.708
 1320SOL    HW1 3961   2.597   0.630   1.782
 1320SOL    HW2 3962   2.638   0.485   1.717
 1321SOL     OW 3963   3.312   1.220   1.633
 1321SOL    HW1 3964   3.303   1.210   1.732
 1321SOL    HW2 3965   3.408   1.213   1.607
 1322SOL     OW 3966   2.252   1.741   1.560
 1322SOL    HW1 3967   2.161   1.782   1.558
 1322SOL    HW2 3968   2.245   1.647   1.592
 1323SOL     OW 3969   3.536   0.883   1.254
 1323SOL    HW1 3970   3.509   0.794   1.217
 1323SOL    HW2 3971   3.537   0.951   1.181
 1324SOL     OW 3972   3.087   0.325   0.449
 1324SOL    HW1 3973   3.152   0.251   0.438
 1324SOL    HW2 3974   3.107   0.375   0.533
 1325SOL     OW 3975   2.456   0.745   0.652
 1325SOL    HW1 3976   2.506   0.830   0.633
 1325SOL    HW2 3977   2.368   0.747   0.604
 1326SOL     OW 3978   3.639   0.342   1.642
 1326SOL    HW1 3979   3.622   0.373   1.548
 1326SOL    HW2 3980   3.555   0.305   1.680
 1327SOL     OW 3981   3.592   0.934   1.517
 1327SOL    HW1 3982   3.630   1.025   1.532
 1327SOL    HW2 3983   3.584   0.917   1.418
 1328SOL     OW 3984   2.721   1.374   0.016
 1328SOL    HW1 3985   2.675   1.389   0.104
 1328SOL    HW2 3986   2.765   1.459  -0.014
 1329SOL     OW 3987   2.523   1.790   0.953
 1329SOL    HW1 3988   2.477   1.878   0.940
 1329SOL    HW2 3989   2.622   1.802   0.946
 1330SOL     OW 3990   2.721   0.956   0.861
 1330SOL    HW1 3991   2.775   0.887   0.909
 1330SOL    HW2 3992   2.689   1.025   0.927
 1331SOL     OW 3993   2.945   0.984   0.087
 1331SOL    HW1 3994   2.922   1.037   0.005
 1331SOL    HW2 3995   3.026   0.928   0.068
 1332SOL     OW 3996   3.723   1.569   0.851
 1332SOL    HW1 3997   3.652   1.557   0.781
 1332SOL    HW2 3998   3.724   1.490   0.911
 1333SOL     OW 3999   2.083   1.314   1.844
 1333SOL    HW1 4000   2.018   1.241   1.823
 1333SOL    HW2 4001   2.087   1.328   1.942
 1334SOL     OW 4002   1.941   1.240   0.653
 1334SOL    HW1 4003   1.940   1.193   0.741
 1334SOL    HW2 4004   2.023   1.212   0.602
 1335SOL     OW 4005   2.534   1.391   1.624
 1335SOL    HW1 4006   2.456   1.341   1.662
 1335SOL    HW2 4007   2.531   1.486   1.655
 1336SOL     OW 4008   3.686   0.192   1.227
 1336SOL    HW1 4009   3.682   0.102   1.271
 1336SOL    HW2 4010   3.689   0.181   1.128
 1337SOL     OW 4011   2.290   0.424   0.520
 1337SOL    HW1 4012   2.320   0.352   0.458
 1337SOL    HW2 4013   2.251   0.384   0.603
 1338SOL     OW 4014   3.567   1.487   1.104
 1338SOL    HW1 4015   3.474   1.462   1.077
 1338SOL    HW2 4016   3.593   1.437   1.186
 1339SOL     OW 4017   2.179   0.547   1.280
 1339SOL    HW1 4018   2.217   0.488   1.352
 1339SOL    HW2 4019   2.219   0.521   1.192
 1340SOL     OW 4020   2.674   1.586   0.687
 1340SOL    HW1 4021   2.706   1.596   0.593
 1340SOL    HW2 4022   2.595   1.524   0.689
 1341SOL     OW 4023   3.286   0.214   1.112
 1341SOL    HW1 4024   3.338   0.149   1.167
 1341SOL    HW2 4025   3.237   0.277   1.173
 1342SOL     OW 4026   2.863   0.034   1.154
 1342SOL    HW1 4027   2.800  -0.038   1.123
 1342SOL    HW2 4028   2.956  -0.002   1.154
 1343SOL     OW 4029   2.632   1.330   0.301
 1343SOL    HW1 4030   2.586   1.243   0.318
 1343SOL    HW2 4031   2.723   1.327   0.342
 1344SOL     OW 4032   2.480   1.567   1.284
 1344SOL    HW1 4033   2.475   1.649   1.341
 1344SOL    HW2 4034   2.569   1.564   1.239
 1345SOL     OW 4035   3.214   0.052   0.168
 1345SOL    HW1 4036   3.249   0.011   0.084
 1345SOL    HW2 4037   3.124   0.014   0.188
 1346SOL     OW 4038   3.162   0.453   0.691
 1346SOL    HW1 4039   3.103   0.533   0.695
 1346SOL    HW2 4040   3.177   0.418   0.784
 1347SOL     OW 4041   3.455   0.221   0.882
 1347SOL    HW1 4042   3.371   0.220   0.936
 1347SOL    HW2 4043   3.457   0.304   0.826
 1348SOL     OW 4044   1.901   1.077   0.300
 1348SOL    HW1 4045   2.000   1.066   0.291
 1348SOL    HW2 4046   1.861   0.991   0.332
 1349SOL     OW 4047   2.737   1.646   0.337
 1349SOL    HW1 4048   2.660   1.611   0.283
 1349SOL    HW2 4049   2.705   1.717   0.399
 1350SOL     OW 4050   2.092   0.628   1.975
 1350SOL    HW1 4051   1.999   0.626   2.012
 1350SOL    HW2 4052   2.093   0.589   1.883
 1351SOL     OW 4053   2.087   0.275   2.858
 1351SOL    HW1 4054   2.122   0.258   2.950
 1351SOL    HW2 4055   1.999   0.230   2.846
 1352SOL     OW 4056   1.881   0.368   2.509
 1352SOL    HW1 4057   1.799   0.411   2.548
 1352SOL    HW2 4058   1.853   0.295   2.446
 1353SOL     OW 4059   2.431   1.275   3.027
 1353SOL    HW1 4060   2.338   1.268   2.990
 1353SOL    HW2 4061   2.442   1.364   3.071
 1354SOL     OW 4062   3.417   1.511   2.565
 1354SOL    HW1 4063   3.360   1.495   2.646
 1354SOL    HW2 4064   3.358   1.521   2.485
 1355SOL     OW 4065   2.997   0.703   2.579
 1355SOL    HW1 4066   3.054   0.781   2.554
 1355SOL    HW2 4067   2.937   0.729   2.655
 1356SOL     OW 4068   3.617   0.607   2.093
 1356SOL    HW1 4069   3.605   0.594   1.994
 1356SOL    HW2 4070   3.587   0.526   2.142
 1357SOL     OW 4071   2.630   1.144   2.885
 1357SOL    HW1 4072   2.552   1.161   2.945
 1357SOL    HW2 4073   2.664   1.231   2.849
 1358SOL     OW 4074   2.712   0.798   3.685
 1358SOL    HW1 4075   2.708   0.874   3.750
 1358SOL    HW2 4076   2.734   0.834   3.594
 1359SOL     OW 4077   2.547   1.012   2.527
 1359SOL    HW1 4078   2.616   0.996   2.597
 1359SOL    HW2 4079   2.474   1.069   2.565
 1360SOL     OW 4080   2.548   1.161   3.665
 1360SOL    HW1 4081   2.608   1.240   3.679
 1360SOL    HW2 4082   2.462   1.192   3.624
 1361SOL     OW 4083   2.197   1.435   2.923
 1361SOL    HW1 4084   2.119   1.404   2.870
 1361SOL    HW2 4085   2.255   1.493   2.866
 1362SOL     OW 4086   3.322   1.505   3.201
 1362SOL    HW1 4087   3.346   1.599   3.227
 1362SOL    HW2 4088   3.306   1.451   3.283
 1363SOL     OW 4089   2.300   0.392   3.361
 1363SOL    HW1 4090   2.382   0.336   3.370
 1363SOL    HW2 4091   2.219   0.334   3.365
 1364SOL     OW 4092   3.465   0.447   2.599
 1364SOL    HW1 4093   3.391   0.493   2.549
 1364SOL    HW2 4094   3.516   0.515   2.652
 1365SOL     OW 4095   2.093   1.713   2.345
 1365SOL    HW1 4096   2.127   1.790   2.399
 1365SOL    HW2 4097   2.137   1.713   2.255
 1366SOL     OW 4098   2.989   1.341   3.552
 1366SOL    HW1 4099   3.036   1.341   3.640
 1366SOL    HW2 4100   2.941   1.254   3.541
 1367SOL     OW 4101   2.092   1.434   2.400
 1367SOL    HW1 4102   2.066   1.530   2.400
 1367SOL    HW2 4103   2.021   1.380   2.445
 1368SOL     OW 4104   2.102   1.091   2.748
 1368SOL    HW1 4105   2.116   1.007   2.800
 1368SOL    HW2 4106   2.047   1.155   2.803
 1369SOL     OW 4107   2.482   1.786   3.301
 1369SOL    HW1 4108   2.390   1.769   3.336
 1369SOL    HW2 4109   2.510   1.878   3.327
 1370SOL     OW 4110   2.468   0.964   1.985
 1370SOL    HW1 4111   2.475   1.048   1.931
 1370SOL    HW2 4112   2.514   0.977   2.073
 1371SOL     OW 4113   3.456   0.114   3.342
 1371SOL    HW1 4114   3.438   0.181   3.270
 1371SOL    HW2 4115   3.453   0.160   3.431
 1372SOL     OW 4116   1.984   0.643   2.425
 1372SOL    HW1 4117   1.939   0.555   2.442
 1372SOL    HW2 4118   1.983   0.697   2.509
 1373SOL     OW 4119   3.704   1.767   2.221
 1373SOL    HW1 4120   3.758   1.738   2.301
 1373SOL    HW2 4121   3.734   1.857   2.192
 1374SOL     OW 4122   1.889   1.596   1.979
 1374SOL    HW1 4123   1.870   1.500   2.000
 1374SOL    HW2 4124   1.856   1.654   2.054
 1375SOL     OW 4125   3.551   0.922   2.474
 1375SOL    HW1 4126   3.646   0.893   2.482
 1375SOL    HW2 4127   3.543   0.987   2.399
 1376SOL     OW 4128   3.503   1.108   2.294
 1376SOL    HW1 4129   3.589   1.110   2.242
 1376SOL    HW2 4130   3.517   1.155   2.382
 1377SOL     OW 4131   1.975   0.737   3.459
 1377SOL    HW1 4132   2.063   0.724   3.504
 1377SOL    HW2 4133   1.962   0.834   3.437
 1378SOL     OW 4134   2.475   1.365   2.588
 1378SOL    HW1 4135   2.426   1.278   2.597
 1378SOL    HW2 4136   2.452   1.408   2.501
 1379SOL     OW 4137   3.155   1.228   3.285
 1379SOL    HW1 4138   3.192   1.155   3.227
 1379SOL    HW2 4139   3.207   1.233   3.370
 1380SOL     OW 4140   2.671   0.004   2.364
 1380SOL    HW1 4141   2.711   0.095   2.355
 1380SOL    HW2 4142   2.571   0.012   2.370
 1381SOL     OW 4143   2.059   0.976   3.126
 1381SOL    HW1 4144   2.148   0.931   3.112
 1381SOL    HW2 4145   1.986   0.911   3.107
 1382SOL     OW 4146   3.387   0.999   2.052
 1382SOL    HW1 4147   3.324   0.923   2.065
 1382SOL    HW2 4148   3.435   1.017   2.138
 1383SOL     OW 4149   3.049   1.792   3.478
 1383SOL    HW1 4150   3.073   1.852   3.402
 1383SOL    HW2 4151   3.056   1.697   3.448
 1384SOL     OW 4152   2.179   0.251   3.663
 1384SOL    HW1 4153   2.250   0.322   3.669
 1384SOL    HW2 4154   2.091   0.290   3.691
 1385SOL     OW 4155   3.328   1.417   2.815
 1385SOL    HW1 4156   3.269   1.423   2.895
 1385SOL    HW2 4157   3.313   1.329   2.769
 1386SOL     OW 4158   3.529   1.714   2.434
 1386SOL    HW1 4159   3.488   1.691   2.346
 1386SOL    HW2 4160   3.511   1.640   2.499
 1387SOL     OW 4161   2.460   0.729   2.132
 1387SOL    HW1 4162   2.484   0.798   2.064
 1387SOL    HW2 4163   2.382   0.762   2.186
 1388SOL     OW 4164   3.143   0.345   2.806
 1388SOL    HW1 4165   3.057   0.295   2.793
 1388SOL    HW2 4166   3.205   0.291   2.862
 1389SOL     OW 4167   3.438   1.662   2.169
 1389SOL    HW1 4168   3.527   1.708   2.172
 1389SOL    HW2 4169   3.417   1.638   2.074
 1390SOL     OW 4170   2.669   0.605   3.327
 1390SOL    HW1 4171   2.622   0.602   3.416
 1390SOL    HW2 4172   2.618   0.550   3.261
 1391SOL     OW 4173   3.256   0.469   3.536
 1391SOL    HW1 4174   3.236   0.512   3.624
 1391SOL    HW2 4175   3.334   0.407   3.545
 1392SOL     OW 4176   2.835   0.890   3.434
 1392SOL    HW1 4177   2.881   0.806   3.405
 1392SOL    HW2 4178   2.779   0.924   3.359
 1393SOL     OW 4179   2.853   0.410   3.104
 1393SOL    HW1 4180   2.776   0.444   3.158
 1393SOL    HW2 4181   2.819   0.359   3.025
 1394SOL     OW 4182   2.903   0.701   2.291
 1394SOL    HW1 4183   2.929   0.697   2.387
 1394SOL    HW2 4184   2.818   0.650   2.277
 1395SOL     OW 4185   1.938   0.811   2.651
 1395SOL    HW1 4186   2.037   0.799   2.660
 1395SOL    HW2 4187   1.914   0.906   2.672
 1396SOL     OW 4188   1.992   1.821   3.433
 1396SOL    HW1 4189   1.982   1.806   3.532
 1396SOL    HW2 4190   1.906   1.857   3.397
 1397SOL     OW 4191   2.727   0.348   2.057
 1397SOL    HW1 4192   2.786   0.411   2.008
 1397SOL    HW2 4193   2.746   0.254   2.028
 1398SOL     OW 4194   3.581   0.585   3.693
 1398SOL    HW1 4195   3.555   0.674   3.657
 1398SOL    HW2 4196   3.579   0.517   3.620
 1399SOL     OW 4197   3.224   1.144   2.407
 1399SOL    HW1 4198   3.307   1.115   2.359
 1399SOL    HW2 4199   3.175   1.211   2.351
 1400SOL     OW 4200   2.412   0.196   2.747
 1400SOL    HW1 4201   2.407   0.191   2.847
 1400SOL    HW2 4202   2.414   0.292   2.718
 1401SOL     OW 4203   2.870   1.456   2.339
 1401SOL    HW1 4204   2.824   1.528   2.287
 1401SOL    HW2 4205   2.866   1.476   2.437
 1402SOL     OW 4206   2.213   1.801   2.715
 1402SOL    HW1 4207   2.263   1.715   2.721
 1402SOL    HW2 4208   2.278   1.878   2.712
 1403SOL     OW 4209   3.657   1.066   2.735
 1403SOL    HW1 4210   3.595   1.051   2.659
 1403SOL    HW2 4211   3.605   1.077   2.820
 1404SOL     OW 4212   3.089   1.550   3.368
 1404SOL    HW1 4213   3.095   1.473   3.432
 1404SOL    HW2 4214   3.037   1.524   3.288
 1405SOL     OW 4215   2.183   0.943   2.104
 1405SOL    HW1 4216   2.265   0.982   2.062
 1405SOL    HW2 4217   2.156   0.861   2.055
 1406SOL     OW 4218   3.320   0.735   2.590
 1406SOL    HW1 4219   3.315   0.670   2.665
 1406SOL    HW2 4220   3.400   0.794   2.603
 1407SOL     OW 4221   2.323   1.266   3.589
 1407SOL    HW1 4222   2.273   1.267   3.503
 1407SOL    HW2 4223   2.260   1.248   3.665
 1408SOL     OW 4224   2.973   1.776   2.099
 1408SOL    HW1 4225   2.913   1.714   2.149
 1408SOL    HW2 4226   3.004   1.732   2.014
 1409SOL     OW 4227   2.064   0.285   3.360
 1409SOL    HW1 4228   1.984   0.345   3.347
 1409SOL    HW2 4229   2.054   0.236   3.446
 1410SOL     OW 4230   3.494   1.377   1.943
 1410SOL    HW1 4231   3.462   1.471   1.933
 1410SOL    HW2 4232   3.418   1.314   1.931
 1411SOL     OW 4233   2.326   1.743   2.185
 1411SOL    HW1 4234   2.359   1.782   2.271
 1411SOL    HW2 4235   2.402   1.736   2.120
 1412SOL     OW 4236   3.262   0.107   2.288
 1412SOL    HW1 4237   3.238   0.070   2.198
 1412SOL    HW2 4238   3.361   0.123   2.292
 1413SOL     OW 4239   2.111   1.785   3.103
 1413SOL    HW1 4240   2.168   1.720   3.153
 1413SOL    HW2 4241   2.095   1.752   3.010
 1414SOL     OW 4242   2.802   1.698   2.766
 1414SOL    HW1 4243   2.882   1.641   2.787
 1414SOL    HW2 4244   2.753   1.658   2.689
 1415SOL     OW 4245   2.244   0.700   2.342
 1415SOL    HW1 4246   2.289   0.610   2.339
 1415SOL    HW2 4247   2.150   0.689   2.375
 1416SOL     OW 4248   3.409   0.222   3.591
 1416SOL    HW1 4249   3.404   0.259   3.683
 1416SOL    HW2 4250   3.337   0.153   3.579
 1417SOL     OW 4251   2.476   0.122   1.979
 1417SOL    HW1 4252   2.574   0.100   1.986
 1417SOL    HW2 4253   2.445   0.105   1.886
 1418SOL     OW 4254   2.643   0.264   3.611
 1418SOL    HW1 4255   2.710   0.203   3.654
 1418SOL    HW2 4256   2.570   0.283   3.676
 1419SOL     OW 4257   2.750   1.514   3.057
 1419SOL    HW1 4258   2.727   1.489   2.963
 1419SOL    HW2 4259   2.811   1.445   3.096
 1420SOL     OW 4260   3.213   0.590   3.295
 1420SOL    HW1 4261   3.241   0.547   3.380
 1420SOL    HW2 4262   3.238   0.686   3.296
 1421SOL     OW 4263   2.665   1.402   2.786
 1421SOL    HW1 4264   2.755   1.416   2.744
 1421SOL    HW2 4265   2.594   1.404   2.715
 1422SOL     OW 4266   2.784   0.503   2.761
 1422SOL    HW1 4267   2.759   0.494   2.665
 1422SOL    HW2 4268   2.832   0.421   2.792
 1423SOL     OW 4269   2.401   0.064   2.374
 1423SOL    HW1 4270   2.320   0.065   2.432
 1423SOL    HW2 4271   2.404   0.147   2.319
 1424SOL     OW 4272   3.296   1.188   1.903
 1424SOL    HW1 4273   3.328   1.112   1.960
 1424SOL    HW2 4274   3.204   1.215   1.933
 1425SOL     OW 4275   2.159   0.035   2.033
 1425SOL    HW1 4276   2.208   0.119   2.012
 1425SOL    HW2 4277   2.221  -0.030   2.078
 1426SOL     OW 4278   2.797   0.236   2.342
 1426SOL    HW1 4279   2.749   0.277   2.264
 1426SOL    HW2 4280   2.896   0.234   2.323
 1427SOL     OW 4281   2.938   0.683   3.326
 1427SOL    HW1 4282   2.858   0.622   3.329
 1427SOL    HW2 4283   3.019   0.630   3.302
 1428SOL     OW 4284   3.089   1.570   2.655
 1428SOL    HW1 4285   3.110   1.644   2.590
 1428SOL    HW2 4286   3.157   1.570   2.728
 1429SOL     OW 4287   2.321   1.152   2.603
 1429SOL    HW1 4288   2.250   1.125   2.668
 1429SOL    HW2 4289   2.295   1.124   2.510
 1430SOL     OW 4290   3.133   1.797   2.453
 1430SOL    HW1 4291   3.177   1.861   2.389
 1430SOL    HW2 4292   3.083   1.849   2.523
 1431SOL     OW 4293   2.894   0.549   1.878
 1431SOL    HW1 4294   2.853   0.631   1.839
 1431SOL    HW2 4295   2.958   0.575   1.951
 1432SOL     OW 4296   1.940   0.556   3.248
 1432SOL    HW1 4297   2.032   0.555   3.207
 1432SOL    HW2 4298   1.934   0.630   3.315
 1433SOL     OW 4299   2.423   0.222   3.009
 1433SOL    HW1 4300   2.461   0.138   3.046
 1433SOL    HW2 4301   2.335   0.241   3.053
 1434SOL     OW 4302   2.728   0.454   2.504
 1434SOL    HW1 4303   2.696   0.526   2.442
 1434SOL    HW2 4304   2.752   0.373   2.451
 1435SOL     OW 4305   2.879   0.039   2.615
 1435SOL    HW1 4306   2.807   0.044   2.546
 1435SOL    HW2 4307   2.855  -0.030   2.684
 1436SOL     OW 4308   3.291   1.173   2.729
 1436SOL    HW1 4309   3.236   1.089   2.722
 1436SOL    HW2 4310   3.317   1.202   2.637
 1437SOL     OW 4311   3.328   0.590   2.854
 1437SOL    HW1 4312   3.298   0.495   2.861
 1437SOL    HW2 4313   3.401   0.606   2.920
 1438SOL     OW 4314   3.719   0.833   2.239
 1438SOL    HW1 4315   3.761   0.769   2.303
 1438SOL    HW2 4316   3.681   0.782   2.161
 1439SOL     OW 4317   2.350   1.385   2.036
 1439SOL    HW1 4318   2.263   1.370   2.083
 1439SOL    HW2 4319   2.333   1.411   1.941
 1440SOL     OW 4320   3.526   1.280   2.519
 1440SOL    HW1 4321   3.625   1.288   2.533
 1440SOL    HW2 4322   3.481   1.364   2.550
 1441SOL     OW 4323   3.252   0.575   1.940
 1441SOL    HW1 4324   3.198   0.554   2.021
 1441SOL    HW2 4325   3.343   0.534   1.949
 1442SOL     OW 4326   2.389   0.256   2.190
 1442SOL    HW1 4327   2.416   0.197   2.115
 1442SOL    HW2 4328   2.389   0.351   2.159
 1443SOL     OW 4329   3.616   1.223   3.450
 1443SOL    HW1 4330   3.707   1.184   3.437
 1443SOL    HW2 4331   3.624   1.319   3.474
 1444SOL     OW 4332   2.926   1.347   3.202
 1444SOL    HW1 4333   2.846   1.324   3.257
 1444SOL    HW2 4334   3.009   1.321   3.251
 1445SOL     OW 4335   3.454   1.629   3.487
 1445SOL    HW1 4336   3.481   1.663   3.397
 1445SOL    HW2 4337   3.533   1.591   3.533
 1446SOL     OW 4338   2.973   1.195   2.962
 1446SOL    HW1 4339   2.933   1.239   3.043
 1446SOL    HW2 4340   2.932   1.232   2.879
 1447SOL     OW 4341   3.500   1.099   2.941
 1447SOL    HW1 4342   3.505   1.180   3.000
 1447SOL    HW2 4343   3.414   1.101   2.890
 1448SOL     OW 4344   2.777   0.089   3.264
 1448SOL    HW1 4345   2.802   0.069   3.169
 1448SOL    HW2 4346   2.849   0.145   3.306
 1449SOL     OW 4347   2.842   1.116   3.581
 1449SOL    HW1 4348   2.743   1.122   3.591
 1449SOL    HW2 4349   2.865   1.036   3.525
 1450SOL     OW 4350   2.567   1.050   2.230
 1450SOL    HW1 4351   2.553   1.057   2.329
 1450SOL    HW2 4352   2.651   0.999   2.212
 1451SOL     OW 4353   2.272   0.813   3.113
 1451SOL    HW1 4354   2.358   0.825   3.163
 1451SOL    HW2 4355   2.230   0.726   3.140
 1452SOL     OW 4356   3.136   0.386   3.124
 1452SOL    HW1 4357   3.157   0.460   3.188
 1452SOL    HW2 4358   3.047   0.403   3.081
 1453SOL     OW 4359   1.926   1.564   3.193
 1453SOL    HW1 4360   1.880   1.646   3.159
 1453SOL    HW2 4361   2.024   1.583   3.202
 1454SOL     OW 4362   2.229   1.100   2.363
 1454SOL    HW1 4363   2.222   1.183   2.307
 1454SOL    HW2 4364   2.233   1.020   2.303
 1455SOL     OW 4365   2.428   0.537   2.727
 1455SOL    HW1 4366   2.440   0.603   2.653
 1455SOL    HW2 4367   2.474   0.571   2.810
 1456SOL     OW 4368   3.114   1.348   2.250
 1456SOL    HW1 4369   3.164   1.425   2.290
 1456SOL    HW2 4370   3.019   1.350   2.282
 1457SOL     OW 4371   3.134   1.445   3.004
 1457SOL    HW1 4372   3.181   1.458   3.091
 1457SOL    HW2 4373   3.068   1.371   3.013
 1458SOL     OW 4374   3.444   0.639   2.334
 1458SOL    HW1 4375   3.413   0.700   2.407
 1458SOL    HW2 4376   3.494   0.691   2.265
 1459SOL     OW 4377   2.216   1.510   3.191
 1459SOL    HW1 4378   2.195   1.466   3.104
 1459SOL    HW2 4379   2.313   1.536   3.194
 1460SOL     OW 4380   2.264   0.751   3.460
 1460SOL    HW1 4381   2.332   0.806   3.413
 1460SOL    HW2 4382   2.304   0.663   3.487
 1461SOL     OW 4383   3.449   0.779   3.532
 1461SOL    HW1 4384   3.357   0.817   3.527
 1461SOL    HW2 4385   3.509   0.826   3.467
 1462SOL     OW 4386   2.875   0.105   3.632
 1462SOL    HW1 4387   2.881   0.190   3.580
 1462SOL    HW2 4388   2.907   0.029   3.575
 1463SOL     OW 4389   2.366   0.050   3.602
 1463SOL    HW1 4390   2.324  -0.007   3.532
 1463SOL    HW2 4391   2.300   0.119   3.634
 1464SOL     OW 4392   2.435   0.870   2.891
 1464SOL    HW1 4393   2.479   0.959   2.882
 1464SOL    HW2 4394   2.372   0.870   2.968
 1465SOL     OW 4395   3.222   0.862   2.907
 1465SOL    HW1 4396   3.147   0.862   2.841
 1465SOL    HW2 4397   3.259   0.770   2.916
 1466SOL     OW 4398   3.071   0.525   2.137
 1466SOL    HW1 4399   3.084   0.441   2.191
 1466SOL    HW2 4400   3.042   0.599   2.197
 1467SOL     OW 4401   2.169   0.213   3.093
 1467SOL    HW1 4402   2.146   0.250   3.183
 1467SOL    HW2 4403   2.139   0.118   3.087
 1468SOL     OW 4404   1.899   1.310   3.144
 1468SOL    HW1 4405   1.952   1.261   3.212
 1468SOL    HW2 4406   1.921   1.408   3.149
 1469SOL     OW 4407   2.594   0.634   2.926
 1469SOL    HW1 4408   2.653   0.608   2.850
 1469SOL    HW2 4409   2.566   0.730   2.915
 1470SOL     OW 4410   3.590   0.935   3.716
 1470SOL    HW1 4411   3.544   0.928   3.627
 1470SOL    HW2 4412   3.528   0.979   3.782
 1471SOL     OW 4413   2.169   0.063   2.480
 1471SOL    HW1 4414   2.158   0.157   2.513
 1471SOL    HW2 4415   2.164   0.000   2.557
 1472SOL     OW 4416   3.484   0.367   2.236
 1472SOL    HW1 4417   3.486   0.291   2.300
 1472SOL    HW2 4418   3.436   0.444   2.276
 1473SOL     OW 4419   2.885   0.766   2.828
 1473SOL    HW1 4420   2.900   0.787   2.924
 1473SOL    HW2 4421   2.855   0.671   2.819
 1474SOL     OW 4422   2.842   1.573   3.562
 1474SOL    HW1 4423   2.822   1.617   3.474
 1474SOL    HW2 4424   2.881   1.482   3.546
 1475SOL     OW 4425   3.721   1.518   3.467
 1475SOL    HW1 4426   3.735   1.545   3.372
 1475SOL    HW2 4427   3.804   1.540   3.520
 1476SOL     OW 4428   2.212   0.898   3.666
 1476SOL    HW1 4429   2.288   0.942   3.714
 1476SOL    HW2 4430   2.247   0.851   3.584
 1477SOL     OW 4431   3.402   0.274   1.987
 1477SOL    HW1 4432   3.341   0.199   2.010
 1477SOL    HW2 4433   3.424   0.326   2.070
 1478SOL     OW 4434   3.165   0.838   1.904
 1478SOL    HW1 4435   3.199   0.745   1.919
 1478SOL    HW2 4436   3.183   0.865   1.809
 1479SOL     OW 4437   2.930   1.333   2.711
 1479SOL    HW1 4438   2.937   1.249   2.656
 1479SOL    HW2 4439   2.992   1.402   2.675
 1480SOL     OW 4440   2.181   0.810   2.811
 1480SOL    HW1 4441   2.274   0.846   2.816
 1480SOL    HW2 4442   2.175   0.725   2.863
 1481SOL     OW 4443   2.201   0.509   2.868
 1481SOL    HW1 4444   2.149   0.426   2.851
 1481SOL    HW2 4445   2.278   0.514   2.804
 1482SOL     OW 4446   3.000   0.380   3.540
 1482SOL    HW1 4447   2.955   0.443   3.604
 1482SOL    HW2 4448   3.093   0.411   3.523
 1483SOL     OW 4449   3.022   0.207   3.339
 1483SOL    HW1 4450   3.022   0.271   3.416
 1483SOL    HW2 4451   3.050   0.255   3.256
 1484SOL     OW 4452   1.870   1.326   2.062
 1484SOL    HW1 4453   1.777   1.347   2.031
 1484SOL    HW2 4454   1.880   1.227   2.075
 1485SOL     OW 4455   1.950   1.801   2.789
 1485SOL    HW1 4456   1.908   1.715   2.762
 1485SOL    HW2 4457   2.044   1.804   2.755
 1486SOL     OW 4458   2.366   1.568   2.772
 1486SOL    HW1 4459   2.432   1.642   2.781
 1486SOL    HW2 4460   2.410   1.489   2.730
 1487SOL     OW 4461   2.864   0.796   3.100
 1487SOL    HW1 4462   2.905   0.764   3.186
 1487SOL    HW2 4463   2.768   0.769   3.097
 1488SOL     OW 4464   1.902   0.544   2.976
 1488SOL    HW1 4465   1.987   0.511   2.935
 1488SOL    HW2 4466   1.915   0.559   3.074
 1489SOL     OW 4467   2.051   0.520   3.584
 1489SOL    HW1 4468   2.110   0.480   3.514
 1489SOL    HW2 4469   1.993   0.591   3.543
 1490SOL     OW 4470   3.231   0.950   3.522
 1490SOL    HW1 4471   3.270   1.039   3.542
 1490SOL    HW2 4472   3.241   0.930   3.425
 1491SOL     OW 4473   2.677   0.572   2.187
 1491SOL    HW1 4474   2.684   0.483   2.141
 1491SOL    HW2 4475   2.583   0.606   2.179
 1492SOL     OW 4476   3.519   0.604   3.068
 1492SOL    HW1 4477   3.481   0.535   3.130
 1492SOL    HW2 4478   3.601   0.568   3.024
 1493SOL     OW 4479   2.114   1.564   3.606
 1493SOL    HW1 4480   2.084   1.621   3.682
 1493SOL    HW2 4481   2.107   1.467   3.632
 1494SOL     OW 4482   2.533   0.464   3.131
 1494SOL    HW1 4483   2.499   0.375   3.101
 1494SOL    HW2 4484   2.559   0.518   3.051
 1495SOL     OW 4485   2.792   1.678   3.327
 1495SOL    HW1 4486   2.768   1.660   3.232
 1495SOL    HW2 4487   2.822   1.772   3.337
 1496SOL     OW 4488   2.335   0.500   2.053
 1496SOL    HW1 4489   2.396   0.580   2.057
 1496SOL    HW2 4490   2.240   0.531   2.060
 1497SOL     OW 4491   2.021   1.137   3.328
 1497SOL    HW1 4492   2.043   1.076   3.404
 1497SOL    HW2 4493   2.031   1.088   3.242
 1498SOL     OW 4494   3.209   1.059   3.096
 1498SOL    HW1 4495   3.233   0.996   3.022
 1498SOL    HW2 4496   3.119   1.099   3.078
 1499SOL     OW 4497   3.164   0.855   2.171
 1499SOL    HW1 4498   3.078   0.824   2.213
 1499SOL    HW2 4499   3.160   0.841   2.072
 1500SOL     OW 4500   3.621   1.747   3.016
 1500SOL    HW1 4501   3.682   1.777   2.943
 1500SOL    HW2 4502   3.583   1.658   2.994
 1501SOL     OW 4503   3.114   1.731   2.990
 1501SOL    HW1 4504   3.198   1.736   2.936
 1501SOL    HW2 4505   3.091   1.635   3.008
 1502SOL     OW 4506   1.945   1.258   2.884
 1502SOL    HW1 4507   1.940   1.257   2.984
 1502SOL    HW2 4508   1.862   1.217   2.846
 1503SOL     OW 4509   2.550   1.662   3.578
 1503SOL    HW1 4510   2.494   1.743   3.587
 1503SOL    HW2 4511   2.602   1.666   3.492
 1504SOL     OW 4512   3.588   0.135   2.385
 1504SOL    HW1 4513   3.661   0.118   2.318
 1504SOL    HW2 4514   3.557   0.048   2.423
 1505SOL     OW 4515   3.250   1.573   2.339
 1505SOL    HW1 4516   3.317   1.585   2.265
 1505SOL    HW2 4517   3.210   1.662   2.362
 1506SOL     OW 4518   1.992   1.794   3.713
 1506SOL    HW1 4519   1.951   1.720   3.766
 1506SOL    HW2 4520   2.056   1.845   3.771
 1507SOL     OW 4521   3.142   0.927   2.534
 1507SOL    HW1 4522   3.202   0.846   2.536
 1507SOL    HW2 4523   3.182   0.996   2.474
 1508SOL     OW 4524   2.692   1.273   3.284
 1508SOL    HW1 4525   2.687   1.306   3.379
 1508SOL    HW2 4526   2.606   1.292   3.238
 1509SOL     OW 4527   2.534   1.616   2.016
 1509SOL    HW1 4528   2.543   1.626   1.917
 1509SOL    HW2 4529   2.494   1.527   2.037
 1510SOL     OW 4530   3.512   1.720   3.256
 1510SOL    HW1 4531   3.565   1.730   3.172
 1510SOL    HW2 4532   3.485   1.810   3.290
 1511SOL     OW 4533   3.703   0.175   2.825
 1511SOL    HW1 4534   3.742   0.090   2.789
 1511SOL    HW2 4535   3.605   0.177   2.806
 1512SOL     OW 4536   2.125   0.326   2.582
 1512SOL    HW1 4537   2.046   0.377   2.548
 1512SOL    HW2 4538   2.116   0.311   2.680
 1513SOL     OW 4539   3.056   1.612   1.893
 1513SOL    HW1 4540   3.062   1.519   1.930
 1513SOL    HW2 4541   2.997   1.612   1.813
 1514SOL     OW 4542   2.684   1.002   3.234
 1514SOL    HW1 4543   2.724   1.001   3.142
 1514SOL    HW2 4544   2.694   1.094   3.274
 1515SOL     OW 4545   2.778   0.910   2.153
 1515SOL    HW1 4546   2.841   0.948   2.085
 1515SOL    HW2 4547   2.818   0.827   2.192
 1516SOL     OW 4548   3.366   1.607   1.906
 1516SOL    HW1 4549   3.274   1.644   1.913
 1516SOL    HW2 4550   3.404   1.627   1.816
 1517SOL     OW 4551   2.234   1.288   3.352
 1517SOL    HW1 4552   2.221   1.381   3.318
 1517SOL    HW2 4553   2.150   1.236   3.339
 1518SOL     OW 4554   3.476   1.292   3.151
 1518SOL    HW1 4555   3.536   1.295   3.231
 1518SOL    HW2 4556   3.401   1.356   3.164
 1519SOL     OW 4557   2.901   1.098   2.558
 1519SOL    HW1 4558   2.831   1.051   2.612
 1519SOL    HW2 4559   2.960   1.030   2.515
 1520SOL     OW 4560   2.876   0.236   2.833
 1520SOL    HW1 4561   2.868   0.200   2.740
 1520SOL    HW2 4562   2.874   0.160   2.898
 1521SOL     OW 4563   2.452   1.487   2.353
 1521SOL    HW1 4564   2.494   1.429   2.283
 1521SOL    HW2 4565   2.408   1.566   2.309
 1522SOL     OW 4566   3.571   0.385   3.243
 1522SOL    HW1 4567   3.644   0.454   3.247
 1522SOL    HW2 4568   3.599   0.310   3.184
 1523SOL     OW 4569   2.117   1.348   2.152
 1523SOL    HW1 4570   2.021   1.349   2.125
 1523SOL    HW2 4571   2.129   1.401   2.236
 1524SOL     OW 4572   1.967   1.013   3.588
 1524SOL    HW1 4573   1.890   0.980   3.642
 1524SOL    HW2 4574   2.052   0.983   3.630
 1525SOL     OW 4575   2.534   0.203   3.351
 1525SOL    HW1 4576   2.624   0.187   3.311
 1525SOL    HW2 4577   2.542   0.208   3.450
 1526SOL     OW 4578   1.937   0.345   1.895
 1526SOL    HW1 4579   1.845   0.317   1.866
 1526SOL    HW2 4580   1.968   0.422   1.839
 1527SOL     OW 4581   3.302   0.856   3.260
 1527SOL    HW1 4582   3.245   0.908   3.197
 1527SOL    HW2 4583   3.398   0.868   3.236
 1528SOL     OW 4584   1.934   0.166   2.180
 1528SOL    HW1 4585   1.917   0.249   2.126
 1528SOL    HW2 4586   2.024   0.129   2.158
 1529SOL     OW 4587   3.045   1.335   1.981
 1529SOL    HW1 4588   2.946   1.324   1.983
 1529SOL    HW2 4589   3.079   1.350   2.074
 1530SOL     OW 4590   2.475   0.842   3.293
 1530SOL    HW1 4591   2.531   0.923   3.276
 1530SOL    HW2 4592   2.534   0.762   3.296
 1531SOL     OW 4593   3.355   1.767   2.821
 1531SOL    HW1 4594   3.388   1.831   2.752
 1531SOL    HW2 4595   3.421   1.761   2.896
 1532SOL     OW 4596   2.578   0.565   3.570
 1532SOL    HW1 4597   2.597   0.630   3.644
 1532SOL    HW2 4598   2.638   0.485   3.579
 1533SOL     OW 4599   3.312   1.220   3.495
 1533SOL    HW1 4600   3.303   1.210   3.594
 1533SOL    HW2 4601   3.408   1.213   3.469
 1534SOL     OW 4602   2.252   1.741   3.422
 1534SOL    HW1 4603   2.161   1.782   3.420
 1534SOL    HW2 4604   2.245   1.647   3.454
 1535SOL     OW 4605   3.536   0.883   3.116
 1535SOL    HW1 4606   3.509   0.794   3.079
 1535SOL    HW2 4607   3.537   0.951   3.043
 1536SOL     OW 4608   3.087   0.325   2.311
 1536SOL    HW1 4609   3.152   0.251   2.300
 1536SOL    HW2 4610   3.107   0.375   2.395
 1537SOL     OW 4611   2.456   0.745   2.514
 1537SOL    HW1 4612   2.506   0.830   2.495
 1537SOL    HW2 4613   2.368   0.747   2.466
 1538SOL     OW 4614   3.639   0.342   3.504
 1538SOL    HW1 4615   3.622   0.373   3.410
 1538SOL    HW2 4616   3.555   0.305   3.542
 1539SOL     OW 4617   3.592   0.934   3.379
 1539SOL    HW1 4618   3.630   1.025   3.394
 1539SOL    HW2 4619   3.584   0.917   3.280
 1540SOL     OW 4620   2.721   1.374   1.878
 1540SOL    HW1 4621   2.675   1.389   1.966
 1540SOL    HW2 4622   2.765   1.459   1.848
 1541SOL     OW 4623   2.523   1.790   2.815
 1541SOL    HW1 4624   2.477   1.878   2.802
 1541SOL    HW2 4625   2.622   1.802   2.808
 1542SOL     OW 4626   2.721   0.956   2.723
 1542SOL    HW1 4627   2.775   0.887   2.771
 1542SOL    HW2 4628   2.689   1.025   2.789
 1543SOL     OW 4629   2.945   0.984   1.949
 1543SOL    HW1 4630   2.922   1.037   1.867
 1543SOL    HW2 4631   3.026   0.928   1.930
 1544SOL     OW 4632   3.723   1.569   2.713
 1544SOL    HW1 4633   3.652   1.557   2.643
 1544SOL    HW2 4634   3.724   1.490   2.773
 1545SOL     OW 4635   2.083   1.314   3.706
 1545SOL    HW1 4636   2.018   1.241   3.685
 1545SOL    HW2 4637   2.087   1.328   3.804
 1546SOL     OW 4638   1.941   1.240   2.515
 1546SOL    HW1 4639   1.940   1.193   2.603
 1546SOL    HW2 4640   2.023   1.212   2.464
 1547SOL     OW 4641   2.534   1.391   3.486
 1547SOL    HW1 4642   2.456   1.341   3.524
 1547SOL    HW2 4643   2.531   1.486   3.517
 1548SOL     OW 4644   3.686   0.192   3.089
 1548SOL    HW1 4645   3.682   0.102   3.133
 1548SOL    HW2 4646   3.689   0.181   2.990
 1549SOL     OW 4647   2.290   0.424   2.382
 1549SOL    HW1 4648   2.320   0.352   2.320
 1549SOL    HW2 4649   2.251   0.384   2.465
 1550SOL     OW 4650   3.567   1.487   2.966
 1550SOL    HW1 4651   3.474   1.462   2.939
 1550SOL    HW2 4652   3.593   1.437   3.048
 1551SOL     OW 4653   2.179   0.547   3.142
 1551SOL    HW1 4654   2.217   0.488   3.214
 1551SOL    HW2 4655   2.219   0.521   3.054
 1552SOL     OW 4656   2.674   1.586   2.549
 1552SOL    HW1 4657   2.706   1.596   2.455
 1552SOL    HW2 4658   2.595   1.524   2.551
 1553SOL     OW 4659   3.286   0.214   2.974
 1553SOL    HW1 4660   3.338   0.149   3.029
 1553SOL    HW2 4661   3.237   0.277   3.035
 1554SOL     OW 4662   2.863   0.034   3.016
 1554SOL    HW1 4663   2.800  -0.038   2.985
 1554SOL    HW2 4664   2.956  -0.002   3.016
 1555SOL     OW 4665   2.632   1.330   2.163
 1555SOL    HW1 4666   2.586   1.243   2.180
 1555SOL    HW2 4667   2.723   1.327   2.204
 1556SOL     OW 4668   2.480   1.567   3.146
 1556SOL    HW1 4669   2.475   1.649   3.203
 1556SOL    HW2 4670   2.569   1.564   3.101
 1557SOL     OW 4671   3.214   0.052   2.030
 1557SOL    HW1 4672   3.249   0.011   1.946
 1557SOL    HW2 4673   3.124   0.014   2.050
 1558SOL     OW 4674   3.162   0.453   2.553
 1558SOL    HW1 4675   3.103   0.533   2.557
 1558SOL    HW2 4676   3.177   0.418   2.646
 1559SOL     OW 4677   3.455   0.221   2.744
 1559SOL    HW1 4678   3.371   0.220   2.798
 1559SOL    HW2 4679   3.457   0.304   2.688
 1560SOL     OW 4680   1.901   1.077   2.162
 1560SOL    HW1 4681   2.000   1.066   2.153
 1560SOL    HW2 4682   1.861   0.991   2.194
 1561SOL     OW 4683   2.737   1.646   2.199
 1561SOL    HW1 4684   2.660   1.611   2.145
 1561SOL    HW2 4685   2.705   1.717   2.261
 1562SOL     OW 4686   2.092   0.628   3.837
 1562SOL    HW1 4687   1.999   0.626   3.874
 1562SOL    HW2 4688   2.093   0.589   3.745
 1563SOL     OW 4689   2.997   0.703   4.441
 1563SOL    HW1 4690   3.054   0.781   4.416
 1563SOL    HW2 4691   2.937   0.729   4.517
 1564SOL     OW 4692   3.617   0.607   3.955
 1564SOL    HW1 4693   3.605   0.594   3.856
 1564SOL    HW2 4694   3.587   0.526   4.004
 1565SOL     OW 4695   2.093   1.713   4.207
 1565SOL    HW1 4696   2.127   1.790   4.261
 1565SOL    HW2 4697   2.137   1.713   4.117
 1566SOL     OW 4698   2.092   1.434   4.262
 1566SOL    HW1 4699   2.066   1.530   4.262
 1566SOL    HW2 4700   2.021   1.380   4.307
 1567SOL     OW 4701   2.468   0.964   3.847
 1567SOL    HW1 4702   2.475   1.048   3.793
 1567SOL    HW2 4703   2.514   0.977   3.935
 1568SOL     OW 4704   3.704   1.767   4.083
 1568SOL    HW1 4705   3.758   1.738   4.163
 1568SOL    HW2 4706   3.734   1.857   4.054
 1569SOL     OW 4707   1.889   1.596   3.841
 1569SOL    HW1 4708   1.870   1.500   3.862
 1569SOL    HW2 4709   1.856   1.654   3.916
 1570SOL     OW 4710   3.551   0.922   4.336
 1570SOL    HW1 4711   3.646   0.893   4.344
 1570SOL    HW2 4712   3.543   0.987   4.261
 1571SOL     OW 4713   3.503   1.108   4.156
 1571SOL    HW1 4714   3.589   1.110   4.104
 1571SOL    HW2 4715   3.517   1.155   4.244
 1572SOL     OW 4716   2.671   0.004   4.226
 1572SOL    HW1 4717   2.711   0.095   4.217
 1572SOL    HW2 4718   2.571   0.012   4.232
 1573SOL     OW 4719   3.387   0.999   3.914
 1573SOL    HW1 4720   3.324   0.923   3.927
 1573SOL    HW2 4721   3.435   1.017   4.000
 1574SOL     OW 4722   2.460   0.729   3.994
 1574SOL    HW1 4723   2.484   0.798   3.926
 1574SOL    HW2 4724   2.382   0.762   4.048
 1575SOL     OW 4725   3.438   1.662   4.031
 1575SOL    HW1 4726   3.527   1.708   4.034
 1575SOL    HW2 4727   3.417   1.638   3.936
 1576SOL     OW 4728   2.727   0.348   3.919
 1576SOL    HW1 4729   2.786   0.411   3.870
 1576SOL    HW2 4730   2.746   0.254   3.890
 1577SOL     OW 4731   2.183   0.943   3.966
 1577SOL    HW1 4732   2.265   0.982   3.924
 1577SOL    HW2 4733   2.156   0.861   3.917
 1578SOL     OW 4734   3.320   0.735   4.452
 1578SOL    HW1 4735   3.315   0.670   4.527
 1578SOL    HW2 4736   3.400   0.794   4.465
 1579SOL     OW 4737   2.973   1.776   3.961
 1579SOL    HW1 4738   2.913   1.714   4.011
 1579SOL    HW2 4739   3.004   1.732   3.876
 1580SOL     OW 4740   3.494   1.377   3.805
 1580SOL    HW1 4741   3.462   1.471   3.795
 1580SOL    HW2 4742   3.418   1.314   3.793
 1581SOL     OW 4743   2.326   1.743   4.047
 1581SOL    HW1 4744   2.359   1.782   4.133
 1581SOL    HW2 4745   2.402   1.736   3.982
 1582SOL     OW 4746   3.262   0.107   4.150
 1582SOL    HW1 4747   3.238   0.070   4.060
 1582SOL    HW2 4748   3.361   0.123   4.154
 1583SOL     OW 4749   2.476   0.122   3.841
 1583SOL    HW1 4750   2.574   0.100   3.848
 1583SOL    HW2 4751   2.445   0.105   3.748
 1584SOL     OW 4752   3.296   1.188   3.765
 1584SOL    HW1 4753   3.328   1.112   3.822
 1584SOL    HW2 4754   3.204   1.215   3.795
 1585SOL     OW 4755   2.159   0.035   3.895
 1585SOL    HW1 4756   2.208   0.119   3.874
 1585SOL    HW2 4757   2.221  -0.030   3.940
 1586SOL     OW 4758   2.797   0.236   4.204
 1586SOL    HW1 4759   2.749   0.277   4.126
 1586SOL    HW2 4760   2.896   0.234   4.185
 1587SOL     OW 4761   3.089   1.570   4.517
 1587SOL    HW1 4762   3.110   1.644   4.452
 1587SOL    HW2 4763   3.157   1.570   4.590
 1588SOL     OW 4764   2.321   1.152   4.465
 1588SOL    HW1 4765   2.250   1.125   4.530
 1588SOL    HW2 4766   2.295   1.124   4.372
 1589SOL     OW 4767   3.133   1.797   4.315
 1589SOL    HW1 4768   3.177   1.861   4.251
 1589SOL    HW2 4769   3.083   1.849   4.385
 1590SOL     OW 4770   2.894   0.549   3.740
 1590SOL    HW1 4771   2.853   0.631   3.701
 1590SOL    HW2 4772   2.958   0.575   3.813
 1591SOL     OW 4773   3.291   1.173   4.591
 1591SOL    HW1 4774   3.236   1.089   4.584
 1591SOL    HW2 4775   3.317   1.202   4.499
 1592SOL     OW 4776   3.719   0.833   4.101
 1592SOL    HW1 4777   3.761   0.769   4.165
 1592SOL    HW2 4778   3.681   0.782   4.023
 1593SOL     OW 4779   2.350   1.385   3.898
 1593SOL    HW1 4780   2.263   1.370   3.945
 1593SOL    HW2 4781   2.333   1.411   3.803
 1594SOL     OW 4782   3.252   0.575   3.802
 1594SOL    HW1 4783   3.198   0.554   3.883
 1594SOL    HW2 4784   3.343   0.534   3.811
 1595SOL     OW 4785   2.389   0.256   4.052
 1595SOL    HW1 4786   2.416   0.197   3.977
 1595SOL    HW2 4787   2.389   0.351   4.021
 1596SOL     OW 4788   2.567   1.050   4.092
 1596SOL    HW1 4789   2.553   1.057   4.191
 1596SOL    HW2 4790   2.651   0.999   4.074
 1597SOL     OW 4791   2.229   1.100   4.225
 1597SOL    HW1 4792   2.222   1.183   4.169
 1597SOL    HW2 4793   2.233   1.020   4.165
 1598SOL     OW 4794   3.114   1.348   4.112
 1598SOL    HW1 4795   3.164   1.425   4.152
 1598SOL    HW2 4796   3.019   1.350   4.144
 1599SOL     OW 4797   3.444   0.639   4.196
 1599SOL    HW1 4798   3.413   0.700   4.269
 1599SOL    HW2 4799   3.494   0.691   4.127
 1600SOL     OW 4800   3.071   0.525   3.999
 1600SOL    HW1 4801   3.084   0.441   4.053
 1600SOL    HW2 4802   3.042   0.599   4.059
 1601SOL     OW 4803   3.484   0.367   4.098
 1601SOL    HW1 4804   3.486   0.291   4.162
 1601SOL    HW2 4805   3.436   0.444   4.138
 1602SOL     OW 4806   3.402   0.274   3.849
 1602SOL    HW1 4807   3.341   0.199   3.872
 1602SOL    HW2 4808   3.424   0.326   3.932
 1603SOL     OW 4809   3.165   0.838   3.766
 1603SOL    HW1 4810   3.199   0.745   3.781
 1603SOL    HW2 4811   3.183   0.865   3.671
 1604SOL     OW 4812   1.870   1.326   3.924
 1604SOL    HW1 4813   1.777   1.347   3.893
 1604SOL    HW2 4814   1.880   1.227   3.937
 1605SOL     OW 4815   2.677   0.572   4.049
 1605SOL    HW1 4816   2.684   0.483   4.003
 1605SOL    HW2 4817   2.583   0.606   4.041
 1606SOL     OW 4818   2.335   0.500   3.915
 1606SOL    HW1 4819   2.396   0.580   3.919
 1606SOL    HW2 4820   2.240   0.531   3.922
 1607SOL     OW 4821   3.164   0.855   4.033
 1607SOL    HW1 4822   3.078   0.824   4.075
 1607SOL    HW2 4823   3.160   0.841   3.934
 1608SOL     OW 4824   3.588   0.135   4.247
 1608SOL    HW1 4825   3.661   0.118   4.180
 1608SOL    HW2 4826   3.557   0.048   4.285
 1609SOL     OW 4827   2.534   1.616   3.878
 1609SOL    HW1 4828   2.543   1.626   3.779
 1609SOL    HW2 4829   2.494   1.527   3.899
 1610SOL     OW 4830   2.125   0.326   4.444
 1610SOL    HW1 4831   2.046   0.377   4.410
 1610SOL    HW2 4832   2.116   0.311   4.542
 1611SOL     OW 4833   3.056   1.612   3.755
 1611SOL    HW1 4834   3.062   1.519   3.792
 1611SOL    HW2 4835   2.997   1.612   3.675
 1612SOL     OW 4836   2.778   0.910   4.015
 1612SOL    HW1 4837   2.841   0.948   3.947
 1612SOL    HW2 4838   2.818   0.827   4.054
 1613SOL     OW 4839   3.366   1.607   3.768
 1613SOL    HW1 4840   3.274   1.644   3.775
 1613SOL    HW2 4841   3.404   1.627   3.678
 1614SOL     OW 4842   2.452   1.487   4.215
 1614SOL    HW1 4843   2.494   1.429   4.145
 1614SOL    HW2 4844   2.408   1.566   4.171
 1615SOL     OW 4845   2.117   1.348   4.014
 1615SOL    HW1 4846   2.021   1.349   3.987
 1615SOL    HW2 4847   2.129   1.401   4.098
 1616SOL     OW 4848   1.937   0.345   3.757
 1616SOL    HW1 4849   1.845   0.317   3.728
 1616SOL    HW2 4850   1.968   0.422   3.701
 1617SOL     OW 4851   1.934   0.166   4.042
 1617SOL    HW1 4852   1.917   0.249   3.988
 1617SOL    HW2 4853   2.024   0.129   4.020
 1618SOL     OW 4854   3.045   1.335   3.843
 1618SOL    HW1 4855   2.946   1.324   3.845
 1618SOL    HW2 4856   3.079   1.350   3.936
 1619SOL     OW 4857   3.087   0.325   4.173
 1619SOL    HW1 4858   3.152   0.251   4.162
 1619SOL    HW2 4859   3.107   0.375   4.257
 1620SOL     OW 4860   2.721   1.374   3.740
 1620SOL    HW1 4861   2.675   1.389   3.828
 1620SOL    HW2 4862   2.765   1.459   3.710
 1621SOL     OW 4863   2.945   0.984   3.811
 1621SOL    HW1 4864   2.922   1.037   3.729
 1621SOL    HW2 4865   3.026   0.928   3.792
 1622SOL     OW 4866   2.290   0.424   4.244
 1622SOL    HW1 4867   2.320   0.352   4.182
 1622SOL    HW2 4868   2.251   0.384   4.327
 1623SOL     OW 4869   2.632   1.330   4.025
 1623SOL    HW1 4870   2.586   1.243   4.042
 1623SOL    HW2 4871   2.723   1.327   4.066
 1624SOL     OW 4872   3.214   0.052   3.892
 1624SOL    HW1 4873   3.249   0.011   3.808
 1624SOL    HW2 4874   3.124   0.014   3.912
 1625SOL     OW 4875   1.901   1.077   4.024
 1625SOL    HW1 4876   2.000   1.066   4.015
 1625SOL    HW2 4877   1.861   0.991   4.056
 1626SOL     OW 4878   2.737   1.646   4.061
 1626SOL    HW1 4879   2.660   1.611   4.007
 1626SOL    HW2 4880   2.705   1.717   4.123
 1627SOL     OW 4881   2.092   2.490   0.113
 1627SOL    HW1 4882   1.999   2.488   0.150
 1627SOL    HW2 4883   2.093   2.451   0.021
 1628SOL     OW 4884   2.087   2.137   0.996
 1628SOL    HW1 4885   2.122   2.120   1.088
 1628SOL    HW2 4886   1.999   2.092   0.984
 1629SOL     OW 4887   1.881   2.230   0.647
 1629SOL    HW1 4888   1.799   2.273   0.686
 1629SOL    HW2 4889   1.853   2.157   0.584
 1630SOL     OW 4890   2.431   3.137   1.165
 1630SOL    HW1 4891   2.338   3.130   1.128
 1630SOL    HW2 4892   2.442   3.226   1.209
 1631SOL     OW 4893   3.417   3.373   0.703
 1631SOL    HW1 4894   3.360   3.357   0.784
 1631SOL    HW2 4895   3.358   3.383   0.623
 1632SOL     OW 4896   2.997   2.565   0.717
 1632SOL    HW1 4897   3.054   2.643   0.692
 1632SOL    HW2 4898   2.937   2.591   0.793
 1633SOL     OW 4899   3.617   2.469   0.231
 1633SOL    HW1 4900   3.605   2.456   0.132
 1633SOL    HW2 4901   3.587   2.388   0.280
 1634SOL     OW 4902   2.630   3.006   1.023
 1634SOL    HW1 4903   2.552   3.023   1.083
 1634SOL    HW2 4904   2.664   3.093   0.987
 1635SOL     OW 4905   2.712   2.660   1.823
 1635SOL    HW1 4906   2.708   2.736   1.888
 1635SOL    HW2 4907   2.734   2.696   1.732
 1636SOL     OW 4908   2.547   2.874   0.665
 1636SOL    HW1 4909   2.616   2.858   0.735
 1636SOL    HW2 4910   2.474   2.931   0.703
 1637SOL     OW 4911   2.548   3.023   1.803
 1637SOL    HW1 4912   2.608   3.102   1.817
 1637SOL    HW2 4913   2.462   3.054   1.762
 1638SOL     OW 4914   2.197   3.297   1.061
 1638SOL    HW1 4915   2.119   3.266   1.008
 1638SOL    HW2 4916   2.255   3.355   1.004
 1639SOL     OW 4917   3.322   3.367   1.339
 1639SOL    HW1 4918   3.346   3.461   1.365
 1639SOL    HW2 4919   3.306   3.313   1.421
 1640SOL     OW 4920   2.300   2.254   1.499
 1640SOL    HW1 4921   2.382   2.198   1.508
 1640SOL    HW2 4922   2.219   2.196   1.503
 1641SOL     OW 4923   3.465   2.309   0.737
 1641SOL    HW1 4924   3.391   2.355   0.687
 1641SOL    HW2 4925   3.516   2.377   0.790
 1642SOL     OW 4926   2.093   3.575   0.483
 1642SOL    HW1 4927   2.127   3.652   0.537
 1642SOL    HW2 4928   2.137   3.575   0.393
 1643SOL     OW 4929   2.989   3.203   1.690
 1643SOL    HW1 4930   3.036   3.203   1.778
 1643SOL    HW2 4931   2.941   3.116   1.679
 1644SOL     OW 4932   2.092   3.296   0.538
 1644SOL    HW1 4933   2.066   3.392   0.538
 1644SOL    HW2 4934   2.021   3.242   0.583
 1645SOL     OW 4935   2.102   2.953   0.886
 1645SOL    HW1 4936   2.116   2.869   0.938
 1645SOL    HW2 4937   2.047   3.017   0.941
 1646SOL     OW 4938   2.482   3.648   1.439
 1646SOL    HW1 4939   2.390   3.631   1.474
 1646SOL    HW2 4940   2.510   3.740   1.465
 1647SOL     OW 4941   2.468   2.826   0.123
 1647SOL    HW1 4942   2.475   2.910   0.069
 1647SOL    HW2 4943   2.514   2.839   0.211
 1648SOL     OW 4944   3.456   1.976   1.480
 1648SOL    HW1 4945   3.438   2.043   1.408
 1648SOL    HW2 4946   3.453   2.022   1.569
 1649SOL     OW 4947   1.984   2.505   0.563
 1649SOL    HW1 4948   1.939   2.417   0.580
 1649SOL    HW2 4949   1.983   2.559   0.647
 1650SOL     OW 4950   3.704   3.629   0.359
 1650SOL    HW1 4951   3.758   3.600   0.439
 1650SOL    HW2 4952   3.734   3.719   0.330
 1651SOL     OW 4953   1.889   3.458   0.117
 1651SOL    HW1 4954   1.870   3.362   0.138
 1651SOL    HW2 4955   1.856   3.516   0.192
 1652SOL     OW 4956   3.551   2.784   0.612
 1652SOL    HW1 4957   3.646   2.755   0.620
 1652SOL    HW2 4958   3.543   2.849   0.537
 1653SOL     OW 4959   3.503   2.970   0.432
 1653SOL    HW1 4960   3.589   2.972   0.380
 1653SOL    HW2 4961   3.517   3.017   0.520
 1654SOL     OW 4962   1.975   2.599   1.597
 1654SOL    HW1 4963   2.063   2.586   1.642
 1654SOL    HW2 4964   1.962   2.696   1.575
 1655SOL     OW 4965   2.475   3.227   0.726
 1655SOL    HW1 4966   2.426   3.140   0.735
 1655SOL    HW2 4967   2.452   3.270   0.639
 1656SOL     OW 4968   3.155   3.090   1.423
 1656SOL    HW1 4969   3.192   3.017   1.365
 1656SOL    HW2 4970   3.207   3.095   1.508
 1657SOL     OW 4971   2.671   1.866   0.502
 1657SOL    HW1 4972   2.711   1.957   0.493
 1657SOL    HW2 4973   2.571   1.874   0.508
 1658SOL     OW 4974   2.059   2.838   1.264
 1658SOL    HW1 4975   2.148   2.793   1.250
 1658SOL    HW2 4976   1.986   2.773   1.245
 1659SOL     OW 4977   3.387   2.861   0.190
 1659SOL    HW1 4978   3.324   2.785   0.203
 1659SOL    HW2 4979   3.435   2.879   0.276
 1660SOL     OW 4980   3.049   3.654   1.616
 1660SOL    HW1 4981   3.073   3.714   1.540
 1660SOL    HW2 4982   3.056   3.559   1.586
 1661SOL     OW 4983   2.179   2.113   1.801
 1661SOL    HW1 4984   2.250   2.184   1.807
 1661SOL    HW2 4985   2.091   2.152   1.829
 1662SOL     OW 4986   3.328   3.279   0.953
 1662SOL    HW1 4987   3.269   3.285   1.033
 1662SOL    HW2 4988   3.313   3.191   0.907
 1663SOL     OW 4989   3.529   3.576   0.572
 1663SOL    HW1 4990   3.488   3.553   0.484
 1663SOL    HW2 4991   3.511   3.502   0.637
 1664SOL     OW 4992   2.460   2.591   0.270
 1664SOL    HW1 4993   2.484   2.660   0.202
 1664SOL    HW2 4994   2.382   2.624   0.324
 1665SOL     OW 4995   3.143   2.207   0.944
 1665SOL    HW1 4996   3.057   2.157   0.931
 1665SOL    HW2 4997   3.205   2.153   1.000
 1666SOL     OW 4998   3.438   3.524   0.307
 1666SOL    HW1 4999   3.527   3.570   0.310
 1666SOL    HW2 5000   3.417   3.500   0.212
 1667SOL     OW 5001   2.669   2.467   1.465
 1667SOL    HW1 5002   2.622   2.464   1.554
 1667SOL    HW2 5003   2.618   2.412   1.399
 1668SOL     OW 5004   3.256   2.331   1.674
 1668SOL    HW1 5005   3.236   2.374   1.762
 1668SOL    HW2 5006   3.334   2.269   1.683
 1669SOL     OW 5007   2.835   2.752   1.572
 1669SOL    HW1 5008   2.881   2.668   1.543
 1669SOL    HW2 5009   2.779   2.786   1.497
 1670SOL     OW 5010   2.853   2.272   1.242
 1670SOL    HW1 5011   2.776   2.306   1.296
 1670SOL    HW2 5012   2.819   2.221   1.163
 1671SOL     OW 5013   2.903   2.563   0.429
 1671SOL    HW1 5014   2.929   2.559   0.525
 1671SOL    HW2 5015   2.818   2.512   0.415
 1672SOL     OW 5016   1.938   2.673   0.789
 1672SOL    HW1 5017   2.037   2.661   0.798
 1672SOL    HW2 5018   1.914   2.768   0.810
 1673SOL     OW 5019   1.992   3.683   1.571
 1673SOL    HW1 5020   1.982   3.668   1.670
 1673SOL    HW2 5021   1.906   3.719   1.535
 1674SOL     OW 5022   2.727   2.210   0.195
 1674SOL    HW1 5023   2.786   2.273   0.146
 1674SOL    HW2 5024   2.746   2.116   0.166
 1675SOL     OW 5025   3.581   2.447   1.831
 1675SOL    HW1 5026   3.555   2.536   1.795
 1675SOL    HW2 5027   3.579   2.379   1.758
 1676SOL     OW 5028   3.224   3.006   0.545
 1676SOL    HW1 5029   3.307   2.977   0.497
 1676SOL    HW2 5030   3.175   3.073   0.489
 1677SOL     OW 5031   2.412   2.058   0.885
 1677SOL    HW1 5032   2.407   2.053   0.985
 1677SOL    HW2 5033   2.414   2.154   0.856
 1678SOL     OW 5034   2.870   3.318   0.477
 1678SOL    HW1 5035   2.824   3.390   0.425
 1678SOL    HW2 5036   2.866   3.338   0.575
 1679SOL     OW 5037   2.213   3.663   0.853
 1679SOL    HW1 5038   2.263   3.577   0.859
 1679SOL    HW2 5039   2.278   3.740   0.850
 1680SOL     OW 5040   3.657   2.928   0.873
 1680SOL    HW1 5041   3.595   2.913   0.797
 1680SOL    HW2 5042   3.605   2.939   0.958
 1681SOL     OW 5043   3.089   3.412   1.506
 1681SOL    HW1 5044   3.095   3.335   1.570
 1681SOL    HW2 5045   3.037   3.386   1.426
 1682SOL     OW 5046   2.183   2.805   0.242
 1682SOL    HW1 5047   2.265   2.844   0.200
 1682SOL    HW2 5048   2.156   2.723   0.193
 1683SOL     OW 5049   3.320   2.597   0.728
 1683SOL    HW1 5050   3.315   2.532   0.803
 1683SOL    HW2 5051   3.400   2.656   0.741
 1684SOL     OW 5052   2.323   3.128   1.727
 1684SOL    HW1 5053   2.273   3.129   1.641
 1684SOL    HW2 5054   2.260   3.110   1.803
 1685SOL     OW 5055   2.973   3.638   0.237
 1685SOL    HW1 5056   2.913   3.576   0.287
 1685SOL    HW2 5057   3.004   3.594   0.152
 1686SOL     OW 5058   2.064   2.147   1.498
 1686SOL    HW1 5059   1.984   2.207   1.485
 1686SOL    HW2 5060   2.054   2.098   1.584
 1687SOL     OW 5061   3.494   3.239   0.081
 1687SOL    HW1 5062   3.462   3.333   0.071
 1687SOL    HW2 5063   3.418   3.176   0.069
 1688SOL     OW 5064   2.326   3.605   0.323
 1688SOL    HW1 5065   2.359   3.644   0.409
 1688SOL    HW2 5066   2.402   3.598   0.258
 1689SOL     OW 5067   3.262   1.969   0.426
 1689SOL    HW1 5068   3.238   1.932   0.336
 1689SOL    HW2 5069   3.361   1.985   0.430
 1690SOL     OW 5070   2.111   3.647   1.241
 1690SOL    HW1 5071   2.168   3.582   1.291
 1690SOL    HW2 5072   2.095   3.614   1.148
 1691SOL     OW 5073   2.802   3.560   0.904
 1691SOL    HW1 5074   2.882   3.503   0.925
 1691SOL    HW2 5075   2.753   3.520   0.827
 1692SOL     OW 5076   2.244   2.562   0.480
 1692SOL    HW1 5077   2.289   2.472   0.477
 1692SOL    HW2 5078   2.150   2.551   0.513
 1693SOL     OW 5079   3.409   2.084   1.729
 1693SOL    HW1 5080   3.404   2.121   1.821
 1693SOL    HW2 5081   3.337   2.015   1.717
 1694SOL     OW 5082   2.476   1.984   0.117
 1694SOL    HW1 5083   2.574   1.962   0.124
 1694SOL    HW2 5084   2.445   1.967   0.024
 1695SOL     OW 5085   2.643   2.126   1.749
 1695SOL    HW1 5086   2.710   2.065   1.792
 1695SOL    HW2 5087   2.570   2.145   1.814
 1696SOL     OW 5088   2.750   3.376   1.195
 1696SOL    HW1 5089   2.727   3.351   1.101
 1696SOL    HW2 5090   2.811   3.307   1.234
 1697SOL     OW 5091   3.213   2.452   1.433
 1697SOL    HW1 5092   3.241   2.409   1.518
 1697SOL    HW2 5093   3.238   2.548   1.434
 1698SOL     OW 5094   2.665   3.264   0.924
 1698SOL    HW1 5095   2.755   3.278   0.882
 1698SOL    HW2 5096   2.594   3.266   0.853
 1699SOL     OW 5097   2.784   2.365   0.899
 1699SOL    HW1 5098   2.759   2.356   0.803
 1699SOL    HW2 5099   2.832   2.283   0.930
 1700SOL     OW 5100   2.401   1.926   0.512
 1700SOL    HW1 5101   2.320   1.927   0.570
 1700SOL    HW2 5102   2.404   2.009   0.457
 1701SOL     OW 5103   3.296   3.050   0.041
 1701SOL    HW1 5104   3.328   2.974   0.098
 1701SOL    HW2 5105   3.204   3.077   0.071
 1702SOL     OW 5106   2.159   1.897   0.171
 1702SOL    HW1 5107   2.208   1.981   0.150
 1702SOL    HW2 5108   2.221   1.832   0.216
 1703SOL     OW 5109   2.797   2.098   0.480
 1703SOL    HW1 5110   2.749   2.139   0.402
 1703SOL    HW2 5111   2.896   2.096   0.461
 1704SOL     OW 5112   2.938   2.545   1.464
 1704SOL    HW1 5113   2.858   2.484   1.467
 1704SOL    HW2 5114   3.019   2.492   1.440
 1705SOL     OW 5115   3.089   3.432   0.793
 1705SOL    HW1 5116   3.110   3.506   0.728
 1705SOL    HW2 5117   3.157   3.432   0.866
 1706SOL     OW 5118   2.321   3.014   0.741
 1706SOL    HW1 5119   2.250   2.987   0.806
 1706SOL    HW2 5120   2.295   2.986   0.648
 1707SOL     OW 5121   3.133   3.659   0.591
 1707SOL    HW1 5122   3.177   3.723   0.527
 1707SOL    HW2 5123   3.083   3.711   0.661
 1708SOL     OW 5124   2.894   2.411   0.016
 1708SOL    HW1 5125   2.853   2.493  -0.023
 1708SOL    HW2 5126   2.958   2.437   0.089
 1709SOL     OW 5127   1.940   2.418   1.386
 1709SOL    HW1 5128   2.032   2.417   1.345
 1709SOL    HW2 5129   1.934   2.492   1.453
 1710SOL     OW 5130   2.423   2.084   1.147
 1710SOL    HW1 5131   2.461   2.000   1.184
 1710SOL    HW2 5132   2.335   2.103   1.191
 1711SOL     OW 5133   2.728   2.316   0.642
 1711SOL    HW1 5134   2.696   2.388   0.580
 1711SOL    HW2 5135   2.752   2.235   0.589
 1712SOL     OW 5136   2.879   1.901   0.753
 1712SOL    HW1 5137   2.807   1.906   0.684
 1712SOL    HW2 5138   2.855   1.832   0.822
 1713SOL     OW 5139   3.291   3.035   0.867
 1713SOL    HW1 5140   3.236   2.951   0.860
 1713SOL    HW2 5141   3.317   3.064   0.775
 1714SOL     OW 5142   3.328   2.452   0.992
 1714SOL    HW1 5143   3.298   2.357   0.999
 1714SOL    HW2 5144   3.401   2.468   1.058
 1715SOL     OW 5145   3.719   2.695   0.377
 1715SOL    HW1 5146   3.761   2.631   0.441
 1715SOL    HW2 5147   3.681   2.644   0.299
 1716SOL     OW 5148   2.350   3.247   0.174
 1716SOL    HW1 5149   2.263   3.232   0.221
 1716SOL    HW2 5150   2.333   3.273   0.079
 1717SOL     OW 5151   3.526   3.142   0.657
 1717SOL    HW1 5152   3.625   3.150   0.671
 1717SOL    HW2 5153   3.481   3.226   0.688
 1718SOL     OW 5154   3.252   2.437   0.078
 1718SOL    HW1 5155   3.198   2.416   0.159
 1718SOL    HW2 5156   3.343   2.396   0.087
 1719SOL     OW 5157   2.389   2.118   0.328
 1719SOL    HW1 5158   2.416   2.059   0.253
 1719SOL    HW2 5159   2.389   2.213   0.297
 1720SOL     OW 5160   3.616   3.085   1.588
 1720SOL    HW1 5161   3.707   3.046   1.575
 1720SOL    HW2 5162   3.624   3.181   1.612
 1721SOL     OW 5163   2.926   3.209   1.340
 1721SOL    HW1 5164   2.846   3.186   1.395
 1721SOL    HW2 5165   3.009   3.183   1.389
 1722SOL     OW 5166   3.454   3.491   1.625
 1722SOL    HW1 5167   3.481   3.525   1.535
 1722SOL    HW2 5168   3.533   3.453   1.671
 1723SOL     OW 5169   2.973   3.057   1.100
 1723SOL    HW1 5170   2.933   3.101   1.181
 1723SOL    HW2 5171   2.932   3.094   1.017
 1724SOL     OW 5172   3.500   2.961   1.079
 1724SOL    HW1 5173   3.505   3.042   1.138
 1724SOL    HW2 5174   3.414   2.963   1.028
 1725SOL     OW 5175   2.777   1.951   1.402
 1725SOL    HW1 5176   2.802   1.931   1.307
 1725SOL    HW2 5177   2.849   2.007   1.444
 1726SOL     OW 5178   2.842   2.978   1.719
 1726SOL    HW1 5179   2.743   2.984   1.729
 1726SOL    HW2 5180   2.865   2.898   1.663
 1727SOL     OW 5181   2.567   2.912   0.368
 1727SOL    HW1 5182   2.553   2.919   0.467
 1727SOL    HW2 5183   2.651   2.861   0.350
 1728SOL     OW 5184   2.272   2.675   1.251
 1728SOL    HW1 5185   2.358   2.687   1.301
 1728SOL    HW2 5186   2.230   2.588   1.278
 1729SOL     OW 5187   3.136   2.248   1.262
 1729SOL    HW1 5188   3.157   2.322   1.326
 1729SOL    HW2 5189   3.047   2.265   1.219
 1730SOL     OW 5190   1.926   3.426   1.331
 1730SOL    HW1 5191   1.880   3.508   1.297
 1730SOL    HW2 5192   2.024   3.445   1.340
 1731SOL     OW 5193   2.229   2.962   0.501
 1731SOL    HW1 5194   2.222   3.045   0.445
 1731SOL    HW2 5195   2.233   2.882   0.441
 1732SOL     OW 5196   2.428   2.399   0.865
 1732SOL    HW1 5197   2.440   2.465   0.791
 1732SOL    HW2 5198   2.474   2.433   0.948
 1733SOL     OW 5199   3.114   3.210   0.388
 1733SOL    HW1 5200   3.164   3.287   0.428
 1733SOL    HW2 5201   3.019   3.212   0.420
 1734SOL     OW 5202   3.134   3.307   1.142
 1734SOL    HW1 5203   3.181   3.320   1.229
 1734SOL    HW2 5204   3.068   3.233   1.151
 1735SOL     OW 5205   3.444   2.501   0.472
 1735SOL    HW1 5206   3.413   2.562   0.545
 1735SOL    HW2 5207   3.494   2.553   0.403
 1736SOL     OW 5208   2.216   3.372   1.329
 1736SOL    HW1 5209   2.195   3.328   1.242
 1736SOL    HW2 5210   2.313   3.398   1.332
 1737SOL     OW 5211   2.264   2.613   1.598
 1737SOL    HW1 5212   2.332   2.668   1.551
 1737SOL    HW2 5213   2.304   2.525   1.625
 1738SOL     OW 5214   3.449   2.641   1.670
 1738SOL    HW1 5215   3.357   2.679   1.665
 1738SOL    HW2 5216   3.509   2.688   1.605
 1739SOL     OW 5217   2.875   1.967   1.770
 1739SOL    HW1 5218   2.881   2.052   1.718
 1739SOL    HW2 5219   2.907   1.891   1.713
 1740SOL     OW 5220   2.366   1.912   1.740
 1740SOL    HW1 5221   2.324   1.855   1.670
 1740SOL    HW2 5222   2.300   1.981   1.772
 1741SOL     OW 5223   2.435   2.732   1.029
 1741SOL    HW1 5224   2.479   2.821   1.020
 1741SOL    HW2 5225   2.372   2.732   1.106
 1742SOL     OW 5226   3.222   2.724   1.045
 1742SOL    HW1 5227   3.147   2.724   0.979
 1742SOL    HW2 5228   3.259   2.632   1.054
 1743SOL     OW 5229   3.071   2.387   0.275
 1743SOL    HW1 5230   3.084   2.303   0.329
 1743SOL    HW2 5231   3.042   2.461   0.335
 1744SOL     OW 5232   2.169   2.075   1.231
 1744SOL    HW1 5233   2.146   2.112   1.321
 1744SOL    HW2 5234   2.139   1.980   1.225
 1745SOL     OW 5235   1.899   3.172   1.282
 1745SOL    HW1 5236   1.952   3.123   1.350
 1745SOL    HW2 5237   1.921   3.270   1.287
 1746SOL     OW 5238   2.594   2.496   1.064
 1746SOL    HW1 5239   2.653   2.470   0.988
 1746SOL    HW2 5240   2.566   2.592   1.053
 1747SOL     OW 5241   3.590   2.797   1.854
 1747SOL    HW1 5242   3.544   2.790   1.765
 1747SOL    HW2 5243   3.528   2.841   1.920
 1748SOL     OW 5244   2.169   1.925   0.618
 1748SOL    HW1 5245   2.158   2.019   0.651
 1748SOL    HW2 5246   2.164   1.862   0.695
 1749SOL     OW 5247   3.484   2.229   0.374
 1749SOL    HW1 5248   3.486   2.153   0.438
 1749SOL    HW2 5249   3.436   2.306   0.414
 1750SOL     OW 5250   2.885   2.628   0.966
 1750SOL    HW1 5251   2.900   2.649   1.062
 1750SOL    HW2 5252   2.855   2.533   0.957
 1751SOL     OW 5253   2.842   3.435   1.700
 1751SOL    HW1 5254   2.822   3.479   1.612
 1751SOL    HW2 5255   2.881   3.344   1.684
 1752SOL     OW 5256   3.721   3.380   1.605
 1752SOL    HW1 5257   3.735   3.407   1.510
 1752SOL    HW2 5258   3.804   3.402   1.658
 1753SOL     OW 5259   2.212   2.760   1.804
 1753SOL    HW1 5260   2.288   2.804   1.852
 1753SOL    HW2 5261   2.247   2.713   1.722
 1754SOL     OW 5262   3.402   2.136   0.125
 1754SOL    HW1 5263   3.341   2.061   0.148
 1754SOL    HW2 5264   3.424   2.188   0.208
 1755SOL     OW 5265   3.165   2.700   0.042
 1755SOL    HW1 5266   3.199   2.607   0.057
 1755SOL    HW2 5267   3.183   2.727  -0.053
 1756SOL     OW 5268   2.930   3.195   0.849
 1756SOL    HW1 5269   2.937   3.111   0.794
 1756SOL    HW2 5270   2.992   3.264   0.813
 1757SOL     OW 5271   2.181   2.672   0.949
 1757SOL    HW1 5272   2.274   2.708   0.954
 1757SOL    HW2 5273   2.175   2.587   1.001
 1758SOL     OW 5274   2.201   2.371   1.006
 1758SOL    HW1 5275   2.149   2.288   0.989
 1758SOL    HW2 5276   2.278   2.376   0.942
 1759SOL     OW 5277   3.000   2.242   1.678
 1759SOL    HW1 5278   2.955   2.305   1.742
 1759SOL    HW2 5279   3.093   2.273   1.661
 1760SOL     OW 5280   3.022   2.069   1.477
 1760SOL    HW1 5281   3.022   2.133   1.554
 1760SOL    HW2 5282   3.050   2.117   1.394
 1761SOL     OW 5283   1.870   3.188   0.200
 1761SOL    HW1 5284   1.777   3.209   0.169
 1761SOL    HW2 5285   1.880   3.089   0.213
 1762SOL     OW 5286   1.950   3.663   0.927
 1762SOL    HW1 5287   1.908   3.577   0.900
 1762SOL    HW2 5288   2.044   3.666   0.893
 1763SOL     OW 5289   2.366   3.430   0.910
 1763SOL    HW1 5290   2.432   3.504   0.919
 1763SOL    HW2 5291   2.410   3.351   0.868
 1764SOL     OW 5292   2.864   2.658   1.238
 1764SOL    HW1 5293   2.905   2.626   1.324
 1764SOL    HW2 5294   2.768   2.631   1.235
 1765SOL     OW 5295   1.902   2.406   1.114
 1765SOL    HW1 5296   1.987   2.373   1.073
 1765SOL    HW2 5297   1.915   2.421   1.212
 1766SOL     OW 5298   2.051   2.382   1.722
 1766SOL    HW1 5299   2.110   2.342   1.652
 1766SOL    HW2 5300   1.993   2.453   1.681
 1767SOL     OW 5301   3.231   2.812   1.660
 1767SOL    HW1 5302   3.270   2.901   1.680
 1767SOL    HW2 5303   3.241   2.792   1.563
 1768SOL     OW 5304   2.677   2.434   0.325
 1768SOL    HW1 5305   2.684   2.345   0.279
 1768SOL    HW2 5306   2.583   2.468   0.317
 1769SOL     OW 5307   3.519   2.466   1.206
 1769SOL    HW1 5308   3.481   2.397   1.268
 1769SOL    HW2 5309   3.601   2.430   1.162
 1770SOL     OW 5310   2.114   3.426   1.744
 1770SOL    HW1 5311   2.084   3.483   1.820
 1770SOL    HW2 5312   2.107   3.329   1.770
 1771SOL     OW 5313   2.533   2.326   1.269
 1771SOL    HW1 5314   2.499   2.237   1.239
 1771SOL    HW2 5315   2.559   2.380   1.189
 1772SOL     OW 5316   2.792   3.540   1.465
 1772SOL    HW1 5317   2.768   3.522   1.370
 1772SOL    HW2 5318   2.822   3.634   1.475
 1773SOL     OW 5319   2.335   2.362   0.191
 1773SOL    HW1 5320   2.396   2.442   0.195
 1773SOL    HW2 5321   2.240   2.393   0.198
 1774SOL     OW 5322   2.021   2.999   1.466
 1774SOL    HW1 5323   2.043   2.938   1.542
 1774SOL    HW2 5324   2.031   2.950   1.380
 1775SOL     OW 5325   3.209   2.921   1.234
 1775SOL    HW1 5326   3.233   2.858   1.160
 1775SOL    HW2 5327   3.119   2.961   1.216
 1776SOL     OW 5328   3.164   2.717   0.309
 1776SOL    HW1 5329   3.078   2.686   0.351
 1776SOL    HW2 5330   3.160   2.703   0.210
 1777SOL     OW 5331   3.621   3.609   1.154
 1777SOL    HW1 5332   3.682   3.639   1.081
 1777SOL    HW2 5333   3.583   3.520   1.132
 1778SOL     OW 5334   3.114   3.593   1.128
 1778SOL    HW1 5335   3.198   3.598   1.074
 1778SOL    HW2 5336   3.091   3.497   1.146
 1779SOL     OW 5337   1.945   3.120   1.022
 1779SOL    HW1 5338   1.940   3.119   1.122
 1779SOL    HW2 5339   1.862   3.079   0.984
 1780SOL     OW 5340   2.550   3.524   1.716
 1780SOL    HW1 5341   2.494   3.605   1.725
 1780SOL    HW2 5342   2.602   3.528   1.630
 1781SOL     OW 5343   2.765   1.948   0.133
 1781SOL    HW1 5344   2.816   1.949   0.047
 1781SOL    HW2 5345   2.821   1.906   0.204
 1782SOL     OW 5346   3.588   1.997   0.523
 1782SOL    HW1 5347   3.661   1.980   0.456
 1782SOL    HW2 5348   3.557   1.910   0.561
 1783SOL     OW 5349   3.250   3.435   0.477
 1783SOL    HW1 5350   3.317   3.447   0.403
 1783SOL    HW2 5351   3.210   3.524   0.500
 1784SOL     OW 5352   1.992   3.656   1.851
 1784SOL    HW1 5353   1.951   3.582   1.904
 1784SOL    HW2 5354   2.056   3.707   1.909
 1785SOL     OW 5355   3.142   2.789   0.672
 1785SOL    HW1 5356   3.202   2.708   0.674
 1785SOL    HW2 5357   3.182   2.858   0.612
 1786SOL     OW 5358   2.692   3.135   1.422
 1786SOL    HW1 5359   2.687   3.168   1.517
 1786SOL    HW2 5360   2.606   3.154   1.376
 1787SOL     OW 5361   2.534   3.478   0.154
 1787SOL    HW1 5362   2.543   3.488   0.055
 1787SOL    HW2 5363   2.494   3.389   0.175
 1788SOL     OW 5364   3.512   3.582   1.394
 1788SOL    HW1 5365   3.565   3.592   1.310
 1788SOL    HW2 5366   3.485   3.672   1.428
 1789SOL     OW 5367   3.703   2.037   0.963
 1789SOL    HW1 5368   3.742   1.952   0.927
 1789SOL    HW2 5369   3.605   2.039   0.944
 1790SOL     OW 5370   2.125   2.188   0.720
 1790SOL    HW1 5371   2.046   2.239   0.686
 1790SOL    HW2 5372   2.116   2.173   0.818
 1791SOL     OW 5373   3.056   3.474   0.031
 1791SOL    HW1 5374   3.062   3.381   0.068
 1791SOL    HW2 5375   2.997   3.474  -0.049
 1792SOL     OW 5376   2.684   2.864   1.372
 1792SOL    HW1 5377   2.724   2.863   1.280
 1792SOL    HW2 5378   2.694   2.956   1.412
 1793SOL     OW 5379   2.778   2.772   0.291
 1793SOL    HW1 5380   2.841   2.810   0.223
 1793SOL    HW2 5381   2.818   2.689   0.330
 1794SOL     OW 5382   3.366   3.469   0.044
 1794SOL    HW1 5383   3.274   3.506   0.051
 1794SOL    HW2 5384   3.404   3.489  -0.046
 1795SOL     OW 5385   2.234   3.150   1.490
 1795SOL    HW1 5386   2.221   3.243   1.456
 1795SOL    HW2 5387   2.150   3.098   1.477
 1796SOL     OW 5388   3.476   3.154   1.289
 1796SOL    HW1 5389   3.536   3.157   1.369
 1796SOL    HW2 5390   3.401   3.218   1.302
 1797SOL     OW 5391   2.901   2.960   0.696
 1797SOL    HW1 5392   2.831   2.913   0.750
 1797SOL    HW2 5393   2.960   2.892   0.653
 1798SOL     OW 5394   2.876   2.098   0.971
 1798SOL    HW1 5395   2.868   2.062   0.878
 1798SOL    HW2 5396   2.874   2.022   1.036
 1799SOL     OW 5397   2.452   3.349   0.491
 1799SOL    HW1 5398   2.494   3.291   0.421
 1799SOL    HW2 5399   2.408   3.428   0.447
 1800SOL     OW 5400   3.571   2.247   1.381
 1800SOL    HW1 5401   3.644   2.316   1.385
 1800SOL    HW2 5402   3.599   2.172   1.322
 1801SOL     OW 5403   2.117   3.210   0.290
 1801SOL    HW1 5404   2.021   3.211   0.263
 1801SOL    HW2 5405   2.129   3.263   0.374
 1802SOL     OW 5406   1.967   2.875   1.726
 1802SOL    HW1 5407   1.890   2.842   1.780
 1802SOL    HW2 5408   2.052   2.845   1.768
 1803SOL     OW 5409   2.534   2.065   1.489
 1803SOL    HW1 5410   2.624   2.049   1.449
 1803SOL    HW2 5411   2.542   2.070   1.588
 1804SOL     OW 5412   1.937   2.207   0.033
 1804SOL    HW1 5413   1.845   2.179   0.004
 1804SOL    HW2 5414   1.968   2.284  -0.023
 1805SOL     OW 5415   3.302   2.718   1.398
 1805SOL    HW1 5416   3.245   2.770   1.335
 1805SOL    HW2 5417   3.398   2.730   1.374
 1806SOL     OW 5418   1.934   2.028   0.318
 1806SOL    HW1 5419   1.917   2.111   0.264
 1806SOL    HW2 5420   2.024   1.991   0.296
 1807SOL     OW 5421   3.045   3.197   0.119
 1807SOL    HW1 5422   2.946   3.186   0.121
 1807SOL    HW2 5423   3.079   3.212   0.212
 1808SOL     OW 5424   2.475   2.704   1.431
 1808SOL    HW1 5425   2.531   2.785   1.414
 1808SOL    HW2 5426   2.534   2.624   1.434
 1809SOL     OW 5427   3.355   3.629   0.959
 1809SOL    HW1 5428   3.388   3.693   0.890
 1809SOL    HW2 5429   3.421   3.623   1.034
 1810SOL     OW 5430   2.578   2.427   1.708
 1810SOL    HW1 5431   2.597   2.492   1.782
 1810SOL    HW2 5432   2.638   2.347   1.717
 1811SOL     OW 5433   3.312   3.082   1.633
 1811SOL    HW1 5434   3.303   3.072   1.732
 1811SOL    HW2 5435   3.408   3.075   1.607
 1812SOL     OW 5436   2.252   3.603   1.560
 1812SOL    HW1 5437   2.161   3.644   1.558
 1812SOL    HW2 5438   2.245   3.509   1.592
 1813SOL     OW 5439   3.536   2.745   1.254
 1813SOL    HW1 5440   3.509   2.656   1.217
 1813SOL    HW2 5441   3.537   2.813   1.181
 1814SOL     OW 5442   3.087   2.187   0.449
 1814SOL    HW1 5443   3.152   2.113   0.438
 1814SOL    HW2 5444   3.107   2.237   0.533
 1815SOL     OW 5445   2.456   2.607   0.652
 1815SOL    HW1 5446   2.506   2.692   0.633
 1815SOL    HW2 5447   2.368   2.609   0.604
 1816SOL     OW 5448   3.639   2.204   1.642
 1816SOL    HW1 5449   3.622   2.235   1.548
 1816SOL    HW2 5450   3.555   2.167   1.680
 1817SOL     OW 5451   3.592   2.796   1.517
 1817SOL    HW1 5452   3.630   2.887   1.532
 1817SOL    HW2 5453   3.584   2.779   1.418
 1818SOL     OW 5454   2.721   3.236   0.016
 1818SOL    HW1 5455   2.675   3.251   0.104
 1818SOL    HW2 5456   2.765   3.321  -0.014
 1819SOL     OW 5457   2.523   3.652   0.953
 1819SOL    HW1 5458   2.477   3.740   0.940
 1819SOL    HW2 5459   2.622   3.664   0.946
 1820SOL     OW 5460   2.721   2.818   0.861
 1820SOL    HW1 5461   2.775   2.749   0.909
 1820SOL    HW2 5462   2.689   2.887   0.927
 1821SOL     OW 5463   2.945   2.846   0.087
 1821SOL    HW1 5464   2.922   2.899   0.005
 1821SOL    HW2 5465   3.026   2.790   0.068
 1822SOL     OW 5466   3.723   3.431   0.851
 1822SOL    HW1 5467   3.652   3.419   0.781
 1822SOL    HW2 5468   3.724   3.352   0.911
 1823SOL     OW 5469   2.083   3.176   1.844
 1823SOL    HW1 5470   2.018   3.103   1.823
 1823SOL    HW2 5471   2.087   3.190   1.942
 1824SOL     OW 5472   1.941   3.102   0.653
 1824SOL    HW1 5473   1.940   3.055   0.741
 1824SOL    HW2 5474   2.023   3.074   0.602
 1825SOL     OW 5475   2.534   3.253   1.624
 1825SOL    HW1 5476   2.456   3.203   1.662
 1825SOL    HW2 5477   2.531   3.348   1.655
 1826SOL     OW 5478   3.686   2.054   1.227
 1826SOL    HW1 5479   3.682   1.964   1.271
 1826SOL    HW2 5480   3.689   2.043   1.128
 1827SOL     OW 5481   2.290   2.286   0.520
 1827SOL    HW1 5482   2.320   2.214   0.458
 1827SOL    HW2 5483   2.251   2.246   0.603
 1828SOL     OW 5484   3.567   3.349   1.104
 1828SOL    HW1 5485   3.474   3.324   1.077
 1828SOL    HW2 5486   3.593   3.299   1.186
 1829SOL     OW 5487   2.179   2.409   1.280
 1829SOL    HW1 5488   2.217   2.350   1.352
 1829SOL    HW2 5489   2.219   2.383   1.192
 1830SOL     OW 5490   2.674   3.448   0.687
 1830SOL    HW1 5491   2.706   3.458   0.593
 1830SOL    HW2 5492   2.595   3.386   0.689
 1831SOL     OW 5493   3.286   2.076   1.112
 1831SOL    HW1 5494   3.338   2.011   1.167
 1831SOL    HW2 5495   3.237   2.139   1.173
 1832SOL     OW 5496   2.863   1.896   1.154
 1832SOL    HW1 5497   2.800   1.824   1.123
 1832SOL    HW2 5498   2.956   1.860   1.154
 1833SOL     OW 5499   2.632   3.192   0.301
 1833SOL    HW1 5500   2.586   3.105   0.318
 1833SOL    HW2 5501   2.723   3.189   0.342
 1834SOL     OW 5502   2.480   3.429   1.284
 1834SOL    HW1 5503   2.475   3.511   1.341
 1834SOL    HW2 5504   2.569   3.426   1.239
 1835SOL     OW 5505   3.162   2.315   0.691
 1835SOL    HW1 5506   3.103   2.395   0.695
 1835SOL    HW2 5507   3.177   2.280   0.784
 1836SOL     OW 5508   3.455   2.083   0.882
 1836SOL    HW1 5509   3.371   2.082   0.936
 1836SOL    HW2 5510   3.457   2.166   0.826
 1837SOL     OW 5511   1.901   2.939   0.300
 1837SOL    HW1 5512   2.000   2.928   0.291
 1837SOL    HW2 5513   1.861   2.853   0.332
 1838SOL     OW 5514   2.737   3.508   0.337
 1838SOL    HW1 5515   2.660   3.473   0.283
 1838SOL    HW2 5516   2.705   3.579   0.399
 1839SOL     OW 5517   2.092   2.490   1.975
 1839SOL    HW1 5518   1.999   2.488   2.012
 1839SOL    HW2 5519   2.093   2.451   1.883
 1840SOL     OW 5520   2.087   2.137   2.858
 1840SOL    HW1 5521   2.122   2.120   2.950
 1840SOL    HW2 5522   1.999   2.092   2.846
 1841SOL     OW 5523   1.881   2.230   2.509
 1841SOL    HW1 5524   1.799   2.273   2.548
 1841SOL    HW2 5525   1.853   2.157   2.446
 1842SOL     OW 5526   2.431   3.137   3.027
 1842SOL    HW1 5527   2.338   3.130   2.990
 1842SOL    HW2 5528   2.442   3.226   3.071
 1843SOL     OW 5529   3.417   3.373   2.565
 1843SOL    HW1 5530   3.360   3.357   2.646
 1843SOL    HW2 5531   3.358   3.383   2.485
 1844SOL     OW 5532   2.997   2.565   2.579
 1844SOL    HW1 5533   3.054   2.643   2.554
 1844SOL    HW2 5534   2.937   2.591   2.655
 1845SOL     OW 5535   3.617   2.469   2.093
 1845SOL    HW1 5536   3.605   2.456   1.994
 1845SOL    HW2 5537   3.587   2.388   2.142
 1846SOL     OW 5538   2.630   3.006   2.885
 1846SOL    HW1 5539   2.552   3.023   2.945
 1846SOL    HW2 5540   2.664   3.093   2.849
 1847SOL     OW 5541   2.712   2.660   3.685
 1847SOL    HW1 5542   2.708   2.736   3.750
 1847SOL    HW2 5543   2.734   2.696   3.594
 1848SOL     OW 5544   2.547   2.874   2.527
 1848SOL    HW1 5545   2.616   2.858   2.597
 1848SOL    HW2 5546   2.474   2.931   2.565
 1849SOL     OW 5547   2.548   3.023   3.665
 1849SOL    HW1 5548   2.608   3.102   3.679
 1849SOL    HW2 5549   2.462   3.054   3.624
 1850SOL     OW 5550   2.197   3.297   2.923
 1850SOL    HW1 5551   2.119   3.266   2.870
 1850SOL    HW2 5552   2.255   3.355   2.866
 1851SOL     OW 5553   3.322   3.367   3.201
 1851SOL    HW1 5554   3.346   3.461   3.227
 1851SOL    HW2 5555   3.306   3.313   3.283
 1852SOL     OW 5556   2.300   2.254   3.361
 1852SOL    HW1 5557   2.382   2.198   3.370
 1852SOL    HW2 5558   2.219   2.196   3.365
 1853SOL     OW 5559   3.465   2.309   2.599
 1853SOL    HW1 5560   3.391   2.355   2.549
 1853SOL    HW2 5561   3.516   2.377   2.652
 1854SOL     OW 5562   2.093   3.575   2.345
 1854SOL    HW1 5563   2.127   3.652   2.399
 1854SOL    HW2 5564   2.137   3.575   2.255
 1855SOL     OW 5565   2.989   3.203   3.552
 1855SOL    HW1 5566   3.036   3.203   3.640
 1855SOL    HW2 5567   2.941   3.116   3.541
 1856SOL     OW 5568   2.092   3.296   2.400
 1856SOL    HW1 5569   2.066   3.392   2.400
 1856SOL    HW2 5570   2.021   3.242   2.445
 1857SOL     OW 5571   2.102   2.953   2.748
 1857SOL    HW1 5572   2.116   2.869   2.800
 1857SOL    HW2 5573   2.047   3.017   2.803
 1858SOL     OW 5574   2.482   3.648   3.301
 1858SOL    HW1 5575   2.390   3.631   3.336
 1858SOL    HW2 5576   2.510   3.740   3.327
 1859SOL     OW 5577   2.468   2.826   1.985
 1859SOL    HW1 5578   2.475   2.910   1.931
 1859SOL    HW2 5579   2.514   2.839   2.073
 1860SOL     OW 5580   3.456   1.976   3.342
 1860SOL    HW1 5581   3.438   2.043   3.270
 1860SOL    HW2 5582   3.453   2.022   3.431
 1861SOL     OW 5583   1.984   2.505   2.425
 1861SOL    HW1 5584   1.939   2.417   2.442
 1861SOL    HW2 5585   1.983   2.559   2.509
 1862SOL     OW 5586   3.704   3.629   2.221
 1862SOL    HW1 5587   3.758   3.600   2.301
 1862SOL    HW2 5588   3.734   3.719   2.192
 1863SOL     OW 5589   1.889   3.458   1.979
 1863SOL    HW1 5590   1.870   3.362   2.000
 1863SOL    HW2 5591   1.856   3.516   2.054
 1864SOL     OW 5592   3.551   2.784   2.474
 1864SOL    HW1 5593   3.646   2.755   2.482
 1864SOL    HW2 5594   3.543   2.849   2.399
 1865SOL     OW 5595   3.503   2.970   2.294
 1865SOL    HW1 5596   3.589   2.972   2.242
 1865SOL    HW2 5597   3.517   3.017   2.382
 1866SOL     OW 5598   1.975   2.599   3.459
 1866SOL    HW1 5599   2.063   2.586   3.504
 1866SOL    HW2 5600   1.962   2.696   3.437
 1867SOL     OW 5601   2.475   3.227   2.588
 1867SOL    HW1 5602   2.426   3.140   2.597
 1867SOL    HW2 5603   2.452   3.270   2.501
 1868SOL     OW 5604   3.155   3.090   3.285
 1868SOL    HW1 5605   3.192   3.017   3.227
 1868SOL    HW2 5606   3.207   3.095   3.370
 1869SOL     OW 5607   2.671   1.866   2.364
 1869SOL    HW1 5608   2.711   1.957   2.355
 1869SOL    HW2 5609   2.571   1.874   2.370
 1870SOL     OW 5610   2.059   2.838   3.126
 1870SOL    HW1 5611   2.148   2.793   3.112
 1870SOL    HW2 5612   1.986   2.773   3.107
 1871SOL     OW 5613   3.387   2.861   2.052
 1871SOL    HW1 5614   3.324   2.785   2.065
 1871SOL    HW2 5615   3.435   2.879   2.138
 1872SOL     OW 5616   3.049   3.654   3.478
 1872SOL    HW1 5617   3.073   3.714   3.402
 1872SOL    HW2 5618   3.056   3.559   3.448
 1873SOL     OW 5619   2.179   2.113   3.663
 1873SOL    HW1 5620   2.250   2.184   3.669
 1873SOL    HW2 5621   2.091   2.152   3.691
 1874SOL     OW 5622   3.328   3.279   2.815
 1874SOL    HW1 5623   3.269   3.285   2.895
 1874SOL    HW2 5624   3.313   3.191   2.769
 1875SOL     OW 5625   3.529   3.576   2.434
 1875SOL    HW1 5626   3.488   3.553   2.346
 1875SOL    HW2 5627   3.511   3.502   2.499
 1876SOL     OW 5628   2.460   2.591   2.132
 1876SOL    HW1 5629   2.484   2.660   2.064
 1876SOL    HW2 5630   2.382   2.624   2.186
 1877SOL     OW 5631   3.143   2.207   2.806
 1877SOL    HW1 5632   3.057   2.157   2.793
 1877SOL    HW2 5633   3.205   2.153   2.862
 1878SOL     OW 5634   3.438   3.524   2.169
 1878SOL    HW1 5635   3.527   3.570   2.172
 1878SOL    HW2 5636   3.417   3.500   2.074
 1879SOL     OW 5637   2.669   2.467   3.327
 1879SOL    HW1 5638   2.622   2.464   3.416
 1879SOL    HW2 5639   2.618   2.412   3.261
 1880SOL     OW 5640   3.256   2.331   3.536
 1880SOL    HW1 5641   3.236   2.374   3.624
 1880SOL    HW2 5642   3.334   2.269   3.545
 1881SOL     OW 5643   2.835   2.752   3.434
 1881SOL    HW1 5644   2.881   2.668   3.405
 1881SOL    HW2 5645   2.779   2.786   3.359
 1882SOL     OW 5646   2.853   2.272   3.104
 1882SOL    HW1 5647   2.776   2.306   3.158
 1882SOL    HW2 5648   2.819   2.221   3.025
 1883SOL     OW 5649   2.903   2.563   2.291
 1883SOL    HW1 5650   2.929   2.559   2.387
 1883SOL    HW2 5651   2.818   2.512   2.277
 1884SOL     OW 5652   1.938   2.673   2.651
 1884SOL    HW1 5653   2.037   2.661   2.660
 1884SOL    HW2 5654   1.914   2.768   2.672
 1885SOL     OW 5655   1.992   3.683   3.433
 1885SOL    HW1 5656   1.982   3.668   3.532
 1885SOL    HW2 5657   1.906   3.719   3.397
 1886SOL     OW 5658   2.727   2.210   2.057
 1886SOL    HW1 5659   2.786   2.273   2.008
 1886SOL    HW2 5660   2.746   2.116   2.028
 1887SOL     OW 5661   3.581   2.447   3.693
 1887SOL    HW1 5662   3.555   2.536   3.657
 1887SOL    HW2 5663   3.579   2.379   3.620
 1888SOL     OW 5664   3.224   3.006   2.407
 1888SOL    HW1 5665   3.307   2.977   2.359
 1888SOL    HW2 5666   3.175   3.073   2.351
 1889SOL     OW 5667   2.412   2.058   2.747
 1889SOL    HW1 5668   2.407   2.053   2.847
 1889SOL    HW2 5669   2.414   2.154   2.718
 1890SOL     OW 5670   2.870   3.318   2.339
 1890SOL    HW1 5671   2.824   3.390   2.287
 1890SOL    HW2 5672   2.866   3.338   2.437
 1891SOL     OW 5673   2.213   3.663   2.715
 1891SOL    HW1 5674   2.263   3.577   2.721
 1891SOL    HW2 5675   2.278   3.740   2.712
 1892SOL     OW 5676   3.657   2.928   2.735
 1892SOL    HW1 5677   3.595   2.913   2.659
 1892SOL    HW2 5678   3.605   2.939   2.820
 1893SOL     OW 5679   3.089   3.412   3.368
 1893SOL    HW1 5680   3.095   3.335   3.432
 1893SOL    HW2 5681   3.037   3.386   3.288
 1894SOL     OW 5682   2.183   2.805   2.104
 1894SOL    HW1 5683   2.265   2.844   2.062
 1894SOL    HW2 5684   2.156   2.723   2.055
 1895SOL     OW 5685   3.320   2.597   2.590
 1895SOL    HW1 5686   3.315   2.532   2.665
 1895SOL    HW2 5687   3.400   2.656   2.603
 1896SOL     OW 5688   2.323   3.128   3.589
 1896SOL    HW1 5689   2.273   3.129   3.503
 1896SOL    HW2 5690   2.260   3.110   3.665
 1897SOL     OW 5691   2.973   3.638   2.099
 1897SOL    HW1 5692   2.913   3.576   2.149
 1897SOL    HW2 5693   3.004   3.594   2.014
 1898SOL     OW 5694   2.064   2.147   3.360
 1898SOL    HW1 5695   1.984   2.207   3.347
 1898SOL    HW2 5696   2.054   2.098   3.446
 1899SOL     OW 5697   3.494   3.239   1.943
 1899SOL    HW1 5698   3.462   3.333   1.933
 1899SOL    HW2 5699   3.418   3.176   1.931
 1900SOL     OW 5700   2.326   3.605   2.185
 1900SOL    HW1 5701   2.359   3.644   2.271
 1900SOL    HW2 5702   2.402   3.598   2.120
 1901SOL     OW 5703   3.262   1.969   2.288
 1901SOL    HW1 5704   3.238   1.932   2.198
 1901SOL    HW2 5705   3.361   1.985   2.292
 1902SOL     OW 5706   2.111   3.647   3.103
 1902SOL    HW1 5707   2.168   3.582   3.153
 1902SOL    HW2 5708   2.095   3.614   3.010
 1903SOL     OW 5709   2.802   3.560   2.766
 1903SOL    HW1 5710   2.882   3.503   2.787
 1903SOL    HW2 5711   2.753   3.520   2.689
 1904SOL     OW 5712   2.244   2.562   2.342
 1904SOL    HW1 5713   2.289   2.472   2.339
 1904SOL    HW2 5714   2.150   2.551   2.375
 1905SOL     OW 5715   3.409   2.084   3.591
 1905SOL    HW1 5716   3.404   2.121   3.683
 1905SOL    HW2 5717   3.337   2.015   3.579
 1906SOL     OW 5718   2.476   1.984   1.979
 1906SOL    HW1 5719   2.574   1.962   1.986
 1906SOL    HW2 5720   2.445   1.967   1.886
 1907SOL     OW 5721   2.643   2.126   3.611
 1907SOL    HW1 5722   2.710   2.065   3.654
 1907SOL    HW2 5723   2.570   2.145   3.676
 1908SOL     OW 5724   2.750   3.376   3.057
 1908SOL    HW1 5725   2.727   3.351   2.963
 1908SOL    HW2 5726   2.811   3.307   3.096
 1909SOL     OW 5727   3.213   2.452   3.295
 1909SOL    HW1 5728   3.241   2.409   3.380
 1909SOL    HW2 5729   3.238   2.548   3.296
 1910SOL     OW 5730   2.665   3.264   2.786
 1910SOL    HW1 5731   2.755   3.278   2.744
 1910SOL    HW2 5732   2.594   3.266   2.715
 1911SOL     OW 5733   2.784   2.365   2.761
 1911SOL    HW1 5734   2.759   2.356   2.665
 1911SOL    HW2 5735   2.832   2.283   2.792
 1912SOL     OW 5736   2.401   1.926   2.374
 1912SOL    HW1 5737   2.320   1.927   2.432
 1912SOL    HW2 5738   2.404   2.009   2.319
 1913SOL     OW 5739   3.296   3.050   1.903
 1913SOL    HW1 5740   3.328   2.974   1.960
 1913SOL    HW2 5741   3.204   3.077   1.933
 1914SOL     OW 5742   2.159   1.897   2.033
 1914SOL    HW1 5743   2.208   1.981   2.012
 1914SOL    HW2 5744   2.221   1.832   2.078
 1915SOL     OW 5745   2.797   2.098   2.342
 1915SOL    HW1 5746   2.749   2.139   2.264
 1915SOL    HW2 5747   2.896   2.096   2.323
 1916SOL     OW 5748   2.938   2.545   3.326
 1916SOL    HW1 5749   2.858   2.484   3.329
 1916SOL    HW2 5750   3.019   2.492   3.302
 1917SOL     OW 5751   3.089   3.432   2.655
 1917SOL    HW1 5752   3.110   3.506   2.590
 1917SOL    HW2 5753   3.157   3.432   2.728
 1918SOL     OW 5754   2.321   3.014   2.603
 1918SOL    HW1 5755   2.250   2.987   2.668
 1918SOL    HW2 5756   2.295   2.986   2.510
 1919SOL     OW 5757   3.133   3.659   2.453
 1919SOL    HW1 5758   3.177   3.723   2.389
 1919SOL    HW2 5759   3.083   3.711   2.523
 1920SOL     OW 5760   2.894   2.411   1.878
 1920SOL    HW1 5761   2.853   2.493   1.839
 1920SOL    HW2 5762   2.958   2.437   1.951
 1921SOL     OW 5763   1.940   2.418   3.248
 1921SOL    HW1 5764   2.032   2.417   3.207
 1921SOL    HW2 5765   1.934   2.492   3.315
 1922SOL     OW 5766   2.423   2.084   3.009
 1922SOL    HW1 5767   2.461   2.000   3.046
 1922SOL    HW2 5768   2.335   2.103   3.053
 1923SOL     OW 5769   2.728   2.316   2.504
 1923SOL    HW1 5770   2.696   2.388   2.442
 1923SOL    HW2 5771   2.752   2.235   2.451
 1924SOL     OW 5772   2.879   1.901   2.615
 1924SOL    HW1 5773   2.807   1.906   2.546
 1924SOL    HW2 5774   2.855   1.832   2.684
 1925SOL     OW 5775   3.291   3.035   2.729
 1925SOL    HW1 5776   3.236   2.951   2.722
 1925SOL    HW2 5777   3.317   3.064   2.637
 1926SOL     OW 5778   3.328   2.452   2.854
 1926SOL    HW1 5779   3.298   2.357   2.861
 1926SOL    HW2 5780   3.401   2.468   2.920
 1927SOL     OW 5781   3.719   2.695   2.239
 1927SOL    HW1 5782   3.761   2.631   2.303
 1927SOL    HW2 5783   3.681   2.644   2.161
 1928SOL     OW 5784   2.350   3.247   2.036
 1928SOL    HW1 5785   2.263   3.232   2.083
 1928SOL    HW2 5786   2.333   3.273   1.941
 1929SOL     OW 5787   3.526   3.142   2.519
 1929SOL    HW1 5788   3.625   3.150   2.533
 1929SOL    HW2 5789   3.481   3.226   2.550
 1930SOL     OW 5790   3.252   2.437   1.940
 1930SOL    HW1 5791   3.198   2.416   2.021
 1930SOL    HW2 5792   3.343   2.396   1.949
 1931SOL     OW 5793   2.389   2.118   2.190
 1931SOL    HW1 5794   2.416   2.059   2.115
 1931SOL    HW2 5795   2.389   2.213   2.159
 1932SOL     OW 5796   3.616   3.085   3.450
 1932SOL    HW1 5797   3.707   3.046   3.437
 1932SOL    HW2 5798   3.624   3.181   3.474
 1933SOL     OW 5799   2.926   3.209   3.202
 1933SOL    HW1 5800   2.846   3.186   3.257
 1933SOL    HW2 5801   3.009   3.183   3.251
 1934SOL     OW 5802   3.454   3.491   3.487
 1934SOL    HW1 5803   3.481   3.525   3.397
 1934SOL    HW2 5804   3.533   3.453   3.533
 1935SOL     OW 5805   2.973   3.057   2.962
 1935SOL    HW1 5806   2.933   3.101   3.043
 1935SOL    HW2 5807   2.932   3.094   2.879
 1936SOL     OW 5808   3.500   2.961   2.941
 1936SOL    HW1 5809   3.505   3.042   3.000
 1936SOL    HW2 5810   3.414   2.963   2.890
 1937SOL     OW 5811   2.777   1.951   3.264
 1937SOL    HW1 5812   2.802   1.931   3.169
 1937SOL    HW2 5813   2.849   2.007   3.306
 1938SOL     OW 5814   2.842   2.978   3.581
 1938SOL    HW1 5815   2.743   2.984   3.591
 1938SOL    HW2 5816   2.865   2.898   3.525
 1939SOL     OW 5817   2.567   2.912   2.230
 1939SOL    HW1 5818   2.553   2.919   2.329
 1939SOL    HW2 5819   2.651   2.861   2.212
 1940SOL     OW 5820   2.272   2.675   3.113
 1940SOL    HW1 5821   2.358   2.687   3.163
 1940SOL    HW2 5822   2.230   2.588   3.140
 1941SOL     OW 5823   3.136   2.248   3.124
 1941SOL    HW1 5824   3.157   2.322   3.188
 1941SOL    HW2 5825   3.047   2.265   3.081
 1942SOL     OW 5826   1.926   3.426   3.193
 1942SOL    HW1 5827   1.880   3.508   3.159
 1942SOL    HW2 5828   2.024   3.445   3.202
 1943SOL     OW 5829   2.229   2.962   2.363
 1943SOL    HW1 5830   2.222   3.045   2.307
 1943SOL    HW2 5831   2.233   2.882   2.303
 1944SOL     OW 5832   2.428   2.399   2.727
 1944SOL    HW1 5833   2.440   2.465   2.653
 1944SOL    HW2 5834   2.474   2.433   2.810
 1945SOL     OW 5835   3.114   3.210   2.250
 1945SOL    HW1 5836   3.164   3.287   2.290
 1945SOL    HW2 5837   3.019   3.212   2.282
 1946SOL     OW 5838   3.134   3.307   3.004
 1946SOL    HW1 5839   3.181   3.320   3.091
 1946SOL    HW2 5840   3.068   3.233   3.013
 1947SOL     OW 5841   3.444   2.501   2.334
 1947SOL    HW1 5842   3.413   2.562   2.407
 1947SOL    HW2 5843   3.494   2.553   2.265
 1948SOL     OW 5844   2.216   3.372   3.191
 1948SOL    HW1 5845   2.195   3.328   3.104
 1948SOL    HW2 5846   2.313   3.398   3.194
 1949SOL     OW 5847   2.264   2.613   3.460
 1949SOL    HW1 5848   2.332   2.668   3.413
 1949SOL    HW2 5849   2.304   2.525   3.487
 1950SOL     OW 5850   3.449   2.641   3.532
 1950SOL    HW1 5851   3.357   2.679   3.527
 1950SOL    HW2 5852   3.509   2.688   3.467
 1951SOL     OW 5853   2.875   1.967   3.632
 1951SOL    HW1 5854   2.881   2.052   3.580
 1951SOL    HW2 5855   2.907   1.891   3.575
 1952SOL     OW 5856   2.366   1.912   3.602
 1952SOL    HW1 5857   2.324   1.855   3.532
 1952SOL    HW2 5858   2.300   1.981   3.634
 1953SOL     OW 5859   2.435   2.732   2.891
 1953SOL    HW1 5860   2.479   2.821   2.882
 1953SOL    HW2 5861   2.372   2.732   2.968
 1954SOL     OW 5862   3.222   2.724   2.907
 1954SOL    HW1 5863   3.147   2.724   2.841
 1954SOL    HW2 5864   3.259   2.632   2.916
 1955SOL     OW 5865   3.071   2.387   2.137
 1955SOL    HW1 5866   3.084   2.303   2.191
 1955SOL    HW2 5867   3.042   2.461   2.197
 1956SOL     OW 5868   2.169   2.075   3.093
 1956SOL    HW1 5869   2.146   2.112   3.183
 1956SOL    HW2 5870   2.139   1.980   3.087
 1957SOL     OW 5871   1.899   3.172   3.144
 1957SOL    HW1 5872   1.952   3.123   3.212
 1957SOL    HW2 5873   1.921   3.270   3.149
 1958SOL     OW 5874   2.594   2.496   2.926
 1958SOL    HW1 5875   2.653   2.470   2.850
 1958SOL    HW2 5876   2.566   2.592   2.915
 1959SOL     OW 5877   3.590   2.797   3.716
 1959SOL    HW1 5878   3.544   2.790   3.627
 1959SOL    HW2 5879   3.528   2.841   3.782
 1960SOL     OW 5880   2.169   1.925   2.480
 1960SOL    HW1 5881   2.158   2.019   2.513
 1960SOL    HW2 5882   2.164   1.862   2.557
 1961SOL     OW 5883   3.484   2.229   2.236
 1961SOL    HW1 5884   3.486   2.153   2.300
 1961SOL    HW2 5885   3.436   2.306   2.276
 1962SOL     OW 5886   2.885   2.628   2.828
 1962SOL    HW1 5887   2.900   2.649   2.924
 1962SOL    HW2 5888   2.855   2.533   2.819
 1963SOL     OW 5889   2.842   3.435   3.562
 1963SOL    HW1 5890   2.822   3.479   3.474
 1963SOL    HW2 5891   2.881   3.344   3.546
 1964SOL     OW 5892   3.721   3.380   3.467
 1964SOL    HW1 5893   3.735   3.407   3.372
 1964SOL    HW2 5894   3.804   3.402   3.520
 1965SOL     OW 5895   2.212   2.760   3.666
 1965SOL    HW1 5896   2.288   2.804   3.714
 1965SOL    HW2 5897   2.247   2.713   3.584
 1966SOL     OW 5898   3.402   2.136   1.987
 1966SOL    HW1 5899   3.341   2.061   2.010
 1966SOL    HW2 5900   3.424   2.188   2.070
 1967SOL     OW 5901   3.165   2.700   1.904
 1967SOL    HW1 5902   3.199   2.607   1.919
 1967SOL    HW2 5903   3.183   2.727   1.809
 1968SOL     OW 5904   2.930   3.195   2.711
 1968SOL    HW1 5905   2.937   3.111   2.656
 1968SOL    HW2 5906   2.992   3.264   2.675
 1969SOL     OW 5907   2.181   2.672   2.811
 1969SOL    HW1 5908   2.274   2.708   2.816
 1969SOL    HW2 5909   2.175   2.587   2.863
 1970SOL     OW 5910   2.201   2.371   2.868
 1970SOL    HW1 5911   2.149   2.288   2.851
 1970SOL    HW2 5912   2.278   2.376   2.804
 1971SOL     OW 5913   3.000   2.242   3.540
 1971SOL    HW1 5914   2.955   2.305   3.604
 1971SOL    HW2 5915   3.093   2.273   3.523
 1972SOL     OW 5916   3.022   2.069   3.339
 1972SOL    HW1 5917   3.022   2.133   3.416
 1972SOL    HW2 5918   3.050   2.117   3.256
 1973SOL     OW 5919   1.870   3.188   2.062
 1973SOL    HW1 5920   1.777   3.209   2.031
 1973SOL    HW2 5921   1.880   3.089   2.075
 1974SOL     OW 5922   1.950   3.663   2.789
 1974SOL    HW1 5923   1.908   3.577   2.762
 1974SOL    HW2 5924   2.044   3.666   2.755
 1975SOL     OW 5925   2.366   3.430   2.772
 1975SOL    HW1 5926   2.432   3.504   2.781
 1975SOL    HW2 5927   2.410   3.351   2.730
 1976SOL     OW 5928   2.864   2.658   3.100
 1976SOL    HW1 5929   2.905   2.626   3.186
 1976SOL    HW2 5930   2.768   2.631   3.097
 1977SOL     OW 5931   1.902   2.406   2.976
 1977SOL    HW1 5932   1.987   2.373   2.935
 1977SOL    HW2 5933   1.915   2.421   3.074
 1978SOL     OW 5934   2.051   2.382   3.584
 1978SOL    HW1 5935   2.110   2.342   3.514
 1978SOL    HW2 5936   1.993   2.453   3.543
 1979SOL     OW 5937   3.231   2.812   3.522
 1979SOL    HW1 5938   3.270   2.901   3.542
 1979SOL    HW2 5939   3.241   2.792   3.425
 1980SOL     OW 5940   2.677   2.434   2.187
 1980SOL    HW1 5941   2.684   2.345   2.141
 1980SOL    HW2 5942   2.583   2.468   2.179
 1981SOL     OW 5943   3.519   2.466   3.068
 1981SOL    HW1 5944   3.481   2.397   3.130
 1981SOL    HW2 5945   3.601   2.430   3.024
 1982SOL     OW 5946   2.114   3.426   3.606
 1982SOL    HW1 5947   2.084   3.483   3.682
 1982SOL    HW2 5948   2.107   3.329   3.632
 1983SOL     OW 5949   2.533   2.326   3.131
 1983SOL    HW1 5950   2.499   2.237   3.101
 1983SOL    HW2 5951   2.559   2.380   3.051
 1984SOL     OW 5952   2.792   3.540   3.327
 1984SOL    HW1 5953   2.768   3.522   3.232
 1984SOL    HW2 5954   2.822   3.634   3.337
 1985SOL     OW 5955   2.335   2.362   2.053
 1985SOL    HW1 5956   2.396   2.442   2.057
 1985SOL    HW2 5957   2.240   2.393   2.060
 1986SOL     OW 5958   2.021   2.999   3.328
 1986SOL    HW1 5959   2.043   2.938   3.404
 1986SOL    HW2 5960   2.031   2.950   3.242
 1987SOL     OW 5961   3.209   2.921   3.096
 1987SOL    HW1 5962   3.233   2.858   3.022
 1987SOL    HW2 5963   3.119   2.961   3.078
 1988SOL     OW 5964   3.164   2.717   2.171
 1988SOL    HW1 5965   3.078   2.686   2.213
 1988SOL    HW2 5966   3.160   2.703   2.072
 1989SOL     OW 5967   3.621   3.609   3.016
 1989SOL    HW1 5968   3.682   3.639   2.943
 1989SOL    HW2 5969   3.583   3.520   2.994
 1990SOL     OW 5970   3.114   3.593   2.990
 1990SOL    HW1 5971   3.198   3.598   2.936
 1990SOL    HW2 5972   3.091   3.497   3.008
 1991SOL     OW 5973   1.945   3.120   2.884
 1991SOL    HW1 5974   1.940   3.119   2.984
 1991SOL    HW2 5975   1.862   3.079   2.846
 1992SOL     OW 5976   2.550   3.524   3.578
 1992SOL    HW1 5977   2.494   3.605   3.587
 1992SOL    HW2 5978   2.602   3.528   3.492
 1993SOL     OW 5979   3.588   1.997   2.385
 1993SOL    HW1 5980   3.661   1.980   2.318
 1993SOL    HW2 5981   3.557   1.910   2.423
 1994SOL     OW 5982   3.250   3.435   2.339
 1994SOL    HW1 5983   3.317   3.447   2.265
 1994SOL    HW2 5984   3.210   3.524   2.362
 1995SOL     OW 5985   1.992   3.656   3.713
 1995SOL    HW1 5986   1.951   3.582   3.766
 1995SOL    HW2 5987   2.056   3.707   3.771
 1996SOL     OW 5988   3.142   2.789   2.534
 1996SOL    HW1 5989   3.202   2.708   2.536
 1996SOL    HW2 5990   3.182   2.858   2.474
 1997SOL     OW 5991   2.692   3.135   3.284
 1997SOL    HW1 5992   2.687   3.168   3.379
 1997SOL    HW2 5993   2.606   3.154   3.238
 1998SOL     OW 5994   2.534   3.478   2.016
 1998SOL    HW1 5995   2.543   3.488   1.917
 1998SOL    HW2 5996   2.494   3.389   2.037
 1999SOL     OW 5997   3.512   3.582   3.256
 1999SOL    HW1 5998   3.565   3.592   3.172
 1999SOL    HW2 5999   3.485   3.672   3.290
 2000SOL     OW 6000   3.703   2.037   2.825
 2000SOL    HW1 6001   3.742   1.952   2.789
 2000SOL    HW2 6002   3.605   2.039   2.806
 2001SOL     OW 6003   2.125   2.188   2.582
 2001SOL    HW1 6004   2.046   2.239   2.548
 2001SOL    HW2 6005   2.116   2.173   2.680
 2002SOL     OW 6006   3.056   3.474   1.893
 2002SOL    HW1 6007   3.062   3.381   1.930
 2002SOL    HW2 6008   2.997   3.474   1.813
 2003SOL     OW 6009   2.684   2.864   3.234
 2003SOL    HW1 6010   2.724   2.863   3.142
 2003SOL    HW2 6011   2.694   2.956   3.274
 2004SOL     OW 6012   2.778   2.772   2.153
 2004SOL    HW1 6013   2.841   2.810   2.085
 2004SOL    HW2 6014   2.818   2.689   2.192
 2005SOL     OW 6015   3.366   3.469   1.906
 2005SOL    HW1 6016   3.274   3.506   1.913
 2005SOL    HW2 6017   3.404   3.489   1.816
 2006SOL     OW 6018   2.234   3.150   3.352
 2006SOL    HW1 6019   2.221   3.243   3.318
 2006SOL    HW2 6020   2.150   3.098   3.339
 2007SOL     OW 6021   3.476   3.154   3.151
 2007SOL    HW1 6022   3.536   3.157   3.231
 2007SOL    HW2 6023   3.401   3.218   3.164
 2008SOL     OW 6024   2.901   2.960   2.558
 2008SOL    HW1 6025   2.831   2.913   2.612
 2008SOL    HW2 6026   2.960   2.892   2.515
 2009SOL     OW 6027   2.876   2.098   2.833
 2009SOL    HW1 6028   2.868   2.062   2.740
 2009SOL    HW2 6029   2.874   2.022   2.898
 2010SOL     OW 6030   2.452   3.349   2.353
 2010SOL    HW1 6031   2.494   3.291   2.283
 2010SOL    HW2 6032   2.408   3.428   2.309
 2011SOL     OW 6033   3.571   2.247   3.243
 2011SOL    HW1 6034   3.644   2.316   3.247
 2011SOL    HW2 6035   3.599   2.172   3.184
 2012SOL     OW 6036   2.117   3.210   2.152
 2012SOL    HW1 6037   2.021   3.211   2.125
 2012SOL    HW2 6038   2.129   3.263   2.236
 2013SOL     OW 6039   1.967   2.875   3.588
 2013SOL    HW1 6040   1.890   2.842   3.642
 2013SOL    HW2 6041   2.052   2.845   3.630
 2014SOL     OW 6042   2.534   2.065   3.351
 2014SOL    HW1 6043   2.624   2.049   3.311
 2014SOL    HW2 6044   2.542   2.070   3.450
 2015SOL     OW 6045   1.937   2.207   1.895
 2015SOL    HW1 6046   1.845   2.179   1.866
 2015SOL    HW2 6047   1.968   2.284   1.839
 2016SOL     OW 6048   3.302   2.718   3.260
 2016SOL    HW1 6049   3.245   2.770   3.197
 2016SOL    HW2 6050   3.398   2.730   3.236
 2017SOL     OW 6051   1.934   2.028   2.180
 2017SOL    HW1 6052   1.917   2.111   2.126
 2017SOL    HW2 6053   2.024   1.991   2.158
 2018SOL     OW 6054   3.045   3.197   1.981
 2018SOL    HW1 6055   2.946   3.186   1.983
 2018SOL    HW2 6056   3.079   3.212   2.074
 2019SOL     OW 6057   2.475   2.704   3.293
 2019SOL    HW1 6058   2.531   2.785   3.276
 2019SOL    HW2 6059   2.534   2.624   3.296
 2020SOL     OW 6060   3.355   3.629   2.821
 2020SOL    HW1 6061   3.388   3.693   2.752
 2020SOL    HW2 6062   3.421   3.623   2.896
 2021SOL     OW 6063   2.578   2.427   3.570
 2021SOL    HW1 6064   2.597   2.492   3.644
 2021SOL    HW2 6065   2.638   2.347   3.579
 2022SOL     OW 6066   3.312   3.082   3.495
 2022SOL    HW1 6067   3.303   3.072   3.594
 2022SOL    HW2 6068   3.408   3.075   3.469
 2023SOL     OW 6069   2.252   3.603   3.422
 2023SOL    HW1 6070   2.161   3.644   3.420
 2023SOL    HW2 6071   2.245   3.509   3.454
 2024SOL     OW 6072   3.536   2.745   3.116
 2024SOL    HW1 6073   3.509   2.656   3.079
 2024SOL    HW2 6074   3.537   2.813   3.043
 2025SOL     OW 6075   3.087   2.187   2.311
 2025SOL    HW1 6076   3.152   2.113   2.300
 2025SOL    HW2 6077   3.107   2.237   2.395
 2026SOL     OW 6078   2.456   2.607   2.514
 2026SOL    HW1 6079   2.506   2.692   2.495
 2026SOL    HW2 6080   2.368   2.609   2.466
 2027SOL     OW 6081   3.639   2.204   3.504
 2027SOL    HW1 6082   3.622   2.235   3.410
 2027SOL    HW2 6083   3.555   2.167   3.542
 2028SOL     OW 6084   3.592   2.796   3.379
 2028SOL    HW1 6085   3.630   2.887   3.394
 2028SOL    HW2 6086   3.584   2.779   3.280
 2029SOL     OW 6087   2.721   3.236   1.878
 2029SOL    HW1 6088   2.675   3.251   1.966
 2029SOL    HW2 6089   2.765   3.321   1.848
 2030SOL     OW 6090   2.523   3.652   2.815
 2030SOL    HW1 6091   2.477   3.740   2.802
 2030SOL    HW2 6092   2.622   3.664   2.808
 2031SOL     OW 6093   2.721   2.818   2.723
 2031SOL    HW1 6094   2.775   2.749   2.771
 2031SOL    HW2 6095   2.689   2.887   2.789
 2032SOL     OW 6096   2.945   2.846   1.949
 2032SOL    HW1 6097   2.922   2.899   1.867
 2032SOL    HW2 6098   3.026   2.790   1.930
 2033SOL     OW 6099   3.723   3.431   2.713
 2033SOL    HW1 6100   3.652   3.419   2.643
 2033SOL    HW2 6101   3.724   3.352   2.773
 2034SOL     OW 6102   2.083   3.176   3.706
 2034SOL    HW1 6103   2.018   3.103   3.685
 2034SOL    HW2 6104   2.087   3.190   3.804
 2035SOL     OW 6105   1.941   3.102   2.515
 2035SOL    HW1 6106   1.940   3.055   2.603
 2035SOL    HW2 6107   2.023   3.074   2.464
 2036SOL     OW 6108   2.534   3.253   3.486
 2036SOL    HW1 6109   2.456   3.203   3.524
 2036SOL    HW2 6110   2.531   3.348   3.517
 2037SOL     OW 6111   3.686   2.054   3.089
 2037SOL    HW1 6112   3.682   1.964   3.133
 2037SOL    HW2 6113   3.689   2.043   2.990
 2038SOL     OW 6114   2.290   2.286   2.382
 2038SOL    HW1 6115   2.320   2.214   2.320
 2038SOL    HW2 6116   2.251   2.246   2.465
 2039SOL     OW 6117   3.567   3.349   2.966
 2039SOL    HW1 6118   3.474   3.324   2.939
 2039SOL    HW2 6119   3.593   3.299   3.048
 2040SOL     OW 6120   2.179   2.409   3.142
 2040SOL    HW1 6121   2.217   2.350   3.214
 2040SOL    HW2 6122   2.219   2.383   3.054
 2041SOL     OW 6123   2.674   3.448   2.549
 2041SOL    HW1 6124   2.706   3.458   2.455
 2041SOL    HW2 6125   2.595   3.386   2.551
 2042SOL     OW 6126   3.286   2.076   2.974
 2042SOL    HW1 6127   3.338   2.011   3.029
 2042SOL    HW2 6128   3.237   2.139   3.035
 2043SOL     OW 6129   2.863   1.896   3.016
 2043SOL    HW1 6130   2.800   1.824   2.985
 2043SOL    HW2 6131   2.956   1.860   3.016
 2044SOL     OW 6132   2.632   3.192   2.163
 2044SOL    HW1 6133   2.586   3.105   2.180
 2044SOL    HW2 6134   2.723   3.189   2.204
 2045SOL     OW 6135   2.480   3.429   3.146
 2045SOL    HW1 6136   2.475   3.511   3.203
 2045SOL    HW2 6137   2.569   3.426   3.101
 2046SOL     OW 6138   3.214   1.914   2.030
 2046SOL    HW1 6139   3.249   1.873   1.946
 2046SOL    HW2 6140   3.124   1.876   2.050
 2047SOL     OW 6141   3.162   2.315   2.553
 2047SOL    HW1 6142   3.103   2.395   2.557
 2047SOL    HW2 6143   3.177   2.280   2.646
 2048SOL     OW 6144   3.455   2.083   2.744
 2048SOL    HW1 6145   3.371   2.082   2.798
 2048SOL    HW2 6146   3.457   2.166   2.688
 2049SOL     OW 6147   1.901   2.939   2.162
 2049SOL    HW1 6148   2.000   2.928   2.153
 2049SOL    HW2 6149   1.861   2.853   2.194
 2050SOL     OW 6150   2.737   3.508   2.199
 2050SOL    HW1 6151   2.660   3.473   2.145
 2050SOL    HW2 6152   2.705   3.579   2.261
 2051SOL     OW 6153   2.092   2.490   3.837
 2051SOL    HW1 6154   1.999   2.488   3.874
 2051SOL    HW2 6155   2.093   2.451   3.745
 2052SOL     OW 6156   2.997   2.565   4.441
 2052SOL    HW1 6157   3.054   2.643   4.416
 2052SOL    HW2 6158   2.937   2.591   4.517
 2053SOL     OW 6159   3.617   2.469   3.955
 2053SOL    HW1 6160   3.605   2.456   3.856
 2053SOL    HW2 6161   3.587   2.388   4.004
 2054SOL     OW 6162   2.093   3.575   4.207
 2054SOL    HW1 6163   2.127   3.652   4.261
 2054SOL    HW2 6164   2.137   3.575   4.117
 2055SOL     OW 6165   2.092   3.296   4.262
 2055SOL    HW1 6166   2.066   3.392   4.262
 2055SOL    HW2 6167   2.021   3.242   4.307
 2056SOL     OW 6168   2.468   2.826   3.847
 2056SOL    HW1 6169   2.475   2.910   3.793
 2056SOL    HW2 6170   2.514   2.839   3.935
 2057SOL     OW 6171   3.704   3.629   4.083
 2057SOL    HW1 6172   3.758   3.600   4.163
 2057SOL    HW2 6173   3.734   3.719   4.054
 2058SOL     OW 6174   1.889   3.458   3.841
 2058SOL    HW1 6175   1.870   3.362   3.862
 2058SOL    HW2 6176   1.856   3.516   3.916
 2059SOL     OW 6177   3.551   2.784   4.336
 2059SOL    HW1 6178   3.646   2.755   4.344
 2059SOL    HW2 6179   3.543   2.849   4.261
 2060SOL     OW 6180   3.503   2.970   4.156
 2060SOL    HW1 6181   3.589   2.972   4.104
 2060SOL    HW2 6182   3.517   3.017   4.244
 2061SOL     OW 6183   2.671   1.866   4.226
 2061SOL    HW1 6184   2.711   1.957   4.217
 2061SOL    HW2 6185   2.571   1.874   4.232
 2062SOL     OW 6186   3.387   2.861   3.914
 2062SOL    HW1 6187   3.324   2.785   3.927
 2062SOL    HW2 6188   3.435   2.879   4.000
 2063SOL     OW 6189   2.460   2.591   3.994
 2063SOL    HW1 6190   2.484   2.660   3.926
 2063SOL    HW2 6191   2.382   2.624   4.048
 2064SOL     OW 6192   3.438   3.524   4.031
 2064SOL    HW1 6193   3.527   3.570   4.034
 2064SOL    HW2 6194   3.417   3.500   3.936
 2065SOL     OW 6195   2.727   2.210   3.919
 2065SOL    HW1 6196   2.786   2.273   3.870
 2065SOL    HW2 6197   2.746   2.116   3.890
 2066SOL     OW 6198   2.183   2.805   3.966
 2066SOL    HW1 6199   2.265   2.844   3.924
 2066SOL    HW2 6200   2.156   2.723   3.917
 2067SOL     OW 6201   3.320   2.597   4.452
 2067SOL    HW1 6202   3.315   2.532   4.527
 2067SOL    HW2 6203   3.400   2.656   4.465
 2068SOL     OW 6204   2.973   3.638   3.961
 2068SOL    HW1 6205   2.913   3.576   4.011
 2068SOL    HW2 6206   3.004   3.594   3.876
 2069SOL     OW 6207   3.494   3.239   3.805
 2069SOL    HW1 6208   3.462   3.333   3.795
 2069SOL    HW2 6209   3.418   3.176   3.793
 2070SOL     OW 6210   2.326   3.605   4.047
 2070SOL    HW1 6211   2.359   3.644   4.133
 2070SOL    HW2 6212   2.402   3.598   3.982
 2071SOL     OW 6213   3.262   1.969   4.150
 2071SOL    HW1 6214   3.238   1.932   4.060
 2071SOL    HW2 6215   3.361   1.985   4.154
 2072SOL     OW 6216   2.476   1.984   3.841
 2072SOL    HW1 6217   2.574   1.962   3.848
 2072SOL    HW2 6218   2.445   1.967   3.748
 2073SOL     OW 6219   3.296   3.050   3.765
 2073SOL    HW1 6220   3.328   2.974   3.822
 2073SOL    HW2 6221   3.204   3.077   3.795
 2074SOL     OW 6222   2.159   1.897   3.895
 2074SOL    HW1 6223   2.208   1.981   3.874
 2074SOL    HW2 6224   2.221   1.832   3.940
 2075SOL     OW 6225   2.797   2.098   4.204
 2075SOL    HW1 6226   2.749   2.139   4.126
 2075SOL    HW2 6227   2.896   2.096   4.185
 2076SOL     OW 6228   3.089   3.432   4.517
 2076SOL    HW1 6229   3.110   3.506   4.452
 2076SOL    HW2 6230   3.157   3.432   4.590
 2077SOL     OW 6231   2.321   3.014   4.465
 2077SOL    HW1 6232   2.250   2.987   4.530
 2077SOL    HW2 6233   2.295   2.986   4.372
 2078SOL     OW 6234   3.133   3.659   4.315
 2078SOL    HW1 6235   3.177   3.723   4.251
 2078SOL    HW2 6236   3.083   3.711   4.385
 2079SOL     OW 6237   2.894   2.411   3.740
 2079SOL    HW1 6238   2.853   2.493   3.701
 2079SOL    HW2 6239   2.958   2.437   3.813
 2080SOL     OW 6240   3.291   3.035   4.591
 2080SOL    HW1 6241   3.236   2.951   4.584
 2080SOL    HW2 6242   3.317   3.064   4.499
 2081SOL     OW 6243   3.719   2.695   4.101
 2081SOL    HW1 6244   3.761   2.631   4.165
 2081SOL    HW2 6245   3.681   2.644   4.023
 2082SOL     OW 6246   2.350   3.247   3.898
 2082SOL    HW1 6247   2.263   3.232   3.945
 2082SOL    HW2 6248   2.333   3.273   3.803
 2083SOL     OW 6249   3.252   2.437   3.802
 2083SOL    HW1 6250   3.198   2.416   3.883
 2083SOL    HW2 6251   3.343   2.396   3.811
 2084SOL     OW 6252   2.389   2.118   4.052
 2084SOL    HW1 6253   2.416   2.059   3.977
 2084SOL    HW2 6254   2.389   2.213   4.021
 2085SOL     OW 6255   2.567   2.912   4.092
 2085SOL    HW1 6256   2.553   2.919   4.191
 2085SOL    HW2 6257   2.651   2.861   4.074
 2086SOL     OW 6258   2.229   2.962   4.225
 2086SOL    HW1 6259   2.222   3.045   4.169
 2086SOL    HW2 6260   2.233   2.882   4.165
 2087SOL     OW 6261   3.114   3.210   4.112
 2087SOL    HW1 6262   3.164   3.287   4.152
 2087SOL    HW2 6263   3.019   3.212   4.144
 2088SOL     OW 6264   3.444   2.501   4.196
 2088SOL    HW1 6265   3.413   2.562   4.269
 2088SOL    HW2 6266   3.494   2.553   4.127
 2089SOL     OW 6267   3.071   2.387   3.999
 2089SOL    HW1 6268   3.084   2.303   4.053
 2089SOL    HW2 6269   3.042   2.461   4.059
 2090SOL     OW 6270   3.484   2.229   4.098
 2090SOL    HW1 6271   3.486   2.153   4.162
 2090SOL    HW2 6272   3.436   2.306   4.138
 2091SOL     OW 6273   3.402   2.136   3.849
 2091SOL    HW1 6274   3.341   2.061   3.872
 2091SOL    HW2 6275   3.424   2.188   3.932
 2092SOL     OW 6276   3.165   2.700   3.766
 2092SOL    HW1 6277   3.199   2.607   3.781
 2092SOL    HW2 6278   3.183   2.727   3.671
 2093SOL     OW 6279   1.870   3.188   3.924
 2093SOL    HW1 6280   1.777   3.209   3.893
 2093SOL    HW2 6281   1.880   3.089   3.937
 2094SOL     OW 6282   2.677   2.434   4.049
 2094SOL    HW1 6283   2.684   2.345   4.003
 2094SOL    HW2 6284   2.583   2.468   4.041
 2095SOL     OW 6285   2.335   2.362   3.915
 2095SOL    HW1 6286   2.396   2.442   3.919
 2095SOL    HW2 6287   2.240   2.393   3.922
 2096SOL     OW 6288   3.164   2.717   4.033
 2096SOL    HW1 6289   3.078   2.686   4.075
 2096SOL    HW2 6290   3.160   2.703   3.934
 2097SOL     OW 6291   3.588   1.997   4.247
 2097SOL    HW1 6292   3.661   1.980   4.180
 2097SOL    HW2 6293   3.557   1.910   4.285
 2098SOL     OW 6294   2.534   3.478   3.878
 2098SOL    HW1 6295   2.543   3.488   3.779
 2098SOL    HW2 6296   2.494   3.389   3.899
 2099SOL     OW 6297   2.125   2.188   4.444
 2099SOL    HW1 6298   2.046   2.239   4.410
 2099SOL    HW2 6299   2.116   2.173   4.542
 2100SOL     OW 6300   3.056   3.474   3.755
 2100SOL    HW1 6301   3.062   3.381   3.792
 2100SOL    HW2 6302   2.997   3.474   3.675
 2101SOL     OW 6303   2.778   2.772   4.015
 2101SOL    HW1 6304   2.841   2.810   3.947
 2101SOL    HW2 6305   2.818   2.689   4.054
 2102SOL     OW 6306   3.366   3.469   3.768
 2102SOL    HW1 6307   3.274   3.506   3.775
 2102SOL    HW2 6308   3.404   3.489   3.678
 2103SOL     OW 6309   2.452   3.349   4.215
 2103SOL    HW1 6310   2.494   3.291   4.145
 2103SOL    HW2 6311   2.408   3.428   4.171
 2104SOL     OW 6312   2.117   3.210   4.014
 2104SOL    HW1 6313   2.021   3.211   3.987
 2104SOL    HW2 6314   2.129   3.263   4.098
 2105SOL     OW 6315   1.937   2.207   3.757
 2105SOL    HW1 6316   1.845   2.179   3.728
 2105SOL    HW2 6317   1.968   2.284   3.701
 2106SOL     OW 6318   1.934   2.028   4.042
 2106SOL    HW1 6319   1.917   2.111   3.988
 2106SOL    HW2 6320   2.024   1.991   4.020
 2107SOL     OW 6321   3.045   3.197   3.843
 2107SOL    HW1 6322   2.946   3.186   3.845
 2107SOL    HW2 6323   3.079   3.212   3.936
 2108SOL     OW 6324   3.087   2.187   4.173
 2108SOL    HW1 6325   3.152   2.113   4.162
 2108SOL    HW2 6326   3.107   2.237   4.257
 2109SOL     OW 6327   2.721   3.236   3.740
 2109SOL    HW1 6328   2.675   3.251   3.828
 2109SOL    HW2 6329   2.765   3.321   3.710
 2110SOL     OW 6330   2.945   2.846   3.811
 2110SOL    HW1 6331   2.922   2.899   3.729
 2110SOL    HW2 6332   3.026   2.790   3.792
 2111SOL     OW 6333   2.290   2.286   4.244
 2111SOL    HW1 6334   2.320   2.214   4.182
 2111SOL    HW2 6335   2.251   2.246   4.327
 2112SOL     OW 6336   2.632   3.192   4.025
 2112SOL    HW1 6337   2.586   3.105   4.042
 2112SOL    HW2 6338   2.723   3.189   4.066
 2113SOL     OW 6339   3.214   1.914   3.892
 2113SOL    HW1 6340   3.249   1.873   3.808
 2113SOL    HW2 6341   3.124   1.876   3.912
 2114SOL     OW 6342   1.901   2.939   4.024
 2114SOL    HW1 6343   2.000   2.928   4.015
 2114SOL    HW2 6344   1.861   2.853   4.056
 2115SOL     OW 6345   2.737   3.508   4.061
 2115SOL    HW1 6346   2.660   3.473   4.007
 2115SOL    HW2 6347   2.705   3.579   4.123
 2116SOL     OW 6348   2.087   3.999   0.996
 2116SOL    HW1 6349   2.122   3.982   1.088
 2116SOL    HW2 6350   1.999   3.954   0.984
 2117SOL     OW 6351   1.881   4.092   0.647
 2117SOL    HW1 6352   1.799   4.135   0.686
 2117SOL    HW2 6353   1.853   4.019   0.584
 2118SOL     OW 6354   2.300   4.116   1.499
 2118SOL    HW1 6355   2.382   4.060   1.508
 2118SOL    HW2 6356   2.219   4.058   1.503
 2119SOL     OW 6357   3.465   4.171   0.737
 2119SOL    HW1 6358   3.391   4.217   0.687
 2119SOL    HW2 6359   3.516   4.239   0.790
 2120SOL     OW 6360   3.456   3.838   1.480
 2120SOL    HW1 6361   3.438   3.905   1.408
 2120SOL    HW2 6362   3.453   3.884   1.569
 2121SOL     OW 6363   1.984   4.367   0.563
 2121SOL    HW1 6364   1.939   4.279   0.580
 2121SOL    HW2 6365   1.983   4.421   0.647
 2122SOL     OW 6366   2.671   3.728   0.502
 2122SOL    HW1 6367   2.711   3.819   0.493
 2122SOL    HW2 6368   2.571   3.736   0.508
 2123SOL     OW 6369   2.179   3.975   1.801
 2123SOL    HW1 6370   2.250   4.046   1.807
 2123SOL    HW2 6371   2.091   4.014   1.829
 2124SOL     OW 6372   3.143   4.069   0.944
 2124SOL    HW1 6373   3.057   4.019   0.931
 2124SOL    HW2 6374   3.205   4.015   1.000
 2125SOL     OW 6375   3.256   4.193   1.674
 2125SOL    HW1 6376   3.236   4.236   1.762
 2125SOL    HW2 6377   3.334   4.131   1.683
 2126SOL     OW 6378   2.835   4.614   1.572
 2126SOL    HW1 6379   2.881   4.530   1.543
 2126SOL    HW2 6380   2.779   4.648   1.497
 2127SOL     OW 6381   2.853   4.134   1.242
 2127SOL    HW1 6382   2.776   4.168   1.296
 2127SOL    HW2 6383   2.819   4.083   1.163
 2128SOL     OW 6384   2.727   4.072   0.195
 2128SOL    HW1 6385   2.786   4.135   0.146
 2128SOL    HW2 6386   2.746   3.978   0.166
 2129SOL     OW 6387   3.581   4.309   1.831
 2129SOL    HW1 6388   3.555   4.398   1.795
 2129SOL    HW2 6389   3.579   4.241   1.758
 2130SOL     OW 6390   2.412   3.920   0.885
 2130SOL    HW1 6391   2.407   3.915   0.985
 2130SOL    HW2 6392   2.414   4.016   0.856
 2131SOL     OW 6393   2.064   4.009   1.498
 2131SOL    HW1 6394   1.984   4.069   1.485
 2131SOL    HW2 6395   2.054   3.960   1.584
 2132SOL     OW 6396   3.262   3.831   0.426
 2132SOL    HW1 6397   3.238   3.794   0.336
 2132SOL    HW2 6398   3.361   3.847   0.430
 2133SOL     OW 6399   3.409   3.946   1.729
 2133SOL    HW1 6400   3.404   3.983   1.821
 2133SOL    HW2 6401   3.337   3.877   1.717
 2134SOL     OW 6402   2.476   3.846   0.117
 2134SOL    HW1 6403   2.574   3.824   0.124
 2134SOL    HW2 6404   2.445   3.829   0.024
 2135SOL     OW 6405   2.643   3.988   1.749
 2135SOL    HW1 6406   2.710   3.927   1.792
 2135SOL    HW2 6407   2.570   4.007   1.814
 2136SOL     OW 6408   3.213   4.314   1.433
 2136SOL    HW1 6409   3.241   4.271   1.518
 2136SOL    HW2 6410   3.238   4.410   1.434
 2137SOL     OW 6411   2.401   3.788   0.512
 2137SOL    HW1 6412   2.320   3.789   0.570
 2137SOL    HW2 6413   2.404   3.871   0.457
 2138SOL     OW 6414   2.159   3.759   0.171
 2138SOL    HW1 6415   2.208   3.843   0.150
 2138SOL    HW2 6416   2.221   3.694   0.216
 2139SOL     OW 6417   2.797   3.960   0.480
 2139SOL    HW1 6418   2.749   4.001   0.402
 2139SOL    HW2 6419   2.896   3.958   0.461
 2140SOL     OW 6420   1.940   4.280   1.386
 2140SOL    HW1 6421   2.032   4.279   1.345
 2140SOL    HW2 6422   1.934   4.354   1.453
 2141SOL     OW 6423   2.423   3.946   1.147
 2141SOL    HW1 6424   2.461   3.862   1.184
 2141SOL    HW2 6425   2.335   3.965   1.191
 2142SOL     OW 6426   2.879   3.763   0.753
 2142SOL    HW1 6427   2.807   3.768   0.684
 2142SOL    HW2 6428   2.855   3.694   0.822
 2143SOL     OW 6429   3.328   4.314   0.992
 2143SOL    HW1 6430   3.298   4.219   0.999
 2143SOL    HW2 6431   3.401   4.330   1.058
 2144SOL     OW 6432   2.389   3.980   0.328
 2144SOL    HW1 6433   2.416   3.921   0.253
 2144SOL    HW2 6434   2.389   4.075   0.297
 2145SOL     OW 6435   2.777   3.813   1.402
 2145SOL    HW1 6436   2.802   3.793   1.307
 2145SOL    HW2 6437   2.849   3.869   1.444
 2146SOL     OW 6438   3.136   4.110   1.262
 2146SOL    HW1 6439   3.157   4.184   1.326
 2146SOL    HW2 6440   3.047   4.127   1.219
 2147SOL     OW 6441   2.428   4.261   0.865
 2147SOL    HW1 6442   2.440   4.327   0.791
 2147SOL    HW2 6443   2.474   4.295   0.948
 2148SOL     OW 6444   2.875   3.829   1.770
 2148SOL    HW1 6445   2.881   3.914   1.718
 2148SOL    HW2 6446   2.907   3.753   1.713
 2149SOL     OW 6447   2.366   3.774   1.740
 2149SOL    HW1 6448   2.324   3.717   1.670
 2149SOL    HW2 6449   2.300   3.843   1.772
 2150SOL     OW 6450   2.169   3.937   1.231
 2150SOL    HW1 6451   2.146   3.974   1.321
 2150SOL    HW2 6452   2.139   3.842   1.225
 2151SOL     OW 6453   2.594   4.358   1.064
 2151SOL    HW1 6454   2.653   4.332   0.988
 2151SOL    HW2 6455   2.566   4.454   1.053
 2152SOL     OW 6456   2.169   3.787   0.618
 2152SOL    HW1 6457   2.158   3.881   0.651
 2152SOL    HW2 6458   2.164   3.724   0.695
 2153SOL     OW 6459   3.484   4.091   0.374
 2153SOL    HW1 6460   3.486   4.015   0.438
 2153SOL    HW2 6461   3.436   4.168   0.414
 2154SOL     OW 6462   3.402   3.998   0.125
 2154SOL    HW1 6463   3.341   3.923   0.148
 2154SOL    HW2 6464   3.424   4.050   0.208
 2155SOL     OW 6465   2.201   4.233   1.006
 2155SOL    HW1 6466   2.149   4.150   0.989
 2155SOL    HW2 6467   2.278   4.238   0.942
 2156SOL     OW 6468   3.000   4.104   1.678
 2156SOL    HW1 6469   2.955   4.167   1.742
 2156SOL    HW2 6470   3.093   4.135   1.661
 2157SOL     OW 6471   3.022   3.931   1.477
 2157SOL    HW1 6472   3.022   3.995   1.554
 2157SOL    HW2 6473   3.050   3.979   1.394
 2158SOL     OW 6474   1.902   4.268   1.114
 2158SOL    HW1 6475   1.987   4.235   1.073
 2158SOL    HW2 6476   1.915   4.283   1.212
 2159SOL     OW 6477   2.051   4.244   1.722
 2159SOL    HW1 6478   2.110   4.204   1.652
 2159SOL    HW2 6479   1.993   4.315   1.681
 2160SOL     OW 6480   2.677   4.296   0.325
 2160SOL    HW1 6481   2.684   4.207   0.279
 2160SOL    HW2 6482   2.583   4.330   0.317
 2161SOL     OW 6483   3.519   4.328   1.206
 2161SOL    HW1 6484   3.481   4.259   1.268
 2161SOL    HW2 6485   3.601   4.292   1.162
 2162SOL     OW 6486   2.533   4.188   1.269
 2162SOL    HW1 6487   2.499   4.099   1.239
 2162SOL    HW2 6488   2.559   4.242   1.189
 2163SOL     OW 6489   2.765   3.810   0.133
 2163SOL    HW1 6490   2.816   3.811   0.047
 2163SOL    HW2 6491   2.821   3.768   0.204
 2164SOL     OW 6492   3.588   3.859   0.523
 2164SOL    HW1 6493   3.661   3.842   0.456
 2164SOL    HW2 6494   3.557   3.772   0.561
 2165SOL     OW 6495   3.703   3.899   0.963
 2165SOL    HW1 6496   3.742   3.814   0.927
 2165SOL    HW2 6497   3.605   3.901   0.944
 2166SOL     OW 6498   2.125   4.050   0.720
 2166SOL    HW1 6499   2.046   4.101   0.686
 2166SOL    HW2 6500   2.116   4.035   0.818
 2167SOL     OW 6501   2.876   3.960   0.971
 2167SOL    HW1 6502   2.868   3.924   0.878
 2167SOL    HW2 6503   2.874   3.884   1.036
 2168SOL     OW 6504   3.571   4.109   1.381
 2168SOL    HW1 6505   3.644   4.178   1.385
 2168SOL    HW2 6506   3.599   4.034   1.322
 2169SOL     OW 6507   2.534   3.927   1.489
 2169SOL    HW1 6508   2.624   3.911   1.449
 2169SOL    HW2 6509   2.542   3.932   1.588
 2170SOL     OW 6510   1.937   4.069   0.033
 2170SOL    HW1 6511   1.845   4.041   0.004
 2170SOL    HW2 6512   1.968   4.146  -0.023
 2171SOL     OW 6513   1.934   3.890   0.318
 2171SOL    HW1 6514   1.917   3.973   0.264
 2171SOL    HW2 6515   2.024   3.853   0.296
 2172SOL     OW 6516   2.578   4.289   1.708
 2172SOL    HW1 6517   2.597   4.354   1.782
 2172SOL    HW2 6518   2.638   4.209   1.717
 2173SOL     OW 6519   3.087   4.049   0.449
 2173SOL    HW1 6520   3.152   3.975   0.438
 2173SOL    HW2 6521   3.107   4.099   0.533
 2174SOL     OW 6522   2.456   4.469   0.652
 2174SOL    HW1 6523   2.506   4.554   0.633
 2174SOL    HW2 6524   2.368   4.471   0.604
 2175SOL     OW 6525   3.639   4.066   1.642
 2175SOL    HW1 6526   3.622   4.097   1.548
 2175SOL    HW2 6527   3.555   4.029   1.680
 2176SOL     OW 6528   3.686   3.916   1.227
 2176SOL    HW1 6529   3.682   3.826   1.271
 2176SOL    HW2 6530   3.689   3.905   1.128
 2177SOL     OW 6531   2.290   4.148   0.520
 2177SOL    HW1 6532   2.320   4.076   0.458
 2177SOL    HW2 6533   2.251   4.108   0.603
 2178SOL     OW 6534   3.286   3.938   1.112
 2178SOL    HW1 6535   3.338   3.873   1.167
 2178SOL    HW2 6536   3.237   4.001   1.173
 2179SOL     OW 6537   2.863   3.758   1.154
 2179SOL    HW1 6538   2.800   3.686   1.123
 2179SOL    HW2 6539   2.956   3.722   1.154
 2180SOL     OW 6540   3.162   4.177   0.691
 2180SOL    HW1 6541   3.103   4.257   0.695
 2180SOL    HW2 6542   3.177   4.142   0.784
 2181SOL     OW 6543   3.455   3.945   0.882
 2181SOL    HW1 6544   3.371   3.944   0.936
 2181SOL    HW2 6545   3.457   4.028   0.826
 2182SOL     OW 6546   2.087   3.999   2.858
 2182SOL    HW1 6547   2.122   3.982   2.950
 2182SOL    HW2 6548   1.999   3.954   2.846
 2183SOL     OW 6549   1.881   4.092   2.509
 2183SOL    HW1 6550   1.799   4.135   2.548
 2183SOL    HW2 6551   1.853   4.019   2.446
 2184SOL     OW 6552   3.617   4.331   2.093
 2184SOL    HW1 6553   3.605   4.318   1.994
 2184SOL    HW2 6554   3.587   4.250   2.142
 2185SOL     OW 6555   2.300   4.116   3.361
 2185SOL    HW1 6556   2.382   4.060   3.370
 2185SOL    HW2 6557   2.219   4.058   3.365
 2186SOL     OW 6558   3.465   4.171   2.599
 2186SOL    HW1 6559   3.391   4.217   2.549
 2186SOL    HW2 6560   3.516   4.239   2.652
 2187SOL     OW 6561   3.456   3.838   3.342
 2187SOL    HW1 6562   3.438   3.905   3.270
 2187SOL    HW2 6563   3.453   3.884   3.431
 2188SOL     OW 6564   1.984   4.367   2.425
 2188SOL    HW1 6565   1.939   4.279   2.442
 2188SOL    HW2 6566   1.983   4.421   2.509
 2189SOL     OW 6567   2.671   3.728   2.364
 2189SOL    HW1 6568   2.711   3.819   2.355
 2189SOL    HW2 6569   2.571   3.736   2.370
 2190SOL     OW 6570   2.179   3.975   3.663
 2190SOL    HW1 6571   2.250   4.046   3.669
 2190SOL    HW2 6572   2.091   4.014   3.691
 2191SOL     OW 6573   3.143   4.069   2.806
 2191SOL    HW1 6574   3.057   4.019   2.793
 2191SOL    HW2 6575   3.205   4.015   2.862
 2192SOL     OW 6576   3.256   4.193   3.536
 2192SOL    HW1 6577   3.236   4.236   3.624
 2192SOL    HW2 6578   3.334   4.131   3.545
 2193SOL     OW 6579   2.835   4.614   3.434
 2193SOL    HW1 6580   2.881   4.530   3.405
 2193SOL    HW2 6581   2.779   4.648   3.359
 2194SOL     OW 6582   2.853   4.134   3.104
 2194SOL    HW1 6583   2.776   4.168   3.158
 2194SOL    HW2 6584   2.819   4.083   3.025
 2195SOL     OW 6585   2.727   4.072   2.057
 2195SOL    HW1 6586   2.786   4.135   2.008
 2195SOL    HW2 6587   2.746   3.978   2.028
 2196SOL     OW 6588   3.581   4.309   3.693
 2196SOL    HW1 6589   3.555   4.398   3.657
 2196SOL    HW2 6590   3.579   4.241   3.620
 2197SOL     OW 6591   2.412   3.920   2.747
 2197SOL    HW1 6592   2.407   3.915   2.847
 2197SOL    HW2 6593   2.414   4.016   2.718
 2198SOL     OW 6594   2.064   4.009   3.360
 2198SOL    HW1 6595   1.984   4.069   3.347
 2198SOL    HW2 6596   2.054   3.960   3.446
 2199SOL     OW 6597   3.262   3.831   2.288
 2199SOL    HW1 6598   3.238   3.794   2.198
 2199SOL    HW2 6599   3.361   3.847   2.292
 2200SOL     OW 6600   3.409   3.946   3.591
 2200SOL    HW1 6601   3.404   3.983   3.683
 2200SOL    HW2 6602   3.337   3.877   3.579
 2201SOL     OW 6603   2.476   3.846   1.979
 2201SOL    HW1 6604   2.574   3.824   1.986
 2201SOL    HW2 6605   2.445   3.829   1.886
 2202SOL     OW 6606   2.643   3.988   3.611
 2202SOL    HW1 6607   2.710   3.927   3.654
 2202SOL    HW2 6608   2.570   4.007   3.676
 2203SOL     OW 6609   3.213   4.314   3.295
 2203SOL    HW1 6610   3.241   4.271   3.380
 2203SOL    HW2 6611   3.238   4.410   3.296
 2204SOL     OW 6612   2.401   3.788   2.374
 2204SOL    HW1 6613   2.320   3.789   2.432
 2204SOL    HW2 6614   2.404   3.871   2.319
 2205SOL     OW 6615   2.159   3.759   2.033
 2205SOL    HW1 6616   2.208   3.843   2.012
 2205SOL    HW2 6617   2.221   3.694   2.078
 2206SOL     OW 6618   2.797   3.960   2.342
 2206SOL    HW1 6619   2.749   4.001   2.264
 2206SOL    HW2 6620   2.896   3.958   2.323
 2207SOL     OW 6621   1.940   4.280   3.248
 2207SOL    HW1 6622   2.032   4.279   3.207
 2207SOL    HW2 6623   1.934   4.354   3.315
 2208SOL     OW 6624   2.423   3.946   3.009
 2208SOL    HW1 6625   2.461   3.862   3.046
 2208SOL    HW2 6626   2.335   3.965   3.053
 2209SOL     OW 6627   2.879   3.763   2.615
 2209SOL    HW1 6628   2.807   3.768   2.546
 2209SOL    HW2 6629   2.855   3.694   2.684
 2210SOL     OW 6630   3.328   4.314   2.854
 2210SOL    HW1 6631   3.298   4.219   2.861
 2210SOL    HW2 6632   3.401   4.330   2.920
 2211SOL     OW 6633   2.389   3.980   2.190
 2211SOL    HW1 6634   2.416   3.921   2.115
 2211SOL    HW2 6635   2.389   4.075   2.159
 2212SOL     OW 6636   2.777   3.813   3.264
 2212SOL    HW1 6637   2.802   3.793   3.169
 2212SOL    HW2 6638   2.849   3.869   3.306
 2213SOL     OW 6639   3.136   4.110   3.124
 2213SOL    HW1 6640   3.157   4.184   3.188
 2213SOL    HW2 6641   3.047   4.127   3.081
 2214SOL     OW 6642   2.428   4.261   2.727
 2214SOL    HW1 6643   2.440   4.327   2.653
 2214SOL    HW2 6644   2.474   4.295   2.810
 2215SOL     OW 6645   2.875   3.829   3.632
 2215SOL    HW1 6646   2.881   3.914   3.580
 2215SOL    HW2 6647   2.907   3.753   3.575
 2216SOL     OW 6648   2.366   3.774   3.602
 2216SOL    HW1 6649   2.324   3.717   3.532
 2216SOL    HW2 6650   2.300   3.843   3.634
 2217SOL     OW 6651   2.169   3.937   3.093
 2217SOL    HW1 6652   2.146   3.974   3.183
 2217SOL    HW2 6653   2.139   3.842   3.087
 2218SOL     OW 6654   2.594   4.358   2.926
 2218SOL    HW1 6655   2.653   4.332   2.850
 2218SOL    HW2 6656   2.566   4.454   2.915
 2219SOL     OW 6657   2.169   3.787   2.480
 2219SOL    HW1 6658   2.158   3.881   2.513
 2219SOL    HW2 6659   2.164   3.724   2.557
 2220SOL     OW 6660   3.484   4.091   2.236
 2220SOL    HW1 6661   3.486   4.015   2.300
 2220SOL    HW2 6662   3.436   4.168   2.276
 2221SOL     OW 6663   3.402   3.998   1.987
 2221SOL    HW1 6664   3.341   3.923   2.010
 2221SOL    HW2 6665   3.424   4.050   2.070
 2222SOL     OW 6666   3.165   4.562   1.904
 2222SOL    HW1 6667   3.199   4.469   1.919
 2222SOL    HW2 6668   3.183   4.589   1.809
 2223SOL     OW 6669   2.201   4.233   2.868
 2223SOL    HW1 6670   2.149   4.150   2.851
 2223SOL    HW2 6671   2.278   4.238   2.804
 2224SOL     OW 6672   3.000   4.104   3.540
 2224SOL    HW1 6673   2.955   4.167   3.604
 2224SOL    HW2 6674   3.093   4.135   3.523
 2225SOL     OW 6675   3.022   3.931   3.339
 2225SOL    HW1 6676   3.022   3.995   3.416
 2225SOL    HW2 6677   3.050   3.979   3.256
 2226SOL     OW 6678   1.902   4.268   2.976
 2226SOL    HW1 6679   1.987   4.235   2.935
 2226SOL    HW2 6680   1.915   4.283   3.074
 2227SOL     OW 6681   2.051   4.244   3.584
 2227SOL    HW1 6682   2.110   4.204   3.514
 2227SOL    HW2 6683   1.993   4.315   3.543
 2228SOL     OW 6684   2.677   4.296   2.187
 2228SOL    HW1 6685   2.684   4.207   2.141
 2228SOL    HW2 6686   2.583   4.330   2.179
 2229SOL     OW 6687   3.519   4.328   3.068
 2229SOL    HW1 6688   3.481   4.259   3.130
 2229SOL    HW2 6689   3.601   4.292   3.024
 2230SOL     OW 6690   2.533   4.188   3.131
 2230SOL    HW1 6691   2.499   4.099   3.101
 2230SOL    HW2 6692   2.559   4.242   3.051
 2231SOL     OW 6693   3.588   3.859   2.385
 2231SOL    HW1 6694   3.661   3.842   2.318
 2231SOL    HW2 6695   3.557   3.772   2.423
 2232SOL     OW 6696   3.703   3.899   2.825
 2232SOL    HW1 6697   3.742   3.814   2.789
 2232SOL    HW2 6698   3.605   3.901   2.806
 2233SOL     OW 6699   2.125   4.050   2.582
 2233SOL    HW1 6700   2.046   4.101   2.548
 2233SOL    HW2 6701   2.116   4.035   2.680
 2234SOL     OW 6702   2.876   3.960   2.833
 2234SOL    HW1 6703   2.868   3.924   2.740
 2234SOL    HW2 6704   2.874   3.884   2.898
 2235SOL     OW 6705   3.571   4.109   3.243
 2235SOL    HW1 6706   3.644   4.178   3.247
 2235SOL    HW2 6707   3.599   4.034   3.184
 2236SOL     OW 6708   2.534   3.927   3.351
 2236SOL    HW1 6709   2.624   3.911   3.311
 2236SOL    HW2 6710   2.542   3.932   3.450
 2237SOL     OW 6711   1.937   4.069   1.895
 2237SOL    HW1 6712   1.845   4.041   1.866
 2237SOL    HW2 6713   1.968   4.146   1.839
 2238SOL     OW 6714   1.934   3.890   2.180
 2238SOL    HW1 6715   1.917   3.973   2.126
 2238SOL    HW2 6716   2.024   3.853   2.158
 2239SOL     OW 6717   2.578   4.289   3.570
 2239SOL    HW1 6718   2.597   4.354   3.644
 2239SOL    HW2 6719   2.638   4.209   3.579
 2240SOL     OW 6720   3.087   4.049   2.311
 2240SOL    HW1 6721   3.152   3.975   2.300
 2240SOL    HW2 6722   3.107   4.099   2.395
 2241SOL     OW 6723   2.456   4.469   2.514
 2241SOL    HW1 6724   2.506   4.554   2.495
 2241SOL    HW2 6725   2.368   4.471   2.466
 2242SOL     OW 6726   3.639   4.066   3.504
 2242SOL    HW1 6727   3.622   4.097   3.410
 2242SOL    HW2 6728   3.555   4.029   3.542
 2243SOL     OW 6729   3.686   3.916   3.089
 2243SOL    HW1 6730   3.682   3.826   3.133
 2243SOL    HW2 6731   3.689   3.905   2.990
 2244SOL     OW 6732   2.290   4.148   2.382
 2244SOL    HW1 6733   2.320   4.076   2.320
 2244SOL    HW2 6734   2.251   4.108   2.465
 2245SOL     OW 6735   3.286   3.938   2.974
 2245SOL    HW1 6736   3.338   3.873   3.029
 2245SOL    HW2 6737   3.237   4.001   3.035
 2246SOL     OW 6738   2.863   3.758   3.016
 2246SOL    HW1 6739   2.800   3.686   2.985
 2246SOL    HW2 6740   2.956   3.722   3.016
 2247SOL     OW 6741   3.214   3.776   2.030
 2247SOL    HW1 6742   3.249   3.735   1.946
 2247SOL    HW2 6743   3.124   3.738   2.050
 2248SOL     OW 6744   3.162   4.177   2.553
 2248SOL    HW1 6745   3.103   4.257   2.557
 2248SOL    HW2 6746   3.177   4.142   2.646
 2249SOL     OW 6747   3.455   3.945   2.744
 2249SOL    HW1 6748   3.371   3.944   2.798
 2249SOL    HW2 6749   3.457   4.028   2.688
 2250SOL     OW 6750   2.997   4.427   4.441
 2250SOL    HW1 6751   3.054   4.505   4.416
 2250SOL    HW2 6752   2.937   4.453   4.517
 2251SOL     OW 6753   3.617   4.331   3.955
 2251SOL    HW1 6754   3.605   4.318   3.856
 2251SOL    HW2 6755   3.587   4.250   4.004
 2252SOL     OW 6756   1.984   4.367   4.287
 2252SOL    HW1 6757   1.939   4.279   4.304
 2252SOL    HW2 6758   1.983   4.421   4.371
 2253SOL     OW 6759   2.671   3.728   4.226
 2253SOL    HW1 6760   2.711   3.819   4.217
 2253SOL    HW2 6761   2.571   3.736   4.232
 2254SOL     OW 6762   2.727   4.072   3.919
 2254SOL    HW1 6763   2.786   4.135   3.870
 2254SOL    HW2 6764   2.746   3.978   3.890
 2255SOL     OW 6765   3.262   3.831   4.150
 2255SOL    HW1 6766   3.238   3.794   4.060
 2255SOL    HW2 6767   3.361   3.847   4.154
 2256SOL     OW 6768   2.244   4.424   4.204
 2256SOL    HW1 6769   2.289   4.334   4.201
 2256SOL    HW2 6770   2.150   4.413   4.237
 2257SOL     OW 6771   2.476   3.846   3.841
 2257SOL    HW1 6772   2.574   3.824   3.848
 2257SOL    HW2 6773   2.445   3.829   3.748
 2258SOL     OW 6774   2.159   3.759   3.895
 2258SOL    HW1 6775   2.208   3.843   3.874
 2258SOL    HW2 6776   2.221   3.694   3.940
 2259SOL     OW 6777   2.797   3.960   4.204
 2259SOL    HW1 6778   2.749   4.001   4.126
 2259SOL    HW2 6779   2.896   3.958   4.185
 2260SOL     OW 6780   2.389   3.980   4.052
 2260SOL    HW1 6781   2.416   3.921   3.977
 2260SOL    HW2 6782   2.389   4.075   4.021
 2261SOL     OW 6783   3.484   4.091   4.098
 2261SOL    HW1 6784   3.486   4.015   4.162
 2261SOL    HW2 6785   3.436   4.168   4.138
 2262SOL     OW 6786   3.402   3.998   3.849
 2262SOL    HW1 6787   3.341   3.923   3.872
 2262SOL    HW2 6788   3.424   4.050   3.932
 2263SOL     OW 6789   3.165   4.562   3.766
 2263SOL    HW1 6790   3.199   4.469   3.781
 2263SOL    HW2 6791   3.183   4.589   3.671
 2264SOL     OW 6792   2.677   4.296   4.049
 2264SOL    HW1 6793   2.684   4.207   4.003
 2264SOL    HW2 6794   2.583   4.330   4.041
 2265SOL     OW 6795   3.588   3.859   4.247
 2265SOL    HW1 6796   3.661   3.842   4.180
 2265SOL    HW2 6797   3.557   3.772   4.285
 2266SOL     OW 6798   2.125   4.050   4.444
 2266SOL    HW1 6799   2.046   4.101   4.410
 2266SOL    HW2 6800   2.116   4.035   4.542
 2267SOL     OW 6801   1.937   4.069   3.757
 2267SOL    HW1 6802   1.845   4.041   3.728
 2267SOL    HW2 6803   1.968   4.146   3.701
 2268SOL     OW 6804   1.934   3.890   4.042
 2268SOL    HW1 6805   1.917   3.973   3.988
 2268SOL    HW2 6806   2.024   3.853   4.020
 2269SOL     OW 6807   3.087   4.049   4.173
 2269SOL    HW1 6808   3.152   3.975   4.162
 2269SOL    HW2 6809   3.107   4.099   4.257
 2270SOL     OW 6810   2.290   4.148   4.244
 2270SOL    HW1 6811   2.320   4.076   4.182
 2270SOL    HW2 6812   2.251   4.108   4.327
 2271SOL     OW 6813   3.214   3.776   3.892
 2271SOL    HW1 6814   3.249   3.735   3.808
 2271SOL    HW2 6815   3.124   3.738   3.912
 2272SOL     OW 6816   3.954   0.628   0.113
 2272SOL    HW1 6817   3.861   0.626   0.150
 2272SOL    HW2 6818   3.955   0.589   0.021
 2273SOL     OW 6819   3.949   0.275   0.996
 2273SOL    HW1 6820   3.984   0.258   1.088
 2273SOL    HW2 6821   3.861   0.230   0.984
 2274SOL     OW 6822   3.743   0.368   0.647
 2274SOL    HW1 6823   3.661   0.411   0.686
 2274SOL    HW2 6824   3.715   0.295   0.584
 2275SOL     OW 6825   4.059   1.435   1.061
 2275SOL    HW1 6826   3.981   1.404   1.008
 2275SOL    HW2 6827   4.117   1.493   1.004
 2276SOL     OW 6828   4.162   0.392   1.499
 2276SOL    HW1 6829   4.244   0.336   1.508
 2276SOL    HW2 6830   4.081   0.334   1.503
 2277SOL     OW 6831   3.955   1.713   0.483
 2277SOL    HW1 6832   3.989   1.790   0.537
 2277SOL    HW2 6833   3.999   1.713   0.393
 2278SOL     OW 6834   3.954   1.434   0.538
 2278SOL    HW1 6835   3.928   1.530   0.538
 2278SOL    HW2 6836   3.883   1.380   0.583
 2279SOL     OW 6837   3.964   1.091   0.886
 2279SOL    HW1 6838   3.978   1.007   0.938
 2279SOL    HW2 6839   3.909   1.155   0.941
 2280SOL     OW 6840   3.846   0.643   0.563
 2280SOL    HW1 6841   3.801   0.555   0.580
 2280SOL    HW2 6842   3.845   0.697   0.647
 2281SOL     OW 6843   3.751   1.596   0.117
 2281SOL    HW1 6844   3.732   1.500   0.138
 2281SOL    HW2 6845   3.718   1.654   0.192
 2282SOL     OW 6846   3.837   0.737   1.597
 2282SOL    HW1 6847   3.925   0.724   1.642
 2282SOL    HW2 6848   3.824   0.834   1.575
 2283SOL     OW 6849   3.921   0.976   1.264
 2283SOL    HW1 6850   4.010   0.931   1.250
 2283SOL    HW2 6851   3.848   0.911   1.245
 2284SOL     OW 6852   4.041   0.251   1.801
 2284SOL    HW1 6853   4.112   0.322   1.807
 2284SOL    HW2 6854   3.953   0.290   1.829
 2285SOL     OW 6855   4.322   0.729   0.270
 2285SOL    HW1 6856   4.346   0.798   0.202
 2285SOL    HW2 6857   4.244   0.762   0.324
 2286SOL     OW 6858   3.800   0.811   0.789
 2286SOL    HW1 6859   3.899   0.799   0.798
 2286SOL    HW2 6860   3.776   0.906   0.810
 2287SOL     OW 6861   3.854   1.821   1.571
 2287SOL    HW1 6862   3.844   1.806   1.670
 2287SOL    HW2 6863   3.768   1.857   1.535
 2288SOL     OW 6864   4.274   0.196   0.885
 2288SOL    HW1 6865   4.269   0.191   0.985
 2288SOL    HW2 6866   4.276   0.292   0.856
 2289SOL     OW 6867   4.075   1.801   0.853
 2289SOL    HW1 6868   4.125   1.715   0.859
 2289SOL    HW2 6869   4.140   1.878   0.850
 2290SOL     OW 6870   4.045   0.943   0.242
 2290SOL    HW1 6871   4.127   0.982   0.200
 2290SOL    HW2 6872   4.018   0.861   0.193
 2291SOL     OW 6873   4.185   1.266   1.727
 2291SOL    HW1 6874   4.135   1.267   1.641
 2291SOL    HW2 6875   4.122   1.248   1.803
 2292SOL     OW 6876   3.926   0.285   1.498
 2292SOL    HW1 6877   3.846   0.345   1.485
 2292SOL    HW2 6878   3.916   0.236   1.584
 2293SOL     OW 6879   3.973   1.785   1.241
 2293SOL    HW1 6880   4.030   1.720   1.291
 2293SOL    HW2 6881   3.957   1.752   1.148
 2294SOL     OW 6882   4.106   0.700   0.480
 2294SOL    HW1 6883   4.151   0.610   0.477
 2294SOL    HW2 6884   4.012   0.689   0.513
 2295SOL     OW 6885   4.021   0.035   0.171
 2295SOL    HW1 6886   4.070   0.119   0.150
 2295SOL    HW2 6887   4.083  -0.030   0.216
 2296SOL     OW 6888   4.183   1.152   0.741
 2296SOL    HW1 6889   4.112   1.125   0.806
 2296SOL    HW2 6890   4.157   1.124   0.648
 2297SOL     OW 6891   3.802   0.556   1.386
 2297SOL    HW1 6892   3.894   0.555   1.345
 2297SOL    HW2 6893   3.796   0.630   1.453
 2298SOL     OW 6894   4.134   0.813   1.251
 2298SOL    HW1 6895   4.220   0.825   1.301
 2298SOL    HW2 6896   4.092   0.726   1.278
 2299SOL     OW 6897   3.788   1.564   1.331
 2299SOL    HW1 6898   3.742   1.646   1.297
 2299SOL    HW2 6899   3.886   1.583   1.340
 2300SOL     OW 6900   4.091   1.100   0.501
 2300SOL    HW1 6901   4.084   1.183   0.445
 2300SOL    HW2 6902   4.095   1.020   0.441
 2301SOL     OW 6903   4.290   0.537   0.865
 2301SOL    HW1 6904   4.302   0.603   0.791
 2301SOL    HW2 6905   4.336   0.571   0.948
 2302SOL     OW 6906   4.078   1.510   1.329
 2302SOL    HW1 6907   4.057   1.466   1.242
 2302SOL    HW2 6908   4.175   1.536   1.332
 2303SOL     OW 6909   4.126   0.751   1.598
 2303SOL    HW1 6910   4.194   0.806   1.551
 2303SOL    HW2 6911   4.166   0.663   1.625
 2304SOL     OW 6912   4.228   0.050   1.740
 2304SOL    HW1 6913   4.186  -0.007   1.670
 2304SOL    HW2 6914   4.162   0.119   1.772
 2305SOL     OW 6915   4.297   0.870   1.029
 2305SOL    HW1 6916   4.341   0.959   1.020
 2305SOL    HW2 6917   4.234   0.870   1.106
 2306SOL     OW 6918   4.031   0.213   1.231
 2306SOL    HW1 6919   4.008   0.250   1.321
 2306SOL    HW2 6920   4.001   0.118   1.225
 2307SOL     OW 6921   3.761   1.310   1.282
 2307SOL    HW1 6922   3.814   1.261   1.350
 2307SOL    HW2 6923   3.783   1.408   1.287
 2308SOL     OW 6924   4.031   0.063   0.618
 2308SOL    HW1 6925   4.020   0.157   0.651
 2308SOL    HW2 6926   4.026   0.000   0.695
 2309SOL     OW 6927   4.074   0.898   1.804
 2309SOL    HW1 6928   4.150   0.942   1.852
 2309SOL    HW2 6929   4.109   0.851   1.722
 2310SOL     OW 6930   4.043   0.810   0.949
 2310SOL    HW1 6931   4.136   0.846   0.954
 2310SOL    HW2 6932   4.037   0.725   1.001
 2311SOL     OW 6933   4.063   0.509   1.006
 2311SOL    HW1 6934   4.011   0.426   0.989
 2311SOL    HW2 6935   4.140   0.514   0.942
 2312SOL     OW 6936   3.732   1.326   0.200
 2312SOL    HW1 6937   3.639   1.347   0.169
 2312SOL    HW2 6938   3.742   1.227   0.213
 2313SOL     OW 6939   3.812   1.801   0.927
 2313SOL    HW1 6940   3.770   1.715   0.900
 2313SOL    HW2 6941   3.906   1.804   0.893
 2314SOL     OW 6942   3.764   0.544   1.114
 2314SOL    HW1 6943   3.849   0.511   1.073
 2314SOL    HW2 6944   3.777   0.559   1.212
 2315SOL     OW 6945   3.913   0.520   1.722
 2315SOL    HW1 6946   3.972   0.480   1.652
 2315SOL    HW2 6947   3.855   0.591   1.681
 2316SOL     OW 6948   4.539   0.572   0.325
 2316SOL    HW1 6949   4.546   0.483   0.279
 2316SOL    HW2 6950   4.445   0.606   0.317
 2317SOL     OW 6951   3.976   1.564   1.744
 2317SOL    HW1 6952   3.946   1.621   1.820
 2317SOL    HW2 6953   3.969   1.467   1.770
 2318SOL     OW 6954   4.197   0.500   0.191
 2318SOL    HW1 6955   4.258   0.580   0.195
 2318SOL    HW2 6956   4.102   0.531   0.198
 2319SOL     OW 6957   3.883   1.137   1.466
 2319SOL    HW1 6958   3.905   1.076   1.542
 2319SOL    HW2 6959   3.893   1.088   1.380
 2320SOL     OW 6960   3.807   1.258   1.022
 2320SOL    HW1 6961   3.802   1.257   1.122
 2320SOL    HW2 6962   3.724   1.217   0.984
 2321SOL     OW 6963   3.854   1.794   1.851
 2321SOL    HW1 6964   3.813   1.720   1.904
 2321SOL    HW2 6965   3.918   1.845   1.909
 2322SOL     OW 6966   3.987   0.326   0.720
 2322SOL    HW1 6967   3.908   0.377   0.686
 2322SOL    HW2 6968   3.978   0.311   0.818
 2323SOL     OW 6969   4.096   1.288   1.490
 2323SOL    HW1 6970   4.083   1.381   1.456
 2323SOL    HW2 6971   4.012   1.236   1.477
 2324SOL     OW 6972   4.314   1.487   0.491
 2324SOL    HW1 6973   4.356   1.429   0.421
 2324SOL    HW2 6974   4.270   1.566   0.447
 2325SOL     OW 6975   3.979   1.348   0.290
 2325SOL    HW1 6976   3.883   1.349   0.263
 2325SOL    HW2 6977   3.991   1.401   0.374
 2326SOL     OW 6978   3.829   1.013   1.726
 2326SOL    HW1 6979   3.752   0.980   1.780
 2326SOL    HW2 6980   3.914   0.983   1.768
 2327SOL     OW 6981   3.799   0.345   0.033
 2327SOL    HW1 6982   3.707   0.317   0.004
 2327SOL    HW2 6983   3.830   0.422  -0.023
 2328SOL     OW 6984   3.796   0.166   0.318
 2328SOL    HW1 6985   3.779   0.249   0.264
 2328SOL    HW2 6986   3.886   0.129   0.296
 2329SOL     OW 6987   4.114   1.741   1.560
 2329SOL    HW1 6988   4.023   1.782   1.558
 2329SOL    HW2 6989   4.107   1.647   1.592
 2330SOL     OW 6990   3.945   1.314   1.844
 2330SOL    HW1 6991   3.880   1.241   1.823
 2330SOL    HW2 6992   3.949   1.328   1.942
 2331SOL     OW 6993   3.803   1.240   0.653
 2331SOL    HW1 6994   3.802   1.193   0.741
 2331SOL    HW2 6995   3.885   1.212   0.602
 2332SOL     OW 6996   4.396   1.391   1.624
 2332SOL    HW1 6997   4.318   1.341   1.662
 2332SOL    HW2 6998   4.393   1.486   1.655
 2333SOL     OW 6999   4.041   0.547   1.280
 2333SOL    HW1 7000   4.079   0.488   1.352
 2333SOL    HW2 7001   4.081   0.521   1.192
 2334SOL     OW 7002   3.763   1.077   0.300
 2334SOL    HW1 7003   3.862   1.066   0.291
 2334SOL    HW2 7004   3.723   0.991   0.332
 2335SOL     OW 7005   3.954   0.628   1.975
 2335SOL    HW1 7006   3.861   0.626   2.012
 2335SOL    HW2 7007   3.955   0.589   1.883
 2336SOL     OW 7008   3.949   0.275   2.858
 2336SOL    HW1 7009   3.984   0.258   2.950
 2336SOL    HW2 7010   3.861   0.230   2.846
 2337SOL     OW 7011   3.743   0.368   2.509
 2337SOL    HW1 7012   3.661   0.411   2.548
 2337SOL    HW2 7013   3.715   0.295   2.446
 2338SOL     OW 7014   4.059   1.435   2.923
 2338SOL    HW1 7015   3.981   1.404   2.870
 2338SOL    HW2 7016   4.117   1.493   2.866
 2339SOL     OW 7017   4.162   0.392   3.361
 2339SOL    HW1 7018   4.244   0.336   3.370
 2339SOL    HW2 7019   4.081   0.334   3.365
 2340SOL     OW 7020   3.955   1.713   2.345
 2340SOL    HW1 7021   3.989   1.790   2.399
 2340SOL    HW2 7022   3.999   1.713   2.255
 2341SOL     OW 7023   3.954   1.434   2.400
 2341SOL    HW1 7024   3.928   1.530   2.400
 2341SOL    HW2 7025   3.883   1.380   2.445
 2342SOL     OW 7026   3.964   1.091   2.748
 2342SOL    HW1 7027   3.978   1.007   2.800
 2342SOL    HW2 7028   3.909   1.155   2.803
 2343SOL     OW 7029   3.846   0.643   2.425
 2343SOL    HW1 7030   3.801   0.555   2.442
 2343SOL    HW2 7031   3.845   0.697   2.509
 2344SOL     OW 7032   3.751   1.596   1.979
 2344SOL    HW1 7033   3.732   1.500   2.000
 2344SOL    HW2 7034   3.718   1.654   2.054
 2345SOL     OW 7035   3.837   0.737   3.459
 2345SOL    HW1 7036   3.925   0.724   3.504
 2345SOL    HW2 7037   3.824   0.834   3.437
 2346SOL     OW 7038   3.921   0.976   3.126
 2346SOL    HW1 7039   4.010   0.931   3.112
 2346SOL    HW2 7040   3.848   0.911   3.107
 2347SOL     OW 7041   4.041   0.251   3.663
 2347SOL    HW1 7042   4.112   0.322   3.669
 2347SOL    HW2 7043   3.953   0.290   3.691
 2348SOL     OW 7044   4.322   0.729   2.132
 2348SOL    HW1 7045   4.346   0.798   2.064
 2348SOL    HW2 7046   4.244   0.762   2.186
 2349SOL     OW 7047   3.800   0.811   2.651
 2349SOL    HW1 7048   3.899   0.799   2.660
 2349SOL    HW2 7049   3.776   0.906   2.672
 2350SOL     OW 7050   3.854   1.821   3.433
 2350SOL    HW1 7051   3.844   1.806   3.532
 2350SOL    HW2 7052   3.768   1.857   3.397
 2351SOL     OW 7053   4.274   0.196   2.747
 2351SOL    HW1 7054   4.269   0.191   2.847
 2351SOL    HW2 7055   4.276   0.292   2.718
 2352SOL     OW 7056   4.075   1.801   2.715
 2352SOL    HW1 7057   4.125   1.715   2.721
 2352SOL    HW2 7058   4.140   1.878   2.712
 2353SOL     OW 7059   4.045   0.943   2.104
 2353SOL    HW1 7060   4.127   0.982   2.062
 2353SOL    HW2 7061   4.018   0.861   2.055
 2354SOL     OW 7062   4.185   1.266   3.589
 2354SOL    HW1 7063   4.135   1.267   3.503
 2354SOL    HW2 7064   4.122   1.248   3.665
 2355SOL     OW 7065   3.926   0.285   3.360
 2355SOL    HW1 7066   3.846   0.345   3.347
 2355SOL    HW2 7067   3.916   0.236   3.446
 2356SOL     OW 7068   3.973   1.785   3.103
 2356SOL    HW1 7069   4.030   1.720   3.153
 2356SOL    HW2 7070   3.957   1.752   3.010
 2357SOL     OW 7071   4.106   0.700   2.342
 2357SOL    HW1 7072   4.151   0.610   2.339
 2357SOL    HW2 7073   4.012   0.689   2.375
 2358SOL     OW 7074   4.021   0.035   2.033
 2358SOL    HW1 7075   4.070   0.119   2.012
 2358SOL    HW2 7076   4.083  -0.030   2.078
 2359SOL     OW 7077   4.183   1.152   2.603
 2359SOL    HW1 7078   4.112   1.125   2.668
 2359SOL    HW2 7079   4.157   1.124   2.510
 2360SOL     OW 7080   3.802   0.556   3.248
 2360SOL    HW1 7081   3.894   0.555   3.207
 2360SOL    HW2 7082   3.796   0.630   3.315
 2361SOL     OW 7083   4.134   0.813   3.113
 2361SOL    HW1 7084   4.220   0.825   3.163
 2361SOL    HW2 7085   4.092   0.726   3.140
 2362SOL     OW 7086   3.788   1.564   3.193
 2362SOL    HW1 7087   3.742   1.646   3.159
 2362SOL    HW2 7088   3.886   1.583   3.202
 2363SOL     OW 7089   4.091   1.100   2.363
 2363SOL    HW1 7090   4.084   1.183   2.307
 2363SOL    HW2 7091   4.095   1.020   2.303
 2364SOL     OW 7092   4.290   0.537   2.727
 2364SOL    HW1 7093   4.302   0.603   2.653
 2364SOL    HW2 7094   4.336   0.571   2.810
 2365SOL     OW 7095   4.078   1.510   3.191
 2365SOL    HW1 7096   4.057   1.466   3.104
 2365SOL    HW2 7097   4.175   1.536   3.194
 2366SOL     OW 7098   4.126   0.751   3.460
 2366SOL    HW1 7099   4.194   0.806   3.413
 2366SOL    HW2 7100   4.166   0.663   3.487
 2367SOL     OW 7101   4.228   0.050   3.602
 2367SOL    HW1 7102   4.186  -0.007   3.532
 2367SOL    HW2 7103   4.162   0.119   3.634
 2368SOL     OW 7104   4.297   0.870   2.891
 2368SOL    HW1 7105   4.341   0.959   2.882
 2368SOL    HW2 7106   4.234   0.870   2.968
 2369SOL     OW 7107   4.031   0.213   3.093
 2369SOL    HW1 7108   4.008   0.250   3.183
 2369SOL    HW2 7109   4.001   0.118   3.087
 2370SOL     OW 7110   3.761   1.310   3.144
 2370SOL    HW1 7111   3.814   1.261   3.212
 2370SOL    HW2 7112   3.783   1.408   3.149
 2371SOL     OW 7113   4.031   0.063   2.480
 2371SOL    HW1 7114   4.020   0.157   2.513
 2371SOL    HW2 7115   4.026   0.000   2.557
 2372SOL     OW 7116   4.074   0.898   3.666
 2372SOL    HW1 7117   4.150   0.942   3.714
 2372SOL    HW2 7118   4.109   0.851   3.584
 2373SOL     OW 7119   4.043   0.810   2.811
 2373SOL    HW1 7120   4.136   0.846   2.816
 2373SOL    HW2 7121   4.037   0.725   2.863
 2374SOL     OW 7122   4.063   0.509   2.868
 2374SOL    HW1 7123   4.011   0.426   2.851
 2374SOL    HW2 7124   4.140   0.514   2.804
 2375SOL     OW 7125   3.732   1.326   2.062
 2375SOL    HW1 7126   3.639   1.347   2.031
 2375SOL    HW2 7127   3.742   1.227   2.075
 2376SOL     OW 7128   3.812   1.801   2.789
 2376SOL    HW1 7129   3.770   1.715   2.762
 2376SOL    HW2 7130   3.906   1.804   2.755
 2377SOL     OW 7131   3.764   0.544   2.976
 2377SOL    HW1 7132   3.849   0.511   2.935
 2377SOL    HW2 7133   3.777   0.559   3.074
 2378SOL     OW 7134   3.913   0.520   3.584
 2378SOL    HW1 7135   3.972   0.480   3.514
 2378SOL    HW2 7136   3.855   0.591   3.543
 2379SOL     OW 7137   4.539   0.572   2.187
 2379SOL    HW1 7138   4.546   0.483   2.141
 2379SOL    HW2 7139   4.445   0.606   2.179
 2380SOL     OW 7140   3.976   1.564   3.606
 2380SOL    HW1 7141   3.946   1.621   3.682
 2380SOL    HW2 7142   3.969   1.467   3.632
 2381SOL     OW 7143   4.197   0.500   2.053
 2381SOL    HW1 7144   4.258   0.580   2.057
 2381SOL    HW2 7145   4.102   0.531   2.060
 2382SOL     OW 7146   3.883   1.137   3.328
 2382SOL    HW1 7147   3.905   1.076   3.404
 2382SOL    HW2 7148   3.893   1.088   3.242
 2383SOL     OW 7149   3.807   1.258   2.884
 2383SOL    HW1 7150   3.802   1.257   2.984
 2383SOL    HW2 7151   3.724   1.217   2.846
 2384SOL     OW 7152   3.854   1.794   3.713
 2384SOL    HW1 7153   3.813   1.720   3.766
 2384SOL    HW2 7154   3.918   1.845   3.771
 2385SOL     OW 7155   3.987   0.326   2.582
 2385SOL    HW1 7156   3.908   0.377   2.548
 2385SOL    HW2 7157   3.978   0.311   2.680
 2386SOL     OW 7158   4.096   1.288   3.352
 2386SOL    HW1 7159   4.083   1.381   3.318
 2386SOL    HW2 7160   4.012   1.236   3.339
 2387SOL     OW 7161   4.314   1.487   2.353
 2387SOL    HW1 7162   4.356   1.429   2.283
 2387SOL    HW2 7163   4.270   1.566   2.309
 2388SOL     OW 7164   3.979   1.348   2.152
 2388SOL    HW1 7165   3.883   1.349   2.125
 2388SOL    HW2 7166   3.991   1.401   2.236
 2389SOL     OW 7167   3.829   1.013   3.588
 2389SOL    HW1 7168   3.752   0.980   3.642
 2389SOL    HW2 7169   3.914   0.983   3.630
 2390SOL     OW 7170   3.799   0.345   1.895
 2390SOL    HW1 7171   3.707   0.317   1.866
 2390SOL    HW2 7172   3.830   0.422   1.839
 2391SOL     OW 7173   3.796   0.166   2.180
 2391SOL    HW1 7174   3.779   0.249   2.126
 2391SOL    HW2 7175   3.886   0.129   2.158
 2392SOL     OW 7176   4.114   1.741   3.422
 2392SOL    HW1 7177   4.023   1.782   3.420
 2392SOL    HW2 7178   4.107   1.647   3.454
 2393SOL     OW 7179   3.945   1.314   3.706
 2393SOL    HW1 7180   3.880   1.241   3.685
 2393SOL    HW2 7181   3.949   1.328   3.804
 2394SOL     OW 7182   3.803   1.240   2.515
 2394SOL    HW1 7183   3.802   1.193   2.603
 2394SOL    HW2 7184   3.885   1.212   2.464
 2395SOL     OW 7185   4.396   1.391   3.486
 2395SOL    HW1 7186   4.318   1.341   3.524
 2395SOL    HW2 7187   4.393   1.486   3.517
 2396SOL     OW 7188   4.041   0.547   3.142
 2396SOL    HW1 7189   4.079   0.488   3.214
 2396SOL    HW2 7190   4.081   0.521   3.054
 2397SOL     OW 7191   3.763   1.077   2.162
 2397SOL    HW1 7192   3.862   1.066   2.153
 2397SOL    HW2 7193   3.723   0.991   2.194
 2398SOL     OW 7194   3.954   0.628   3.837
 2398SOL    HW1 7195   3.861   0.626   3.874
 2398SOL    HW2 7196   3.955   0.589   3.745
 2399SOL     OW 7197   3.955   1.713   4.207
 2399SOL    HW1 7198   3.989   1.790   4.261
 2399SOL    HW2 7199   3.999   1.713   4.117
 2400SOL     OW 7200   3.954   1.434   4.262
 2400SOL    HW1 7201   3.928   1.530   4.262
 2400SOL    HW2 7202   3.883   1.380   4.307
 2401SOL     OW 7203   3.751   1.596   3.841
 2401SOL    HW1 7204   3.732   1.500   3.862
 2401SOL    HW2 7205   3.718   1.654   3.916
 2402SOL     OW 7206   4.322   0.729   3.994
 2402SOL    HW1 7207   4.346   0.798   3.926
 2402SOL    HW2 7208   4.244   0.762   4.048
 2403SOL     OW 7209   4.045   0.943   3.966
 2403SOL    HW1 7210   4.127   0.982   3.924
 2403SOL    HW2 7211   4.018   0.861   3.917
 2404SOL     OW 7212   4.021   0.035   3.895
 2404SOL    HW1 7213   4.070   0.119   3.874
 2404SOL    HW2 7214   4.083  -0.030   3.940
 2405SOL     OW 7215   4.091   1.100   4.225
 2405SOL    HW1 7216   4.084   1.183   4.169
 2405SOL    HW2 7217   4.095   1.020   4.165
 2406SOL     OW 7218   3.732   1.326   3.924
 2406SOL    HW1 7219   3.639   1.347   3.893
 2406SOL    HW2 7220   3.742   1.227   3.937
 2407SOL     OW 7221   4.539   0.572   4.049
 2407SOL    HW1 7222   4.546   0.483   4.003
 2407SOL    HW2 7223   4.445   0.606   4.041
 2408SOL     OW 7224   4.197   0.500   3.915
 2408SOL    HW1 7225   4.258   0.580   3.919
 2408SOL    HW2 7226   4.102   0.531   3.922
 2409SOL     OW 7227   3.987   0.326   4.444
 2409SOL    HW1 7228   3.908   0.377   4.410
 2409SOL    HW2 7229   3.978   0.311   4.542
 2410SOL     OW 7230   4.314   1.487   4.215
 2410SOL    HW1 7231   4.356   1.429   4.145
 2410SOL    HW2 7232   4.270   1.566   4.171
 2411SOL     OW 7233   3.979   1.348   4.014
 2411SOL    HW1 7234   3.883   1.349   3.987
 2411SOL    HW2 7235   3.991   1.401   4.098
 2412SOL     OW 7236   3.799   0.345   3.757
 2412SOL    HW1 7237   3.707   0.317   3.728
 2412SOL    HW2 7238   3.830   0.422   3.701
 2413SOL     OW 7239   3.796   0.166   4.042
 2413SOL    HW1 7240   3.779   0.249   3.988
 2413SOL    HW2 7241   3.886   0.129   4.020
 2414SOL     OW 7242   3.763   1.077   4.024
 2414SOL    HW1 7243   3.862   1.066   4.015
 2414SOL    HW2 7244   3.723   0.991   4.056
 2415SOL     OW 7245   3.954   2.490   0.113
 2415SOL    HW1 7246   3.861   2.488   0.150
 2415SOL    HW2 7247   3.955   2.451   0.021
 2416SOL     OW 7248   3.949   2.137   0.996
 2416SOL    HW1 7249   3.984   2.120   1.088
 2416SOL    HW2 7250   3.861   2.092   0.984
 2417SOL     OW 7251   3.743   2.230   0.647
 2417SOL    HW1 7252   3.661   2.273   0.686
 2417SOL    HW2 7253   3.715   2.157   0.584
 2418SOL     OW 7254   4.059   3.297   1.061
 2418SOL    HW1 7255   3.981   3.266   1.008
 2418SOL    HW2 7256   4.117   3.355   1.004
 2419SOL     OW 7257   4.162   2.254   1.499
 2419SOL    HW1 7258   4.244   2.198   1.508
 2419SOL    HW2 7259   4.081   2.196   1.503
 2420SOL     OW 7260   3.955   3.575   0.483
 2420SOL    HW1 7261   3.989   3.652   0.537
 2420SOL    HW2 7262   3.999   3.575   0.393
 2421SOL     OW 7263   3.954   3.296   0.538
 2421SOL    HW1 7264   3.928   3.392   0.538
 2421SOL    HW2 7265   3.883   3.242   0.583
 2422SOL     OW 7266   3.964   2.953   0.886
 2422SOL    HW1 7267   3.978   2.869   0.938
 2422SOL    HW2 7268   3.909   3.017   0.941
 2423SOL     OW 7269   3.846   2.505   0.563
 2423SOL    HW1 7270   3.801   2.417   0.580
 2423SOL    HW2 7271   3.845   2.559   0.647
 2424SOL     OW 7272   3.751   3.458   0.117
 2424SOL    HW1 7273   3.732   3.362   0.138
 2424SOL    HW2 7274   3.718   3.516   0.192
 2425SOL     OW 7275   3.837   2.599   1.597
 2425SOL    HW1 7276   3.925   2.586   1.642
 2425SOL    HW2 7277   3.824   2.696   1.575
 2426SOL     OW 7278   3.921   2.838   1.264
 2426SOL    HW1 7279   4.010   2.793   1.250
 2426SOL    HW2 7280   3.848   2.773   1.245
 2427SOL     OW 7281   4.041   2.113   1.801
 2427SOL    HW1 7282   4.112   2.184   1.807
 2427SOL    HW2 7283   3.953   2.152   1.829
 2428SOL     OW 7284   4.322   2.591   0.270
 2428SOL    HW1 7285   4.346   2.660   0.202
 2428SOL    HW2 7286   4.244   2.624   0.324
 2429SOL     OW 7287   3.800   2.673   0.789
 2429SOL    HW1 7288   3.899   2.661   0.798
 2429SOL    HW2 7289   3.776   2.768   0.810
 2430SOL     OW 7290   3.854   3.683   1.571
 2430SOL    HW1 7291   3.844   3.668   1.670
 2430SOL    HW2 7292   3.768   3.719   1.535
 2431SOL     OW 7293   4.274   2.058   0.885
 2431SOL    HW1 7294   4.269   2.053   0.985
 2431SOL    HW2 7295   4.276   2.154   0.856
 2432SOL     OW 7296   4.075   3.663   0.853
 2432SOL    HW1 7297   4.125   3.577   0.859
 2432SOL    HW2 7298   4.140   3.740   0.850
 2433SOL     OW 7299   4.045   2.805   0.242
 2433SOL    HW1 7300   4.127   2.844   0.200
 2433SOL    HW2 7301   4.018   2.723   0.193
 2434SOL     OW 7302   4.185   3.128   1.727
 2434SOL    HW1 7303   4.135   3.129   1.641
 2434SOL    HW2 7304   4.122   3.110   1.803
 2435SOL     OW 7305   3.926   2.147   1.498
 2435SOL    HW1 7306   3.846   2.207   1.485
 2435SOL    HW2 7307   3.916   2.098   1.584
 2436SOL     OW 7308   3.973   3.647   1.241
 2436SOL    HW1 7309   4.030   3.582   1.291
 2436SOL    HW2 7310   3.957   3.614   1.148
 2437SOL     OW 7311   4.106   2.562   0.480
 2437SOL    HW1 7312   4.151   2.472   0.477
 2437SOL    HW2 7313   4.012   2.551   0.513
 2438SOL     OW 7314   4.263   1.926   0.512
 2438SOL    HW1 7315   4.182   1.927   0.570
 2438SOL    HW2 7316   4.266   2.009   0.457
 2439SOL     OW 7317   4.021   1.897   0.171
 2439SOL    HW1 7318   4.070   1.981   0.150
 2439SOL    HW2 7319   4.083   1.832   0.216
 2440SOL     OW 7320   4.183   3.014   0.741
 2440SOL    HW1 7321   4.112   2.987   0.806
 2440SOL    HW2 7322   4.157   2.986   0.648
 2441SOL     OW 7323   3.802   2.418   1.386
 2441SOL    HW1 7324   3.894   2.417   1.345
 2441SOL    HW2 7325   3.796   2.492   1.453
 2442SOL     OW 7326   4.285   2.084   1.147
 2442SOL    HW1 7327   4.323   2.000   1.184
 2442SOL    HW2 7328   4.197   2.103   1.191
 2443SOL     OW 7329   4.134   2.675   1.251
 2443SOL    HW1 7330   4.220   2.687   1.301
 2443SOL    HW2 7331   4.092   2.588   1.278
 2444SOL     OW 7332   3.788   3.426   1.331
 2444SOL    HW1 7333   3.742   3.508   1.297
 2444SOL    HW2 7334   3.886   3.445   1.340
 2445SOL     OW 7335   4.091   2.962   0.501
 2445SOL    HW1 7336   4.084   3.045   0.445
 2445SOL    HW2 7337   4.095   2.882   0.441
 2446SOL     OW 7338   4.290   2.399   0.865
 2446SOL    HW1 7339   4.302   2.465   0.791
 2446SOL    HW2 7340   4.336   2.433   0.948
 2447SOL     OW 7341   4.078   3.372   1.329
 2447SOL    HW1 7342   4.057   3.328   1.242
 2447SOL    HW2 7343   4.175   3.398   1.332
 2448SOL     OW 7344   4.126   2.613   1.598
 2448SOL    HW1 7345   4.194   2.668   1.551
 2448SOL    HW2 7346   4.166   2.525   1.625
 2449SOL     OW 7347   4.228   1.912   1.740
 2449SOL    HW1 7348   4.186   1.855   1.670
 2449SOL    HW2 7349   4.162   1.981   1.772
 2450SOL     OW 7350   4.297   2.732   1.029
 2450SOL    HW1 7351   4.341   2.821   1.020
 2450SOL    HW2 7352   4.234   2.732   1.106
 2451SOL     OW 7353   4.031   2.075   1.231
 2451SOL    HW1 7354   4.008   2.112   1.321
 2451SOL    HW2 7355   4.001   1.980   1.225
 2452SOL     OW 7356   3.761   3.172   1.282
 2452SOL    HW1 7357   3.814   3.123   1.350
 2452SOL    HW2 7358   3.783   3.270   1.287
 2453SOL     OW 7359   4.031   1.925   0.618
 2453SOL    HW1 7360   4.020   2.019   0.651
 2453SOL    HW2 7361   4.026   1.862   0.695
 2454SOL     OW 7362   4.074   2.760   1.804
 2454SOL    HW1 7363   4.150   2.804   1.852
 2454SOL    HW2 7364   4.109   2.713   1.722
 2455SOL     OW 7365   4.043   2.672   0.949
 2455SOL    HW1 7366   4.136   2.708   0.954
 2455SOL    HW2 7367   4.037   2.587   1.001
 2456SOL     OW 7368   4.063   2.371   1.006
 2456SOL    HW1 7369   4.011   2.288   0.989
 2456SOL    HW2 7370   4.140   2.376   0.942
 2457SOL     OW 7371   3.732   3.188   0.200
 2457SOL    HW1 7372   3.639   3.209   0.169
 2457SOL    HW2 7373   3.742   3.089   0.213
 2458SOL     OW 7374   3.812   3.663   0.927
 2458SOL    HW1 7375   3.770   3.577   0.900
 2458SOL    HW2 7376   3.906   3.666   0.893
 2459SOL     OW 7377   3.764   2.406   1.114
 2459SOL    HW1 7378   3.849   2.373   1.073
 2459SOL    HW2 7379   3.777   2.421   1.212
 2460SOL     OW 7380   3.913   2.382   1.722
 2460SOL    HW1 7381   3.972   2.342   1.652
 2460SOL    HW2 7382   3.855   2.453   1.681
 2461SOL     OW 7383   4.539   2.434   0.325
 2461SOL    HW1 7384   4.546   2.345   0.279
 2461SOL    HW2 7385   4.445   2.468   0.317
 2462SOL     OW 7386   3.976   3.426   1.744
 2462SOL    HW1 7387   3.946   3.483   1.820
 2462SOL    HW2 7388   3.969   3.329   1.770
 2463SOL     OW 7389   4.197   2.362   0.191
 2463SOL    HW1 7390   4.258   2.442   0.195
 2463SOL    HW2 7391   4.102   2.393   0.198
 2464SOL     OW 7392   3.883   2.999   1.466
 2464SOL    HW1 7393   3.905   2.938   1.542
 2464SOL    HW2 7394   3.893   2.950   1.380
 2465SOL     OW 7395   3.807   3.120   1.022
 2465SOL    HW1 7396   3.802   3.119   1.122
 2465SOL    HW2 7397   3.724   3.079   0.984
 2466SOL     OW 7398   3.854   3.656   1.851
 2466SOL    HW1 7399   3.813   3.582   1.904
 2466SOL    HW2 7400   3.918   3.707   1.909
 2467SOL     OW 7401   3.987   2.188   0.720
 2467SOL    HW1 7402   3.908   2.239   0.686
 2467SOL    HW2 7403   3.978   2.173   0.818
 2468SOL     OW 7404   4.096   3.150   1.490
 2468SOL    HW1 7405   4.083   3.243   1.456
 2468SOL    HW2 7406   4.012   3.098   1.477
 2469SOL     OW 7407   4.314   3.349   0.491
 2469SOL    HW1 7408   4.356   3.291   0.421
 2469SOL    HW2 7409   4.270   3.428   0.447
 2470SOL     OW 7410   3.979   3.210   0.290
 2470SOL    HW1 7411   3.883   3.211   0.263
 2470SOL    HW2 7412   3.991   3.263   0.374
 2471SOL     OW 7413   3.829   2.875   1.726
 2471SOL    HW1 7414   3.752   2.842   1.780
 2471SOL    HW2 7415   3.914   2.845   1.768
 2472SOL     OW 7416   3.799   2.207   0.033
 2472SOL    HW1 7417   3.707   2.179   0.004
 2472SOL    HW2 7418   3.830   2.284  -0.023
 2473SOL     OW 7419   3.796   2.028   0.318
 2473SOL    HW1 7420   3.779   2.111   0.264
 2473SOL    HW2 7421   3.886   1.991   0.296
 2474SOL     OW 7422   4.114   3.603   1.560
 2474SOL    HW1 7423   4.023   3.644   1.558
 2474SOL    HW2 7424   4.107   3.509   1.592
 2475SOL     OW 7425   3.945   3.176   1.844
 2475SOL    HW1 7426   3.880   3.103   1.823
 2475SOL    HW2 7427   3.949   3.190   1.942
 2476SOL     OW 7428   3.803   3.102   0.653
 2476SOL    HW1 7429   3.802   3.055   0.741
 2476SOL    HW2 7430   3.885   3.074   0.602
 2477SOL     OW 7431   4.396   3.253   1.624
 2477SOL    HW1 7432   4.318   3.203   1.662
 2477SOL    HW2 7433   4.393   3.348   1.655
 2478SOL     OW 7434   4.041   2.409   1.280
 2478SOL    HW1 7435   4.079   2.350   1.352
 2478SOL    HW2 7436   4.081   2.383   1.192
 2479SOL     OW 7437   3.763   2.939   0.300
 2479SOL    HW1 7438   3.862   2.928   0.291
 2479SOL    HW2 7439   3.723   2.853   0.332
 2480SOL     OW 7440   3.954   2.490   1.975
 2480SOL    HW1 7441   3.861   2.488   2.012
 2480SOL    HW2 7442   3.955   2.451   1.883
 2481SOL     OW 7443   3.949   2.137   2.858
 2481SOL    HW1 7444   3.984   2.120   2.950
 2481SOL    HW2 7445   3.861   2.092   2.846
 2482SOL     OW 7446   3.743   2.230   2.509
 2482SOL    HW1 7447   3.661   2.273   2.548
 2482SOL    HW2 7448   3.715   2.157   2.446
 2483SOL     OW 7449   4.059   3.297   2.923
 2483SOL    HW1 7450   3.981   3.266   2.870
 2483SOL    HW2 7451   4.117   3.355   2.866
 2484SOL     OW 7452   4.162   2.254   3.361
 2484SOL    HW1 7453   4.244   2.198   3.370
 2484SOL    HW2 7454   4.081   2.196   3.365
 2485SOL     OW 7455   3.955   3.575   2.345
 2485SOL    HW1 7456   3.989   3.652   2.399
 2485SOL    HW2 7457   3.999   3.575   2.255
 2486SOL     OW 7458   3.954   3.296   2.400
 2486SOL    HW1 7459   3.928   3.392   2.400
 2486SOL    HW2 7460   3.883   3.242   2.445
 2487SOL     OW 7461   3.964   2.953   2.748
 2487SOL    HW1 7462   3.978   2.869   2.800
 2487SOL    HW2 7463   3.909   3.017   2.803
 2488SOL     OW 7464   3.846   2.505   2.425
 2488SOL    HW1 7465   3.801   2.417   2.442
 2488SOL    HW2 7466   3.845   2.559   2.509
 2489SOL     OW 7467   3.751   3.458   1.979
 2489SOL    HW1 7468   3.732   3.362   2.000
 2489SOL    HW2 7469   3.718   3.516   2.054
 2490SOL     OW 7470   3.837   2.599   3.459
 2490SOL    HW1 7471   3.925   2.586   3.504
 2490SOL    HW2 7472   3.824   2.696   3.437
 2491SOL     OW 7473   3.921   2.838   3.126
 2491SOL    HW1 7474   4.010   2.793   3.112
 2491SOL    HW2 7475   3.848   2.773   3.107
 2492SOL     OW 7476   4.041   2.113   3.663
 2492SOL    HW1 7477   4.112   2.184   3.669
 2492SOL    HW2 7478   3.953   2.152   3.691
 2493SOL     OW 7479   4.322   2.591   2.132
 2493SOL    HW1 7480   4.346   2.660   2.064
 2493SOL    HW2 7481   4.244   2.624   2.186
 2494SOL     OW 7482   3.800   2.673   2.651
 2494SOL    HW1 7483   3.899   2.661   2.660
 2494SOL    HW2 7484   3.776   2.768   2.672
 2495SOL     OW 7485   3.854   3.683   3.433
 2495SOL    HW1 7486   3.844   3.668   3.532
 2495SOL    HW2 7487   3.768   3.719   3.397
 2496SOL     OW 7488   4.274   2.058   2.747
 2496SOL    HW1 7489   4.269   2.053   2.847
 2496SOL    HW2 7490   4.276   2.154   2.718
 2497SOL     OW 7491   4.075   3.663   2.715
 2497SOL    HW1 7492   4.125   3.577   2.721
 2497SOL    HW2 7493   4.140   3.740   2.712
 2498SOL     OW 7494   4.045   2.805   2.104
 2498SOL    HW1 7495   4.127   2.844   2.062
 2498SOL    HW2 7496   4.018   2.723   2.055
 2499SOL     OW 7497   4.185   3.128   3.589
 2499SOL    HW1 7498   4.135   3.129   3.503
 2499SOL    HW2 7499   4.122   3.110   3.665
 2500SOL     OW 7500   3.926   2.147   3.360
 2500SOL    HW1 7501   3.846   2.207   3.347
 2500SOL    HW2 7502   3.916   2.098   3.446
 2501SOL     OW 7503   3.973   3.647   3.103
 2501SOL    HW1 7504   4.030   3.582   3.153
 2501SOL    HW2 7505   3.957   3.614   3.010
 2502SOL     OW 7506   4.106   2.562   2.342
 2502SOL    HW1 7507   4.151   2.472   2.339
 2502SOL    HW2 7508   4.012   2.551   2.375
 2503SOL     OW 7509   4.263   1.926   2.374
 2503SOL    HW1 7510   4.182   1.927   2.432
 2503SOL    HW2 7511   4.266   2.009   2.319
 2504SOL     OW 7512   4.021   1.897   2.033
 2504SOL    HW1 7513   4.070   1.981   2.012
 2504SOL    HW2 7514   4.083   1.832   2.078
 2505SOL     OW 7515   4.183   3.014   2.603
 2505SOL    HW1 7516   4.112   2.987   2.668
 2505SOL    HW2 7517   4.157   2.986   2.510
 2506SOL     OW 7518   3.802   2.418   3.248
 2506SOL    HW1 7519   3.894   2.417   3.207
 2506SOL    HW2 7520   3.796   2.492   3.315
 2507SOL     OW 7521   4.285   2.084   3.009
 2507SOL    HW1 7522   4.323   2.000   3.046
 2507SOL    HW2 7523   4.197   2.103   3.053
 2508SOL     OW 7524   4.134   2.675   3.113
 2508SOL    HW1 7525   4.220   2.687   3.163
 2508SOL    HW2 7526   4.092   2.588   3.140
 2509SOL     OW 7527   3.788   3.426   3.193
 2509SOL    HW1 7528   3.742   3.508   3.159
 2509SOL    HW2 7529   3.886   3.445   3.202
 2510SOL     OW 7530   4.091   2.962   2.363
 2510SOL    HW1 7531   4.084   3.045   2.307
 2510SOL    HW2 7532   4.095   2.882   2.303
 2511SOL     OW 7533   4.290   2.399   2.727
 2511SOL    HW1 7534   4.302   2.465   2.653
 2511SOL    HW2 7535   4.336   2.433   2.810
 2512SOL     OW 7536   4.078   3.372   3.191
 2512SOL    HW1 7537   4.057   3.328   3.104
 2512SOL    HW2 7538   4.175   3.398   3.194
 2513SOL     OW 7539   4.126   2.613   3.460
 2513SOL    HW1 7540   4.194   2.668   3.413
 2513SOL    HW2 7541   4.166   2.525   3.487
 2514SOL     OW 7542   4.228   1.912   3.602
 2514SOL    HW1 7543   4.186   1.855   3.532
 2514SOL    HW2 7544   4.162   1.981   3.634
 2515SOL     OW 7545   4.297   2.732   2.891
 2515SOL    HW1 7546   4.341   2.821   2.882
 2515SOL    HW2 7547   4.234   2.732   2.968
 2516SOL     OW 7548   4.031   2.075   3.093
 2516SOL    HW1 7549   4.008   2.112   3.183
 2516SOL    HW2 7550   4.001   1.980   3.087
 2517SOL     OW 7551   3.761   3.172   3.144
 2517SOL    HW1 7552   3.814   3.123   3.212
 2517SOL    HW2 7553   3.783   3.270   3.149
 2518SOL     OW 7554   4.031   1.925   2.480
 2518SOL    HW1 7555   4.020   2.019   2.513
 2518SOL    HW2 7556   4.026   1.862   2.557
 2519SOL     OW 7557   4.074   2.760   3.666
 2519SOL    HW1 7558   4.150   2.804   3.714
 2519SOL    HW2 7559   4.109   2.713   3.584
 2520SOL     OW 7560   4.043   2.672   2.811
 2520SOL    HW1 7561   4.136   2.708   2.816
 2520SOL    HW2 7562   4.037   2.587   2.863
 2521SOL     OW 7563   4.063   2.371   2.868
 2521SOL    HW1 7564   4.011   2.288   2.851
 2521SOL    HW2 7565   4.140   2.376   2.804
 2522SOL     OW 7566   3.732   3.188   2.062
 2522SOL    HW1 7567   3.639   3.209   2.031
 2522SOL    HW2 7568   3.742   3.089   2.075
 2523SOL     OW 7569   3.812   3.663   2.789
 2523SOL    HW1 7570   3.770   3.577   2.762
 2523SOL    HW2 7571   3.906   3.666   2.755
 2524SOL     OW 7572   3.764   2.406   2.976
 2524SOL    HW1 7573   3.849   2.373   2.935
 2524SOL    HW2 7574   3.777   2.421   3.074
 2525SOL     OW 7575   3.913   2.382   3.584
 2525SOL    HW1 7576   3.972   2.342   3.514
 2525SOL    HW2 7577   3.855   2.453   3.543
 2526SOL     OW 7578   4.539   2.434   2.187
 2526SOL    HW1 7579   4.546   2.345   2.141
 2526SOL    HW2 7580   4.445   2.468   2.179
 2527SOL     OW 7581   3.976   3.426   3.606
 2527SOL    HW1 7582   3.946   3.483   3.682
 2527SOL    HW2 7583   3.969   3.329   3.632
 2528SOL     OW 7584   4.197   2.362   2.053
 2528SOL    HW1 7585   4.258   2.442   2.057
 2528SOL    HW2 7586   4.102   2.393   2.060
 2529SOL     OW 7587   3.883   2.999   3.328
 2529SOL    HW1 7588   3.905   2.938   3.404
 2529SOL    HW2 7589   3.893   2.950   3.242
 2530SOL     OW 7590   3.807   3.120   2.884
 2530SOL    HW1 7591   3.802   3.119   2.984
 2530SOL    HW2 7592   3.724   3.079   2.846
 2531SOL     OW 7593   3.854   3.656   3.713
 2531SOL    HW1 7594   3.813   3.582   3.766
 2531SOL    HW2 7595   3.918   3.707   3.771
 2532SOL     OW 7596   3.987   2.188   2.582
 2532SOL    HW1 7597   3.908   2.239   2.548
 2532SOL    HW2 7598   3.978   2.173   2.680
 2533SOL     OW 7599   4.096   3.150   3.352
 2533SOL    HW1 7600   4.083   3.243   3.318
 2533SOL    HW2 7601   4.012   3.098   3.339
 2534SOL     OW 7602   4.314   3.349   2.353
 2534SOL    HW1 7603   4.356   3.291   2.283
 2534SOL    HW2 7604   4.270   3.428   2.309
 2535SOL     OW 7605   3.979   3.210   2.152
 2535SOL    HW1 7606   3.883   3.211   2.125
 2535SOL    HW2 7607   3.991   3.263   2.236
 2536SOL     OW 7608   3.829   2.875   3.588
 2536SOL    HW1 7609   3.752   2.842   3.642
 2536SOL    HW2 7610   3.914   2.845   3.630
 2537SOL     OW 7611   3.799   2.207   1.895
 2537SOL    HW1 7612   3.707   2.179   1.866
 2537SOL    HW2 7613   3.830   2.284   1.839
 2538SOL     OW 7614   3.796   2.028   2.180
 2538SOL    HW1 7615   3.779   2.111   2.126
 2538SOL    HW2 7616   3.886   1.991   2.158
 2539SOL     OW 7617   4.114   3.603   3.422
 2539SOL    HW1 7618   4.023   3.644   3.420
 2539SOL    HW2 7619   4.107   3.509   3.454
 2540SOL     OW 7620   3.945   3.176   3.706
 2540SOL    HW1 7621   3.880   3.103   3.685
 2540SOL    HW2 7622   3.949   3.190   3.804
 2541SOL     OW 7623   3.803   3.102   2.515
 2541SOL    HW1 7624   3.802   3.055   2.603
 2541SOL    HW2 7625   3.885   3.074   2.464
 2542SOL     OW 7626   4.396   3.253   3.486
 2542SOL    HW1 7627   4.318   3.203   3.524
 2542SOL    HW2 7628   4.393   3.348   3.517
 2543SOL     OW 7629   4.041   2.409   3.142
 2543SOL    HW1 7630   4.079   2.350   3.214
 2543SOL    HW2 7631   4.081   2.383   3.054
 2544SOL     OW 7632   3.763   2.939   2.162
 2544SOL    HW1 7633   3.862   2.928   2.153
 2544SOL    HW2 7634   3.723   2.853   2.194
 2545SOL     OW 7635   3.954   2.490   3.837
 2545SOL    HW1 7636   3.861   2.488   3.874
 2545SOL    HW2 7637   3.955   2.451   3.745
 2546SOL     OW 7638   3.955   3.575   4.207
 2546SOL    HW1 7639   3.989   3.652   4.261
 2546SOL    HW2 7640   3.999   3.575   4.117
 2547SOL     OW 7641   3.954   3.296   4.262
 2547SOL    HW1 7642   3.928   3.392   4.262
 2547SOL    HW2 7643   3.883   3.242   4.307
 2548SOL     OW 7644   3.751   3.458   3.841
 2548SOL    HW1 7645   3.732   3.362   3.862
 2548SOL    HW2 7646   3.718   3.516   3.916
 2549SOL     OW 7647   4.322   2.591   3.994
 2549SOL    HW1 7648   4.346   2.660   3.926
 2549SOL    HW2 7649   4.244   2.624   4.048
 2550SOL     OW 7650   4.045   2.805   3.966
 2550SOL    HW1 7651   4.127   2.844   3.924
 2550SOL    HW2 7652   4.018   2.723   3.917
 2551SOL     OW 7653   4.263   1.926   4.236
 2551SOL    HW1 7654   4.182   1.927   4.294
 2551SOL    HW2 7655   4.266   2.009   4.181
 2552SOL     OW 7656   4.021   1.897   3.895
 2552SOL    HW1 7657   4.070   1.981   3.874
 2552SOL    HW2 7658   4.083   1.832   3.940
 2553SOL     OW 7659   4.091   2.962   4.225
 2553SOL    HW1 7660   4.084   3.045   4.169
 2553SOL    HW2 7661   4.095   2.882   4.165
 2554SOL     OW 7662   3.732   3.188   3.924
 2554SOL    HW1 7663   3.639   3.209   3.893
 2554SOL    HW2 7664   3.742   3.089   3.937
 2555SOL     OW 7665   4.539   2.434   4.049
 2555SOL    HW1 7666   4.546   2.345   4.003
 2555SOL    HW2 7667   4.445   2.468   4.041
 2556SOL     OW 7668   4.197   2.362   3.915
 2556SOL    HW1 7669   4.258   2.442   3.919
 2556SOL    HW2 7670   4.102   2.393   3.922
 2557SOL     OW 7671   3.987   2.188   4.444
 2557SOL    HW1 7672   3.908   2.239   4.410
 2557SOL    HW2 7673   3.978   2.173   4.542
 2558SOL     OW 7674   4.314   3.349   4.215
 2558SOL    HW1 7675   4.356   3.291   4.145
 2558SOL    HW2 7676   4.270   3.428   4.171
 2559SOL     OW 7677   3.979   3.210   4.014
 2559SOL    HW1 7678   3.883   3.211   3.987
 2559SOL    HW2 7679   3.991   3.263   4.098
 2560SOL     OW 7680   3.799   2.207   3.757
 2560SOL    HW1 7681   3.707   2.179   3.728
 2560SOL    HW2 7682   3.830   2.284   3.701
 2561SOL     OW 7683   3.796   2.028   4.042
 2561SOL    HW1 7684   3.779   2.111   3.988
 2561SOL    HW2 7685   3.886   1.991   4.020
 2562SOL     OW 7686   3.763   2.939   4.024
 2562SOL    HW1 7687   3.862   2.928   4.015
 2562SOL    HW2 7688   3.723   2.853   4.056
 2563SOL     OW 7689   3.949   3.999   0.996
 2563SOL    HW1 7690   3.984   3.982   1.088
 2563SOL    HW2 7691   3.861   3.954   0.984
 2564SOL     OW 7692   3.743   4.092   0.647
 2564SOL    HW1 7693   3.661   4.135   0.686
 2564SOL    HW2 7694   3.715   4.019   0.584
 2565SOL     OW 7695   4.162   4.116   1.499
 2565SOL    HW1 7696   4.244   4.060   1.508
 2565SOL    HW2 7697   4.081   4.058   1.503
 2566SOL     OW 7698   3.846   4.367   0.563
 2566SOL    HW1 7699   3.801   4.279   0.580
 2566SOL    HW2 7700   3.845   4.421   0.647
 2567SOL     OW 7701   4.041   3.975   1.801
 2567SOL    HW1 7702   4.112   4.046   1.807
 2567SOL    HW2 7703   3.953   4.014   1.829
 2568SOL     OW 7704   4.274   3.920   0.885
 2568SOL    HW1 7705   4.269   3.915   0.985
 2568SOL    HW2 7706   4.276   4.016   0.856
 2569SOL     OW 7707   3.926   4.009   1.498
 2569SOL    HW1 7708   3.846   4.069   1.485
 2569SOL    HW2 7709   3.916   3.960   1.584
 2570SOL     OW 7710   4.263   3.788   0.512
 2570SOL    HW1 7711   4.182   3.789   0.570
 2570SOL    HW2 7712   4.266   3.871   0.457
 2571SOL     OW 7713   4.021   3.759   0.171
 2571SOL    HW1 7714   4.070   3.843   0.150
 2571SOL    HW2 7715   4.083   3.694   0.216
 2572SOL     OW 7716   3.802   4.280   1.386
 2572SOL    HW1 7717   3.894   4.279   1.345
 2572SOL    HW2 7718   3.796   4.354   1.453
 2573SOL     OW 7719   4.285   3.946   1.147
 2573SOL    HW1 7720   4.323   3.862   1.184
 2573SOL    HW2 7721   4.197   3.965   1.191
 2574SOL     OW 7722   4.290   4.261   0.865
 2574SOL    HW1 7723   4.302   4.327   0.791
 2574SOL    HW2 7724   4.336   4.295   0.948
 2575SOL     OW 7725   4.228   3.774   1.740
 2575SOL    HW1 7726   4.186   3.717   1.670
 2575SOL    HW2 7727   4.162   3.843   1.772
 2576SOL     OW 7728   4.031   3.937   1.231
 2576SOL    HW1 7729   4.008   3.974   1.321
 2576SOL    HW2 7730   4.001   3.842   1.225
 2577SOL     OW 7731   4.031   3.787   0.618
 2577SOL    HW1 7732   4.020   3.881   0.651
 2577SOL    HW2 7733   4.026   3.724   0.695
 2578SOL     OW 7734   4.063   4.233   1.006
 2578SOL    HW1 7735   4.011   4.150   0.989
 2578SOL    HW2 7736   4.140   4.238   0.942
 2579SOL     OW 7737   3.764   4.268   1.114
 2579SOL    HW1 7738   3.849   4.235   1.073
 2579SOL    HW2 7739   3.777   4.283   1.212
 2580SOL     OW 7740   3.913   4.244   1.722
 2580SOL    HW1 7741   3.972   4.204   1.652
 2580SOL    HW2 7742   3.855   4.315   1.681
 2581SOL     OW 7743   3.987   4.050   0.720
 2581SOL    HW1 7744   3.908   4.101   0.686
 2581SOL    HW2 7745   3.978   4.035   0.818
 2582SOL     OW 7746   3.799   4.069   0.033
 2582SOL    HW1 7747   3.707   4.041   0.004
 2582SOL    HW2 7748   3.830   4.146  -0.023
 2583SOL     OW 7749   3.796   3.890   0.318
 2583SOL    HW1 7750   3.779   3.973   0.264
 2583SOL    HW2 7751   3.886   3.853   0.296
 2584SOL     OW 7752   3.949   3.999   2.858
 2584SOL    HW1 7753   3.984   3.982   2.950
 2584SOL    HW2 7754   3.861   3.954   2.846
 2585SOL     OW 7755   3.743   4.092   2.509
 2585SOL    HW1 7756   3.661   4.135   2.548
 2585SOL    HW2 7757   3.715   4.019   2.446
 2586SOL     OW 7758   4.162   4.116   3.361
 2586SOL    HW1 7759   4.244   4.060   3.370
 2586SOL    HW2 7760   4.081   4.058   3.365
 2587SOL     OW 7761   3.846   4.367   2.425
 2587SOL    HW1 7762   3.801   4.279   2.442
 2587SOL    HW2 7763   3.845   4.421   2.509
 2588SOL     OW 7764   4.041   3.975   3.663
 2588SOL    HW1 7765   4.112   4.046   3.669
 2588SOL    HW2 7766   3.953   4.014   3.691
 2589SOL     OW 7767   4.274   3.920   2.747
 2589SOL    HW1 7768   4.269   3.915   2.847
 2589SOL    HW2 7769   4.276   4.016   2.718
 2590SOL     OW 7770   3.926   4.009   3.360
 2590SOL    HW1 7771   3.846   4.069   3.347
 2590SOL    HW2 7772   3.916   3.960   3.446
 2591SOL     OW 7773   4.263   3.788   2.374
 2591SOL    HW1 7774   4.182   3.789   2.432
 2591SOL    HW2 7775   4.266   3.871   2.319
 2592SOL     OW 7776   4.021   3.759   2.033
 2592SOL    HW1 7777   4.070   3.843   2.012
 2592SOL    HW2 7778   4.083   3.694   2.078
 2593SOL     OW 7779   3.802   4.280   3.248
 2593SOL    HW1 7780   3.894   4.279   3.207
 2593SOL    HW2 7781   3.796   4.354   3.315
 2594SOL     OW 7782   4.285   3.946   3.009
 2594SOL    HW1 7783   4.323   3.862   3.046
 2594SOL    HW2 7784   4.197   3.965   3.053
 2595SOL     OW 7785   4.290   4.261   2.727
 2595SOL    HW1 7786   4.302   4.327   2.653
 2595SOL    HW2 7787   4.336   4.295   2.810
 2596SOL     OW 7788   4.228   3.774   3.602
 2596SOL    HW1 7789   4.186   3.717   3.532
 2596SOL    HW2 7790   4.162   3.843   3.634
 2597SOL     OW 7791   4.031   3.937   3.093
 2597SOL    HW1 7792   4.008   3.974   3.183
 2597SOL    HW2 7793   4.001   3.842   3.087
 2598SOL     OW 7794   4.031   3.787   2.480
 2598SOL    HW1 7795   4.020   3.881   2.513
 2598SOL    HW2 7796   4.026   3.724   2.557
 2599SOL     OW 7797   4.063   4.233   2.868
 2599SOL    HW1 7798   4.011   4.150   2.851
 2599SOL    HW2 7799   4.140   4.238   2.804
 2600SOL     OW 7800   3.764   4.268   2.976
 2600SOL    HW1 7801   3.849   4.235   2.935
 2600SOL    HW2 7802   3.777   4.283   3.074
 2601SOL     OW 7803   3.913   4.244   3.584
 2601SOL    HW1 7804   3.972   4.204   3.514
 2601SOL    HW2 7805   3.855   4.315   3.543
 2602SOL     OW 7806   3.987   4.050   2.582
 2602SOL    HW1 7807   3.908   4.101   2.548
 2602SOL    HW2 7808   3.978   4.035   2.680
 2603SOL     OW 7809   3.799   4.069   1.895
 2603SOL    HW1 7810   3.707   4.041   1.866
 2603SOL    HW2 7811   3.830   4.146   1.839
 2604SOL     OW 7812   3.796   3.890   2.180
 2604SOL    HW1 7813   3.779   3.973   2.126
 2604SOL    HW2 7814   3.886   3.853   2.158
 2605SOL     OW 7815   3.846   4.367   4.287
 2605SOL    HW1 7816   3.801   4.279   4.304
 2605SOL    HW2 7817   3.845   4.421   4.371
 2606SOL     OW 7818   4.106   4.424   4.204
 2606SOL    HW1 7819   4.151   4.334   4.201
 2606SOL    HW2 7820   4.012   4.413   4.237
 2607SOL     OW 7821   4.263   3.788   4.236
 2607SOL    HW1 7822   4.182   3.789   4.294
 2607SOL    HW2 7823   4.266   3.871   4.181
 2608SOL     OW 7824   4.021   3.759   3.895
 2608SOL    HW1 7825   4.070   3.843   3.874
 2608SOL    HW2 7826   4.083   3.694   3.940
 2609SOL     OW 7827   3.987   4.050   4.444
 2609SOL    HW1 7828   3.908   4.101   4.410
 2609SOL    HW2 7829   3.978   4.035   4.542
 2610SOL     OW 7830   3.799   4.069   3.757
 2610SOL    HW1 7831   3.707   4.041   3.728
 2610SOL    HW2 7832   3.830   4.146   3.701
 2611SOL     OW 7833   3.796   3.890   4.042
 2611SOL    HW1 7834   3.779   3.973   3.988
 2611SOL    HW2 7835   3.886   3.853   4.020
   4.27060   4.27060   4.27060
