; mobley_1328465_GMX_OPLS.top created by acpype (v: 2023.10.27) on Wed May 20 23:46:00 2026

; Include forcefield parameters
#include "ffoplsaa.itp"

; Include mobley_1328465_GMX.itp topology
#include "mobley_1328465_GMX.itp"

; Ligand position restraints
#ifdef POSRES_LIG
#include "posre_mobley_1328465.itp"
#endif

[ system ]
 mobley_1328465

[ molecules ]
; Compound        nmols
 mobley_1328465   1     
