mobley_2725802_GMX.gro created by acpype (v: 2023.10.27) on Thu May 21 00:01:23 2026
   19
    1MOL     C1    1   2.240   2.291   2.479
    1MOL     C2    2   2.308   2.423   2.142
    1MOL     C3    3   2.434   2.343   2.168
    1MOL     C4    4   2.210   2.365   2.243
    1MOL     C5    5   2.435   2.326   2.319
    1MOL     C6    6   2.340   2.251   2.584
    1MOL     N1    7   2.293   2.325   2.356
    1MOL     O1    8   2.120   2.292   2.505
    1MOL     H1    9   2.326   2.529   2.164
    1MOL     H2   10   2.271   2.415   2.039
    1MOL     H3   11   2.426   2.244   2.119
    1MOL     H4   12   2.525   2.392   2.130
    1MOL     H5   13   2.133   2.437   2.275
    1MOL     H6   14   2.160   2.275   2.205
    1MOL     H7   15   2.484   2.234   2.352
    1MOL     H8   16   2.481   2.412   2.369
    1MOL     H9   17   2.425   2.319   2.577
    1MOL    H10   18   2.372   2.149   2.564
    1MOL    H11   19   2.293   2.260   2.681
   4.66081   4.66081   4.66081
