; mobley_5952846_GMX_OPLS.itp created by acpype (v: 2023.10.27) on Wed May 20 23:48:22 2026

; For OPLS atomtypes manual fine tuning
; AC_at:OPLS_at:OPLScode: Possible_Alternatives (see ffoplsaa.atp and ffoplsaanb.itp)
; c2:CR:opls_509: ['510']
; cl:x:opls_x: []

[ moleculetype ]
;name            nrexcl
 mobley_5952846   3

[ atoms ]
;   nr  type  resi  res  atom  cgnr     charge      mass       ; qtot   bond_type
     1 opls_509     1   MOL    C1    1     0.062800     12.01100 ; qtot  0.063  CR  
     2 opls_509     1   MOL    C2    2     0.062800     12.01100 ; qtot  0.126  CR  
     3 opls_x     1   MOL   CL1    3    -0.031400      0.00000 ; qtot  0.094  x   
     4 opls_x     1   MOL   CL2    4    -0.031400      0.00000 ; qtot  0.063  x   
     5 opls_x     1   MOL   CL3    5    -0.031400      0.00000 ; qtot  0.031  x   
     6 opls_x     1   MOL   CL4    6    -0.031400      0.00000 ; qtot -0.000  x   

[ bonds ]
;   ai     aj funct   r             k
     1      2   1 ;    1.3379e-01    3.6484e+05 ;     C1 - C2         CR - CR    
     1      3   1 ;    1.7415e-01    1.6405e+05 ;     C1 - CL1        CR - x     
     1      4   1 ;    1.7415e-01    1.6405e+05 ;     C1 - CL2        CR - x     
     2      5   1 ;    1.7415e-01    1.6405e+05 ;     C2 - CL3        CR - x     
     2      6   1 ;    1.7415e-01    1.6405e+05 ;     C2 - CL4        CR - x     

[ pairs ]
;   ai     aj    funct
     3      5      1 ;    CL1 - CL3   
     3      6      1 ;    CL1 - CL4   
     4      5      1 ;    CL2 - CL3   
     4      6      1 ;    CL2 - CL4   

[ angles ]
;   ai     aj     ak    funct   theta         cth
     1      2      5      1 ;    1.2318e+02    5.3622e+02 ;     C1 - C2   - CL3      CR -   CR - x   
     1      2      6      1 ;    1.2318e+02    5.3622e+02 ;     C1 - C2   - CL4      CR -   CR - x   
     2      1      3      1 ;    1.2318e+02    5.3622e+02 ;     C2 - C1   - CL1      CR -   CR - x   
     2      1      4      1 ;    1.2318e+02    5.3622e+02 ;     C2 - C1   - CL2      CR -   CR - x   
     3      1      4      1 ;    1.1438e+02    5.9137e+02 ;    CL1 - C1   - CL2       x -   CR - x   
     5      2      6      1 ;    1.1438e+02    5.9137e+02 ;    CL3 - C2   - CL4       x -   CR - x   

[ dihedrals ] ; propers
; for gromacs 4.5 or higher, using funct 9
;    i      j      k      l   func   phase     kd      pn
     3      1      2      5      9 ;   180.00  27.82360   2 ;    CL1-    C1-    C2-   CL3
     3      1      2      6      9 ;   180.00  27.82360   2 ;    CL1-    C1-    C2-   CL4
     4      1      2      5      9 ;   180.00  27.82360   2 ;    CL2-    C1-    C2-   CL3
     4      1      2      6      9 ;   180.00  27.82360   2 ;    CL2-    C1-    C2-   CL4

[ dihedrals ] ; impropers
; treated as propers in GROMACS to use correct AMBER analytical function
;    i      j      k      l   func   phase     kd      pn
     1      5      2      6      4 ;   180.00   4.60240   2 ;     C1-   CL3-    C2-   CL4
     4      1      3      2      4 ;   180.00   4.60240   2 ;    CL2-    C1-   CL1-    C2
