mobley_5952846_GMX.gro created by acpype (v: 2023.10.27) on Wed May 20 23:48:22 2026
 6
    1  MOL   C1    1  -0.040  -0.128   0.006
    1  MOL   C2    2   0.000   0.000   0.000
    1  MOL  CL1    3   0.071  -0.261   0.005
    1  MOL  CL2    4  -0.208  -0.173   0.014
    1  MOL  CL3    5  -0.112   0.133   0.001
    1  MOL  CL4    6   0.168   0.045  -0.009
    7.51200     7.89000     0.46200
