mobley_3264884_GMX.gro created by acpype (v: 2023.10.27) on Wed May 20 23:51:47 2026
11141
    1MOL     C1    1   2.141   2.536   2.447
    1MOL     C2    2   2.232   2.639   2.421
    1MOL     C3    3   2.184   2.404   2.449
    1MOL     C4    4   2.366   2.609   2.399
    1MOL     C5    5   2.364   2.239   2.430
    1MOL     C6    6   2.499   2.209   2.407
    1MOL     C7    7   2.546   2.444   2.379
    1MOL     C8    8   2.319   2.372   2.427
    1MOL     C9    9   2.411   2.476   2.402
    1MOL    C10   10   2.590   2.312   2.382
    1MOL     N1   11   2.726   2.281   2.360
    1MOL     H1   12   2.036   2.560   2.464
    1MOL     H2   13   2.198   2.742   2.419
    1MOL     H3   14   2.111   2.325   2.469
    1MOL     H4   15   2.435   2.690   2.379
    1MOL     H5   16   2.295   2.157   2.449
    1MOL     H6   17   2.531   2.105   2.410
    1MOL     H7   18   2.618   2.523   2.359
    1MOL     H8   19   2.750   2.192   2.322
    1MOL     H9   20   2.796   2.346   2.390
    2SOL     OW   21   0.230   0.628   0.113
    2SOL    HW1   22   0.137   0.626   0.150
    2SOL    HW2   23   0.231   0.589   0.021
    3SOL     OW   24   0.225   0.275   0.996
    3SOL    HW1   25   0.260   0.258   1.088
    3SOL    HW2   26   0.137   0.230   0.984
    4SOL     OW   27   0.019   0.368   0.647
    4SOL    HW1   28  -0.063   0.411   0.686
    4SOL    HW2   29  -0.009   0.295   0.584
    5SOL     OW   30   0.569   1.275   1.165
    5SOL    HW1   31   0.476   1.268   1.128
    5SOL    HW2   32   0.580   1.364   1.209
    6SOL     OW   33   1.555   1.511   0.703
    6SOL    HW1   34   1.498   1.495   0.784
    6SOL    HW2   35   1.496   1.521   0.623
    7SOL     OW   36   1.135   0.703   0.717
    7SOL    HW1   37   1.192   0.781   0.692
    7SOL    HW2   38   1.075   0.729   0.793
    8SOL     OW   39   1.755   0.607   0.231
    8SOL    HW1   40   1.743   0.594   0.132
    8SOL    HW2   41   1.725   0.526   0.280
    9SOL     OW   42   0.768   1.144   1.023
    9SOL    HW1   43   0.690   1.161   1.083
    9SOL    HW2   44   0.802   1.231   0.987
   10SOL     OW   45   0.850   0.798   1.823
   10SOL    HW1   46   0.846   0.874   1.888
   10SOL    HW2   47   0.872   0.834   1.732
   11SOL     OW   48   0.685   1.012   0.665
   11SOL    HW1   49   0.754   0.996   0.735
   11SOL    HW2   50   0.612   1.069   0.703
   12SOL     OW   51   0.686   1.161   1.803
   12SOL    HW1   52   0.746   1.240   1.817
   12SOL    HW2   53   0.600   1.192   1.762
   13SOL     OW   54   0.335   1.435   1.061
   13SOL    HW1   55   0.257   1.404   1.008
   13SOL    HW2   56   0.393   1.493   1.004
   14SOL     OW   57   1.460   1.505   1.339
   14SOL    HW1   58   1.484   1.599   1.365
   14SOL    HW2   59   1.444   1.451   1.421
   15SOL     OW   60   0.438   0.392   1.499
   15SOL    HW1   61   0.520   0.336   1.508
   15SOL    HW2   62   0.357   0.334   1.503
   16SOL     OW   63   1.603   0.447   0.737
   16SOL    HW1   64   1.529   0.493   0.687
   16SOL    HW2   65   1.654   0.515   0.790
   17SOL     OW   66   0.231   1.713   0.483
   17SOL    HW1   67   0.265   1.790   0.537
   17SOL    HW2   68   0.275   1.713   0.393
   18SOL     OW   69   1.127   1.341   1.690
   18SOL    HW1   70   1.174   1.341   1.778
   18SOL    HW2   71   1.079   1.254   1.679
   19SOL     OW   72   0.230   1.434   0.538
   19SOL    HW1   73   0.204   1.530   0.538
   19SOL    HW2   74   0.159   1.380   0.583
   20SOL     OW   75   0.240   1.091   0.886
   20SOL    HW1   76   0.254   1.007   0.938
   20SOL    HW2   77   0.185   1.155   0.941
   21SOL     OW   78   0.620   1.786   1.439
   21SOL    HW1   79   0.528   1.769   1.474
   21SOL    HW2   80   0.648   1.878   1.465
   22SOL     OW   81   0.606   0.964   0.123
   22SOL    HW1   82   0.613   1.048   0.069
   22SOL    HW2   83   0.652   0.977   0.211
   23SOL     OW   84   1.594   0.114   1.480
   23SOL    HW1   85   1.576   0.181   1.408
   23SOL    HW2   86   1.591   0.160   1.569
   24SOL     OW   87   0.122   0.643   0.563
   24SOL    HW1   88   0.077   0.555   0.580
   24SOL    HW2   89   0.121   0.697   0.647
   25SOL     OW   90   1.842   1.767   0.359
   25SOL    HW1   91   1.896   1.738   0.439
   25SOL    HW2   92   1.872   1.857   0.330
   26SOL     OW   93   0.027   1.596   0.117
   26SOL    HW1   94   0.008   1.500   0.138
   26SOL    HW2   95  -0.006   1.654   0.192
   27SOL     OW   96   1.689   0.922   0.612
   27SOL    HW1   97   1.784   0.893   0.620
   27SOL    HW2   98   1.681   0.987   0.537
   28SOL     OW   99   1.641   1.108   0.432
   28SOL    HW1  100   1.727   1.110   0.380
   28SOL    HW2  101   1.655   1.155   0.520
   29SOL     OW  102   0.113   0.737   1.597
   29SOL    HW1  103   0.201   0.724   1.642
   29SOL    HW2  104   0.100   0.834   1.575
   30SOL     OW  105   0.613   1.365   0.726
   30SOL    HW1  106   0.564   1.278   0.735
   30SOL    HW2  107   0.590   1.408   0.639
   31SOL     OW  108   1.293   1.228   1.423
   31SOL    HW1  109   1.330   1.155   1.365
   31SOL    HW2  110   1.345   1.233   1.508
   32SOL     OW  111   0.809   0.004   0.502
   32SOL    HW1  112   0.849   0.095   0.493
   32SOL    HW2  113   0.709   0.012   0.508
   33SOL     OW  114   0.197   0.976   1.264
   33SOL    HW1  115   0.286   0.931   1.250
   33SOL    HW2  116   0.124   0.911   1.245
   34SOL     OW  117   1.525   0.999   0.190
   34SOL    HW1  118   1.462   0.923   0.203
   34SOL    HW2  119   1.573   1.017   0.276
   35SOL     OW  120   1.187   1.792   1.616
   35SOL    HW1  121   1.211   1.852   1.540
   35SOL    HW2  122   1.194   1.697   1.586
   36SOL     OW  123   0.317   0.251   1.801
   36SOL    HW1  124   0.388   0.322   1.807
   36SOL    HW2  125   0.229   0.290   1.829
   37SOL     OW  126   1.466   1.417   0.953
   37SOL    HW1  127   1.407   1.423   1.033
   37SOL    HW2  128   1.451   1.329   0.907
   38SOL     OW  129   1.667   1.714   0.572
   38SOL    HW1  130   1.626   1.691   0.484
   38SOL    HW2  131   1.649   1.640   0.637
   39SOL     OW  132   0.598   0.729   0.270
   39SOL    HW1  133   0.622   0.798   0.202
   39SOL    HW2  134   0.520   0.762   0.324
   40SOL     OW  135   1.281   0.345   0.944
   40SOL    HW1  136   1.195   0.295   0.931
   40SOL    HW2  137   1.343   0.291   1.000
   41SOL     OW  138   1.576   1.662   0.307
   41SOL    HW1  139   1.665   1.708   0.310
   41SOL    HW2  140   1.555   1.638   0.212
   42SOL     OW  141   0.807   0.605   1.465
   42SOL    HW1  142   0.760   0.602   1.554
   42SOL    HW2  143   0.756   0.550   1.399
   43SOL     OW  144   1.394   0.469   1.674
   43SOL    HW1  145   1.374   0.512   1.762
   43SOL    HW2  146   1.472   0.407   1.683
   44SOL     OW  147   0.973   0.890   1.572
   44SOL    HW1  148   1.019   0.806   1.543
   44SOL    HW2  149   0.917   0.924   1.497
   45SOL     OW  150   0.991   0.410   1.242
   45SOL    HW1  151   0.914   0.444   1.296
   45SOL    HW2  152   0.957   0.359   1.163
   46SOL     OW  153   1.041   0.701   0.429
   46SOL    HW1  154   1.067   0.697   0.525
   46SOL    HW2  155   0.956   0.650   0.415
   47SOL     OW  156   0.076   0.811   0.789
   47SOL    HW1  157   0.175   0.799   0.798
   47SOL    HW2  158   0.052   0.906   0.810
   48SOL     OW  159   0.130   1.821   1.571
   48SOL    HW1  160   0.120   1.806   1.670
   48SOL    HW2  161   0.044   1.857   1.535
   49SOL     OW  162   0.865   0.348   0.195
   49SOL    HW1  163   0.924   0.411   0.146
   49SOL    HW2  164   0.884   0.254   0.166
   50SOL     OW  165   1.719   0.585   1.831
   50SOL    HW1  166   1.693   0.674   1.795
   50SOL    HW2  167   1.717   0.517   1.758
   51SOL     OW  168   1.362   1.144   0.545
   51SOL    HW1  169   1.445   1.115   0.497
   51SOL    HW2  170   1.313   1.211   0.489
   52SOL     OW  171   0.550   0.196   0.885
   52SOL    HW1  172   0.545   0.191   0.985
   52SOL    HW2  173   0.552   0.292   0.856
   53SOL     OW  174   1.008   1.456   0.477
   53SOL    HW1  175   0.962   1.528   0.425
   53SOL    HW2  176   1.004   1.476   0.575
   54SOL     OW  177   0.351   1.801   0.853
   54SOL    HW1  178   0.401   1.715   0.859
   54SOL    HW2  179   0.416   1.878   0.850
   55SOL     OW  180   1.795   1.066   0.873
   55SOL    HW1  181   1.733   1.051   0.797
   55SOL    HW2  182   1.743   1.077   0.958
   56SOL     OW  183   1.227   1.550   1.506
   56SOL    HW1  184   1.233   1.473   1.570
   56SOL    HW2  185   1.175   1.524   1.426
   57SOL     OW  186   0.321   0.943   0.242
   57SOL    HW1  187   0.403   0.982   0.200
   57SOL    HW2  188   0.294   0.861   0.193
   58SOL     OW  189   1.458   0.735   0.728
   58SOL    HW1  190   1.453   0.670   0.803
   58SOL    HW2  191   1.538   0.794   0.741
   59SOL     OW  192   0.461   1.266   1.727
   59SOL    HW1  193   0.411   1.267   1.641
   59SOL    HW2  194   0.398   1.248   1.803
   60SOL     OW  195   1.111   1.776   0.237
   60SOL    HW1  196   1.051   1.714   0.287
   60SOL    HW2  197   1.142   1.732   0.152
   61SOL     OW  198   0.202   0.285   1.498
   61SOL    HW1  199   0.122   0.345   1.485
   61SOL    HW2  200   0.192   0.236   1.584
   62SOL     OW  201   1.632   1.377   0.081
   62SOL    HW1  202   1.600   1.471   0.071
   62SOL    HW2  203   1.556   1.314   0.069
   63SOL     OW  204   0.464   1.743   0.323
   63SOL    HW1  205   0.497   1.782   0.409
   63SOL    HW2  206   0.540   1.736   0.258
   64SOL     OW  207   1.400   0.107   0.426
   64SOL    HW1  208   1.376   0.070   0.336
   64SOL    HW2  209   1.499   0.123   0.430
   65SOL     OW  210   0.249   1.785   1.241
   65SOL    HW1  211   0.306   1.720   1.291
   65SOL    HW2  212   0.233   1.752   1.148
   66SOL     OW  213   0.940   1.698   0.904
   66SOL    HW1  214   1.020   1.641   0.925
   66SOL    HW2  215   0.891   1.658   0.827
   67SOL     OW  216   0.382   0.700   0.480
   67SOL    HW1  217   0.427   0.610   0.477
   67SOL    HW2  218   0.288   0.689   0.513
   68SOL     OW  219   1.547   0.222   1.729
   68SOL    HW1  220   1.542   0.259   1.821
   68SOL    HW2  221   1.475   0.153   1.717
   69SOL     OW  222   0.614   0.122   0.117
   69SOL    HW1  223   0.712   0.100   0.124
   69SOL    HW2  224   0.583   0.105   0.024
   70SOL     OW  225   0.781   0.264   1.749
   70SOL    HW1  226   0.848   0.203   1.792
   70SOL    HW2  227   0.708   0.283   1.814
   71SOL     OW  228   0.888   1.514   1.195
   71SOL    HW1  229   0.865   1.489   1.101
   71SOL    HW2  230   0.949   1.445   1.234
   72SOL     OW  231   1.351   0.590   1.433
   72SOL    HW1  232   1.379   0.547   1.518
   72SOL    HW2  233   1.376   0.686   1.434
   73SOL     OW  234   0.803   1.402   0.924
   73SOL    HW1  235   0.893   1.416   0.882
   73SOL    HW2  236   0.732   1.404   0.853
   74SOL     OW  237   0.922   0.503   0.899
   74SOL    HW1  238   0.897   0.494   0.803
   74SOL    HW2  239   0.970   0.421   0.930
   75SOL     OW  240   0.539   0.064   0.512
   75SOL    HW1  241   0.458   0.065   0.570
   75SOL    HW2  242   0.542   0.147   0.457
   76SOL     OW  243   1.434   1.188   0.041
   76SOL    HW1  244   1.466   1.112   0.098
   76SOL    HW2  245   1.342   1.215   0.071
   77SOL     OW  246   0.297   0.035   0.171
   77SOL    HW1  247   0.346   0.119   0.150
   77SOL    HW2  248   0.359  -0.030   0.216
   78SOL     OW  249   0.935   0.236   0.480
   78SOL    HW1  250   0.887   0.277   0.402
   78SOL    HW2  251   1.034   0.234   0.461
   79SOL     OW  252   1.076   0.683   1.464
   79SOL    HW1  253   0.996   0.622   1.467
   79SOL    HW2  254   1.157   0.630   1.440
   80SOL     OW  255   1.227   1.570   0.793
   80SOL    HW1  256   1.248   1.644   0.728
   80SOL    HW2  257   1.295   1.570   0.866
   81SOL     OW  258   0.459   1.152   0.741
   81SOL    HW1  259   0.388   1.125   0.806
   81SOL    HW2  260   0.433   1.124   0.648
   82SOL     OW  261   1.271   1.797   0.591
   82SOL    HW1  262   1.315   1.861   0.527
   82SOL    HW2  263   1.221   1.849   0.661
   83SOL     OW  264   1.032   0.549   0.016
   83SOL    HW1  265   0.991   0.631  -0.023
   83SOL    HW2  266   1.096   0.575   0.089
   84SOL     OW  267   0.078   0.556   1.386
   84SOL    HW1  268   0.170   0.555   1.345
   84SOL    HW2  269   0.072   0.630   1.453
   85SOL     OW  270   0.561   0.222   1.147
   85SOL    HW1  271   0.599   0.138   1.184
   85SOL    HW2  272   0.473   0.241   1.191
   86SOL     OW  273   0.866   0.454   0.642
   86SOL    HW1  274   0.834   0.526   0.580
   86SOL    HW2  275   0.890   0.373   0.589
   87SOL     OW  276   1.017   0.039   0.753
   87SOL    HW1  277   0.945   0.044   0.684
   87SOL    HW2  278   0.993  -0.030   0.822
   88SOL     OW  279   1.429   1.173   0.867
   88SOL    HW1  280   1.374   1.089   0.860
   88SOL    HW2  281   1.455   1.202   0.775
   89SOL     OW  282   1.466   0.590   0.992
   89SOL    HW1  283   1.436   0.495   0.999
   89SOL    HW2  284   1.539   0.606   1.058
   90SOL     OW  285   1.857   0.833   0.377
   90SOL    HW1  286   1.899   0.769   0.441
   90SOL    HW2  287   1.819   0.782   0.299
   91SOL     OW  288   0.488   1.385   0.174
   91SOL    HW1  289   0.401   1.370   0.221
   91SOL    HW2  290   0.471   1.411   0.079
   92SOL     OW  291   1.664   1.280   0.657
   92SOL    HW1  292   1.763   1.288   0.671
   92SOL    HW2  293   1.619   1.364   0.688
   93SOL     OW  294   1.390   0.575   0.078
   93SOL    HW1  295   1.336   0.554   0.159
   93SOL    HW2  296   1.481   0.534   0.087
   94SOL     OW  297   0.527   0.256   0.328
   94SOL    HW1  298   0.554   0.197   0.253
   94SOL    HW2  299   0.527   0.351   0.297
   95SOL     OW  300   1.754   1.223   1.588
   95SOL    HW1  301   1.845   1.184   1.575
   95SOL    HW2  302   1.762   1.319   1.612
   96SOL     OW  303   1.064   1.347   1.340
   96SOL    HW1  304   0.984   1.324   1.395
   96SOL    HW2  305   1.147   1.321   1.389
   97SOL     OW  306   1.592   1.629   1.625
   97SOL    HW1  307   1.619   1.663   1.535
   97SOL    HW2  308   1.671   1.591   1.671
   98SOL     OW  309   1.111   1.195   1.100
   98SOL    HW1  310   1.071   1.239   1.181
   98SOL    HW2  311   1.070   1.232   1.017
   99SOL     OW  312   1.638   1.099   1.079
   99SOL    HW1  313   1.643   1.180   1.138
   99SOL    HW2  314   1.552   1.101   1.028
  100SOL     OW  315   0.915   0.089   1.402
  100SOL    HW1  316   0.940   0.069   1.307
  100SOL    HW2  317   0.987   0.145   1.444
  101SOL     OW  318   0.980   1.116   1.719
  101SOL    HW1  319   0.881   1.122   1.729
  101SOL    HW2  320   1.003   1.036   1.663
  102SOL     OW  321   0.705   1.050   0.368
  102SOL    HW1  322   0.691   1.057   0.467
  102SOL    HW2  323   0.789   0.999   0.350
  103SOL     OW  324   0.410   0.813   1.251
  103SOL    HW1  325   0.496   0.825   1.301
  103SOL    HW2  326   0.368   0.726   1.278
  104SOL     OW  327   1.274   0.386   1.262
  104SOL    HW1  328   1.295   0.460   1.326
  104SOL    HW2  329   1.185   0.403   1.219
  105SOL     OW  330   0.064   1.564   1.331
  105SOL    HW1  331   0.018   1.646   1.297
  105SOL    HW2  332   0.162   1.583   1.340
  106SOL     OW  333   0.367   1.100   0.501
  106SOL    HW1  334   0.360   1.183   0.445
  106SOL    HW2  335   0.371   1.020   0.441
  107SOL     OW  336   0.566   0.537   0.865
  107SOL    HW1  337   0.578   0.603   0.791
  107SOL    HW2  338   0.612   0.571   0.948
  108SOL     OW  339   1.252   1.348   0.388
  108SOL    HW1  340   1.302   1.425   0.428
  108SOL    HW2  341   1.157   1.350   0.420
  109SOL     OW  342   1.272   1.445   1.142
  109SOL    HW1  343   1.319   1.458   1.229
  109SOL    HW2  344   1.206   1.371   1.151
  110SOL     OW  345   1.582   0.639   0.472
  110SOL    HW1  346   1.551   0.700   0.545
  110SOL    HW2  347   1.632   0.691   0.403
  111SOL     OW  348   0.354   1.510   1.329
  111SOL    HW1  349   0.333   1.466   1.242
  111SOL    HW2  350   0.451   1.536   1.332
  112SOL     OW  351   0.402   0.751   1.598
  112SOL    HW1  352   0.470   0.806   1.551
  112SOL    HW2  353   0.442   0.663   1.625
  113SOL     OW  354   1.587   0.779   1.670
  113SOL    HW1  355   1.495   0.817   1.665
  113SOL    HW2  356   1.647   0.826   1.605
  114SOL     OW  357   1.013   0.105   1.770
  114SOL    HW1  358   1.019   0.190   1.718
  114SOL    HW2  359   1.045   0.029   1.713
  115SOL     OW  360   0.504   0.050   1.740
  115SOL    HW1  361   0.462  -0.007   1.670
  115SOL    HW2  362   0.438   0.119   1.772
  116SOL     OW  363   0.573   0.870   1.029
  116SOL    HW1  364   0.617   0.959   1.020
  116SOL    HW2  365   0.510   0.870   1.106
  117SOL     OW  366   1.360   0.862   1.045
  117SOL    HW1  367   1.285   0.862   0.979
  117SOL    HW2  368   1.397   0.770   1.054
  118SOL     OW  369   1.209   0.525   0.275
  118SOL    HW1  370   1.222   0.441   0.329
  118SOL    HW2  371   1.180   0.599   0.335
  119SOL     OW  372   0.307   0.213   1.231
  119SOL    HW1  373   0.284   0.250   1.321
  119SOL    HW2  374   0.277   0.118   1.225
  120SOL     OW  375   0.037   1.310   1.282
  120SOL    HW1  376   0.090   1.261   1.350
  120SOL    HW2  377   0.059   1.408   1.287
  121SOL     OW  378   0.732   0.634   1.064
  121SOL    HW1  379   0.791   0.608   0.988
  121SOL    HW2  380   0.704   0.730   1.053
  122SOL     OW  381   1.728   0.935   1.854
  122SOL    HW1  382   1.682   0.928   1.765
  122SOL    HW2  383   1.666   0.979   1.920
  123SOL     OW  384   0.307   0.063   0.618
  123SOL    HW1  385   0.296   0.157   0.651
  123SOL    HW2  386   0.302   0.000   0.695
  124SOL     OW  387   1.622   0.367   0.374
  124SOL    HW1  388   1.624   0.291   0.438
  124SOL    HW2  389   1.574   0.444   0.414
  125SOL     OW  390   1.023   0.766   0.966
  125SOL    HW1  391   1.038   0.787   1.062
  125SOL    HW2  392   0.993   0.671   0.957
  126SOL     OW  393   0.980   1.573   1.700
  126SOL    HW1  394   0.960   1.617   1.612
  126SOL    HW2  395   1.019   1.482   1.684
  127SOL     OW  396   1.859   1.518   1.605
  127SOL    HW1  397   1.873   1.545   1.510
  127SOL    HW2  398   1.942   1.540   1.658
  128SOL     OW  399   0.350   0.898   1.804
  128SOL    HW1  400   0.426   0.942   1.852
  128SOL    HW2  401   0.385   0.851   1.722
  129SOL     OW  402   1.540   0.274   0.125
  129SOL    HW1  403   1.479   0.199   0.148
  129SOL    HW2  404   1.562   0.326   0.208
  130SOL     OW  405   1.303   0.838   0.042
  130SOL    HW1  406   1.337   0.745   0.057
  130SOL    HW2  407   1.321   0.865  -0.053
  131SOL     OW  408   1.068   1.333   0.849
  131SOL    HW1  409   1.075   1.249   0.794
  131SOL    HW2  410   1.130   1.402   0.813
  132SOL     OW  411   0.319   0.810   0.949
  132SOL    HW1  412   0.412   0.846   0.954
  132SOL    HW2  413   0.313   0.725   1.001
  133SOL     OW  414   0.339   0.509   1.006
  133SOL    HW1  415   0.287   0.426   0.989
  133SOL    HW2  416   0.416   0.514   0.942
  134SOL     OW  417   1.138   0.380   1.678
  134SOL    HW1  418   1.093   0.443   1.742
  134SOL    HW2  419   1.231   0.411   1.661
  135SOL     OW  420   1.160   0.207   1.477
  135SOL    HW1  421   1.160   0.271   1.554
  135SOL    HW2  422   1.188   0.255   1.394
  136SOL     OW  423   0.008   1.326   0.200
  136SOL    HW1  424  -0.085   1.347   0.169
  136SOL    HW2  425   0.018   1.227   0.213
  137SOL     OW  426   0.088   1.801   0.927
  137SOL    HW1  427   0.046   1.715   0.900
  137SOL    HW2  428   0.182   1.804   0.893
  138SOL     OW  429   0.504   1.568   0.910
  138SOL    HW1  430   0.570   1.642   0.919
  138SOL    HW2  431   0.548   1.489   0.868
  139SOL     OW  432   1.002   0.796   1.238
  139SOL    HW1  433   1.043   0.764   1.324
  139SOL    HW2  434   0.906   0.769   1.235
  140SOL     OW  435   0.040   0.544   1.114
  140SOL    HW1  436   0.125   0.511   1.073
  140SOL    HW2  437   0.053   0.559   1.212
  141SOL     OW  438   0.189   0.520   1.722
  141SOL    HW1  439   0.248   0.480   1.652
  141SOL    HW2  440   0.131   0.591   1.681
  142SOL     OW  441   1.369   0.950   1.660
  142SOL    HW1  442   1.408   1.039   1.680
  142SOL    HW2  443   1.379   0.930   1.563
  143SOL     OW  444   0.815   0.572   0.325
  143SOL    HW1  445   0.822   0.483   0.279
  143SOL    HW2  446   0.721   0.606   0.317
  144SOL     OW  447   1.657   0.604   1.206
  144SOL    HW1  448   1.619   0.535   1.268
  144SOL    HW2  449   1.739   0.568   1.162
  145SOL     OW  450   0.252   1.564   1.744
  145SOL    HW1  451   0.222   1.621   1.820
  145SOL    HW2  452   0.245   1.467   1.770
  146SOL     OW  453   0.671   0.464   1.269
  146SOL    HW1  454   0.637   0.375   1.239
  146SOL    HW2  455   0.697   0.518   1.189
  147SOL     OW  456   0.930   1.678   1.465
  147SOL    HW1  457   0.906   1.660   1.370
  147SOL    HW2  458   0.960   1.772   1.475
  148SOL     OW  459   0.473   0.500   0.191
  148SOL    HW1  460   0.534   0.580   0.195
  148SOL    HW2  461   0.378   0.531   0.198
  149SOL     OW  462   0.159   1.137   1.466
  149SOL    HW1  463   0.181   1.076   1.542
  149SOL    HW2  464   0.169   1.088   1.380
  150SOL     OW  465   1.347   1.059   1.234
  150SOL    HW1  466   1.371   0.996   1.160
  150SOL    HW2  467   1.257   1.099   1.216
  151SOL     OW  468   1.302   0.855   0.309
  151SOL    HW1  469   1.216   0.824   0.351
  151SOL    HW2  470   1.298   0.841   0.210
  152SOL     OW  471   1.759   1.747   1.154
  152SOL    HW1  472   1.820   1.777   1.081
  152SOL    HW2  473   1.721   1.658   1.132
  153SOL     OW  474   1.252   1.731   1.128
  153SOL    HW1  475   1.336   1.736   1.074
  153SOL    HW2  476   1.229   1.635   1.146
  154SOL     OW  477   0.083   1.258   1.022
  154SOL    HW1  478   0.078   1.257   1.122
  154SOL    HW2  479   0.000   1.217   0.984
  155SOL     OW  480   0.688   1.662   1.716
  155SOL    HW1  481   0.632   1.743   1.725
  155SOL    HW2  482   0.740   1.666   1.630
  156SOL     OW  483   0.903   0.086   0.133
  156SOL    HW1  484   0.954   0.087   0.047
  156SOL    HW2  485   0.959   0.044   0.204
  157SOL     OW  486   1.726   0.135   0.523
  157SOL    HW1  487   1.799   0.118   0.456
  157SOL    HW2  488   1.695   0.048   0.561
  158SOL     OW  489   1.388   1.573   0.477
  158SOL    HW1  490   1.455   1.585   0.403
  158SOL    HW2  491   1.348   1.662   0.500
  159SOL     OW  492   0.130   1.794   1.851
  159SOL    HW1  493   0.089   1.720   1.904
  159SOL    HW2  494   0.194   1.845   1.909
  160SOL     OW  495   1.280   0.927   0.672
  160SOL    HW1  496   1.340   0.846   0.674
  160SOL    HW2  497   1.320   0.996   0.612
  161SOL     OW  498   0.830   1.273   1.422
  161SOL    HW1  499   0.825   1.306   1.517
  161SOL    HW2  500   0.744   1.292   1.376
  162SOL     OW  501   0.672   1.616   0.154
  162SOL    HW1  502   0.681   1.626   0.055
  162SOL    HW2  503   0.632   1.527   0.175
  163SOL     OW  504   1.650   1.720   1.394
  163SOL    HW1  505   1.703   1.730   1.310
  163SOL    HW2  506   1.623   1.810   1.428
  164SOL     OW  507   1.841   0.175   0.963
  164SOL    HW1  508   1.880   0.090   0.927
  164SOL    HW2  509   1.743   0.177   0.944
  165SOL     OW  510   0.263   0.326   0.720
  165SOL    HW1  511   0.184   0.377   0.686
  165SOL    HW2  512   0.254   0.311   0.818
  166SOL     OW  513   1.194   1.612   0.031
  166SOL    HW1  514   1.200   1.519   0.068
  166SOL    HW2  515   1.135   1.612  -0.049
  167SOL     OW  516   0.822   1.002   1.372
  167SOL    HW1  517   0.862   1.001   1.280
  167SOL    HW2  518   0.832   1.094   1.412
  168SOL     OW  519   0.916   0.910   0.291
  168SOL    HW1  520   0.979   0.948   0.223
  168SOL    HW2  521   0.956   0.827   0.330
  169SOL     OW  522   1.504   1.607   0.044
  169SOL    HW1  523   1.412   1.644   0.051
  169SOL    HW2  524   1.542   1.627  -0.046
  170SOL     OW  525   0.372   1.288   1.490
  170SOL    HW1  526   0.359   1.381   1.456
  170SOL    HW2  527   0.288   1.236   1.477
  171SOL     OW  528   1.614   1.292   1.289
  171SOL    HW1  529   1.674   1.295   1.369
  171SOL    HW2  530   1.539   1.356   1.302
  172SOL     OW  531   1.039   1.098   0.696
  172SOL    HW1  532   0.969   1.051   0.750
  172SOL    HW2  533   1.098   1.030   0.653
  173SOL     OW  534   1.014   0.236   0.971
  173SOL    HW1  535   1.006   0.200   0.878
  173SOL    HW2  536   1.012   0.160   1.036
  174SOL     OW  537   0.590   1.487   0.491
  174SOL    HW1  538   0.632   1.429   0.421
  174SOL    HW2  539   0.546   1.566   0.447
  175SOL     OW  540   1.709   0.385   1.381
  175SOL    HW1  541   1.782   0.454   1.385
  175SOL    HW2  542   1.737   0.310   1.322
  176SOL     OW  543   0.255   1.348   0.290
  176SOL    HW1  544   0.159   1.349   0.263
  176SOL    HW2  545   0.267   1.401   0.374
  177SOL     OW  546   0.105   1.013   1.726
  177SOL    HW1  547   0.028   0.980   1.780
  177SOL    HW2  548   0.190   0.983   1.768
  178SOL     OW  549   0.672   0.203   1.489
  178SOL    HW1  550   0.762   0.187   1.449
  178SOL    HW2  551   0.680   0.208   1.588
  179SOL     OW  552   0.075   0.345   0.033
  179SOL    HW1  553  -0.017   0.317   0.004
  179SOL    HW2  554   0.106   0.422  -0.023
  180SOL     OW  555   1.440   0.856   1.398
  180SOL    HW1  556   1.383   0.908   1.335
  180SOL    HW2  557   1.536   0.868   1.374
  181SOL     OW  558   0.072   0.166   0.318
  181SOL    HW1  559   0.055   0.249   0.264
  181SOL    HW2  560   0.162   0.129   0.296
  182SOL     OW  561   1.183   1.335   0.119
  182SOL    HW1  562   1.084   1.324   0.121
  182SOL    HW2  563   1.217   1.350   0.212
  183SOL     OW  564   0.613   0.842   1.431
  183SOL    HW1  565   0.669   0.923   1.414
  183SOL    HW2  566   0.672   0.762   1.434
  184SOL     OW  567   1.493   1.767   0.959
  184SOL    HW1  568   1.526   1.831   0.890
  184SOL    HW2  569   1.559   1.761   1.034
  185SOL     OW  570   0.716   0.565   1.708
  185SOL    HW1  571   0.735   0.630   1.782
  185SOL    HW2  572   0.776   0.485   1.717
  186SOL     OW  573   1.450   1.220   1.633
  186SOL    HW1  574   1.441   1.210   1.732
  186SOL    HW2  575   1.546   1.213   1.607
  187SOL     OW  576   0.390   1.741   1.560
  187SOL    HW1  577   0.299   1.782   1.558
  187SOL    HW2  578   0.383   1.647   1.592
  188SOL     OW  579   1.674   0.883   1.254
  188SOL    HW1  580   1.647   0.794   1.217
  188SOL    HW2  581   1.675   0.951   1.181
  189SOL     OW  582   1.225   0.325   0.449
  189SOL    HW1  583   1.290   0.251   0.438
  189SOL    HW2  584   1.245   0.375   0.533
  190SOL     OW  585   0.594   0.745   0.652
  190SOL    HW1  586   0.644   0.830   0.633
  190SOL    HW2  587   0.506   0.747   0.604
  191SOL     OW  588   1.777   0.342   1.642
  191SOL    HW1  589   1.760   0.373   1.548
  191SOL    HW2  590   1.693   0.305   1.680
  192SOL     OW  591   1.730   0.934   1.517
  192SOL    HW1  592   1.768   1.025   1.532
  192SOL    HW2  593   1.722   0.917   1.418
  193SOL     OW  594   0.859   1.374   0.016
  193SOL    HW1  595   0.813   1.389   0.104
  193SOL    HW2  596   0.903   1.459  -0.014
  194SOL     OW  597   0.661   1.790   0.953
  194SOL    HW1  598   0.615   1.878   0.940
  194SOL    HW2  599   0.760   1.802   0.946
  195SOL     OW  600   0.859   0.956   0.861
  195SOL    HW1  601   0.913   0.887   0.909
  195SOL    HW2  602   0.827   1.025   0.927
  196SOL     OW  603   1.083   0.984   0.087
  196SOL    HW1  604   1.060   1.037   0.005
  196SOL    HW2  605   1.164   0.928   0.068
  197SOL     OW  606   1.861   1.569   0.851
  197SOL    HW1  607   1.790   1.557   0.781
  197SOL    HW2  608   1.862   1.490   0.911
  198SOL     OW  609   0.221   1.314   1.844
  198SOL    HW1  610   0.156   1.241   1.823
  198SOL    HW2  611   0.225   1.328   1.942
  199SOL     OW  612   0.079   1.240   0.653
  199SOL    HW1  613   0.078   1.193   0.741
  199SOL    HW2  614   0.161   1.212   0.602
  200SOL     OW  615   0.672   1.391   1.624
  200SOL    HW1  616   0.594   1.341   1.662
  200SOL    HW2  617   0.669   1.486   1.655
  201SOL     OW  618   1.824   0.192   1.227
  201SOL    HW1  619   1.820   0.102   1.271
  201SOL    HW2  620   1.827   0.181   1.128
  202SOL     OW  621   0.428   0.424   0.520
  202SOL    HW1  622   0.458   0.352   0.458
  202SOL    HW2  623   0.389   0.384   0.603
  203SOL     OW  624   1.705   1.487   1.104
  203SOL    HW1  625   1.612   1.462   1.077
  203SOL    HW2  626   1.731   1.437   1.186
  204SOL     OW  627   0.317   0.547   1.280
  204SOL    HW1  628   0.355   0.488   1.352
  204SOL    HW2  629   0.357   0.521   1.192
  205SOL     OW  630   0.812   1.586   0.687
  205SOL    HW1  631   0.844   1.596   0.593
  205SOL    HW2  632   0.733   1.524   0.689
  206SOL     OW  633   1.424   0.214   1.112
  206SOL    HW1  634   1.476   0.149   1.167
  206SOL    HW2  635   1.375   0.277   1.173
  207SOL     OW  636   1.001   0.034   1.154
  207SOL    HW1  637   0.938  -0.038   1.123
  207SOL    HW2  638   1.094  -0.002   1.154
  208SOL     OW  639   0.770   1.330   0.301
  208SOL    HW1  640   0.724   1.243   0.318
  208SOL    HW2  641   0.861   1.327   0.342
  209SOL     OW  642   0.618   1.567   1.284
  209SOL    HW1  643   0.613   1.649   1.341
  209SOL    HW2  644   0.707   1.564   1.239
  210SOL     OW  645   1.352   0.052   0.168
  210SOL    HW1  646   1.387   0.011   0.084
  210SOL    HW2  647   1.262   0.014   0.188
  211SOL     OW  648   1.300   0.453   0.691
  211SOL    HW1  649   1.241   0.533   0.695
  211SOL    HW2  650   1.315   0.418   0.784
  212SOL     OW  651   1.593   0.221   0.882
  212SOL    HW1  652   1.509   0.220   0.936
  212SOL    HW2  653   1.595   0.304   0.826
  213SOL     OW  654   0.039   1.077   0.300
  213SOL    HW1  655   0.138   1.066   0.291
  213SOL    HW2  656  -0.001   0.991   0.332
  214SOL     OW  657   0.875   1.646   0.337
  214SOL    HW1  658   0.798   1.611   0.283
  214SOL    HW2  659   0.843   1.717   0.399
  215SOL     OW  660   0.230   0.628   1.975
  215SOL    HW1  661   0.137   0.626   2.012
  215SOL    HW2  662   0.231   0.589   1.883
  216SOL     OW  663   0.225   0.275   2.858
  216SOL    HW1  664   0.260   0.258   2.950
  216SOL    HW2  665   0.137   0.230   2.846
  217SOL     OW  666   0.019   0.368   2.509
  217SOL    HW1  667  -0.063   0.411   2.548
  217SOL    HW2  668  -0.009   0.295   2.446
  218SOL     OW  669   0.569   1.275   3.027
  218SOL    HW1  670   0.476   1.268   2.990
  218SOL    HW2  671   0.580   1.364   3.071
  219SOL     OW  672   1.555   1.511   2.565
  219SOL    HW1  673   1.498   1.495   2.646
  219SOL    HW2  674   1.496   1.521   2.485
  220SOL     OW  675   1.135   0.703   2.579
  220SOL    HW1  676   1.192   0.781   2.554
  220SOL    HW2  677   1.075   0.729   2.655
  221SOL     OW  678   1.755   0.607   2.093
  221SOL    HW1  679   1.743   0.594   1.994
  221SOL    HW2  680   1.725   0.526   2.142
  222SOL     OW  681   0.768   1.144   2.885
  222SOL    HW1  682   0.690   1.161   2.945
  222SOL    HW2  683   0.802   1.231   2.849
  223SOL     OW  684   0.850   0.798   3.685
  223SOL    HW1  685   0.846   0.874   3.750
  223SOL    HW2  686   0.872   0.834   3.594
  224SOL     OW  687   0.685   1.012   2.527
  224SOL    HW1  688   0.754   0.996   2.597
  224SOL    HW2  689   0.612   1.069   2.565
  225SOL     OW  690   0.686   1.161   3.665
  225SOL    HW1  691   0.746   1.240   3.679
  225SOL    HW2  692   0.600   1.192   3.624
  226SOL     OW  693   0.335   1.435   2.923
  226SOL    HW1  694   0.257   1.404   2.870
  226SOL    HW2  695   0.393   1.493   2.866
  227SOL     OW  696   1.460   1.505   3.201
  227SOL    HW1  697   1.484   1.599   3.227
  227SOL    HW2  698   1.444   1.451   3.283
  228SOL     OW  699   0.438   0.392   3.361
  228SOL    HW1  700   0.520   0.336   3.370
  228SOL    HW2  701   0.357   0.334   3.365
  229SOL     OW  702   1.603   0.447   2.599
  229SOL    HW1  703   1.529   0.493   2.549
  229SOL    HW2  704   1.654   0.515   2.652
  230SOL     OW  705   0.231   1.713   2.345
  230SOL    HW1  706   0.265   1.790   2.399
  230SOL    HW2  707   0.275   1.713   2.255
  231SOL     OW  708   1.127   1.341   3.552
  231SOL    HW1  709   1.174   1.341   3.640
  231SOL    HW2  710   1.079   1.254   3.541
  232SOL     OW  711   0.230   1.434   2.400
  232SOL    HW1  712   0.204   1.530   2.400
  232SOL    HW2  713   0.159   1.380   2.445
  233SOL     OW  714   0.240   1.091   2.748
  233SOL    HW1  715   0.254   1.007   2.800
  233SOL    HW2  716   0.185   1.155   2.803
  234SOL     OW  717   0.620   1.786   3.301
  234SOL    HW1  718   0.528   1.769   3.336
  234SOL    HW2  719   0.648   1.878   3.327
  235SOL     OW  720   0.606   0.964   1.985
  235SOL    HW1  721   0.613   1.048   1.931
  235SOL    HW2  722   0.652   0.977   2.073
  236SOL     OW  723   1.594   0.114   3.342
  236SOL    HW1  724   1.576   0.181   3.270
  236SOL    HW2  725   1.591   0.160   3.431
  237SOL     OW  726   0.122   0.643   2.425
  237SOL    HW1  727   0.077   0.555   2.442
  237SOL    HW2  728   0.121   0.697   2.509
  238SOL     OW  729   1.842   1.767   2.221
  238SOL    HW1  730   1.896   1.738   2.301
  238SOL    HW2  731   1.872   1.857   2.192
  239SOL     OW  732   0.027   1.596   1.979
  239SOL    HW1  733   0.008   1.500   2.000
  239SOL    HW2  734  -0.006   1.654   2.054
  240SOL     OW  735   1.689   0.922   2.474
  240SOL    HW1  736   1.784   0.893   2.482
  240SOL    HW2  737   1.681   0.987   2.399
  241SOL     OW  738   1.641   1.108   2.294
  241SOL    HW1  739   1.727   1.110   2.242
  241SOL    HW2  740   1.655   1.155   2.382
  242SOL     OW  741   0.113   0.737   3.459
  242SOL    HW1  742   0.201   0.724   3.504
  242SOL    HW2  743   0.100   0.834   3.437
  243SOL     OW  744   0.613   1.365   2.588
  243SOL    HW1  745   0.564   1.278   2.597
  243SOL    HW2  746   0.590   1.408   2.501
  244SOL     OW  747   1.293   1.228   3.285
  244SOL    HW1  748   1.330   1.155   3.227
  244SOL    HW2  749   1.345   1.233   3.370
  245SOL     OW  750   0.809   0.004   2.364
  245SOL    HW1  751   0.849   0.095   2.355
  245SOL    HW2  752   0.709   0.012   2.370
  246SOL     OW  753   0.197   0.976   3.126
  246SOL    HW1  754   0.286   0.931   3.112
  246SOL    HW2  755   0.124   0.911   3.107
  247SOL     OW  756   1.525   0.999   2.052
  247SOL    HW1  757   1.462   0.923   2.065
  247SOL    HW2  758   1.573   1.017   2.138
  248SOL     OW  759   1.187   1.792   3.478
  248SOL    HW1  760   1.211   1.852   3.402
  248SOL    HW2  761   1.194   1.697   3.448
  249SOL     OW  762   0.317   0.251   3.663
  249SOL    HW1  763   0.388   0.322   3.669
  249SOL    HW2  764   0.229   0.290   3.691
  250SOL     OW  765   1.466   1.417   2.815
  250SOL    HW1  766   1.407   1.423   2.895
  250SOL    HW2  767   1.451   1.329   2.769
  251SOL     OW  768   1.667   1.714   2.434
  251SOL    HW1  769   1.626   1.691   2.346
  251SOL    HW2  770   1.649   1.640   2.499
  252SOL     OW  771   0.598   0.729   2.132
  252SOL    HW1  772   0.622   0.798   2.064
  252SOL    HW2  773   0.520   0.762   2.186
  253SOL     OW  774   1.281   0.345   2.806
  253SOL    HW1  775   1.195   0.295   2.793
  253SOL    HW2  776   1.343   0.291   2.862
  254SOL     OW  777   1.576   1.662   2.169
  254SOL    HW1  778   1.665   1.708   2.172
  254SOL    HW2  779   1.555   1.638   2.074
  255SOL     OW  780   0.807   0.605   3.327
  255SOL    HW1  781   0.760   0.602   3.416
  255SOL    HW2  782   0.756   0.550   3.261
  256SOL     OW  783   1.394   0.469   3.536
  256SOL    HW1  784   1.374   0.512   3.624
  256SOL    HW2  785   1.472   0.407   3.545
  257SOL     OW  786   0.973   0.890   3.434
  257SOL    HW1  787   1.019   0.806   3.405
  257SOL    HW2  788   0.917   0.924   3.359
  258SOL     OW  789   0.991   0.410   3.104
  258SOL    HW1  790   0.914   0.444   3.158
  258SOL    HW2  791   0.957   0.359   3.025
  259SOL     OW  792   1.041   0.701   2.291
  259SOL    HW1  793   1.067   0.697   2.387
  259SOL    HW2  794   0.956   0.650   2.277
  260SOL     OW  795   0.076   0.811   2.651
  260SOL    HW1  796   0.175   0.799   2.660
  260SOL    HW2  797   0.052   0.906   2.672
  261SOL     OW  798   0.130   1.821   3.433
  261SOL    HW1  799   0.120   1.806   3.532
  261SOL    HW2  800   0.044   1.857   3.397
  262SOL     OW  801   0.865   0.348   2.057
  262SOL    HW1  802   0.924   0.411   2.008
  262SOL    HW2  803   0.884   0.254   2.028
  263SOL     OW  804   1.719   0.585   3.693
  263SOL    HW1  805   1.693   0.674   3.657
  263SOL    HW2  806   1.717   0.517   3.620
  264SOL     OW  807   1.362   1.144   2.407
  264SOL    HW1  808   1.445   1.115   2.359
  264SOL    HW2  809   1.313   1.211   2.351
  265SOL     OW  810   0.550   0.196   2.747
  265SOL    HW1  811   0.545   0.191   2.847
  265SOL    HW2  812   0.552   0.292   2.718
  266SOL     OW  813   1.008   1.456   2.339
  266SOL    HW1  814   0.962   1.528   2.287
  266SOL    HW2  815   1.004   1.476   2.437
  267SOL     OW  816   0.351   1.801   2.715
  267SOL    HW1  817   0.401   1.715   2.721
  267SOL    HW2  818   0.416   1.878   2.712
  268SOL     OW  819   1.795   1.066   2.735
  268SOL    HW1  820   1.733   1.051   2.659
  268SOL    HW2  821   1.743   1.077   2.820
  269SOL     OW  822   1.227   1.550   3.368
  269SOL    HW1  823   1.233   1.473   3.432
  269SOL    HW2  824   1.175   1.524   3.288
  270SOL     OW  825   0.321   0.943   2.104
  270SOL    HW1  826   0.403   0.982   2.062
  270SOL    HW2  827   0.294   0.861   2.055
  271SOL     OW  828   1.458   0.735   2.590
  271SOL    HW1  829   1.453   0.670   2.665
  271SOL    HW2  830   1.538   0.794   2.603
  272SOL     OW  831   0.461   1.266   3.589
  272SOL    HW1  832   0.411   1.267   3.503
  272SOL    HW2  833   0.398   1.248   3.665
  273SOL     OW  834   1.111   1.776   2.099
  273SOL    HW1  835   1.051   1.714   2.149
  273SOL    HW2  836   1.142   1.732   2.014
  274SOL     OW  837   0.202   0.285   3.360
  274SOL    HW1  838   0.122   0.345   3.347
  274SOL    HW2  839   0.192   0.236   3.446
  275SOL     OW  840   1.632   1.377   1.943
  275SOL    HW1  841   1.600   1.471   1.933
  275SOL    HW2  842   1.556   1.314   1.931
  276SOL     OW  843   0.464   1.743   2.185
  276SOL    HW1  844   0.497   1.782   2.271
  276SOL    HW2  845   0.540   1.736   2.120
  277SOL     OW  846   1.400   0.107   2.288
  277SOL    HW1  847   1.376   0.070   2.198
  277SOL    HW2  848   1.499   0.123   2.292
  278SOL     OW  849   0.249   1.785   3.103
  278SOL    HW1  850   0.306   1.720   3.153
  278SOL    HW2  851   0.233   1.752   3.010
  279SOL     OW  852   0.940   1.698   2.766
  279SOL    HW1  853   1.020   1.641   2.787
  279SOL    HW2  854   0.891   1.658   2.689
  280SOL     OW  855   0.382   0.700   2.342
  280SOL    HW1  856   0.427   0.610   2.339
  280SOL    HW2  857   0.288   0.689   2.375
  281SOL     OW  858   1.547   0.222   3.591
  281SOL    HW1  859   1.542   0.259   3.683
  281SOL    HW2  860   1.475   0.153   3.579
  282SOL     OW  861   0.614   0.122   1.979
  282SOL    HW1  862   0.712   0.100   1.986
  282SOL    HW2  863   0.583   0.105   1.886
  283SOL     OW  864   0.781   0.264   3.611
  283SOL    HW1  865   0.848   0.203   3.654
  283SOL    HW2  866   0.708   0.283   3.676
  284SOL     OW  867   0.888   1.514   3.057
  284SOL    HW1  868   0.865   1.489   2.963
  284SOL    HW2  869   0.949   1.445   3.096
  285SOL     OW  870   1.351   0.590   3.295
  285SOL    HW1  871   1.379   0.547   3.380
  285SOL    HW2  872   1.376   0.686   3.296
  286SOL     OW  873   0.803   1.402   2.786
  286SOL    HW1  874   0.893   1.416   2.744
  286SOL    HW2  875   0.732   1.404   2.715
  287SOL     OW  876   0.922   0.503   2.761
  287SOL    HW1  877   0.897   0.494   2.665
  287SOL    HW2  878   0.970   0.421   2.792
  288SOL     OW  879   0.539   0.064   2.374
  288SOL    HW1  880   0.458   0.065   2.432
  288SOL    HW2  881   0.542   0.147   2.319
  289SOL     OW  882   1.434   1.188   1.903
  289SOL    HW1  883   1.466   1.112   1.960
  289SOL    HW2  884   1.342   1.215   1.933
  290SOL     OW  885   0.297   0.035   2.033
  290SOL    HW1  886   0.346   0.119   2.012
  290SOL    HW2  887   0.359  -0.030   2.078
  291SOL     OW  888   0.935   0.236   2.342
  291SOL    HW1  889   0.887   0.277   2.264
  291SOL    HW2  890   1.034   0.234   2.323
  292SOL     OW  891   1.076   0.683   3.326
  292SOL    HW1  892   0.996   0.622   3.329
  292SOL    HW2  893   1.157   0.630   3.302
  293SOL     OW  894   1.227   1.570   2.655
  293SOL    HW1  895   1.248   1.644   2.590
  293SOL    HW2  896   1.295   1.570   2.728
  294SOL     OW  897   0.459   1.152   2.603
  294SOL    HW1  898   0.388   1.125   2.668
  294SOL    HW2  899   0.433   1.124   2.510
  295SOL     OW  900   1.271   1.797   2.453
  295SOL    HW1  901   1.315   1.861   2.389
  295SOL    HW2  902   1.221   1.849   2.523
  296SOL     OW  903   1.032   0.549   1.878
  296SOL    HW1  904   0.991   0.631   1.839
  296SOL    HW2  905   1.096   0.575   1.951
  297SOL     OW  906   0.078   0.556   3.248
  297SOL    HW1  907   0.170   0.555   3.207
  297SOL    HW2  908   0.072   0.630   3.315
  298SOL     OW  909   0.561   0.222   3.009
  298SOL    HW1  910   0.599   0.138   3.046
  298SOL    HW2  911   0.473   0.241   3.053
  299SOL     OW  912   0.866   0.454   2.504
  299SOL    HW1  913   0.834   0.526   2.442
  299SOL    HW2  914   0.890   0.373   2.451
  300SOL     OW  915   1.017   0.039   2.615
  300SOL    HW1  916   0.945   0.044   2.546
  300SOL    HW2  917   0.993  -0.030   2.684
  301SOL     OW  918   1.429   1.173   2.729
  301SOL    HW1  919   1.374   1.089   2.722
  301SOL    HW2  920   1.455   1.202   2.637
  302SOL     OW  921   1.466   0.590   2.854
  302SOL    HW1  922   1.436   0.495   2.861
  302SOL    HW2  923   1.539   0.606   2.920
  303SOL     OW  924   1.857   0.833   2.239
  303SOL    HW1  925   1.899   0.769   2.303
  303SOL    HW2  926   1.819   0.782   2.161
  304SOL     OW  927   0.488   1.385   2.036
  304SOL    HW1  928   0.401   1.370   2.083
  304SOL    HW2  929   0.471   1.411   1.941
  305SOL     OW  930   1.664   1.280   2.519
  305SOL    HW1  931   1.763   1.288   2.533
  305SOL    HW2  932   1.619   1.364   2.550
  306SOL     OW  933   1.390   0.575   1.940
  306SOL    HW1  934   1.336   0.554   2.021
  306SOL    HW2  935   1.481   0.534   1.949
  307SOL     OW  936   0.527   0.256   2.190
  307SOL    HW1  937   0.554   0.197   2.115
  307SOL    HW2  938   0.527   0.351   2.159
  308SOL     OW  939   1.754   1.223   3.450
  308SOL    HW1  940   1.845   1.184   3.437
  308SOL    HW2  941   1.762   1.319   3.474
  309SOL     OW  942   1.064   1.347   3.202
  309SOL    HW1  943   0.984   1.324   3.257
  309SOL    HW2  944   1.147   1.321   3.251
  310SOL     OW  945   1.592   1.629   3.487
  310SOL    HW1  946   1.619   1.663   3.397
  310SOL    HW2  947   1.671   1.591   3.533
  311SOL     OW  948   1.111   1.195   2.962
  311SOL    HW1  949   1.071   1.239   3.043
  311SOL    HW2  950   1.070   1.232   2.879
  312SOL     OW  951   1.638   1.099   2.941
  312SOL    HW1  952   1.643   1.180   3.000
  312SOL    HW2  953   1.552   1.101   2.890
  313SOL     OW  954   0.915   0.089   3.264
  313SOL    HW1  955   0.940   0.069   3.169
  313SOL    HW2  956   0.987   0.145   3.306
  314SOL     OW  957   0.980   1.116   3.581
  314SOL    HW1  958   0.881   1.122   3.591
  314SOL    HW2  959   1.003   1.036   3.525
  315SOL     OW  960   0.705   1.050   2.230
  315SOL    HW1  961   0.691   1.057   2.329
  315SOL    HW2  962   0.789   0.999   2.212
  316SOL     OW  963   0.410   0.813   3.113
  316SOL    HW1  964   0.496   0.825   3.163
  316SOL    HW2  965   0.368   0.726   3.140
  317SOL     OW  966   1.274   0.386   3.124
  317SOL    HW1  967   1.295   0.460   3.188
  317SOL    HW2  968   1.185   0.403   3.081
  318SOL     OW  969   0.064   1.564   3.193
  318SOL    HW1  970   0.018   1.646   3.159
  318SOL    HW2  971   0.162   1.583   3.202
  319SOL     OW  972   0.367   1.100   2.363
  319SOL    HW1  973   0.360   1.183   2.307
  319SOL    HW2  974   0.371   1.020   2.303
  320SOL     OW  975   0.566   0.537   2.727
  320SOL    HW1  976   0.578   0.603   2.653
  320SOL    HW2  977   0.612   0.571   2.810
  321SOL     OW  978   1.252   1.348   2.250
  321SOL    HW1  979   1.302   1.425   2.290
  321SOL    HW2  980   1.157   1.350   2.282
  322SOL     OW  981   1.272   1.445   3.004
  322SOL    HW1  982   1.319   1.458   3.091
  322SOL    HW2  983   1.206   1.371   3.013
  323SOL     OW  984   1.582   0.639   2.334
  323SOL    HW1  985   1.551   0.700   2.407
  323SOL    HW2  986   1.632   0.691   2.265
  324SOL     OW  987   0.354   1.510   3.191
  324SOL    HW1  988   0.333   1.466   3.104
  324SOL    HW2  989   0.451   1.536   3.194
  325SOL     OW  990   0.402   0.751   3.460
  325SOL    HW1  991   0.470   0.806   3.413
  325SOL    HW2  992   0.442   0.663   3.487
  326SOL     OW  993   1.587   0.779   3.532
  326SOL    HW1  994   1.495   0.817   3.527
  326SOL    HW2  995   1.647   0.826   3.467
  327SOL     OW  996   1.013   0.105   3.632
  327SOL    HW1  997   1.019   0.190   3.580
  327SOL    HW2  998   1.045   0.029   3.575
  328SOL     OW  999   0.504   0.050   3.602
  328SOL    HW1 1000   0.462  -0.007   3.532
  328SOL    HW2 1001   0.438   0.119   3.634
  329SOL     OW 1002   0.573   0.870   2.891
  329SOL    HW1 1003   0.617   0.959   2.882
  329SOL    HW2 1004   0.510   0.870   2.968
  330SOL     OW 1005   1.360   0.862   2.907
  330SOL    HW1 1006   1.285   0.862   2.841
  330SOL    HW2 1007   1.397   0.770   2.916
  331SOL     OW 1008   1.209   0.525   2.137
  331SOL    HW1 1009   1.222   0.441   2.191
  331SOL    HW2 1010   1.180   0.599   2.197
  332SOL     OW 1011   0.307   0.213   3.093
  332SOL    HW1 1012   0.284   0.250   3.183
  332SOL    HW2 1013   0.277   0.118   3.087
  333SOL     OW 1014   0.037   1.310   3.144
  333SOL    HW1 1015   0.090   1.261   3.212
  333SOL    HW2 1016   0.059   1.408   3.149
  334SOL     OW 1017   0.732   0.634   2.926
  334SOL    HW1 1018   0.791   0.608   2.850
  334SOL    HW2 1019   0.704   0.730   2.915
  335SOL     OW 1020   1.728   0.935   3.716
  335SOL    HW1 1021   1.682   0.928   3.627
  335SOL    HW2 1022   1.666   0.979   3.782
  336SOL     OW 1023   0.307   0.063   2.480
  336SOL    HW1 1024   0.296   0.157   2.513
  336SOL    HW2 1025   0.302   0.000   2.557
  337SOL     OW 1026   1.622   0.367   2.236
  337SOL    HW1 1027   1.624   0.291   2.300
  337SOL    HW2 1028   1.574   0.444   2.276
  338SOL     OW 1029   1.023   0.766   2.828
  338SOL    HW1 1030   1.038   0.787   2.924
  338SOL    HW2 1031   0.993   0.671   2.819
  339SOL     OW 1032   0.980   1.573   3.562
  339SOL    HW1 1033   0.960   1.617   3.474
  339SOL    HW2 1034   1.019   1.482   3.546
  340SOL     OW 1035   1.859   1.518   3.467
  340SOL    HW1 1036   1.873   1.545   3.372
  340SOL    HW2 1037   1.942   1.540   3.520
  341SOL     OW 1038   0.350   0.898   3.666
  341SOL    HW1 1039   0.426   0.942   3.714
  341SOL    HW2 1040   0.385   0.851   3.584
  342SOL     OW 1041   1.540   0.274   1.987
  342SOL    HW1 1042   1.479   0.199   2.010
  342SOL    HW2 1043   1.562   0.326   2.070
  343SOL     OW 1044   1.303   0.838   1.904
  343SOL    HW1 1045   1.337   0.745   1.919
  343SOL    HW2 1046   1.321   0.865   1.809
  344SOL     OW 1047   1.068   1.333   2.711
  344SOL    HW1 1048   1.075   1.249   2.656
  344SOL    HW2 1049   1.130   1.402   2.675
  345SOL     OW 1050   0.319   0.810   2.811
  345SOL    HW1 1051   0.412   0.846   2.816
  345SOL    HW2 1052   0.313   0.725   2.863
  346SOL     OW 1053   0.339   0.509   2.868
  346SOL    HW1 1054   0.287   0.426   2.851
  346SOL    HW2 1055   0.416   0.514   2.804
  347SOL     OW 1056   1.138   0.380   3.540
  347SOL    HW1 1057   1.093   0.443   3.604
  347SOL    HW2 1058   1.231   0.411   3.523
  348SOL     OW 1059   1.160   0.207   3.339
  348SOL    HW1 1060   1.160   0.271   3.416
  348SOL    HW2 1061   1.188   0.255   3.256
  349SOL     OW 1062   0.008   1.326   2.062
  349SOL    HW1 1063  -0.085   1.347   2.031
  349SOL    HW2 1064   0.018   1.227   2.075
  350SOL     OW 1065   0.088   1.801   2.789
  350SOL    HW1 1066   0.046   1.715   2.762
  350SOL    HW2 1067   0.182   1.804   2.755
  351SOL     OW 1068   0.504   1.568   2.772
  351SOL    HW1 1069   0.570   1.642   2.781
  351SOL    HW2 1070   0.548   1.489   2.730
  352SOL     OW 1071   1.002   0.796   3.100
  352SOL    HW1 1072   1.043   0.764   3.186
  352SOL    HW2 1073   0.906   0.769   3.097
  353SOL     OW 1074   0.040   0.544   2.976
  353SOL    HW1 1075   0.125   0.511   2.935
  353SOL    HW2 1076   0.053   0.559   3.074
  354SOL     OW 1077   0.189   0.520   3.584
  354SOL    HW1 1078   0.248   0.480   3.514
  354SOL    HW2 1079   0.131   0.591   3.543
  355SOL     OW 1080   1.369   0.950   3.522
  355SOL    HW1 1081   1.408   1.039   3.542
  355SOL    HW2 1082   1.379   0.930   3.425
  356SOL     OW 1083   0.815   0.572   2.187
  356SOL    HW1 1084   0.822   0.483   2.141
  356SOL    HW2 1085   0.721   0.606   2.179
  357SOL     OW 1086   1.657   0.604   3.068
  357SOL    HW1 1087   1.619   0.535   3.130
  357SOL    HW2 1088   1.739   0.568   3.024
  358SOL     OW 1089   0.252   1.564   3.606
  358SOL    HW1 1090   0.222   1.621   3.682
  358SOL    HW2 1091   0.245   1.467   3.632
  359SOL     OW 1092   0.671   0.464   3.131
  359SOL    HW1 1093   0.637   0.375   3.101
  359SOL    HW2 1094   0.697   0.518   3.051
  360SOL     OW 1095   0.930   1.678   3.327
  360SOL    HW1 1096   0.906   1.660   3.232
  360SOL    HW2 1097   0.960   1.772   3.337
  361SOL     OW 1098   0.473   0.500   2.053
  361SOL    HW1 1099   0.534   0.580   2.057
  361SOL    HW2 1100   0.378   0.531   2.060
  362SOL     OW 1101   0.159   1.137   3.328
  362SOL    HW1 1102   0.181   1.076   3.404
  362SOL    HW2 1103   0.169   1.088   3.242
  363SOL     OW 1104   1.347   1.059   3.096
  363SOL    HW1 1105   1.371   0.996   3.022
  363SOL    HW2 1106   1.257   1.099   3.078
  364SOL     OW 1107   1.302   0.855   2.171
  364SOL    HW1 1108   1.216   0.824   2.213
  364SOL    HW2 1109   1.298   0.841   2.072
  365SOL     OW 1110   1.759   1.747   3.016
  365SOL    HW1 1111   1.820   1.777   2.943
  365SOL    HW2 1112   1.721   1.658   2.994
  366SOL     OW 1113   1.252   1.731   2.990
  366SOL    HW1 1114   1.336   1.736   2.936
  366SOL    HW2 1115   1.229   1.635   3.008
  367SOL     OW 1116   0.083   1.258   2.884
  367SOL    HW1 1117   0.078   1.257   2.984
  367SOL    HW2 1118   0.000   1.217   2.846
  368SOL     OW 1119   0.688   1.662   3.578
  368SOL    HW1 1120   0.632   1.743   3.587
  368SOL    HW2 1121   0.740   1.666   3.492
  369SOL     OW 1122   1.726   0.135   2.385
  369SOL    HW1 1123   1.799   0.118   2.318
  369SOL    HW2 1124   1.695   0.048   2.423
  370SOL     OW 1125   1.388   1.573   2.339
  370SOL    HW1 1126   1.455   1.585   2.265
  370SOL    HW2 1127   1.348   1.662   2.362
  371SOL     OW 1128   0.130   1.794   3.713
  371SOL    HW1 1129   0.089   1.720   3.766
  371SOL    HW2 1130   0.194   1.845   3.771
  372SOL     OW 1131   1.280   0.927   2.534
  372SOL    HW1 1132   1.340   0.846   2.536
  372SOL    HW2 1133   1.320   0.996   2.474
  373SOL     OW 1134   0.830   1.273   3.284
  373SOL    HW1 1135   0.825   1.306   3.379
  373SOL    HW2 1136   0.744   1.292   3.238
  374SOL     OW 1137   0.672   1.616   2.016
  374SOL    HW1 1138   0.681   1.626   1.917
  374SOL    HW2 1139   0.632   1.527   2.037
  375SOL     OW 1140   1.650   1.720   3.256
  375SOL    HW1 1141   1.703   1.730   3.172
  375SOL    HW2 1142   1.623   1.810   3.290
  376SOL     OW 1143   1.841   0.175   2.825
  376SOL    HW1 1144   1.880   0.090   2.789
  376SOL    HW2 1145   1.743   0.177   2.806
  377SOL     OW 1146   0.263   0.326   2.582
  377SOL    HW1 1147   0.184   0.377   2.548
  377SOL    HW2 1148   0.254   0.311   2.680
  378SOL     OW 1149   1.194   1.612   1.893
  378SOL    HW1 1150   1.200   1.519   1.930
  378SOL    HW2 1151   1.135   1.612   1.813
  379SOL     OW 1152   0.822   1.002   3.234
  379SOL    HW1 1153   0.862   1.001   3.142
  379SOL    HW2 1154   0.832   1.094   3.274
  380SOL     OW 1155   0.916   0.910   2.153
  380SOL    HW1 1156   0.979   0.948   2.085
  380SOL    HW2 1157   0.956   0.827   2.192
  381SOL     OW 1158   1.504   1.607   1.906
  381SOL    HW1 1159   1.412   1.644   1.913
  381SOL    HW2 1160   1.542   1.627   1.816
  382SOL     OW 1161   0.372   1.288   3.352
  382SOL    HW1 1162   0.359   1.381   3.318
  382SOL    HW2 1163   0.288   1.236   3.339
  383SOL     OW 1164   1.614   1.292   3.151
  383SOL    HW1 1165   1.674   1.295   3.231
  383SOL    HW2 1166   1.539   1.356   3.164
  384SOL     OW 1167   1.039   1.098   2.558
  384SOL    HW1 1168   0.969   1.051   2.612
  384SOL    HW2 1169   1.098   1.030   2.515
  385SOL     OW 1170   1.014   0.236   2.833
  385SOL    HW1 1171   1.006   0.200   2.740
  385SOL    HW2 1172   1.012   0.160   2.898
  386SOL     OW 1173   0.590   1.487   2.353
  386SOL    HW1 1174   0.632   1.429   2.283
  386SOL    HW2 1175   0.546   1.566   2.309
  387SOL     OW 1176   1.709   0.385   3.243
  387SOL    HW1 1177   1.782   0.454   3.247
  387SOL    HW2 1178   1.737   0.310   3.184
  388SOL     OW 1179   0.255   1.348   2.152
  388SOL    HW1 1180   0.159   1.349   2.125
  388SOL    HW2 1181   0.267   1.401   2.236
  389SOL     OW 1182   0.105   1.013   3.588
  389SOL    HW1 1183   0.028   0.980   3.642
  389SOL    HW2 1184   0.190   0.983   3.630
  390SOL     OW 1185   0.672   0.203   3.351
  390SOL    HW1 1186   0.762   0.187   3.311
  390SOL    HW2 1187   0.680   0.208   3.450
  391SOL     OW 1188   0.075   0.345   1.895
  391SOL    HW1 1189  -0.017   0.317   1.866
  391SOL    HW2 1190   0.106   0.422   1.839
  392SOL     OW 1191   1.440   0.856   3.260
  392SOL    HW1 1192   1.383   0.908   3.197
  392SOL    HW2 1193   1.536   0.868   3.236
  393SOL     OW 1194   0.072   0.166   2.180
  393SOL    HW1 1195   0.055   0.249   2.126
  393SOL    HW2 1196   0.162   0.129   2.158
  394SOL     OW 1197   1.183   1.335   1.981
  394SOL    HW1 1198   1.084   1.324   1.983
  394SOL    HW2 1199   1.217   1.350   2.074
  395SOL     OW 1200   0.613   0.842   3.293
  395SOL    HW1 1201   0.669   0.923   3.276
  395SOL    HW2 1202   0.672   0.762   3.296
  396SOL     OW 1203   1.493   1.767   2.821
  396SOL    HW1 1204   1.526   1.831   2.752
  396SOL    HW2 1205   1.559   1.761   2.896
  397SOL     OW 1206   0.716   0.565   3.570
  397SOL    HW1 1207   0.735   0.630   3.644
  397SOL    HW2 1208   0.776   0.485   3.579
  398SOL     OW 1209   1.450   1.220   3.495
  398SOL    HW1 1210   1.441   1.210   3.594
  398SOL    HW2 1211   1.546   1.213   3.469
  399SOL     OW 1212   0.390   1.741   3.422
  399SOL    HW1 1213   0.299   1.782   3.420
  399SOL    HW2 1214   0.383   1.647   3.454
  400SOL     OW 1215   1.674   0.883   3.116
  400SOL    HW1 1216   1.647   0.794   3.079
  400SOL    HW2 1217   1.675   0.951   3.043
  401SOL     OW 1218   1.225   0.325   2.311
  401SOL    HW1 1219   1.290   0.251   2.300
  401SOL    HW2 1220   1.245   0.375   2.395
  402SOL     OW 1221   0.594   0.745   2.514
  402SOL    HW1 1222   0.644   0.830   2.495
  402SOL    HW2 1223   0.506   0.747   2.466
  403SOL     OW 1224   1.777   0.342   3.504
  403SOL    HW1 1225   1.760   0.373   3.410
  403SOL    HW2 1226   1.693   0.305   3.542
  404SOL     OW 1227   1.730   0.934   3.379
  404SOL    HW1 1228   1.768   1.025   3.394
  404SOL    HW2 1229   1.722   0.917   3.280
  405SOL     OW 1230   0.859   1.374   1.878
  405SOL    HW1 1231   0.813   1.389   1.966
  405SOL    HW2 1232   0.903   1.459   1.848
  406SOL     OW 1233   0.661   1.790   2.815
  406SOL    HW1 1234   0.615   1.878   2.802
  406SOL    HW2 1235   0.760   1.802   2.808
  407SOL     OW 1236   0.859   0.956   2.723
  407SOL    HW1 1237   0.913   0.887   2.771
  407SOL    HW2 1238   0.827   1.025   2.789
  408SOL     OW 1239   1.083   0.984   1.949
  408SOL    HW1 1240   1.060   1.037   1.867
  408SOL    HW2 1241   1.164   0.928   1.930
  409SOL     OW 1242   1.861   1.569   2.713
  409SOL    HW1 1243   1.790   1.557   2.643
  409SOL    HW2 1244   1.862   1.490   2.773
  410SOL     OW 1245   0.221   1.314   3.706
  410SOL    HW1 1246   0.156   1.241   3.685
  410SOL    HW2 1247   0.225   1.328   3.804
  411SOL     OW 1248   0.079   1.240   2.515
  411SOL    HW1 1249   0.078   1.193   2.603
  411SOL    HW2 1250   0.161   1.212   2.464
  412SOL     OW 1251   0.672   1.391   3.486
  412SOL    HW1 1252   0.594   1.341   3.524
  412SOL    HW2 1253   0.669   1.486   3.517
  413SOL     OW 1254   1.824   0.192   3.089
  413SOL    HW1 1255   1.820   0.102   3.133
  413SOL    HW2 1256   1.827   0.181   2.990
  414SOL     OW 1257   0.428   0.424   2.382
  414SOL    HW1 1258   0.458   0.352   2.320
  414SOL    HW2 1259   0.389   0.384   2.465
  415SOL     OW 1260   1.705   1.487   2.966
  415SOL    HW1 1261   1.612   1.462   2.939
  415SOL    HW2 1262   1.731   1.437   3.048
  416SOL     OW 1263   0.317   0.547   3.142
  416SOL    HW1 1264   0.355   0.488   3.214
  416SOL    HW2 1265   0.357   0.521   3.054
  417SOL     OW 1266   0.812   1.586   2.549
  417SOL    HW1 1267   0.844   1.596   2.455
  417SOL    HW2 1268   0.733   1.524   2.551
  418SOL     OW 1269   1.424   0.214   2.974
  418SOL    HW1 1270   1.476   0.149   3.029
  418SOL    HW2 1271   1.375   0.277   3.035
  419SOL     OW 1272   1.001   0.034   3.016
  419SOL    HW1 1273   0.938  -0.038   2.985
  419SOL    HW2 1274   1.094  -0.002   3.016
  420SOL     OW 1275   0.770   1.330   2.163
  420SOL    HW1 1276   0.724   1.243   2.180
  420SOL    HW2 1277   0.861   1.327   2.204
  421SOL     OW 1278   0.618   1.567   3.146
  421SOL    HW1 1279   0.613   1.649   3.203
  421SOL    HW2 1280   0.707   1.564   3.101
  422SOL     OW 1281   1.352   0.052   2.030
  422SOL    HW1 1282   1.387   0.011   1.946
  422SOL    HW2 1283   1.262   0.014   2.050
  423SOL     OW 1284   1.300   0.453   2.553
  423SOL    HW1 1285   1.241   0.533   2.557
  423SOL    HW2 1286   1.315   0.418   2.646
  424SOL     OW 1287   1.593   0.221   2.744
  424SOL    HW1 1288   1.509   0.220   2.798
  424SOL    HW2 1289   1.595   0.304   2.688
  425SOL     OW 1290   0.039   1.077   2.162
  425SOL    HW1 1291   0.138   1.066   2.153
  425SOL    HW2 1292  -0.001   0.991   2.194
  426SOL     OW 1293   0.875   1.646   2.199
  426SOL    HW1 1294   0.798   1.611   2.145
  426SOL    HW2 1295   0.843   1.717   2.261
  427SOL     OW 1296   0.230   0.628   3.837
  427SOL    HW1 1297   0.137   0.626   3.874
  427SOL    HW2 1298   0.231   0.589   3.745
  428SOL     OW 1299   0.225   0.275   4.720
  428SOL    HW1 1300   0.260   0.258   4.812
  428SOL    HW2 1301   0.137   0.230   4.708
  429SOL     OW 1302   0.019   0.368   4.371
  429SOL    HW1 1303  -0.063   0.411   4.410
  429SOL    HW2 1304  -0.009   0.295   4.308
  430SOL     OW 1305   1.555   1.511   4.427
  430SOL    HW1 1306   1.498   1.495   4.508
  430SOL    HW2 1307   1.496   1.521   4.347
  431SOL     OW 1308   1.135   0.703   4.441
  431SOL    HW1 1309   1.192   0.781   4.416
  431SOL    HW2 1310   1.075   0.729   4.517
  432SOL     OW 1311   1.755   0.607   3.955
  432SOL    HW1 1312   1.743   0.594   3.856
  432SOL    HW2 1313   1.725   0.526   4.004
  433SOL     OW 1314   0.768   1.144   4.747
  433SOL    HW1 1315   0.690   1.161   4.807
  433SOL    HW2 1316   0.802   1.231   4.711
  434SOL     OW 1317   0.685   1.012   4.389
  434SOL    HW1 1318   0.754   0.996   4.459
  434SOL    HW2 1319   0.612   1.069   4.427
  435SOL     OW 1320   0.335   1.435   4.785
  435SOL    HW1 1321   0.257   1.404   4.732
  435SOL    HW2 1322   0.393   1.493   4.728
  436SOL     OW 1323   1.603   0.447   4.461
  436SOL    HW1 1324   1.529   0.493   4.411
  436SOL    HW2 1325   1.654   0.515   4.514
  437SOL     OW 1326   0.231   1.713   4.207
  437SOL    HW1 1327   0.265   1.790   4.261
  437SOL    HW2 1328   0.275   1.713   4.117
  438SOL     OW 1329   0.230   1.434   4.262
  438SOL    HW1 1330   0.204   1.530   4.262
  438SOL    HW2 1331   0.159   1.380   4.307
  439SOL     OW 1332   0.240   1.091   4.610
  439SOL    HW1 1333   0.254   1.007   4.662
  439SOL    HW2 1334   0.185   1.155   4.665
  440SOL     OW 1335   0.606   0.964   3.847
  440SOL    HW1 1336   0.613   1.048   3.793
  440SOL    HW2 1337   0.652   0.977   3.935
  441SOL     OW 1338   0.122   0.643   4.287
  441SOL    HW1 1339   0.077   0.555   4.304
  441SOL    HW2 1340   0.121   0.697   4.371
  442SOL     OW 1341   1.842   1.767   4.083
  442SOL    HW1 1342   1.896   1.738   4.163
  442SOL    HW2 1343   1.872   1.857   4.054
  443SOL     OW 1344   0.027   1.596   3.841
  443SOL    HW1 1345   0.008   1.500   3.862
  443SOL    HW2 1346  -0.006   1.654   3.916
  444SOL     OW 1347   1.689   0.922   4.336
  444SOL    HW1 1348   1.784   0.893   4.344
  444SOL    HW2 1349   1.681   0.987   4.261
  445SOL     OW 1350   1.641   1.108   4.156
  445SOL    HW1 1351   1.727   1.110   4.104
  445SOL    HW2 1352   1.655   1.155   4.244
  446SOL     OW 1353   0.613   1.365   4.450
  446SOL    HW1 1354   0.564   1.278   4.459
  446SOL    HW2 1355   0.590   1.408   4.363
  447SOL     OW 1356   0.809   0.004   4.226
  447SOL    HW1 1357   0.849   0.095   4.217
  447SOL    HW2 1358   0.709   0.012   4.232
  448SOL     OW 1359   1.525   0.999   3.914
  448SOL    HW1 1360   1.462   0.923   3.927
  448SOL    HW2 1361   1.573   1.017   4.000
  449SOL     OW 1362   1.466   1.417   4.677
  449SOL    HW1 1363   1.407   1.423   4.757
  449SOL    HW2 1364   1.451   1.329   4.631
  450SOL     OW 1365   1.667   1.714   4.296
  450SOL    HW1 1366   1.626   1.691   4.208
  450SOL    HW2 1367   1.649   1.640   4.361
  451SOL     OW 1368   0.598   0.729   3.994
  451SOL    HW1 1369   0.622   0.798   3.926
  451SOL    HW2 1370   0.520   0.762   4.048
  452SOL     OW 1371   1.281   0.345   4.668
  452SOL    HW1 1372   1.195   0.295   4.655
  452SOL    HW2 1373   1.343   0.291   4.724
  453SOL     OW 1374   1.576   1.662   4.031
  453SOL    HW1 1375   1.665   1.708   4.034
  453SOL    HW2 1376   1.555   1.638   3.936
  454SOL     OW 1377   1.041   0.701   4.153
  454SOL    HW1 1378   1.067   0.697   4.249
  454SOL    HW2 1379   0.956   0.650   4.139
  455SOL     OW 1380   0.076   0.811   4.513
  455SOL    HW1 1381   0.175   0.799   4.522
  455SOL    HW2 1382   0.052   0.906   4.534
  456SOL     OW 1383   0.865   0.348   3.919
  456SOL    HW1 1384   0.924   0.411   3.870
  456SOL    HW2 1385   0.884   0.254   3.890
  457SOL     OW 1386   1.362   1.144   4.269
  457SOL    HW1 1387   1.445   1.115   4.221
  457SOL    HW2 1388   1.313   1.211   4.213
  458SOL     OW 1389   0.550   0.196   4.609
  458SOL    HW1 1390   0.545   0.191   4.709
  458SOL    HW2 1391   0.552   0.292   4.580
  459SOL     OW 1392   1.008   1.456   4.201
  459SOL    HW1 1393   0.962   1.528   4.149
  459SOL    HW2 1394   1.004   1.476   4.299
  460SOL     OW 1395   0.351   1.801   4.577
  460SOL    HW1 1396   0.401   1.715   4.583
  460SOL    HW2 1397   0.416   1.878   4.574
  461SOL     OW 1398   1.795   1.066   4.597
  461SOL    HW1 1399   1.733   1.051   4.521
  461SOL    HW2 1400   1.743   1.077   4.682
  462SOL     OW 1401   0.321   0.943   3.966
  462SOL    HW1 1402   0.403   0.982   3.924
  462SOL    HW2 1403   0.294   0.861   3.917
  463SOL     OW 1404   1.458   0.735   4.452
  463SOL    HW1 1405   1.453   0.670   4.527
  463SOL    HW2 1406   1.538   0.794   4.465
  464SOL     OW 1407   1.111   1.776   3.961
  464SOL    HW1 1408   1.051   1.714   4.011
  464SOL    HW2 1409   1.142   1.732   3.876
  465SOL     OW 1410   1.632   1.377   3.805
  465SOL    HW1 1411   1.600   1.471   3.795
  465SOL    HW2 1412   1.556   1.314   3.793
  466SOL     OW 1413   0.464   1.743   4.047
  466SOL    HW1 1414   0.497   1.782   4.133
  466SOL    HW2 1415   0.540   1.736   3.982
  467SOL     OW 1416   1.400   0.107   4.150
  467SOL    HW1 1417   1.376   0.070   4.060
  467SOL    HW2 1418   1.499   0.123   4.154
  468SOL     OW 1419   0.249   1.785   4.965
  468SOL    HW1 1420   0.306   1.720   5.015
  468SOL    HW2 1421   0.233   1.752   4.872
  469SOL     OW 1422   0.940   1.698   4.628
  469SOL    HW1 1423   1.020   1.641   4.649
  469SOL    HW2 1424   0.891   1.658   4.551
  470SOL     OW 1425   0.382   0.700   4.204
  470SOL    HW1 1426   0.427   0.610   4.201
  470SOL    HW2 1427   0.288   0.689   4.237
  471SOL     OW 1428   0.614   0.122   3.841
  471SOL    HW1 1429   0.712   0.100   3.848
  471SOL    HW2 1430   0.583   0.105   3.748
  472SOL     OW 1431   0.803   1.402   4.648
  472SOL    HW1 1432   0.893   1.416   4.606
  472SOL    HW2 1433   0.732   1.404   4.577
  473SOL     OW 1434   0.922   0.503   4.623
  473SOL    HW1 1435   0.897   0.494   4.527
  473SOL    HW2 1436   0.970   0.421   4.654
  474SOL     OW 1437   0.539   0.064   4.236
  474SOL    HW1 1438   0.458   0.065   4.294
  474SOL    HW2 1439   0.542   0.147   4.181
  475SOL     OW 1440   1.434   1.188   3.765
  475SOL    HW1 1441   1.466   1.112   3.822
  475SOL    HW2 1442   1.342   1.215   3.795
  476SOL     OW 1443   0.297   0.035   3.895
  476SOL    HW1 1444   0.346   0.119   3.874
  476SOL    HW2 1445   0.359  -0.030   3.940
  477SOL     OW 1446   0.935   0.236   4.204
  477SOL    HW1 1447   0.887   0.277   4.126
  477SOL    HW2 1448   1.034   0.234   4.185
  478SOL     OW 1449   1.227   1.570   4.517
  478SOL    HW1 1450   1.248   1.644   4.452
  478SOL    HW2 1451   1.295   1.570   4.590
  479SOL     OW 1452   0.459   1.152   4.465
  479SOL    HW1 1453   0.388   1.125   4.530
  479SOL    HW2 1454   0.433   1.124   4.372
  480SOL     OW 1455   1.271   1.797   4.315
  480SOL    HW1 1456   1.315   1.861   4.251
  480SOL    HW2 1457   1.221   1.849   4.385
  481SOL     OW 1458   1.032   0.549   3.740
  481SOL    HW1 1459   0.991   0.631   3.701
  481SOL    HW2 1460   1.096   0.575   3.813
  482SOL     OW 1461   0.866   0.454   4.366
  482SOL    HW1 1462   0.834   0.526   4.304
  482SOL    HW2 1463   0.890   0.373   4.313
  483SOL     OW 1464   1.017   0.039   4.477
  483SOL    HW1 1465   0.945   0.044   4.408
  483SOL    HW2 1466   0.993  -0.030   4.546
  484SOL     OW 1467   1.429   1.173   4.591
  484SOL    HW1 1468   1.374   1.089   4.584
  484SOL    HW2 1469   1.455   1.202   4.499
  485SOL     OW 1470   1.466   0.590   4.716
  485SOL    HW1 1471   1.436   0.495   4.723
  485SOL    HW2 1472   1.539   0.606   4.782
  486SOL     OW 1473   1.857   0.833   4.101
  486SOL    HW1 1474   1.899   0.769   4.165
  486SOL    HW2 1475   1.819   0.782   4.023
  487SOL     OW 1476   0.488   1.385   3.898
  487SOL    HW1 1477   0.401   1.370   3.945
  487SOL    HW2 1478   0.471   1.411   3.803
  488SOL     OW 1479   1.664   1.280   4.381
  488SOL    HW1 1480   1.763   1.288   4.395
  488SOL    HW2 1481   1.619   1.364   4.412
  489SOL     OW 1482   1.390   0.575   3.802
  489SOL    HW1 1483   1.336   0.554   3.883
  489SOL    HW2 1484   1.481   0.534   3.811
  490SOL     OW 1485   0.527   0.256   4.052
  490SOL    HW1 1486   0.554   0.197   3.977
  490SOL    HW2 1487   0.527   0.351   4.021
  491SOL     OW 1488   1.638   1.099   4.803
  491SOL    HW1 1489   1.643   1.180   4.862
  491SOL    HW2 1490   1.552   1.101   4.752
  492SOL     OW 1491   0.705   1.050   4.092
  492SOL    HW1 1492   0.691   1.057   4.191
  492SOL    HW2 1493   0.789   0.999   4.074
  493SOL     OW 1494   0.367   1.100   4.225
  493SOL    HW1 1495   0.360   1.183   4.169
  493SOL    HW2 1496   0.371   1.020   4.165
  494SOL     OW 1497   0.566   0.537   4.589
  494SOL    HW1 1498   0.578   0.603   4.515
  494SOL    HW2 1499   0.612   0.571   4.672
  495SOL     OW 1500   1.252   1.348   4.112
  495SOL    HW1 1501   1.302   1.425   4.152
  495SOL    HW2 1502   1.157   1.350   4.144
  496SOL     OW 1503   1.582   0.639   4.196
  496SOL    HW1 1504   1.551   0.700   4.269
  496SOL    HW2 1505   1.632   0.691   4.127
  497SOL     OW 1506   0.573   0.870   4.753
  497SOL    HW1 1507   0.617   0.959   4.744
  497SOL    HW2 1508   0.510   0.870   4.830
  498SOL     OW 1509   1.209   0.525   3.999
  498SOL    HW1 1510   1.222   0.441   4.053
  498SOL    HW2 1511   1.180   0.599   4.059
  499SOL     OW 1512   0.732   0.634   4.788
  499SOL    HW1 1513   0.791   0.608   4.712
  499SOL    HW2 1514   0.704   0.730   4.777
  500SOL     OW 1515   0.307   0.063   4.342
  500SOL    HW1 1516   0.296   0.157   4.375
  500SOL    HW2 1517   0.302   0.000   4.419
  501SOL     OW 1518   1.622   0.367   4.098
  501SOL    HW1 1519   1.624   0.291   4.162
  501SOL    HW2 1520   1.574   0.444   4.138
  502SOL     OW 1521   1.540   0.274   3.849
  502SOL    HW1 1522   1.479   0.199   3.872
  502SOL    HW2 1523   1.562   0.326   3.932
  503SOL     OW 1524   1.303   0.838   3.766
  503SOL    HW1 1525   1.337   0.745   3.781
  503SOL    HW2 1526   1.321   0.865   3.671
  504SOL     OW 1527   1.068   1.333   4.573
  504SOL    HW1 1528   1.075   1.249   4.518
  504SOL    HW2 1529   1.130   1.402   4.537
  505SOL     OW 1530   0.319   0.810   4.673
  505SOL    HW1 1531   0.412   0.846   4.678
  505SOL    HW2 1532   0.313   0.725   4.725
  506SOL     OW 1533   0.339   0.509   4.730
  506SOL    HW1 1534   0.287   0.426   4.713
  506SOL    HW2 1535   0.416   0.514   4.666
  507SOL     OW 1536   0.008   1.326   3.924
  507SOL    HW1 1537  -0.085   1.347   3.893
  507SOL    HW2 1538   0.018   1.227   3.937
  508SOL     OW 1539   0.088   1.801   4.651
  508SOL    HW1 1540   0.046   1.715   4.624
  508SOL    HW2 1541   0.182   1.804   4.617
  509SOL     OW 1542   0.504   1.568   4.634
  509SOL    HW1 1543   0.570   1.642   4.643
  509SOL    HW2 1544   0.548   1.489   4.592
  510SOL     OW 1545   1.002   0.796   4.962
  510SOL    HW1 1546   1.043   0.764   5.048
  510SOL    HW2 1547   0.906   0.769   4.959
  511SOL     OW 1548   0.815   0.572   4.049
  511SOL    HW1 1549   0.822   0.483   4.003
  511SOL    HW2 1550   0.721   0.606   4.041
  512SOL     OW 1551   0.671   0.464   4.993
  512SOL    HW1 1552   0.637   0.375   4.963
  512SOL    HW2 1553   0.697   0.518   4.913
  513SOL     OW 1554   0.473   0.500   3.915
  513SOL    HW1 1555   0.534   0.580   3.919
  513SOL    HW2 1556   0.378   0.531   3.922
  514SOL     OW 1557   1.302   0.855   4.033
  514SOL    HW1 1558   1.216   0.824   4.075
  514SOL    HW2 1559   1.298   0.841   3.934
  515SOL     OW 1560   1.759   1.747   4.878
  515SOL    HW1 1561   1.820   1.777   4.805
  515SOL    HW2 1562   1.721   1.658   4.856
  516SOL     OW 1563   0.083   1.258   4.746
  516SOL    HW1 1564   0.078   1.257   4.846
  516SOL    HW2 1565   0.000   1.217   4.708
  517SOL     OW 1566   1.726   0.135   4.247
  517SOL    HW1 1567   1.799   0.118   4.180
  517SOL    HW2 1568   1.695   0.048   4.285
  518SOL     OW 1569   1.388   1.573   4.201
  518SOL    HW1 1570   1.455   1.585   4.127
  518SOL    HW2 1571   1.348   1.662   4.224
  519SOL     OW 1572   1.280   0.927   4.396
  519SOL    HW1 1573   1.340   0.846   4.398
  519SOL    HW2 1574   1.320   0.996   4.336
  520SOL     OW 1575   0.672   1.616   3.878
  520SOL    HW1 1576   0.681   1.626   3.779
  520SOL    HW2 1577   0.632   1.527   3.899
  521SOL     OW 1578   1.841   0.175   4.687
  521SOL    HW1 1579   1.880   0.090   4.651
  521SOL    HW2 1580   1.743   0.177   4.668
  522SOL     OW 1581   0.263   0.326   4.444
  522SOL    HW1 1582   0.184   0.377   4.410
  522SOL    HW2 1583   0.254   0.311   4.542
  523SOL     OW 1584   1.194   1.612   3.755
  523SOL    HW1 1585   1.200   1.519   3.792
  523SOL    HW2 1586   1.135   1.612   3.675
  524SOL     OW 1587   0.916   0.910   4.015
  524SOL    HW1 1588   0.979   0.948   3.947
  524SOL    HW2 1589   0.956   0.827   4.054
  525SOL     OW 1590   1.504   1.607   3.768
  525SOL    HW1 1591   1.412   1.644   3.775
  525SOL    HW2 1592   1.542   1.627   3.678
  526SOL     OW 1593   1.039   1.098   4.420
  526SOL    HW1 1594   0.969   1.051   4.474
  526SOL    HW2 1595   1.098   1.030   4.377
  527SOL     OW 1596   1.014   0.236   4.695
  527SOL    HW1 1597   1.006   0.200   4.602
  527SOL    HW2 1598   1.012   0.160   4.760
  528SOL     OW 1599   0.590   1.487   4.215
  528SOL    HW1 1600   0.632   1.429   4.145
  528SOL    HW2 1601   0.546   1.566   4.171
  529SOL     OW 1602   0.255   1.348   4.014
  529SOL    HW1 1603   0.159   1.349   3.987
  529SOL    HW2 1604   0.267   1.401   4.098
  530SOL     OW 1605   0.075   0.345   3.757
  530SOL    HW1 1606  -0.017   0.317   3.728
  530SOL    HW2 1607   0.106   0.422   3.701
  531SOL     OW 1608   0.072   0.166   4.042
  531SOL    HW1 1609   0.055   0.249   3.988
  531SOL    HW2 1610   0.162   0.129   4.020
  532SOL     OW 1611   1.183   1.335   3.843
  532SOL    HW1 1612   1.084   1.324   3.845
  532SOL    HW2 1613   1.217   1.350   3.936
  533SOL     OW 1614   1.674   0.883   4.978
  533SOL    HW1 1615   1.647   0.794   4.941
  533SOL    HW2 1616   1.675   0.951   4.905
  534SOL     OW 1617   1.225   0.325   4.173
  534SOL    HW1 1618   1.290   0.251   4.162
  534SOL    HW2 1619   1.245   0.375   4.257
  535SOL     OW 1620   0.594   0.745   4.376
  535SOL    HW1 1621   0.644   0.830   4.357
  535SOL    HW2 1622   0.506   0.747   4.328
  536SOL     OW 1623   0.859   1.374   3.740
  536SOL    HW1 1624   0.813   1.389   3.828
  536SOL    HW2 1625   0.903   1.459   3.710
  537SOL     OW 1626   0.661   1.790   4.677
  537SOL    HW1 1627   0.615   1.878   4.664
  537SOL    HW2 1628   0.760   1.802   4.670
  538SOL     OW 1629   0.859   0.956   4.585
  538SOL    HW1 1630   0.913   0.887   4.633
  538SOL    HW2 1631   0.827   1.025   4.651
  539SOL     OW 1632   1.083   0.984   3.811
  539SOL    HW1 1633   1.060   1.037   3.729
  539SOL    HW2 1634   1.164   0.928   3.792
  540SOL     OW 1635   1.861   1.569   4.575
  540SOL    HW1 1636   1.790   1.557   4.505
  540SOL    HW2 1637   1.862   1.490   4.635
  541SOL     OW 1638   0.079   1.240   4.377
  541SOL    HW1 1639   0.078   1.193   4.465
  541SOL    HW2 1640   0.161   1.212   4.326
  542SOL     OW 1641   1.824   0.192   4.951
  542SOL    HW1 1642   1.820   0.102   4.995
  542SOL    HW2 1643   1.827   0.181   4.852
  543SOL     OW 1644   0.428   0.424   4.244
  543SOL    HW1 1645   0.458   0.352   4.182
  543SOL    HW2 1646   0.389   0.384   4.327
  544SOL     OW 1647   0.812   1.586   4.411
  544SOL    HW1 1648   0.844   1.596   4.317
  544SOL    HW2 1649   0.733   1.524   4.413
  545SOL     OW 1650   0.770   1.330   4.025
  545SOL    HW1 1651   0.724   1.243   4.042
  545SOL    HW2 1652   0.861   1.327   4.066
  546SOL     OW 1653   1.352   0.052   3.892
  546SOL    HW1 1654   1.387   0.011   3.808
  546SOL    HW2 1655   1.262   0.014   3.912
  547SOL     OW 1656   1.300   0.453   4.415
  547SOL    HW1 1657   1.241   0.533   4.419
  547SOL    HW2 1658   1.315   0.418   4.508
  548SOL     OW 1659   1.593   0.221   4.606
  548SOL    HW1 1660   1.509   0.220   4.660
  548SOL    HW2 1661   1.595   0.304   4.550
  549SOL     OW 1662   0.039   1.077   4.024
  549SOL    HW1 1663   0.138   1.066   4.015
  549SOL    HW2 1664  -0.001   0.991   4.056
  550SOL     OW 1665   0.875   1.646   4.061
  550SOL    HW1 1666   0.798   1.611   4.007
  550SOL    HW2 1667   0.843   1.717   4.123
  551SOL     OW 1668   0.230   2.490   0.113
  551SOL    HW1 1669   0.137   2.488   0.150
  551SOL    HW2 1670   0.231   2.451   0.021
  552SOL     OW 1671   0.225   2.137   0.996
  552SOL    HW1 1672   0.260   2.120   1.088
  552SOL    HW2 1673   0.137   2.092   0.984
  553SOL     OW 1674   0.019   2.230   0.647
  553SOL    HW1 1675  -0.063   2.273   0.686
  553SOL    HW2 1676  -0.009   2.157   0.584
  554SOL     OW 1677   0.569   3.137   1.165
  554SOL    HW1 1678   0.476   3.130   1.128
  554SOL    HW2 1679   0.580   3.226   1.209
  555SOL     OW 1680   1.555   3.373   0.703
  555SOL    HW1 1681   1.498   3.357   0.784
  555SOL    HW2 1682   1.496   3.383   0.623
  556SOL     OW 1683   1.135   2.565   0.717
  556SOL    HW1 1684   1.192   2.643   0.692
  556SOL    HW2 1685   1.075   2.591   0.793
  557SOL     OW 1686   1.755   2.469   0.231
  557SOL    HW1 1687   1.743   2.456   0.132
  557SOL    HW2 1688   1.725   2.388   0.280
  558SOL     OW 1689   0.768   3.006   1.023
  558SOL    HW1 1690   0.690   3.023   1.083
  558SOL    HW2 1691   0.802   3.093   0.987
  559SOL     OW 1692   0.850   2.660   1.823
  559SOL    HW1 1693   0.846   2.736   1.888
  559SOL    HW2 1694   0.872   2.696   1.732
  560SOL     OW 1695   0.685   2.874   0.665
  560SOL    HW1 1696   0.754   2.858   0.735
  560SOL    HW2 1697   0.612   2.931   0.703
  561SOL     OW 1698   0.686   3.023   1.803
  561SOL    HW1 1699   0.746   3.102   1.817
  561SOL    HW2 1700   0.600   3.054   1.762
  562SOL     OW 1701   0.335   3.297   1.061
  562SOL    HW1 1702   0.257   3.266   1.008
  562SOL    HW2 1703   0.393   3.355   1.004
  563SOL     OW 1704   1.460   3.367   1.339
  563SOL    HW1 1705   1.484   3.461   1.365
  563SOL    HW2 1706   1.444   3.313   1.421
  564SOL     OW 1707   0.438   2.254   1.499
  564SOL    HW1 1708   0.520   2.198   1.508
  564SOL    HW2 1709   0.357   2.196   1.503
  565SOL     OW 1710   1.603   2.309   0.737
  565SOL    HW1 1711   1.529   2.355   0.687
  565SOL    HW2 1712   1.654   2.377   0.790
  566SOL     OW 1713   0.231   3.575   0.483
  566SOL    HW1 1714   0.265   3.652   0.537
  566SOL    HW2 1715   0.275   3.575   0.393
  567SOL     OW 1716   1.127   3.203   1.690
  567SOL    HW1 1717   1.174   3.203   1.778
  567SOL    HW2 1718   1.079   3.116   1.679
  568SOL     OW 1719   0.230   3.296   0.538
  568SOL    HW1 1720   0.204   3.392   0.538
  568SOL    HW2 1721   0.159   3.242   0.583
  569SOL     OW 1722   0.240   2.953   0.886
  569SOL    HW1 1723   0.254   2.869   0.938
  569SOL    HW2 1724   0.185   3.017   0.941
  570SOL     OW 1725   0.620   3.648   1.439
  570SOL    HW1 1726   0.528   3.631   1.474
  570SOL    HW2 1727   0.648   3.740   1.465
  571SOL     OW 1728   0.606   2.826   0.123
  571SOL    HW1 1729   0.613   2.910   0.069
  571SOL    HW2 1730   0.652   2.839   0.211
  572SOL     OW 1731   1.594   1.976   1.480
  572SOL    HW1 1732   1.576   2.043   1.408
  572SOL    HW2 1733   1.591   2.022   1.569
  573SOL     OW 1734   0.122   2.505   0.563
  573SOL    HW1 1735   0.077   2.417   0.580
  573SOL    HW2 1736   0.121   2.559   0.647
  574SOL     OW 1737   1.842   3.629   0.359
  574SOL    HW1 1738   1.896   3.600   0.439
  574SOL    HW2 1739   1.872   3.719   0.330
  575SOL     OW 1740   0.027   3.458   0.117
  575SOL    HW1 1741   0.008   3.362   0.138
  575SOL    HW2 1742  -0.006   3.516   0.192
  576SOL     OW 1743   1.689   2.784   0.612
  576SOL    HW1 1744   1.784   2.755   0.620
  576SOL    HW2 1745   1.681   2.849   0.537
  577SOL     OW 1746   1.641   2.970   0.432
  577SOL    HW1 1747   1.727   2.972   0.380
  577SOL    HW2 1748   1.655   3.017   0.520
  578SOL     OW 1749   0.113   2.599   1.597
  578SOL    HW1 1750   0.201   2.586   1.642
  578SOL    HW2 1751   0.100   2.696   1.575
  579SOL     OW 1752   0.613   3.227   0.726
  579SOL    HW1 1753   0.564   3.140   0.735
  579SOL    HW2 1754   0.590   3.270   0.639
  580SOL     OW 1755   1.293   3.090   1.423
  580SOL    HW1 1756   1.330   3.017   1.365
  580SOL    HW2 1757   1.345   3.095   1.508
  581SOL     OW 1758   0.809   1.866   0.502
  581SOL    HW1 1759   0.849   1.957   0.493
  581SOL    HW2 1760   0.709   1.874   0.508
  582SOL     OW 1761   0.197   2.838   1.264
  582SOL    HW1 1762   0.286   2.793   1.250
  582SOL    HW2 1763   0.124   2.773   1.245
  583SOL     OW 1764   1.525   2.861   0.190
  583SOL    HW1 1765   1.462   2.785   0.203
  583SOL    HW2 1766   1.573   2.879   0.276
  584SOL     OW 1767   1.187   3.654   1.616
  584SOL    HW1 1768   1.211   3.714   1.540
  584SOL    HW2 1769   1.194   3.559   1.586
  585SOL     OW 1770   0.317   2.113   1.801
  585SOL    HW1 1771   0.388   2.184   1.807
  585SOL    HW2 1772   0.229   2.152   1.829
  586SOL     OW 1773   1.466   3.279   0.953
  586SOL    HW1 1774   1.407   3.285   1.033
  586SOL    HW2 1775   1.451   3.191   0.907
  587SOL     OW 1776   1.667   3.576   0.572
  587SOL    HW1 1777   1.626   3.553   0.484
  587SOL    HW2 1778   1.649   3.502   0.637
  588SOL     OW 1779   0.598   2.591   0.270
  588SOL    HW1 1780   0.622   2.660   0.202
  588SOL    HW2 1781   0.520   2.624   0.324
  589SOL     OW 1782   1.281   2.207   0.944
  589SOL    HW1 1783   1.195   2.157   0.931
  589SOL    HW2 1784   1.343   2.153   1.000
  590SOL     OW 1785   1.576   3.524   0.307
  590SOL    HW1 1786   1.665   3.570   0.310
  590SOL    HW2 1787   1.555   3.500   0.212
  591SOL     OW 1788   0.807   2.467   1.465
  591SOL    HW1 1789   0.760   2.464   1.554
  591SOL    HW2 1790   0.756   2.412   1.399
  592SOL     OW 1791   1.394   2.331   1.674
  592SOL    HW1 1792   1.374   2.374   1.762
  592SOL    HW2 1793   1.472   2.269   1.683
  593SOL     OW 1794   0.973   2.752   1.572
  593SOL    HW1 1795   1.019   2.668   1.543
  593SOL    HW2 1796   0.917   2.786   1.497
  594SOL     OW 1797   0.991   2.272   1.242
  594SOL    HW1 1798   0.914   2.306   1.296
  594SOL    HW2 1799   0.957   2.221   1.163
  595SOL     OW 1800   1.041   2.563   0.429
  595SOL    HW1 1801   1.067   2.559   0.525
  595SOL    HW2 1802   0.956   2.512   0.415
  596SOL     OW 1803   0.076   2.673   0.789
  596SOL    HW1 1804   0.175   2.661   0.798
  596SOL    HW2 1805   0.052   2.768   0.810
  597SOL     OW 1806   0.130   3.683   1.571
  597SOL    HW1 1807   0.120   3.668   1.670
  597SOL    HW2 1808   0.044   3.719   1.535
  598SOL     OW 1809   0.865   2.210   0.195
  598SOL    HW1 1810   0.924   2.273   0.146
  598SOL    HW2 1811   0.884   2.116   0.166
  599SOL     OW 1812   1.719   2.447   1.831
  599SOL    HW1 1813   1.693   2.536   1.795
  599SOL    HW2 1814   1.717   2.379   1.758
  600SOL     OW 1815   1.362   3.006   0.545
  600SOL    HW1 1816   1.445   2.977   0.497
  600SOL    HW2 1817   1.313   3.073   0.489
  601SOL     OW 1818   0.550   2.058   0.885
  601SOL    HW1 1819   0.545   2.053   0.985
  601SOL    HW2 1820   0.552   2.154   0.856
  602SOL     OW 1821   1.008   3.318   0.477
  602SOL    HW1 1822   0.962   3.390   0.425
  602SOL    HW2 1823   1.004   3.338   0.575
  603SOL     OW 1824   0.351   3.663   0.853
  603SOL    HW1 1825   0.401   3.577   0.859
  603SOL    HW2 1826   0.416   3.740   0.850
  604SOL     OW 1827   1.795   2.928   0.873
  604SOL    HW1 1828   1.733   2.913   0.797
  604SOL    HW2 1829   1.743   2.939   0.958
  605SOL     OW 1830   1.227   3.412   1.506
  605SOL    HW1 1831   1.233   3.335   1.570
  605SOL    HW2 1832   1.175   3.386   1.426
  606SOL     OW 1833   0.321   2.805   0.242
  606SOL    HW1 1834   0.403   2.844   0.200
  606SOL    HW2 1835   0.294   2.723   0.193
  607SOL     OW 1836   1.458   2.597   0.728
  607SOL    HW1 1837   1.453   2.532   0.803
  607SOL    HW2 1838   1.538   2.656   0.741
  608SOL     OW 1839   0.461   3.128   1.727
  608SOL    HW1 1840   0.411   3.129   1.641
  608SOL    HW2 1841   0.398   3.110   1.803
  609SOL     OW 1842   1.111   3.638   0.237
  609SOL    HW1 1843   1.051   3.576   0.287
  609SOL    HW2 1844   1.142   3.594   0.152
  610SOL     OW 1845   0.202   2.147   1.498
  610SOL    HW1 1846   0.122   2.207   1.485
  610SOL    HW2 1847   0.192   2.098   1.584
  611SOL     OW 1848   1.632   3.239   0.081
  611SOL    HW1 1849   1.600   3.333   0.071
  611SOL    HW2 1850   1.556   3.176   0.069
  612SOL     OW 1851   0.464   3.605   0.323
  612SOL    HW1 1852   0.497   3.644   0.409
  612SOL    HW2 1853   0.540   3.598   0.258
  613SOL     OW 1854   1.400   1.969   0.426
  613SOL    HW1 1855   1.376   1.932   0.336
  613SOL    HW2 1856   1.499   1.985   0.430
  614SOL     OW 1857   0.249   3.647   1.241
  614SOL    HW1 1858   0.306   3.582   1.291
  614SOL    HW2 1859   0.233   3.614   1.148
  615SOL     OW 1860   0.940   3.560   0.904
  615SOL    HW1 1861   1.020   3.503   0.925
  615SOL    HW2 1862   0.891   3.520   0.827
  616SOL     OW 1863   0.382   2.562   0.480
  616SOL    HW1 1864   0.427   2.472   0.477
  616SOL    HW2 1865   0.288   2.551   0.513
  617SOL     OW 1866   1.547   2.084   1.729
  617SOL    HW1 1867   1.542   2.121   1.821
  617SOL    HW2 1868   1.475   2.015   1.717
  618SOL     OW 1869   0.614   1.984   0.117
  618SOL    HW1 1870   0.712   1.962   0.124
  618SOL    HW2 1871   0.583   1.967   0.024
  619SOL     OW 1872   0.781   2.126   1.749
  619SOL    HW1 1873   0.848   2.065   1.792
  619SOL    HW2 1874   0.708   2.145   1.814
  620SOL     OW 1875   0.888   3.376   1.195
  620SOL    HW1 1876   0.865   3.351   1.101
  620SOL    HW2 1877   0.949   3.307   1.234
  621SOL     OW 1878   1.351   2.452   1.433
  621SOL    HW1 1879   1.379   2.409   1.518
  621SOL    HW2 1880   1.376   2.548   1.434
  622SOL     OW 1881   0.803   3.264   0.924
  622SOL    HW1 1882   0.893   3.278   0.882
  622SOL    HW2 1883   0.732   3.266   0.853
  623SOL     OW 1884   0.922   2.365   0.899
  623SOL    HW1 1885   0.897   2.356   0.803
  623SOL    HW2 1886   0.970   2.283   0.930
  624SOL     OW 1887   0.539   1.926   0.512
  624SOL    HW1 1888   0.458   1.927   0.570
  624SOL    HW2 1889   0.542   2.009   0.457
  625SOL     OW 1890   1.434   3.050   0.041
  625SOL    HW1 1891   1.466   2.974   0.098
  625SOL    HW2 1892   1.342   3.077   0.071
  626SOL     OW 1893   0.935   2.098   0.480
  626SOL    HW1 1894   0.887   2.139   0.402
  626SOL    HW2 1895   1.034   2.096   0.461
  627SOL     OW 1896   1.076   2.545   1.464
  627SOL    HW1 1897   0.996   2.484   1.467
  627SOL    HW2 1898   1.157   2.492   1.440
  628SOL     OW 1899   1.227   3.432   0.793
  628SOL    HW1 1900   1.248   3.506   0.728
  628SOL    HW2 1901   1.295   3.432   0.866
  629SOL     OW 1902   0.459   3.014   0.741
  629SOL    HW1 1903   0.388   2.987   0.806
  629SOL    HW2 1904   0.433   2.986   0.648
  630SOL     OW 1905   1.271   3.659   0.591
  630SOL    HW1 1906   1.315   3.723   0.527
  630SOL    HW2 1907   1.221   3.711   0.661
  631SOL     OW 1908   1.032   2.411   0.016
  631SOL    HW1 1909   0.991   2.493  -0.023
  631SOL    HW2 1910   1.096   2.437   0.089
  632SOL     OW 1911   0.078   2.418   1.386
  632SOL    HW1 1912   0.170   2.417   1.345
  632SOL    HW2 1913   0.072   2.492   1.453
  633SOL     OW 1914   0.561   2.084   1.147
  633SOL    HW1 1915   0.599   2.000   1.184
  633SOL    HW2 1916   0.473   2.103   1.191
  634SOL     OW 1917   0.866   2.316   0.642
  634SOL    HW1 1918   0.834   2.388   0.580
  634SOL    HW2 1919   0.890   2.235   0.589
  635SOL     OW 1920   1.017   1.901   0.753
  635SOL    HW1 1921   0.945   1.906   0.684
  635SOL    HW2 1922   0.993   1.832   0.822
  636SOL     OW 1923   1.429   3.035   0.867
  636SOL    HW1 1924   1.374   2.951   0.860
  636SOL    HW2 1925   1.455   3.064   0.775
  637SOL     OW 1926   1.466   2.452   0.992
  637SOL    HW1 1927   1.436   2.357   0.999
  637SOL    HW2 1928   1.539   2.468   1.058
  638SOL     OW 1929   1.857   2.695   0.377
  638SOL    HW1 1930   1.899   2.631   0.441
  638SOL    HW2 1931   1.819   2.644   0.299
  639SOL     OW 1932   0.488   3.247   0.174
  639SOL    HW1 1933   0.401   3.232   0.221
  639SOL    HW2 1934   0.471   3.273   0.079
  640SOL     OW 1935   1.664   3.142   0.657
  640SOL    HW1 1936   1.763   3.150   0.671
  640SOL    HW2 1937   1.619   3.226   0.688
  641SOL     OW 1938   1.390   2.437   0.078
  641SOL    HW1 1939   1.336   2.416   0.159
  641SOL    HW2 1940   1.481   2.396   0.087
  642SOL     OW 1941   0.527   2.118   0.328
  642SOL    HW1 1942   0.554   2.059   0.253
  642SOL    HW2 1943   0.527   2.213   0.297
  643SOL     OW 1944   1.754   3.085   1.588
  643SOL    HW1 1945   1.845   3.046   1.575
  643SOL    HW2 1946   1.762   3.181   1.612
  644SOL     OW 1947   1.064   3.209   1.340
  644SOL    HW1 1948   0.984   3.186   1.395
  644SOL    HW2 1949   1.147   3.183   1.389
  645SOL     OW 1950   1.592   3.491   1.625
  645SOL    HW1 1951   1.619   3.525   1.535
  645SOL    HW2 1952   1.671   3.453   1.671
  646SOL     OW 1953   1.111   3.057   1.100
  646SOL    HW1 1954   1.071   3.101   1.181
  646SOL    HW2 1955   1.070   3.094   1.017
  647SOL     OW 1956   1.638   2.961   1.079
  647SOL    HW1 1957   1.643   3.042   1.138
  647SOL    HW2 1958   1.552   2.963   1.028
  648SOL     OW 1959   0.915   1.951   1.402
  648SOL    HW1 1960   0.940   1.931   1.307
  648SOL    HW2 1961   0.987   2.007   1.444
  649SOL     OW 1962   0.980   2.978   1.719
  649SOL    HW1 1963   0.881   2.984   1.729
  649SOL    HW2 1964   1.003   2.898   1.663
  650SOL     OW 1965   0.705   2.912   0.368
  650SOL    HW1 1966   0.691   2.919   0.467
  650SOL    HW2 1967   0.789   2.861   0.350
  651SOL     OW 1968   0.410   2.675   1.251
  651SOL    HW1 1969   0.496   2.687   1.301
  651SOL    HW2 1970   0.368   2.588   1.278
  652SOL     OW 1971   1.274   2.248   1.262
  652SOL    HW1 1972   1.295   2.322   1.326
  652SOL    HW2 1973   1.185   2.265   1.219
  653SOL     OW 1974   0.064   3.426   1.331
  653SOL    HW1 1975   0.018   3.508   1.297
  653SOL    HW2 1976   0.162   3.445   1.340
  654SOL     OW 1977   0.367   2.962   0.501
  654SOL    HW1 1978   0.360   3.045   0.445
  654SOL    HW2 1979   0.371   2.882   0.441
  655SOL     OW 1980   0.566   2.399   0.865
  655SOL    HW1 1981   0.578   2.465   0.791
  655SOL    HW2 1982   0.612   2.433   0.948
  656SOL     OW 1983   1.252   3.210   0.388
  656SOL    HW1 1984   1.302   3.287   0.428
  656SOL    HW2 1985   1.157   3.212   0.420
  657SOL     OW 1986   1.272   3.307   1.142
  657SOL    HW1 1987   1.319   3.320   1.229
  657SOL    HW2 1988   1.206   3.233   1.151
  658SOL     OW 1989   1.582   2.501   0.472
  658SOL    HW1 1990   1.551   2.562   0.545
  658SOL    HW2 1991   1.632   2.553   0.403
  659SOL     OW 1992   0.354   3.372   1.329
  659SOL    HW1 1993   0.333   3.328   1.242
  659SOL    HW2 1994   0.451   3.398   1.332
  660SOL     OW 1995   0.402   2.613   1.598
  660SOL    HW1 1996   0.470   2.668   1.551
  660SOL    HW2 1997   0.442   2.525   1.625
  661SOL     OW 1998   1.587   2.641   1.670
  661SOL    HW1 1999   1.495   2.679   1.665
  661SOL    HW2 2000   1.647   2.688   1.605
  662SOL     OW 2001   1.013   1.967   1.770
  662SOL    HW1 2002   1.019   2.052   1.718
  662SOL    HW2 2003   1.045   1.891   1.713
  663SOL     OW 2004   0.504   1.912   1.740
  663SOL    HW1 2005   0.462   1.855   1.670
  663SOL    HW2 2006   0.438   1.981   1.772
  664SOL     OW 2007   0.573   2.732   1.029
  664SOL    HW1 2008   0.617   2.821   1.020
  664SOL    HW2 2009   0.510   2.732   1.106
  665SOL     OW 2010   1.360   2.724   1.045
  665SOL    HW1 2011   1.285   2.724   0.979
  665SOL    HW2 2012   1.397   2.632   1.054
  666SOL     OW 2013   1.209   2.387   0.275
  666SOL    HW1 2014   1.222   2.303   0.329
  666SOL    HW2 2015   1.180   2.461   0.335
  667SOL     OW 2016   0.307   2.075   1.231
  667SOL    HW1 2017   0.284   2.112   1.321
  667SOL    HW2 2018   0.277   1.980   1.225
  668SOL     OW 2019   0.037   3.172   1.282
  668SOL    HW1 2020   0.090   3.123   1.350
  668SOL    HW2 2021   0.059   3.270   1.287
  669SOL     OW 2022   0.732   2.496   1.064
  669SOL    HW1 2023   0.791   2.470   0.988
  669SOL    HW2 2024   0.704   2.592   1.053
  670SOL     OW 2025   1.728   2.797   1.854
  670SOL    HW1 2026   1.682   2.790   1.765
  670SOL    HW2 2027   1.666   2.841   1.920
  671SOL     OW 2028   0.307   1.925   0.618
  671SOL    HW1 2029   0.296   2.019   0.651
  671SOL    HW2 2030   0.302   1.862   0.695
  672SOL     OW 2031   1.622   2.229   0.374
  672SOL    HW1 2032   1.624   2.153   0.438
  672SOL    HW2 2033   1.574   2.306   0.414
  673SOL     OW 2034   1.023   2.628   0.966
  673SOL    HW1 2035   1.038   2.649   1.062
  673SOL    HW2 2036   0.993   2.533   0.957
  674SOL     OW 2037   0.980   3.435   1.700
  674SOL    HW1 2038   0.960   3.479   1.612
  674SOL    HW2 2039   1.019   3.344   1.684
  675SOL     OW 2040   1.859   3.380   1.605
  675SOL    HW1 2041   1.873   3.407   1.510
  675SOL    HW2 2042   1.942   3.402   1.658
  676SOL     OW 2043   0.350   2.760   1.804
  676SOL    HW1 2044   0.426   2.804   1.852
  676SOL    HW2 2045   0.385   2.713   1.722
  677SOL     OW 2046   1.540   2.136   0.125
  677SOL    HW1 2047   1.479   2.061   0.148
  677SOL    HW2 2048   1.562   2.188   0.208
  678SOL     OW 2049   1.303   2.700   0.042
  678SOL    HW1 2050   1.337   2.607   0.057
  678SOL    HW2 2051   1.321   2.727  -0.053
  679SOL     OW 2052   1.068   3.195   0.849
  679SOL    HW1 2053   1.075   3.111   0.794
  679SOL    HW2 2054   1.130   3.264   0.813
  680SOL     OW 2055   0.319   2.672   0.949
  680SOL    HW1 2056   0.412   2.708   0.954
  680SOL    HW2 2057   0.313   2.587   1.001
  681SOL     OW 2058   0.339   2.371   1.006
  681SOL    HW1 2059   0.287   2.288   0.989
  681SOL    HW2 2060   0.416   2.376   0.942
  682SOL     OW 2061   1.138   2.242   1.678
  682SOL    HW1 2062   1.093   2.305   1.742
  682SOL    HW2 2063   1.231   2.273   1.661
  683SOL     OW 2064   1.160   2.069   1.477
  683SOL    HW1 2065   1.160   2.133   1.554
  683SOL    HW2 2066   1.188   2.117   1.394
  684SOL     OW 2067   0.008   3.188   0.200
  684SOL    HW1 2068  -0.085   3.209   0.169
  684SOL    HW2 2069   0.018   3.089   0.213
  685SOL     OW 2070   0.088   3.663   0.927
  685SOL    HW1 2071   0.046   3.577   0.900
  685SOL    HW2 2072   0.182   3.666   0.893
  686SOL     OW 2073   0.504   3.430   0.910
  686SOL    HW1 2074   0.570   3.504   0.919
  686SOL    HW2 2075   0.548   3.351   0.868
  687SOL     OW 2076   1.002   2.658   1.238
  687SOL    HW1 2077   1.043   2.626   1.324
  687SOL    HW2 2078   0.906   2.631   1.235
  688SOL     OW 2079   0.040   2.406   1.114
  688SOL    HW1 2080   0.125   2.373   1.073
  688SOL    HW2 2081   0.053   2.421   1.212
  689SOL     OW 2082   0.189   2.382   1.722
  689SOL    HW1 2083   0.248   2.342   1.652
  689SOL    HW2 2084   0.131   2.453   1.681
  690SOL     OW 2085   1.369   2.812   1.660
  690SOL    HW1 2086   1.408   2.901   1.680
  690SOL    HW2 2087   1.379   2.792   1.563
  691SOL     OW 2088   0.815   2.434   0.325
  691SOL    HW1 2089   0.822   2.345   0.279
  691SOL    HW2 2090   0.721   2.468   0.317
  692SOL     OW 2091   1.657   2.466   1.206
  692SOL    HW1 2092   1.619   2.397   1.268
  692SOL    HW2 2093   1.739   2.430   1.162
  693SOL     OW 2094   0.252   3.426   1.744
  693SOL    HW1 2095   0.222   3.483   1.820
  693SOL    HW2 2096   0.245   3.329   1.770
  694SOL     OW 2097   0.671   2.326   1.269
  694SOL    HW1 2098   0.637   2.237   1.239
  694SOL    HW2 2099   0.697   2.380   1.189
  695SOL     OW 2100   0.930   3.540   1.465
  695SOL    HW1 2101   0.906   3.522   1.370
  695SOL    HW2 2102   0.960   3.634   1.475
  696SOL     OW 2103   0.473   2.362   0.191
  696SOL    HW1 2104   0.534   2.442   0.195
  696SOL    HW2 2105   0.378   2.393   0.198
  697SOL     OW 2106   0.159   2.999   1.466
  697SOL    HW1 2107   0.181   2.938   1.542
  697SOL    HW2 2108   0.169   2.950   1.380
  698SOL     OW 2109   1.347   2.921   1.234
  698SOL    HW1 2110   1.371   2.858   1.160
  698SOL    HW2 2111   1.257   2.961   1.216
  699SOL     OW 2112   1.302   2.717   0.309
  699SOL    HW1 2113   1.216   2.686   0.351
  699SOL    HW2 2114   1.298   2.703   0.210
  700SOL     OW 2115   1.759   3.609   1.154
  700SOL    HW1 2116   1.820   3.639   1.081
  700SOL    HW2 2117   1.721   3.520   1.132
  701SOL     OW 2118   1.252   3.593   1.128
  701SOL    HW1 2119   1.336   3.598   1.074
  701SOL    HW2 2120   1.229   3.497   1.146
  702SOL     OW 2121   0.083   3.120   1.022
  702SOL    HW1 2122   0.078   3.119   1.122
  702SOL    HW2 2123   0.000   3.079   0.984
  703SOL     OW 2124   0.688   3.524   1.716
  703SOL    HW1 2125   0.632   3.605   1.725
  703SOL    HW2 2126   0.740   3.528   1.630
  704SOL     OW 2127   0.903   1.948   0.133
  704SOL    HW1 2128   0.954   1.949   0.047
  704SOL    HW2 2129   0.959   1.906   0.204
  705SOL     OW 2130   1.726   1.997   0.523
  705SOL    HW1 2131   1.799   1.980   0.456
  705SOL    HW2 2132   1.695   1.910   0.561
  706SOL     OW 2133   1.388   3.435   0.477
  706SOL    HW1 2134   1.455   3.447   0.403
  706SOL    HW2 2135   1.348   3.524   0.500
  707SOL     OW 2136   0.130   3.656   1.851
  707SOL    HW1 2137   0.089   3.582   1.904
  707SOL    HW2 2138   0.194   3.707   1.909
  708SOL     OW 2139   1.280   2.789   0.672
  708SOL    HW1 2140   1.340   2.708   0.674
  708SOL    HW2 2141   1.320   2.858   0.612
  709SOL     OW 2142   0.830   3.135   1.422
  709SOL    HW1 2143   0.825   3.168   1.517
  709SOL    HW2 2144   0.744   3.154   1.376
  710SOL     OW 2145   0.672   3.478   0.154
  710SOL    HW1 2146   0.681   3.488   0.055
  710SOL    HW2 2147   0.632   3.389   0.175
  711SOL     OW 2148   1.650   3.582   1.394
  711SOL    HW1 2149   1.703   3.592   1.310
  711SOL    HW2 2150   1.623   3.672   1.428
  712SOL     OW 2151   1.841   2.037   0.963
  712SOL    HW1 2152   1.880   1.952   0.927
  712SOL    HW2 2153   1.743   2.039   0.944
  713SOL     OW 2154   0.263   2.188   0.720
  713SOL    HW1 2155   0.184   2.239   0.686
  713SOL    HW2 2156   0.254   2.173   0.818
  714SOL     OW 2157   1.194   3.474   0.031
  714SOL    HW1 2158   1.200   3.381   0.068
  714SOL    HW2 2159   1.135   3.474  -0.049
  715SOL     OW 2160   0.822   2.864   1.372
  715SOL    HW1 2161   0.862   2.863   1.280
  715SOL    HW2 2162   0.832   2.956   1.412
  716SOL     OW 2163   0.916   2.772   0.291
  716SOL    HW1 2164   0.979   2.810   0.223
  716SOL    HW2 2165   0.956   2.689   0.330
  717SOL     OW 2166   1.504   3.469   0.044
  717SOL    HW1 2167   1.412   3.506   0.051
  717SOL    HW2 2168   1.542   3.489  -0.046
  718SOL     OW 2169   0.372   3.150   1.490
  718SOL    HW1 2170   0.359   3.243   1.456
  718SOL    HW2 2171   0.288   3.098   1.477
  719SOL     OW 2172   1.614   3.154   1.289
  719SOL    HW1 2173   1.674   3.157   1.369
  719SOL    HW2 2174   1.539   3.218   1.302
  720SOL     OW 2175   1.039   2.960   0.696
  720SOL    HW1 2176   0.969   2.913   0.750
  720SOL    HW2 2177   1.098   2.892   0.653
  721SOL     OW 2178   1.014   2.098   0.971
  721SOL    HW1 2179   1.006   2.062   0.878
  721SOL    HW2 2180   1.012   2.022   1.036
  722SOL     OW 2181   0.590   3.349   0.491
  722SOL    HW1 2182   0.632   3.291   0.421
  722SOL    HW2 2183   0.546   3.428   0.447
  723SOL     OW 2184   1.709   2.247   1.381
  723SOL    HW1 2185   1.782   2.316   1.385
  723SOL    HW2 2186   1.737   2.172   1.322
  724SOL     OW 2187   0.255   3.210   0.290
  724SOL    HW1 2188   0.159   3.211   0.263
  724SOL    HW2 2189   0.267   3.263   0.374
  725SOL     OW 2190   0.105   2.875   1.726
  725SOL    HW1 2191   0.028   2.842   1.780
  725SOL    HW2 2192   0.190   2.845   1.768
  726SOL     OW 2193   0.672   2.065   1.489
  726SOL    HW1 2194   0.762   2.049   1.449
  726SOL    HW2 2195   0.680   2.070   1.588
  727SOL     OW 2196   0.075   2.207   0.033
  727SOL    HW1 2197  -0.017   2.179   0.004
  727SOL    HW2 2198   0.106   2.284  -0.023
  728SOL     OW 2199   1.440   2.718   1.398
  728SOL    HW1 2200   1.383   2.770   1.335
  728SOL    HW2 2201   1.536   2.730   1.374
  729SOL     OW 2202   0.072   2.028   0.318
  729SOL    HW1 2203   0.055   2.111   0.264
  729SOL    HW2 2204   0.162   1.991   0.296
  730SOL     OW 2205   1.183   3.197   0.119
  730SOL    HW1 2206   1.084   3.186   0.121
  730SOL    HW2 2207   1.217   3.212   0.212
  731SOL     OW 2208   0.613   2.704   1.431
  731SOL    HW1 2209   0.669   2.785   1.414
  731SOL    HW2 2210   0.672   2.624   1.434
  732SOL     OW 2211   1.493   3.629   0.959
  732SOL    HW1 2212   1.526   3.693   0.890
  732SOL    HW2 2213   1.559   3.623   1.034
  733SOL     OW 2214   0.716   2.427   1.708
  733SOL    HW1 2215   0.735   2.492   1.782
  733SOL    HW2 2216   0.776   2.347   1.717
  734SOL     OW 2217   1.450   3.082   1.633
  734SOL    HW1 2218   1.441   3.072   1.732
  734SOL    HW2 2219   1.546   3.075   1.607
  735SOL     OW 2220   0.390   3.603   1.560
  735SOL    HW1 2221   0.299   3.644   1.558
  735SOL    HW2 2222   0.383   3.509   1.592
  736SOL     OW 2223   1.674   2.745   1.254
  736SOL    HW1 2224   1.647   2.656   1.217
  736SOL    HW2 2225   1.675   2.813   1.181
  737SOL     OW 2226   1.225   2.187   0.449
  737SOL    HW1 2227   1.290   2.113   0.438
  737SOL    HW2 2228   1.245   2.237   0.533
  738SOL     OW 2229   0.594   2.607   0.652
  738SOL    HW1 2230   0.644   2.692   0.633
  738SOL    HW2 2231   0.506   2.609   0.604
  739SOL     OW 2232   1.777   2.204   1.642
  739SOL    HW1 2233   1.760   2.235   1.548
  739SOL    HW2 2234   1.693   2.167   1.680
  740SOL     OW 2235   1.730   2.796   1.517
  740SOL    HW1 2236   1.768   2.887   1.532
  740SOL    HW2 2237   1.722   2.779   1.418
  741SOL     OW 2238   0.859   3.236   0.016
  741SOL    HW1 2239   0.813   3.251   0.104
  741SOL    HW2 2240   0.903   3.321  -0.014
  742SOL     OW 2241   0.661   3.652   0.953
  742SOL    HW1 2242   0.615   3.740   0.940
  742SOL    HW2 2243   0.760   3.664   0.946
  743SOL     OW 2244   0.859   2.818   0.861
  743SOL    HW1 2245   0.913   2.749   0.909
  743SOL    HW2 2246   0.827   2.887   0.927
  744SOL     OW 2247   1.083   2.846   0.087
  744SOL    HW1 2248   1.060   2.899   0.005
  744SOL    HW2 2249   1.164   2.790   0.068
  745SOL     OW 2250   1.861   3.431   0.851
  745SOL    HW1 2251   1.790   3.419   0.781
  745SOL    HW2 2252   1.862   3.352   0.911
  746SOL     OW 2253   0.221   3.176   1.844
  746SOL    HW1 2254   0.156   3.103   1.823
  746SOL    HW2 2255   0.225   3.190   1.942
  747SOL     OW 2256   0.079   3.102   0.653
  747SOL    HW1 2257   0.078   3.055   0.741
  747SOL    HW2 2258   0.161   3.074   0.602
  748SOL     OW 2259   0.672   3.253   1.624
  748SOL    HW1 2260   0.594   3.203   1.662
  748SOL    HW2 2261   0.669   3.348   1.655
  749SOL     OW 2262   1.824   2.054   1.227
  749SOL    HW1 2263   1.820   1.964   1.271
  749SOL    HW2 2264   1.827   2.043   1.128
  750SOL     OW 2265   0.428   2.286   0.520
  750SOL    HW1 2266   0.458   2.214   0.458
  750SOL    HW2 2267   0.389   2.246   0.603
  751SOL     OW 2268   1.705   3.349   1.104
  751SOL    HW1 2269   1.612   3.324   1.077
  751SOL    HW2 2270   1.731   3.299   1.186
  752SOL     OW 2271   0.317   2.409   1.280
  752SOL    HW1 2272   0.355   2.350   1.352
  752SOL    HW2 2273   0.357   2.383   1.192
  753SOL     OW 2274   0.812   3.448   0.687
  753SOL    HW1 2275   0.844   3.458   0.593
  753SOL    HW2 2276   0.733   3.386   0.689
  754SOL     OW 2277   1.424   2.076   1.112
  754SOL    HW1 2278   1.476   2.011   1.167
  754SOL    HW2 2279   1.375   2.139   1.173
  755SOL     OW 2280   1.001   1.896   1.154
  755SOL    HW1 2281   0.938   1.824   1.123
  755SOL    HW2 2282   1.094   1.860   1.154
  756SOL     OW 2283   0.770   3.192   0.301
  756SOL    HW1 2284   0.724   3.105   0.318
  756SOL    HW2 2285   0.861   3.189   0.342
  757SOL     OW 2286   0.618   3.429   1.284
  757SOL    HW1 2287   0.613   3.511   1.341
  757SOL    HW2 2288   0.707   3.426   1.239
  758SOL     OW 2289   1.352   1.914   0.168
  758SOL    HW1 2290   1.387   1.873   0.084
  758SOL    HW2 2291   1.262   1.876   0.188
  759SOL     OW 2292   1.300   2.315   0.691
  759SOL    HW1 2293   1.241   2.395   0.695
  759SOL    HW2 2294   1.315   2.280   0.784
  760SOL     OW 2295   1.593   2.083   0.882
  760SOL    HW1 2296   1.509   2.082   0.936
  760SOL    HW2 2297   1.595   2.166   0.826
  761SOL     OW 2298   0.039   2.939   0.300
  761SOL    HW1 2299   0.138   2.928   0.291
  761SOL    HW2 2300  -0.001   2.853   0.332
  762SOL     OW 2301   0.875   3.508   0.337
  762SOL    HW1 2302   0.798   3.473   0.283
  762SOL    HW2 2303   0.843   3.579   0.399
  763SOL     OW 2304   0.230   2.490   1.975
  763SOL    HW1 2305   0.137   2.488   2.012
  763SOL    HW2 2306   0.231   2.451   1.883
  764SOL     OW 2307   0.225   2.137   2.858
  764SOL    HW1 2308   0.260   2.120   2.950
  764SOL    HW2 2309   0.137   2.092   2.846
  765SOL     OW 2310   0.019   2.230   2.509
  765SOL    HW1 2311  -0.063   2.273   2.548
  765SOL    HW2 2312  -0.009   2.157   2.446
  766SOL     OW 2313   0.569   3.137   3.027
  766SOL    HW1 2314   0.476   3.130   2.990
  766SOL    HW2 2315   0.580   3.226   3.071
  767SOL     OW 2316   1.555   3.373   2.565
  767SOL    HW1 2317   1.498   3.357   2.646
  767SOL    HW2 2318   1.496   3.383   2.485
  768SOL     OW 2319   1.135   2.565   2.579
  768SOL    HW1 2320   1.192   2.643   2.554
  768SOL    HW2 2321   1.075   2.591   2.655
  769SOL     OW 2322   1.755   2.469   2.093
  769SOL    HW1 2323   1.743   2.456   1.994
  769SOL    HW2 2324   1.725   2.388   2.142
  770SOL     OW 2325   0.768   3.006   2.885
  770SOL    HW1 2326   0.690   3.023   2.945
  770SOL    HW2 2327   0.802   3.093   2.849
  771SOL     OW 2328   0.850   2.660   3.685
  771SOL    HW1 2329   0.846   2.736   3.750
  771SOL    HW2 2330   0.872   2.696   3.594
  772SOL     OW 2331   0.685   2.874   2.527
  772SOL    HW1 2332   0.754   2.858   2.597
  772SOL    HW2 2333   0.612   2.931   2.565
  773SOL     OW 2334   0.686   3.023   3.665
  773SOL    HW1 2335   0.746   3.102   3.679
  773SOL    HW2 2336   0.600   3.054   3.624
  774SOL     OW 2337   0.335   3.297   2.923
  774SOL    HW1 2338   0.257   3.266   2.870
  774SOL    HW2 2339   0.393   3.355   2.866
  775SOL     OW 2340   1.460   3.367   3.201
  775SOL    HW1 2341   1.484   3.461   3.227
  775SOL    HW2 2342   1.444   3.313   3.283
  776SOL     OW 2343   0.438   2.254   3.361
  776SOL    HW1 2344   0.520   2.198   3.370
  776SOL    HW2 2345   0.357   2.196   3.365
  777SOL     OW 2346   1.603   2.309   2.599
  777SOL    HW1 2347   1.529   2.355   2.549
  777SOL    HW2 2348   1.654   2.377   2.652
  778SOL     OW 2349   0.231   3.575   2.345
  778SOL    HW1 2350   0.265   3.652   2.399
  778SOL    HW2 2351   0.275   3.575   2.255
  779SOL     OW 2352   1.127   3.203   3.552
  779SOL    HW1 2353   1.174   3.203   3.640
  779SOL    HW2 2354   1.079   3.116   3.541
  780SOL     OW 2355   0.230   3.296   2.400
  780SOL    HW1 2356   0.204   3.392   2.400
  780SOL    HW2 2357   0.159   3.242   2.445
  781SOL     OW 2358   0.240   2.953   2.748
  781SOL    HW1 2359   0.254   2.869   2.800
  781SOL    HW2 2360   0.185   3.017   2.803
  782SOL     OW 2361   0.620   3.648   3.301
  782SOL    HW1 2362   0.528   3.631   3.336
  782SOL    HW2 2363   0.648   3.740   3.327
  783SOL     OW 2364   0.606   2.826   1.985
  783SOL    HW1 2365   0.613   2.910   1.931
  783SOL    HW2 2366   0.652   2.839   2.073
  784SOL     OW 2367   1.594   1.976   3.342
  784SOL    HW1 2368   1.576   2.043   3.270
  784SOL    HW2 2369   1.591   2.022   3.431
  785SOL     OW 2370   0.122   2.505   2.425
  785SOL    HW1 2371   0.077   2.417   2.442
  785SOL    HW2 2372   0.121   2.559   2.509
  786SOL     OW 2373   1.842   3.629   2.221
  786SOL    HW1 2374   1.896   3.600   2.301
  786SOL    HW2 2375   1.872   3.719   2.192
  787SOL     OW 2376   0.027   3.458   1.979
  787SOL    HW1 2377   0.008   3.362   2.000
  787SOL    HW2 2378  -0.006   3.516   2.054
  788SOL     OW 2379   1.689   2.784   2.474
  788SOL    HW1 2380   1.784   2.755   2.482
  788SOL    HW2 2381   1.681   2.849   2.399
  789SOL     OW 2382   1.641   2.970   2.294
  789SOL    HW1 2383   1.727   2.972   2.242
  789SOL    HW2 2384   1.655   3.017   2.382
  790SOL     OW 2385   0.113   2.599   3.459
  790SOL    HW1 2386   0.201   2.586   3.504
  790SOL    HW2 2387   0.100   2.696   3.437
  791SOL     OW 2388   0.613   3.227   2.588
  791SOL    HW1 2389   0.564   3.140   2.597
  791SOL    HW2 2390   0.590   3.270   2.501
  792SOL     OW 2391   1.293   3.090   3.285
  792SOL    HW1 2392   1.330   3.017   3.227
  792SOL    HW2 2393   1.345   3.095   3.370
  793SOL     OW 2394   0.809   1.866   2.364
  793SOL    HW1 2395   0.849   1.957   2.355
  793SOL    HW2 2396   0.709   1.874   2.370
  794SOL     OW 2397   0.197   2.838   3.126
  794SOL    HW1 2398   0.286   2.793   3.112
  794SOL    HW2 2399   0.124   2.773   3.107
  795SOL     OW 2400   1.525   2.861   2.052
  795SOL    HW1 2401   1.462   2.785   2.065
  795SOL    HW2 2402   1.573   2.879   2.138
  796SOL     OW 2403   1.187   3.654   3.478
  796SOL    HW1 2404   1.211   3.714   3.402
  796SOL    HW2 2405   1.194   3.559   3.448
  797SOL     OW 2406   0.317   2.113   3.663
  797SOL    HW1 2407   0.388   2.184   3.669
  797SOL    HW2 2408   0.229   2.152   3.691
  798SOL     OW 2409   1.466   3.279   2.815
  798SOL    HW1 2410   1.407   3.285   2.895
  798SOL    HW2 2411   1.451   3.191   2.769
  799SOL     OW 2412   1.667   3.576   2.434
  799SOL    HW1 2413   1.626   3.553   2.346
  799SOL    HW2 2414   1.649   3.502   2.499
  800SOL     OW 2415   0.598   2.591   2.132
  800SOL    HW1 2416   0.622   2.660   2.064
  800SOL    HW2 2417   0.520   2.624   2.186
  801SOL     OW 2418   1.281   2.207   2.806
  801SOL    HW1 2419   1.195   2.157   2.793
  801SOL    HW2 2420   1.343   2.153   2.862
  802SOL     OW 2421   1.576   3.524   2.169
  802SOL    HW1 2422   1.665   3.570   2.172
  802SOL    HW2 2423   1.555   3.500   2.074
  803SOL     OW 2424   0.807   2.467   3.327
  803SOL    HW1 2425   0.760   2.464   3.416
  803SOL    HW2 2426   0.756   2.412   3.261
  804SOL     OW 2427   1.394   2.331   3.536
  804SOL    HW1 2428   1.374   2.374   3.624
  804SOL    HW2 2429   1.472   2.269   3.545
  805SOL     OW 2430   0.973   2.752   3.434
  805SOL    HW1 2431   1.019   2.668   3.405
  805SOL    HW2 2432   0.917   2.786   3.359
  806SOL     OW 2433   0.991   2.272   3.104
  806SOL    HW1 2434   0.914   2.306   3.158
  806SOL    HW2 2435   0.957   2.221   3.025
  807SOL     OW 2436   1.041   2.563   2.291
  807SOL    HW1 2437   1.067   2.559   2.387
  807SOL    HW2 2438   0.956   2.512   2.277
  808SOL     OW 2439   0.076   2.673   2.651
  808SOL    HW1 2440   0.175   2.661   2.660
  808SOL    HW2 2441   0.052   2.768   2.672
  809SOL     OW 2442   0.130   3.683   3.433
  809SOL    HW1 2443   0.120   3.668   3.532
  809SOL    HW2 2444   0.044   3.719   3.397
  810SOL     OW 2445   0.865   2.210   2.057
  810SOL    HW1 2446   0.924   2.273   2.008
  810SOL    HW2 2447   0.884   2.116   2.028
  811SOL     OW 2448   1.719   2.447   3.693
  811SOL    HW1 2449   1.693   2.536   3.657
  811SOL    HW2 2450   1.717   2.379   3.620
  812SOL     OW 2451   1.362   3.006   2.407
  812SOL    HW1 2452   1.445   2.977   2.359
  812SOL    HW2 2453   1.313   3.073   2.351
  813SOL     OW 2454   0.550   2.058   2.747
  813SOL    HW1 2455   0.545   2.053   2.847
  813SOL    HW2 2456   0.552   2.154   2.718
  814SOL     OW 2457   1.008   3.318   2.339
  814SOL    HW1 2458   0.962   3.390   2.287
  814SOL    HW2 2459   1.004   3.338   2.437
  815SOL     OW 2460   0.351   3.663   2.715
  815SOL    HW1 2461   0.401   3.577   2.721
  815SOL    HW2 2462   0.416   3.740   2.712
  816SOL     OW 2463   1.795   2.928   2.735
  816SOL    HW1 2464   1.733   2.913   2.659
  816SOL    HW2 2465   1.743   2.939   2.820
  817SOL     OW 2466   1.227   3.412   3.368
  817SOL    HW1 2467   1.233   3.335   3.432
  817SOL    HW2 2468   1.175   3.386   3.288
  818SOL     OW 2469   0.321   2.805   2.104
  818SOL    HW1 2470   0.403   2.844   2.062
  818SOL    HW2 2471   0.294   2.723   2.055
  819SOL     OW 2472   1.458   2.597   2.590
  819SOL    HW1 2473   1.453   2.532   2.665
  819SOL    HW2 2474   1.538   2.656   2.603
  820SOL     OW 2475   0.461   3.128   3.589
  820SOL    HW1 2476   0.411   3.129   3.503
  820SOL    HW2 2477   0.398   3.110   3.665
  821SOL     OW 2478   1.111   3.638   2.099
  821SOL    HW1 2479   1.051   3.576   2.149
  821SOL    HW2 2480   1.142   3.594   2.014
  822SOL     OW 2481   0.202   2.147   3.360
  822SOL    HW1 2482   0.122   2.207   3.347
  822SOL    HW2 2483   0.192   2.098   3.446
  823SOL     OW 2484   1.632   3.239   1.943
  823SOL    HW1 2485   1.600   3.333   1.933
  823SOL    HW2 2486   1.556   3.176   1.931
  824SOL     OW 2487   0.464   3.605   2.185
  824SOL    HW1 2488   0.497   3.644   2.271
  824SOL    HW2 2489   0.540   3.598   2.120
  825SOL     OW 2490   1.400   1.969   2.288
  825SOL    HW1 2491   1.376   1.932   2.198
  825SOL    HW2 2492   1.499   1.985   2.292
  826SOL     OW 2493   0.249   3.647   3.103
  826SOL    HW1 2494   0.306   3.582   3.153
  826SOL    HW2 2495   0.233   3.614   3.010
  827SOL     OW 2496   0.940   3.560   2.766
  827SOL    HW1 2497   1.020   3.503   2.787
  827SOL    HW2 2498   0.891   3.520   2.689
  828SOL     OW 2499   0.382   2.562   2.342
  828SOL    HW1 2500   0.427   2.472   2.339
  828SOL    HW2 2501   0.288   2.551   2.375
  829SOL     OW 2502   1.547   2.084   3.591
  829SOL    HW1 2503   1.542   2.121   3.683
  829SOL    HW2 2504   1.475   2.015   3.579
  830SOL     OW 2505   0.614   1.984   1.979
  830SOL    HW1 2506   0.712   1.962   1.986
  830SOL    HW2 2507   0.583   1.967   1.886
  831SOL     OW 2508   0.781   2.126   3.611
  831SOL    HW1 2509   0.848   2.065   3.654
  831SOL    HW2 2510   0.708   2.145   3.676
  832SOL     OW 2511   0.888   3.376   3.057
  832SOL    HW1 2512   0.865   3.351   2.963
  832SOL    HW2 2513   0.949   3.307   3.096
  833SOL     OW 2514   1.351   2.452   3.295
  833SOL    HW1 2515   1.379   2.409   3.380
  833SOL    HW2 2516   1.376   2.548   3.296
  834SOL     OW 2517   0.803   3.264   2.786
  834SOL    HW1 2518   0.893   3.278   2.744
  834SOL    HW2 2519   0.732   3.266   2.715
  835SOL     OW 2520   0.922   2.365   2.761
  835SOL    HW1 2521   0.897   2.356   2.665
  835SOL    HW2 2522   0.970   2.283   2.792
  836SOL     OW 2523   0.539   1.926   2.374
  836SOL    HW1 2524   0.458   1.927   2.432
  836SOL    HW2 2525   0.542   2.009   2.319
  837SOL     OW 2526   1.434   3.050   1.903
  837SOL    HW1 2527   1.466   2.974   1.960
  837SOL    HW2 2528   1.342   3.077   1.933
  838SOL     OW 2529   0.297   1.897   2.033
  838SOL    HW1 2530   0.346   1.981   2.012
  838SOL    HW2 2531   0.359   1.832   2.078
  839SOL     OW 2532   0.935   2.098   2.342
  839SOL    HW1 2533   0.887   2.139   2.264
  839SOL    HW2 2534   1.034   2.096   2.323
  840SOL     OW 2535   1.076   2.545   3.326
  840SOL    HW1 2536   0.996   2.484   3.329
  840SOL    HW2 2537   1.157   2.492   3.302
  841SOL     OW 2538   1.227   3.432   2.655
  841SOL    HW1 2539   1.248   3.506   2.590
  841SOL    HW2 2540   1.295   3.432   2.728
  842SOL     OW 2541   0.459   3.014   2.603
  842SOL    HW1 2542   0.388   2.987   2.668
  842SOL    HW2 2543   0.433   2.986   2.510
  843SOL     OW 2544   1.271   3.659   2.453
  843SOL    HW1 2545   1.315   3.723   2.389
  843SOL    HW2 2546   1.221   3.711   2.523
  844SOL     OW 2547   1.032   2.411   1.878
  844SOL    HW1 2548   0.991   2.493   1.839
  844SOL    HW2 2549   1.096   2.437   1.951
  845SOL     OW 2550   0.078   2.418   3.248
  845SOL    HW1 2551   0.170   2.417   3.207
  845SOL    HW2 2552   0.072   2.492   3.315
  846SOL     OW 2553   0.561   2.084   3.009
  846SOL    HW1 2554   0.599   2.000   3.046
  846SOL    HW2 2555   0.473   2.103   3.053
  847SOL     OW 2556   0.866   2.316   2.504
  847SOL    HW1 2557   0.834   2.388   2.442
  847SOL    HW2 2558   0.890   2.235   2.451
  848SOL     OW 2559   1.017   1.901   2.615
  848SOL    HW1 2560   0.945   1.906   2.546
  848SOL    HW2 2561   0.993   1.832   2.684
  849SOL     OW 2562   1.429   3.035   2.729
  849SOL    HW1 2563   1.374   2.951   2.722
  849SOL    HW2 2564   1.455   3.064   2.637
  850SOL     OW 2565   1.466   2.452   2.854
  850SOL    HW1 2566   1.436   2.357   2.861
  850SOL    HW2 2567   1.539   2.468   2.920
  851SOL     OW 2568   1.857   2.695   2.239
  851SOL    HW1 2569   1.899   2.631   2.303
  851SOL    HW2 2570   1.819   2.644   2.161
  852SOL     OW 2571   0.488   3.247   2.036
  852SOL    HW1 2572   0.401   3.232   2.083
  852SOL    HW2 2573   0.471   3.273   1.941
  853SOL     OW 2574   1.664   3.142   2.519
  853SOL    HW1 2575   1.763   3.150   2.533
  853SOL    HW2 2576   1.619   3.226   2.550
  854SOL     OW 2577   1.390   2.437   1.940
  854SOL    HW1 2578   1.336   2.416   2.021
  854SOL    HW2 2579   1.481   2.396   1.949
  855SOL     OW 2580   0.527   2.118   2.190
  855SOL    HW1 2581   0.554   2.059   2.115
  855SOL    HW2 2582   0.527   2.213   2.159
  856SOL     OW 2583   1.754   3.085   3.450
  856SOL    HW1 2584   1.845   3.046   3.437
  856SOL    HW2 2585   1.762   3.181   3.474
  857SOL     OW 2586   1.064   3.209   3.202
  857SOL    HW1 2587   0.984   3.186   3.257
  857SOL    HW2 2588   1.147   3.183   3.251
  858SOL     OW 2589   1.592   3.491   3.487
  858SOL    HW1 2590   1.619   3.525   3.397
  858SOL    HW2 2591   1.671   3.453   3.533
  859SOL     OW 2592   1.111   3.057   2.962
  859SOL    HW1 2593   1.071   3.101   3.043
  859SOL    HW2 2594   1.070   3.094   2.879
  860SOL     OW 2595   1.638   2.961   2.941
  860SOL    HW1 2596   1.643   3.042   3.000
  860SOL    HW2 2597   1.552   2.963   2.890
  861SOL     OW 2598   0.915   1.951   3.264
  861SOL    HW1 2599   0.940   1.931   3.169
  861SOL    HW2 2600   0.987   2.007   3.306
  862SOL     OW 2601   0.980   2.978   3.581
  862SOL    HW1 2602   0.881   2.984   3.591
  862SOL    HW2 2603   1.003   2.898   3.525
  863SOL     OW 2604   0.705   2.912   2.230
  863SOL    HW1 2605   0.691   2.919   2.329
  863SOL    HW2 2606   0.789   2.861   2.212
  864SOL     OW 2607   0.410   2.675   3.113
  864SOL    HW1 2608   0.496   2.687   3.163
  864SOL    HW2 2609   0.368   2.588   3.140
  865SOL     OW 2610   1.274   2.248   3.124
  865SOL    HW1 2611   1.295   2.322   3.188
  865SOL    HW2 2612   1.185   2.265   3.081
  866SOL     OW 2613   0.064   3.426   3.193
  866SOL    HW1 2614   0.018   3.508   3.159
  866SOL    HW2 2615   0.162   3.445   3.202
  867SOL     OW 2616   0.367   2.962   2.363
  867SOL    HW1 2617   0.360   3.045   2.307
  867SOL    HW2 2618   0.371   2.882   2.303
  868SOL     OW 2619   0.566   2.399   2.727
  868SOL    HW1 2620   0.578   2.465   2.653
  868SOL    HW2 2621   0.612   2.433   2.810
  869SOL     OW 2622   1.252   3.210   2.250
  869SOL    HW1 2623   1.302   3.287   2.290
  869SOL    HW2 2624   1.157   3.212   2.282
  870SOL     OW 2625   1.272   3.307   3.004
  870SOL    HW1 2626   1.319   3.320   3.091
  870SOL    HW2 2627   1.206   3.233   3.013
  871SOL     OW 2628   1.582   2.501   2.334
  871SOL    HW1 2629   1.551   2.562   2.407
  871SOL    HW2 2630   1.632   2.553   2.265
  872SOL     OW 2631   0.354   3.372   3.191
  872SOL    HW1 2632   0.333   3.328   3.104
  872SOL    HW2 2633   0.451   3.398   3.194
  873SOL     OW 2634   0.402   2.613   3.460
  873SOL    HW1 2635   0.470   2.668   3.413
  873SOL    HW2 2636   0.442   2.525   3.487
  874SOL     OW 2637   1.587   2.641   3.532
  874SOL    HW1 2638   1.495   2.679   3.527
  874SOL    HW2 2639   1.647   2.688   3.467
  875SOL     OW 2640   1.013   1.967   3.632
  875SOL    HW1 2641   1.019   2.052   3.580
  875SOL    HW2 2642   1.045   1.891   3.575
  876SOL     OW 2643   0.504   1.912   3.602
  876SOL    HW1 2644   0.462   1.855   3.532
  876SOL    HW2 2645   0.438   1.981   3.634
  877SOL     OW 2646   0.573   2.732   2.891
  877SOL    HW1 2647   0.617   2.821   2.882
  877SOL    HW2 2648   0.510   2.732   2.968
  878SOL     OW 2649   1.360   2.724   2.907
  878SOL    HW1 2650   1.285   2.724   2.841
  878SOL    HW2 2651   1.397   2.632   2.916
  879SOL     OW 2652   1.209   2.387   2.137
  879SOL    HW1 2653   1.222   2.303   2.191
  879SOL    HW2 2654   1.180   2.461   2.197
  880SOL     OW 2655   0.307   2.075   3.093
  880SOL    HW1 2656   0.284   2.112   3.183
  880SOL    HW2 2657   0.277   1.980   3.087
  881SOL     OW 2658   0.037   3.172   3.144
  881SOL    HW1 2659   0.090   3.123   3.212
  881SOL    HW2 2660   0.059   3.270   3.149
  882SOL     OW 2661   0.732   2.496   2.926
  882SOL    HW1 2662   0.791   2.470   2.850
  882SOL    HW2 2663   0.704   2.592   2.915
  883SOL     OW 2664   1.728   2.797   3.716
  883SOL    HW1 2665   1.682   2.790   3.627
  883SOL    HW2 2666   1.666   2.841   3.782
  884SOL     OW 2667   0.307   1.925   2.480
  884SOL    HW1 2668   0.296   2.019   2.513
  884SOL    HW2 2669   0.302   1.862   2.557
  885SOL     OW 2670   1.622   2.229   2.236
  885SOL    HW1 2671   1.624   2.153   2.300
  885SOL    HW2 2672   1.574   2.306   2.276
  886SOL     OW 2673   1.023   2.628   2.828
  886SOL    HW1 2674   1.038   2.649   2.924
  886SOL    HW2 2675   0.993   2.533   2.819
  887SOL     OW 2676   0.980   3.435   3.562
  887SOL    HW1 2677   0.960   3.479   3.474
  887SOL    HW2 2678   1.019   3.344   3.546
  888SOL     OW 2679   1.859   3.380   3.467
  888SOL    HW1 2680   1.873   3.407   3.372
  888SOL    HW2 2681   1.942   3.402   3.520
  889SOL     OW 2682   0.350   2.760   3.666
  889SOL    HW1 2683   0.426   2.804   3.714
  889SOL    HW2 2684   0.385   2.713   3.584
  890SOL     OW 2685   1.540   2.136   1.987
  890SOL    HW1 2686   1.479   2.061   2.010
  890SOL    HW2 2687   1.562   2.188   2.070
  891SOL     OW 2688   1.303   2.700   1.904
  891SOL    HW1 2689   1.337   2.607   1.919
  891SOL    HW2 2690   1.321   2.727   1.809
  892SOL     OW 2691   1.068   3.195   2.711
  892SOL    HW1 2692   1.075   3.111   2.656
  892SOL    HW2 2693   1.130   3.264   2.675
  893SOL     OW 2694   0.319   2.672   2.811
  893SOL    HW1 2695   0.412   2.708   2.816
  893SOL    HW2 2696   0.313   2.587   2.863
  894SOL     OW 2697   0.339   2.371   2.868
  894SOL    HW1 2698   0.287   2.288   2.851
  894SOL    HW2 2699   0.416   2.376   2.804
  895SOL     OW 2700   1.138   2.242   3.540
  895SOL    HW1 2701   1.093   2.305   3.604
  895SOL    HW2 2702   1.231   2.273   3.523
  896SOL     OW 2703   1.160   2.069   3.339
  896SOL    HW1 2704   1.160   2.133   3.416
  896SOL    HW2 2705   1.188   2.117   3.256
  897SOL     OW 2706   0.008   3.188   2.062
  897SOL    HW1 2707  -0.085   3.209   2.031
  897SOL    HW2 2708   0.018   3.089   2.075
  898SOL     OW 2709   0.088   3.663   2.789
  898SOL    HW1 2710   0.046   3.577   2.762
  898SOL    HW2 2711   0.182   3.666   2.755
  899SOL     OW 2712   0.504   3.430   2.772
  899SOL    HW1 2713   0.570   3.504   2.781
  899SOL    HW2 2714   0.548   3.351   2.730
  900SOL     OW 2715   1.002   2.658   3.100
  900SOL    HW1 2716   1.043   2.626   3.186
  900SOL    HW2 2717   0.906   2.631   3.097
  901SOL     OW 2718   0.040   2.406   2.976
  901SOL    HW1 2719   0.125   2.373   2.935
  901SOL    HW2 2720   0.053   2.421   3.074
  902SOL     OW 2721   0.189   2.382   3.584
  902SOL    HW1 2722   0.248   2.342   3.514
  902SOL    HW2 2723   0.131   2.453   3.543
  903SOL     OW 2724   1.369   2.812   3.522
  903SOL    HW1 2725   1.408   2.901   3.542
  903SOL    HW2 2726   1.379   2.792   3.425
  904SOL     OW 2727   0.815   2.434   2.187
  904SOL    HW1 2728   0.822   2.345   2.141
  904SOL    HW2 2729   0.721   2.468   2.179
  905SOL     OW 2730   1.657   2.466   3.068
  905SOL    HW1 2731   1.619   2.397   3.130
  905SOL    HW2 2732   1.739   2.430   3.024
  906SOL     OW 2733   0.252   3.426   3.606
  906SOL    HW1 2734   0.222   3.483   3.682
  906SOL    HW2 2735   0.245   3.329   3.632
  907SOL     OW 2736   0.671   2.326   3.131
  907SOL    HW1 2737   0.637   2.237   3.101
  907SOL    HW2 2738   0.697   2.380   3.051
  908SOL     OW 2739   0.930   3.540   3.327
  908SOL    HW1 2740   0.906   3.522   3.232
  908SOL    HW2 2741   0.960   3.634   3.337
  909SOL     OW 2742   0.473   2.362   2.053
  909SOL    HW1 2743   0.534   2.442   2.057
  909SOL    HW2 2744   0.378   2.393   2.060
  910SOL     OW 2745   0.159   2.999   3.328
  910SOL    HW1 2746   0.181   2.938   3.404
  910SOL    HW2 2747   0.169   2.950   3.242
  911SOL     OW 2748   1.347   2.921   3.096
  911SOL    HW1 2749   1.371   2.858   3.022
  911SOL    HW2 2750   1.257   2.961   3.078
  912SOL     OW 2751   1.302   2.717   2.171
  912SOL    HW1 2752   1.216   2.686   2.213
  912SOL    HW2 2753   1.298   2.703   2.072
  913SOL     OW 2754   1.759   3.609   3.016
  913SOL    HW1 2755   1.820   3.639   2.943
  913SOL    HW2 2756   1.721   3.520   2.994
  914SOL     OW 2757   1.252   3.593   2.990
  914SOL    HW1 2758   1.336   3.598   2.936
  914SOL    HW2 2759   1.229   3.497   3.008
  915SOL     OW 2760   0.083   3.120   2.884
  915SOL    HW1 2761   0.078   3.119   2.984
  915SOL    HW2 2762   0.000   3.079   2.846
  916SOL     OW 2763   0.688   3.524   3.578
  916SOL    HW1 2764   0.632   3.605   3.587
  916SOL    HW2 2765   0.740   3.528   3.492
  917SOL     OW 2766   1.726   1.997   2.385
  917SOL    HW1 2767   1.799   1.980   2.318
  917SOL    HW2 2768   1.695   1.910   2.423
  918SOL     OW 2769   1.388   3.435   2.339
  918SOL    HW1 2770   1.455   3.447   2.265
  918SOL    HW2 2771   1.348   3.524   2.362
  919SOL     OW 2772   0.130   3.656   3.713
  919SOL    HW1 2773   0.089   3.582   3.766
  919SOL    HW2 2774   0.194   3.707   3.771
  920SOL     OW 2775   1.280   2.789   2.534
  920SOL    HW1 2776   1.340   2.708   2.536
  920SOL    HW2 2777   1.320   2.858   2.474
  921SOL     OW 2778   0.830   3.135   3.284
  921SOL    HW1 2779   0.825   3.168   3.379
  921SOL    HW2 2780   0.744   3.154   3.238
  922SOL     OW 2781   0.672   3.478   2.016
  922SOL    HW1 2782   0.681   3.488   1.917
  922SOL    HW2 2783   0.632   3.389   2.037
  923SOL     OW 2784   1.650   3.582   3.256
  923SOL    HW1 2785   1.703   3.592   3.172
  923SOL    HW2 2786   1.623   3.672   3.290
  924SOL     OW 2787   1.841   2.037   2.825
  924SOL    HW1 2788   1.880   1.952   2.789
  924SOL    HW2 2789   1.743   2.039   2.806
  925SOL     OW 2790   0.263   2.188   2.582
  925SOL    HW1 2791   0.184   2.239   2.548
  925SOL    HW2 2792   0.254   2.173   2.680
  926SOL     OW 2793   1.194   3.474   1.893
  926SOL    HW1 2794   1.200   3.381   1.930
  926SOL    HW2 2795   1.135   3.474   1.813
  927SOL     OW 2796   0.822   2.864   3.234
  927SOL    HW1 2797   0.862   2.863   3.142
  927SOL    HW2 2798   0.832   2.956   3.274
  928SOL     OW 2799   0.916   2.772   2.153
  928SOL    HW1 2800   0.979   2.810   2.085
  928SOL    HW2 2801   0.956   2.689   2.192
  929SOL     OW 2802   1.504   3.469   1.906
  929SOL    HW1 2803   1.412   3.506   1.913
  929SOL    HW2 2804   1.542   3.489   1.816
  930SOL     OW 2805   0.372   3.150   3.352
  930SOL    HW1 2806   0.359   3.243   3.318
  930SOL    HW2 2807   0.288   3.098   3.339
  931SOL     OW 2808   1.614   3.154   3.151
  931SOL    HW1 2809   1.674   3.157   3.231
  931SOL    HW2 2810   1.539   3.218   3.164
  932SOL     OW 2811   1.039   2.960   2.558
  932SOL    HW1 2812   0.969   2.913   2.612
  932SOL    HW2 2813   1.098   2.892   2.515
  933SOL     OW 2814   1.014   2.098   2.833
  933SOL    HW1 2815   1.006   2.062   2.740
  933SOL    HW2 2816   1.012   2.022   2.898
  934SOL     OW 2817   0.590   3.349   2.353
  934SOL    HW1 2818   0.632   3.291   2.283
  934SOL    HW2 2819   0.546   3.428   2.309
  935SOL     OW 2820   1.709   2.247   3.243
  935SOL    HW1 2821   1.782   2.316   3.247
  935SOL    HW2 2822   1.737   2.172   3.184
  936SOL     OW 2823   0.255   3.210   2.152
  936SOL    HW1 2824   0.159   3.211   2.125
  936SOL    HW2 2825   0.267   3.263   2.236
  937SOL     OW 2826   0.105   2.875   3.588
  937SOL    HW1 2827   0.028   2.842   3.642
  937SOL    HW2 2828   0.190   2.845   3.630
  938SOL     OW 2829   0.672   2.065   3.351
  938SOL    HW1 2830   0.762   2.049   3.311
  938SOL    HW2 2831   0.680   2.070   3.450
  939SOL     OW 2832   0.075   2.207   1.895
  939SOL    HW1 2833  -0.017   2.179   1.866
  939SOL    HW2 2834   0.106   2.284   1.839
  940SOL     OW 2835   1.440   2.718   3.260
  940SOL    HW1 2836   1.383   2.770   3.197
  940SOL    HW2 2837   1.536   2.730   3.236
  941SOL     OW 2838   0.072   2.028   2.180
  941SOL    HW1 2839   0.055   2.111   2.126
  941SOL    HW2 2840   0.162   1.991   2.158
  942SOL     OW 2841   1.183   3.197   1.981
  942SOL    HW1 2842   1.084   3.186   1.983
  942SOL    HW2 2843   1.217   3.212   2.074
  943SOL     OW 2844   0.613   2.704   3.293
  943SOL    HW1 2845   0.669   2.785   3.276
  943SOL    HW2 2846   0.672   2.624   3.296
  944SOL     OW 2847   1.493   3.629   2.821
  944SOL    HW1 2848   1.526   3.693   2.752
  944SOL    HW2 2849   1.559   3.623   2.896
  945SOL     OW 2850   0.716   2.427   3.570
  945SOL    HW1 2851   0.735   2.492   3.644
  945SOL    HW2 2852   0.776   2.347   3.579
  946SOL     OW 2853   1.450   3.082   3.495
  946SOL    HW1 2854   1.441   3.072   3.594
  946SOL    HW2 2855   1.546   3.075   3.469
  947SOL     OW 2856   0.390   3.603   3.422
  947SOL    HW1 2857   0.299   3.644   3.420
  947SOL    HW2 2858   0.383   3.509   3.454
  948SOL     OW 2859   1.674   2.745   3.116
  948SOL    HW1 2860   1.647   2.656   3.079
  948SOL    HW2 2861   1.675   2.813   3.043
  949SOL     OW 2862   1.225   2.187   2.311
  949SOL    HW1 2863   1.290   2.113   2.300
  949SOL    HW2 2864   1.245   2.237   2.395
  950SOL     OW 2865   0.594   2.607   2.514
  950SOL    HW1 2866   0.644   2.692   2.495
  950SOL    HW2 2867   0.506   2.609   2.466
  951SOL     OW 2868   1.777   2.204   3.504
  951SOL    HW1 2869   1.760   2.235   3.410
  951SOL    HW2 2870   1.693   2.167   3.542
  952SOL     OW 2871   1.730   2.796   3.379
  952SOL    HW1 2872   1.768   2.887   3.394
  952SOL    HW2 2873   1.722   2.779   3.280
  953SOL     OW 2874   0.859   3.236   1.878
  953SOL    HW1 2875   0.813   3.251   1.966
  953SOL    HW2 2876   0.903   3.321   1.848
  954SOL     OW 2877   0.661   3.652   2.815
  954SOL    HW1 2878   0.615   3.740   2.802
  954SOL    HW2 2879   0.760   3.664   2.808
  955SOL     OW 2880   0.859   2.818   2.723
  955SOL    HW1 2881   0.913   2.749   2.771
  955SOL    HW2 2882   0.827   2.887   2.789
  956SOL     OW 2883   1.083   2.846   1.949
  956SOL    HW1 2884   1.060   2.899   1.867
  956SOL    HW2 2885   1.164   2.790   1.930
  957SOL     OW 2886   1.861   3.431   2.713
  957SOL    HW1 2887   1.790   3.419   2.643
  957SOL    HW2 2888   1.862   3.352   2.773
  958SOL     OW 2889   0.221   3.176   3.706
  958SOL    HW1 2890   0.156   3.103   3.685
  958SOL    HW2 2891   0.225   3.190   3.804
  959SOL     OW 2892   0.079   3.102   2.515
  959SOL    HW1 2893   0.078   3.055   2.603
  959SOL    HW2 2894   0.161   3.074   2.464
  960SOL     OW 2895   0.672   3.253   3.486
  960SOL    HW1 2896   0.594   3.203   3.524
  960SOL    HW2 2897   0.669   3.348   3.517
  961SOL     OW 2898   1.824   2.054   3.089
  961SOL    HW1 2899   1.820   1.964   3.133
  961SOL    HW2 2900   1.827   2.043   2.990
  962SOL     OW 2901   0.428   2.286   2.382
  962SOL    HW1 2902   0.458   2.214   2.320
  962SOL    HW2 2903   0.389   2.246   2.465
  963SOL     OW 2904   1.705   3.349   2.966
  963SOL    HW1 2905   1.612   3.324   2.939
  963SOL    HW2 2906   1.731   3.299   3.048
  964SOL     OW 2907   0.317   2.409   3.142
  964SOL    HW1 2908   0.355   2.350   3.214
  964SOL    HW2 2909   0.357   2.383   3.054
  965SOL     OW 2910   0.812   3.448   2.549
  965SOL    HW1 2911   0.844   3.458   2.455
  965SOL    HW2 2912   0.733   3.386   2.551
  966SOL     OW 2913   1.424   2.076   2.974
  966SOL    HW1 2914   1.476   2.011   3.029
  966SOL    HW2 2915   1.375   2.139   3.035
  967SOL     OW 2916   1.001   1.896   3.016
  967SOL    HW1 2917   0.938   1.824   2.985
  967SOL    HW2 2918   1.094   1.860   3.016
  968SOL     OW 2919   0.770   3.192   2.163
  968SOL    HW1 2920   0.724   3.105   2.180
  968SOL    HW2 2921   0.861   3.189   2.204
  969SOL     OW 2922   0.618   3.429   3.146
  969SOL    HW1 2923   0.613   3.511   3.203
  969SOL    HW2 2924   0.707   3.426   3.101
  970SOL     OW 2925   1.352   1.914   2.030
  970SOL    HW1 2926   1.387   1.873   1.946
  970SOL    HW2 2927   1.262   1.876   2.050
  971SOL     OW 2928   1.300   2.315   2.553
  971SOL    HW1 2929   1.241   2.395   2.557
  971SOL    HW2 2930   1.315   2.280   2.646
  972SOL     OW 2931   1.593   2.083   2.744
  972SOL    HW1 2932   1.509   2.082   2.798
  972SOL    HW2 2933   1.595   2.166   2.688
  973SOL     OW 2934   0.039   2.939   2.162
  973SOL    HW1 2935   0.138   2.928   2.153
  973SOL    HW2 2936  -0.001   2.853   2.194
  974SOL     OW 2937   0.875   3.508   2.199
  974SOL    HW1 2938   0.798   3.473   2.145
  974SOL    HW2 2939   0.843   3.579   2.261
  975SOL     OW 2940   0.230   2.490   3.837
  975SOL    HW1 2941   0.137   2.488   3.874
  975SOL    HW2 2942   0.231   2.451   3.745
  976SOL     OW 2943   0.225   2.137   4.720
  976SOL    HW1 2944   0.260   2.120   4.812
  976SOL    HW2 2945   0.137   2.092   4.708
  977SOL     OW 2946   0.019   2.230   4.371
  977SOL    HW1 2947  -0.063   2.273   4.410
  977SOL    HW2 2948  -0.009   2.157   4.308
  978SOL     OW 2949   1.555   3.373   4.427
  978SOL    HW1 2950   1.498   3.357   4.508
  978SOL    HW2 2951   1.496   3.383   4.347
  979SOL     OW 2952   1.135   2.565   4.441
  979SOL    HW1 2953   1.192   2.643   4.416
  979SOL    HW2 2954   1.075   2.591   4.517
  980SOL     OW 2955   1.755   2.469   3.955
  980SOL    HW1 2956   1.743   2.456   3.856
  980SOL    HW2 2957   1.725   2.388   4.004
  981SOL     OW 2958   0.768   3.006   4.747
  981SOL    HW1 2959   0.690   3.023   4.807
  981SOL    HW2 2960   0.802   3.093   4.711
  982SOL     OW 2961   0.685   2.874   4.389
  982SOL    HW1 2962   0.754   2.858   4.459
  982SOL    HW2 2963   0.612   2.931   4.427
  983SOL     OW 2964   0.335   3.297   4.785
  983SOL    HW1 2965   0.257   3.266   4.732
  983SOL    HW2 2966   0.393   3.355   4.728
  984SOL     OW 2967   1.603   2.309   4.461
  984SOL    HW1 2968   1.529   2.355   4.411
  984SOL    HW2 2969   1.654   2.377   4.514
  985SOL     OW 2970   0.231   3.575   4.207
  985SOL    HW1 2971   0.265   3.652   4.261
  985SOL    HW2 2972   0.275   3.575   4.117
  986SOL     OW 2973   0.230   3.296   4.262
  986SOL    HW1 2974   0.204   3.392   4.262
  986SOL    HW2 2975   0.159   3.242   4.307
  987SOL     OW 2976   0.240   2.953   4.610
  987SOL    HW1 2977   0.254   2.869   4.662
  987SOL    HW2 2978   0.185   3.017   4.665
  988SOL     OW 2979   0.606   2.826   3.847
  988SOL    HW1 2980   0.613   2.910   3.793
  988SOL    HW2 2981   0.652   2.839   3.935
  989SOL     OW 2982   0.122   2.505   4.287
  989SOL    HW1 2983   0.077   2.417   4.304
  989SOL    HW2 2984   0.121   2.559   4.371
  990SOL     OW 2985   1.842   3.629   4.083
  990SOL    HW1 2986   1.896   3.600   4.163
  990SOL    HW2 2987   1.872   3.719   4.054
  991SOL     OW 2988   0.027   3.458   3.841
  991SOL    HW1 2989   0.008   3.362   3.862
  991SOL    HW2 2990  -0.006   3.516   3.916
  992SOL     OW 2991   1.689   2.784   4.336
  992SOL    HW1 2992   1.784   2.755   4.344
  992SOL    HW2 2993   1.681   2.849   4.261
  993SOL     OW 2994   1.641   2.970   4.156
  993SOL    HW1 2995   1.727   2.972   4.104
  993SOL    HW2 2996   1.655   3.017   4.244
  994SOL     OW 2997   0.613   3.227   4.450
  994SOL    HW1 2998   0.564   3.140   4.459
  994SOL    HW2 2999   0.590   3.270   4.363
  995SOL     OW 3000   0.809   1.866   4.226
  995SOL    HW1 3001   0.849   1.957   4.217
  995SOL    HW2 3002   0.709   1.874   4.232
  996SOL     OW 3003   1.525   2.861   3.914
  996SOL    HW1 3004   1.462   2.785   3.927
  996SOL    HW2 3005   1.573   2.879   4.000
  997SOL     OW 3006   1.466   3.279   4.677
  997SOL    HW1 3007   1.407   3.285   4.757
  997SOL    HW2 3008   1.451   3.191   4.631
  998SOL     OW 3009   1.667   3.576   4.296
  998SOL    HW1 3010   1.626   3.553   4.208
  998SOL    HW2 3011   1.649   3.502   4.361
  999SOL     OW 3012   0.598   2.591   3.994
  999SOL    HW1 3013   0.622   2.660   3.926
  999SOL    HW2 3014   0.520   2.624   4.048
 1000SOL     OW 3015   1.281   2.207   4.668
 1000SOL    HW1 3016   1.195   2.157   4.655
 1000SOL    HW2 3017   1.343   2.153   4.724
 1001SOL     OW 3018   1.576   3.524   4.031
 1001SOL    HW1 3019   1.665   3.570   4.034
 1001SOL    HW2 3020   1.555   3.500   3.936
 1002SOL     OW 3021   1.041   2.563   4.153
 1002SOL    HW1 3022   1.067   2.559   4.249
 1002SOL    HW2 3023   0.956   2.512   4.139
 1003SOL     OW 3024   0.076   2.673   4.513
 1003SOL    HW1 3025   0.175   2.661   4.522
 1003SOL    HW2 3026   0.052   2.768   4.534
 1004SOL     OW 3027   0.865   2.210   3.919
 1004SOL    HW1 3028   0.924   2.273   3.870
 1004SOL    HW2 3029   0.884   2.116   3.890
 1005SOL     OW 3030   1.362   3.006   4.269
 1005SOL    HW1 3031   1.445   2.977   4.221
 1005SOL    HW2 3032   1.313   3.073   4.213
 1006SOL     OW 3033   0.550   2.058   4.609
 1006SOL    HW1 3034   0.545   2.053   4.709
 1006SOL    HW2 3035   0.552   2.154   4.580
 1007SOL     OW 3036   1.008   3.318   4.201
 1007SOL    HW1 3037   0.962   3.390   4.149
 1007SOL    HW2 3038   1.004   3.338   4.299
 1008SOL     OW 3039   0.351   3.663   4.577
 1008SOL    HW1 3040   0.401   3.577   4.583
 1008SOL    HW2 3041   0.416   3.740   4.574
 1009SOL     OW 3042   1.795   2.928   4.597
 1009SOL    HW1 3043   1.733   2.913   4.521
 1009SOL    HW2 3044   1.743   2.939   4.682
 1010SOL     OW 3045   0.321   2.805   3.966
 1010SOL    HW1 3046   0.403   2.844   3.924
 1010SOL    HW2 3047   0.294   2.723   3.917
 1011SOL     OW 3048   1.458   2.597   4.452
 1011SOL    HW1 3049   1.453   2.532   4.527
 1011SOL    HW2 3050   1.538   2.656   4.465
 1012SOL     OW 3051   1.111   3.638   3.961
 1012SOL    HW1 3052   1.051   3.576   4.011
 1012SOL    HW2 3053   1.142   3.594   3.876
 1013SOL     OW 3054   1.632   3.239   3.805
 1013SOL    HW1 3055   1.600   3.333   3.795
 1013SOL    HW2 3056   1.556   3.176   3.793
 1014SOL     OW 3057   0.464   3.605   4.047
 1014SOL    HW1 3058   0.497   3.644   4.133
 1014SOL    HW2 3059   0.540   3.598   3.982
 1015SOL     OW 3060   1.400   1.969   4.150
 1015SOL    HW1 3061   1.376   1.932   4.060
 1015SOL    HW2 3062   1.499   1.985   4.154
 1016SOL     OW 3063   0.249   3.647   4.965
 1016SOL    HW1 3064   0.306   3.582   5.015
 1016SOL    HW2 3065   0.233   3.614   4.872
 1017SOL     OW 3066   0.940   3.560   4.628
 1017SOL    HW1 3067   1.020   3.503   4.649
 1017SOL    HW2 3068   0.891   3.520   4.551
 1018SOL     OW 3069   0.382   2.562   4.204
 1018SOL    HW1 3070   0.427   2.472   4.201
 1018SOL    HW2 3071   0.288   2.551   4.237
 1019SOL     OW 3072   0.614   1.984   3.841
 1019SOL    HW1 3073   0.712   1.962   3.848
 1019SOL    HW2 3074   0.583   1.967   3.748
 1020SOL     OW 3075   0.803   3.264   4.648
 1020SOL    HW1 3076   0.893   3.278   4.606
 1020SOL    HW2 3077   0.732   3.266   4.577
 1021SOL     OW 3078   0.922   2.365   4.623
 1021SOL    HW1 3079   0.897   2.356   4.527
 1021SOL    HW2 3080   0.970   2.283   4.654
 1022SOL     OW 3081   0.539   1.926   4.236
 1022SOL    HW1 3082   0.458   1.927   4.294
 1022SOL    HW2 3083   0.542   2.009   4.181
 1023SOL     OW 3084   1.434   3.050   3.765
 1023SOL    HW1 3085   1.466   2.974   3.822
 1023SOL    HW2 3086   1.342   3.077   3.795
 1024SOL     OW 3087   0.297   1.897   3.895
 1024SOL    HW1 3088   0.346   1.981   3.874
 1024SOL    HW2 3089   0.359   1.832   3.940
 1025SOL     OW 3090   0.935   2.098   4.204
 1025SOL    HW1 3091   0.887   2.139   4.126
 1025SOL    HW2 3092   1.034   2.096   4.185
 1026SOL     OW 3093   1.227   3.432   4.517
 1026SOL    HW1 3094   1.248   3.506   4.452
 1026SOL    HW2 3095   1.295   3.432   4.590
 1027SOL     OW 3096   0.459   3.014   4.465
 1027SOL    HW1 3097   0.388   2.987   4.530
 1027SOL    HW2 3098   0.433   2.986   4.372
 1028SOL     OW 3099   1.271   3.659   4.315
 1028SOL    HW1 3100   1.315   3.723   4.251
 1028SOL    HW2 3101   1.221   3.711   4.385
 1029SOL     OW 3102   1.032   2.411   3.740
 1029SOL    HW1 3103   0.991   2.493   3.701
 1029SOL    HW2 3104   1.096   2.437   3.813
 1030SOL     OW 3105   0.866   2.316   4.366
 1030SOL    HW1 3106   0.834   2.388   4.304
 1030SOL    HW2 3107   0.890   2.235   4.313
 1031SOL     OW 3108   1.017   1.901   4.477
 1031SOL    HW1 3109   0.945   1.906   4.408
 1031SOL    HW2 3110   0.993   1.832   4.546
 1032SOL     OW 3111   1.429   3.035   4.591
 1032SOL    HW1 3112   1.374   2.951   4.584
 1032SOL    HW2 3113   1.455   3.064   4.499
 1033SOL     OW 3114   1.466   2.452   4.716
 1033SOL    HW1 3115   1.436   2.357   4.723
 1033SOL    HW2 3116   1.539   2.468   4.782
 1034SOL     OW 3117   1.857   2.695   4.101
 1034SOL    HW1 3118   1.899   2.631   4.165
 1034SOL    HW2 3119   1.819   2.644   4.023
 1035SOL     OW 3120   0.488   3.247   3.898
 1035SOL    HW1 3121   0.401   3.232   3.945
 1035SOL    HW2 3122   0.471   3.273   3.803
 1036SOL     OW 3123   1.664   3.142   4.381
 1036SOL    HW1 3124   1.763   3.150   4.395
 1036SOL    HW2 3125   1.619   3.226   4.412
 1037SOL     OW 3126   1.390   2.437   3.802
 1037SOL    HW1 3127   1.336   2.416   3.883
 1037SOL    HW2 3128   1.481   2.396   3.811
 1038SOL     OW 3129   0.527   2.118   4.052
 1038SOL    HW1 3130   0.554   2.059   3.977
 1038SOL    HW2 3131   0.527   2.213   4.021
 1039SOL     OW 3132   1.638   2.961   4.803
 1039SOL    HW1 3133   1.643   3.042   4.862
 1039SOL    HW2 3134   1.552   2.963   4.752
 1040SOL     OW 3135   0.705   2.912   4.092
 1040SOL    HW1 3136   0.691   2.919   4.191
 1040SOL    HW2 3137   0.789   2.861   4.074
 1041SOL     OW 3138   0.367   2.962   4.225
 1041SOL    HW1 3139   0.360   3.045   4.169
 1041SOL    HW2 3140   0.371   2.882   4.165
 1042SOL     OW 3141   0.566   2.399   4.589
 1042SOL    HW1 3142   0.578   2.465   4.515
 1042SOL    HW2 3143   0.612   2.433   4.672
 1043SOL     OW 3144   1.252   3.210   4.112
 1043SOL    HW1 3145   1.302   3.287   4.152
 1043SOL    HW2 3146   1.157   3.212   4.144
 1044SOL     OW 3147   1.582   2.501   4.196
 1044SOL    HW1 3148   1.551   2.562   4.269
 1044SOL    HW2 3149   1.632   2.553   4.127
 1045SOL     OW 3150   0.573   2.732   4.753
 1045SOL    HW1 3151   0.617   2.821   4.744
 1045SOL    HW2 3152   0.510   2.732   4.830
 1046SOL     OW 3153   1.209   2.387   3.999
 1046SOL    HW1 3154   1.222   2.303   4.053
 1046SOL    HW2 3155   1.180   2.461   4.059
 1047SOL     OW 3156   0.307   2.075   4.955
 1047SOL    HW1 3157   0.284   2.112   5.045
 1047SOL    HW2 3158   0.277   1.980   4.949
 1048SOL     OW 3159   0.732   2.496   4.788
 1048SOL    HW1 3160   0.791   2.470   4.712
 1048SOL    HW2 3161   0.704   2.592   4.777
 1049SOL     OW 3162   0.307   1.925   4.342
 1049SOL    HW1 3163   0.296   2.019   4.375
 1049SOL    HW2 3164   0.302   1.862   4.419
 1050SOL     OW 3165   1.622   2.229   4.098
 1050SOL    HW1 3166   1.624   2.153   4.162
 1050SOL    HW2 3167   1.574   2.306   4.138
 1051SOL     OW 3168   1.540   2.136   3.849
 1051SOL    HW1 3169   1.479   2.061   3.872
 1051SOL    HW2 3170   1.562   2.188   3.932
 1052SOL     OW 3171   1.303   2.700   3.766
 1052SOL    HW1 3172   1.337   2.607   3.781
 1052SOL    HW2 3173   1.321   2.727   3.671
 1053SOL     OW 3174   1.068   3.195   4.573
 1053SOL    HW1 3175   1.075   3.111   4.518
 1053SOL    HW2 3176   1.130   3.264   4.537
 1054SOL     OW 3177   0.319   2.672   4.673
 1054SOL    HW1 3178   0.412   2.708   4.678
 1054SOL    HW2 3179   0.313   2.587   4.725
 1055SOL     OW 3180   0.339   2.371   4.730
 1055SOL    HW1 3181   0.287   2.288   4.713
 1055SOL    HW2 3182   0.416   2.376   4.666
 1056SOL     OW 3183   0.008   3.188   3.924
 1056SOL    HW1 3184  -0.085   3.209   3.893
 1056SOL    HW2 3185   0.018   3.089   3.937
 1057SOL     OW 3186   0.088   3.663   4.651
 1057SOL    HW1 3187   0.046   3.577   4.624
 1057SOL    HW2 3188   0.182   3.666   4.617
 1058SOL     OW 3189   0.504   3.430   4.634
 1058SOL    HW1 3190   0.570   3.504   4.643
 1058SOL    HW2 3191   0.548   3.351   4.592
 1059SOL     OW 3192   1.002   2.658   4.962
 1059SOL    HW1 3193   1.043   2.626   5.048
 1059SOL    HW2 3194   0.906   2.631   4.959
 1060SOL     OW 3195   0.815   2.434   4.049
 1060SOL    HW1 3196   0.822   2.345   4.003
 1060SOL    HW2 3197   0.721   2.468   4.041
 1061SOL     OW 3198   0.671   2.326   4.993
 1061SOL    HW1 3199   0.637   2.237   4.963
 1061SOL    HW2 3200   0.697   2.380   4.913
 1062SOL     OW 3201   0.473   2.362   3.915
 1062SOL    HW1 3202   0.534   2.442   3.919
 1062SOL    HW2 3203   0.378   2.393   3.922
 1063SOL     OW 3204   1.302   2.717   4.033
 1063SOL    HW1 3205   1.216   2.686   4.075
 1063SOL    HW2 3206   1.298   2.703   3.934
 1064SOL     OW 3207   1.759   3.609   4.878
 1064SOL    HW1 3208   1.820   3.639   4.805
 1064SOL    HW2 3209   1.721   3.520   4.856
 1065SOL     OW 3210   0.083   3.120   4.746
 1065SOL    HW1 3211   0.078   3.119   4.846
 1065SOL    HW2 3212   0.000   3.079   4.708
 1066SOL     OW 3213   1.726   1.997   4.247
 1066SOL    HW1 3214   1.799   1.980   4.180
 1066SOL    HW2 3215   1.695   1.910   4.285
 1067SOL     OW 3216   1.388   3.435   4.201
 1067SOL    HW1 3217   1.455   3.447   4.127
 1067SOL    HW2 3218   1.348   3.524   4.224
 1068SOL     OW 3219   1.280   2.789   4.396
 1068SOL    HW1 3220   1.340   2.708   4.398
 1068SOL    HW2 3221   1.320   2.858   4.336
 1069SOL     OW 3222   0.672   3.478   3.878
 1069SOL    HW1 3223   0.681   3.488   3.779
 1069SOL    HW2 3224   0.632   3.389   3.899
 1070SOL     OW 3225   1.841   2.037   4.687
 1070SOL    HW1 3226   1.880   1.952   4.651
 1070SOL    HW2 3227   1.743   2.039   4.668
 1071SOL     OW 3228   0.263   2.188   4.444
 1071SOL    HW1 3229   0.184   2.239   4.410
 1071SOL    HW2 3230   0.254   2.173   4.542
 1072SOL     OW 3231   1.194   3.474   3.755
 1072SOL    HW1 3232   1.200   3.381   3.792
 1072SOL    HW2 3233   1.135   3.474   3.675
 1073SOL     OW 3234   0.916   2.772   4.015
 1073SOL    HW1 3235   0.979   2.810   3.947
 1073SOL    HW2 3236   0.956   2.689   4.054
 1074SOL     OW 3237   1.504   3.469   3.768
 1074SOL    HW1 3238   1.412   3.506   3.775
 1074SOL    HW2 3239   1.542   3.489   3.678
 1075SOL     OW 3240   1.039   2.960   4.420
 1075SOL    HW1 3241   0.969   2.913   4.474
 1075SOL    HW2 3242   1.098   2.892   4.377
 1076SOL     OW 3243   1.014   2.098   4.695
 1076SOL    HW1 3244   1.006   2.062   4.602
 1076SOL    HW2 3245   1.012   2.022   4.760
 1077SOL     OW 3246   0.590   3.349   4.215
 1077SOL    HW1 3247   0.632   3.291   4.145
 1077SOL    HW2 3248   0.546   3.428   4.171
 1078SOL     OW 3249   0.255   3.210   4.014
 1078SOL    HW1 3250   0.159   3.211   3.987
 1078SOL    HW2 3251   0.267   3.263   4.098
 1079SOL     OW 3252   0.075   2.207   3.757
 1079SOL    HW1 3253  -0.017   2.179   3.728
 1079SOL    HW2 3254   0.106   2.284   3.701
 1080SOL     OW 3255   0.072   2.028   4.042
 1080SOL    HW1 3256   0.055   2.111   3.988
 1080SOL    HW2 3257   0.162   1.991   4.020
 1081SOL     OW 3258   1.183   3.197   3.843
 1081SOL    HW1 3259   1.084   3.186   3.845
 1081SOL    HW2 3260   1.217   3.212   3.936
 1082SOL     OW 3261   1.674   2.745   4.978
 1082SOL    HW1 3262   1.647   2.656   4.941
 1082SOL    HW2 3263   1.675   2.813   4.905
 1083SOL     OW 3264   1.225   2.187   4.173
 1083SOL    HW1 3265   1.290   2.113   4.162
 1083SOL    HW2 3266   1.245   2.237   4.257
 1084SOL     OW 3267   0.594   2.607   4.376
 1084SOL    HW1 3268   0.644   2.692   4.357
 1084SOL    HW2 3269   0.506   2.609   4.328
 1085SOL     OW 3270   0.859   3.236   3.740
 1085SOL    HW1 3271   0.813   3.251   3.828
 1085SOL    HW2 3272   0.903   3.321   3.710
 1086SOL     OW 3273   0.661   3.652   4.677
 1086SOL    HW1 3274   0.615   3.740   4.664
 1086SOL    HW2 3275   0.760   3.664   4.670
 1087SOL     OW 3276   0.859   2.818   4.585
 1087SOL    HW1 3277   0.913   2.749   4.633
 1087SOL    HW2 3278   0.827   2.887   4.651
 1088SOL     OW 3279   1.083   2.846   3.811
 1088SOL    HW1 3280   1.060   2.899   3.729
 1088SOL    HW2 3281   1.164   2.790   3.792
 1089SOL     OW 3282   1.861   3.431   4.575
 1089SOL    HW1 3283   1.790   3.419   4.505
 1089SOL    HW2 3284   1.862   3.352   4.635
 1090SOL     OW 3285   0.079   3.102   4.377
 1090SOL    HW1 3286   0.078   3.055   4.465
 1090SOL    HW2 3287   0.161   3.074   4.326
 1091SOL     OW 3288   1.824   2.054   4.951
 1091SOL    HW1 3289   1.820   1.964   4.995
 1091SOL    HW2 3290   1.827   2.043   4.852
 1092SOL     OW 3291   0.428   2.286   4.244
 1092SOL    HW1 3292   0.458   2.214   4.182
 1092SOL    HW2 3293   0.389   2.246   4.327
 1093SOL     OW 3294   0.812   3.448   4.411
 1093SOL    HW1 3295   0.844   3.458   4.317
 1093SOL    HW2 3296   0.733   3.386   4.413
 1094SOL     OW 3297   0.770   3.192   4.025
 1094SOL    HW1 3298   0.724   3.105   4.042
 1094SOL    HW2 3299   0.861   3.189   4.066
 1095SOL     OW 3300   1.352   1.914   3.892
 1095SOL    HW1 3301   1.387   1.873   3.808
 1095SOL    HW2 3302   1.262   1.876   3.912
 1096SOL     OW 3303   1.300   2.315   4.415
 1096SOL    HW1 3304   1.241   2.395   4.419
 1096SOL    HW2 3305   1.315   2.280   4.508
 1097SOL     OW 3306   1.593   2.083   4.606
 1097SOL    HW1 3307   1.509   2.082   4.660
 1097SOL    HW2 3308   1.595   2.166   4.550
 1098SOL     OW 3309   0.039   2.939   4.024
 1098SOL    HW1 3310   0.138   2.928   4.015
 1098SOL    HW2 3311  -0.001   2.853   4.056
 1099SOL     OW 3312   0.875   3.508   4.061
 1099SOL    HW1 3313   0.798   3.473   4.007
 1099SOL    HW2 3314   0.843   3.579   4.123
 1100SOL     OW 3315   0.230   4.352   0.113
 1100SOL    HW1 3316   0.137   4.350   0.150
 1100SOL    HW2 3317   0.231   4.313   0.021
 1101SOL     OW 3318   0.225   3.999   0.996
 1101SOL    HW1 3319   0.260   3.982   1.088
 1101SOL    HW2 3320   0.137   3.954   0.984
 1102SOL     OW 3321   0.019   4.092   0.647
 1102SOL    HW1 3322  -0.063   4.135   0.686
 1102SOL    HW2 3323  -0.009   4.019   0.584
 1103SOL     OW 3324   1.135   4.427   0.717
 1103SOL    HW1 3325   1.192   4.505   0.692
 1103SOL    HW2 3326   1.075   4.453   0.793
 1104SOL     OW 3327   1.755   4.331   0.231
 1104SOL    HW1 3328   1.743   4.318   0.132
 1104SOL    HW2 3329   1.725   4.250   0.280
 1105SOL     OW 3330   0.768   4.868   1.023
 1105SOL    HW1 3331   0.690   4.885   1.083
 1105SOL    HW2 3332   0.802   4.955   0.987
 1106SOL     OW 3333   0.850   4.522   1.823
 1106SOL    HW1 3334   0.846   4.598   1.888
 1106SOL    HW2 3335   0.872   4.558   1.732
 1107SOL     OW 3336   0.685   4.736   0.665
 1107SOL    HW1 3337   0.754   4.720   0.735
 1107SOL    HW2 3338   0.612   4.793   0.703
 1108SOL     OW 3339   0.438   4.116   1.499
 1108SOL    HW1 3340   0.520   4.060   1.508
 1108SOL    HW2 3341   0.357   4.058   1.503
 1109SOL     OW 3342   1.603   4.171   0.737
 1109SOL    HW1 3343   1.529   4.217   0.687
 1109SOL    HW2 3344   1.654   4.239   0.790
 1110SOL     OW 3345   0.240   4.815   0.886
 1110SOL    HW1 3346   0.254   4.731   0.938
 1110SOL    HW2 3347   0.185   4.879   0.941
 1111SOL     OW 3348   0.606   4.688   0.123
 1111SOL    HW1 3349   0.613   4.772   0.069
 1111SOL    HW2 3350   0.652   4.701   0.211
 1112SOL     OW 3351   1.594   3.838   1.480
 1112SOL    HW1 3352   1.576   3.905   1.408
 1112SOL    HW2 3353   1.591   3.884   1.569
 1113SOL     OW 3354   0.122   4.367   0.563
 1113SOL    HW1 3355   0.077   4.279   0.580
 1113SOL    HW2 3356   0.121   4.421   0.647
 1114SOL     OW 3357   1.689   4.646   0.612
 1114SOL    HW1 3358   1.784   4.617   0.620
 1114SOL    HW2 3359   1.681   4.711   0.537
 1115SOL     OW 3360   0.113   4.461   1.597
 1115SOL    HW1 3361   0.201   4.448   1.642
 1115SOL    HW2 3362   0.100   4.558   1.575
 1116SOL     OW 3363   0.809   3.728   0.502
 1116SOL    HW1 3364   0.849   3.819   0.493
 1116SOL    HW2 3365   0.709   3.736   0.508
 1117SOL     OW 3366   0.197   4.700   1.264
 1117SOL    HW1 3367   0.286   4.655   1.250
 1117SOL    HW2 3368   0.124   4.635   1.245
 1118SOL     OW 3369   1.525   4.723   0.190
 1118SOL    HW1 3370   1.462   4.647   0.203
 1118SOL    HW2 3371   1.573   4.741   0.276
 1119SOL     OW 3372   0.317   3.975   1.801
 1119SOL    HW1 3373   0.388   4.046   1.807
 1119SOL    HW2 3374   0.229   4.014   1.829
 1120SOL     OW 3375   0.598   4.453   0.270
 1120SOL    HW1 3376   0.622   4.522   0.202
 1120SOL    HW2 3377   0.520   4.486   0.324
 1121SOL     OW 3378   1.281   4.069   0.944
 1121SOL    HW1 3379   1.195   4.019   0.931
 1121SOL    HW2 3380   1.343   4.015   1.000
 1122SOL     OW 3381   0.807   4.329   1.465
 1122SOL    HW1 3382   0.760   4.326   1.554
 1122SOL    HW2 3383   0.756   4.274   1.399
 1123SOL     OW 3384   1.394   4.193   1.674
 1123SOL    HW1 3385   1.374   4.236   1.762
 1123SOL    HW2 3386   1.472   4.131   1.683
 1124SOL     OW 3387   0.973   4.614   1.572
 1124SOL    HW1 3388   1.019   4.530   1.543
 1124SOL    HW2 3389   0.917   4.648   1.497
 1125SOL     OW 3390   0.991   4.134   1.242
 1125SOL    HW1 3391   0.914   4.168   1.296
 1125SOL    HW2 3392   0.957   4.083   1.163
 1126SOL     OW 3393   1.041   4.425   0.429
 1126SOL    HW1 3394   1.067   4.421   0.525
 1126SOL    HW2 3395   0.956   4.374   0.415
 1127SOL     OW 3396   0.076   4.535   0.789
 1127SOL    HW1 3397   0.175   4.523   0.798
 1127SOL    HW2 3398   0.052   4.630   0.810
 1128SOL     OW 3399   0.865   4.072   0.195
 1128SOL    HW1 3400   0.924   4.135   0.146
 1128SOL    HW2 3401   0.884   3.978   0.166
 1129SOL     OW 3402   1.719   4.309   1.831
 1129SOL    HW1 3403   1.693   4.398   1.795
 1129SOL    HW2 3404   1.717   4.241   1.758
 1130SOL     OW 3405   0.550   3.920   0.885
 1130SOL    HW1 3406   0.545   3.915   0.985
 1130SOL    HW2 3407   0.552   4.016   0.856
 1131SOL     OW 3408   1.458   4.459   0.728
 1131SOL    HW1 3409   1.453   4.394   0.803
 1131SOL    HW2 3410   1.538   4.518   0.741
 1132SOL     OW 3411   0.202   4.009   1.498
 1132SOL    HW1 3412   0.122   4.069   1.485
 1132SOL    HW2 3413   0.192   3.960   1.584
 1133SOL     OW 3414   1.400   3.831   0.426
 1133SOL    HW1 3415   1.376   3.794   0.336
 1133SOL    HW2 3416   1.499   3.847   0.430
 1134SOL     OW 3417   0.382   4.424   0.480
 1134SOL    HW1 3418   0.427   4.334   0.477
 1134SOL    HW2 3419   0.288   4.413   0.513
 1135SOL     OW 3420   1.547   3.946   1.729
 1135SOL    HW1 3421   1.542   3.983   1.821
 1135SOL    HW2 3422   1.475   3.877   1.717
 1136SOL     OW 3423   0.614   3.846   0.117
 1136SOL    HW1 3424   0.712   3.824   0.124
 1136SOL    HW2 3425   0.583   3.829   0.024
 1137SOL     OW 3426   0.781   3.988   1.749
 1137SOL    HW1 3427   0.848   3.927   1.792
 1137SOL    HW2 3428   0.708   4.007   1.814
 1138SOL     OW 3429   1.351   4.314   1.433
 1138SOL    HW1 3430   1.379   4.271   1.518
 1138SOL    HW2 3431   1.376   4.410   1.434
 1139SOL     OW 3432   0.922   4.227   0.899
 1139SOL    HW1 3433   0.897   4.218   0.803
 1139SOL    HW2 3434   0.970   4.145   0.930
 1140SOL     OW 3435   0.539   3.788   0.512
 1140SOL    HW1 3436   0.458   3.789   0.570
 1140SOL    HW2 3437   0.542   3.871   0.457
 1141SOL     OW 3438   0.935   3.960   0.480
 1141SOL    HW1 3439   0.887   4.001   0.402
 1141SOL    HW2 3440   1.034   3.958   0.461
 1142SOL     OW 3441   1.076   4.407   1.464
 1142SOL    HW1 3442   0.996   4.346   1.467
 1142SOL    HW2 3443   1.157   4.354   1.440
 1143SOL     OW 3444   1.032   4.273   0.016
 1143SOL    HW1 3445   0.991   4.355  -0.023
 1143SOL    HW2 3446   1.096   4.299   0.089
 1144SOL     OW 3447   0.078   4.280   1.386
 1144SOL    HW1 3448   0.170   4.279   1.345
 1144SOL    HW2 3449   0.072   4.354   1.453
 1145SOL     OW 3450   0.561   3.946   1.147
 1145SOL    HW1 3451   0.599   3.862   1.184
 1145SOL    HW2 3452   0.473   3.965   1.191
 1146SOL     OW 3453   0.866   4.178   0.642
 1146SOL    HW1 3454   0.834   4.250   0.580
 1146SOL    HW2 3455   0.890   4.097   0.589
 1147SOL     OW 3456   1.017   3.763   0.753
 1147SOL    HW1 3457   0.945   3.768   0.684
 1147SOL    HW2 3458   0.993   3.694   0.822
 1148SOL     OW 3459   1.429   4.897   0.867
 1148SOL    HW1 3460   1.374   4.813   0.860
 1148SOL    HW2 3461   1.455   4.926   0.775
 1149SOL     OW 3462   1.466   4.314   0.992
 1149SOL    HW1 3463   1.436   4.219   0.999
 1149SOL    HW2 3464   1.539   4.330   1.058
 1150SOL     OW 3465   1.857   4.557   0.377
 1150SOL    HW1 3466   1.899   4.493   0.441
 1150SOL    HW2 3467   1.819   4.506   0.299
 1151SOL     OW 3468   1.390   4.299   0.078
 1151SOL    HW1 3469   1.336   4.278   0.159
 1151SOL    HW2 3470   1.481   4.258   0.087
 1152SOL     OW 3471   0.527   3.980   0.328
 1152SOL    HW1 3472   0.554   3.921   0.253
 1152SOL    HW2 3473   0.527   4.075   0.297
 1153SOL     OW 3474   1.638   4.823   1.079
 1153SOL    HW1 3475   1.643   4.904   1.138
 1153SOL    HW2 3476   1.552   4.825   1.028
 1154SOL     OW 3477   0.915   3.813   1.402
 1154SOL    HW1 3478   0.940   3.793   1.307
 1154SOL    HW2 3479   0.987   3.869   1.444
 1155SOL     OW 3480   0.410   4.537   1.251
 1155SOL    HW1 3481   0.496   4.549   1.301
 1155SOL    HW2 3482   0.368   4.450   1.278
 1156SOL     OW 3483   1.274   4.110   1.262
 1156SOL    HW1 3484   1.295   4.184   1.326
 1156SOL    HW2 3485   1.185   4.127   1.219
 1157SOL     OW 3486   0.566   4.261   0.865
 1157SOL    HW1 3487   0.578   4.327   0.791
 1157SOL    HW2 3488   0.612   4.295   0.948
 1158SOL     OW 3489   1.582   4.363   0.472
 1158SOL    HW1 3490   1.551   4.424   0.545
 1158SOL    HW2 3491   1.632   4.415   0.403
 1159SOL     OW 3492   0.402   4.475   1.598
 1159SOL    HW1 3493   0.470   4.530   1.551
 1159SOL    HW2 3494   0.442   4.387   1.625
 1160SOL     OW 3495   1.587   4.503   1.670
 1160SOL    HW1 3496   1.495   4.541   1.665
 1160SOL    HW2 3497   1.647   4.550   1.605
 1161SOL     OW 3498   1.013   3.829   1.770
 1161SOL    HW1 3499   1.019   3.914   1.718
 1161SOL    HW2 3500   1.045   3.753   1.713
 1162SOL     OW 3501   0.504   3.774   1.740
 1162SOL    HW1 3502   0.462   3.717   1.670
 1162SOL    HW2 3503   0.438   3.843   1.772
 1163SOL     OW 3504   0.573   4.594   1.029
 1163SOL    HW1 3505   0.617   4.683   1.020
 1163SOL    HW2 3506   0.510   4.594   1.106
 1164SOL     OW 3507   1.360   4.586   1.045
 1164SOL    HW1 3508   1.285   4.586   0.979
 1164SOL    HW2 3509   1.397   4.494   1.054
 1165SOL     OW 3510   1.209   4.249   0.275
 1165SOL    HW1 3511   1.222   4.165   0.329
 1165SOL    HW2 3512   1.180   4.323   0.335
 1166SOL     OW 3513   0.307   3.937   1.231
 1166SOL    HW1 3514   0.284   3.974   1.321
 1166SOL    HW2 3515   0.277   3.842   1.225
 1167SOL     OW 3516   0.037   5.034   1.282
 1167SOL    HW1 3517   0.090   4.985   1.350
 1167SOL    HW2 3518   0.059   5.132   1.287
 1168SOL     OW 3519   0.732   4.358   1.064
 1168SOL    HW1 3520   0.791   4.332   0.988
 1168SOL    HW2 3521   0.704   4.454   1.053
 1169SOL     OW 3522   1.728   4.659   1.854
 1169SOL    HW1 3523   1.682   4.652   1.765
 1169SOL    HW2 3524   1.666   4.703   1.920
 1170SOL     OW 3525   0.307   3.787   0.618
 1170SOL    HW1 3526   0.296   3.881   0.651
 1170SOL    HW2 3527   0.302   3.724   0.695
 1171SOL     OW 3528   1.622   4.091   0.374
 1171SOL    HW1 3529   1.624   4.015   0.438
 1171SOL    HW2 3530   1.574   4.168   0.414
 1172SOL     OW 3531   1.023   4.490   0.966
 1172SOL    HW1 3532   1.038   4.511   1.062
 1172SOL    HW2 3533   0.993   4.395   0.957
 1173SOL     OW 3534   0.350   4.622   1.804
 1173SOL    HW1 3535   0.426   4.666   1.852
 1173SOL    HW2 3536   0.385   4.575   1.722
 1174SOL     OW 3537   1.540   3.998   0.125
 1174SOL    HW1 3538   1.479   3.923   0.148
 1174SOL    HW2 3539   1.562   4.050   0.208
 1175SOL     OW 3540   1.303   4.562   0.042
 1175SOL    HW1 3541   1.337   4.469   0.057
 1175SOL    HW2 3542   1.321   4.589  -0.053
 1176SOL     OW 3543   0.319   4.534   0.949
 1176SOL    HW1 3544   0.412   4.570   0.954
 1176SOL    HW2 3545   0.313   4.449   1.001
 1177SOL     OW 3546   0.339   4.233   1.006
 1177SOL    HW1 3547   0.287   4.150   0.989
 1177SOL    HW2 3548   0.416   4.238   0.942
 1178SOL     OW 3549   1.138   4.104   1.678
 1178SOL    HW1 3550   1.093   4.167   1.742
 1178SOL    HW2 3551   1.231   4.135   1.661
 1179SOL     OW 3552   1.160   3.931   1.477
 1179SOL    HW1 3553   1.160   3.995   1.554
 1179SOL    HW2 3554   1.188   3.979   1.394
 1180SOL     OW 3555   1.002   4.520   1.238
 1180SOL    HW1 3556   1.043   4.488   1.324
 1180SOL    HW2 3557   0.906   4.493   1.235
 1181SOL     OW 3558   0.040   4.268   1.114
 1181SOL    HW1 3559   0.125   4.235   1.073
 1181SOL    HW2 3560   0.053   4.283   1.212
 1182SOL     OW 3561   0.189   4.244   1.722
 1182SOL    HW1 3562   0.248   4.204   1.652
 1182SOL    HW2 3563   0.131   4.315   1.681
 1183SOL     OW 3564   1.369   4.674   1.660
 1183SOL    HW1 3565   1.408   4.763   1.680
 1183SOL    HW2 3566   1.379   4.654   1.563
 1184SOL     OW 3567   0.815   4.296   0.325
 1184SOL    HW1 3568   0.822   4.207   0.279
 1184SOL    HW2 3569   0.721   4.330   0.317
 1185SOL     OW 3570   1.657   4.328   1.206
 1185SOL    HW1 3571   1.619   4.259   1.268
 1185SOL    HW2 3572   1.739   4.292   1.162
 1186SOL     OW 3573   0.671   4.188   1.269
 1186SOL    HW1 3574   0.637   4.099   1.239
 1186SOL    HW2 3575   0.697   4.242   1.189
 1187SOL     OW 3576   0.473   4.224   0.191
 1187SOL    HW1 3577   0.534   4.304   0.195
 1187SOL    HW2 3578   0.378   4.255   0.198
 1188SOL     OW 3579   0.159   4.861   1.466
 1188SOL    HW1 3580   0.181   4.800   1.542
 1188SOL    HW2 3581   0.169   4.812   1.380
 1189SOL     OW 3582   1.347   4.783   1.234
 1189SOL    HW1 3583   1.371   4.720   1.160
 1189SOL    HW2 3584   1.257   4.823   1.216
 1190SOL     OW 3585   1.302   4.579   0.309
 1190SOL    HW1 3586   1.216   4.548   0.351
 1190SOL    HW2 3587   1.298   4.565   0.210
 1191SOL     OW 3588   0.903   3.810   0.133
 1191SOL    HW1 3589   0.954   3.811   0.047
 1191SOL    HW2 3590   0.959   3.768   0.204
 1192SOL     OW 3591   1.726   3.859   0.523
 1192SOL    HW1 3592   1.799   3.842   0.456
 1192SOL    HW2 3593   1.695   3.772   0.561
 1193SOL     OW 3594   1.280   4.651   0.672
 1193SOL    HW1 3595   1.340   4.570   0.674
 1193SOL    HW2 3596   1.320   4.720   0.612
 1194SOL     OW 3597   1.841   3.899   0.963
 1194SOL    HW1 3598   1.880   3.814   0.927
 1194SOL    HW2 3599   1.743   3.901   0.944
 1195SOL     OW 3600   0.263   4.050   0.720
 1195SOL    HW1 3601   0.184   4.101   0.686
 1195SOL    HW2 3602   0.254   4.035   0.818
 1196SOL     OW 3603   0.916   4.634   0.291
 1196SOL    HW1 3604   0.979   4.672   0.223
 1196SOL    HW2 3605   0.956   4.551   0.330
 1197SOL     OW 3606   1.014   3.960   0.971
 1197SOL    HW1 3607   1.006   3.924   0.878
 1197SOL    HW2 3608   1.012   3.884   1.036
 1198SOL     OW 3609   1.709   4.109   1.381
 1198SOL    HW1 3610   1.782   4.178   1.385
 1198SOL    HW2 3611   1.737   4.034   1.322
 1199SOL     OW 3612   0.105   4.737   1.726
 1199SOL    HW1 3613   0.028   4.704   1.780
 1199SOL    HW2 3614   0.190   4.707   1.768
 1200SOL     OW 3615   0.672   3.927   1.489
 1200SOL    HW1 3616   0.762   3.911   1.449
 1200SOL    HW2 3617   0.680   3.932   1.588
 1201SOL     OW 3618   0.075   4.069   0.033
 1201SOL    HW1 3619  -0.017   4.041   0.004
 1201SOL    HW2 3620   0.106   4.146  -0.023
 1202SOL     OW 3621   1.440   4.580   1.398
 1202SOL    HW1 3622   1.383   4.632   1.335
 1202SOL    HW2 3623   1.536   4.592   1.374
 1203SOL     OW 3624   0.072   3.890   0.318
 1203SOL    HW1 3625   0.055   3.973   0.264
 1203SOL    HW2 3626   0.162   3.853   0.296
 1204SOL     OW 3627   1.183   5.059   0.119
 1204SOL    HW1 3628   1.084   5.048   0.121
 1204SOL    HW2 3629   1.217   5.074   0.212
 1205SOL     OW 3630   0.613   4.566   1.431
 1205SOL    HW1 3631   0.669   4.647   1.414
 1205SOL    HW2 3632   0.672   4.486   1.434
 1206SOL     OW 3633   0.716   4.289   1.708
 1206SOL    HW1 3634   0.735   4.354   1.782
 1206SOL    HW2 3635   0.776   4.209   1.717
 1207SOL     OW 3636   1.674   4.607   1.254
 1207SOL    HW1 3637   1.647   4.518   1.217
 1207SOL    HW2 3638   1.675   4.675   1.181
 1208SOL     OW 3639   1.225   4.049   0.449
 1208SOL    HW1 3640   1.290   3.975   0.438
 1208SOL    HW2 3641   1.245   4.099   0.533
 1209SOL     OW 3642   0.594   4.469   0.652
 1209SOL    HW1 3643   0.644   4.554   0.633
 1209SOL    HW2 3644   0.506   4.471   0.604
 1210SOL     OW 3645   1.777   4.066   1.642
 1210SOL    HW1 3646   1.760   4.097   1.548
 1210SOL    HW2 3647   1.693   4.029   1.680
 1211SOL     OW 3648   1.730   4.658   1.517
 1211SOL    HW1 3649   1.768   4.749   1.532
 1211SOL    HW2 3650   1.722   4.641   1.418
 1212SOL     OW 3651   0.859   4.680   0.861
 1212SOL    HW1 3652   0.913   4.611   0.909
 1212SOL    HW2 3653   0.827   4.749   0.927
 1213SOL     OW 3654   1.083   4.708   0.087
 1213SOL    HW1 3655   1.060   4.761   0.005
 1213SOL    HW2 3656   1.164   4.652   0.068
 1214SOL     OW 3657   0.079   4.964   0.653
 1214SOL    HW1 3658   0.078   4.917   0.741
 1214SOL    HW2 3659   0.161   4.936   0.602
 1215SOL     OW 3660   1.824   3.916   1.227
 1215SOL    HW1 3661   1.820   3.826   1.271
 1215SOL    HW2 3662   1.827   3.905   1.128
 1216SOL     OW 3663   0.428   4.148   0.520
 1216SOL    HW1 3664   0.458   4.076   0.458
 1216SOL    HW2 3665   0.389   4.108   0.603
 1217SOL     OW 3666   0.317   4.271   1.280
 1217SOL    HW1 3667   0.355   4.212   1.352
 1217SOL    HW2 3668   0.357   4.245   1.192
 1218SOL     OW 3669   1.424   3.938   1.112
 1218SOL    HW1 3670   1.476   3.873   1.167
 1218SOL    HW2 3671   1.375   4.001   1.173
 1219SOL     OW 3672   1.001   3.758   1.154
 1219SOL    HW1 3673   0.938   3.686   1.123
 1219SOL    HW2 3674   1.094   3.722   1.154
 1220SOL     OW 3675   1.352   3.776   0.168
 1220SOL    HW1 3676   1.387   3.735   0.084
 1220SOL    HW2 3677   1.262   3.738   0.188
 1221SOL     OW 3678   1.300   4.177   0.691
 1221SOL    HW1 3679   1.241   4.257   0.695
 1221SOL    HW2 3680   1.315   4.142   0.784
 1222SOL     OW 3681   1.593   3.945   0.882
 1222SOL    HW1 3682   1.509   3.944   0.936
 1222SOL    HW2 3683   1.595   4.028   0.826
 1223SOL     OW 3684   0.039   4.801   0.300
 1223SOL    HW1 3685   0.138   4.790   0.291
 1223SOL    HW2 3686  -0.001   4.715   0.332
 1224SOL     OW 3687   0.230   4.352   1.975
 1224SOL    HW1 3688   0.137   4.350   2.012
 1224SOL    HW2 3689   0.231   4.313   1.883
 1225SOL     OW 3690   0.225   3.999   2.858
 1225SOL    HW1 3691   0.260   3.982   2.950
 1225SOL    HW2 3692   0.137   3.954   2.846
 1226SOL     OW 3693   0.019   4.092   2.509
 1226SOL    HW1 3694  -0.063   4.135   2.548
 1226SOL    HW2 3695  -0.009   4.019   2.446
 1227SOL     OW 3696   1.135   4.427   2.579
 1227SOL    HW1 3697   1.192   4.505   2.554
 1227SOL    HW2 3698   1.075   4.453   2.655
 1228SOL     OW 3699   1.755   4.331   2.093
 1228SOL    HW1 3700   1.743   4.318   1.994
 1228SOL    HW2 3701   1.725   4.250   2.142
 1229SOL     OW 3702   0.768   4.868   2.885
 1229SOL    HW1 3703   0.690   4.885   2.945
 1229SOL    HW2 3704   0.802   4.955   2.849
 1230SOL     OW 3705   0.850   4.522   3.685
 1230SOL    HW1 3706   0.846   4.598   3.750
 1230SOL    HW2 3707   0.872   4.558   3.594
 1231SOL     OW 3708   0.685   4.736   2.527
 1231SOL    HW1 3709   0.754   4.720   2.597
 1231SOL    HW2 3710   0.612   4.793   2.565
 1232SOL     OW 3711   0.438   4.116   3.361
 1232SOL    HW1 3712   0.520   4.060   3.370
 1232SOL    HW2 3713   0.357   4.058   3.365
 1233SOL     OW 3714   1.603   4.171   2.599
 1233SOL    HW1 3715   1.529   4.217   2.549
 1233SOL    HW2 3716   1.654   4.239   2.652
 1234SOL     OW 3717   0.240   4.815   2.748
 1234SOL    HW1 3718   0.254   4.731   2.800
 1234SOL    HW2 3719   0.185   4.879   2.803
 1235SOL     OW 3720   0.606   4.688   1.985
 1235SOL    HW1 3721   0.613   4.772   1.931
 1235SOL    HW2 3722   0.652   4.701   2.073
 1236SOL     OW 3723   1.594   3.838   3.342
 1236SOL    HW1 3724   1.576   3.905   3.270
 1236SOL    HW2 3725   1.591   3.884   3.431
 1237SOL     OW 3726   0.122   4.367   2.425
 1237SOL    HW1 3727   0.077   4.279   2.442
 1237SOL    HW2 3728   0.121   4.421   2.509
 1238SOL     OW 3729   1.689   4.646   2.474
 1238SOL    HW1 3730   1.784   4.617   2.482
 1238SOL    HW2 3731   1.681   4.711   2.399
 1239SOL     OW 3732   0.113   4.461   3.459
 1239SOL    HW1 3733   0.201   4.448   3.504
 1239SOL    HW2 3734   0.100   4.558   3.437
 1240SOL     OW 3735   0.809   3.728   2.364
 1240SOL    HW1 3736   0.849   3.819   2.355
 1240SOL    HW2 3737   0.709   3.736   2.370
 1241SOL     OW 3738   0.197   4.700   3.126
 1241SOL    HW1 3739   0.286   4.655   3.112
 1241SOL    HW2 3740   0.124   4.635   3.107
 1242SOL     OW 3741   1.525   4.723   2.052
 1242SOL    HW1 3742   1.462   4.647   2.065
 1242SOL    HW2 3743   1.573   4.741   2.138
 1243SOL     OW 3744   0.317   3.975   3.663
 1243SOL    HW1 3745   0.388   4.046   3.669
 1243SOL    HW2 3746   0.229   4.014   3.691
 1244SOL     OW 3747   0.598   4.453   2.132
 1244SOL    HW1 3748   0.622   4.522   2.064
 1244SOL    HW2 3749   0.520   4.486   2.186
 1245SOL     OW 3750   1.281   4.069   2.806
 1245SOL    HW1 3751   1.195   4.019   2.793
 1245SOL    HW2 3752   1.343   4.015   2.862
 1246SOL     OW 3753   0.807   4.329   3.327
 1246SOL    HW1 3754   0.760   4.326   3.416
 1246SOL    HW2 3755   0.756   4.274   3.261
 1247SOL     OW 3756   1.394   4.193   3.536
 1247SOL    HW1 3757   1.374   4.236   3.624
 1247SOL    HW2 3758   1.472   4.131   3.545
 1248SOL     OW 3759   0.973   4.614   3.434
 1248SOL    HW1 3760   1.019   4.530   3.405
 1248SOL    HW2 3761   0.917   4.648   3.359
 1249SOL     OW 3762   0.991   4.134   3.104
 1249SOL    HW1 3763   0.914   4.168   3.158
 1249SOL    HW2 3764   0.957   4.083   3.025
 1250SOL     OW 3765   1.041   4.425   2.291
 1250SOL    HW1 3766   1.067   4.421   2.387
 1250SOL    HW2 3767   0.956   4.374   2.277
 1251SOL     OW 3768   0.076   4.535   2.651
 1251SOL    HW1 3769   0.175   4.523   2.660
 1251SOL    HW2 3770   0.052   4.630   2.672
 1252SOL     OW 3771   0.865   4.072   2.057
 1252SOL    HW1 3772   0.924   4.135   2.008
 1252SOL    HW2 3773   0.884   3.978   2.028
 1253SOL     OW 3774   1.719   4.309   3.693
 1253SOL    HW1 3775   1.693   4.398   3.657
 1253SOL    HW2 3776   1.717   4.241   3.620
 1254SOL     OW 3777   0.550   3.920   2.747
 1254SOL    HW1 3778   0.545   3.915   2.847
 1254SOL    HW2 3779   0.552   4.016   2.718
 1255SOL     OW 3780   1.458   4.459   2.590
 1255SOL    HW1 3781   1.453   4.394   2.665
 1255SOL    HW2 3782   1.538   4.518   2.603
 1256SOL     OW 3783   0.202   4.009   3.360
 1256SOL    HW1 3784   0.122   4.069   3.347
 1256SOL    HW2 3785   0.192   3.960   3.446
 1257SOL     OW 3786   1.400   3.831   2.288
 1257SOL    HW1 3787   1.376   3.794   2.198
 1257SOL    HW2 3788   1.499   3.847   2.292
 1258SOL     OW 3789   0.382   4.424   2.342
 1258SOL    HW1 3790   0.427   4.334   2.339
 1258SOL    HW2 3791   0.288   4.413   2.375
 1259SOL     OW 3792   1.547   3.946   3.591
 1259SOL    HW1 3793   1.542   3.983   3.683
 1259SOL    HW2 3794   1.475   3.877   3.579
 1260SOL     OW 3795   0.614   3.846   1.979
 1260SOL    HW1 3796   0.712   3.824   1.986
 1260SOL    HW2 3797   0.583   3.829   1.886
 1261SOL     OW 3798   0.781   3.988   3.611
 1261SOL    HW1 3799   0.848   3.927   3.654
 1261SOL    HW2 3800   0.708   4.007   3.676
 1262SOL     OW 3801   1.351   4.314   3.295
 1262SOL    HW1 3802   1.379   4.271   3.380
 1262SOL    HW2 3803   1.376   4.410   3.296
 1263SOL     OW 3804   0.922   4.227   2.761
 1263SOL    HW1 3805   0.897   4.218   2.665
 1263SOL    HW2 3806   0.970   4.145   2.792
 1264SOL     OW 3807   0.539   3.788   2.374
 1264SOL    HW1 3808   0.458   3.789   2.432
 1264SOL    HW2 3809   0.542   3.871   2.319
 1265SOL     OW 3810   0.297   3.759   2.033
 1265SOL    HW1 3811   0.346   3.843   2.012
 1265SOL    HW2 3812   0.359   3.694   2.078
 1266SOL     OW 3813   0.935   3.960   2.342
 1266SOL    HW1 3814   0.887   4.001   2.264
 1266SOL    HW2 3815   1.034   3.958   2.323
 1267SOL     OW 3816   1.076   4.407   3.326
 1267SOL    HW1 3817   0.996   4.346   3.329
 1267SOL    HW2 3818   1.157   4.354   3.302
 1268SOL     OW 3819   1.032   4.273   1.878
 1268SOL    HW1 3820   0.991   4.355   1.839
 1268SOL    HW2 3821   1.096   4.299   1.951
 1269SOL     OW 3822   0.078   4.280   3.248
 1269SOL    HW1 3823   0.170   4.279   3.207
 1269SOL    HW2 3824   0.072   4.354   3.315
 1270SOL     OW 3825   0.561   3.946   3.009
 1270SOL    HW1 3826   0.599   3.862   3.046
 1270SOL    HW2 3827   0.473   3.965   3.053
 1271SOL     OW 3828   0.866   4.178   2.504
 1271SOL    HW1 3829   0.834   4.250   2.442
 1271SOL    HW2 3830   0.890   4.097   2.451
 1272SOL     OW 3831   1.017   3.763   2.615
 1272SOL    HW1 3832   0.945   3.768   2.546
 1272SOL    HW2 3833   0.993   3.694   2.684
 1273SOL     OW 3834   1.429   4.897   2.729
 1273SOL    HW1 3835   1.374   4.813   2.722
 1273SOL    HW2 3836   1.455   4.926   2.637
 1274SOL     OW 3837   1.466   4.314   2.854
 1274SOL    HW1 3838   1.436   4.219   2.861
 1274SOL    HW2 3839   1.539   4.330   2.920
 1275SOL     OW 3840   1.857   4.557   2.239
 1275SOL    HW1 3841   1.899   4.493   2.303
 1275SOL    HW2 3842   1.819   4.506   2.161
 1276SOL     OW 3843   1.390   4.299   1.940
 1276SOL    HW1 3844   1.336   4.278   2.021
 1276SOL    HW2 3845   1.481   4.258   1.949
 1277SOL     OW 3846   0.527   3.980   2.190
 1277SOL    HW1 3847   0.554   3.921   2.115
 1277SOL    HW2 3848   0.527   4.075   2.159
 1278SOL     OW 3849   1.638   4.823   2.941
 1278SOL    HW1 3850   1.643   4.904   3.000
 1278SOL    HW2 3851   1.552   4.825   2.890
 1279SOL     OW 3852   0.915   3.813   3.264
 1279SOL    HW1 3853   0.940   3.793   3.169
 1279SOL    HW2 3854   0.987   3.869   3.306
 1280SOL     OW 3855   0.410   4.537   3.113
 1280SOL    HW1 3856   0.496   4.549   3.163
 1280SOL    HW2 3857   0.368   4.450   3.140
 1281SOL     OW 3858   1.274   4.110   3.124
 1281SOL    HW1 3859   1.295   4.184   3.188
 1281SOL    HW2 3860   1.185   4.127   3.081
 1282SOL     OW 3861   0.566   4.261   2.727
 1282SOL    HW1 3862   0.578   4.327   2.653
 1282SOL    HW2 3863   0.612   4.295   2.810
 1283SOL     OW 3864   1.582   4.363   2.334
 1283SOL    HW1 3865   1.551   4.424   2.407
 1283SOL    HW2 3866   1.632   4.415   2.265
 1284SOL     OW 3867   0.402   4.475   3.460
 1284SOL    HW1 3868   0.470   4.530   3.413
 1284SOL    HW2 3869   0.442   4.387   3.487
 1285SOL     OW 3870   1.587   4.503   3.532
 1285SOL    HW1 3871   1.495   4.541   3.527
 1285SOL    HW2 3872   1.647   4.550   3.467
 1286SOL     OW 3873   1.013   3.829   3.632
 1286SOL    HW1 3874   1.019   3.914   3.580
 1286SOL    HW2 3875   1.045   3.753   3.575
 1287SOL     OW 3876   0.504   3.774   3.602
 1287SOL    HW1 3877   0.462   3.717   3.532
 1287SOL    HW2 3878   0.438   3.843   3.634
 1288SOL     OW 3879   0.573   4.594   2.891
 1288SOL    HW1 3880   0.617   4.683   2.882
 1288SOL    HW2 3881   0.510   4.594   2.968
 1289SOL     OW 3882   1.360   4.586   2.907
 1289SOL    HW1 3883   1.285   4.586   2.841
 1289SOL    HW2 3884   1.397   4.494   2.916
 1290SOL     OW 3885   1.209   4.249   2.137
 1290SOL    HW1 3886   1.222   4.165   2.191
 1290SOL    HW2 3887   1.180   4.323   2.197
 1291SOL     OW 3888   0.307   3.937   3.093
 1291SOL    HW1 3889   0.284   3.974   3.183
 1291SOL    HW2 3890   0.277   3.842   3.087
 1292SOL     OW 3891   0.037   5.034   3.144
 1292SOL    HW1 3892   0.090   4.985   3.212
 1292SOL    HW2 3893   0.059   5.132   3.149
 1293SOL     OW 3894   0.732   4.358   2.926
 1293SOL    HW1 3895   0.791   4.332   2.850
 1293SOL    HW2 3896   0.704   4.454   2.915
 1294SOL     OW 3897   1.728   4.659   3.716
 1294SOL    HW1 3898   1.682   4.652   3.627
 1294SOL    HW2 3899   1.666   4.703   3.782
 1295SOL     OW 3900   0.307   3.787   2.480
 1295SOL    HW1 3901   0.296   3.881   2.513
 1295SOL    HW2 3902   0.302   3.724   2.557
 1296SOL     OW 3903   1.622   4.091   2.236
 1296SOL    HW1 3904   1.624   4.015   2.300
 1296SOL    HW2 3905   1.574   4.168   2.276
 1297SOL     OW 3906   1.023   4.490   2.828
 1297SOL    HW1 3907   1.038   4.511   2.924
 1297SOL    HW2 3908   0.993   4.395   2.819
 1298SOL     OW 3909   0.350   4.622   3.666
 1298SOL    HW1 3910   0.426   4.666   3.714
 1298SOL    HW2 3911   0.385   4.575   3.584
 1299SOL     OW 3912   1.540   3.998   1.987
 1299SOL    HW1 3913   1.479   3.923   2.010
 1299SOL    HW2 3914   1.562   4.050   2.070
 1300SOL     OW 3915   1.303   4.562   1.904
 1300SOL    HW1 3916   1.337   4.469   1.919
 1300SOL    HW2 3917   1.321   4.589   1.809
 1301SOL     OW 3918   0.319   4.534   2.811
 1301SOL    HW1 3919   0.412   4.570   2.816
 1301SOL    HW2 3920   0.313   4.449   2.863
 1302SOL     OW 3921   0.339   4.233   2.868
 1302SOL    HW1 3922   0.287   4.150   2.851
 1302SOL    HW2 3923   0.416   4.238   2.804
 1303SOL     OW 3924   1.138   4.104   3.540
 1303SOL    HW1 3925   1.093   4.167   3.604
 1303SOL    HW2 3926   1.231   4.135   3.523
 1304SOL     OW 3927   1.160   3.931   3.339
 1304SOL    HW1 3928   1.160   3.995   3.416
 1304SOL    HW2 3929   1.188   3.979   3.256
 1305SOL     OW 3930   1.002   4.520   3.100
 1305SOL    HW1 3931   1.043   4.488   3.186
 1305SOL    HW2 3932   0.906   4.493   3.097
 1306SOL     OW 3933   0.040   4.268   2.976
 1306SOL    HW1 3934   0.125   4.235   2.935
 1306SOL    HW2 3935   0.053   4.283   3.074
 1307SOL     OW 3936   0.189   4.244   3.584
 1307SOL    HW1 3937   0.248   4.204   3.514
 1307SOL    HW2 3938   0.131   4.315   3.543
 1308SOL     OW 3939   1.369   4.674   3.522
 1308SOL    HW1 3940   1.408   4.763   3.542
 1308SOL    HW2 3941   1.379   4.654   3.425
 1309SOL     OW 3942   0.815   4.296   2.187
 1309SOL    HW1 3943   0.822   4.207   2.141
 1309SOL    HW2 3944   0.721   4.330   2.179
 1310SOL     OW 3945   1.657   4.328   3.068
 1310SOL    HW1 3946   1.619   4.259   3.130
 1310SOL    HW2 3947   1.739   4.292   3.024
 1311SOL     OW 3948   0.671   4.188   3.131
 1311SOL    HW1 3949   0.637   4.099   3.101
 1311SOL    HW2 3950   0.697   4.242   3.051
 1312SOL     OW 3951   0.473   4.224   2.053
 1312SOL    HW1 3952   0.534   4.304   2.057
 1312SOL    HW2 3953   0.378   4.255   2.060
 1313SOL     OW 3954   0.159   4.861   3.328
 1313SOL    HW1 3955   0.181   4.800   3.404
 1313SOL    HW2 3956   0.169   4.812   3.242
 1314SOL     OW 3957   1.347   4.783   3.096
 1314SOL    HW1 3958   1.371   4.720   3.022
 1314SOL    HW2 3959   1.257   4.823   3.078
 1315SOL     OW 3960   1.302   4.579   2.171
 1315SOL    HW1 3961   1.216   4.548   2.213
 1315SOL    HW2 3962   1.298   4.565   2.072
 1316SOL     OW 3963   1.726   3.859   2.385
 1316SOL    HW1 3964   1.799   3.842   2.318
 1316SOL    HW2 3965   1.695   3.772   2.423
 1317SOL     OW 3966   1.280   4.651   2.534
 1317SOL    HW1 3967   1.340   4.570   2.536
 1317SOL    HW2 3968   1.320   4.720   2.474
 1318SOL     OW 3969   1.841   3.899   2.825
 1318SOL    HW1 3970   1.880   3.814   2.789
 1318SOL    HW2 3971   1.743   3.901   2.806
 1319SOL     OW 3972   0.263   4.050   2.582
 1319SOL    HW1 3973   0.184   4.101   2.548
 1319SOL    HW2 3974   0.254   4.035   2.680
 1320SOL     OW 3975   0.916   4.634   2.153
 1320SOL    HW1 3976   0.979   4.672   2.085
 1320SOL    HW2 3977   0.956   4.551   2.192
 1321SOL     OW 3978   1.014   3.960   2.833
 1321SOL    HW1 3979   1.006   3.924   2.740
 1321SOL    HW2 3980   1.012   3.884   2.898
 1322SOL     OW 3981   1.709   4.109   3.243
 1322SOL    HW1 3982   1.782   4.178   3.247
 1322SOL    HW2 3983   1.737   4.034   3.184
 1323SOL     OW 3984   0.105   4.737   3.588
 1323SOL    HW1 3985   0.028   4.704   3.642
 1323SOL    HW2 3986   0.190   4.707   3.630
 1324SOL     OW 3987   0.672   3.927   3.351
 1324SOL    HW1 3988   0.762   3.911   3.311
 1324SOL    HW2 3989   0.680   3.932   3.450
 1325SOL     OW 3990   0.075   4.069   1.895
 1325SOL    HW1 3991  -0.017   4.041   1.866
 1325SOL    HW2 3992   0.106   4.146   1.839
 1326SOL     OW 3993   1.440   4.580   3.260
 1326SOL    HW1 3994   1.383   4.632   3.197
 1326SOL    HW2 3995   1.536   4.592   3.236
 1327SOL     OW 3996   0.072   3.890   2.180
 1327SOL    HW1 3997   0.055   3.973   2.126
 1327SOL    HW2 3998   0.162   3.853   2.158
 1328SOL     OW 3999   1.183   5.059   1.981
 1328SOL    HW1 4000   1.084   5.048   1.983
 1328SOL    HW2 4001   1.217   5.074   2.074
 1329SOL     OW 4002   0.613   4.566   3.293
 1329SOL    HW1 4003   0.669   4.647   3.276
 1329SOL    HW2 4004   0.672   4.486   3.296
 1330SOL     OW 4005   0.716   4.289   3.570
 1330SOL    HW1 4006   0.735   4.354   3.644
 1330SOL    HW2 4007   0.776   4.209   3.579
 1331SOL     OW 4008   1.674   4.607   3.116
 1331SOL    HW1 4009   1.647   4.518   3.079
 1331SOL    HW2 4010   1.675   4.675   3.043
 1332SOL     OW 4011   1.225   4.049   2.311
 1332SOL    HW1 4012   1.290   3.975   2.300
 1332SOL    HW2 4013   1.245   4.099   2.395
 1333SOL     OW 4014   0.594   4.469   2.514
 1333SOL    HW1 4015   0.644   4.554   2.495
 1333SOL    HW2 4016   0.506   4.471   2.466
 1334SOL     OW 4017   1.777   4.066   3.504
 1334SOL    HW1 4018   1.760   4.097   3.410
 1334SOL    HW2 4019   1.693   4.029   3.542
 1335SOL     OW 4020   1.730   4.658   3.379
 1335SOL    HW1 4021   1.768   4.749   3.394
 1335SOL    HW2 4022   1.722   4.641   3.280
 1336SOL     OW 4023   0.859   4.680   2.723
 1336SOL    HW1 4024   0.913   4.611   2.771
 1336SOL    HW2 4025   0.827   4.749   2.789
 1337SOL     OW 4026   1.083   4.708   1.949
 1337SOL    HW1 4027   1.060   4.761   1.867
 1337SOL    HW2 4028   1.164   4.652   1.930
 1338SOL     OW 4029   0.079   4.964   2.515
 1338SOL    HW1 4030   0.078   4.917   2.603
 1338SOL    HW2 4031   0.161   4.936   2.464
 1339SOL     OW 4032   1.824   3.916   3.089
 1339SOL    HW1 4033   1.820   3.826   3.133
 1339SOL    HW2 4034   1.827   3.905   2.990
 1340SOL     OW 4035   0.428   4.148   2.382
 1340SOL    HW1 4036   0.458   4.076   2.320
 1340SOL    HW2 4037   0.389   4.108   2.465
 1341SOL     OW 4038   0.317   4.271   3.142
 1341SOL    HW1 4039   0.355   4.212   3.214
 1341SOL    HW2 4040   0.357   4.245   3.054
 1342SOL     OW 4041   1.424   3.938   2.974
 1342SOL    HW1 4042   1.476   3.873   3.029
 1342SOL    HW2 4043   1.375   4.001   3.035
 1343SOL     OW 4044   1.001   3.758   3.016
 1343SOL    HW1 4045   0.938   3.686   2.985
 1343SOL    HW2 4046   1.094   3.722   3.016
 1344SOL     OW 4047   1.352   3.776   2.030
 1344SOL    HW1 4048   1.387   3.735   1.946
 1344SOL    HW2 4049   1.262   3.738   2.050
 1345SOL     OW 4050   1.300   4.177   2.553
 1345SOL    HW1 4051   1.241   4.257   2.557
 1345SOL    HW2 4052   1.315   4.142   2.646
 1346SOL     OW 4053   1.593   3.945   2.744
 1346SOL    HW1 4054   1.509   3.944   2.798
 1346SOL    HW2 4055   1.595   4.028   2.688
 1347SOL     OW 4056   0.039   4.801   2.162
 1347SOL    HW1 4057   0.138   4.790   2.153
 1347SOL    HW2 4058  -0.001   4.715   2.194
 1348SOL     OW 4059   0.230   4.352   3.837
 1348SOL    HW1 4060   0.137   4.350   3.874
 1348SOL    HW2 4061   0.231   4.313   3.745
 1349SOL     OW 4062   0.225   3.999   4.720
 1349SOL    HW1 4063   0.260   3.982   4.812
 1349SOL    HW2 4064   0.137   3.954   4.708
 1350SOL     OW 4065   0.019   4.092   4.371
 1350SOL    HW1 4066  -0.063   4.135   4.410
 1350SOL    HW2 4067  -0.009   4.019   4.308
 1351SOL     OW 4068   1.135   4.427   4.441
 1351SOL    HW1 4069   1.192   4.505   4.416
 1351SOL    HW2 4070   1.075   4.453   4.517
 1352SOL     OW 4071   1.755   4.331   3.955
 1352SOL    HW1 4072   1.743   4.318   3.856
 1352SOL    HW2 4073   1.725   4.250   4.004
 1353SOL     OW 4074   0.685   4.736   4.389
 1353SOL    HW1 4075   0.754   4.720   4.459
 1353SOL    HW2 4076   0.612   4.793   4.427
 1354SOL     OW 4077   1.603   4.171   4.461
 1354SOL    HW1 4078   1.529   4.217   4.411
 1354SOL    HW2 4079   1.654   4.239   4.514
 1355SOL     OW 4080   0.240   4.815   4.610
 1355SOL    HW1 4081   0.254   4.731   4.662
 1355SOL    HW2 4082   0.185   4.879   4.665
 1356SOL     OW 4083   0.606   4.688   3.847
 1356SOL    HW1 4084   0.613   4.772   3.793
 1356SOL    HW2 4085   0.652   4.701   3.935
 1357SOL     OW 4086   0.122   4.367   4.287
 1357SOL    HW1 4087   0.077   4.279   4.304
 1357SOL    HW2 4088   0.121   4.421   4.371
 1358SOL     OW 4089   1.689   4.646   4.336
 1358SOL    HW1 4090   1.784   4.617   4.344
 1358SOL    HW2 4091   1.681   4.711   4.261
 1359SOL     OW 4092   0.809   3.728   4.226
 1359SOL    HW1 4093   0.849   3.819   4.217
 1359SOL    HW2 4094   0.709   3.736   4.232
 1360SOL     OW 4095   0.197   4.700   4.988
 1360SOL    HW1 4096   0.286   4.655   4.974
 1360SOL    HW2 4097   0.124   4.635   4.969
 1361SOL     OW 4098   1.525   4.723   3.914
 1361SOL    HW1 4099   1.462   4.647   3.927
 1361SOL    HW2 4100   1.573   4.741   4.000
 1362SOL     OW 4101   0.598   4.453   3.994
 1362SOL    HW1 4102   0.622   4.522   3.926
 1362SOL    HW2 4103   0.520   4.486   4.048
 1363SOL     OW 4104   1.281   4.069   4.668
 1363SOL    HW1 4105   1.195   4.019   4.655
 1363SOL    HW2 4106   1.343   4.015   4.724
 1364SOL     OW 4107   1.041   4.425   4.153
 1364SOL    HW1 4108   1.067   4.421   4.249
 1364SOL    HW2 4109   0.956   4.374   4.139
 1365SOL     OW 4110   0.076   4.535   4.513
 1365SOL    HW1 4111   0.175   4.523   4.522
 1365SOL    HW2 4112   0.052   4.630   4.534
 1366SOL     OW 4113   0.865   4.072   3.919
 1366SOL    HW1 4114   0.924   4.135   3.870
 1366SOL    HW2 4115   0.884   3.978   3.890
 1367SOL     OW 4116   0.550   3.920   4.609
 1367SOL    HW1 4117   0.545   3.915   4.709
 1367SOL    HW2 4118   0.552   4.016   4.580
 1368SOL     OW 4119   1.458   4.459   4.452
 1368SOL    HW1 4120   1.453   4.394   4.527
 1368SOL    HW2 4121   1.538   4.518   4.465
 1369SOL     OW 4122   1.400   3.831   4.150
 1369SOL    HW1 4123   1.376   3.794   4.060
 1369SOL    HW2 4124   1.499   3.847   4.154
 1370SOL     OW 4125   0.382   4.424   4.204
 1370SOL    HW1 4126   0.427   4.334   4.201
 1370SOL    HW2 4127   0.288   4.413   4.237
 1371SOL     OW 4128   0.614   3.846   3.841
 1371SOL    HW1 4129   0.712   3.824   3.848
 1371SOL    HW2 4130   0.583   3.829   3.748
 1372SOL     OW 4131   0.922   4.227   4.623
 1372SOL    HW1 4132   0.897   4.218   4.527
 1372SOL    HW2 4133   0.970   4.145   4.654
 1373SOL     OW 4134   0.539   3.788   4.236
 1373SOL    HW1 4135   0.458   3.789   4.294
 1373SOL    HW2 4136   0.542   3.871   4.181
 1374SOL     OW 4137   0.297   3.759   3.895
 1374SOL    HW1 4138   0.346   3.843   3.874
 1374SOL    HW2 4139   0.359   3.694   3.940
 1375SOL     OW 4140   0.935   3.960   4.204
 1375SOL    HW1 4141   0.887   4.001   4.126
 1375SOL    HW2 4142   1.034   3.958   4.185
 1376SOL     OW 4143   1.032   4.273   3.740
 1376SOL    HW1 4144   0.991   4.355   3.701
 1376SOL    HW2 4145   1.096   4.299   3.813
 1377SOL     OW 4146   0.866   4.178   4.366
 1377SOL    HW1 4147   0.834   4.250   4.304
 1377SOL    HW2 4148   0.890   4.097   4.313
 1378SOL     OW 4149   1.017   3.763   4.477
 1378SOL    HW1 4150   0.945   3.768   4.408
 1378SOL    HW2 4151   0.993   3.694   4.546
 1379SOL     OW 4152   1.429   4.897   4.591
 1379SOL    HW1 4153   1.374   4.813   4.584
 1379SOL    HW2 4154   1.455   4.926   4.499
 1380SOL     OW 4155   1.466   4.314   4.716
 1380SOL    HW1 4156   1.436   4.219   4.723
 1380SOL    HW2 4157   1.539   4.330   4.782
 1381SOL     OW 4158   1.857   4.557   4.101
 1381SOL    HW1 4159   1.899   4.493   4.165
 1381SOL    HW2 4160   1.819   4.506   4.023
 1382SOL     OW 4161   1.390   4.299   3.802
 1382SOL    HW1 4162   1.336   4.278   3.883
 1382SOL    HW2 4163   1.481   4.258   3.811
 1383SOL     OW 4164   0.527   3.980   4.052
 1383SOL    HW1 4165   0.554   3.921   3.977
 1383SOL    HW2 4166   0.527   4.075   4.021
 1384SOL     OW 4167   1.638   4.823   4.803
 1384SOL    HW1 4168   1.643   4.904   4.862
 1384SOL    HW2 4169   1.552   4.825   4.752
 1385SOL     OW 4170   0.566   4.261   4.589
 1385SOL    HW1 4171   0.578   4.327   4.515
 1385SOL    HW2 4172   0.612   4.295   4.672
 1386SOL     OW 4173   1.582   4.363   4.196
 1386SOL    HW1 4174   1.551   4.424   4.269
 1386SOL    HW2 4175   1.632   4.415   4.127
 1387SOL     OW 4176   0.573   4.594   4.753
 1387SOL    HW1 4177   0.617   4.683   4.744
 1387SOL    HW2 4178   0.510   4.594   4.830
 1388SOL     OW 4179   1.209   4.249   3.999
 1388SOL    HW1 4180   1.222   4.165   4.053
 1388SOL    HW2 4181   1.180   4.323   4.059
 1389SOL     OW 4182   0.307   3.937   4.955
 1389SOL    HW1 4183   0.284   3.974   5.045
 1389SOL    HW2 4184   0.277   3.842   4.949
 1390SOL     OW 4185   0.732   4.358   4.788
 1390SOL    HW1 4186   0.791   4.332   4.712
 1390SOL    HW2 4187   0.704   4.454   4.777
 1391SOL     OW 4188   0.307   3.787   4.342
 1391SOL    HW1 4189   0.296   3.881   4.375
 1391SOL    HW2 4190   0.302   3.724   4.419
 1392SOL     OW 4191   1.622   4.091   4.098
 1392SOL    HW1 4192   1.624   4.015   4.162
 1392SOL    HW2 4193   1.574   4.168   4.138
 1393SOL     OW 4194   1.540   3.998   3.849
 1393SOL    HW1 4195   1.479   3.923   3.872
 1393SOL    HW2 4196   1.562   4.050   3.932
 1394SOL     OW 4197   1.303   4.562   3.766
 1394SOL    HW1 4198   1.337   4.469   3.781
 1394SOL    HW2 4199   1.321   4.589   3.671
 1395SOL     OW 4200   0.319   4.534   4.673
 1395SOL    HW1 4201   0.412   4.570   4.678
 1395SOL    HW2 4202   0.313   4.449   4.725
 1396SOL     OW 4203   0.339   4.233   4.730
 1396SOL    HW1 4204   0.287   4.150   4.713
 1396SOL    HW2 4205   0.416   4.238   4.666
 1397SOL     OW 4206   1.002   4.520   4.962
 1397SOL    HW1 4207   1.043   4.488   5.048
 1397SOL    HW2 4208   0.906   4.493   4.959
 1398SOL     OW 4209   0.815   4.296   4.049
 1398SOL    HW1 4210   0.822   4.207   4.003
 1398SOL    HW2 4211   0.721   4.330   4.041
 1399SOL     OW 4212   0.671   4.188   4.993
 1399SOL    HW1 4213   0.637   4.099   4.963
 1399SOL    HW2 4214   0.697   4.242   4.913
 1400SOL     OW 4215   0.473   4.224   3.915
 1400SOL    HW1 4216   0.534   4.304   3.919
 1400SOL    HW2 4217   0.378   4.255   3.922
 1401SOL     OW 4218   1.302   4.579   4.033
 1401SOL    HW1 4219   1.216   4.548   4.075
 1401SOL    HW2 4220   1.298   4.565   3.934
 1402SOL     OW 4221   1.726   3.859   4.247
 1402SOL    HW1 4222   1.799   3.842   4.180
 1402SOL    HW2 4223   1.695   3.772   4.285
 1403SOL     OW 4224   1.280   4.651   4.396
 1403SOL    HW1 4225   1.340   4.570   4.398
 1403SOL    HW2 4226   1.320   4.720   4.336
 1404SOL     OW 4227   1.841   3.899   4.687
 1404SOL    HW1 4228   1.880   3.814   4.651
 1404SOL    HW2 4229   1.743   3.901   4.668
 1405SOL     OW 4230   0.263   4.050   4.444
 1405SOL    HW1 4231   0.184   4.101   4.410
 1405SOL    HW2 4232   0.254   4.035   4.542
 1406SOL     OW 4233   0.916   4.634   4.015
 1406SOL    HW1 4234   0.979   4.672   3.947
 1406SOL    HW2 4235   0.956   4.551   4.054
 1407SOL     OW 4236   1.014   3.960   4.695
 1407SOL    HW1 4237   1.006   3.924   4.602
 1407SOL    HW2 4238   1.012   3.884   4.760
 1408SOL     OW 4239   0.075   4.069   3.757
 1408SOL    HW1 4240  -0.017   4.041   3.728
 1408SOL    HW2 4241   0.106   4.146   3.701
 1409SOL     OW 4242   0.072   3.890   4.042
 1409SOL    HW1 4243   0.055   3.973   3.988
 1409SOL    HW2 4244   0.162   3.853   4.020
 1410SOL     OW 4245   1.183   5.059   3.843
 1410SOL    HW1 4246   1.084   5.048   3.845
 1410SOL    HW2 4247   1.217   5.074   3.936
 1411SOL     OW 4248   1.674   4.607   4.978
 1411SOL    HW1 4249   1.647   4.518   4.941
 1411SOL    HW2 4250   1.675   4.675   4.905
 1412SOL     OW 4251   1.225   4.049   4.173
 1412SOL    HW1 4252   1.290   3.975   4.162
 1412SOL    HW2 4253   1.245   4.099   4.257
 1413SOL     OW 4254   0.594   4.469   4.376
 1413SOL    HW1 4255   0.644   4.554   4.357
 1413SOL    HW2 4256   0.506   4.471   4.328
 1414SOL     OW 4257   0.859   4.680   4.585
 1414SOL    HW1 4258   0.913   4.611   4.633
 1414SOL    HW2 4259   0.827   4.749   4.651
 1415SOL     OW 4260   1.083   4.708   3.811
 1415SOL    HW1 4261   1.060   4.761   3.729
 1415SOL    HW2 4262   1.164   4.652   3.792
 1416SOL     OW 4263   0.079   4.964   4.377
 1416SOL    HW1 4264   0.078   4.917   4.465
 1416SOL    HW2 4265   0.161   4.936   4.326
 1417SOL     OW 4266   1.824   3.916   4.951
 1417SOL    HW1 4267   1.820   3.826   4.995
 1417SOL    HW2 4268   1.827   3.905   4.852
 1418SOL     OW 4269   0.428   4.148   4.244
 1418SOL    HW1 4270   0.458   4.076   4.182
 1418SOL    HW2 4271   0.389   4.108   4.327
 1419SOL     OW 4272   1.352   3.776   3.892
 1419SOL    HW1 4273   1.387   3.735   3.808
 1419SOL    HW2 4274   1.262   3.738   3.912
 1420SOL     OW 4275   1.300   4.177   4.415
 1420SOL    HW1 4276   1.241   4.257   4.419
 1420SOL    HW2 4277   1.315   4.142   4.508
 1421SOL     OW 4278   1.593   3.945   4.606
 1421SOL    HW1 4279   1.509   3.944   4.660
 1421SOL    HW2 4280   1.595   4.028   4.550
 1422SOL     OW 4281   0.039   4.801   4.024
 1422SOL    HW1 4282   0.138   4.790   4.015
 1422SOL    HW2 4283  -0.001   4.715   4.056
 1423SOL     OW 4284   2.092   0.628   0.113
 1423SOL    HW1 4285   1.999   0.626   0.150
 1423SOL    HW2 4286   2.093   0.589   0.021
 1424SOL     OW 4287   2.087   0.275   0.996
 1424SOL    HW1 4288   2.122   0.258   1.088
 1424SOL    HW2 4289   1.999   0.230   0.984
 1425SOL     OW 4290   1.881   0.368   0.647
 1425SOL    HW1 4291   1.799   0.411   0.686
 1425SOL    HW2 4292   1.853   0.295   0.584
 1426SOL     OW 4293   2.431   1.275   1.165
 1426SOL    HW1 4294   2.338   1.268   1.128
 1426SOL    HW2 4295   2.442   1.364   1.209
 1427SOL     OW 4296   3.417   1.511   0.703
 1427SOL    HW1 4297   3.360   1.495   0.784
 1427SOL    HW2 4298   3.358   1.521   0.623
 1428SOL     OW 4299   2.997   0.703   0.717
 1428SOL    HW1 4300   3.054   0.781   0.692
 1428SOL    HW2 4301   2.937   0.729   0.793
 1429SOL     OW 4302   3.617   0.607   0.231
 1429SOL    HW1 4303   3.605   0.594   0.132
 1429SOL    HW2 4304   3.587   0.526   0.280
 1430SOL     OW 4305   2.630   1.144   1.023
 1430SOL    HW1 4306   2.552   1.161   1.083
 1430SOL    HW2 4307   2.664   1.231   0.987
 1431SOL     OW 4308   2.712   0.798   1.823
 1431SOL    HW1 4309   2.708   0.874   1.888
 1431SOL    HW2 4310   2.734   0.834   1.732
 1432SOL     OW 4311   2.547   1.012   0.665
 1432SOL    HW1 4312   2.616   0.996   0.735
 1432SOL    HW2 4313   2.474   1.069   0.703
 1433SOL     OW 4314   2.548   1.161   1.803
 1433SOL    HW1 4315   2.608   1.240   1.817
 1433SOL    HW2 4316   2.462   1.192   1.762
 1434SOL     OW 4317   2.197   1.435   1.061
 1434SOL    HW1 4318   2.119   1.404   1.008
 1434SOL    HW2 4319   2.255   1.493   1.004
 1435SOL     OW 4320   3.322   1.505   1.339
 1435SOL    HW1 4321   3.346   1.599   1.365
 1435SOL    HW2 4322   3.306   1.451   1.421
 1436SOL     OW 4323   2.300   0.392   1.499
 1436SOL    HW1 4324   2.382   0.336   1.508
 1436SOL    HW2 4325   2.219   0.334   1.503
 1437SOL     OW 4326   3.465   0.447   0.737
 1437SOL    HW1 4327   3.391   0.493   0.687
 1437SOL    HW2 4328   3.516   0.515   0.790
 1438SOL     OW 4329   2.093   1.713   0.483
 1438SOL    HW1 4330   2.127   1.790   0.537
 1438SOL    HW2 4331   2.137   1.713   0.393
 1439SOL     OW 4332   2.989   1.341   1.690
 1439SOL    HW1 4333   3.036   1.341   1.778
 1439SOL    HW2 4334   2.941   1.254   1.679
 1440SOL     OW 4335   2.092   1.434   0.538
 1440SOL    HW1 4336   2.066   1.530   0.538
 1440SOL    HW2 4337   2.021   1.380   0.583
 1441SOL     OW 4338   2.102   1.091   0.886
 1441SOL    HW1 4339   2.116   1.007   0.938
 1441SOL    HW2 4340   2.047   1.155   0.941
 1442SOL     OW 4341   2.482   1.786   1.439
 1442SOL    HW1 4342   2.390   1.769   1.474
 1442SOL    HW2 4343   2.510   1.878   1.465
 1443SOL     OW 4344   2.468   0.964   0.123
 1443SOL    HW1 4345   2.475   1.048   0.069
 1443SOL    HW2 4346   2.514   0.977   0.211
 1444SOL     OW 4347   3.456   0.114   1.480
 1444SOL    HW1 4348   3.438   0.181   1.408
 1444SOL    HW2 4349   3.453   0.160   1.569
 1445SOL     OW 4350   1.984   0.643   0.563
 1445SOL    HW1 4351   1.939   0.555   0.580
 1445SOL    HW2 4352   1.983   0.697   0.647
 1446SOL     OW 4353   3.704   1.767   0.359
 1446SOL    HW1 4354   3.758   1.738   0.439
 1446SOL    HW2 4355   3.734   1.857   0.330
 1447SOL     OW 4356   1.889   1.596   0.117
 1447SOL    HW1 4357   1.870   1.500   0.138
 1447SOL    HW2 4358   1.856   1.654   0.192
 1448SOL     OW 4359   3.551   0.922   0.612
 1448SOL    HW1 4360   3.646   0.893   0.620
 1448SOL    HW2 4361   3.543   0.987   0.537
 1449SOL     OW 4362   3.503   1.108   0.432
 1449SOL    HW1 4363   3.589   1.110   0.380
 1449SOL    HW2 4364   3.517   1.155   0.520
 1450SOL     OW 4365   1.975   0.737   1.597
 1450SOL    HW1 4366   2.063   0.724   1.642
 1450SOL    HW2 4367   1.962   0.834   1.575
 1451SOL     OW 4368   2.475   1.365   0.726
 1451SOL    HW1 4369   2.426   1.278   0.735
 1451SOL    HW2 4370   2.452   1.408   0.639
 1452SOL     OW 4371   3.155   1.228   1.423
 1452SOL    HW1 4372   3.192   1.155   1.365
 1452SOL    HW2 4373   3.207   1.233   1.508
 1453SOL     OW 4374   2.671   0.004   0.502
 1453SOL    HW1 4375   2.711   0.095   0.493
 1453SOL    HW2 4376   2.571   0.012   0.508
 1454SOL     OW 4377   2.059   0.976   1.264
 1454SOL    HW1 4378   2.148   0.931   1.250
 1454SOL    HW2 4379   1.986   0.911   1.245
 1455SOL     OW 4380   3.387   0.999   0.190
 1455SOL    HW1 4381   3.324   0.923   0.203
 1455SOL    HW2 4382   3.435   1.017   0.276
 1456SOL     OW 4383   3.049   1.792   1.616
 1456SOL    HW1 4384   3.073   1.852   1.540
 1456SOL    HW2 4385   3.056   1.697   1.586
 1457SOL     OW 4386   2.179   0.251   1.801
 1457SOL    HW1 4387   2.250   0.322   1.807
 1457SOL    HW2 4388   2.091   0.290   1.829
 1458SOL     OW 4389   3.328   1.417   0.953
 1458SOL    HW1 4390   3.269   1.423   1.033
 1458SOL    HW2 4391   3.313   1.329   0.907
 1459SOL     OW 4392   3.529   1.714   0.572
 1459SOL    HW1 4393   3.488   1.691   0.484
 1459SOL    HW2 4394   3.511   1.640   0.637
 1460SOL     OW 4395   2.460   0.729   0.270
 1460SOL    HW1 4396   2.484   0.798   0.202
 1460SOL    HW2 4397   2.382   0.762   0.324
 1461SOL     OW 4398   3.143   0.345   0.944
 1461SOL    HW1 4399   3.057   0.295   0.931
 1461SOL    HW2 4400   3.205   0.291   1.000
 1462SOL     OW 4401   3.438   1.662   0.307
 1462SOL    HW1 4402   3.527   1.708   0.310
 1462SOL    HW2 4403   3.417   1.638   0.212
 1463SOL     OW 4404   2.669   0.605   1.465
 1463SOL    HW1 4405   2.622   0.602   1.554
 1463SOL    HW2 4406   2.618   0.550   1.399
 1464SOL     OW 4407   3.256   0.469   1.674
 1464SOL    HW1 4408   3.236   0.512   1.762
 1464SOL    HW2 4409   3.334   0.407   1.683
 1465SOL     OW 4410   2.835   0.890   1.572
 1465SOL    HW1 4411   2.881   0.806   1.543
 1465SOL    HW2 4412   2.779   0.924   1.497
 1466SOL     OW 4413   2.853   0.410   1.242
 1466SOL    HW1 4414   2.776   0.444   1.296
 1466SOL    HW2 4415   2.819   0.359   1.163
 1467SOL     OW 4416   2.903   0.701   0.429
 1467SOL    HW1 4417   2.929   0.697   0.525
 1467SOL    HW2 4418   2.818   0.650   0.415
 1468SOL     OW 4419   1.938   0.811   0.789
 1468SOL    HW1 4420   2.037   0.799   0.798
 1468SOL    HW2 4421   1.914   0.906   0.810
 1469SOL     OW 4422   1.992   1.821   1.571
 1469SOL    HW1 4423   1.982   1.806   1.670
 1469SOL    HW2 4424   1.906   1.857   1.535
 1470SOL     OW 4425   2.727   0.348   0.195
 1470SOL    HW1 4426   2.786   0.411   0.146
 1470SOL    HW2 4427   2.746   0.254   0.166
 1471SOL     OW 4428   3.581   0.585   1.831
 1471SOL    HW1 4429   3.555   0.674   1.795
 1471SOL    HW2 4430   3.579   0.517   1.758
 1472SOL     OW 4431   3.224   1.144   0.545
 1472SOL    HW1 4432   3.307   1.115   0.497
 1472SOL    HW2 4433   3.175   1.211   0.489
 1473SOL     OW 4434   2.412   0.196   0.885
 1473SOL    HW1 4435   2.407   0.191   0.985
 1473SOL    HW2 4436   2.414   0.292   0.856
 1474SOL     OW 4437   2.870   1.456   0.477
 1474SOL    HW1 4438   2.824   1.528   0.425
 1474SOL    HW2 4439   2.866   1.476   0.575
 1475SOL     OW 4440   2.213   1.801   0.853
 1475SOL    HW1 4441   2.263   1.715   0.859
 1475SOL    HW2 4442   2.278   1.878   0.850
 1476SOL     OW 4443   3.657   1.066   0.873
 1476SOL    HW1 4444   3.595   1.051   0.797
 1476SOL    HW2 4445   3.605   1.077   0.958
 1477SOL     OW 4446   3.089   1.550   1.506
 1477SOL    HW1 4447   3.095   1.473   1.570
 1477SOL    HW2 4448   3.037   1.524   1.426
 1478SOL     OW 4449   2.183   0.943   0.242
 1478SOL    HW1 4450   2.265   0.982   0.200
 1478SOL    HW2 4451   2.156   0.861   0.193
 1479SOL     OW 4452   3.320   0.735   0.728
 1479SOL    HW1 4453   3.315   0.670   0.803
 1479SOL    HW2 4454   3.400   0.794   0.741
 1480SOL     OW 4455   2.323   1.266   1.727
 1480SOL    HW1 4456   2.273   1.267   1.641
 1480SOL    HW2 4457   2.260   1.248   1.803
 1481SOL     OW 4458   2.973   1.776   0.237
 1481SOL    HW1 4459   2.913   1.714   0.287
 1481SOL    HW2 4460   3.004   1.732   0.152
 1482SOL     OW 4461   2.064   0.285   1.498
 1482SOL    HW1 4462   1.984   0.345   1.485
 1482SOL    HW2 4463   2.054   0.236   1.584
 1483SOL     OW 4464   3.494   1.377   0.081
 1483SOL    HW1 4465   3.462   1.471   0.071
 1483SOL    HW2 4466   3.418   1.314   0.069
 1484SOL     OW 4467   2.326   1.743   0.323
 1484SOL    HW1 4468   2.359   1.782   0.409
 1484SOL    HW2 4469   2.402   1.736   0.258
 1485SOL     OW 4470   3.262   0.107   0.426
 1485SOL    HW1 4471   3.238   0.070   0.336
 1485SOL    HW2 4472   3.361   0.123   0.430
 1486SOL     OW 4473   2.111   1.785   1.241
 1486SOL    HW1 4474   2.168   1.720   1.291
 1486SOL    HW2 4475   2.095   1.752   1.148
 1487SOL     OW 4476   2.802   1.698   0.904
 1487SOL    HW1 4477   2.882   1.641   0.925
 1487SOL    HW2 4478   2.753   1.658   0.827
 1488SOL     OW 4479   2.244   0.700   0.480
 1488SOL    HW1 4480   2.289   0.610   0.477
 1488SOL    HW2 4481   2.150   0.689   0.513
 1489SOL     OW 4482   3.409   0.222   1.729
 1489SOL    HW1 4483   3.404   0.259   1.821
 1489SOL    HW2 4484   3.337   0.153   1.717
 1490SOL     OW 4485   2.476   0.122   0.117
 1490SOL    HW1 4486   2.574   0.100   0.124
 1490SOL    HW2 4487   2.445   0.105   0.024
 1491SOL     OW 4488   2.643   0.264   1.749
 1491SOL    HW1 4489   2.710   0.203   1.792
 1491SOL    HW2 4490   2.570   0.283   1.814
 1492SOL     OW 4491   2.750   1.514   1.195
 1492SOL    HW1 4492   2.727   1.489   1.101
 1492SOL    HW2 4493   2.811   1.445   1.234
 1493SOL     OW 4494   3.213   0.590   1.433
 1493SOL    HW1 4495   3.241   0.547   1.518
 1493SOL    HW2 4496   3.238   0.686   1.434
 1494SOL     OW 4497   2.665   1.402   0.924
 1494SOL    HW1 4498   2.755   1.416   0.882
 1494SOL    HW2 4499   2.594   1.404   0.853
 1495SOL     OW 4500   2.784   0.503   0.899
 1495SOL    HW1 4501   2.759   0.494   0.803
 1495SOL    HW2 4502   2.832   0.421   0.930
 1496SOL     OW 4503   2.401   0.064   0.512
 1496SOL    HW1 4504   2.320   0.065   0.570
 1496SOL    HW2 4505   2.404   0.147   0.457
 1497SOL     OW 4506   3.296   1.188   0.041
 1497SOL    HW1 4507   3.328   1.112   0.098
 1497SOL    HW2 4508   3.204   1.215   0.071
 1498SOL     OW 4509   2.159   0.035   0.171
 1498SOL    HW1 4510   2.208   0.119   0.150
 1498SOL    HW2 4511   2.221  -0.030   0.216
 1499SOL     OW 4512   2.797   0.236   0.480
 1499SOL    HW1 4513   2.749   0.277   0.402
 1499SOL    HW2 4514   2.896   0.234   0.461
 1500SOL     OW 4515   2.938   0.683   1.464
 1500SOL    HW1 4516   2.858   0.622   1.467
 1500SOL    HW2 4517   3.019   0.630   1.440
 1501SOL     OW 4518   3.089   1.570   0.793
 1501SOL    HW1 4519   3.110   1.644   0.728
 1501SOL    HW2 4520   3.157   1.570   0.866
 1502SOL     OW 4521   2.321   1.152   0.741
 1502SOL    HW1 4522   2.250   1.125   0.806
 1502SOL    HW2 4523   2.295   1.124   0.648
 1503SOL     OW 4524   3.133   1.797   0.591
 1503SOL    HW1 4525   3.177   1.861   0.527
 1503SOL    HW2 4526   3.083   1.849   0.661
 1504SOL     OW 4527   2.894   0.549   0.016
 1504SOL    HW1 4528   2.853   0.631  -0.023
 1504SOL    HW2 4529   2.958   0.575   0.089
 1505SOL     OW 4530   1.940   0.556   1.386
 1505SOL    HW1 4531   2.032   0.555   1.345
 1505SOL    HW2 4532   1.934   0.630   1.453
 1506SOL     OW 4533   2.423   0.222   1.147
 1506SOL    HW1 4534   2.461   0.138   1.184
 1506SOL    HW2 4535   2.335   0.241   1.191
 1507SOL     OW 4536   2.728   0.454   0.642
 1507SOL    HW1 4537   2.696   0.526   0.580
 1507SOL    HW2 4538   2.752   0.373   0.589
 1508SOL     OW 4539   2.879   0.039   0.753
 1508SOL    HW1 4540   2.807   0.044   0.684
 1508SOL    HW2 4541   2.855  -0.030   0.822
 1509SOL     OW 4542   3.291   1.173   0.867
 1509SOL    HW1 4543   3.236   1.089   0.860
 1509SOL    HW2 4544   3.317   1.202   0.775
 1510SOL     OW 4545   3.328   0.590   0.992
 1510SOL    HW1 4546   3.298   0.495   0.999
 1510SOL    HW2 4547   3.401   0.606   1.058
 1511SOL     OW 4548   3.719   0.833   0.377
 1511SOL    HW1 4549   3.761   0.769   0.441
 1511SOL    HW2 4550   3.681   0.782   0.299
 1512SOL     OW 4551   2.350   1.385   0.174
 1512SOL    HW1 4552   2.263   1.370   0.221
 1512SOL    HW2 4553   2.333   1.411   0.079
 1513SOL     OW 4554   3.526   1.280   0.657
 1513SOL    HW1 4555   3.625   1.288   0.671
 1513SOL    HW2 4556   3.481   1.364   0.688
 1514SOL     OW 4557   3.252   0.575   0.078
 1514SOL    HW1 4558   3.198   0.554   0.159
 1514SOL    HW2 4559   3.343   0.534   0.087
 1515SOL     OW 4560   2.389   0.256   0.328
 1515SOL    HW1 4561   2.416   0.197   0.253
 1515SOL    HW2 4562   2.389   0.351   0.297
 1516SOL     OW 4563   3.616   1.223   1.588
 1516SOL    HW1 4564   3.707   1.184   1.575
 1516SOL    HW2 4565   3.624   1.319   1.612
 1517SOL     OW 4566   2.926   1.347   1.340
 1517SOL    HW1 4567   2.846   1.324   1.395
 1517SOL    HW2 4568   3.009   1.321   1.389
 1518SOL     OW 4569   3.454   1.629   1.625
 1518SOL    HW1 4570   3.481   1.663   1.535
 1518SOL    HW2 4571   3.533   1.591   1.671
 1519SOL     OW 4572   2.973   1.195   1.100
 1519SOL    HW1 4573   2.933   1.239   1.181
 1519SOL    HW2 4574   2.932   1.232   1.017
 1520SOL     OW 4575   3.500   1.099   1.079
 1520SOL    HW1 4576   3.505   1.180   1.138
 1520SOL    HW2 4577   3.414   1.101   1.028
 1521SOL     OW 4578   2.777   0.089   1.402
 1521SOL    HW1 4579   2.802   0.069   1.307
 1521SOL    HW2 4580   2.849   0.145   1.444
 1522SOL     OW 4581   2.842   1.116   1.719
 1522SOL    HW1 4582   2.743   1.122   1.729
 1522SOL    HW2 4583   2.865   1.036   1.663
 1523SOL     OW 4584   2.567   1.050   0.368
 1523SOL    HW1 4585   2.553   1.057   0.467
 1523SOL    HW2 4586   2.651   0.999   0.350
 1524SOL     OW 4587   2.272   0.813   1.251
 1524SOL    HW1 4588   2.358   0.825   1.301
 1524SOL    HW2 4589   2.230   0.726   1.278
 1525SOL     OW 4590   3.136   0.386   1.262
 1525SOL    HW1 4591   3.157   0.460   1.326
 1525SOL    HW2 4592   3.047   0.403   1.219
 1526SOL     OW 4593   1.926   1.564   1.331
 1526SOL    HW1 4594   1.880   1.646   1.297
 1526SOL    HW2 4595   2.024   1.583   1.340
 1527SOL     OW 4596   2.229   1.100   0.501
 1527SOL    HW1 4597   2.222   1.183   0.445
 1527SOL    HW2 4598   2.233   1.020   0.441
 1528SOL     OW 4599   2.428   0.537   0.865
 1528SOL    HW1 4600   2.440   0.603   0.791
 1528SOL    HW2 4601   2.474   0.571   0.948
 1529SOL     OW 4602   3.114   1.348   0.388
 1529SOL    HW1 4603   3.164   1.425   0.428
 1529SOL    HW2 4604   3.019   1.350   0.420
 1530SOL     OW 4605   3.134   1.445   1.142
 1530SOL    HW1 4606   3.181   1.458   1.229
 1530SOL    HW2 4607   3.068   1.371   1.151
 1531SOL     OW 4608   3.444   0.639   0.472
 1531SOL    HW1 4609   3.413   0.700   0.545
 1531SOL    HW2 4610   3.494   0.691   0.403
 1532SOL     OW 4611   2.216   1.510   1.329
 1532SOL    HW1 4612   2.195   1.466   1.242
 1532SOL    HW2 4613   2.313   1.536   1.332
 1533SOL     OW 4614   2.264   0.751   1.598
 1533SOL    HW1 4615   2.332   0.806   1.551
 1533SOL    HW2 4616   2.304   0.663   1.625
 1534SOL     OW 4617   3.449   0.779   1.670
 1534SOL    HW1 4618   3.357   0.817   1.665
 1534SOL    HW2 4619   3.509   0.826   1.605
 1535SOL     OW 4620   2.875   0.105   1.770
 1535SOL    HW1 4621   2.881   0.190   1.718
 1535SOL    HW2 4622   2.907   0.029   1.713
 1536SOL     OW 4623   2.366   0.050   1.740
 1536SOL    HW1 4624   2.324  -0.007   1.670
 1536SOL    HW2 4625   2.300   0.119   1.772
 1537SOL     OW 4626   2.435   0.870   1.029
 1537SOL    HW1 4627   2.479   0.959   1.020
 1537SOL    HW2 4628   2.372   0.870   1.106
 1538SOL     OW 4629   3.222   0.862   1.045
 1538SOL    HW1 4630   3.147   0.862   0.979
 1538SOL    HW2 4631   3.259   0.770   1.054
 1539SOL     OW 4632   3.071   0.525   0.275
 1539SOL    HW1 4633   3.084   0.441   0.329
 1539SOL    HW2 4634   3.042   0.599   0.335
 1540SOL     OW 4635   2.169   0.213   1.231
 1540SOL    HW1 4636   2.146   0.250   1.321
 1540SOL    HW2 4637   2.139   0.118   1.225
 1541SOL     OW 4638   1.899   1.310   1.282
 1541SOL    HW1 4639   1.952   1.261   1.350
 1541SOL    HW2 4640   1.921   1.408   1.287
 1542SOL     OW 4641   2.594   0.634   1.064
 1542SOL    HW1 4642   2.653   0.608   0.988
 1542SOL    HW2 4643   2.566   0.730   1.053
 1543SOL     OW 4644   3.590   0.935   1.854
 1543SOL    HW1 4645   3.544   0.928   1.765
 1543SOL    HW2 4646   3.528   0.979   1.920
 1544SOL     OW 4647   2.169   0.063   0.618
 1544SOL    HW1 4648   2.158   0.157   0.651
 1544SOL    HW2 4649   2.164   0.000   0.695
 1545SOL     OW 4650   3.484   0.367   0.374
 1545SOL    HW1 4651   3.486   0.291   0.438
 1545SOL    HW2 4652   3.436   0.444   0.414
 1546SOL     OW 4653   2.885   0.766   0.966
 1546SOL    HW1 4654   2.900   0.787   1.062
 1546SOL    HW2 4655   2.855   0.671   0.957
 1547SOL     OW 4656   2.842   1.573   1.700
 1547SOL    HW1 4657   2.822   1.617   1.612
 1547SOL    HW2 4658   2.881   1.482   1.684
 1548SOL     OW 4659   3.721   1.518   1.605
 1548SOL    HW1 4660   3.735   1.545   1.510
 1548SOL    HW2 4661   3.804   1.540   1.658
 1549SOL     OW 4662   2.212   0.898   1.804
 1549SOL    HW1 4663   2.288   0.942   1.852
 1549SOL    HW2 4664   2.247   0.851   1.722
 1550SOL     OW 4665   3.402   0.274   0.125
 1550SOL    HW1 4666   3.341   0.199   0.148
 1550SOL    HW2 4667   3.424   0.326   0.208
 1551SOL     OW 4668   3.165   0.838   0.042
 1551SOL    HW1 4669   3.199   0.745   0.057
 1551SOL    HW2 4670   3.183   0.865  -0.053
 1552SOL     OW 4671   2.930   1.333   0.849
 1552SOL    HW1 4672   2.937   1.249   0.794
 1552SOL    HW2 4673   2.992   1.402   0.813
 1553SOL     OW 4674   2.181   0.810   0.949
 1553SOL    HW1 4675   2.274   0.846   0.954
 1553SOL    HW2 4676   2.175   0.725   1.001
 1554SOL     OW 4677   2.201   0.509   1.006
 1554SOL    HW1 4678   2.149   0.426   0.989
 1554SOL    HW2 4679   2.278   0.514   0.942
 1555SOL     OW 4680   3.000   0.380   1.678
 1555SOL    HW1 4681   2.955   0.443   1.742
 1555SOL    HW2 4682   3.093   0.411   1.661
 1556SOL     OW 4683   3.022   0.207   1.477
 1556SOL    HW1 4684   3.022   0.271   1.554
 1556SOL    HW2 4685   3.050   0.255   1.394
 1557SOL     OW 4686   1.870   1.326   0.200
 1557SOL    HW1 4687   1.777   1.347   0.169
 1557SOL    HW2 4688   1.880   1.227   0.213
 1558SOL     OW 4689   1.950   1.801   0.927
 1558SOL    HW1 4690   1.908   1.715   0.900
 1558SOL    HW2 4691   2.044   1.804   0.893
 1559SOL     OW 4692   2.366   1.568   0.910
 1559SOL    HW1 4693   2.432   1.642   0.919
 1559SOL    HW2 4694   2.410   1.489   0.868
 1560SOL     OW 4695   2.864   0.796   1.238
 1560SOL    HW1 4696   2.905   0.764   1.324
 1560SOL    HW2 4697   2.768   0.769   1.235
 1561SOL     OW 4698   1.902   0.544   1.114
 1561SOL    HW1 4699   1.987   0.511   1.073
 1561SOL    HW2 4700   1.915   0.559   1.212
 1562SOL     OW 4701   2.051   0.520   1.722
 1562SOL    HW1 4702   2.110   0.480   1.652
 1562SOL    HW2 4703   1.993   0.591   1.681
 1563SOL     OW 4704   3.231   0.950   1.660
 1563SOL    HW1 4705   3.270   1.039   1.680
 1563SOL    HW2 4706   3.241   0.930   1.563
 1564SOL     OW 4707   2.677   0.572   0.325
 1564SOL    HW1 4708   2.684   0.483   0.279
 1564SOL    HW2 4709   2.583   0.606   0.317
 1565SOL     OW 4710   3.519   0.604   1.206
 1565SOL    HW1 4711   3.481   0.535   1.268
 1565SOL    HW2 4712   3.601   0.568   1.162
 1566SOL     OW 4713   2.114   1.564   1.744
 1566SOL    HW1 4714   2.084   1.621   1.820
 1566SOL    HW2 4715   2.107   1.467   1.770
 1567SOL     OW 4716   2.533   0.464   1.269
 1567SOL    HW1 4717   2.499   0.375   1.239
 1567SOL    HW2 4718   2.559   0.518   1.189
 1568SOL     OW 4719   2.792   1.678   1.465
 1568SOL    HW1 4720   2.768   1.660   1.370
 1568SOL    HW2 4721   2.822   1.772   1.475
 1569SOL     OW 4722   2.335   0.500   0.191
 1569SOL    HW1 4723   2.396   0.580   0.195
 1569SOL    HW2 4724   2.240   0.531   0.198
 1570SOL     OW 4725   2.021   1.137   1.466
 1570SOL    HW1 4726   2.043   1.076   1.542
 1570SOL    HW2 4727   2.031   1.088   1.380
 1571SOL     OW 4728   3.209   1.059   1.234
 1571SOL    HW1 4729   3.233   0.996   1.160
 1571SOL    HW2 4730   3.119   1.099   1.216
 1572SOL     OW 4731   3.164   0.855   0.309
 1572SOL    HW1 4732   3.078   0.824   0.351
 1572SOL    HW2 4733   3.160   0.841   0.210
 1573SOL     OW 4734   3.621   1.747   1.154
 1573SOL    HW1 4735   3.682   1.777   1.081
 1573SOL    HW2 4736   3.583   1.658   1.132
 1574SOL     OW 4737   3.114   1.731   1.128
 1574SOL    HW1 4738   3.198   1.736   1.074
 1574SOL    HW2 4739   3.091   1.635   1.146
 1575SOL     OW 4740   1.945   1.258   1.022
 1575SOL    HW1 4741   1.940   1.257   1.122
 1575SOL    HW2 4742   1.862   1.217   0.984
 1576SOL     OW 4743   2.550   1.662   1.716
 1576SOL    HW1 4744   2.494   1.743   1.725
 1576SOL    HW2 4745   2.602   1.666   1.630
 1577SOL     OW 4746   2.765   0.086   0.133
 1577SOL    HW1 4747   2.816   0.087   0.047
 1577SOL    HW2 4748   2.821   0.044   0.204
 1578SOL     OW 4749   3.588   0.135   0.523
 1578SOL    HW1 4750   3.661   0.118   0.456
 1578SOL    HW2 4751   3.557   0.048   0.561
 1579SOL     OW 4752   3.250   1.573   0.477
 1579SOL    HW1 4753   3.317   1.585   0.403
 1579SOL    HW2 4754   3.210   1.662   0.500
 1580SOL     OW 4755   1.992   1.794   1.851
 1580SOL    HW1 4756   1.951   1.720   1.904
 1580SOL    HW2 4757   2.056   1.845   1.909
 1581SOL     OW 4758   3.142   0.927   0.672
 1581SOL    HW1 4759   3.202   0.846   0.674
 1581SOL    HW2 4760   3.182   0.996   0.612
 1582SOL     OW 4761   2.692   1.273   1.422
 1582SOL    HW1 4762   2.687   1.306   1.517
 1582SOL    HW2 4763   2.606   1.292   1.376
 1583SOL     OW 4764   2.534   1.616   0.154
 1583SOL    HW1 4765   2.543   1.626   0.055
 1583SOL    HW2 4766   2.494   1.527   0.175
 1584SOL     OW 4767   3.512   1.720   1.394
 1584SOL    HW1 4768   3.565   1.730   1.310
 1584SOL    HW2 4769   3.485   1.810   1.428
 1585SOL     OW 4770   3.703   0.175   0.963
 1585SOL    HW1 4771   3.742   0.090   0.927
 1585SOL    HW2 4772   3.605   0.177   0.944
 1586SOL     OW 4773   2.125   0.326   0.720
 1586SOL    HW1 4774   2.046   0.377   0.686
 1586SOL    HW2 4775   2.116   0.311   0.818
 1587SOL     OW 4776   3.056   1.612   0.031
 1587SOL    HW1 4777   3.062   1.519   0.068
 1587SOL    HW2 4778   2.997   1.612  -0.049
 1588SOL     OW 4779   2.684   1.002   1.372
 1588SOL    HW1 4780   2.724   1.001   1.280
 1588SOL    HW2 4781   2.694   1.094   1.412
 1589SOL     OW 4782   2.778   0.910   0.291
 1589SOL    HW1 4783   2.841   0.948   0.223
 1589SOL    HW2 4784   2.818   0.827   0.330
 1590SOL     OW 4785   3.366   1.607   0.044
 1590SOL    HW1 4786   3.274   1.644   0.051
 1590SOL    HW2 4787   3.404   1.627  -0.046
 1591SOL     OW 4788   2.234   1.288   1.490
 1591SOL    HW1 4789   2.221   1.381   1.456
 1591SOL    HW2 4790   2.150   1.236   1.477
 1592SOL     OW 4791   3.476   1.292   1.289
 1592SOL    HW1 4792   3.536   1.295   1.369
 1592SOL    HW2 4793   3.401   1.356   1.302
 1593SOL     OW 4794   2.901   1.098   0.696
 1593SOL    HW1 4795   2.831   1.051   0.750
 1593SOL    HW2 4796   2.960   1.030   0.653
 1594SOL     OW 4797   2.876   0.236   0.971
 1594SOL    HW1 4798   2.868   0.200   0.878
 1594SOL    HW2 4799   2.874   0.160   1.036
 1595SOL     OW 4800   2.452   1.487   0.491
 1595SOL    HW1 4801   2.494   1.429   0.421
 1595SOL    HW2 4802   2.408   1.566   0.447
 1596SOL     OW 4803   3.571   0.385   1.381
 1596SOL    HW1 4804   3.644   0.454   1.385
 1596SOL    HW2 4805   3.599   0.310   1.322
 1597SOL     OW 4806   2.117   1.348   0.290
 1597SOL    HW1 4807   2.021   1.349   0.263
 1597SOL    HW2 4808   2.129   1.401   0.374
 1598SOL     OW 4809   1.967   1.013   1.726
 1598SOL    HW1 4810   1.890   0.980   1.780
 1598SOL    HW2 4811   2.052   0.983   1.768
 1599SOL     OW 4812   2.534   0.203   1.489
 1599SOL    HW1 4813   2.624   0.187   1.449
 1599SOL    HW2 4814   2.542   0.208   1.588
 1600SOL     OW 4815   1.937   0.345   0.033
 1600SOL    HW1 4816   1.845   0.317   0.004
 1600SOL    HW2 4817   1.968   0.422  -0.023
 1601SOL     OW 4818   3.302   0.856   1.398
 1601SOL    HW1 4819   3.245   0.908   1.335
 1601SOL    HW2 4820   3.398   0.868   1.374
 1602SOL     OW 4821   1.934   0.166   0.318
 1602SOL    HW1 4822   1.917   0.249   0.264
 1602SOL    HW2 4823   2.024   0.129   0.296
 1603SOL     OW 4824   3.045   1.335   0.119
 1603SOL    HW1 4825   2.946   1.324   0.121
 1603SOL    HW2 4826   3.079   1.350   0.212
 1604SOL     OW 4827   2.475   0.842   1.431
 1604SOL    HW1 4828   2.531   0.923   1.414
 1604SOL    HW2 4829   2.534   0.762   1.434
 1605SOL     OW 4830   3.355   1.767   0.959
 1605SOL    HW1 4831   3.388   1.831   0.890
 1605SOL    HW2 4832   3.421   1.761   1.034
 1606SOL     OW 4833   2.578   0.565   1.708
 1606SOL    HW1 4834   2.597   0.630   1.782
 1606SOL    HW2 4835   2.638   0.485   1.717
 1607SOL     OW 4836   3.312   1.220   1.633
 1607SOL    HW1 4837   3.303   1.210   1.732
 1607SOL    HW2 4838   3.408   1.213   1.607
 1608SOL     OW 4839   2.252   1.741   1.560
 1608SOL    HW1 4840   2.161   1.782   1.558
 1608SOL    HW2 4841   2.245   1.647   1.592
 1609SOL     OW 4842   3.536   0.883   1.254
 1609SOL    HW1 4843   3.509   0.794   1.217
 1609SOL    HW2 4844   3.537   0.951   1.181
 1610SOL     OW 4845   3.087   0.325   0.449
 1610SOL    HW1 4846   3.152   0.251   0.438
 1610SOL    HW2 4847   3.107   0.375   0.533
 1611SOL     OW 4848   2.456   0.745   0.652
 1611SOL    HW1 4849   2.506   0.830   0.633
 1611SOL    HW2 4850   2.368   0.747   0.604
 1612SOL     OW 4851   3.639   0.342   1.642
 1612SOL    HW1 4852   3.622   0.373   1.548
 1612SOL    HW2 4853   3.555   0.305   1.680
 1613SOL     OW 4854   3.592   0.934   1.517
 1613SOL    HW1 4855   3.630   1.025   1.532
 1613SOL    HW2 4856   3.584   0.917   1.418
 1614SOL     OW 4857   2.721   1.374   0.016
 1614SOL    HW1 4858   2.675   1.389   0.104
 1614SOL    HW2 4859   2.765   1.459  -0.014
 1615SOL     OW 4860   2.523   1.790   0.953
 1615SOL    HW1 4861   2.477   1.878   0.940
 1615SOL    HW2 4862   2.622   1.802   0.946
 1616SOL     OW 4863   2.721   0.956   0.861
 1616SOL    HW1 4864   2.775   0.887   0.909
 1616SOL    HW2 4865   2.689   1.025   0.927
 1617SOL     OW 4866   2.945   0.984   0.087
 1617SOL    HW1 4867   2.922   1.037   0.005
 1617SOL    HW2 4868   3.026   0.928   0.068
 1618SOL     OW 4869   3.723   1.569   0.851
 1618SOL    HW1 4870   3.652   1.557   0.781
 1618SOL    HW2 4871   3.724   1.490   0.911
 1619SOL     OW 4872   2.083   1.314   1.844
 1619SOL    HW1 4873   2.018   1.241   1.823
 1619SOL    HW2 4874   2.087   1.328   1.942
 1620SOL     OW 4875   1.941   1.240   0.653
 1620SOL    HW1 4876   1.940   1.193   0.741
 1620SOL    HW2 4877   2.023   1.212   0.602
 1621SOL     OW 4878   2.534   1.391   1.624
 1621SOL    HW1 4879   2.456   1.341   1.662
 1621SOL    HW2 4880   2.531   1.486   1.655
 1622SOL     OW 4881   3.686   0.192   1.227
 1622SOL    HW1 4882   3.682   0.102   1.271
 1622SOL    HW2 4883   3.689   0.181   1.128
 1623SOL     OW 4884   2.290   0.424   0.520
 1623SOL    HW1 4885   2.320   0.352   0.458
 1623SOL    HW2 4886   2.251   0.384   0.603
 1624SOL     OW 4887   3.567   1.487   1.104
 1624SOL    HW1 4888   3.474   1.462   1.077
 1624SOL    HW2 4889   3.593   1.437   1.186
 1625SOL     OW 4890   2.179   0.547   1.280
 1625SOL    HW1 4891   2.217   0.488   1.352
 1625SOL    HW2 4892   2.219   0.521   1.192
 1626SOL     OW 4893   2.674   1.586   0.687
 1626SOL    HW1 4894   2.706   1.596   0.593
 1626SOL    HW2 4895   2.595   1.524   0.689
 1627SOL     OW 4896   3.286   0.214   1.112
 1627SOL    HW1 4897   3.338   0.149   1.167
 1627SOL    HW2 4898   3.237   0.277   1.173
 1628SOL     OW 4899   2.863   0.034   1.154
 1628SOL    HW1 4900   2.800  -0.038   1.123
 1628SOL    HW2 4901   2.956  -0.002   1.154
 1629SOL     OW 4902   2.632   1.330   0.301
 1629SOL    HW1 4903   2.586   1.243   0.318
 1629SOL    HW2 4904   2.723   1.327   0.342
 1630SOL     OW 4905   2.480   1.567   1.284
 1630SOL    HW1 4906   2.475   1.649   1.341
 1630SOL    HW2 4907   2.569   1.564   1.239
 1631SOL     OW 4908   3.214   0.052   0.168
 1631SOL    HW1 4909   3.249   0.011   0.084
 1631SOL    HW2 4910   3.124   0.014   0.188
 1632SOL     OW 4911   3.162   0.453   0.691
 1632SOL    HW1 4912   3.103   0.533   0.695
 1632SOL    HW2 4913   3.177   0.418   0.784
 1633SOL     OW 4914   3.455   0.221   0.882
 1633SOL    HW1 4915   3.371   0.220   0.936
 1633SOL    HW2 4916   3.457   0.304   0.826
 1634SOL     OW 4917   1.901   1.077   0.300
 1634SOL    HW1 4918   2.000   1.066   0.291
 1634SOL    HW2 4919   1.861   0.991   0.332
 1635SOL     OW 4920   2.737   1.646   0.337
 1635SOL    HW1 4921   2.660   1.611   0.283
 1635SOL    HW2 4922   2.705   1.717   0.399
 1636SOL     OW 4923   2.092   0.628   1.975
 1636SOL    HW1 4924   1.999   0.626   2.012
 1636SOL    HW2 4925   2.093   0.589   1.883
 1637SOL     OW 4926   2.087   0.275   2.858
 1637SOL    HW1 4927   2.122   0.258   2.950
 1637SOL    HW2 4928   1.999   0.230   2.846
 1638SOL     OW 4929   1.881   0.368   2.509
 1638SOL    HW1 4930   1.799   0.411   2.548
 1638SOL    HW2 4931   1.853   0.295   2.446
 1639SOL     OW 4932   2.431   1.275   3.027
 1639SOL    HW1 4933   2.338   1.268   2.990
 1639SOL    HW2 4934   2.442   1.364   3.071
 1640SOL     OW 4935   3.417   1.511   2.565
 1640SOL    HW1 4936   3.360   1.495   2.646
 1640SOL    HW2 4937   3.358   1.521   2.485
 1641SOL     OW 4938   2.997   0.703   2.579
 1641SOL    HW1 4939   3.054   0.781   2.554
 1641SOL    HW2 4940   2.937   0.729   2.655
 1642SOL     OW 4941   3.617   0.607   2.093
 1642SOL    HW1 4942   3.605   0.594   1.994
 1642SOL    HW2 4943   3.587   0.526   2.142
 1643SOL     OW 4944   2.630   1.144   2.885
 1643SOL    HW1 4945   2.552   1.161   2.945
 1643SOL    HW2 4946   2.664   1.231   2.849
 1644SOL     OW 4947   2.712   0.798   3.685
 1644SOL    HW1 4948   2.708   0.874   3.750
 1644SOL    HW2 4949   2.734   0.834   3.594
 1645SOL     OW 4950   2.547   1.012   2.527
 1645SOL    HW1 4951   2.616   0.996   2.597
 1645SOL    HW2 4952   2.474   1.069   2.565
 1646SOL     OW 4953   2.548   1.161   3.665
 1646SOL    HW1 4954   2.608   1.240   3.679
 1646SOL    HW2 4955   2.462   1.192   3.624
 1647SOL     OW 4956   2.197   1.435   2.923
 1647SOL    HW1 4957   2.119   1.404   2.870
 1647SOL    HW2 4958   2.255   1.493   2.866
 1648SOL     OW 4959   3.322   1.505   3.201
 1648SOL    HW1 4960   3.346   1.599   3.227
 1648SOL    HW2 4961   3.306   1.451   3.283
 1649SOL     OW 4962   2.300   0.392   3.361
 1649SOL    HW1 4963   2.382   0.336   3.370
 1649SOL    HW2 4964   2.219   0.334   3.365
 1650SOL     OW 4965   3.465   0.447   2.599
 1650SOL    HW1 4966   3.391   0.493   2.549
 1650SOL    HW2 4967   3.516   0.515   2.652
 1651SOL     OW 4968   2.093   1.713   2.345
 1651SOL    HW1 4969   2.127   1.790   2.399
 1651SOL    HW2 4970   2.137   1.713   2.255
 1652SOL     OW 4971   2.989   1.341   3.552
 1652SOL    HW1 4972   3.036   1.341   3.640
 1652SOL    HW2 4973   2.941   1.254   3.541
 1653SOL     OW 4974   2.092   1.434   2.400
 1653SOL    HW1 4975   2.066   1.530   2.400
 1653SOL    HW2 4976   2.021   1.380   2.445
 1654SOL     OW 4977   2.102   1.091   2.748
 1654SOL    HW1 4978   2.116   1.007   2.800
 1654SOL    HW2 4979   2.047   1.155   2.803
 1655SOL     OW 4980   2.482   1.786   3.301
 1655SOL    HW1 4981   2.390   1.769   3.336
 1655SOL    HW2 4982   2.510   1.878   3.327
 1656SOL     OW 4983   2.468   0.964   1.985
 1656SOL    HW1 4984   2.475   1.048   1.931
 1656SOL    HW2 4985   2.514   0.977   2.073
 1657SOL     OW 4986   3.456   0.114   3.342
 1657SOL    HW1 4987   3.438   0.181   3.270
 1657SOL    HW2 4988   3.453   0.160   3.431
 1658SOL     OW 4989   1.984   0.643   2.425
 1658SOL    HW1 4990   1.939   0.555   2.442
 1658SOL    HW2 4991   1.983   0.697   2.509
 1659SOL     OW 4992   3.704   1.767   2.221
 1659SOL    HW1 4993   3.758   1.738   2.301
 1659SOL    HW2 4994   3.734   1.857   2.192
 1660SOL     OW 4995   1.889   1.596   1.979
 1660SOL    HW1 4996   1.870   1.500   2.000
 1660SOL    HW2 4997   1.856   1.654   2.054
 1661SOL     OW 4998   3.551   0.922   2.474
 1661SOL    HW1 4999   3.646   0.893   2.482
 1661SOL    HW2 5000   3.543   0.987   2.399
 1662SOL     OW 5001   3.503   1.108   2.294
 1662SOL    HW1 5002   3.589   1.110   2.242
 1662SOL    HW2 5003   3.517   1.155   2.382
 1663SOL     OW 5004   1.975   0.737   3.459
 1663SOL    HW1 5005   2.063   0.724   3.504
 1663SOL    HW2 5006   1.962   0.834   3.437
 1664SOL     OW 5007   2.475   1.365   2.588
 1664SOL    HW1 5008   2.426   1.278   2.597
 1664SOL    HW2 5009   2.452   1.408   2.501
 1665SOL     OW 5010   3.155   1.228   3.285
 1665SOL    HW1 5011   3.192   1.155   3.227
 1665SOL    HW2 5012   3.207   1.233   3.370
 1666SOL     OW 5013   2.671   0.004   2.364
 1666SOL    HW1 5014   2.711   0.095   2.355
 1666SOL    HW2 5015   2.571   0.012   2.370
 1667SOL     OW 5016   2.059   0.976   3.126
 1667SOL    HW1 5017   2.148   0.931   3.112
 1667SOL    HW2 5018   1.986   0.911   3.107
 1668SOL     OW 5019   3.387   0.999   2.052
 1668SOL    HW1 5020   3.324   0.923   2.065
 1668SOL    HW2 5021   3.435   1.017   2.138
 1669SOL     OW 5022   3.049   1.792   3.478
 1669SOL    HW1 5023   3.073   1.852   3.402
 1669SOL    HW2 5024   3.056   1.697   3.448
 1670SOL     OW 5025   2.179   0.251   3.663
 1670SOL    HW1 5026   2.250   0.322   3.669
 1670SOL    HW2 5027   2.091   0.290   3.691
 1671SOL     OW 5028   3.328   1.417   2.815
 1671SOL    HW1 5029   3.269   1.423   2.895
 1671SOL    HW2 5030   3.313   1.329   2.769
 1672SOL     OW 5031   3.529   1.714   2.434
 1672SOL    HW1 5032   3.488   1.691   2.346
 1672SOL    HW2 5033   3.511   1.640   2.499
 1673SOL     OW 5034   2.460   0.729   2.132
 1673SOL    HW1 5035   2.484   0.798   2.064
 1673SOL    HW2 5036   2.382   0.762   2.186
 1674SOL     OW 5037   3.143   0.345   2.806
 1674SOL    HW1 5038   3.057   0.295   2.793
 1674SOL    HW2 5039   3.205   0.291   2.862
 1675SOL     OW 5040   3.438   1.662   2.169
 1675SOL    HW1 5041   3.527   1.708   2.172
 1675SOL    HW2 5042   3.417   1.638   2.074
 1676SOL     OW 5043   2.669   0.605   3.327
 1676SOL    HW1 5044   2.622   0.602   3.416
 1676SOL    HW2 5045   2.618   0.550   3.261
 1677SOL     OW 5046   3.256   0.469   3.536
 1677SOL    HW1 5047   3.236   0.512   3.624
 1677SOL    HW2 5048   3.334   0.407   3.545
 1678SOL     OW 5049   2.835   0.890   3.434
 1678SOL    HW1 5050   2.881   0.806   3.405
 1678SOL    HW2 5051   2.779   0.924   3.359
 1679SOL     OW 5052   2.853   0.410   3.104
 1679SOL    HW1 5053   2.776   0.444   3.158
 1679SOL    HW2 5054   2.819   0.359   3.025
 1680SOL     OW 5055   2.903   0.701   2.291
 1680SOL    HW1 5056   2.929   0.697   2.387
 1680SOL    HW2 5057   2.818   0.650   2.277
 1681SOL     OW 5058   1.938   0.811   2.651
 1681SOL    HW1 5059   2.037   0.799   2.660
 1681SOL    HW2 5060   1.914   0.906   2.672
 1682SOL     OW 5061   1.992   1.821   3.433
 1682SOL    HW1 5062   1.982   1.806   3.532
 1682SOL    HW2 5063   1.906   1.857   3.397
 1683SOL     OW 5064   2.727   0.348   2.057
 1683SOL    HW1 5065   2.786   0.411   2.008
 1683SOL    HW2 5066   2.746   0.254   2.028
 1684SOL     OW 5067   3.581   0.585   3.693
 1684SOL    HW1 5068   3.555   0.674   3.657
 1684SOL    HW2 5069   3.579   0.517   3.620
 1685SOL     OW 5070   3.224   1.144   2.407
 1685SOL    HW1 5071   3.307   1.115   2.359
 1685SOL    HW2 5072   3.175   1.211   2.351
 1686SOL     OW 5073   2.412   0.196   2.747
 1686SOL    HW1 5074   2.407   0.191   2.847
 1686SOL    HW2 5075   2.414   0.292   2.718
 1687SOL     OW 5076   2.870   1.456   2.339
 1687SOL    HW1 5077   2.824   1.528   2.287
 1687SOL    HW2 5078   2.866   1.476   2.437
 1688SOL     OW 5079   2.213   1.801   2.715
 1688SOL    HW1 5080   2.263   1.715   2.721
 1688SOL    HW2 5081   2.278   1.878   2.712
 1689SOL     OW 5082   3.657   1.066   2.735
 1689SOL    HW1 5083   3.595   1.051   2.659
 1689SOL    HW2 5084   3.605   1.077   2.820
 1690SOL     OW 5085   3.089   1.550   3.368
 1690SOL    HW1 5086   3.095   1.473   3.432
 1690SOL    HW2 5087   3.037   1.524   3.288
 1691SOL     OW 5088   2.183   0.943   2.104
 1691SOL    HW1 5089   2.265   0.982   2.062
 1691SOL    HW2 5090   2.156   0.861   2.055
 1692SOL     OW 5091   3.320   0.735   2.590
 1692SOL    HW1 5092   3.315   0.670   2.665
 1692SOL    HW2 5093   3.400   0.794   2.603
 1693SOL     OW 5094   2.323   1.266   3.589
 1693SOL    HW1 5095   2.273   1.267   3.503
 1693SOL    HW2 5096   2.260   1.248   3.665
 1694SOL     OW 5097   2.973   1.776   2.099
 1694SOL    HW1 5098   2.913   1.714   2.149
 1694SOL    HW2 5099   3.004   1.732   2.014
 1695SOL     OW 5100   2.064   0.285   3.360
 1695SOL    HW1 5101   1.984   0.345   3.347
 1695SOL    HW2 5102   2.054   0.236   3.446
 1696SOL     OW 5103   3.494   1.377   1.943
 1696SOL    HW1 5104   3.462   1.471   1.933
 1696SOL    HW2 5105   3.418   1.314   1.931
 1697SOL     OW 5106   2.326   1.743   2.185
 1697SOL    HW1 5107   2.359   1.782   2.271
 1697SOL    HW2 5108   2.402   1.736   2.120
 1698SOL     OW 5109   3.262   0.107   2.288
 1698SOL    HW1 5110   3.238   0.070   2.198
 1698SOL    HW2 5111   3.361   0.123   2.292
 1699SOL     OW 5112   2.111   1.785   3.103
 1699SOL    HW1 5113   2.168   1.720   3.153
 1699SOL    HW2 5114   2.095   1.752   3.010
 1700SOL     OW 5115   2.802   1.698   2.766
 1700SOL    HW1 5116   2.882   1.641   2.787
 1700SOL    HW2 5117   2.753   1.658   2.689
 1701SOL     OW 5118   2.244   0.700   2.342
 1701SOL    HW1 5119   2.289   0.610   2.339
 1701SOL    HW2 5120   2.150   0.689   2.375
 1702SOL     OW 5121   3.409   0.222   3.591
 1702SOL    HW1 5122   3.404   0.259   3.683
 1702SOL    HW2 5123   3.337   0.153   3.579
 1703SOL     OW 5124   2.476   0.122   1.979
 1703SOL    HW1 5125   2.574   0.100   1.986
 1703SOL    HW2 5126   2.445   0.105   1.886
 1704SOL     OW 5127   2.643   0.264   3.611
 1704SOL    HW1 5128   2.710   0.203   3.654
 1704SOL    HW2 5129   2.570   0.283   3.676
 1705SOL     OW 5130   2.750   1.514   3.057
 1705SOL    HW1 5131   2.727   1.489   2.963
 1705SOL    HW2 5132   2.811   1.445   3.096
 1706SOL     OW 5133   3.213   0.590   3.295
 1706SOL    HW1 5134   3.241   0.547   3.380
 1706SOL    HW2 5135   3.238   0.686   3.296
 1707SOL     OW 5136   2.665   1.402   2.786
 1707SOL    HW1 5137   2.755   1.416   2.744
 1707SOL    HW2 5138   2.594   1.404   2.715
 1708SOL     OW 5139   2.784   0.503   2.761
 1708SOL    HW1 5140   2.759   0.494   2.665
 1708SOL    HW2 5141   2.832   0.421   2.792
 1709SOL     OW 5142   2.401   0.064   2.374
 1709SOL    HW1 5143   2.320   0.065   2.432
 1709SOL    HW2 5144   2.404   0.147   2.319
 1710SOL     OW 5145   3.296   1.188   1.903
 1710SOL    HW1 5146   3.328   1.112   1.960
 1710SOL    HW2 5147   3.204   1.215   1.933
 1711SOL     OW 5148   2.159   0.035   2.033
 1711SOL    HW1 5149   2.208   0.119   2.012
 1711SOL    HW2 5150   2.221  -0.030   2.078
 1712SOL     OW 5151   2.797   0.236   2.342
 1712SOL    HW1 5152   2.749   0.277   2.264
 1712SOL    HW2 5153   2.896   0.234   2.323
 1713SOL     OW 5154   2.938   0.683   3.326
 1713SOL    HW1 5155   2.858   0.622   3.329
 1713SOL    HW2 5156   3.019   0.630   3.302
 1714SOL     OW 5157   3.089   1.570   2.655
 1714SOL    HW1 5158   3.110   1.644   2.590
 1714SOL    HW2 5159   3.157   1.570   2.728
 1715SOL     OW 5160   2.321   1.152   2.603
 1715SOL    HW1 5161   2.250   1.125   2.668
 1715SOL    HW2 5162   2.295   1.124   2.510
 1716SOL     OW 5163   3.133   1.797   2.453
 1716SOL    HW1 5164   3.177   1.861   2.389
 1716SOL    HW2 5165   3.083   1.849   2.523
 1717SOL     OW 5166   2.894   0.549   1.878
 1717SOL    HW1 5167   2.853   0.631   1.839
 1717SOL    HW2 5168   2.958   0.575   1.951
 1718SOL     OW 5169   1.940   0.556   3.248
 1718SOL    HW1 5170   2.032   0.555   3.207
 1718SOL    HW2 5171   1.934   0.630   3.315
 1719SOL     OW 5172   2.423   0.222   3.009
 1719SOL    HW1 5173   2.461   0.138   3.046
 1719SOL    HW2 5174   2.335   0.241   3.053
 1720SOL     OW 5175   2.728   0.454   2.504
 1720SOL    HW1 5176   2.696   0.526   2.442
 1720SOL    HW2 5177   2.752   0.373   2.451
 1721SOL     OW 5178   2.879   0.039   2.615
 1721SOL    HW1 5179   2.807   0.044   2.546
 1721SOL    HW2 5180   2.855  -0.030   2.684
 1722SOL     OW 5181   3.291   1.173   2.729
 1722SOL    HW1 5182   3.236   1.089   2.722
 1722SOL    HW2 5183   3.317   1.202   2.637
 1723SOL     OW 5184   3.328   0.590   2.854
 1723SOL    HW1 5185   3.298   0.495   2.861
 1723SOL    HW2 5186   3.401   0.606   2.920
 1724SOL     OW 5187   3.719   0.833   2.239
 1724SOL    HW1 5188   3.761   0.769   2.303
 1724SOL    HW2 5189   3.681   0.782   2.161
 1725SOL     OW 5190   2.350   1.385   2.036
 1725SOL    HW1 5191   2.263   1.370   2.083
 1725SOL    HW2 5192   2.333   1.411   1.941
 1726SOL     OW 5193   3.526   1.280   2.519
 1726SOL    HW1 5194   3.625   1.288   2.533
 1726SOL    HW2 5195   3.481   1.364   2.550
 1727SOL     OW 5196   3.252   0.575   1.940
 1727SOL    HW1 5197   3.198   0.554   2.021
 1727SOL    HW2 5198   3.343   0.534   1.949
 1728SOL     OW 5199   2.389   0.256   2.190
 1728SOL    HW1 5200   2.416   0.197   2.115
 1728SOL    HW2 5201   2.389   0.351   2.159
 1729SOL     OW 5202   3.616   1.223   3.450
 1729SOL    HW1 5203   3.707   1.184   3.437
 1729SOL    HW2 5204   3.624   1.319   3.474
 1730SOL     OW 5205   2.926   1.347   3.202
 1730SOL    HW1 5206   2.846   1.324   3.257
 1730SOL    HW2 5207   3.009   1.321   3.251
 1731SOL     OW 5208   3.454   1.629   3.487
 1731SOL    HW1 5209   3.481   1.663   3.397
 1731SOL    HW2 5210   3.533   1.591   3.533
 1732SOL     OW 5211   2.973   1.195   2.962
 1732SOL    HW1 5212   2.933   1.239   3.043
 1732SOL    HW2 5213   2.932   1.232   2.879
 1733SOL     OW 5214   3.500   1.099   2.941
 1733SOL    HW1 5215   3.505   1.180   3.000
 1733SOL    HW2 5216   3.414   1.101   2.890
 1734SOL     OW 5217   2.777   0.089   3.264
 1734SOL    HW1 5218   2.802   0.069   3.169
 1734SOL    HW2 5219   2.849   0.145   3.306
 1735SOL     OW 5220   2.842   1.116   3.581
 1735SOL    HW1 5221   2.743   1.122   3.591
 1735SOL    HW2 5222   2.865   1.036   3.525
 1736SOL     OW 5223   2.567   1.050   2.230
 1736SOL    HW1 5224   2.553   1.057   2.329
 1736SOL    HW2 5225   2.651   0.999   2.212
 1737SOL     OW 5226   2.272   0.813   3.113
 1737SOL    HW1 5227   2.358   0.825   3.163
 1737SOL    HW2 5228   2.230   0.726   3.140
 1738SOL     OW 5229   3.136   0.386   3.124
 1738SOL    HW1 5230   3.157   0.460   3.188
 1738SOL    HW2 5231   3.047   0.403   3.081
 1739SOL     OW 5232   1.926   1.564   3.193
 1739SOL    HW1 5233   1.880   1.646   3.159
 1739SOL    HW2 5234   2.024   1.583   3.202
 1740SOL     OW 5235   2.229   1.100   2.363
 1740SOL    HW1 5236   2.222   1.183   2.307
 1740SOL    HW2 5237   2.233   1.020   2.303
 1741SOL     OW 5238   2.428   0.537   2.727
 1741SOL    HW1 5239   2.440   0.603   2.653
 1741SOL    HW2 5240   2.474   0.571   2.810
 1742SOL     OW 5241   3.114   1.348   2.250
 1742SOL    HW1 5242   3.164   1.425   2.290
 1742SOL    HW2 5243   3.019   1.350   2.282
 1743SOL     OW 5244   3.134   1.445   3.004
 1743SOL    HW1 5245   3.181   1.458   3.091
 1743SOL    HW2 5246   3.068   1.371   3.013
 1744SOL     OW 5247   3.444   0.639   2.334
 1744SOL    HW1 5248   3.413   0.700   2.407
 1744SOL    HW2 5249   3.494   0.691   2.265
 1745SOL     OW 5250   2.216   1.510   3.191
 1745SOL    HW1 5251   2.195   1.466   3.104
 1745SOL    HW2 5252   2.313   1.536   3.194
 1746SOL     OW 5253   2.264   0.751   3.460
 1746SOL    HW1 5254   2.332   0.806   3.413
 1746SOL    HW2 5255   2.304   0.663   3.487
 1747SOL     OW 5256   3.449   0.779   3.532
 1747SOL    HW1 5257   3.357   0.817   3.527
 1747SOL    HW2 5258   3.509   0.826   3.467
 1748SOL     OW 5259   2.875   0.105   3.632
 1748SOL    HW1 5260   2.881   0.190   3.580
 1748SOL    HW2 5261   2.907   0.029   3.575
 1749SOL     OW 5262   2.366   0.050   3.602
 1749SOL    HW1 5263   2.324  -0.007   3.532
 1749SOL    HW2 5264   2.300   0.119   3.634
 1750SOL     OW 5265   2.435   0.870   2.891
 1750SOL    HW1 5266   2.479   0.959   2.882
 1750SOL    HW2 5267   2.372   0.870   2.968
 1751SOL     OW 5268   3.222   0.862   2.907
 1751SOL    HW1 5269   3.147   0.862   2.841
 1751SOL    HW2 5270   3.259   0.770   2.916
 1752SOL     OW 5271   3.071   0.525   2.137
 1752SOL    HW1 5272   3.084   0.441   2.191
 1752SOL    HW2 5273   3.042   0.599   2.197
 1753SOL     OW 5274   2.169   0.213   3.093
 1753SOL    HW1 5275   2.146   0.250   3.183
 1753SOL    HW2 5276   2.139   0.118   3.087
 1754SOL     OW 5277   1.899   1.310   3.144
 1754SOL    HW1 5278   1.952   1.261   3.212
 1754SOL    HW2 5279   1.921   1.408   3.149
 1755SOL     OW 5280   2.594   0.634   2.926
 1755SOL    HW1 5281   2.653   0.608   2.850
 1755SOL    HW2 5282   2.566   0.730   2.915
 1756SOL     OW 5283   3.590   0.935   3.716
 1756SOL    HW1 5284   3.544   0.928   3.627
 1756SOL    HW2 5285   3.528   0.979   3.782
 1757SOL     OW 5286   2.169   0.063   2.480
 1757SOL    HW1 5287   2.158   0.157   2.513
 1757SOL    HW2 5288   2.164   0.000   2.557
 1758SOL     OW 5289   3.484   0.367   2.236
 1758SOL    HW1 5290   3.486   0.291   2.300
 1758SOL    HW2 5291   3.436   0.444   2.276
 1759SOL     OW 5292   2.885   0.766   2.828
 1759SOL    HW1 5293   2.900   0.787   2.924
 1759SOL    HW2 5294   2.855   0.671   2.819
 1760SOL     OW 5295   2.842   1.573   3.562
 1760SOL    HW1 5296   2.822   1.617   3.474
 1760SOL    HW2 5297   2.881   1.482   3.546
 1761SOL     OW 5298   3.721   1.518   3.467
 1761SOL    HW1 5299   3.735   1.545   3.372
 1761SOL    HW2 5300   3.804   1.540   3.520
 1762SOL     OW 5301   2.212   0.898   3.666
 1762SOL    HW1 5302   2.288   0.942   3.714
 1762SOL    HW2 5303   2.247   0.851   3.584
 1763SOL     OW 5304   3.402   0.274   1.987
 1763SOL    HW1 5305   3.341   0.199   2.010
 1763SOL    HW2 5306   3.424   0.326   2.070
 1764SOL     OW 5307   3.165   0.838   1.904
 1764SOL    HW1 5308   3.199   0.745   1.919
 1764SOL    HW2 5309   3.183   0.865   1.809
 1765SOL     OW 5310   2.930   1.333   2.711
 1765SOL    HW1 5311   2.937   1.249   2.656
 1765SOL    HW2 5312   2.992   1.402   2.675
 1766SOL     OW 5313   2.181   0.810   2.811
 1766SOL    HW1 5314   2.274   0.846   2.816
 1766SOL    HW2 5315   2.175   0.725   2.863
 1767SOL     OW 5316   2.201   0.509   2.868
 1767SOL    HW1 5317   2.149   0.426   2.851
 1767SOL    HW2 5318   2.278   0.514   2.804
 1768SOL     OW 5319   3.000   0.380   3.540
 1768SOL    HW1 5320   2.955   0.443   3.604
 1768SOL    HW2 5321   3.093   0.411   3.523
 1769SOL     OW 5322   3.022   0.207   3.339
 1769SOL    HW1 5323   3.022   0.271   3.416
 1769SOL    HW2 5324   3.050   0.255   3.256
 1770SOL     OW 5325   1.870   1.326   2.062
 1770SOL    HW1 5326   1.777   1.347   2.031
 1770SOL    HW2 5327   1.880   1.227   2.075
 1771SOL     OW 5328   1.950   1.801   2.789
 1771SOL    HW1 5329   1.908   1.715   2.762
 1771SOL    HW2 5330   2.044   1.804   2.755
 1772SOL     OW 5331   2.366   1.568   2.772
 1772SOL    HW1 5332   2.432   1.642   2.781
 1772SOL    HW2 5333   2.410   1.489   2.730
 1773SOL     OW 5334   2.864   0.796   3.100
 1773SOL    HW1 5335   2.905   0.764   3.186
 1773SOL    HW2 5336   2.768   0.769   3.097
 1774SOL     OW 5337   1.902   0.544   2.976
 1774SOL    HW1 5338   1.987   0.511   2.935
 1774SOL    HW2 5339   1.915   0.559   3.074
 1775SOL     OW 5340   2.051   0.520   3.584
 1775SOL    HW1 5341   2.110   0.480   3.514
 1775SOL    HW2 5342   1.993   0.591   3.543
 1776SOL     OW 5343   3.231   0.950   3.522
 1776SOL    HW1 5344   3.270   1.039   3.542
 1776SOL    HW2 5345   3.241   0.930   3.425
 1777SOL     OW 5346   2.677   0.572   2.187
 1777SOL    HW1 5347   2.684   0.483   2.141
 1777SOL    HW2 5348   2.583   0.606   2.179
 1778SOL     OW 5349   3.519   0.604   3.068
 1778SOL    HW1 5350   3.481   0.535   3.130
 1778SOL    HW2 5351   3.601   0.568   3.024
 1779SOL     OW 5352   2.114   1.564   3.606
 1779SOL    HW1 5353   2.084   1.621   3.682
 1779SOL    HW2 5354   2.107   1.467   3.632
 1780SOL     OW 5355   2.533   0.464   3.131
 1780SOL    HW1 5356   2.499   0.375   3.101
 1780SOL    HW2 5357   2.559   0.518   3.051
 1781SOL     OW 5358   2.792   1.678   3.327
 1781SOL    HW1 5359   2.768   1.660   3.232
 1781SOL    HW2 5360   2.822   1.772   3.337
 1782SOL     OW 5361   2.335   0.500   2.053
 1782SOL    HW1 5362   2.396   0.580   2.057
 1782SOL    HW2 5363   2.240   0.531   2.060
 1783SOL     OW 5364   2.021   1.137   3.328
 1783SOL    HW1 5365   2.043   1.076   3.404
 1783SOL    HW2 5366   2.031   1.088   3.242
 1784SOL     OW 5367   3.209   1.059   3.096
 1784SOL    HW1 5368   3.233   0.996   3.022
 1784SOL    HW2 5369   3.119   1.099   3.078
 1785SOL     OW 5370   3.164   0.855   2.171
 1785SOL    HW1 5371   3.078   0.824   2.213
 1785SOL    HW2 5372   3.160   0.841   2.072
 1786SOL     OW 5373   3.621   1.747   3.016
 1786SOL    HW1 5374   3.682   1.777   2.943
 1786SOL    HW2 5375   3.583   1.658   2.994
 1787SOL     OW 5376   3.114   1.731   2.990
 1787SOL    HW1 5377   3.198   1.736   2.936
 1787SOL    HW2 5378   3.091   1.635   3.008
 1788SOL     OW 5379   1.945   1.258   2.884
 1788SOL    HW1 5380   1.940   1.257   2.984
 1788SOL    HW2 5381   1.862   1.217   2.846
 1789SOL     OW 5382   2.550   1.662   3.578
 1789SOL    HW1 5383   2.494   1.743   3.587
 1789SOL    HW2 5384   2.602   1.666   3.492
 1790SOL     OW 5385   3.588   0.135   2.385
 1790SOL    HW1 5386   3.661   0.118   2.318
 1790SOL    HW2 5387   3.557   0.048   2.423
 1791SOL     OW 5388   3.250   1.573   2.339
 1791SOL    HW1 5389   3.317   1.585   2.265
 1791SOL    HW2 5390   3.210   1.662   2.362
 1792SOL     OW 5391   1.992   1.794   3.713
 1792SOL    HW1 5392   1.951   1.720   3.766
 1792SOL    HW2 5393   2.056   1.845   3.771
 1793SOL     OW 5394   3.142   0.927   2.534
 1793SOL    HW1 5395   3.202   0.846   2.536
 1793SOL    HW2 5396   3.182   0.996   2.474
 1794SOL     OW 5397   2.692   1.273   3.284
 1794SOL    HW1 5398   2.687   1.306   3.379
 1794SOL    HW2 5399   2.606   1.292   3.238
 1795SOL     OW 5400   2.534   1.616   2.016
 1795SOL    HW1 5401   2.543   1.626   1.917
 1795SOL    HW2 5402   2.494   1.527   2.037
 1796SOL     OW 5403   3.512   1.720   3.256
 1796SOL    HW1 5404   3.565   1.730   3.172
 1796SOL    HW2 5405   3.485   1.810   3.290
 1797SOL     OW 5406   3.703   0.175   2.825
 1797SOL    HW1 5407   3.742   0.090   2.789
 1797SOL    HW2 5408   3.605   0.177   2.806
 1798SOL     OW 5409   2.125   0.326   2.582
 1798SOL    HW1 5410   2.046   0.377   2.548
 1798SOL    HW2 5411   2.116   0.311   2.680
 1799SOL     OW 5412   3.056   1.612   1.893
 1799SOL    HW1 5413   3.062   1.519   1.930
 1799SOL    HW2 5414   2.997   1.612   1.813
 1800SOL     OW 5415   2.684   1.002   3.234
 1800SOL    HW1 5416   2.724   1.001   3.142
 1800SOL    HW2 5417   2.694   1.094   3.274
 1801SOL     OW 5418   2.778   0.910   2.153
 1801SOL    HW1 5419   2.841   0.948   2.085
 1801SOL    HW2 5420   2.818   0.827   2.192
 1802SOL     OW 5421   3.366   1.607   1.906
 1802SOL    HW1 5422   3.274   1.644   1.913
 1802SOL    HW2 5423   3.404   1.627   1.816
 1803SOL     OW 5424   2.234   1.288   3.352
 1803SOL    HW1 5425   2.221   1.381   3.318
 1803SOL    HW2 5426   2.150   1.236   3.339
 1804SOL     OW 5427   3.476   1.292   3.151
 1804SOL    HW1 5428   3.536   1.295   3.231
 1804SOL    HW2 5429   3.401   1.356   3.164
 1805SOL     OW 5430   2.901   1.098   2.558
 1805SOL    HW1 5431   2.831   1.051   2.612
 1805SOL    HW2 5432   2.960   1.030   2.515
 1806SOL     OW 5433   2.876   0.236   2.833
 1806SOL    HW1 5434   2.868   0.200   2.740
 1806SOL    HW2 5435   2.874   0.160   2.898
 1807SOL     OW 5436   2.452   1.487   2.353
 1807SOL    HW1 5437   2.494   1.429   2.283
 1807SOL    HW2 5438   2.408   1.566   2.309
 1808SOL     OW 5439   3.571   0.385   3.243
 1808SOL    HW1 5440   3.644   0.454   3.247
 1808SOL    HW2 5441   3.599   0.310   3.184
 1809SOL     OW 5442   2.117   1.348   2.152
 1809SOL    HW1 5443   2.021   1.349   2.125
 1809SOL    HW2 5444   2.129   1.401   2.236
 1810SOL     OW 5445   1.967   1.013   3.588
 1810SOL    HW1 5446   1.890   0.980   3.642
 1810SOL    HW2 5447   2.052   0.983   3.630
 1811SOL     OW 5448   2.534   0.203   3.351
 1811SOL    HW1 5449   2.624   0.187   3.311
 1811SOL    HW2 5450   2.542   0.208   3.450
 1812SOL     OW 5451   1.937   0.345   1.895
 1812SOL    HW1 5452   1.845   0.317   1.866
 1812SOL    HW2 5453   1.968   0.422   1.839
 1813SOL     OW 5454   3.302   0.856   3.260
 1813SOL    HW1 5455   3.245   0.908   3.197
 1813SOL    HW2 5456   3.398   0.868   3.236
 1814SOL     OW 5457   1.934   0.166   2.180
 1814SOL    HW1 5458   1.917   0.249   2.126
 1814SOL    HW2 5459   2.024   0.129   2.158
 1815SOL     OW 5460   3.045   1.335   1.981
 1815SOL    HW1 5461   2.946   1.324   1.983
 1815SOL    HW2 5462   3.079   1.350   2.074
 1816SOL     OW 5463   2.475   0.842   3.293
 1816SOL    HW1 5464   2.531   0.923   3.276
 1816SOL    HW2 5465   2.534   0.762   3.296
 1817SOL     OW 5466   3.355   1.767   2.821
 1817SOL    HW1 5467   3.388   1.831   2.752
 1817SOL    HW2 5468   3.421   1.761   2.896
 1818SOL     OW 5469   2.578   0.565   3.570
 1818SOL    HW1 5470   2.597   0.630   3.644
 1818SOL    HW2 5471   2.638   0.485   3.579
 1819SOL     OW 5472   3.312   1.220   3.495
 1819SOL    HW1 5473   3.303   1.210   3.594
 1819SOL    HW2 5474   3.408   1.213   3.469
 1820SOL     OW 5475   2.252   1.741   3.422
 1820SOL    HW1 5476   2.161   1.782   3.420
 1820SOL    HW2 5477   2.245   1.647   3.454
 1821SOL     OW 5478   3.536   0.883   3.116
 1821SOL    HW1 5479   3.509   0.794   3.079
 1821SOL    HW2 5480   3.537   0.951   3.043
 1822SOL     OW 5481   3.087   0.325   2.311
 1822SOL    HW1 5482   3.152   0.251   2.300
 1822SOL    HW2 5483   3.107   0.375   2.395
 1823SOL     OW 5484   2.456   0.745   2.514
 1823SOL    HW1 5485   2.506   0.830   2.495
 1823SOL    HW2 5486   2.368   0.747   2.466
 1824SOL     OW 5487   3.639   0.342   3.504
 1824SOL    HW1 5488   3.622   0.373   3.410
 1824SOL    HW2 5489   3.555   0.305   3.542
 1825SOL     OW 5490   3.592   0.934   3.379
 1825SOL    HW1 5491   3.630   1.025   3.394
 1825SOL    HW2 5492   3.584   0.917   3.280
 1826SOL     OW 5493   2.721   1.374   1.878
 1826SOL    HW1 5494   2.675   1.389   1.966
 1826SOL    HW2 5495   2.765   1.459   1.848
 1827SOL     OW 5496   2.523   1.790   2.815
 1827SOL    HW1 5497   2.477   1.878   2.802
 1827SOL    HW2 5498   2.622   1.802   2.808
 1828SOL     OW 5499   2.721   0.956   2.723
 1828SOL    HW1 5500   2.775   0.887   2.771
 1828SOL    HW2 5501   2.689   1.025   2.789
 1829SOL     OW 5502   2.945   0.984   1.949
 1829SOL    HW1 5503   2.922   1.037   1.867
 1829SOL    HW2 5504   3.026   0.928   1.930
 1830SOL     OW 5505   3.723   1.569   2.713
 1830SOL    HW1 5506   3.652   1.557   2.643
 1830SOL    HW2 5507   3.724   1.490   2.773
 1831SOL     OW 5508   2.083   1.314   3.706
 1831SOL    HW1 5509   2.018   1.241   3.685
 1831SOL    HW2 5510   2.087   1.328   3.804
 1832SOL     OW 5511   1.941   1.240   2.515
 1832SOL    HW1 5512   1.940   1.193   2.603
 1832SOL    HW2 5513   2.023   1.212   2.464
 1833SOL     OW 5514   2.534   1.391   3.486
 1833SOL    HW1 5515   2.456   1.341   3.524
 1833SOL    HW2 5516   2.531   1.486   3.517
 1834SOL     OW 5517   3.686   0.192   3.089
 1834SOL    HW1 5518   3.682   0.102   3.133
 1834SOL    HW2 5519   3.689   0.181   2.990
 1835SOL     OW 5520   2.290   0.424   2.382
 1835SOL    HW1 5521   2.320   0.352   2.320
 1835SOL    HW2 5522   2.251   0.384   2.465
 1836SOL     OW 5523   3.567   1.487   2.966
 1836SOL    HW1 5524   3.474   1.462   2.939
 1836SOL    HW2 5525   3.593   1.437   3.048
 1837SOL     OW 5526   2.179   0.547   3.142
 1837SOL    HW1 5527   2.217   0.488   3.214
 1837SOL    HW2 5528   2.219   0.521   3.054
 1838SOL     OW 5529   2.674   1.586   2.549
 1838SOL    HW1 5530   2.706   1.596   2.455
 1838SOL    HW2 5531   2.595   1.524   2.551
 1839SOL     OW 5532   3.286   0.214   2.974
 1839SOL    HW1 5533   3.338   0.149   3.029
 1839SOL    HW2 5534   3.237   0.277   3.035
 1840SOL     OW 5535   2.863   0.034   3.016
 1840SOL    HW1 5536   2.800  -0.038   2.985
 1840SOL    HW2 5537   2.956  -0.002   3.016
 1841SOL     OW 5538   2.632   1.330   2.163
 1841SOL    HW1 5539   2.586   1.243   2.180
 1841SOL    HW2 5540   2.723   1.327   2.204
 1842SOL     OW 5541   2.480   1.567   3.146
 1842SOL    HW1 5542   2.475   1.649   3.203
 1842SOL    HW2 5543   2.569   1.564   3.101
 1843SOL     OW 5544   3.214   0.052   2.030
 1843SOL    HW1 5545   3.249   0.011   1.946
 1843SOL    HW2 5546   3.124   0.014   2.050
 1844SOL     OW 5547   3.162   0.453   2.553
 1844SOL    HW1 5548   3.103   0.533   2.557
 1844SOL    HW2 5549   3.177   0.418   2.646
 1845SOL     OW 5550   3.455   0.221   2.744
 1845SOL    HW1 5551   3.371   0.220   2.798
 1845SOL    HW2 5552   3.457   0.304   2.688
 1846SOL     OW 5553   1.901   1.077   2.162
 1846SOL    HW1 5554   2.000   1.066   2.153
 1846SOL    HW2 5555   1.861   0.991   2.194
 1847SOL     OW 5556   2.737   1.646   2.199
 1847SOL    HW1 5557   2.660   1.611   2.145
 1847SOL    HW2 5558   2.705   1.717   2.261
 1848SOL     OW 5559   2.092   0.628   3.837
 1848SOL    HW1 5560   1.999   0.626   3.874
 1848SOL    HW2 5561   2.093   0.589   3.745
 1849SOL     OW 5562   2.087   0.275   4.720
 1849SOL    HW1 5563   2.122   0.258   4.812
 1849SOL    HW2 5564   1.999   0.230   4.708
 1850SOL     OW 5565   1.881   0.368   4.371
 1850SOL    HW1 5566   1.799   0.411   4.410
 1850SOL    HW2 5567   1.853   0.295   4.308
 1851SOL     OW 5568   3.417   1.511   4.427
 1851SOL    HW1 5569   3.360   1.495   4.508
 1851SOL    HW2 5570   3.358   1.521   4.347
 1852SOL     OW 5571   2.997   0.703   4.441
 1852SOL    HW1 5572   3.054   0.781   4.416
 1852SOL    HW2 5573   2.937   0.729   4.517
 1853SOL     OW 5574   3.617   0.607   3.955
 1853SOL    HW1 5575   3.605   0.594   3.856
 1853SOL    HW2 5576   3.587   0.526   4.004
 1854SOL     OW 5577   2.630   1.144   4.747
 1854SOL    HW1 5578   2.552   1.161   4.807
 1854SOL    HW2 5579   2.664   1.231   4.711
 1855SOL     OW 5580   2.547   1.012   4.389
 1855SOL    HW1 5581   2.616   0.996   4.459
 1855SOL    HW2 5582   2.474   1.069   4.427
 1856SOL     OW 5583   2.197   1.435   4.785
 1856SOL    HW1 5584   2.119   1.404   4.732
 1856SOL    HW2 5585   2.255   1.493   4.728
 1857SOL     OW 5586   3.465   0.447   4.461
 1857SOL    HW1 5587   3.391   0.493   4.411
 1857SOL    HW2 5588   3.516   0.515   4.514
 1858SOL     OW 5589   2.093   1.713   4.207
 1858SOL    HW1 5590   2.127   1.790   4.261
 1858SOL    HW2 5591   2.137   1.713   4.117
 1859SOL     OW 5592   2.092   1.434   4.262
 1859SOL    HW1 5593   2.066   1.530   4.262
 1859SOL    HW2 5594   2.021   1.380   4.307
 1860SOL     OW 5595   2.102   1.091   4.610
 1860SOL    HW1 5596   2.116   1.007   4.662
 1860SOL    HW2 5597   2.047   1.155   4.665
 1861SOL     OW 5598   2.468   0.964   3.847
 1861SOL    HW1 5599   2.475   1.048   3.793
 1861SOL    HW2 5600   2.514   0.977   3.935
 1862SOL     OW 5601   1.984   0.643   4.287
 1862SOL    HW1 5602   1.939   0.555   4.304
 1862SOL    HW2 5603   1.983   0.697   4.371
 1863SOL     OW 5604   3.704   1.767   4.083
 1863SOL    HW1 5605   3.758   1.738   4.163
 1863SOL    HW2 5606   3.734   1.857   4.054
 1864SOL     OW 5607   1.889   1.596   3.841
 1864SOL    HW1 5608   1.870   1.500   3.862
 1864SOL    HW2 5609   1.856   1.654   3.916
 1865SOL     OW 5610   3.551   0.922   4.336
 1865SOL    HW1 5611   3.646   0.893   4.344
 1865SOL    HW2 5612   3.543   0.987   4.261
 1866SOL     OW 5613   3.503   1.108   4.156
 1866SOL    HW1 5614   3.589   1.110   4.104
 1866SOL    HW2 5615   3.517   1.155   4.244
 1867SOL     OW 5616   2.475   1.365   4.450
 1867SOL    HW1 5617   2.426   1.278   4.459
 1867SOL    HW2 5618   2.452   1.408   4.363
 1868SOL     OW 5619   2.671   0.004   4.226
 1868SOL    HW1 5620   2.711   0.095   4.217
 1868SOL    HW2 5621   2.571   0.012   4.232
 1869SOL     OW 5622   3.387   0.999   3.914
 1869SOL    HW1 5623   3.324   0.923   3.927
 1869SOL    HW2 5624   3.435   1.017   4.000
 1870SOL     OW 5625   3.328   1.417   4.677
 1870SOL    HW1 5626   3.269   1.423   4.757
 1870SOL    HW2 5627   3.313   1.329   4.631
 1871SOL     OW 5628   3.529   1.714   4.296
 1871SOL    HW1 5629   3.488   1.691   4.208
 1871SOL    HW2 5630   3.511   1.640   4.361
 1872SOL     OW 5631   2.460   0.729   3.994
 1872SOL    HW1 5632   2.484   0.798   3.926
 1872SOL    HW2 5633   2.382   0.762   4.048
 1873SOL     OW 5634   3.143   0.345   4.668
 1873SOL    HW1 5635   3.057   0.295   4.655
 1873SOL    HW2 5636   3.205   0.291   4.724
 1874SOL     OW 5637   3.438   1.662   4.031
 1874SOL    HW1 5638   3.527   1.708   4.034
 1874SOL    HW2 5639   3.417   1.638   3.936
 1875SOL     OW 5640   2.903   0.701   4.153
 1875SOL    HW1 5641   2.929   0.697   4.249
 1875SOL    HW2 5642   2.818   0.650   4.139
 1876SOL     OW 5643   1.938   0.811   4.513
 1876SOL    HW1 5644   2.037   0.799   4.522
 1876SOL    HW2 5645   1.914   0.906   4.534
 1877SOL     OW 5646   2.727   0.348   3.919
 1877SOL    HW1 5647   2.786   0.411   3.870
 1877SOL    HW2 5648   2.746   0.254   3.890
 1878SOL     OW 5649   3.224   1.144   4.269
 1878SOL    HW1 5650   3.307   1.115   4.221
 1878SOL    HW2 5651   3.175   1.211   4.213
 1879SOL     OW 5652   2.412   0.196   4.609
 1879SOL    HW1 5653   2.407   0.191   4.709
 1879SOL    HW2 5654   2.414   0.292   4.580
 1880SOL     OW 5655   2.870   1.456   4.201
 1880SOL    HW1 5656   2.824   1.528   4.149
 1880SOL    HW2 5657   2.866   1.476   4.299
 1881SOL     OW 5658   2.213   1.801   4.577
 1881SOL    HW1 5659   2.263   1.715   4.583
 1881SOL    HW2 5660   2.278   1.878   4.574
 1882SOL     OW 5661   3.657   1.066   4.597
 1882SOL    HW1 5662   3.595   1.051   4.521
 1882SOL    HW2 5663   3.605   1.077   4.682
 1883SOL     OW 5664   2.183   0.943   3.966
 1883SOL    HW1 5665   2.265   0.982   3.924
 1883SOL    HW2 5666   2.156   0.861   3.917
 1884SOL     OW 5667   3.320   0.735   4.452
 1884SOL    HW1 5668   3.315   0.670   4.527
 1884SOL    HW2 5669   3.400   0.794   4.465
 1885SOL     OW 5670   2.973   1.776   3.961
 1885SOL    HW1 5671   2.913   1.714   4.011
 1885SOL    HW2 5672   3.004   1.732   3.876
 1886SOL     OW 5673   3.494   1.377   3.805
 1886SOL    HW1 5674   3.462   1.471   3.795
 1886SOL    HW2 5675   3.418   1.314   3.793
 1887SOL     OW 5676   2.326   1.743   4.047
 1887SOL    HW1 5677   2.359   1.782   4.133
 1887SOL    HW2 5678   2.402   1.736   3.982
 1888SOL     OW 5679   3.262   0.107   4.150
 1888SOL    HW1 5680   3.238   0.070   4.060
 1888SOL    HW2 5681   3.361   0.123   4.154
 1889SOL     OW 5682   2.111   1.785   4.965
 1889SOL    HW1 5683   2.168   1.720   5.015
 1889SOL    HW2 5684   2.095   1.752   4.872
 1890SOL     OW 5685   2.802   1.698   4.628
 1890SOL    HW1 5686   2.882   1.641   4.649
 1890SOL    HW2 5687   2.753   1.658   4.551
 1891SOL     OW 5688   2.244   0.700   4.204
 1891SOL    HW1 5689   2.289   0.610   4.201
 1891SOL    HW2 5690   2.150   0.689   4.237
 1892SOL     OW 5691   2.476   0.122   3.841
 1892SOL    HW1 5692   2.574   0.100   3.848
 1892SOL    HW2 5693   2.445   0.105   3.748
 1893SOL     OW 5694   2.665   1.402   4.648
 1893SOL    HW1 5695   2.755   1.416   4.606
 1893SOL    HW2 5696   2.594   1.404   4.577
 1894SOL     OW 5697   2.784   0.503   4.623
 1894SOL    HW1 5698   2.759   0.494   4.527
 1894SOL    HW2 5699   2.832   0.421   4.654
 1895SOL     OW 5700   2.401   0.064   4.236
 1895SOL    HW1 5701   2.320   0.065   4.294
 1895SOL    HW2 5702   2.404   0.147   4.181
 1896SOL     OW 5703   3.296   1.188   3.765
 1896SOL    HW1 5704   3.328   1.112   3.822
 1896SOL    HW2 5705   3.204   1.215   3.795
 1897SOL     OW 5706   2.159   0.035   3.895
 1897SOL    HW1 5707   2.208   0.119   3.874
 1897SOL    HW2 5708   2.221  -0.030   3.940
 1898SOL     OW 5709   2.797   0.236   4.204
 1898SOL    HW1 5710   2.749   0.277   4.126
 1898SOL    HW2 5711   2.896   0.234   4.185
 1899SOL     OW 5712   3.089   1.570   4.517
 1899SOL    HW1 5713   3.110   1.644   4.452
 1899SOL    HW2 5714   3.157   1.570   4.590
 1900SOL     OW 5715   2.321   1.152   4.465
 1900SOL    HW1 5716   2.250   1.125   4.530
 1900SOL    HW2 5717   2.295   1.124   4.372
 1901SOL     OW 5718   3.133   1.797   4.315
 1901SOL    HW1 5719   3.177   1.861   4.251
 1901SOL    HW2 5720   3.083   1.849   4.385
 1902SOL     OW 5721   2.894   0.549   3.740
 1902SOL    HW1 5722   2.853   0.631   3.701
 1902SOL    HW2 5723   2.958   0.575   3.813
 1903SOL     OW 5724   2.728   0.454   4.366
 1903SOL    HW1 5725   2.696   0.526   4.304
 1903SOL    HW2 5726   2.752   0.373   4.313
 1904SOL     OW 5727   2.879   0.039   4.477
 1904SOL    HW1 5728   2.807   0.044   4.408
 1904SOL    HW2 5729   2.855  -0.030   4.546
 1905SOL     OW 5730   3.291   1.173   4.591
 1905SOL    HW1 5731   3.236   1.089   4.584
 1905SOL    HW2 5732   3.317   1.202   4.499
 1906SOL     OW 5733   3.328   0.590   4.716
 1906SOL    HW1 5734   3.298   0.495   4.723
 1906SOL    HW2 5735   3.401   0.606   4.782
 1907SOL     OW 5736   3.719   0.833   4.101
 1907SOL    HW1 5737   3.761   0.769   4.165
 1907SOL    HW2 5738   3.681   0.782   4.023
 1908SOL     OW 5739   2.350   1.385   3.898
 1908SOL    HW1 5740   2.263   1.370   3.945
 1908SOL    HW2 5741   2.333   1.411   3.803
 1909SOL     OW 5742   3.526   1.280   4.381
 1909SOL    HW1 5743   3.625   1.288   4.395
 1909SOL    HW2 5744   3.481   1.364   4.412
 1910SOL     OW 5745   3.252   0.575   3.802
 1910SOL    HW1 5746   3.198   0.554   3.883
 1910SOL    HW2 5747   3.343   0.534   3.811
 1911SOL     OW 5748   2.389   0.256   4.052
 1911SOL    HW1 5749   2.416   0.197   3.977
 1911SOL    HW2 5750   2.389   0.351   4.021
 1912SOL     OW 5751   3.500   1.099   4.803
 1912SOL    HW1 5752   3.505   1.180   4.862
 1912SOL    HW2 5753   3.414   1.101   4.752
 1913SOL     OW 5754   2.567   1.050   4.092
 1913SOL    HW1 5755   2.553   1.057   4.191
 1913SOL    HW2 5756   2.651   0.999   4.074
 1914SOL     OW 5757   2.229   1.100   4.225
 1914SOL    HW1 5758   2.222   1.183   4.169
 1914SOL    HW2 5759   2.233   1.020   4.165
 1915SOL     OW 5760   2.428   0.537   4.589
 1915SOL    HW1 5761   2.440   0.603   4.515
 1915SOL    HW2 5762   2.474   0.571   4.672
 1916SOL     OW 5763   3.114   1.348   4.112
 1916SOL    HW1 5764   3.164   1.425   4.152
 1916SOL    HW2 5765   3.019   1.350   4.144
 1917SOL     OW 5766   3.444   0.639   4.196
 1917SOL    HW1 5767   3.413   0.700   4.269
 1917SOL    HW2 5768   3.494   0.691   4.127
 1918SOL     OW 5769   2.435   0.870   4.753
 1918SOL    HW1 5770   2.479   0.959   4.744
 1918SOL    HW2 5771   2.372   0.870   4.830
 1919SOL     OW 5772   3.071   0.525   3.999
 1919SOL    HW1 5773   3.084   0.441   4.053
 1919SOL    HW2 5774   3.042   0.599   4.059
 1920SOL     OW 5775   2.594   0.634   4.788
 1920SOL    HW1 5776   2.653   0.608   4.712
 1920SOL    HW2 5777   2.566   0.730   4.777
 1921SOL     OW 5778   2.169   0.063   4.342
 1921SOL    HW1 5779   2.158   0.157   4.375
 1921SOL    HW2 5780   2.164   0.000   4.419
 1922SOL     OW 5781   3.484   0.367   4.098
 1922SOL    HW1 5782   3.486   0.291   4.162
 1922SOL    HW2 5783   3.436   0.444   4.138
 1923SOL     OW 5784   3.402   0.274   3.849
 1923SOL    HW1 5785   3.341   0.199   3.872
 1923SOL    HW2 5786   3.424   0.326   3.932
 1924SOL     OW 5787   3.165   0.838   3.766
 1924SOL    HW1 5788   3.199   0.745   3.781
 1924SOL    HW2 5789   3.183   0.865   3.671
 1925SOL     OW 5790   2.930   1.333   4.573
 1925SOL    HW1 5791   2.937   1.249   4.518
 1925SOL    HW2 5792   2.992   1.402   4.537
 1926SOL     OW 5793   2.181   0.810   4.673
 1926SOL    HW1 5794   2.274   0.846   4.678
 1926SOL    HW2 5795   2.175   0.725   4.725
 1927SOL     OW 5796   2.201   0.509   4.730
 1927SOL    HW1 5797   2.149   0.426   4.713
 1927SOL    HW2 5798   2.278   0.514   4.666
 1928SOL     OW 5799   1.870   1.326   3.924
 1928SOL    HW1 5800   1.777   1.347   3.893
 1928SOL    HW2 5801   1.880   1.227   3.937
 1929SOL     OW 5802   1.950   1.801   4.651
 1929SOL    HW1 5803   1.908   1.715   4.624
 1929SOL    HW2 5804   2.044   1.804   4.617
 1930SOL     OW 5805   2.366   1.568   4.634
 1930SOL    HW1 5806   2.432   1.642   4.643
 1930SOL    HW2 5807   2.410   1.489   4.592
 1931SOL     OW 5808   2.864   0.796   4.962
 1931SOL    HW1 5809   2.905   0.764   5.048
 1931SOL    HW2 5810   2.768   0.769   4.959
 1932SOL     OW 5811   2.677   0.572   4.049
 1932SOL    HW1 5812   2.684   0.483   4.003
 1932SOL    HW2 5813   2.583   0.606   4.041
 1933SOL     OW 5814   2.533   0.464   4.993
 1933SOL    HW1 5815   2.499   0.375   4.963
 1933SOL    HW2 5816   2.559   0.518   4.913
 1934SOL     OW 5817   2.335   0.500   3.915
 1934SOL    HW1 5818   2.396   0.580   3.919
 1934SOL    HW2 5819   2.240   0.531   3.922
 1935SOL     OW 5820   3.164   0.855   4.033
 1935SOL    HW1 5821   3.078   0.824   4.075
 1935SOL    HW2 5822   3.160   0.841   3.934
 1936SOL     OW 5823   3.621   1.747   4.878
 1936SOL    HW1 5824   3.682   1.777   4.805
 1936SOL    HW2 5825   3.583   1.658   4.856
 1937SOL     OW 5826   1.945   1.258   4.746
 1937SOL    HW1 5827   1.940   1.257   4.846
 1937SOL    HW2 5828   1.862   1.217   4.708
 1938SOL     OW 5829   3.588   0.135   4.247
 1938SOL    HW1 5830   3.661   0.118   4.180
 1938SOL    HW2 5831   3.557   0.048   4.285
 1939SOL     OW 5832   3.250   1.573   4.201
 1939SOL    HW1 5833   3.317   1.585   4.127
 1939SOL    HW2 5834   3.210   1.662   4.224
 1940SOL     OW 5835   3.142   0.927   4.396
 1940SOL    HW1 5836   3.202   0.846   4.398
 1940SOL    HW2 5837   3.182   0.996   4.336
 1941SOL     OW 5838   2.534   1.616   3.878
 1941SOL    HW1 5839   2.543   1.626   3.779
 1941SOL    HW2 5840   2.494   1.527   3.899
 1942SOL     OW 5841   3.703   0.175   4.687
 1942SOL    HW1 5842   3.742   0.090   4.651
 1942SOL    HW2 5843   3.605   0.177   4.668
 1943SOL     OW 5844   2.125   0.326   4.444
 1943SOL    HW1 5845   2.046   0.377   4.410
 1943SOL    HW2 5846   2.116   0.311   4.542
 1944SOL     OW 5847   3.056   1.612   3.755
 1944SOL    HW1 5848   3.062   1.519   3.792
 1944SOL    HW2 5849   2.997   1.612   3.675
 1945SOL     OW 5850   2.778   0.910   4.015
 1945SOL    HW1 5851   2.841   0.948   3.947
 1945SOL    HW2 5852   2.818   0.827   4.054
 1946SOL     OW 5853   3.366   1.607   3.768
 1946SOL    HW1 5854   3.274   1.644   3.775
 1946SOL    HW2 5855   3.404   1.627   3.678
 1947SOL     OW 5856   2.901   1.098   4.420
 1947SOL    HW1 5857   2.831   1.051   4.474
 1947SOL    HW2 5858   2.960   1.030   4.377
 1948SOL     OW 5859   2.876   0.236   4.695
 1948SOL    HW1 5860   2.868   0.200   4.602
 1948SOL    HW2 5861   2.874   0.160   4.760
 1949SOL     OW 5862   2.452   1.487   4.215
 1949SOL    HW1 5863   2.494   1.429   4.145
 1949SOL    HW2 5864   2.408   1.566   4.171
 1950SOL     OW 5865   2.117   1.348   4.014
 1950SOL    HW1 5866   2.021   1.349   3.987
 1950SOL    HW2 5867   2.129   1.401   4.098
 1951SOL     OW 5868   1.937   0.345   3.757
 1951SOL    HW1 5869   1.845   0.317   3.728
 1951SOL    HW2 5870   1.968   0.422   3.701
 1952SOL     OW 5871   1.934   0.166   4.042
 1952SOL    HW1 5872   1.917   0.249   3.988
 1952SOL    HW2 5873   2.024   0.129   4.020
 1953SOL     OW 5874   3.045   1.335   3.843
 1953SOL    HW1 5875   2.946   1.324   3.845
 1953SOL    HW2 5876   3.079   1.350   3.936
 1954SOL     OW 5877   3.536   0.883   4.978
 1954SOL    HW1 5878   3.509   0.794   4.941
 1954SOL    HW2 5879   3.537   0.951   4.905
 1955SOL     OW 5880   3.087   0.325   4.173
 1955SOL    HW1 5881   3.152   0.251   4.162
 1955SOL    HW2 5882   3.107   0.375   4.257
 1956SOL     OW 5883   2.456   0.745   4.376
 1956SOL    HW1 5884   2.506   0.830   4.357
 1956SOL    HW2 5885   2.368   0.747   4.328
 1957SOL     OW 5886   2.721   1.374   3.740
 1957SOL    HW1 5887   2.675   1.389   3.828
 1957SOL    HW2 5888   2.765   1.459   3.710
 1958SOL     OW 5889   2.523   1.790   4.677
 1958SOL    HW1 5890   2.477   1.878   4.664
 1958SOL    HW2 5891   2.622   1.802   4.670
 1959SOL     OW 5892   2.721   0.956   4.585
 1959SOL    HW1 5893   2.775   0.887   4.633
 1959SOL    HW2 5894   2.689   1.025   4.651
 1960SOL     OW 5895   2.945   0.984   3.811
 1960SOL    HW1 5896   2.922   1.037   3.729
 1960SOL    HW2 5897   3.026   0.928   3.792
 1961SOL     OW 5898   3.723   1.569   4.575
 1961SOL    HW1 5899   3.652   1.557   4.505
 1961SOL    HW2 5900   3.724   1.490   4.635
 1962SOL     OW 5901   1.941   1.240   4.377
 1962SOL    HW1 5902   1.940   1.193   4.465
 1962SOL    HW2 5903   2.023   1.212   4.326
 1963SOL     OW 5904   3.686   0.192   4.951
 1963SOL    HW1 5905   3.682   0.102   4.995
 1963SOL    HW2 5906   3.689   0.181   4.852
 1964SOL     OW 5907   2.290   0.424   4.244
 1964SOL    HW1 5908   2.320   0.352   4.182
 1964SOL    HW2 5909   2.251   0.384   4.327
 1965SOL     OW 5910   2.674   1.586   4.411
 1965SOL    HW1 5911   2.706   1.596   4.317
 1965SOL    HW2 5912   2.595   1.524   4.413
 1966SOL     OW 5913   2.632   1.330   4.025
 1966SOL    HW1 5914   2.586   1.243   4.042
 1966SOL    HW2 5915   2.723   1.327   4.066
 1967SOL     OW 5916   3.214   0.052   3.892
 1967SOL    HW1 5917   3.249   0.011   3.808
 1967SOL    HW2 5918   3.124   0.014   3.912
 1968SOL     OW 5919   3.162   0.453   4.415
 1968SOL    HW1 5920   3.103   0.533   4.419
 1968SOL    HW2 5921   3.177   0.418   4.508
 1969SOL     OW 5922   3.455   0.221   4.606
 1969SOL    HW1 5923   3.371   0.220   4.660
 1969SOL    HW2 5924   3.457   0.304   4.550
 1970SOL     OW 5925   1.901   1.077   4.024
 1970SOL    HW1 5926   2.000   1.066   4.015
 1970SOL    HW2 5927   1.861   0.991   4.056
 1971SOL     OW 5928   2.737   1.646   4.061
 1971SOL    HW1 5929   2.660   1.611   4.007
 1971SOL    HW2 5930   2.705   1.717   4.123
 1972SOL     OW 5931   2.092   2.490   0.113
 1972SOL    HW1 5932   1.999   2.488   0.150
 1972SOL    HW2 5933   2.093   2.451   0.021
 1973SOL     OW 5934   2.087   2.137   0.996
 1973SOL    HW1 5935   2.122   2.120   1.088
 1973SOL    HW2 5936   1.999   2.092   0.984
 1974SOL     OW 5937   1.881   2.230   0.647
 1974SOL    HW1 5938   1.799   2.273   0.686
 1974SOL    HW2 5939   1.853   2.157   0.584
 1975SOL     OW 5940   2.431   3.137   1.165
 1975SOL    HW1 5941   2.338   3.130   1.128
 1975SOL    HW2 5942   2.442   3.226   1.209
 1976SOL     OW 5943   3.417   3.373   0.703
 1976SOL    HW1 5944   3.360   3.357   0.784
 1976SOL    HW2 5945   3.358   3.383   0.623
 1977SOL     OW 5946   2.997   2.565   0.717
 1977SOL    HW1 5947   3.054   2.643   0.692
 1977SOL    HW2 5948   2.937   2.591   0.793
 1978SOL     OW 5949   3.617   2.469   0.231
 1978SOL    HW1 5950   3.605   2.456   0.132
 1978SOL    HW2 5951   3.587   2.388   0.280
 1979SOL     OW 5952   2.630   3.006   1.023
 1979SOL    HW1 5953   2.552   3.023   1.083
 1979SOL    HW2 5954   2.664   3.093   0.987
 1980SOL     OW 5955   2.712   2.660   1.823
 1980SOL    HW1 5956   2.708   2.736   1.888
 1980SOL    HW2 5957   2.734   2.696   1.732
 1981SOL     OW 5958   2.547   2.874   0.665
 1981SOL    HW1 5959   2.616   2.858   0.735
 1981SOL    HW2 5960   2.474   2.931   0.703
 1982SOL     OW 5961   2.548   3.023   1.803
 1982SOL    HW1 5962   2.608   3.102   1.817
 1982SOL    HW2 5963   2.462   3.054   1.762
 1983SOL     OW 5964   2.197   3.297   1.061
 1983SOL    HW1 5965   2.119   3.266   1.008
 1983SOL    HW2 5966   2.255   3.355   1.004
 1984SOL     OW 5967   3.322   3.367   1.339
 1984SOL    HW1 5968   3.346   3.461   1.365
 1984SOL    HW2 5969   3.306   3.313   1.421
 1985SOL     OW 5970   2.300   2.254   1.499
 1985SOL    HW1 5971   2.382   2.198   1.508
 1985SOL    HW2 5972   2.219   2.196   1.503
 1986SOL     OW 5973   3.465   2.309   0.737
 1986SOL    HW1 5974   3.391   2.355   0.687
 1986SOL    HW2 5975   3.516   2.377   0.790
 1987SOL     OW 5976   2.093   3.575   0.483
 1987SOL    HW1 5977   2.127   3.652   0.537
 1987SOL    HW2 5978   2.137   3.575   0.393
 1988SOL     OW 5979   2.989   3.203   1.690
 1988SOL    HW1 5980   3.036   3.203   1.778
 1988SOL    HW2 5981   2.941   3.116   1.679
 1989SOL     OW 5982   2.092   3.296   0.538
 1989SOL    HW1 5983   2.066   3.392   0.538
 1989SOL    HW2 5984   2.021   3.242   0.583
 1990SOL     OW 5985   2.102   2.953   0.886
 1990SOL    HW1 5986   2.116   2.869   0.938
 1990SOL    HW2 5987   2.047   3.017   0.941
 1991SOL     OW 5988   2.482   3.648   1.439
 1991SOL    HW1 5989   2.390   3.631   1.474
 1991SOL    HW2 5990   2.510   3.740   1.465
 1992SOL     OW 5991   2.468   2.826   0.123
 1992SOL    HW1 5992   2.475   2.910   0.069
 1992SOL    HW2 5993   2.514   2.839   0.211
 1993SOL     OW 5994   3.456   1.976   1.480
 1993SOL    HW1 5995   3.438   2.043   1.408
 1993SOL    HW2 5996   3.453   2.022   1.569
 1994SOL     OW 5997   1.984   2.505   0.563
 1994SOL    HW1 5998   1.939   2.417   0.580
 1994SOL    HW2 5999   1.983   2.559   0.647
 1995SOL     OW 6000   3.704   3.629   0.359
 1995SOL    HW1 6001   3.758   3.600   0.439
 1995SOL    HW2 6002   3.734   3.719   0.330
 1996SOL     OW 6003   1.889   3.458   0.117
 1996SOL    HW1 6004   1.870   3.362   0.138
 1996SOL    HW2 6005   1.856   3.516   0.192
 1997SOL     OW 6006   3.551   2.784   0.612
 1997SOL    HW1 6007   3.646   2.755   0.620
 1997SOL    HW2 6008   3.543   2.849   0.537
 1998SOL     OW 6009   3.503   2.970   0.432
 1998SOL    HW1 6010   3.589   2.972   0.380
 1998SOL    HW2 6011   3.517   3.017   0.520
 1999SOL     OW 6012   1.975   2.599   1.597
 1999SOL    HW1 6013   2.063   2.586   1.642
 1999SOL    HW2 6014   1.962   2.696   1.575
 2000SOL     OW 6015   2.475   3.227   0.726
 2000SOL    HW1 6016   2.426   3.140   0.735
 2000SOL    HW2 6017   2.452   3.270   0.639
 2001SOL     OW 6018   3.155   3.090   1.423
 2001SOL    HW1 6019   3.192   3.017   1.365
 2001SOL    HW2 6020   3.207   3.095   1.508
 2002SOL     OW 6021   2.671   1.866   0.502
 2002SOL    HW1 6022   2.711   1.957   0.493
 2002SOL    HW2 6023   2.571   1.874   0.508
 2003SOL     OW 6024   2.059   2.838   1.264
 2003SOL    HW1 6025   2.148   2.793   1.250
 2003SOL    HW2 6026   1.986   2.773   1.245
 2004SOL     OW 6027   3.387   2.861   0.190
 2004SOL    HW1 6028   3.324   2.785   0.203
 2004SOL    HW2 6029   3.435   2.879   0.276
 2005SOL     OW 6030   3.049   3.654   1.616
 2005SOL    HW1 6031   3.073   3.714   1.540
 2005SOL    HW2 6032   3.056   3.559   1.586
 2006SOL     OW 6033   2.179   2.113   1.801
 2006SOL    HW1 6034   2.250   2.184   1.807
 2006SOL    HW2 6035   2.091   2.152   1.829
 2007SOL     OW 6036   3.328   3.279   0.953
 2007SOL    HW1 6037   3.269   3.285   1.033
 2007SOL    HW2 6038   3.313   3.191   0.907
 2008SOL     OW 6039   3.529   3.576   0.572
 2008SOL    HW1 6040   3.488   3.553   0.484
 2008SOL    HW2 6041   3.511   3.502   0.637
 2009SOL     OW 6042   2.460   2.591   0.270
 2009SOL    HW1 6043   2.484   2.660   0.202
 2009SOL    HW2 6044   2.382   2.624   0.324
 2010SOL     OW 6045   3.143   2.207   0.944
 2010SOL    HW1 6046   3.057   2.157   0.931
 2010SOL    HW2 6047   3.205   2.153   1.000
 2011SOL     OW 6048   3.438   3.524   0.307
 2011SOL    HW1 6049   3.527   3.570   0.310
 2011SOL    HW2 6050   3.417   3.500   0.212
 2012SOL     OW 6051   2.669   2.467   1.465
 2012SOL    HW1 6052   2.622   2.464   1.554
 2012SOL    HW2 6053   2.618   2.412   1.399
 2013SOL     OW 6054   3.256   2.331   1.674
 2013SOL    HW1 6055   3.236   2.374   1.762
 2013SOL    HW2 6056   3.334   2.269   1.683
 2014SOL     OW 6057   2.835   2.752   1.572
 2014SOL    HW1 6058   2.881   2.668   1.543
 2014SOL    HW2 6059   2.779   2.786   1.497
 2015SOL     OW 6060   2.853   2.272   1.242
 2015SOL    HW1 6061   2.776   2.306   1.296
 2015SOL    HW2 6062   2.819   2.221   1.163
 2016SOL     OW 6063   2.903   2.563   0.429
 2016SOL    HW1 6064   2.929   2.559   0.525
 2016SOL    HW2 6065   2.818   2.512   0.415
 2017SOL     OW 6066   1.938   2.673   0.789
 2017SOL    HW1 6067   2.037   2.661   0.798
 2017SOL    HW2 6068   1.914   2.768   0.810
 2018SOL     OW 6069   1.992   3.683   1.571
 2018SOL    HW1 6070   1.982   3.668   1.670
 2018SOL    HW2 6071   1.906   3.719   1.535
 2019SOL     OW 6072   2.727   2.210   0.195
 2019SOL    HW1 6073   2.786   2.273   0.146
 2019SOL    HW2 6074   2.746   2.116   0.166
 2020SOL     OW 6075   3.581   2.447   1.831
 2020SOL    HW1 6076   3.555   2.536   1.795
 2020SOL    HW2 6077   3.579   2.379   1.758
 2021SOL     OW 6078   3.224   3.006   0.545
 2021SOL    HW1 6079   3.307   2.977   0.497
 2021SOL    HW2 6080   3.175   3.073   0.489
 2022SOL     OW 6081   2.412   2.058   0.885
 2022SOL    HW1 6082   2.407   2.053   0.985
 2022SOL    HW2 6083   2.414   2.154   0.856
 2023SOL     OW 6084   2.870   3.318   0.477
 2023SOL    HW1 6085   2.824   3.390   0.425
 2023SOL    HW2 6086   2.866   3.338   0.575
 2024SOL     OW 6087   2.213   3.663   0.853
 2024SOL    HW1 6088   2.263   3.577   0.859
 2024SOL    HW2 6089   2.278   3.740   0.850
 2025SOL     OW 6090   3.657   2.928   0.873
 2025SOL    HW1 6091   3.595   2.913   0.797
 2025SOL    HW2 6092   3.605   2.939   0.958
 2026SOL     OW 6093   3.089   3.412   1.506
 2026SOL    HW1 6094   3.095   3.335   1.570
 2026SOL    HW2 6095   3.037   3.386   1.426
 2027SOL     OW 6096   2.183   2.805   0.242
 2027SOL    HW1 6097   2.265   2.844   0.200
 2027SOL    HW2 6098   2.156   2.723   0.193
 2028SOL     OW 6099   3.320   2.597   0.728
 2028SOL    HW1 6100   3.315   2.532   0.803
 2028SOL    HW2 6101   3.400   2.656   0.741
 2029SOL     OW 6102   2.323   3.128   1.727
 2029SOL    HW1 6103   2.273   3.129   1.641
 2029SOL    HW2 6104   2.260   3.110   1.803
 2030SOL     OW 6105   2.973   3.638   0.237
 2030SOL    HW1 6106   2.913   3.576   0.287
 2030SOL    HW2 6107   3.004   3.594   0.152
 2031SOL     OW 6108   2.064   2.147   1.498
 2031SOL    HW1 6109   1.984   2.207   1.485
 2031SOL    HW2 6110   2.054   2.098   1.584
 2032SOL     OW 6111   3.494   3.239   0.081
 2032SOL    HW1 6112   3.462   3.333   0.071
 2032SOL    HW2 6113   3.418   3.176   0.069
 2033SOL     OW 6114   2.326   3.605   0.323
 2033SOL    HW1 6115   2.359   3.644   0.409
 2033SOL    HW2 6116   2.402   3.598   0.258
 2034SOL     OW 6117   3.262   1.969   0.426
 2034SOL    HW1 6118   3.238   1.932   0.336
 2034SOL    HW2 6119   3.361   1.985   0.430
 2035SOL     OW 6120   2.111   3.647   1.241
 2035SOL    HW1 6121   2.168   3.582   1.291
 2035SOL    HW2 6122   2.095   3.614   1.148
 2036SOL     OW 6123   2.802   3.560   0.904
 2036SOL    HW1 6124   2.882   3.503   0.925
 2036SOL    HW2 6125   2.753   3.520   0.827
 2037SOL     OW 6126   2.244   2.562   0.480
 2037SOL    HW1 6127   2.289   2.472   0.477
 2037SOL    HW2 6128   2.150   2.551   0.513
 2038SOL     OW 6129   3.409   2.084   1.729
 2038SOL    HW1 6130   3.404   2.121   1.821
 2038SOL    HW2 6131   3.337   2.015   1.717
 2039SOL     OW 6132   2.476   1.984   0.117
 2039SOL    HW1 6133   2.574   1.962   0.124
 2039SOL    HW2 6134   2.445   1.967   0.024
 2040SOL     OW 6135   2.643   2.126   1.749
 2040SOL    HW1 6136   2.710   2.065   1.792
 2040SOL    HW2 6137   2.570   2.145   1.814
 2041SOL     OW 6138   2.750   3.376   1.195
 2041SOL    HW1 6139   2.727   3.351   1.101
 2041SOL    HW2 6140   2.811   3.307   1.234
 2042SOL     OW 6141   3.213   2.452   1.433
 2042SOL    HW1 6142   3.241   2.409   1.518
 2042SOL    HW2 6143   3.238   2.548   1.434
 2043SOL     OW 6144   2.665   3.264   0.924
 2043SOL    HW1 6145   2.755   3.278   0.882
 2043SOL    HW2 6146   2.594   3.266   0.853
 2044SOL     OW 6147   2.784   2.365   0.899
 2044SOL    HW1 6148   2.759   2.356   0.803
 2044SOL    HW2 6149   2.832   2.283   0.930
 2045SOL     OW 6150   2.401   1.926   0.512
 2045SOL    HW1 6151   2.320   1.927   0.570
 2045SOL    HW2 6152   2.404   2.009   0.457
 2046SOL     OW 6153   3.296   3.050   0.041
 2046SOL    HW1 6154   3.328   2.974   0.098
 2046SOL    HW2 6155   3.204   3.077   0.071
 2047SOL     OW 6156   2.797   2.098   0.480
 2047SOL    HW1 6157   2.749   2.139   0.402
 2047SOL    HW2 6158   2.896   2.096   0.461
 2048SOL     OW 6159   2.938   2.545   1.464
 2048SOL    HW1 6160   2.858   2.484   1.467
 2048SOL    HW2 6161   3.019   2.492   1.440
 2049SOL     OW 6162   3.089   3.432   0.793
 2049SOL    HW1 6163   3.110   3.506   0.728
 2049SOL    HW2 6164   3.157   3.432   0.866
 2050SOL     OW 6165   2.321   3.014   0.741
 2050SOL    HW1 6166   2.250   2.987   0.806
 2050SOL    HW2 6167   2.295   2.986   0.648
 2051SOL     OW 6168   3.133   3.659   0.591
 2051SOL    HW1 6169   3.177   3.723   0.527
 2051SOL    HW2 6170   3.083   3.711   0.661
 2052SOL     OW 6171   2.894   2.411   0.016
 2052SOL    HW1 6172   2.853   2.493  -0.023
 2052SOL    HW2 6173   2.958   2.437   0.089
 2053SOL     OW 6174   1.940   2.418   1.386
 2053SOL    HW1 6175   2.032   2.417   1.345
 2053SOL    HW2 6176   1.934   2.492   1.453
 2054SOL     OW 6177   2.423   2.084   1.147
 2054SOL    HW1 6178   2.461   2.000   1.184
 2054SOL    HW2 6179   2.335   2.103   1.191
 2055SOL     OW 6180   2.728   2.316   0.642
 2055SOL    HW1 6181   2.696   2.388   0.580
 2055SOL    HW2 6182   2.752   2.235   0.589
 2056SOL     OW 6183   2.879   1.901   0.753
 2056SOL    HW1 6184   2.807   1.906   0.684
 2056SOL    HW2 6185   2.855   1.832   0.822
 2057SOL     OW 6186   3.291   3.035   0.867
 2057SOL    HW1 6187   3.236   2.951   0.860
 2057SOL    HW2 6188   3.317   3.064   0.775
 2058SOL     OW 6189   3.328   2.452   0.992
 2058SOL    HW1 6190   3.298   2.357   0.999
 2058SOL    HW2 6191   3.401   2.468   1.058
 2059SOL     OW 6192   3.719   2.695   0.377
 2059SOL    HW1 6193   3.761   2.631   0.441
 2059SOL    HW2 6194   3.681   2.644   0.299
 2060SOL     OW 6195   2.350   3.247   0.174
 2060SOL    HW1 6196   2.263   3.232   0.221
 2060SOL    HW2 6197   2.333   3.273   0.079
 2061SOL     OW 6198   3.526   3.142   0.657
 2061SOL    HW1 6199   3.625   3.150   0.671
 2061SOL    HW2 6200   3.481   3.226   0.688
 2062SOL     OW 6201   3.252   2.437   0.078
 2062SOL    HW1 6202   3.198   2.416   0.159
 2062SOL    HW2 6203   3.343   2.396   0.087
 2063SOL     OW 6204   2.389   2.118   0.328
 2063SOL    HW1 6205   2.416   2.059   0.253
 2063SOL    HW2 6206   2.389   2.213   0.297
 2064SOL     OW 6207   3.616   3.085   1.588
 2064SOL    HW1 6208   3.707   3.046   1.575
 2064SOL    HW2 6209   3.624   3.181   1.612
 2065SOL     OW 6210   2.926   3.209   1.340
 2065SOL    HW1 6211   2.846   3.186   1.395
 2065SOL    HW2 6212   3.009   3.183   1.389
 2066SOL     OW 6213   3.454   3.491   1.625
 2066SOL    HW1 6214   3.481   3.525   1.535
 2066SOL    HW2 6215   3.533   3.453   1.671
 2067SOL     OW 6216   2.973   3.057   1.100
 2067SOL    HW1 6217   2.933   3.101   1.181
 2067SOL    HW2 6218   2.932   3.094   1.017
 2068SOL     OW 6219   3.500   2.961   1.079
 2068SOL    HW1 6220   3.505   3.042   1.138
 2068SOL    HW2 6221   3.414   2.963   1.028
 2069SOL     OW 6222   2.777   1.951   1.402
 2069SOL    HW1 6223   2.802   1.931   1.307
 2069SOL    HW2 6224   2.849   2.007   1.444
 2070SOL     OW 6225   2.842   2.978   1.719
 2070SOL    HW1 6226   2.743   2.984   1.729
 2070SOL    HW2 6227   2.865   2.898   1.663
 2071SOL     OW 6228   2.567   2.912   0.368
 2071SOL    HW1 6229   2.553   2.919   0.467
 2071SOL    HW2 6230   2.651   2.861   0.350
 2072SOL     OW 6231   2.272   2.675   1.251
 2072SOL    HW1 6232   2.358   2.687   1.301
 2072SOL    HW2 6233   2.230   2.588   1.278
 2073SOL     OW 6234   3.136   2.248   1.262
 2073SOL    HW1 6235   3.157   2.322   1.326
 2073SOL    HW2 6236   3.047   2.265   1.219
 2074SOL     OW 6237   1.926   3.426   1.331
 2074SOL    HW1 6238   1.880   3.508   1.297
 2074SOL    HW2 6239   2.024   3.445   1.340
 2075SOL     OW 6240   2.229   2.962   0.501
 2075SOL    HW1 6241   2.222   3.045   0.445
 2075SOL    HW2 6242   2.233   2.882   0.441
 2076SOL     OW 6243   2.428   2.399   0.865
 2076SOL    HW1 6244   2.440   2.465   0.791
 2076SOL    HW2 6245   2.474   2.433   0.948
 2077SOL     OW 6246   3.114   3.210   0.388
 2077SOL    HW1 6247   3.164   3.287   0.428
 2077SOL    HW2 6248   3.019   3.212   0.420
 2078SOL     OW 6249   3.134   3.307   1.142
 2078SOL    HW1 6250   3.181   3.320   1.229
 2078SOL    HW2 6251   3.068   3.233   1.151
 2079SOL     OW 6252   3.444   2.501   0.472
 2079SOL    HW1 6253   3.413   2.562   0.545
 2079SOL    HW2 6254   3.494   2.553   0.403
 2080SOL     OW 6255   2.216   3.372   1.329
 2080SOL    HW1 6256   2.195   3.328   1.242
 2080SOL    HW2 6257   2.313   3.398   1.332
 2081SOL     OW 6258   2.264   2.613   1.598
 2081SOL    HW1 6259   2.332   2.668   1.551
 2081SOL    HW2 6260   2.304   2.525   1.625
 2082SOL     OW 6261   3.449   2.641   1.670
 2082SOL    HW1 6262   3.357   2.679   1.665
 2082SOL    HW2 6263   3.509   2.688   1.605
 2083SOL     OW 6264   2.875   1.967   1.770
 2083SOL    HW1 6265   2.881   2.052   1.718
 2083SOL    HW2 6266   2.907   1.891   1.713
 2084SOL     OW 6267   2.366   1.912   1.740
 2084SOL    HW1 6268   2.324   1.855   1.670
 2084SOL    HW2 6269   2.300   1.981   1.772
 2085SOL     OW 6270   2.435   2.732   1.029
 2085SOL    HW1 6271   2.479   2.821   1.020
 2085SOL    HW2 6272   2.372   2.732   1.106
 2086SOL     OW 6273   3.222   2.724   1.045
 2086SOL    HW1 6274   3.147   2.724   0.979
 2086SOL    HW2 6275   3.259   2.632   1.054
 2087SOL     OW 6276   3.071   2.387   0.275
 2087SOL    HW1 6277   3.084   2.303   0.329
 2087SOL    HW2 6278   3.042   2.461   0.335
 2088SOL     OW 6279   2.169   2.075   1.231
 2088SOL    HW1 6280   2.146   2.112   1.321
 2088SOL    HW2 6281   2.139   1.980   1.225
 2089SOL     OW 6282   1.899   3.172   1.282
 2089SOL    HW1 6283   1.952   3.123   1.350
 2089SOL    HW2 6284   1.921   3.270   1.287
 2090SOL     OW 6285   2.594   2.496   1.064
 2090SOL    HW1 6286   2.653   2.470   0.988
 2090SOL    HW2 6287   2.566   2.592   1.053
 2091SOL     OW 6288   3.590   2.797   1.854
 2091SOL    HW1 6289   3.544   2.790   1.765
 2091SOL    HW2 6290   3.528   2.841   1.920
 2092SOL     OW 6291   2.169   1.925   0.618
 2092SOL    HW1 6292   2.158   2.019   0.651
 2092SOL    HW2 6293   2.164   1.862   0.695
 2093SOL     OW 6294   3.484   2.229   0.374
 2093SOL    HW1 6295   3.486   2.153   0.438
 2093SOL    HW2 6296   3.436   2.306   0.414
 2094SOL     OW 6297   2.885   2.628   0.966
 2094SOL    HW1 6298   2.900   2.649   1.062
 2094SOL    HW2 6299   2.855   2.533   0.957
 2095SOL     OW 6300   2.842   3.435   1.700
 2095SOL    HW1 6301   2.822   3.479   1.612
 2095SOL    HW2 6302   2.881   3.344   1.684
 2096SOL     OW 6303   3.721   3.380   1.605
 2096SOL    HW1 6304   3.735   3.407   1.510
 2096SOL    HW2 6305   3.804   3.402   1.658
 2097SOL     OW 6306   2.212   2.760   1.804
 2097SOL    HW1 6307   2.288   2.804   1.852
 2097SOL    HW2 6308   2.247   2.713   1.722
 2098SOL     OW 6309   3.402   2.136   0.125
 2098SOL    HW1 6310   3.341   2.061   0.148
 2098SOL    HW2 6311   3.424   2.188   0.208
 2099SOL     OW 6312   3.165   2.700   0.042
 2099SOL    HW1 6313   3.199   2.607   0.057
 2099SOL    HW2 6314   3.183   2.727  -0.053
 2100SOL     OW 6315   2.930   3.195   0.849
 2100SOL    HW1 6316   2.937   3.111   0.794
 2100SOL    HW2 6317   2.992   3.264   0.813
 2101SOL     OW 6318   2.181   2.672   0.949
 2101SOL    HW1 6319   2.274   2.708   0.954
 2101SOL    HW2 6320   2.175   2.587   1.001
 2102SOL     OW 6321   2.201   2.371   1.006
 2102SOL    HW1 6322   2.149   2.288   0.989
 2102SOL    HW2 6323   2.278   2.376   0.942
 2103SOL     OW 6324   3.000   2.242   1.678
 2103SOL    HW1 6325   2.955   2.305   1.742
 2103SOL    HW2 6326   3.093   2.273   1.661
 2104SOL     OW 6327   3.022   2.069   1.477
 2104SOL    HW1 6328   3.022   2.133   1.554
 2104SOL    HW2 6329   3.050   2.117   1.394
 2105SOL     OW 6330   1.870   3.188   0.200
 2105SOL    HW1 6331   1.777   3.209   0.169
 2105SOL    HW2 6332   1.880   3.089   0.213
 2106SOL     OW 6333   1.950   3.663   0.927
 2106SOL    HW1 6334   1.908   3.577   0.900
 2106SOL    HW2 6335   2.044   3.666   0.893
 2107SOL     OW 6336   2.366   3.430   0.910
 2107SOL    HW1 6337   2.432   3.504   0.919
 2107SOL    HW2 6338   2.410   3.351   0.868
 2108SOL     OW 6339   2.864   2.658   1.238
 2108SOL    HW1 6340   2.905   2.626   1.324
 2108SOL    HW2 6341   2.768   2.631   1.235
 2109SOL     OW 6342   1.902   2.406   1.114
 2109SOL    HW1 6343   1.987   2.373   1.073
 2109SOL    HW2 6344   1.915   2.421   1.212
 2110SOL     OW 6345   2.051   2.382   1.722
 2110SOL    HW1 6346   2.110   2.342   1.652
 2110SOL    HW2 6347   1.993   2.453   1.681
 2111SOL     OW 6348   3.231   2.812   1.660
 2111SOL    HW1 6349   3.270   2.901   1.680
 2111SOL    HW2 6350   3.241   2.792   1.563
 2112SOL     OW 6351   2.677   2.434   0.325
 2112SOL    HW1 6352   2.684   2.345   0.279
 2112SOL    HW2 6353   2.583   2.468   0.317
 2113SOL     OW 6354   3.519   2.466   1.206
 2113SOL    HW1 6355   3.481   2.397   1.268
 2113SOL    HW2 6356   3.601   2.430   1.162
 2114SOL     OW 6357   2.114   3.426   1.744
 2114SOL    HW1 6358   2.084   3.483   1.820
 2114SOL    HW2 6359   2.107   3.329   1.770
 2115SOL     OW 6360   2.533   2.326   1.269
 2115SOL    HW1 6361   2.499   2.237   1.239
 2115SOL    HW2 6362   2.559   2.380   1.189
 2116SOL     OW 6363   2.792   3.540   1.465
 2116SOL    HW1 6364   2.768   3.522   1.370
 2116SOL    HW2 6365   2.822   3.634   1.475
 2117SOL     OW 6366   2.335   2.362   0.191
 2117SOL    HW1 6367   2.396   2.442   0.195
 2117SOL    HW2 6368   2.240   2.393   0.198
 2118SOL     OW 6369   2.021   2.999   1.466
 2118SOL    HW1 6370   2.043   2.938   1.542
 2118SOL    HW2 6371   2.031   2.950   1.380
 2119SOL     OW 6372   3.209   2.921   1.234
 2119SOL    HW1 6373   3.233   2.858   1.160
 2119SOL    HW2 6374   3.119   2.961   1.216
 2120SOL     OW 6375   3.164   2.717   0.309
 2120SOL    HW1 6376   3.078   2.686   0.351
 2120SOL    HW2 6377   3.160   2.703   0.210
 2121SOL     OW 6378   3.621   3.609   1.154
 2121SOL    HW1 6379   3.682   3.639   1.081
 2121SOL    HW2 6380   3.583   3.520   1.132
 2122SOL     OW 6381   3.114   3.593   1.128
 2122SOL    HW1 6382   3.198   3.598   1.074
 2122SOL    HW2 6383   3.091   3.497   1.146
 2123SOL     OW 6384   1.945   3.120   1.022
 2123SOL    HW1 6385   1.940   3.119   1.122
 2123SOL    HW2 6386   1.862   3.079   0.984
 2124SOL     OW 6387   2.550   3.524   1.716
 2124SOL    HW1 6388   2.494   3.605   1.725
 2124SOL    HW2 6389   2.602   3.528   1.630
 2125SOL     OW 6390   2.765   1.948   0.133
 2125SOL    HW1 6391   2.816   1.949   0.047
 2125SOL    HW2 6392   2.821   1.906   0.204
 2126SOL     OW 6393   3.588   1.997   0.523
 2126SOL    HW1 6394   3.661   1.980   0.456
 2126SOL    HW2 6395   3.557   1.910   0.561
 2127SOL     OW 6396   3.250   3.435   0.477
 2127SOL    HW1 6397   3.317   3.447   0.403
 2127SOL    HW2 6398   3.210   3.524   0.500
 2128SOL     OW 6399   1.992   3.656   1.851
 2128SOL    HW1 6400   1.951   3.582   1.904
 2128SOL    HW2 6401   2.056   3.707   1.909
 2129SOL     OW 6402   3.142   2.789   0.672
 2129SOL    HW1 6403   3.202   2.708   0.674
 2129SOL    HW2 6404   3.182   2.858   0.612
 2130SOL     OW 6405   2.692   3.135   1.422
 2130SOL    HW1 6406   2.687   3.168   1.517
 2130SOL    HW2 6407   2.606   3.154   1.376
 2131SOL     OW 6408   2.534   3.478   0.154
 2131SOL    HW1 6409   2.543   3.488   0.055
 2131SOL    HW2 6410   2.494   3.389   0.175
 2132SOL     OW 6411   3.512   3.582   1.394
 2132SOL    HW1 6412   3.565   3.592   1.310
 2132SOL    HW2 6413   3.485   3.672   1.428
 2133SOL     OW 6414   3.703   2.037   0.963
 2133SOL    HW1 6415   3.742   1.952   0.927
 2133SOL    HW2 6416   3.605   2.039   0.944
 2134SOL     OW 6417   2.125   2.188   0.720
 2134SOL    HW1 6418   2.046   2.239   0.686
 2134SOL    HW2 6419   2.116   2.173   0.818
 2135SOL     OW 6420   3.056   3.474   0.031
 2135SOL    HW1 6421   3.062   3.381   0.068
 2135SOL    HW2 6422   2.997   3.474  -0.049
 2136SOL     OW 6423   2.684   2.864   1.372
 2136SOL    HW1 6424   2.724   2.863   1.280
 2136SOL    HW2 6425   2.694   2.956   1.412
 2137SOL     OW 6426   2.778   2.772   0.291
 2137SOL    HW1 6427   2.841   2.810   0.223
 2137SOL    HW2 6428   2.818   2.689   0.330
 2138SOL     OW 6429   3.366   3.469   0.044
 2138SOL    HW1 6430   3.274   3.506   0.051
 2138SOL    HW2 6431   3.404   3.489  -0.046
 2139SOL     OW 6432   2.234   3.150   1.490
 2139SOL    HW1 6433   2.221   3.243   1.456
 2139SOL    HW2 6434   2.150   3.098   1.477
 2140SOL     OW 6435   3.476   3.154   1.289
 2140SOL    HW1 6436   3.536   3.157   1.369
 2140SOL    HW2 6437   3.401   3.218   1.302
 2141SOL     OW 6438   2.901   2.960   0.696
 2141SOL    HW1 6439   2.831   2.913   0.750
 2141SOL    HW2 6440   2.960   2.892   0.653
 2142SOL     OW 6441   2.876   2.098   0.971
 2142SOL    HW1 6442   2.868   2.062   0.878
 2142SOL    HW2 6443   2.874   2.022   1.036
 2143SOL     OW 6444   2.452   3.349   0.491
 2143SOL    HW1 6445   2.494   3.291   0.421
 2143SOL    HW2 6446   2.408   3.428   0.447
 2144SOL     OW 6447   3.571   2.247   1.381
 2144SOL    HW1 6448   3.644   2.316   1.385
 2144SOL    HW2 6449   3.599   2.172   1.322
 2145SOL     OW 6450   2.117   3.210   0.290
 2145SOL    HW1 6451   2.021   3.211   0.263
 2145SOL    HW2 6452   2.129   3.263   0.374
 2146SOL     OW 6453   1.967   2.875   1.726
 2146SOL    HW1 6454   1.890   2.842   1.780
 2146SOL    HW2 6455   2.052   2.845   1.768
 2147SOL     OW 6456   2.534   2.065   1.489
 2147SOL    HW1 6457   2.624   2.049   1.449
 2147SOL    HW2 6458   2.542   2.070   1.588
 2148SOL     OW 6459   1.937   2.207   0.033
 2148SOL    HW1 6460   1.845   2.179   0.004
 2148SOL    HW2 6461   1.968   2.284  -0.023
 2149SOL     OW 6462   3.302   2.718   1.398
 2149SOL    HW1 6463   3.245   2.770   1.335
 2149SOL    HW2 6464   3.398   2.730   1.374
 2150SOL     OW 6465   1.934   2.028   0.318
 2150SOL    HW1 6466   1.917   2.111   0.264
 2150SOL    HW2 6467   2.024   1.991   0.296
 2151SOL     OW 6468   3.045   3.197   0.119
 2151SOL    HW1 6469   2.946   3.186   0.121
 2151SOL    HW2 6470   3.079   3.212   0.212
 2152SOL     OW 6471   2.475   2.704   1.431
 2152SOL    HW1 6472   2.531   2.785   1.414
 2152SOL    HW2 6473   2.534   2.624   1.434
 2153SOL     OW 6474   3.355   3.629   0.959
 2153SOL    HW1 6475   3.388   3.693   0.890
 2153SOL    HW2 6476   3.421   3.623   1.034
 2154SOL     OW 6477   2.578   2.427   1.708
 2154SOL    HW1 6478   2.597   2.492   1.782
 2154SOL    HW2 6479   2.638   2.347   1.717
 2155SOL     OW 6480   3.312   3.082   1.633
 2155SOL    HW1 6481   3.303   3.072   1.732
 2155SOL    HW2 6482   3.408   3.075   1.607
 2156SOL     OW 6483   2.252   3.603   1.560
 2156SOL    HW1 6484   2.161   3.644   1.558
 2156SOL    HW2 6485   2.245   3.509   1.592
 2157SOL     OW 6486   3.536   2.745   1.254
 2157SOL    HW1 6487   3.509   2.656   1.217
 2157SOL    HW2 6488   3.537   2.813   1.181
 2158SOL     OW 6489   3.087   2.187   0.449
 2158SOL    HW1 6490   3.152   2.113   0.438
 2158SOL    HW2 6491   3.107   2.237   0.533
 2159SOL     OW 6492   2.456   2.607   0.652
 2159SOL    HW1 6493   2.506   2.692   0.633
 2159SOL    HW2 6494   2.368   2.609   0.604
 2160SOL     OW 6495   3.639   2.204   1.642
 2160SOL    HW1 6496   3.622   2.235   1.548
 2160SOL    HW2 6497   3.555   2.167   1.680
 2161SOL     OW 6498   3.592   2.796   1.517
 2161SOL    HW1 6499   3.630   2.887   1.532
 2161SOL    HW2 6500   3.584   2.779   1.418
 2162SOL     OW 6501   2.721   3.236   0.016
 2162SOL    HW1 6502   2.675   3.251   0.104
 2162SOL    HW2 6503   2.765   3.321  -0.014
 2163SOL     OW 6504   2.523   3.652   0.953
 2163SOL    HW1 6505   2.477   3.740   0.940
 2163SOL    HW2 6506   2.622   3.664   0.946
 2164SOL     OW 6507   2.721   2.818   0.861
 2164SOL    HW1 6508   2.775   2.749   0.909
 2164SOL    HW2 6509   2.689   2.887   0.927
 2165SOL     OW 6510   2.945   2.846   0.087
 2165SOL    HW1 6511   2.922   2.899   0.005
 2165SOL    HW2 6512   3.026   2.790   0.068
 2166SOL     OW 6513   3.723   3.431   0.851
 2166SOL    HW1 6514   3.652   3.419   0.781
 2166SOL    HW2 6515   3.724   3.352   0.911
 2167SOL     OW 6516   2.083   3.176   1.844
 2167SOL    HW1 6517   2.018   3.103   1.823
 2167SOL    HW2 6518   2.087   3.190   1.942
 2168SOL     OW 6519   1.941   3.102   0.653
 2168SOL    HW1 6520   1.940   3.055   0.741
 2168SOL    HW2 6521   2.023   3.074   0.602
 2169SOL     OW 6522   2.534   3.253   1.624
 2169SOL    HW1 6523   2.456   3.203   1.662
 2169SOL    HW2 6524   2.531   3.348   1.655
 2170SOL     OW 6525   3.686   2.054   1.227
 2170SOL    HW1 6526   3.682   1.964   1.271
 2170SOL    HW2 6527   3.689   2.043   1.128
 2171SOL     OW 6528   2.290   2.286   0.520
 2171SOL    HW1 6529   2.320   2.214   0.458
 2171SOL    HW2 6530   2.251   2.246   0.603
 2172SOL     OW 6531   3.567   3.349   1.104
 2172SOL    HW1 6532   3.474   3.324   1.077
 2172SOL    HW2 6533   3.593   3.299   1.186
 2173SOL     OW 6534   2.179   2.409   1.280
 2173SOL    HW1 6535   2.217   2.350   1.352
 2173SOL    HW2 6536   2.219   2.383   1.192
 2174SOL     OW 6537   2.674   3.448   0.687
 2174SOL    HW1 6538   2.706   3.458   0.593
 2174SOL    HW2 6539   2.595   3.386   0.689
 2175SOL     OW 6540   3.286   2.076   1.112
 2175SOL    HW1 6541   3.338   2.011   1.167
 2175SOL    HW2 6542   3.237   2.139   1.173
 2176SOL     OW 6543   2.863   1.896   1.154
 2176SOL    HW1 6544   2.800   1.824   1.123
 2176SOL    HW2 6545   2.956   1.860   1.154
 2177SOL     OW 6546   2.632   3.192   0.301
 2177SOL    HW1 6547   2.586   3.105   0.318
 2177SOL    HW2 6548   2.723   3.189   0.342
 2178SOL     OW 6549   2.480   3.429   1.284
 2178SOL    HW1 6550   2.475   3.511   1.341
 2178SOL    HW2 6551   2.569   3.426   1.239
 2179SOL     OW 6552   3.214   1.914   0.168
 2179SOL    HW1 6553   3.249   1.873   0.084
 2179SOL    HW2 6554   3.124   1.876   0.188
 2180SOL     OW 6555   3.162   2.315   0.691
 2180SOL    HW1 6556   3.103   2.395   0.695
 2180SOL    HW2 6557   3.177   2.280   0.784
 2181SOL     OW 6558   3.455   2.083   0.882
 2181SOL    HW1 6559   3.371   2.082   0.936
 2181SOL    HW2 6560   3.457   2.166   0.826
 2182SOL     OW 6561   1.901   2.939   0.300
 2182SOL    HW1 6562   2.000   2.928   0.291
 2182SOL    HW2 6563   1.861   2.853   0.332
 2183SOL     OW 6564   2.737   3.508   0.337
 2183SOL    HW1 6565   2.660   3.473   0.283
 2183SOL    HW2 6566   2.705   3.579   0.399
 2184SOL     OW 6567   2.092   2.490   1.975
 2184SOL    HW1 6568   1.999   2.488   2.012
 2184SOL    HW2 6569   2.093   2.451   1.883
 2185SOL     OW 6570   2.087   2.137   2.858
 2185SOL    HW1 6571   2.122   2.120   2.950
 2185SOL    HW2 6572   1.999   2.092   2.846
 2186SOL     OW 6573   1.881   2.230   2.509
 2186SOL    HW1 6574   1.799   2.273   2.548
 2186SOL    HW2 6575   1.853   2.157   2.446
 2187SOL     OW 6576   2.431   3.137   3.027
 2187SOL    HW1 6577   2.338   3.130   2.990
 2187SOL    HW2 6578   2.442   3.226   3.071
 2188SOL     OW 6579   3.417   3.373   2.565
 2188SOL    HW1 6580   3.360   3.357   2.646
 2188SOL    HW2 6581   3.358   3.383   2.485
 2189SOL     OW 6582   2.997   2.565   2.579
 2189SOL    HW1 6583   3.054   2.643   2.554
 2189SOL    HW2 6584   2.937   2.591   2.655
 2190SOL     OW 6585   3.617   2.469   2.093
 2190SOL    HW1 6586   3.605   2.456   1.994
 2190SOL    HW2 6587   3.587   2.388   2.142
 2191SOL     OW 6588   2.630   3.006   2.885
 2191SOL    HW1 6589   2.552   3.023   2.945
 2191SOL    HW2 6590   2.664   3.093   2.849
 2192SOL     OW 6591   2.712   2.660   3.685
 2192SOL    HW1 6592   2.708   2.736   3.750
 2192SOL    HW2 6593   2.734   2.696   3.594
 2193SOL     OW 6594   2.547   2.874   2.527
 2193SOL    HW1 6595   2.616   2.858   2.597
 2193SOL    HW2 6596   2.474   2.931   2.565
 2194SOL     OW 6597   2.548   3.023   3.665
 2194SOL    HW1 6598   2.608   3.102   3.679
 2194SOL    HW2 6599   2.462   3.054   3.624
 2195SOL     OW 6600   2.197   3.297   2.923
 2195SOL    HW1 6601   2.119   3.266   2.870
 2195SOL    HW2 6602   2.255   3.355   2.866
 2196SOL     OW 6603   3.322   3.367   3.201
 2196SOL    HW1 6604   3.346   3.461   3.227
 2196SOL    HW2 6605   3.306   3.313   3.283
 2197SOL     OW 6606   2.300   2.254   3.361
 2197SOL    HW1 6607   2.382   2.198   3.370
 2197SOL    HW2 6608   2.219   2.196   3.365
 2198SOL     OW 6609   3.465   2.309   2.599
 2198SOL    HW1 6610   3.391   2.355   2.549
 2198SOL    HW2 6611   3.516   2.377   2.652
 2199SOL     OW 6612   2.093   3.575   2.345
 2199SOL    HW1 6613   2.127   3.652   2.399
 2199SOL    HW2 6614   2.137   3.575   2.255
 2200SOL     OW 6615   2.989   3.203   3.552
 2200SOL    HW1 6616   3.036   3.203   3.640
 2200SOL    HW2 6617   2.941   3.116   3.541
 2201SOL     OW 6618   2.092   3.296   2.400
 2201SOL    HW1 6619   2.066   3.392   2.400
 2201SOL    HW2 6620   2.021   3.242   2.445
 2202SOL     OW 6621   2.102   2.953   2.748
 2202SOL    HW1 6622   2.116   2.869   2.800
 2202SOL    HW2 6623   2.047   3.017   2.803
 2203SOL     OW 6624   2.482   3.648   3.301
 2203SOL    HW1 6625   2.390   3.631   3.336
 2203SOL    HW2 6626   2.510   3.740   3.327
 2204SOL     OW 6627   2.468   2.826   1.985
 2204SOL    HW1 6628   2.475   2.910   1.931
 2204SOL    HW2 6629   2.514   2.839   2.073
 2205SOL     OW 6630   3.456   1.976   3.342
 2205SOL    HW1 6631   3.438   2.043   3.270
 2205SOL    HW2 6632   3.453   2.022   3.431
 2206SOL     OW 6633   3.704   3.629   2.221
 2206SOL    HW1 6634   3.758   3.600   2.301
 2206SOL    HW2 6635   3.734   3.719   2.192
 2207SOL     OW 6636   1.889   3.458   1.979
 2207SOL    HW1 6637   1.870   3.362   2.000
 2207SOL    HW2 6638   1.856   3.516   2.054
 2208SOL     OW 6639   3.551   2.784   2.474
 2208SOL    HW1 6640   3.646   2.755   2.482
 2208SOL    HW2 6641   3.543   2.849   2.399
 2209SOL     OW 6642   3.503   2.970   2.294
 2209SOL    HW1 6643   3.589   2.972   2.242
 2209SOL    HW2 6644   3.517   3.017   2.382
 2210SOL     OW 6645   1.975   2.599   3.459
 2210SOL    HW1 6646   2.063   2.586   3.504
 2210SOL    HW2 6647   1.962   2.696   3.437
 2211SOL     OW 6648   2.475   3.227   2.588
 2211SOL    HW1 6649   2.426   3.140   2.597
 2211SOL    HW2 6650   2.452   3.270   2.501
 2212SOL     OW 6651   3.155   3.090   3.285
 2212SOL    HW1 6652   3.192   3.017   3.227
 2212SOL    HW2 6653   3.207   3.095   3.370
 2213SOL     OW 6654   2.671   1.866   2.364
 2213SOL    HW1 6655   2.711   1.957   2.355
 2213SOL    HW2 6656   2.571   1.874   2.370
 2214SOL     OW 6657   2.059   2.838   3.126
 2214SOL    HW1 6658   2.148   2.793   3.112
 2214SOL    HW2 6659   1.986   2.773   3.107
 2215SOL     OW 6660   3.387   2.861   2.052
 2215SOL    HW1 6661   3.324   2.785   2.065
 2215SOL    HW2 6662   3.435   2.879   2.138
 2216SOL     OW 6663   3.049   3.654   3.478
 2216SOL    HW1 6664   3.073   3.714   3.402
 2216SOL    HW2 6665   3.056   3.559   3.448
 2217SOL     OW 6666   2.179   2.113   3.663
 2217SOL    HW1 6667   2.250   2.184   3.669
 2217SOL    HW2 6668   2.091   2.152   3.691
 2218SOL     OW 6669   3.328   3.279   2.815
 2218SOL    HW1 6670   3.269   3.285   2.895
 2218SOL    HW2 6671   3.313   3.191   2.769
 2219SOL     OW 6672   3.529   3.576   2.434
 2219SOL    HW1 6673   3.488   3.553   2.346
 2219SOL    HW2 6674   3.511   3.502   2.499
 2220SOL     OW 6675   2.460   2.591   2.132
 2220SOL    HW1 6676   2.484   2.660   2.064
 2220SOL    HW2 6677   2.382   2.624   2.186
 2221SOL     OW 6678   3.143   2.207   2.806
 2221SOL    HW1 6679   3.057   2.157   2.793
 2221SOL    HW2 6680   3.205   2.153   2.862
 2222SOL     OW 6681   3.438   3.524   2.169
 2222SOL    HW1 6682   3.527   3.570   2.172
 2222SOL    HW2 6683   3.417   3.500   2.074
 2223SOL     OW 6684   2.669   2.467   3.327
 2223SOL    HW1 6685   2.622   2.464   3.416
 2223SOL    HW2 6686   2.618   2.412   3.261
 2224SOL     OW 6687   3.256   2.331   3.536
 2224SOL    HW1 6688   3.236   2.374   3.624
 2224SOL    HW2 6689   3.334   2.269   3.545
 2225SOL     OW 6690   2.835   2.752   3.434
 2225SOL    HW1 6691   2.881   2.668   3.405
 2225SOL    HW2 6692   2.779   2.786   3.359
 2226SOL     OW 6693   2.853   2.272   3.104
 2226SOL    HW1 6694   2.776   2.306   3.158
 2226SOL    HW2 6695   2.819   2.221   3.025
 2227SOL     OW 6696   2.903   2.563   2.291
 2227SOL    HW1 6697   2.929   2.559   2.387
 2227SOL    HW2 6698   2.818   2.512   2.277
 2228SOL     OW 6699   1.938   2.673   2.651
 2228SOL    HW1 6700   2.037   2.661   2.660
 2228SOL    HW2 6701   1.914   2.768   2.672
 2229SOL     OW 6702   1.992   3.683   3.433
 2229SOL    HW1 6703   1.982   3.668   3.532
 2229SOL    HW2 6704   1.906   3.719   3.397
 2230SOL     OW 6705   2.727   2.210   2.057
 2230SOL    HW1 6706   2.786   2.273   2.008
 2230SOL    HW2 6707   2.746   2.116   2.028
 2231SOL     OW 6708   3.581   2.447   3.693
 2231SOL    HW1 6709   3.555   2.536   3.657
 2231SOL    HW2 6710   3.579   2.379   3.620
 2232SOL     OW 6711   3.224   3.006   2.407
 2232SOL    HW1 6712   3.307   2.977   2.359
 2232SOL    HW2 6713   3.175   3.073   2.351
 2233SOL     OW 6714   2.412   2.058   2.747
 2233SOL    HW1 6715   2.407   2.053   2.847
 2233SOL    HW2 6716   2.414   2.154   2.718
 2234SOL     OW 6717   2.870   3.318   2.339
 2234SOL    HW1 6718   2.824   3.390   2.287
 2234SOL    HW2 6719   2.866   3.338   2.437
 2235SOL     OW 6720   2.213   3.663   2.715
 2235SOL    HW1 6721   2.263   3.577   2.721
 2235SOL    HW2 6722   2.278   3.740   2.712
 2236SOL     OW 6723   3.657   2.928   2.735
 2236SOL    HW1 6724   3.595   2.913   2.659
 2236SOL    HW2 6725   3.605   2.939   2.820
 2237SOL     OW 6726   3.089   3.412   3.368
 2237SOL    HW1 6727   3.095   3.335   3.432
 2237SOL    HW2 6728   3.037   3.386   3.288
 2238SOL     OW 6729   2.183   2.805   2.104
 2238SOL    HW1 6730   2.265   2.844   2.062
 2238SOL    HW2 6731   2.156   2.723   2.055
 2239SOL     OW 6732   3.320   2.597   2.590
 2239SOL    HW1 6733   3.315   2.532   2.665
 2239SOL    HW2 6734   3.400   2.656   2.603
 2240SOL     OW 6735   2.323   3.128   3.589
 2240SOL    HW1 6736   2.273   3.129   3.503
 2240SOL    HW2 6737   2.260   3.110   3.665
 2241SOL     OW 6738   2.973   3.638   2.099
 2241SOL    HW1 6739   2.913   3.576   2.149
 2241SOL    HW2 6740   3.004   3.594   2.014
 2242SOL     OW 6741   2.064   2.147   3.360
 2242SOL    HW1 6742   1.984   2.207   3.347
 2242SOL    HW2 6743   2.054   2.098   3.446
 2243SOL     OW 6744   3.494   3.239   1.943
 2243SOL    HW1 6745   3.462   3.333   1.933
 2243SOL    HW2 6746   3.418   3.176   1.931
 2244SOL     OW 6747   2.326   3.605   2.185
 2244SOL    HW1 6748   2.359   3.644   2.271
 2244SOL    HW2 6749   2.402   3.598   2.120
 2245SOL     OW 6750   3.262   1.969   2.288
 2245SOL    HW1 6751   3.238   1.932   2.198
 2245SOL    HW2 6752   3.361   1.985   2.292
 2246SOL     OW 6753   2.111   3.647   3.103
 2246SOL    HW1 6754   2.168   3.582   3.153
 2246SOL    HW2 6755   2.095   3.614   3.010
 2247SOL     OW 6756   2.802   3.560   2.766
 2247SOL    HW1 6757   2.882   3.503   2.787
 2247SOL    HW2 6758   2.753   3.520   2.689
 2248SOL     OW 6759   3.409   2.084   3.591
 2248SOL    HW1 6760   3.404   2.121   3.683
 2248SOL    HW2 6761   3.337   2.015   3.579
 2249SOL     OW 6762   2.476   1.984   1.979
 2249SOL    HW1 6763   2.574   1.962   1.986
 2249SOL    HW2 6764   2.445   1.967   1.886
 2250SOL     OW 6765   2.643   2.126   3.611
 2250SOL    HW1 6766   2.710   2.065   3.654
 2250SOL    HW2 6767   2.570   2.145   3.676
 2251SOL     OW 6768   2.750   3.376   3.057
 2251SOL    HW1 6769   2.727   3.351   2.963
 2251SOL    HW2 6770   2.811   3.307   3.096
 2252SOL     OW 6771   3.213   2.452   3.295
 2252SOL    HW1 6772   3.241   2.409   3.380
 2252SOL    HW2 6773   3.238   2.548   3.296
 2253SOL     OW 6774   2.665   3.264   2.786
 2253SOL    HW1 6775   2.755   3.278   2.744
 2253SOL    HW2 6776   2.594   3.266   2.715
 2254SOL     OW 6777   2.784   2.365   2.761
 2254SOL    HW1 6778   2.759   2.356   2.665
 2254SOL    HW2 6779   2.832   2.283   2.792
 2255SOL     OW 6780   2.401   1.926   2.374
 2255SOL    HW1 6781   2.320   1.927   2.432
 2255SOL    HW2 6782   2.404   2.009   2.319
 2256SOL     OW 6783   3.296   3.050   1.903
 2256SOL    HW1 6784   3.328   2.974   1.960
 2256SOL    HW2 6785   3.204   3.077   1.933
 2257SOL     OW 6786   2.159   1.897   2.033
 2257SOL    HW1 6787   2.208   1.981   2.012
 2257SOL    HW2 6788   2.221   1.832   2.078
 2258SOL     OW 6789   2.938   2.545   3.326
 2258SOL    HW1 6790   2.858   2.484   3.329
 2258SOL    HW2 6791   3.019   2.492   3.302
 2259SOL     OW 6792   3.089   3.432   2.655
 2259SOL    HW1 6793   3.110   3.506   2.590
 2259SOL    HW2 6794   3.157   3.432   2.728
 2260SOL     OW 6795   2.321   3.014   2.603
 2260SOL    HW1 6796   2.250   2.987   2.668
 2260SOL    HW2 6797   2.295   2.986   2.510
 2261SOL     OW 6798   3.133   3.659   2.453
 2261SOL    HW1 6799   3.177   3.723   2.389
 2261SOL    HW2 6800   3.083   3.711   2.523
 2262SOL     OW 6801   2.894   2.411   1.878
 2262SOL    HW1 6802   2.853   2.493   1.839
 2262SOL    HW2 6803   2.958   2.437   1.951
 2263SOL     OW 6804   1.940   2.418   3.248
 2263SOL    HW1 6805   2.032   2.417   3.207
 2263SOL    HW2 6806   1.934   2.492   3.315
 2264SOL     OW 6807   2.423   2.084   3.009
 2264SOL    HW1 6808   2.461   2.000   3.046
 2264SOL    HW2 6809   2.335   2.103   3.053
 2265SOL     OW 6810   2.879   1.901   2.615
 2265SOL    HW1 6811   2.807   1.906   2.546
 2265SOL    HW2 6812   2.855   1.832   2.684
 2266SOL     OW 6813   3.291   3.035   2.729
 2266SOL    HW1 6814   3.236   2.951   2.722
 2266SOL    HW2 6815   3.317   3.064   2.637
 2267SOL     OW 6816   3.328   2.452   2.854
 2267SOL    HW1 6817   3.298   2.357   2.861
 2267SOL    HW2 6818   3.401   2.468   2.920
 2268SOL     OW 6819   3.719   2.695   2.239
 2268SOL    HW1 6820   3.761   2.631   2.303
 2268SOL    HW2 6821   3.681   2.644   2.161
 2269SOL     OW 6822   2.350   3.247   2.036
 2269SOL    HW1 6823   2.263   3.232   2.083
 2269SOL    HW2 6824   2.333   3.273   1.941
 2270SOL     OW 6825   3.526   3.142   2.519
 2270SOL    HW1 6826   3.625   3.150   2.533
 2270SOL    HW2 6827   3.481   3.226   2.550
 2271SOL     OW 6828   3.252   2.437   1.940
 2271SOL    HW1 6829   3.198   2.416   2.021
 2271SOL    HW2 6830   3.343   2.396   1.949
 2272SOL     OW 6831   2.389   2.118   2.190
 2272SOL    HW1 6832   2.416   2.059   2.115
 2272SOL    HW2 6833   2.389   2.213   2.159
 2273SOL     OW 6834   3.616   3.085   3.450
 2273SOL    HW1 6835   3.707   3.046   3.437
 2273SOL    HW2 6836   3.624   3.181   3.474
 2274SOL     OW 6837   2.926   3.209   3.202
 2274SOL    HW1 6838   2.846   3.186   3.257
 2274SOL    HW2 6839   3.009   3.183   3.251
 2275SOL     OW 6840   3.454   3.491   3.487
 2275SOL    HW1 6841   3.481   3.525   3.397
 2275SOL    HW2 6842   3.533   3.453   3.533
 2276SOL     OW 6843   2.973   3.057   2.962
 2276SOL    HW1 6844   2.933   3.101   3.043
 2276SOL    HW2 6845   2.932   3.094   2.879
 2277SOL     OW 6846   3.500   2.961   2.941
 2277SOL    HW1 6847   3.505   3.042   3.000
 2277SOL    HW2 6848   3.414   2.963   2.890
 2278SOL     OW 6849   2.777   1.951   3.264
 2278SOL    HW1 6850   2.802   1.931   3.169
 2278SOL    HW2 6851   2.849   2.007   3.306
 2279SOL     OW 6852   2.842   2.978   3.581
 2279SOL    HW1 6853   2.743   2.984   3.591
 2279SOL    HW2 6854   2.865   2.898   3.525
 2280SOL     OW 6855   2.567   2.912   2.230
 2280SOL    HW1 6856   2.553   2.919   2.329
 2280SOL    HW2 6857   2.651   2.861   2.212
 2281SOL     OW 6858   2.272   2.675   3.113
 2281SOL    HW1 6859   2.358   2.687   3.163
 2281SOL    HW2 6860   2.230   2.588   3.140
 2282SOL     OW 6861   3.136   2.248   3.124
 2282SOL    HW1 6862   3.157   2.322   3.188
 2282SOL    HW2 6863   3.047   2.265   3.081
 2283SOL     OW 6864   1.926   3.426   3.193
 2283SOL    HW1 6865   1.880   3.508   3.159
 2283SOL    HW2 6866   2.024   3.445   3.202
 2284SOL     OW 6867   2.229   2.962   2.363
 2284SOL    HW1 6868   2.222   3.045   2.307
 2284SOL    HW2 6869   2.233   2.882   2.303
 2285SOL     OW 6870   2.428   2.399   2.727
 2285SOL    HW1 6871   2.440   2.465   2.653
 2285SOL    HW2 6872   2.474   2.433   2.810
 2286SOL     OW 6873   3.114   3.210   2.250
 2286SOL    HW1 6874   3.164   3.287   2.290
 2286SOL    HW2 6875   3.019   3.212   2.282
 2287SOL     OW 6876   3.134   3.307   3.004
 2287SOL    HW1 6877   3.181   3.320   3.091
 2287SOL    HW2 6878   3.068   3.233   3.013
 2288SOL     OW 6879   3.444   2.501   2.334
 2288SOL    HW1 6880   3.413   2.562   2.407
 2288SOL    HW2 6881   3.494   2.553   2.265
 2289SOL     OW 6882   2.216   3.372   3.191
 2289SOL    HW1 6883   2.195   3.328   3.104
 2289SOL    HW2 6884   2.313   3.398   3.194
 2290SOL     OW 6885   2.264   2.613   3.460
 2290SOL    HW1 6886   2.332   2.668   3.413
 2290SOL    HW2 6887   2.304   2.525   3.487
 2291SOL     OW 6888   3.449   2.641   3.532
 2291SOL    HW1 6889   3.357   2.679   3.527
 2291SOL    HW2 6890   3.509   2.688   3.467
 2292SOL     OW 6891   2.875   1.967   3.632
 2292SOL    HW1 6892   2.881   2.052   3.580
 2292SOL    HW2 6893   2.907   1.891   3.575
 2293SOL     OW 6894   2.366   1.912   3.602
 2293SOL    HW1 6895   2.324   1.855   3.532
 2293SOL    HW2 6896   2.300   1.981   3.634
 2294SOL     OW 6897   2.435   2.732   2.891
 2294SOL    HW1 6898   2.479   2.821   2.882
 2294SOL    HW2 6899   2.372   2.732   2.968
 2295SOL     OW 6900   3.222   2.724   2.907
 2295SOL    HW1 6901   3.147   2.724   2.841
 2295SOL    HW2 6902   3.259   2.632   2.916
 2296SOL     OW 6903   3.071   2.387   2.137
 2296SOL    HW1 6904   3.084   2.303   2.191
 2296SOL    HW2 6905   3.042   2.461   2.197
 2297SOL     OW 6906   2.169   2.075   3.093
 2297SOL    HW1 6907   2.146   2.112   3.183
 2297SOL    HW2 6908   2.139   1.980   3.087
 2298SOL     OW 6909   1.899   3.172   3.144
 2298SOL    HW1 6910   1.952   3.123   3.212
 2298SOL    HW2 6911   1.921   3.270   3.149
 2299SOL     OW 6912   2.594   2.496   2.926
 2299SOL    HW1 6913   2.653   2.470   2.850
 2299SOL    HW2 6914   2.566   2.592   2.915
 2300SOL     OW 6915   3.590   2.797   3.716
 2300SOL    HW1 6916   3.544   2.790   3.627
 2300SOL    HW2 6917   3.528   2.841   3.782
 2301SOL     OW 6918   2.169   1.925   2.480
 2301SOL    HW1 6919   2.158   2.019   2.513
 2301SOL    HW2 6920   2.164   1.862   2.557
 2302SOL     OW 6921   3.484   2.229   2.236
 2302SOL    HW1 6922   3.486   2.153   2.300
 2302SOL    HW2 6923   3.436   2.306   2.276
 2303SOL     OW 6924   2.885   2.628   2.828
 2303SOL    HW1 6925   2.900   2.649   2.924
 2303SOL    HW2 6926   2.855   2.533   2.819
 2304SOL     OW 6927   2.842   3.435   3.562
 2304SOL    HW1 6928   2.822   3.479   3.474
 2304SOL    HW2 6929   2.881   3.344   3.546
 2305SOL     OW 6930   3.721   3.380   3.467
 2305SOL    HW1 6931   3.735   3.407   3.372
 2305SOL    HW2 6932   3.804   3.402   3.520
 2306SOL     OW 6933   2.212   2.760   3.666
 2306SOL    HW1 6934   2.288   2.804   3.714
 2306SOL    HW2 6935   2.247   2.713   3.584
 2307SOL     OW 6936   3.402   2.136   1.987
 2307SOL    HW1 6937   3.341   2.061   2.010
 2307SOL    HW2 6938   3.424   2.188   2.070
 2308SOL     OW 6939   3.165   2.700   1.904
 2308SOL    HW1 6940   3.199   2.607   1.919
 2308SOL    HW2 6941   3.183   2.727   1.809
 2309SOL     OW 6942   2.930   3.195   2.711
 2309SOL    HW1 6943   2.937   3.111   2.656
 2309SOL    HW2 6944   2.992   3.264   2.675
 2310SOL     OW 6945   2.181   2.672   2.811
 2310SOL    HW1 6946   2.274   2.708   2.816
 2310SOL    HW2 6947   2.175   2.587   2.863
 2311SOL     OW 6948   2.201   2.371   2.868
 2311SOL    HW1 6949   2.149   2.288   2.851
 2311SOL    HW2 6950   2.278   2.376   2.804
 2312SOL     OW 6951   3.000   2.242   3.540
 2312SOL    HW1 6952   2.955   2.305   3.604
 2312SOL    HW2 6953   3.093   2.273   3.523
 2313SOL     OW 6954   3.022   2.069   3.339
 2313SOL    HW1 6955   3.022   2.133   3.416
 2313SOL    HW2 6956   3.050   2.117   3.256
 2314SOL     OW 6957   1.870   3.188   2.062
 2314SOL    HW1 6958   1.777   3.209   2.031
 2314SOL    HW2 6959   1.880   3.089   2.075
 2315SOL     OW 6960   1.950   3.663   2.789
 2315SOL    HW1 6961   1.908   3.577   2.762
 2315SOL    HW2 6962   2.044   3.666   2.755
 2316SOL     OW 6963   2.366   3.430   2.772
 2316SOL    HW1 6964   2.432   3.504   2.781
 2316SOL    HW2 6965   2.410   3.351   2.730
 2317SOL     OW 6966   2.864   2.658   3.100
 2317SOL    HW1 6967   2.905   2.626   3.186
 2317SOL    HW2 6968   2.768   2.631   3.097
 2318SOL     OW 6969   1.902   2.406   2.976
 2318SOL    HW1 6970   1.987   2.373   2.935
 2318SOL    HW2 6971   1.915   2.421   3.074
 2319SOL     OW 6972   2.051   2.382   3.584
 2319SOL    HW1 6973   2.110   2.342   3.514
 2319SOL    HW2 6974   1.993   2.453   3.543
 2320SOL     OW 6975   3.231   2.812   3.522
 2320SOL    HW1 6976   3.270   2.901   3.542
 2320SOL    HW2 6977   3.241   2.792   3.425
 2321SOL     OW 6978   2.677   2.434   2.187
 2321SOL    HW1 6979   2.684   2.345   2.141
 2321SOL    HW2 6980   2.583   2.468   2.179
 2322SOL     OW 6981   3.519   2.466   3.068
 2322SOL    HW1 6982   3.481   2.397   3.130
 2322SOL    HW2 6983   3.601   2.430   3.024
 2323SOL     OW 6984   2.114   3.426   3.606
 2323SOL    HW1 6985   2.084   3.483   3.682
 2323SOL    HW2 6986   2.107   3.329   3.632
 2324SOL     OW 6987   2.533   2.326   3.131
 2324SOL    HW1 6988   2.499   2.237   3.101
 2324SOL    HW2 6989   2.559   2.380   3.051
 2325SOL     OW 6990   2.792   3.540   3.327
 2325SOL    HW1 6991   2.768   3.522   3.232
 2325SOL    HW2 6992   2.822   3.634   3.337
 2326SOL     OW 6993   2.335   2.362   2.053
 2326SOL    HW1 6994   2.396   2.442   2.057
 2326SOL    HW2 6995   2.240   2.393   2.060
 2327SOL     OW 6996   2.021   2.999   3.328
 2327SOL    HW1 6997   2.043   2.938   3.404
 2327SOL    HW2 6998   2.031   2.950   3.242
 2328SOL     OW 6999   3.209   2.921   3.096
 2328SOL    HW1 7000   3.233   2.858   3.022
 2328SOL    HW2 7001   3.119   2.961   3.078
 2329SOL     OW 7002   3.164   2.717   2.171
 2329SOL    HW1 7003   3.078   2.686   2.213
 2329SOL    HW2 7004   3.160   2.703   2.072
 2330SOL     OW 7005   3.621   3.609   3.016
 2330SOL    HW1 7006   3.682   3.639   2.943
 2330SOL    HW2 7007   3.583   3.520   2.994
 2331SOL     OW 7008   3.114   3.593   2.990
 2331SOL    HW1 7009   3.198   3.598   2.936
 2331SOL    HW2 7010   3.091   3.497   3.008
 2332SOL     OW 7011   1.945   3.120   2.884
 2332SOL    HW1 7012   1.940   3.119   2.984
 2332SOL    HW2 7013   1.862   3.079   2.846
 2333SOL     OW 7014   2.550   3.524   3.578
 2333SOL    HW1 7015   2.494   3.605   3.587
 2333SOL    HW2 7016   2.602   3.528   3.492
 2334SOL     OW 7017   3.588   1.997   2.385
 2334SOL    HW1 7018   3.661   1.980   2.318
 2334SOL    HW2 7019   3.557   1.910   2.423
 2335SOL     OW 7020   3.250   3.435   2.339
 2335SOL    HW1 7021   3.317   3.447   2.265
 2335SOL    HW2 7022   3.210   3.524   2.362
 2336SOL     OW 7023   1.992   3.656   3.713
 2336SOL    HW1 7024   1.951   3.582   3.766
 2336SOL    HW2 7025   2.056   3.707   3.771
 2337SOL     OW 7026   3.142   2.789   2.534
 2337SOL    HW1 7027   3.202   2.708   2.536
 2337SOL    HW2 7028   3.182   2.858   2.474
 2338SOL     OW 7029   2.692   3.135   3.284
 2338SOL    HW1 7030   2.687   3.168   3.379
 2338SOL    HW2 7031   2.606   3.154   3.238
 2339SOL     OW 7032   2.534   3.478   2.016
 2339SOL    HW1 7033   2.543   3.488   1.917
 2339SOL    HW2 7034   2.494   3.389   2.037
 2340SOL     OW 7035   3.512   3.582   3.256
 2340SOL    HW1 7036   3.565   3.592   3.172
 2340SOL    HW2 7037   3.485   3.672   3.290
 2341SOL     OW 7038   3.703   2.037   2.825
 2341SOL    HW1 7039   3.742   1.952   2.789
 2341SOL    HW2 7040   3.605   2.039   2.806
 2342SOL     OW 7041   3.056   3.474   1.893
 2342SOL    HW1 7042   3.062   3.381   1.930
 2342SOL    HW2 7043   2.997   3.474   1.813
 2343SOL     OW 7044   2.684   2.864   3.234
 2343SOL    HW1 7045   2.724   2.863   3.142
 2343SOL    HW2 7046   2.694   2.956   3.274
 2344SOL     OW 7047   2.778   2.772   2.153
 2344SOL    HW1 7048   2.841   2.810   2.085
 2344SOL    HW2 7049   2.818   2.689   2.192
 2345SOL     OW 7050   3.366   3.469   1.906
 2345SOL    HW1 7051   3.274   3.506   1.913
 2345SOL    HW2 7052   3.404   3.489   1.816
 2346SOL     OW 7053   2.234   3.150   3.352
 2346SOL    HW1 7054   2.221   3.243   3.318
 2346SOL    HW2 7055   2.150   3.098   3.339
 2347SOL     OW 7056   3.476   3.154   3.151
 2347SOL    HW1 7057   3.536   3.157   3.231
 2347SOL    HW2 7058   3.401   3.218   3.164
 2348SOL     OW 7059   2.901   2.960   2.558
 2348SOL    HW1 7060   2.831   2.913   2.612
 2348SOL    HW2 7061   2.960   2.892   2.515
 2349SOL     OW 7062   2.876   2.098   2.833
 2349SOL    HW1 7063   2.868   2.062   2.740
 2349SOL    HW2 7064   2.874   2.022   2.898
 2350SOL     OW 7065   2.452   3.349   2.353
 2350SOL    HW1 7066   2.494   3.291   2.283
 2350SOL    HW2 7067   2.408   3.428   2.309
 2351SOL     OW 7068   3.571   2.247   3.243
 2351SOL    HW1 7069   3.644   2.316   3.247
 2351SOL    HW2 7070   3.599   2.172   3.184
 2352SOL     OW 7071   2.117   3.210   2.152
 2352SOL    HW1 7072   2.021   3.211   2.125
 2352SOL    HW2 7073   2.129   3.263   2.236
 2353SOL     OW 7074   1.967   2.875   3.588
 2353SOL    HW1 7075   1.890   2.842   3.642
 2353SOL    HW2 7076   2.052   2.845   3.630
 2354SOL     OW 7077   2.534   2.065   3.351
 2354SOL    HW1 7078   2.624   2.049   3.311
 2354SOL    HW2 7079   2.542   2.070   3.450
 2355SOL     OW 7080   1.937   2.207   1.895
 2355SOL    HW1 7081   1.845   2.179   1.866
 2355SOL    HW2 7082   1.968   2.284   1.839
 2356SOL     OW 7083   3.302   2.718   3.260
 2356SOL    HW1 7084   3.245   2.770   3.197
 2356SOL    HW2 7085   3.398   2.730   3.236
 2357SOL     OW 7086   1.934   2.028   2.180
 2357SOL    HW1 7087   1.917   2.111   2.126
 2357SOL    HW2 7088   2.024   1.991   2.158
 2358SOL     OW 7089   3.045   3.197   1.981
 2358SOL    HW1 7090   2.946   3.186   1.983
 2358SOL    HW2 7091   3.079   3.212   2.074
 2359SOL     OW 7092   2.475   2.704   3.293
 2359SOL    HW1 7093   2.531   2.785   3.276
 2359SOL    HW2 7094   2.534   2.624   3.296
 2360SOL     OW 7095   3.355   3.629   2.821
 2360SOL    HW1 7096   3.388   3.693   2.752
 2360SOL    HW2 7097   3.421   3.623   2.896
 2361SOL     OW 7098   2.578   2.427   3.570
 2361SOL    HW1 7099   2.597   2.492   3.644
 2361SOL    HW2 7100   2.638   2.347   3.579
 2362SOL     OW 7101   3.312   3.082   3.495
 2362SOL    HW1 7102   3.303   3.072   3.594
 2362SOL    HW2 7103   3.408   3.075   3.469
 2363SOL     OW 7104   2.252   3.603   3.422
 2363SOL    HW1 7105   2.161   3.644   3.420
 2363SOL    HW2 7106   2.245   3.509   3.454
 2364SOL     OW 7107   3.536   2.745   3.116
 2364SOL    HW1 7108   3.509   2.656   3.079
 2364SOL    HW2 7109   3.537   2.813   3.043
 2365SOL     OW 7110   3.087   2.187   2.311
 2365SOL    HW1 7111   3.152   2.113   2.300
 2365SOL    HW2 7112   3.107   2.237   2.395
 2366SOL     OW 7113   3.639   2.204   3.504
 2366SOL    HW1 7114   3.622   2.235   3.410
 2366SOL    HW2 7115   3.555   2.167   3.542
 2367SOL     OW 7116   3.592   2.796   3.379
 2367SOL    HW1 7117   3.630   2.887   3.394
 2367SOL    HW2 7118   3.584   2.779   3.280
 2368SOL     OW 7119   2.721   3.236   1.878
 2368SOL    HW1 7120   2.675   3.251   1.966
 2368SOL    HW2 7121   2.765   3.321   1.848
 2369SOL     OW 7122   2.523   3.652   2.815
 2369SOL    HW1 7123   2.477   3.740   2.802
 2369SOL    HW2 7124   2.622   3.664   2.808
 2370SOL     OW 7125   2.721   2.818   2.723
 2370SOL    HW1 7126   2.775   2.749   2.771
 2370SOL    HW2 7127   2.689   2.887   2.789
 2371SOL     OW 7128   2.945   2.846   1.949
 2371SOL    HW1 7129   2.922   2.899   1.867
 2371SOL    HW2 7130   3.026   2.790   1.930
 2372SOL     OW 7131   3.723   3.431   2.713
 2372SOL    HW1 7132   3.652   3.419   2.643
 2372SOL    HW2 7133   3.724   3.352   2.773
 2373SOL     OW 7134   2.083   3.176   3.706
 2373SOL    HW1 7135   2.018   3.103   3.685
 2373SOL    HW2 7136   2.087   3.190   3.804
 2374SOL     OW 7137   1.941   3.102   2.515
 2374SOL    HW1 7138   1.940   3.055   2.603
 2374SOL    HW2 7139   2.023   3.074   2.464
 2375SOL     OW 7140   2.534   3.253   3.486
 2375SOL    HW1 7141   2.456   3.203   3.524
 2375SOL    HW2 7142   2.531   3.348   3.517
 2376SOL     OW 7143   3.686   2.054   3.089
 2376SOL    HW1 7144   3.682   1.964   3.133
 2376SOL    HW2 7145   3.689   2.043   2.990
 2377SOL     OW 7146   3.567   3.349   2.966
 2377SOL    HW1 7147   3.474   3.324   2.939
 2377SOL    HW2 7148   3.593   3.299   3.048
 2378SOL     OW 7149   2.179   2.409   3.142
 2378SOL    HW1 7150   2.217   2.350   3.214
 2378SOL    HW2 7151   2.219   2.383   3.054
 2379SOL     OW 7152   2.674   3.448   2.549
 2379SOL    HW1 7153   2.706   3.458   2.455
 2379SOL    HW2 7154   2.595   3.386   2.551
 2380SOL     OW 7155   3.286   2.076   2.974
 2380SOL    HW1 7156   3.338   2.011   3.029
 2380SOL    HW2 7157   3.237   2.139   3.035
 2381SOL     OW 7158   2.863   1.896   3.016
 2381SOL    HW1 7159   2.800   1.824   2.985
 2381SOL    HW2 7160   2.956   1.860   3.016
 2382SOL     OW 7161   2.632   3.192   2.163
 2382SOL    HW1 7162   2.586   3.105   2.180
 2382SOL    HW2 7163   2.723   3.189   2.204
 2383SOL     OW 7164   2.480   3.429   3.146
 2383SOL    HW1 7165   2.475   3.511   3.203
 2383SOL    HW2 7166   2.569   3.426   3.101
 2384SOL     OW 7167   3.214   1.914   2.030
 2384SOL    HW1 7168   3.249   1.873   1.946
 2384SOL    HW2 7169   3.124   1.876   2.050
 2385SOL     OW 7170   3.162   2.315   2.553
 2385SOL    HW1 7171   3.103   2.395   2.557
 2385SOL    HW2 7172   3.177   2.280   2.646
 2386SOL     OW 7173   3.455   2.083   2.744
 2386SOL    HW1 7174   3.371   2.082   2.798
 2386SOL    HW2 7175   3.457   2.166   2.688
 2387SOL     OW 7176   1.901   2.939   2.162
 2387SOL    HW1 7177   2.000   2.928   2.153
 2387SOL    HW2 7178   1.861   2.853   2.194
 2388SOL     OW 7179   2.737   3.508   2.199
 2388SOL    HW1 7180   2.660   3.473   2.145
 2388SOL    HW2 7181   2.705   3.579   2.261
 2389SOL     OW 7182   2.092   2.490   3.837
 2389SOL    HW1 7183   1.999   2.488   3.874
 2389SOL    HW2 7184   2.093   2.451   3.745
 2390SOL     OW 7185   2.087   2.137   4.720
 2390SOL    HW1 7186   2.122   2.120   4.812
 2390SOL    HW2 7187   1.999   2.092   4.708
 2391SOL     OW 7188   1.881   2.230   4.371
 2391SOL    HW1 7189   1.799   2.273   4.410
 2391SOL    HW2 7190   1.853   2.157   4.308
 2392SOL     OW 7191   3.417   3.373   4.427
 2392SOL    HW1 7192   3.360   3.357   4.508
 2392SOL    HW2 7193   3.358   3.383   4.347
 2393SOL     OW 7194   2.997   2.565   4.441
 2393SOL    HW1 7195   3.054   2.643   4.416
 2393SOL    HW2 7196   2.937   2.591   4.517
 2394SOL     OW 7197   3.617   2.469   3.955
 2394SOL    HW1 7198   3.605   2.456   3.856
 2394SOL    HW2 7199   3.587   2.388   4.004
 2395SOL     OW 7200   2.630   3.006   4.747
 2395SOL    HW1 7201   2.552   3.023   4.807
 2395SOL    HW2 7202   2.664   3.093   4.711
 2396SOL     OW 7203   2.547   2.874   4.389
 2396SOL    HW1 7204   2.616   2.858   4.459
 2396SOL    HW2 7205   2.474   2.931   4.427
 2397SOL     OW 7206   2.197   3.297   4.785
 2397SOL    HW1 7207   2.119   3.266   4.732
 2397SOL    HW2 7208   2.255   3.355   4.728
 2398SOL     OW 7209   3.465   2.309   4.461
 2398SOL    HW1 7210   3.391   2.355   4.411
 2398SOL    HW2 7211   3.516   2.377   4.514
 2399SOL     OW 7212   2.093   3.575   4.207
 2399SOL    HW1 7213   2.127   3.652   4.261
 2399SOL    HW2 7214   2.137   3.575   4.117
 2400SOL     OW 7215   2.092   3.296   4.262
 2400SOL    HW1 7216   2.066   3.392   4.262
 2400SOL    HW2 7217   2.021   3.242   4.307
 2401SOL     OW 7218   2.102   2.953   4.610
 2401SOL    HW1 7219   2.116   2.869   4.662
 2401SOL    HW2 7220   2.047   3.017   4.665
 2402SOL     OW 7221   2.468   2.826   3.847
 2402SOL    HW1 7222   2.475   2.910   3.793
 2402SOL    HW2 7223   2.514   2.839   3.935
 2403SOL     OW 7224   1.984   2.505   4.287
 2403SOL    HW1 7225   1.939   2.417   4.304
 2403SOL    HW2 7226   1.983   2.559   4.371
 2404SOL     OW 7227   3.704   3.629   4.083
 2404SOL    HW1 7228   3.758   3.600   4.163
 2404SOL    HW2 7229   3.734   3.719   4.054
 2405SOL     OW 7230   1.889   3.458   3.841
 2405SOL    HW1 7231   1.870   3.362   3.862
 2405SOL    HW2 7232   1.856   3.516   3.916
 2406SOL     OW 7233   3.551   2.784   4.336
 2406SOL    HW1 7234   3.646   2.755   4.344
 2406SOL    HW2 7235   3.543   2.849   4.261
 2407SOL     OW 7236   3.503   2.970   4.156
 2407SOL    HW1 7237   3.589   2.972   4.104
 2407SOL    HW2 7238   3.517   3.017   4.244
 2408SOL     OW 7239   2.475   3.227   4.450
 2408SOL    HW1 7240   2.426   3.140   4.459
 2408SOL    HW2 7241   2.452   3.270   4.363
 2409SOL     OW 7242   2.671   1.866   4.226
 2409SOL    HW1 7243   2.711   1.957   4.217
 2409SOL    HW2 7244   2.571   1.874   4.232
 2410SOL     OW 7245   3.387   2.861   3.914
 2410SOL    HW1 7246   3.324   2.785   3.927
 2410SOL    HW2 7247   3.435   2.879   4.000
 2411SOL     OW 7248   3.328   3.279   4.677
 2411SOL    HW1 7249   3.269   3.285   4.757
 2411SOL    HW2 7250   3.313   3.191   4.631
 2412SOL     OW 7251   3.529   3.576   4.296
 2412SOL    HW1 7252   3.488   3.553   4.208
 2412SOL    HW2 7253   3.511   3.502   4.361
 2413SOL     OW 7254   2.460   2.591   3.994
 2413SOL    HW1 7255   2.484   2.660   3.926
 2413SOL    HW2 7256   2.382   2.624   4.048
 2414SOL     OW 7257   3.143   2.207   4.668
 2414SOL    HW1 7258   3.057   2.157   4.655
 2414SOL    HW2 7259   3.205   2.153   4.724
 2415SOL     OW 7260   3.438   3.524   4.031
 2415SOL    HW1 7261   3.527   3.570   4.034
 2415SOL    HW2 7262   3.417   3.500   3.936
 2416SOL     OW 7263   2.903   2.563   4.153
 2416SOL    HW1 7264   2.929   2.559   4.249
 2416SOL    HW2 7265   2.818   2.512   4.139
 2417SOL     OW 7266   1.938   2.673   4.513
 2417SOL    HW1 7267   2.037   2.661   4.522
 2417SOL    HW2 7268   1.914   2.768   4.534
 2418SOL     OW 7269   2.727   2.210   3.919
 2418SOL    HW1 7270   2.786   2.273   3.870
 2418SOL    HW2 7271   2.746   2.116   3.890
 2419SOL     OW 7272   3.224   3.006   4.269
 2419SOL    HW1 7273   3.307   2.977   4.221
 2419SOL    HW2 7274   3.175   3.073   4.213
 2420SOL     OW 7275   2.412   2.058   4.609
 2420SOL    HW1 7276   2.407   2.053   4.709
 2420SOL    HW2 7277   2.414   2.154   4.580
 2421SOL     OW 7278   2.870   3.318   4.201
 2421SOL    HW1 7279   2.824   3.390   4.149
 2421SOL    HW2 7280   2.866   3.338   4.299
 2422SOL     OW 7281   2.213   3.663   4.577
 2422SOL    HW1 7282   2.263   3.577   4.583
 2422SOL    HW2 7283   2.278   3.740   4.574
 2423SOL     OW 7284   3.657   2.928   4.597
 2423SOL    HW1 7285   3.595   2.913   4.521
 2423SOL    HW2 7286   3.605   2.939   4.682
 2424SOL     OW 7287   2.183   2.805   3.966
 2424SOL    HW1 7288   2.265   2.844   3.924
 2424SOL    HW2 7289   2.156   2.723   3.917
 2425SOL     OW 7290   3.320   2.597   4.452
 2425SOL    HW1 7291   3.315   2.532   4.527
 2425SOL    HW2 7292   3.400   2.656   4.465
 2426SOL     OW 7293   2.973   3.638   3.961
 2426SOL    HW1 7294   2.913   3.576   4.011
 2426SOL    HW2 7295   3.004   3.594   3.876
 2427SOL     OW 7296   3.494   3.239   3.805
 2427SOL    HW1 7297   3.462   3.333   3.795
 2427SOL    HW2 7298   3.418   3.176   3.793
 2428SOL     OW 7299   2.326   3.605   4.047
 2428SOL    HW1 7300   2.359   3.644   4.133
 2428SOL    HW2 7301   2.402   3.598   3.982
 2429SOL     OW 7302   3.262   1.969   4.150
 2429SOL    HW1 7303   3.238   1.932   4.060
 2429SOL    HW2 7304   3.361   1.985   4.154
 2430SOL     OW 7305   2.111   3.647   4.965
 2430SOL    HW1 7306   2.168   3.582   5.015
 2430SOL    HW2 7307   2.095   3.614   4.872
 2431SOL     OW 7308   2.802   3.560   4.628
 2431SOL    HW1 7309   2.882   3.503   4.649
 2431SOL    HW2 7310   2.753   3.520   4.551
 2432SOL     OW 7311   2.244   2.562   4.204
 2432SOL    HW1 7312   2.289   2.472   4.201
 2432SOL    HW2 7313   2.150   2.551   4.237
 2433SOL     OW 7314   2.476   1.984   3.841
 2433SOL    HW1 7315   2.574   1.962   3.848
 2433SOL    HW2 7316   2.445   1.967   3.748
 2434SOL     OW 7317   2.665   3.264   4.648
 2434SOL    HW1 7318   2.755   3.278   4.606
 2434SOL    HW2 7319   2.594   3.266   4.577
 2435SOL     OW 7320   2.784   2.365   4.623
 2435SOL    HW1 7321   2.759   2.356   4.527
 2435SOL    HW2 7322   2.832   2.283   4.654
 2436SOL     OW 7323   2.401   1.926   4.236
 2436SOL    HW1 7324   2.320   1.927   4.294
 2436SOL    HW2 7325   2.404   2.009   4.181
 2437SOL     OW 7326   3.296   3.050   3.765
 2437SOL    HW1 7327   3.328   2.974   3.822
 2437SOL    HW2 7328   3.204   3.077   3.795
 2438SOL     OW 7329   2.159   1.897   3.895
 2438SOL    HW1 7330   2.208   1.981   3.874
 2438SOL    HW2 7331   2.221   1.832   3.940
 2439SOL     OW 7332   2.797   2.098   4.204
 2439SOL    HW1 7333   2.749   2.139   4.126
 2439SOL    HW2 7334   2.896   2.096   4.185
 2440SOL     OW 7335   3.089   3.432   4.517
 2440SOL    HW1 7336   3.110   3.506   4.452
 2440SOL    HW2 7337   3.157   3.432   4.590
 2441SOL     OW 7338   2.321   3.014   4.465
 2441SOL    HW1 7339   2.250   2.987   4.530
 2441SOL    HW2 7340   2.295   2.986   4.372
 2442SOL     OW 7341   3.133   3.659   4.315
 2442SOL    HW1 7342   3.177   3.723   4.251
 2442SOL    HW2 7343   3.083   3.711   4.385
 2443SOL     OW 7344   2.894   2.411   3.740
 2443SOL    HW1 7345   2.853   2.493   3.701
 2443SOL    HW2 7346   2.958   2.437   3.813
 2444SOL     OW 7347   2.728   2.316   4.366
 2444SOL    HW1 7348   2.696   2.388   4.304
 2444SOL    HW2 7349   2.752   2.235   4.313
 2445SOL     OW 7350   2.879   1.901   4.477
 2445SOL    HW1 7351   2.807   1.906   4.408
 2445SOL    HW2 7352   2.855   1.832   4.546
 2446SOL     OW 7353   3.291   3.035   4.591
 2446SOL    HW1 7354   3.236   2.951   4.584
 2446SOL    HW2 7355   3.317   3.064   4.499
 2447SOL     OW 7356   3.328   2.452   4.716
 2447SOL    HW1 7357   3.298   2.357   4.723
 2447SOL    HW2 7358   3.401   2.468   4.782
 2448SOL     OW 7359   3.719   2.695   4.101
 2448SOL    HW1 7360   3.761   2.631   4.165
 2448SOL    HW2 7361   3.681   2.644   4.023
 2449SOL     OW 7362   2.350   3.247   3.898
 2449SOL    HW1 7363   2.263   3.232   3.945
 2449SOL    HW2 7364   2.333   3.273   3.803
 2450SOL     OW 7365   3.526   3.142   4.381
 2450SOL    HW1 7366   3.625   3.150   4.395
 2450SOL    HW2 7367   3.481   3.226   4.412
 2451SOL     OW 7368   3.252   2.437   3.802
 2451SOL    HW1 7369   3.198   2.416   3.883
 2451SOL    HW2 7370   3.343   2.396   3.811
 2452SOL     OW 7371   2.389   2.118   4.052
 2452SOL    HW1 7372   2.416   2.059   3.977
 2452SOL    HW2 7373   2.389   2.213   4.021
 2453SOL     OW 7374   3.500   2.961   4.803
 2453SOL    HW1 7375   3.505   3.042   4.862
 2453SOL    HW2 7376   3.414   2.963   4.752
 2454SOL     OW 7377   2.567   2.912   4.092
 2454SOL    HW1 7378   2.553   2.919   4.191
 2454SOL    HW2 7379   2.651   2.861   4.074
 2455SOL     OW 7380   2.229   2.962   4.225
 2455SOL    HW1 7381   2.222   3.045   4.169
 2455SOL    HW2 7382   2.233   2.882   4.165
 2456SOL     OW 7383   2.428   2.399   4.589
 2456SOL    HW1 7384   2.440   2.465   4.515
 2456SOL    HW2 7385   2.474   2.433   4.672
 2457SOL     OW 7386   3.114   3.210   4.112
 2457SOL    HW1 7387   3.164   3.287   4.152
 2457SOL    HW2 7388   3.019   3.212   4.144
 2458SOL     OW 7389   3.444   2.501   4.196
 2458SOL    HW1 7390   3.413   2.562   4.269
 2458SOL    HW2 7391   3.494   2.553   4.127
 2459SOL     OW 7392   2.435   2.732   4.753
 2459SOL    HW1 7393   2.479   2.821   4.744
 2459SOL    HW2 7394   2.372   2.732   4.830
 2460SOL     OW 7395   3.071   2.387   3.999
 2460SOL    HW1 7396   3.084   2.303   4.053
 2460SOL    HW2 7397   3.042   2.461   4.059
 2461SOL     OW 7398   2.169   2.075   4.955
 2461SOL    HW1 7399   2.146   2.112   5.045
 2461SOL    HW2 7400   2.139   1.980   4.949
 2462SOL     OW 7401   2.594   2.496   4.788
 2462SOL    HW1 7402   2.653   2.470   4.712
 2462SOL    HW2 7403   2.566   2.592   4.777
 2463SOL     OW 7404   2.169   1.925   4.342
 2463SOL    HW1 7405   2.158   2.019   4.375
 2463SOL    HW2 7406   2.164   1.862   4.419
 2464SOL     OW 7407   3.484   2.229   4.098
 2464SOL    HW1 7408   3.486   2.153   4.162
 2464SOL    HW2 7409   3.436   2.306   4.138
 2465SOL     OW 7410   3.402   2.136   3.849
 2465SOL    HW1 7411   3.341   2.061   3.872
 2465SOL    HW2 7412   3.424   2.188   3.932
 2466SOL     OW 7413   3.165   2.700   3.766
 2466SOL    HW1 7414   3.199   2.607   3.781
 2466SOL    HW2 7415   3.183   2.727   3.671
 2467SOL     OW 7416   2.930   3.195   4.573
 2467SOL    HW1 7417   2.937   3.111   4.518
 2467SOL    HW2 7418   2.992   3.264   4.537
 2468SOL     OW 7419   2.181   2.672   4.673
 2468SOL    HW1 7420   2.274   2.708   4.678
 2468SOL    HW2 7421   2.175   2.587   4.725
 2469SOL     OW 7422   2.201   2.371   4.730
 2469SOL    HW1 7423   2.149   2.288   4.713
 2469SOL    HW2 7424   2.278   2.376   4.666
 2470SOL     OW 7425   1.870   3.188   3.924
 2470SOL    HW1 7426   1.777   3.209   3.893
 2470SOL    HW2 7427   1.880   3.089   3.937
 2471SOL     OW 7428   1.950   3.663   4.651
 2471SOL    HW1 7429   1.908   3.577   4.624
 2471SOL    HW2 7430   2.044   3.666   4.617
 2472SOL     OW 7431   2.366   3.430   4.634
 2472SOL    HW1 7432   2.432   3.504   4.643
 2472SOL    HW2 7433   2.410   3.351   4.592
 2473SOL     OW 7434   2.864   2.658   4.962
 2473SOL    HW1 7435   2.905   2.626   5.048
 2473SOL    HW2 7436   2.768   2.631   4.959
 2474SOL     OW 7437   2.677   2.434   4.049
 2474SOL    HW1 7438   2.684   2.345   4.003
 2474SOL    HW2 7439   2.583   2.468   4.041
 2475SOL     OW 7440   2.533   2.326   4.993
 2475SOL    HW1 7441   2.499   2.237   4.963
 2475SOL    HW2 7442   2.559   2.380   4.913
 2476SOL     OW 7443   2.335   2.362   3.915
 2476SOL    HW1 7444   2.396   2.442   3.919
 2476SOL    HW2 7445   2.240   2.393   3.922
 2477SOL     OW 7446   3.164   2.717   4.033
 2477SOL    HW1 7447   3.078   2.686   4.075
 2477SOL    HW2 7448   3.160   2.703   3.934
 2478SOL     OW 7449   3.621   3.609   4.878
 2478SOL    HW1 7450   3.682   3.639   4.805
 2478SOL    HW2 7451   3.583   3.520   4.856
 2479SOL     OW 7452   1.945   3.120   4.746
 2479SOL    HW1 7453   1.940   3.119   4.846
 2479SOL    HW2 7454   1.862   3.079   4.708
 2480SOL     OW 7455   3.588   1.997   4.247
 2480SOL    HW1 7456   3.661   1.980   4.180
 2480SOL    HW2 7457   3.557   1.910   4.285
 2481SOL     OW 7458   3.250   3.435   4.201
 2481SOL    HW1 7459   3.317   3.447   4.127
 2481SOL    HW2 7460   3.210   3.524   4.224
 2482SOL     OW 7461   3.142   2.789   4.396
 2482SOL    HW1 7462   3.202   2.708   4.398
 2482SOL    HW2 7463   3.182   2.858   4.336
 2483SOL     OW 7464   2.534   3.478   3.878
 2483SOL    HW1 7465   2.543   3.488   3.779
 2483SOL    HW2 7466   2.494   3.389   3.899
 2484SOL     OW 7467   3.703   2.037   4.687
 2484SOL    HW1 7468   3.742   1.952   4.651
 2484SOL    HW2 7469   3.605   2.039   4.668
 2485SOL     OW 7470   2.125   2.188   4.444
 2485SOL    HW1 7471   2.046   2.239   4.410
 2485SOL    HW2 7472   2.116   2.173   4.542
 2486SOL     OW 7473   3.056   3.474   3.755
 2486SOL    HW1 7474   3.062   3.381   3.792
 2486SOL    HW2 7475   2.997   3.474   3.675
 2487SOL     OW 7476   2.778   2.772   4.015
 2487SOL    HW1 7477   2.841   2.810   3.947
 2487SOL    HW2 7478   2.818   2.689   4.054
 2488SOL     OW 7479   3.366   3.469   3.768
 2488SOL    HW1 7480   3.274   3.506   3.775
 2488SOL    HW2 7481   3.404   3.489   3.678
 2489SOL     OW 7482   2.901   2.960   4.420
 2489SOL    HW1 7483   2.831   2.913   4.474
 2489SOL    HW2 7484   2.960   2.892   4.377
 2490SOL     OW 7485   2.876   2.098   4.695
 2490SOL    HW1 7486   2.868   2.062   4.602
 2490SOL    HW2 7487   2.874   2.022   4.760
 2491SOL     OW 7488   2.452   3.349   4.215
 2491SOL    HW1 7489   2.494   3.291   4.145
 2491SOL    HW2 7490   2.408   3.428   4.171
 2492SOL     OW 7491   2.117   3.210   4.014
 2492SOL    HW1 7492   2.021   3.211   3.987
 2492SOL    HW2 7493   2.129   3.263   4.098
 2493SOL     OW 7494   1.937   2.207   3.757
 2493SOL    HW1 7495   1.845   2.179   3.728
 2493SOL    HW2 7496   1.968   2.284   3.701
 2494SOL     OW 7497   1.934   2.028   4.042
 2494SOL    HW1 7498   1.917   2.111   3.988
 2494SOL    HW2 7499   2.024   1.991   4.020
 2495SOL     OW 7500   3.045   3.197   3.843
 2495SOL    HW1 7501   2.946   3.186   3.845
 2495SOL    HW2 7502   3.079   3.212   3.936
 2496SOL     OW 7503   3.536   2.745   4.978
 2496SOL    HW1 7504   3.509   2.656   4.941
 2496SOL    HW2 7505   3.537   2.813   4.905
 2497SOL     OW 7506   3.087   2.187   4.173
 2497SOL    HW1 7507   3.152   2.113   4.162
 2497SOL    HW2 7508   3.107   2.237   4.257
 2498SOL     OW 7509   2.456   2.607   4.376
 2498SOL    HW1 7510   2.506   2.692   4.357
 2498SOL    HW2 7511   2.368   2.609   4.328
 2499SOL     OW 7512   2.721   3.236   3.740
 2499SOL    HW1 7513   2.675   3.251   3.828
 2499SOL    HW2 7514   2.765   3.321   3.710
 2500SOL     OW 7515   2.523   3.652   4.677
 2500SOL    HW1 7516   2.477   3.740   4.664
 2500SOL    HW2 7517   2.622   3.664   4.670
 2501SOL     OW 7518   2.721   2.818   4.585
 2501SOL    HW1 7519   2.775   2.749   4.633
 2501SOL    HW2 7520   2.689   2.887   4.651
 2502SOL     OW 7521   2.945   2.846   3.811
 2502SOL    HW1 7522   2.922   2.899   3.729
 2502SOL    HW2 7523   3.026   2.790   3.792
 2503SOL     OW 7524   3.723   3.431   4.575
 2503SOL    HW1 7525   3.652   3.419   4.505
 2503SOL    HW2 7526   3.724   3.352   4.635
 2504SOL     OW 7527   1.941   3.102   4.377
 2504SOL    HW1 7528   1.940   3.055   4.465
 2504SOL    HW2 7529   2.023   3.074   4.326
 2505SOL     OW 7530   3.686   2.054   4.951
 2505SOL    HW1 7531   3.682   1.964   4.995
 2505SOL    HW2 7532   3.689   2.043   4.852
 2506SOL     OW 7533   2.290   2.286   4.244
 2506SOL    HW1 7534   2.320   2.214   4.182
 2506SOL    HW2 7535   2.251   2.246   4.327
 2507SOL     OW 7536   2.674   3.448   4.411
 2507SOL    HW1 7537   2.706   3.458   4.317
 2507SOL    HW2 7538   2.595   3.386   4.413
 2508SOL     OW 7539   2.632   3.192   4.025
 2508SOL    HW1 7540   2.586   3.105   4.042
 2508SOL    HW2 7541   2.723   3.189   4.066
 2509SOL     OW 7542   3.214   1.914   3.892
 2509SOL    HW1 7543   3.249   1.873   3.808
 2509SOL    HW2 7544   3.124   1.876   3.912
 2510SOL     OW 7545   3.162   2.315   4.415
 2510SOL    HW1 7546   3.103   2.395   4.419
 2510SOL    HW2 7547   3.177   2.280   4.508
 2511SOL     OW 7548   3.455   2.083   4.606
 2511SOL    HW1 7549   3.371   2.082   4.660
 2511SOL    HW2 7550   3.457   2.166   4.550
 2512SOL     OW 7551   1.901   2.939   4.024
 2512SOL    HW1 7552   2.000   2.928   4.015
 2512SOL    HW2 7553   1.861   2.853   4.056
 2513SOL     OW 7554   2.737   3.508   4.061
 2513SOL    HW1 7555   2.660   3.473   4.007
 2513SOL    HW2 7556   2.705   3.579   4.123
 2514SOL     OW 7557   2.092   4.352   0.113
 2514SOL    HW1 7558   1.999   4.350   0.150
 2514SOL    HW2 7559   2.093   4.313   0.021
 2515SOL     OW 7560   2.087   3.999   0.996
 2515SOL    HW1 7561   2.122   3.982   1.088
 2515SOL    HW2 7562   1.999   3.954   0.984
 2516SOL     OW 7563   1.881   4.092   0.647
 2516SOL    HW1 7564   1.799   4.135   0.686
 2516SOL    HW2 7565   1.853   4.019   0.584
 2517SOL     OW 7566   2.997   4.427   0.717
 2517SOL    HW1 7567   3.054   4.505   0.692
 2517SOL    HW2 7568   2.937   4.453   0.793
 2518SOL     OW 7569   3.617   4.331   0.231
 2518SOL    HW1 7570   3.605   4.318   0.132
 2518SOL    HW2 7571   3.587   4.250   0.280
 2519SOL     OW 7572   2.630   4.868   1.023
 2519SOL    HW1 7573   2.552   4.885   1.083
 2519SOL    HW2 7574   2.664   4.955   0.987
 2520SOL     OW 7575   2.712   4.522   1.823
 2520SOL    HW1 7576   2.708   4.598   1.888
 2520SOL    HW2 7577   2.734   4.558   1.732
 2521SOL     OW 7578   2.547   4.736   0.665
 2521SOL    HW1 7579   2.616   4.720   0.735
 2521SOL    HW2 7580   2.474   4.793   0.703
 2522SOL     OW 7581   2.300   4.116   1.499
 2522SOL    HW1 7582   2.382   4.060   1.508
 2522SOL    HW2 7583   2.219   4.058   1.503
 2523SOL     OW 7584   3.465   4.171   0.737
 2523SOL    HW1 7585   3.391   4.217   0.687
 2523SOL    HW2 7586   3.516   4.239   0.790
 2524SOL     OW 7587   2.102   4.815   0.886
 2524SOL    HW1 7588   2.116   4.731   0.938
 2524SOL    HW2 7589   2.047   4.879   0.941
 2525SOL     OW 7590   2.468   4.688   0.123
 2525SOL    HW1 7591   2.475   4.772   0.069
 2525SOL    HW2 7592   2.514   4.701   0.211
 2526SOL     OW 7593   3.456   3.838   1.480
 2526SOL    HW1 7594   3.438   3.905   1.408
 2526SOL    HW2 7595   3.453   3.884   1.569
 2527SOL     OW 7596   1.984   4.367   0.563
 2527SOL    HW1 7597   1.939   4.279   0.580
 2527SOL    HW2 7598   1.983   4.421   0.647
 2528SOL     OW 7599   3.551   4.646   0.612
 2528SOL    HW1 7600   3.646   4.617   0.620
 2528SOL    HW2 7601   3.543   4.711   0.537
 2529SOL     OW 7602   1.975   4.461   1.597
 2529SOL    HW1 7603   2.063   4.448   1.642
 2529SOL    HW2 7604   1.962   4.558   1.575
 2530SOL     OW 7605   2.671   3.728   0.502
 2530SOL    HW1 7606   2.711   3.819   0.493
 2530SOL    HW2 7607   2.571   3.736   0.508
 2531SOL     OW 7608   2.059   4.700   1.264
 2531SOL    HW1 7609   2.148   4.655   1.250
 2531SOL    HW2 7610   1.986   4.635   1.245
 2532SOL     OW 7611   3.387   4.723   0.190
 2532SOL    HW1 7612   3.324   4.647   0.203
 2532SOL    HW2 7613   3.435   4.741   0.276
 2533SOL     OW 7614   2.179   3.975   1.801
 2533SOL    HW1 7615   2.250   4.046   1.807
 2533SOL    HW2 7616   2.091   4.014   1.829
 2534SOL     OW 7617   2.460   4.453   0.270
 2534SOL    HW1 7618   2.484   4.522   0.202
 2534SOL    HW2 7619   2.382   4.486   0.324
 2535SOL     OW 7620   3.143   4.069   0.944
 2535SOL    HW1 7621   3.057   4.019   0.931
 2535SOL    HW2 7622   3.205   4.015   1.000
 2536SOL     OW 7623   2.669   4.329   1.465
 2536SOL    HW1 7624   2.622   4.326   1.554
 2536SOL    HW2 7625   2.618   4.274   1.399
 2537SOL     OW 7626   3.256   4.193   1.674
 2537SOL    HW1 7627   3.236   4.236   1.762
 2537SOL    HW2 7628   3.334   4.131   1.683
 2538SOL     OW 7629   2.835   4.614   1.572
 2538SOL    HW1 7630   2.881   4.530   1.543
 2538SOL    HW2 7631   2.779   4.648   1.497
 2539SOL     OW 7632   2.853   4.134   1.242
 2539SOL    HW1 7633   2.776   4.168   1.296
 2539SOL    HW2 7634   2.819   4.083   1.163
 2540SOL     OW 7635   2.903   4.425   0.429
 2540SOL    HW1 7636   2.929   4.421   0.525
 2540SOL    HW2 7637   2.818   4.374   0.415
 2541SOL     OW 7638   1.938   4.535   0.789
 2541SOL    HW1 7639   2.037   4.523   0.798
 2541SOL    HW2 7640   1.914   4.630   0.810
 2542SOL     OW 7641   2.727   4.072   0.195
 2542SOL    HW1 7642   2.786   4.135   0.146
 2542SOL    HW2 7643   2.746   3.978   0.166
 2543SOL     OW 7644   3.581   4.309   1.831
 2543SOL    HW1 7645   3.555   4.398   1.795
 2543SOL    HW2 7646   3.579   4.241   1.758
 2544SOL     OW 7647   2.412   3.920   0.885
 2544SOL    HW1 7648   2.407   3.915   0.985
 2544SOL    HW2 7649   2.414   4.016   0.856
 2545SOL     OW 7650   3.320   4.459   0.728
 2545SOL    HW1 7651   3.315   4.394   0.803
 2545SOL    HW2 7652   3.400   4.518   0.741
 2546SOL     OW 7653   2.064   4.009   1.498
 2546SOL    HW1 7654   1.984   4.069   1.485
 2546SOL    HW2 7655   2.054   3.960   1.584
 2547SOL     OW 7656   3.262   3.831   0.426
 2547SOL    HW1 7657   3.238   3.794   0.336
 2547SOL    HW2 7658   3.361   3.847   0.430
 2548SOL     OW 7659   2.244   4.424   0.480
 2548SOL    HW1 7660   2.289   4.334   0.477
 2548SOL    HW2 7661   2.150   4.413   0.513
 2549SOL     OW 7662   3.409   3.946   1.729
 2549SOL    HW1 7663   3.404   3.983   1.821
 2549SOL    HW2 7664   3.337   3.877   1.717
 2550SOL     OW 7665   2.476   3.846   0.117
 2550SOL    HW1 7666   2.574   3.824   0.124
 2550SOL    HW2 7667   2.445   3.829   0.024
 2551SOL     OW 7668   2.643   3.988   1.749
 2551SOL    HW1 7669   2.710   3.927   1.792
 2551SOL    HW2 7670   2.570   4.007   1.814
 2552SOL     OW 7671   3.213   4.314   1.433
 2552SOL    HW1 7672   3.241   4.271   1.518
 2552SOL    HW2 7673   3.238   4.410   1.434
 2553SOL     OW 7674   2.784   4.227   0.899
 2553SOL    HW1 7675   2.759   4.218   0.803
 2553SOL    HW2 7676   2.832   4.145   0.930
 2554SOL     OW 7677   2.401   3.788   0.512
 2554SOL    HW1 7678   2.320   3.789   0.570
 2554SOL    HW2 7679   2.404   3.871   0.457
 2555SOL     OW 7680   2.797   3.960   0.480
 2555SOL    HW1 7681   2.749   4.001   0.402
 2555SOL    HW2 7682   2.896   3.958   0.461
 2556SOL     OW 7683   2.938   4.407   1.464
 2556SOL    HW1 7684   2.858   4.346   1.467
 2556SOL    HW2 7685   3.019   4.354   1.440
 2557SOL     OW 7686   2.894   4.273   0.016
 2557SOL    HW1 7687   2.853   4.355  -0.023
 2557SOL    HW2 7688   2.958   4.299   0.089
 2558SOL     OW 7689   1.940   4.280   1.386
 2558SOL    HW1 7690   2.032   4.279   1.345
 2558SOL    HW2 7691   1.934   4.354   1.453
 2559SOL     OW 7692   2.423   3.946   1.147
 2559SOL    HW1 7693   2.461   3.862   1.184
 2559SOL    HW2 7694   2.335   3.965   1.191
 2560SOL     OW 7695   2.728   4.178   0.642
 2560SOL    HW1 7696   2.696   4.250   0.580
 2560SOL    HW2 7697   2.752   4.097   0.589
 2561SOL     OW 7698   2.879   3.763   0.753
 2561SOL    HW1 7699   2.807   3.768   0.684
 2561SOL    HW2 7700   2.855   3.694   0.822
 2562SOL     OW 7701   3.291   4.897   0.867
 2562SOL    HW1 7702   3.236   4.813   0.860
 2562SOL    HW2 7703   3.317   4.926   0.775
 2563SOL     OW 7704   3.328   4.314   0.992
 2563SOL    HW1 7705   3.298   4.219   0.999
 2563SOL    HW2 7706   3.401   4.330   1.058
 2564SOL     OW 7707   3.719   4.557   0.377
 2564SOL    HW1 7708   3.761   4.493   0.441
 2564SOL    HW2 7709   3.681   4.506   0.299
 2565SOL     OW 7710   3.252   4.299   0.078
 2565SOL    HW1 7711   3.198   4.278   0.159
 2565SOL    HW2 7712   3.343   4.258   0.087
 2566SOL     OW 7713   2.389   3.980   0.328
 2566SOL    HW1 7714   2.416   3.921   0.253
 2566SOL    HW2 7715   2.389   4.075   0.297
 2567SOL     OW 7716   3.500   4.823   1.079
 2567SOL    HW1 7717   3.505   4.904   1.138
 2567SOL    HW2 7718   3.414   4.825   1.028
 2568SOL     OW 7719   2.777   3.813   1.402
 2568SOL    HW1 7720   2.802   3.793   1.307
 2568SOL    HW2 7721   2.849   3.869   1.444
 2569SOL     OW 7722   2.272   4.537   1.251
 2569SOL    HW1 7723   2.358   4.549   1.301
 2569SOL    HW2 7724   2.230   4.450   1.278
 2570SOL     OW 7725   3.136   4.110   1.262
 2570SOL    HW1 7726   3.157   4.184   1.326
 2570SOL    HW2 7727   3.047   4.127   1.219
 2571SOL     OW 7728   2.428   4.261   0.865
 2571SOL    HW1 7729   2.440   4.327   0.791
 2571SOL    HW2 7730   2.474   4.295   0.948
 2572SOL     OW 7731   3.444   4.363   0.472
 2572SOL    HW1 7732   3.413   4.424   0.545
 2572SOL    HW2 7733   3.494   4.415   0.403
 2573SOL     OW 7734   2.264   4.475   1.598
 2573SOL    HW1 7735   2.332   4.530   1.551
 2573SOL    HW2 7736   2.304   4.387   1.625
 2574SOL     OW 7737   3.449   4.503   1.670
 2574SOL    HW1 7738   3.357   4.541   1.665
 2574SOL    HW2 7739   3.509   4.550   1.605
 2575SOL     OW 7740   2.875   3.829   1.770
 2575SOL    HW1 7741   2.881   3.914   1.718
 2575SOL    HW2 7742   2.907   3.753   1.713
 2576SOL     OW 7743   2.366   3.774   1.740
 2576SOL    HW1 7744   2.324   3.717   1.670
 2576SOL    HW2 7745   2.300   3.843   1.772
 2577SOL     OW 7746   2.435   4.594   1.029
 2577SOL    HW1 7747   2.479   4.683   1.020
 2577SOL    HW2 7748   2.372   4.594   1.106
 2578SOL     OW 7749   3.222   4.586   1.045
 2578SOL    HW1 7750   3.147   4.586   0.979
 2578SOL    HW2 7751   3.259   4.494   1.054
 2579SOL     OW 7752   3.071   4.249   0.275
 2579SOL    HW1 7753   3.084   4.165   0.329
 2579SOL    HW2 7754   3.042   4.323   0.335
 2580SOL     OW 7755   2.169   3.937   1.231
 2580SOL    HW1 7756   2.146   3.974   1.321
 2580SOL    HW2 7757   2.139   3.842   1.225
 2581SOL     OW 7758   2.594   4.358   1.064
 2581SOL    HW1 7759   2.653   4.332   0.988
 2581SOL    HW2 7760   2.566   4.454   1.053
 2582SOL     OW 7761   3.590   4.659   1.854
 2582SOL    HW1 7762   3.544   4.652   1.765
 2582SOL    HW2 7763   3.528   4.703   1.920
 2583SOL     OW 7764   2.169   3.787   0.618
 2583SOL    HW1 7765   2.158   3.881   0.651
 2583SOL    HW2 7766   2.164   3.724   0.695
 2584SOL     OW 7767   3.484   4.091   0.374
 2584SOL    HW1 7768   3.486   4.015   0.438
 2584SOL    HW2 7769   3.436   4.168   0.414
 2585SOL     OW 7770   2.885   4.490   0.966
 2585SOL    HW1 7771   2.900   4.511   1.062
 2585SOL    HW2 7772   2.855   4.395   0.957
 2586SOL     OW 7773   2.212   4.622   1.804
 2586SOL    HW1 7774   2.288   4.666   1.852
 2586SOL    HW2 7775   2.247   4.575   1.722
 2587SOL     OW 7776   3.402   3.998   0.125
 2587SOL    HW1 7777   3.341   3.923   0.148
 2587SOL    HW2 7778   3.424   4.050   0.208
 2588SOL     OW 7779   3.165   4.562   0.042
 2588SOL    HW1 7780   3.199   4.469   0.057
 2588SOL    HW2 7781   3.183   4.589  -0.053
 2589SOL     OW 7782   2.181   4.534   0.949
 2589SOL    HW1 7783   2.274   4.570   0.954
 2589SOL    HW2 7784   2.175   4.449   1.001
 2590SOL     OW 7785   2.201   4.233   1.006
 2590SOL    HW1 7786   2.149   4.150   0.989
 2590SOL    HW2 7787   2.278   4.238   0.942
 2591SOL     OW 7788   3.000   4.104   1.678
 2591SOL    HW1 7789   2.955   4.167   1.742
 2591SOL    HW2 7790   3.093   4.135   1.661
 2592SOL     OW 7791   3.022   3.931   1.477
 2592SOL    HW1 7792   3.022   3.995   1.554
 2592SOL    HW2 7793   3.050   3.979   1.394
 2593SOL     OW 7794   2.864   4.520   1.238
 2593SOL    HW1 7795   2.905   4.488   1.324
 2593SOL    HW2 7796   2.768   4.493   1.235
 2594SOL     OW 7797   1.902   4.268   1.114
 2594SOL    HW1 7798   1.987   4.235   1.073
 2594SOL    HW2 7799   1.915   4.283   1.212
 2595SOL     OW 7800   2.051   4.244   1.722
 2595SOL    HW1 7801   2.110   4.204   1.652
 2595SOL    HW2 7802   1.993   4.315   1.681
 2596SOL     OW 7803   3.231   4.674   1.660
 2596SOL    HW1 7804   3.270   4.763   1.680
 2596SOL    HW2 7805   3.241   4.654   1.563
 2597SOL     OW 7806   2.677   4.296   0.325
 2597SOL    HW1 7807   2.684   4.207   0.279
 2597SOL    HW2 7808   2.583   4.330   0.317
 2598SOL     OW 7809   3.519   4.328   1.206
 2598SOL    HW1 7810   3.481   4.259   1.268
 2598SOL    HW2 7811   3.601   4.292   1.162
 2599SOL     OW 7812   2.533   4.188   1.269
 2599SOL    HW1 7813   2.499   4.099   1.239
 2599SOL    HW2 7814   2.559   4.242   1.189
 2600SOL     OW 7815   2.335   4.224   0.191
 2600SOL    HW1 7816   2.396   4.304   0.195
 2600SOL    HW2 7817   2.240   4.255   0.198
 2601SOL     OW 7818   2.021   4.861   1.466
 2601SOL    HW1 7819   2.043   4.800   1.542
 2601SOL    HW2 7820   2.031   4.812   1.380
 2602SOL     OW 7821   3.209   4.783   1.234
 2602SOL    HW1 7822   3.233   4.720   1.160
 2602SOL    HW2 7823   3.119   4.823   1.216
 2603SOL     OW 7824   3.164   4.579   0.309
 2603SOL    HW1 7825   3.078   4.548   0.351
 2603SOL    HW2 7826   3.160   4.565   0.210
 2604SOL     OW 7827   2.765   3.810   0.133
 2604SOL    HW1 7828   2.816   3.811   0.047
 2604SOL    HW2 7829   2.821   3.768   0.204
 2605SOL     OW 7830   3.588   3.859   0.523
 2605SOL    HW1 7831   3.661   3.842   0.456
 2605SOL    HW2 7832   3.557   3.772   0.561
 2606SOL     OW 7833   3.142   4.651   0.672
 2606SOL    HW1 7834   3.202   4.570   0.674
 2606SOL    HW2 7835   3.182   4.720   0.612
 2607SOL     OW 7836   3.703   3.899   0.963
 2607SOL    HW1 7837   3.742   3.814   0.927
 2607SOL    HW2 7838   3.605   3.901   0.944
 2608SOL     OW 7839   2.125   4.050   0.720
 2608SOL    HW1 7840   2.046   4.101   0.686
 2608SOL    HW2 7841   2.116   4.035   0.818
 2609SOL     OW 7842   2.778   4.634   0.291
 2609SOL    HW1 7843   2.841   4.672   0.223
 2609SOL    HW2 7844   2.818   4.551   0.330
 2610SOL     OW 7845   2.876   3.960   0.971
 2610SOL    HW1 7846   2.868   3.924   0.878
 2610SOL    HW2 7847   2.874   3.884   1.036
 2611SOL     OW 7848   3.571   4.109   1.381
 2611SOL    HW1 7849   3.644   4.178   1.385
 2611SOL    HW2 7850   3.599   4.034   1.322
 2612SOL     OW 7851   1.967   4.737   1.726
 2612SOL    HW1 7852   1.890   4.704   1.780
 2612SOL    HW2 7853   2.052   4.707   1.768
 2613SOL     OW 7854   2.534   3.927   1.489
 2613SOL    HW1 7855   2.624   3.911   1.449
 2613SOL    HW2 7856   2.542   3.932   1.588
 2614SOL     OW 7857   1.937   4.069   0.033
 2614SOL    HW1 7858   1.845   4.041   0.004
 2614SOL    HW2 7859   1.968   4.146  -0.023
 2615SOL     OW 7860   3.302   4.580   1.398
 2615SOL    HW1 7861   3.245   4.632   1.335
 2615SOL    HW2 7862   3.398   4.592   1.374
 2616SOL     OW 7863   1.934   3.890   0.318
 2616SOL    HW1 7864   1.917   3.973   0.264
 2616SOL    HW2 7865   2.024   3.853   0.296
 2617SOL     OW 7866   3.045   5.059   0.119
 2617SOL    HW1 7867   2.946   5.048   0.121
 2617SOL    HW2 7868   3.079   5.074   0.212
 2618SOL     OW 7869   2.475   4.566   1.431
 2618SOL    HW1 7870   2.531   4.647   1.414
 2618SOL    HW2 7871   2.534   4.486   1.434
 2619SOL     OW 7872   2.578   4.289   1.708
 2619SOL    HW1 7873   2.597   4.354   1.782
 2619SOL    HW2 7874   2.638   4.209   1.717
 2620SOL     OW 7875   3.536   4.607   1.254
 2620SOL    HW1 7876   3.509   4.518   1.217
 2620SOL    HW2 7877   3.537   4.675   1.181
 2621SOL     OW 7878   3.087   4.049   0.449
 2621SOL    HW1 7879   3.152   3.975   0.438
 2621SOL    HW2 7880   3.107   4.099   0.533
 2622SOL     OW 7881   2.456   4.469   0.652
 2622SOL    HW1 7882   2.506   4.554   0.633
 2622SOL    HW2 7883   2.368   4.471   0.604
 2623SOL     OW 7884   3.639   4.066   1.642
 2623SOL    HW1 7885   3.622   4.097   1.548
 2623SOL    HW2 7886   3.555   4.029   1.680
 2624SOL     OW 7887   3.592   4.658   1.517
 2624SOL    HW1 7888   3.630   4.749   1.532
 2624SOL    HW2 7889   3.584   4.641   1.418
 2625SOL     OW 7890   2.721   4.680   0.861
 2625SOL    HW1 7891   2.775   4.611   0.909
 2625SOL    HW2 7892   2.689   4.749   0.927
 2626SOL     OW 7893   2.945   4.708   0.087
 2626SOL    HW1 7894   2.922   4.761   0.005
 2626SOL    HW2 7895   3.026   4.652   0.068
 2627SOL     OW 7896   1.941   4.964   0.653
 2627SOL    HW1 7897   1.940   4.917   0.741
 2627SOL    HW2 7898   2.023   4.936   0.602
 2628SOL     OW 7899   3.686   3.916   1.227
 2628SOL    HW1 7900   3.682   3.826   1.271
 2628SOL    HW2 7901   3.689   3.905   1.128
 2629SOL     OW 7902   2.290   4.148   0.520
 2629SOL    HW1 7903   2.320   4.076   0.458
 2629SOL    HW2 7904   2.251   4.108   0.603
 2630SOL     OW 7905   2.179   4.271   1.280
 2630SOL    HW1 7906   2.217   4.212   1.352
 2630SOL    HW2 7907   2.219   4.245   1.192
 2631SOL     OW 7908   3.286   3.938   1.112
 2631SOL    HW1 7909   3.338   3.873   1.167
 2631SOL    HW2 7910   3.237   4.001   1.173
 2632SOL     OW 7911   2.863   3.758   1.154
 2632SOL    HW1 7912   2.800   3.686   1.123
 2632SOL    HW2 7913   2.956   3.722   1.154
 2633SOL     OW 7914   3.214   3.776   0.168
 2633SOL    HW1 7915   3.249   3.735   0.084
 2633SOL    HW2 7916   3.124   3.738   0.188
 2634SOL     OW 7917   3.162   4.177   0.691
 2634SOL    HW1 7918   3.103   4.257   0.695
 2634SOL    HW2 7919   3.177   4.142   0.784
 2635SOL     OW 7920   3.455   3.945   0.882
 2635SOL    HW1 7921   3.371   3.944   0.936
 2635SOL    HW2 7922   3.457   4.028   0.826
 2636SOL     OW 7923   1.901   4.801   0.300
 2636SOL    HW1 7924   2.000   4.790   0.291
 2636SOL    HW2 7925   1.861   4.715   0.332
 2637SOL     OW 7926   2.092   4.352   1.975
 2637SOL    HW1 7927   1.999   4.350   2.012
 2637SOL    HW2 7928   2.093   4.313   1.883
 2638SOL     OW 7929   2.087   3.999   2.858
 2638SOL    HW1 7930   2.122   3.982   2.950
 2638SOL    HW2 7931   1.999   3.954   2.846
 2639SOL     OW 7932   1.881   4.092   2.509
 2639SOL    HW1 7933   1.799   4.135   2.548
 2639SOL    HW2 7934   1.853   4.019   2.446
 2640SOL     OW 7935   2.997   4.427   2.579
 2640SOL    HW1 7936   3.054   4.505   2.554
 2640SOL    HW2 7937   2.937   4.453   2.655
 2641SOL     OW 7938   3.617   4.331   2.093
 2641SOL    HW1 7939   3.605   4.318   1.994
 2641SOL    HW2 7940   3.587   4.250   2.142
 2642SOL     OW 7941   2.630   4.868   2.885
 2642SOL    HW1 7942   2.552   4.885   2.945
 2642SOL    HW2 7943   2.664   4.955   2.849
 2643SOL     OW 7944   2.712   4.522   3.685
 2643SOL    HW1 7945   2.708   4.598   3.750
 2643SOL    HW2 7946   2.734   4.558   3.594
 2644SOL     OW 7947   2.547   4.736   2.527
 2644SOL    HW1 7948   2.616   4.720   2.597
 2644SOL    HW2 7949   2.474   4.793   2.565
 2645SOL     OW 7950   2.300   4.116   3.361
 2645SOL    HW1 7951   2.382   4.060   3.370
 2645SOL    HW2 7952   2.219   4.058   3.365
 2646SOL     OW 7953   3.465   4.171   2.599
 2646SOL    HW1 7954   3.391   4.217   2.549
 2646SOL    HW2 7955   3.516   4.239   2.652
 2647SOL     OW 7956   2.102   4.815   2.748
 2647SOL    HW1 7957   2.116   4.731   2.800
 2647SOL    HW2 7958   2.047   4.879   2.803
 2648SOL     OW 7959   2.468   4.688   1.985
 2648SOL    HW1 7960   2.475   4.772   1.931
 2648SOL    HW2 7961   2.514   4.701   2.073
 2649SOL     OW 7962   3.456   3.838   3.342
 2649SOL    HW1 7963   3.438   3.905   3.270
 2649SOL    HW2 7964   3.453   3.884   3.431
 2650SOL     OW 7965   1.984   4.367   2.425
 2650SOL    HW1 7966   1.939   4.279   2.442
 2650SOL    HW2 7967   1.983   4.421   2.509
 2651SOL     OW 7968   3.551   4.646   2.474
 2651SOL    HW1 7969   3.646   4.617   2.482
 2651SOL    HW2 7970   3.543   4.711   2.399
 2652SOL     OW 7971   1.975   4.461   3.459
 2652SOL    HW1 7972   2.063   4.448   3.504
 2652SOL    HW2 7973   1.962   4.558   3.437
 2653SOL     OW 7974   2.671   3.728   2.364
 2653SOL    HW1 7975   2.711   3.819   2.355
 2653SOL    HW2 7976   2.571   3.736   2.370
 2654SOL     OW 7977   2.059   4.700   3.126
 2654SOL    HW1 7978   2.148   4.655   3.112
 2654SOL    HW2 7979   1.986   4.635   3.107
 2655SOL     OW 7980   3.387   4.723   2.052
 2655SOL    HW1 7981   3.324   4.647   2.065
 2655SOL    HW2 7982   3.435   4.741   2.138
 2656SOL     OW 7983   2.179   3.975   3.663
 2656SOL    HW1 7984   2.250   4.046   3.669
 2656SOL    HW2 7985   2.091   4.014   3.691
 2657SOL     OW 7986   2.460   4.453   2.132
 2657SOL    HW1 7987   2.484   4.522   2.064
 2657SOL    HW2 7988   2.382   4.486   2.186
 2658SOL     OW 7989   3.143   4.069   2.806
 2658SOL    HW1 7990   3.057   4.019   2.793
 2658SOL    HW2 7991   3.205   4.015   2.862
 2659SOL     OW 7992   2.669   4.329   3.327
 2659SOL    HW1 7993   2.622   4.326   3.416
 2659SOL    HW2 7994   2.618   4.274   3.261
 2660SOL     OW 7995   3.256   4.193   3.536
 2660SOL    HW1 7996   3.236   4.236   3.624
 2660SOL    HW2 7997   3.334   4.131   3.545
 2661SOL     OW 7998   2.835   4.614   3.434
 2661SOL    HW1 7999   2.881   4.530   3.405
 2661SOL    HW2 8000   2.779   4.648   3.359
 2662SOL     OW 8001   2.853   4.134   3.104
 2662SOL    HW1 8002   2.776   4.168   3.158
 2662SOL    HW2 8003   2.819   4.083   3.025
 2663SOL     OW 8004   2.903   4.425   2.291
 2663SOL    HW1 8005   2.929   4.421   2.387
 2663SOL    HW2 8006   2.818   4.374   2.277
 2664SOL     OW 8007   1.938   4.535   2.651
 2664SOL    HW1 8008   2.037   4.523   2.660
 2664SOL    HW2 8009   1.914   4.630   2.672
 2665SOL     OW 8010   2.727   4.072   2.057
 2665SOL    HW1 8011   2.786   4.135   2.008
 2665SOL    HW2 8012   2.746   3.978   2.028
 2666SOL     OW 8013   3.581   4.309   3.693
 2666SOL    HW1 8014   3.555   4.398   3.657
 2666SOL    HW2 8015   3.579   4.241   3.620
 2667SOL     OW 8016   2.412   3.920   2.747
 2667SOL    HW1 8017   2.407   3.915   2.847
 2667SOL    HW2 8018   2.414   4.016   2.718
 2668SOL     OW 8019   3.320   4.459   2.590
 2668SOL    HW1 8020   3.315   4.394   2.665
 2668SOL    HW2 8021   3.400   4.518   2.603
 2669SOL     OW 8022   2.064   4.009   3.360
 2669SOL    HW1 8023   1.984   4.069   3.347
 2669SOL    HW2 8024   2.054   3.960   3.446
 2670SOL     OW 8025   3.262   3.831   2.288
 2670SOL    HW1 8026   3.238   3.794   2.198
 2670SOL    HW2 8027   3.361   3.847   2.292
 2671SOL     OW 8028   2.244   4.424   2.342
 2671SOL    HW1 8029   2.289   4.334   2.339
 2671SOL    HW2 8030   2.150   4.413   2.375
 2672SOL     OW 8031   3.409   3.946   3.591
 2672SOL    HW1 8032   3.404   3.983   3.683
 2672SOL    HW2 8033   3.337   3.877   3.579
 2673SOL     OW 8034   2.476   3.846   1.979
 2673SOL    HW1 8035   2.574   3.824   1.986
 2673SOL    HW2 8036   2.445   3.829   1.886
 2674SOL     OW 8037   2.643   3.988   3.611
 2674SOL    HW1 8038   2.710   3.927   3.654
 2674SOL    HW2 8039   2.570   4.007   3.676
 2675SOL     OW 8040   3.213   4.314   3.295
 2675SOL    HW1 8041   3.241   4.271   3.380
 2675SOL    HW2 8042   3.238   4.410   3.296
 2676SOL     OW 8043   2.784   4.227   2.761
 2676SOL    HW1 8044   2.759   4.218   2.665
 2676SOL    HW2 8045   2.832   4.145   2.792
 2677SOL     OW 8046   2.401   3.788   2.374
 2677SOL    HW1 8047   2.320   3.789   2.432
 2677SOL    HW2 8048   2.404   3.871   2.319
 2678SOL     OW 8049   2.159   3.759   2.033
 2678SOL    HW1 8050   2.208   3.843   2.012
 2678SOL    HW2 8051   2.221   3.694   2.078
 2679SOL     OW 8052   2.797   3.960   2.342
 2679SOL    HW1 8053   2.749   4.001   2.264
 2679SOL    HW2 8054   2.896   3.958   2.323
 2680SOL     OW 8055   2.938   4.407   3.326
 2680SOL    HW1 8056   2.858   4.346   3.329
 2680SOL    HW2 8057   3.019   4.354   3.302
 2681SOL     OW 8058   2.894   4.273   1.878
 2681SOL    HW1 8059   2.853   4.355   1.839
 2681SOL    HW2 8060   2.958   4.299   1.951
 2682SOL     OW 8061   1.940   4.280   3.248
 2682SOL    HW1 8062   2.032   4.279   3.207
 2682SOL    HW2 8063   1.934   4.354   3.315
 2683SOL     OW 8064   2.423   3.946   3.009
 2683SOL    HW1 8065   2.461   3.862   3.046
 2683SOL    HW2 8066   2.335   3.965   3.053
 2684SOL     OW 8067   2.728   4.178   2.504
 2684SOL    HW1 8068   2.696   4.250   2.442
 2684SOL    HW2 8069   2.752   4.097   2.451
 2685SOL     OW 8070   2.879   3.763   2.615
 2685SOL    HW1 8071   2.807   3.768   2.546
 2685SOL    HW2 8072   2.855   3.694   2.684
 2686SOL     OW 8073   3.291   4.897   2.729
 2686SOL    HW1 8074   3.236   4.813   2.722
 2686SOL    HW2 8075   3.317   4.926   2.637
 2687SOL     OW 8076   3.328   4.314   2.854
 2687SOL    HW1 8077   3.298   4.219   2.861
 2687SOL    HW2 8078   3.401   4.330   2.920
 2688SOL     OW 8079   3.719   4.557   2.239
 2688SOL    HW1 8080   3.761   4.493   2.303
 2688SOL    HW2 8081   3.681   4.506   2.161
 2689SOL     OW 8082   3.252   4.299   1.940
 2689SOL    HW1 8083   3.198   4.278   2.021
 2689SOL    HW2 8084   3.343   4.258   1.949
 2690SOL     OW 8085   2.389   3.980   2.190
 2690SOL    HW1 8086   2.416   3.921   2.115
 2690SOL    HW2 8087   2.389   4.075   2.159
 2691SOL     OW 8088   3.500   4.823   2.941
 2691SOL    HW1 8089   3.505   4.904   3.000
 2691SOL    HW2 8090   3.414   4.825   2.890
 2692SOL     OW 8091   2.777   3.813   3.264
 2692SOL    HW1 8092   2.802   3.793   3.169
 2692SOL    HW2 8093   2.849   3.869   3.306
 2693SOL     OW 8094   2.272   4.537   3.113
 2693SOL    HW1 8095   2.358   4.549   3.163
 2693SOL    HW2 8096   2.230   4.450   3.140
 2694SOL     OW 8097   3.136   4.110   3.124
 2694SOL    HW1 8098   3.157   4.184   3.188
 2694SOL    HW2 8099   3.047   4.127   3.081
 2695SOL     OW 8100   2.428   4.261   2.727
 2695SOL    HW1 8101   2.440   4.327   2.653
 2695SOL    HW2 8102   2.474   4.295   2.810
 2696SOL     OW 8103   3.444   4.363   2.334
 2696SOL    HW1 8104   3.413   4.424   2.407
 2696SOL    HW2 8105   3.494   4.415   2.265
 2697SOL     OW 8106   2.264   4.475   3.460
 2697SOL    HW1 8107   2.332   4.530   3.413
 2697SOL    HW2 8108   2.304   4.387   3.487
 2698SOL     OW 8109   3.449   4.503   3.532
 2698SOL    HW1 8110   3.357   4.541   3.527
 2698SOL    HW2 8111   3.509   4.550   3.467
 2699SOL     OW 8112   2.875   3.829   3.632
 2699SOL    HW1 8113   2.881   3.914   3.580
 2699SOL    HW2 8114   2.907   3.753   3.575
 2700SOL     OW 8115   2.366   3.774   3.602
 2700SOL    HW1 8116   2.324   3.717   3.532
 2700SOL    HW2 8117   2.300   3.843   3.634
 2701SOL     OW 8118   2.435   4.594   2.891
 2701SOL    HW1 8119   2.479   4.683   2.882
 2701SOL    HW2 8120   2.372   4.594   2.968
 2702SOL     OW 8121   3.222   4.586   2.907
 2702SOL    HW1 8122   3.147   4.586   2.841
 2702SOL    HW2 8123   3.259   4.494   2.916
 2703SOL     OW 8124   3.071   4.249   2.137
 2703SOL    HW1 8125   3.084   4.165   2.191
 2703SOL    HW2 8126   3.042   4.323   2.197
 2704SOL     OW 8127   2.169   3.937   3.093
 2704SOL    HW1 8128   2.146   3.974   3.183
 2704SOL    HW2 8129   2.139   3.842   3.087
 2705SOL     OW 8130   2.594   4.358   2.926
 2705SOL    HW1 8131   2.653   4.332   2.850
 2705SOL    HW2 8132   2.566   4.454   2.915
 2706SOL     OW 8133   3.590   4.659   3.716
 2706SOL    HW1 8134   3.544   4.652   3.627
 2706SOL    HW2 8135   3.528   4.703   3.782
 2707SOL     OW 8136   2.169   3.787   2.480
 2707SOL    HW1 8137   2.158   3.881   2.513
 2707SOL    HW2 8138   2.164   3.724   2.557
 2708SOL     OW 8139   3.484   4.091   2.236
 2708SOL    HW1 8140   3.486   4.015   2.300
 2708SOL    HW2 8141   3.436   4.168   2.276
 2709SOL     OW 8142   2.885   4.490   2.828
 2709SOL    HW1 8143   2.900   4.511   2.924
 2709SOL    HW2 8144   2.855   4.395   2.819
 2710SOL     OW 8145   2.212   4.622   3.666
 2710SOL    HW1 8146   2.288   4.666   3.714
 2710SOL    HW2 8147   2.247   4.575   3.584
 2711SOL     OW 8148   3.402   3.998   1.987
 2711SOL    HW1 8149   3.341   3.923   2.010
 2711SOL    HW2 8150   3.424   4.050   2.070
 2712SOL     OW 8151   3.165   4.562   1.904
 2712SOL    HW1 8152   3.199   4.469   1.919
 2712SOL    HW2 8153   3.183   4.589   1.809
 2713SOL     OW 8154   2.181   4.534   2.811
 2713SOL    HW1 8155   2.274   4.570   2.816
 2713SOL    HW2 8156   2.175   4.449   2.863
 2714SOL     OW 8157   2.201   4.233   2.868
 2714SOL    HW1 8158   2.149   4.150   2.851
 2714SOL    HW2 8159   2.278   4.238   2.804
 2715SOL     OW 8160   3.000   4.104   3.540
 2715SOL    HW1 8161   2.955   4.167   3.604
 2715SOL    HW2 8162   3.093   4.135   3.523
 2716SOL     OW 8163   3.022   3.931   3.339
 2716SOL    HW1 8164   3.022   3.995   3.416
 2716SOL    HW2 8165   3.050   3.979   3.256
 2717SOL     OW 8166   2.864   4.520   3.100
 2717SOL    HW1 8167   2.905   4.488   3.186
 2717SOL    HW2 8168   2.768   4.493   3.097
 2718SOL     OW 8169   1.902   4.268   2.976
 2718SOL    HW1 8170   1.987   4.235   2.935
 2718SOL    HW2 8171   1.915   4.283   3.074
 2719SOL     OW 8172   2.051   4.244   3.584
 2719SOL    HW1 8173   2.110   4.204   3.514
 2719SOL    HW2 8174   1.993   4.315   3.543
 2720SOL     OW 8175   3.231   4.674   3.522
 2720SOL    HW1 8176   3.270   4.763   3.542
 2720SOL    HW2 8177   3.241   4.654   3.425
 2721SOL     OW 8178   2.677   4.296   2.187
 2721SOL    HW1 8179   2.684   4.207   2.141
 2721SOL    HW2 8180   2.583   4.330   2.179
 2722SOL     OW 8181   3.519   4.328   3.068
 2722SOL    HW1 8182   3.481   4.259   3.130
 2722SOL    HW2 8183   3.601   4.292   3.024
 2723SOL     OW 8184   2.533   4.188   3.131
 2723SOL    HW1 8185   2.499   4.099   3.101
 2723SOL    HW2 8186   2.559   4.242   3.051
 2724SOL     OW 8187   2.335   4.224   2.053
 2724SOL    HW1 8188   2.396   4.304   2.057
 2724SOL    HW2 8189   2.240   4.255   2.060
 2725SOL     OW 8190   2.021   4.861   3.328
 2725SOL    HW1 8191   2.043   4.800   3.404
 2725SOL    HW2 8192   2.031   4.812   3.242
 2726SOL     OW 8193   3.209   4.783   3.096
 2726SOL    HW1 8194   3.233   4.720   3.022
 2726SOL    HW2 8195   3.119   4.823   3.078
 2727SOL     OW 8196   3.164   4.579   2.171
 2727SOL    HW1 8197   3.078   4.548   2.213
 2727SOL    HW2 8198   3.160   4.565   2.072
 2728SOL     OW 8199   3.588   3.859   2.385
 2728SOL    HW1 8200   3.661   3.842   2.318
 2728SOL    HW2 8201   3.557   3.772   2.423
 2729SOL     OW 8202   3.142   4.651   2.534
 2729SOL    HW1 8203   3.202   4.570   2.536
 2729SOL    HW2 8204   3.182   4.720   2.474
 2730SOL     OW 8205   3.703   3.899   2.825
 2730SOL    HW1 8206   3.742   3.814   2.789
 2730SOL    HW2 8207   3.605   3.901   2.806
 2731SOL     OW 8208   2.125   4.050   2.582
 2731SOL    HW1 8209   2.046   4.101   2.548
 2731SOL    HW2 8210   2.116   4.035   2.680
 2732SOL     OW 8211   2.778   4.634   2.153
 2732SOL    HW1 8212   2.841   4.672   2.085
 2732SOL    HW2 8213   2.818   4.551   2.192
 2733SOL     OW 8214   2.876   3.960   2.833
 2733SOL    HW1 8215   2.868   3.924   2.740
 2733SOL    HW2 8216   2.874   3.884   2.898
 2734SOL     OW 8217   3.571   4.109   3.243
 2734SOL    HW1 8218   3.644   4.178   3.247
 2734SOL    HW2 8219   3.599   4.034   3.184
 2735SOL     OW 8220   1.967   4.737   3.588
 2735SOL    HW1 8221   1.890   4.704   3.642
 2735SOL    HW2 8222   2.052   4.707   3.630
 2736SOL     OW 8223   2.534   3.927   3.351
 2736SOL    HW1 8224   2.624   3.911   3.311
 2736SOL    HW2 8225   2.542   3.932   3.450
 2737SOL     OW 8226   1.937   4.069   1.895
 2737SOL    HW1 8227   1.845   4.041   1.866
 2737SOL    HW2 8228   1.968   4.146   1.839
 2738SOL     OW 8229   3.302   4.580   3.260
 2738SOL    HW1 8230   3.245   4.632   3.197
 2738SOL    HW2 8231   3.398   4.592   3.236
 2739SOL     OW 8232   1.934   3.890   2.180
 2739SOL    HW1 8233   1.917   3.973   2.126
 2739SOL    HW2 8234   2.024   3.853   2.158
 2740SOL     OW 8235   3.045   5.059   1.981
 2740SOL    HW1 8236   2.946   5.048   1.983
 2740SOL    HW2 8237   3.079   5.074   2.074
 2741SOL     OW 8238   2.475   4.566   3.293
 2741SOL    HW1 8239   2.531   4.647   3.276
 2741SOL    HW2 8240   2.534   4.486   3.296
 2742SOL     OW 8241   2.578   4.289   3.570
 2742SOL    HW1 8242   2.597   4.354   3.644
 2742SOL    HW2 8243   2.638   4.209   3.579
 2743SOL     OW 8244   3.536   4.607   3.116
 2743SOL    HW1 8245   3.509   4.518   3.079
 2743SOL    HW2 8246   3.537   4.675   3.043
 2744SOL     OW 8247   3.087   4.049   2.311
 2744SOL    HW1 8248   3.152   3.975   2.300
 2744SOL    HW2 8249   3.107   4.099   2.395
 2745SOL     OW 8250   2.456   4.469   2.514
 2745SOL    HW1 8251   2.506   4.554   2.495
 2745SOL    HW2 8252   2.368   4.471   2.466
 2746SOL     OW 8253   3.639   4.066   3.504
 2746SOL    HW1 8254   3.622   4.097   3.410
 2746SOL    HW2 8255   3.555   4.029   3.542
 2747SOL     OW 8256   3.592   4.658   3.379
 2747SOL    HW1 8257   3.630   4.749   3.394
 2747SOL    HW2 8258   3.584   4.641   3.280
 2748SOL     OW 8259   2.721   4.680   2.723
 2748SOL    HW1 8260   2.775   4.611   2.771
 2748SOL    HW2 8261   2.689   4.749   2.789
 2749SOL     OW 8262   2.945   4.708   1.949
 2749SOL    HW1 8263   2.922   4.761   1.867
 2749SOL    HW2 8264   3.026   4.652   1.930
 2750SOL     OW 8265   1.941   4.964   2.515
 2750SOL    HW1 8266   1.940   4.917   2.603
 2750SOL    HW2 8267   2.023   4.936   2.464
 2751SOL     OW 8268   3.686   3.916   3.089
 2751SOL    HW1 8269   3.682   3.826   3.133
 2751SOL    HW2 8270   3.689   3.905   2.990
 2752SOL     OW 8271   2.290   4.148   2.382
 2752SOL    HW1 8272   2.320   4.076   2.320
 2752SOL    HW2 8273   2.251   4.108   2.465
 2753SOL     OW 8274   2.179   4.271   3.142
 2753SOL    HW1 8275   2.217   4.212   3.214
 2753SOL    HW2 8276   2.219   4.245   3.054
 2754SOL     OW 8277   3.286   3.938   2.974
 2754SOL    HW1 8278   3.338   3.873   3.029
 2754SOL    HW2 8279   3.237   4.001   3.035
 2755SOL     OW 8280   2.863   3.758   3.016
 2755SOL    HW1 8281   2.800   3.686   2.985
 2755SOL    HW2 8282   2.956   3.722   3.016
 2756SOL     OW 8283   3.214   3.776   2.030
 2756SOL    HW1 8284   3.249   3.735   1.946
 2756SOL    HW2 8285   3.124   3.738   2.050
 2757SOL     OW 8286   3.162   4.177   2.553
 2757SOL    HW1 8287   3.103   4.257   2.557
 2757SOL    HW2 8288   3.177   4.142   2.646
 2758SOL     OW 8289   3.455   3.945   2.744
 2758SOL    HW1 8290   3.371   3.944   2.798
 2758SOL    HW2 8291   3.457   4.028   2.688
 2759SOL     OW 8292   1.901   4.801   2.162
 2759SOL    HW1 8293   2.000   4.790   2.153
 2759SOL    HW2 8294   1.861   4.715   2.194
 2760SOL     OW 8295   2.092   4.352   3.837
 2760SOL    HW1 8296   1.999   4.350   3.874
 2760SOL    HW2 8297   2.093   4.313   3.745
 2761SOL     OW 8298   2.087   3.999   4.720
 2761SOL    HW1 8299   2.122   3.982   4.812
 2761SOL    HW2 8300   1.999   3.954   4.708
 2762SOL     OW 8301   1.881   4.092   4.371
 2762SOL    HW1 8302   1.799   4.135   4.410
 2762SOL    HW2 8303   1.853   4.019   4.308
 2763SOL     OW 8304   2.997   4.427   4.441
 2763SOL    HW1 8305   3.054   4.505   4.416
 2763SOL    HW2 8306   2.937   4.453   4.517
 2764SOL     OW 8307   3.617   4.331   3.955
 2764SOL    HW1 8308   3.605   4.318   3.856
 2764SOL    HW2 8309   3.587   4.250   4.004
 2765SOL     OW 8310   2.547   4.736   4.389
 2765SOL    HW1 8311   2.616   4.720   4.459
 2765SOL    HW2 8312   2.474   4.793   4.427
 2766SOL     OW 8313   3.465   4.171   4.461
 2766SOL    HW1 8314   3.391   4.217   4.411
 2766SOL    HW2 8315   3.516   4.239   4.514
 2767SOL     OW 8316   2.102   4.815   4.610
 2767SOL    HW1 8317   2.116   4.731   4.662
 2767SOL    HW2 8318   2.047   4.879   4.665
 2768SOL     OW 8319   2.468   4.688   3.847
 2768SOL    HW1 8320   2.475   4.772   3.793
 2768SOL    HW2 8321   2.514   4.701   3.935
 2769SOL     OW 8322   1.984   4.367   4.287
 2769SOL    HW1 8323   1.939   4.279   4.304
 2769SOL    HW2 8324   1.983   4.421   4.371
 2770SOL     OW 8325   3.551   4.646   4.336
 2770SOL    HW1 8326   3.646   4.617   4.344
 2770SOL    HW2 8327   3.543   4.711   4.261
 2771SOL     OW 8328   2.671   3.728   4.226
 2771SOL    HW1 8329   2.711   3.819   4.217
 2771SOL    HW2 8330   2.571   3.736   4.232
 2772SOL     OW 8331   2.059   4.700   4.988
 2772SOL    HW1 8332   2.148   4.655   4.974
 2772SOL    HW2 8333   1.986   4.635   4.969
 2773SOL     OW 8334   3.387   4.723   3.914
 2773SOL    HW1 8335   3.324   4.647   3.927
 2773SOL    HW2 8336   3.435   4.741   4.000
 2774SOL     OW 8337   2.460   4.453   3.994
 2774SOL    HW1 8338   2.484   4.522   3.926
 2774SOL    HW2 8339   2.382   4.486   4.048
 2775SOL     OW 8340   3.143   4.069   4.668
 2775SOL    HW1 8341   3.057   4.019   4.655
 2775SOL    HW2 8342   3.205   4.015   4.724
 2776SOL     OW 8343   2.903   4.425   4.153
 2776SOL    HW1 8344   2.929   4.421   4.249
 2776SOL    HW2 8345   2.818   4.374   4.139
 2777SOL     OW 8346   1.938   4.535   4.513
 2777SOL    HW1 8347   2.037   4.523   4.522
 2777SOL    HW2 8348   1.914   4.630   4.534
 2778SOL     OW 8349   2.727   4.072   3.919
 2778SOL    HW1 8350   2.786   4.135   3.870
 2778SOL    HW2 8351   2.746   3.978   3.890
 2779SOL     OW 8352   2.412   3.920   4.609
 2779SOL    HW1 8353   2.407   3.915   4.709
 2779SOL    HW2 8354   2.414   4.016   4.580
 2780SOL     OW 8355   3.320   4.459   4.452
 2780SOL    HW1 8356   3.315   4.394   4.527
 2780SOL    HW2 8357   3.400   4.518   4.465
 2781SOL     OW 8358   3.262   3.831   4.150
 2781SOL    HW1 8359   3.238   3.794   4.060
 2781SOL    HW2 8360   3.361   3.847   4.154
 2782SOL     OW 8361   2.244   4.424   4.204
 2782SOL    HW1 8362   2.289   4.334   4.201
 2782SOL    HW2 8363   2.150   4.413   4.237
 2783SOL     OW 8364   2.476   3.846   3.841
 2783SOL    HW1 8365   2.574   3.824   3.848
 2783SOL    HW2 8366   2.445   3.829   3.748
 2784SOL     OW 8367   2.784   4.227   4.623
 2784SOL    HW1 8368   2.759   4.218   4.527
 2784SOL    HW2 8369   2.832   4.145   4.654
 2785SOL     OW 8370   2.401   3.788   4.236
 2785SOL    HW1 8371   2.320   3.789   4.294
 2785SOL    HW2 8372   2.404   3.871   4.181
 2786SOL     OW 8373   2.159   3.759   3.895
 2786SOL    HW1 8374   2.208   3.843   3.874
 2786SOL    HW2 8375   2.221   3.694   3.940
 2787SOL     OW 8376   2.797   3.960   4.204
 2787SOL    HW1 8377   2.749   4.001   4.126
 2787SOL    HW2 8378   2.896   3.958   4.185
 2788SOL     OW 8379   2.894   4.273   3.740
 2788SOL    HW1 8380   2.853   4.355   3.701
 2788SOL    HW2 8381   2.958   4.299   3.813
 2789SOL     OW 8382   2.728   4.178   4.366
 2789SOL    HW1 8383   2.696   4.250   4.304
 2789SOL    HW2 8384   2.752   4.097   4.313
 2790SOL     OW 8385   2.879   3.763   4.477
 2790SOL    HW1 8386   2.807   3.768   4.408
 2790SOL    HW2 8387   2.855   3.694   4.546
 2791SOL     OW 8388   3.291   4.897   4.591
 2791SOL    HW1 8389   3.236   4.813   4.584
 2791SOL    HW2 8390   3.317   4.926   4.499
 2792SOL     OW 8391   3.328   4.314   4.716
 2792SOL    HW1 8392   3.298   4.219   4.723
 2792SOL    HW2 8393   3.401   4.330   4.782
 2793SOL     OW 8394   3.719   4.557   4.101
 2793SOL    HW1 8395   3.761   4.493   4.165
 2793SOL    HW2 8396   3.681   4.506   4.023
 2794SOL     OW 8397   3.252   4.299   3.802
 2794SOL    HW1 8398   3.198   4.278   3.883
 2794SOL    HW2 8399   3.343   4.258   3.811
 2795SOL     OW 8400   2.389   3.980   4.052
 2795SOL    HW1 8401   2.416   3.921   3.977
 2795SOL    HW2 8402   2.389   4.075   4.021
 2796SOL     OW 8403   3.500   4.823   4.803
 2796SOL    HW1 8404   3.505   4.904   4.862
 2796SOL    HW2 8405   3.414   4.825   4.752
 2797SOL     OW 8406   2.428   4.261   4.589
 2797SOL    HW1 8407   2.440   4.327   4.515
 2797SOL    HW2 8408   2.474   4.295   4.672
 2798SOL     OW 8409   3.444   4.363   4.196
 2798SOL    HW1 8410   3.413   4.424   4.269
 2798SOL    HW2 8411   3.494   4.415   4.127
 2799SOL     OW 8412   2.435   4.594   4.753
 2799SOL    HW1 8413   2.479   4.683   4.744
 2799SOL    HW2 8414   2.372   4.594   4.830
 2800SOL     OW 8415   3.071   4.249   3.999
 2800SOL    HW1 8416   3.084   4.165   4.053
 2800SOL    HW2 8417   3.042   4.323   4.059
 2801SOL     OW 8418   2.169   3.937   4.955
 2801SOL    HW1 8419   2.146   3.974   5.045
 2801SOL    HW2 8420   2.139   3.842   4.949
 2802SOL     OW 8421   2.594   4.358   4.788
 2802SOL    HW1 8422   2.653   4.332   4.712
 2802SOL    HW2 8423   2.566   4.454   4.777
 2803SOL     OW 8424   2.169   3.787   4.342
 2803SOL    HW1 8425   2.158   3.881   4.375
 2803SOL    HW2 8426   2.164   3.724   4.419
 2804SOL     OW 8427   3.484   4.091   4.098
 2804SOL    HW1 8428   3.486   4.015   4.162
 2804SOL    HW2 8429   3.436   4.168   4.138
 2805SOL     OW 8430   3.402   3.998   3.849
 2805SOL    HW1 8431   3.341   3.923   3.872
 2805SOL    HW2 8432   3.424   4.050   3.932
 2806SOL     OW 8433   3.165   4.562   3.766
 2806SOL    HW1 8434   3.199   4.469   3.781
 2806SOL    HW2 8435   3.183   4.589   3.671
 2807SOL     OW 8436   2.181   4.534   4.673
 2807SOL    HW1 8437   2.274   4.570   4.678
 2807SOL    HW2 8438   2.175   4.449   4.725
 2808SOL     OW 8439   2.201   4.233   4.730
 2808SOL    HW1 8440   2.149   4.150   4.713
 2808SOL    HW2 8441   2.278   4.238   4.666
 2809SOL     OW 8442   2.864   4.520   4.962
 2809SOL    HW1 8443   2.905   4.488   5.048
 2809SOL    HW2 8444   2.768   4.493   4.959
 2810SOL     OW 8445   2.677   4.296   4.049
 2810SOL    HW1 8446   2.684   4.207   4.003
 2810SOL    HW2 8447   2.583   4.330   4.041
 2811SOL     OW 8448   2.533   4.188   4.993
 2811SOL    HW1 8449   2.499   4.099   4.963
 2811SOL    HW2 8450   2.559   4.242   4.913
 2812SOL     OW 8451   2.335   4.224   3.915
 2812SOL    HW1 8452   2.396   4.304   3.919
 2812SOL    HW2 8453   2.240   4.255   3.922
 2813SOL     OW 8454   3.164   4.579   4.033
 2813SOL    HW1 8455   3.078   4.548   4.075
 2813SOL    HW2 8456   3.160   4.565   3.934
 2814SOL     OW 8457   3.588   3.859   4.247
 2814SOL    HW1 8458   3.661   3.842   4.180
 2814SOL    HW2 8459   3.557   3.772   4.285
 2815SOL     OW 8460   3.142   4.651   4.396
 2815SOL    HW1 8461   3.202   4.570   4.398
 2815SOL    HW2 8462   3.182   4.720   4.336
 2816SOL     OW 8463   3.703   3.899   4.687
 2816SOL    HW1 8464   3.742   3.814   4.651
 2816SOL    HW2 8465   3.605   3.901   4.668
 2817SOL     OW 8466   2.125   4.050   4.444
 2817SOL    HW1 8467   2.046   4.101   4.410
 2817SOL    HW2 8468   2.116   4.035   4.542
 2818SOL     OW 8469   2.778   4.634   4.015
 2818SOL    HW1 8470   2.841   4.672   3.947
 2818SOL    HW2 8471   2.818   4.551   4.054
 2819SOL     OW 8472   2.876   3.960   4.695
 2819SOL    HW1 8473   2.868   3.924   4.602
 2819SOL    HW2 8474   2.874   3.884   4.760
 2820SOL     OW 8475   1.937   4.069   3.757
 2820SOL    HW1 8476   1.845   4.041   3.728
 2820SOL    HW2 8477   1.968   4.146   3.701
 2821SOL     OW 8478   1.934   3.890   4.042
 2821SOL    HW1 8479   1.917   3.973   3.988
 2821SOL    HW2 8480   2.024   3.853   4.020
 2822SOL     OW 8481   3.045   5.059   3.843
 2822SOL    HW1 8482   2.946   5.048   3.845
 2822SOL    HW2 8483   3.079   5.074   3.936
 2823SOL     OW 8484   3.536   4.607   4.978
 2823SOL    HW1 8485   3.509   4.518   4.941
 2823SOL    HW2 8486   3.537   4.675   4.905
 2824SOL     OW 8487   3.087   4.049   4.173
 2824SOL    HW1 8488   3.152   3.975   4.162
 2824SOL    HW2 8489   3.107   4.099   4.257
 2825SOL     OW 8490   2.456   4.469   4.376
 2825SOL    HW1 8491   2.506   4.554   4.357
 2825SOL    HW2 8492   2.368   4.471   4.328
 2826SOL     OW 8493   2.721   4.680   4.585
 2826SOL    HW1 8494   2.775   4.611   4.633
 2826SOL    HW2 8495   2.689   4.749   4.651
 2827SOL     OW 8496   2.945   4.708   3.811
 2827SOL    HW1 8497   2.922   4.761   3.729
 2827SOL    HW2 8498   3.026   4.652   3.792
 2828SOL     OW 8499   1.941   4.964   4.377
 2828SOL    HW1 8500   1.940   4.917   4.465
 2828SOL    HW2 8501   2.023   4.936   4.326
 2829SOL     OW 8502   3.686   3.916   4.951
 2829SOL    HW1 8503   3.682   3.826   4.995
 2829SOL    HW2 8504   3.689   3.905   4.852
 2830SOL     OW 8505   2.290   4.148   4.244
 2830SOL    HW1 8506   2.320   4.076   4.182
 2830SOL    HW2 8507   2.251   4.108   4.327
 2831SOL     OW 8508   3.214   3.776   3.892
 2831SOL    HW1 8509   3.249   3.735   3.808
 2831SOL    HW2 8510   3.124   3.738   3.912
 2832SOL     OW 8511   3.162   4.177   4.415
 2832SOL    HW1 8512   3.103   4.257   4.419
 2832SOL    HW2 8513   3.177   4.142   4.508
 2833SOL     OW 8514   3.455   3.945   4.606
 2833SOL    HW1 8515   3.371   3.944   4.660
 2833SOL    HW2 8516   3.457   4.028   4.550
 2834SOL     OW 8517   1.901   4.801   4.024
 2834SOL    HW1 8518   2.000   4.790   4.015
 2834SOL    HW2 8519   1.861   4.715   4.056
 2835SOL     OW 8520   3.954   0.628   0.113
 2835SOL    HW1 8521   3.861   0.626   0.150
 2835SOL    HW2 8522   3.955   0.589   0.021
 2836SOL     OW 8523   3.949   0.275   0.996
 2836SOL    HW1 8524   3.984   0.258   1.088
 2836SOL    HW2 8525   3.861   0.230   0.984
 2837SOL     OW 8526   3.743   0.368   0.647
 2837SOL    HW1 8527   3.661   0.411   0.686
 2837SOL    HW2 8528   3.715   0.295   0.584
 2838SOL     OW 8529   4.293   1.275   1.165
 2838SOL    HW1 8530   4.200   1.268   1.128
 2838SOL    HW2 8531   4.304   1.364   1.209
 2839SOL     OW 8532   4.492   1.144   1.023
 2839SOL    HW1 8533   4.414   1.161   1.083
 2839SOL    HW2 8534   4.526   1.231   0.987
 2840SOL     OW 8535   4.574   0.798   1.823
 2840SOL    HW1 8536   4.570   0.874   1.888
 2840SOL    HW2 8537   4.596   0.834   1.732
 2841SOL     OW 8538   4.409   1.012   0.665
 2841SOL    HW1 8539   4.478   0.996   0.735
 2841SOL    HW2 8540   4.336   1.069   0.703
 2842SOL     OW 8541   4.410   1.161   1.803
 2842SOL    HW1 8542   4.470   1.240   1.817
 2842SOL    HW2 8543   4.324   1.192   1.762
 2843SOL     OW 8544   4.059   1.435   1.061
 2843SOL    HW1 8545   3.981   1.404   1.008
 2843SOL    HW2 8546   4.117   1.493   1.004
 2844SOL     OW 8547   4.162   0.392   1.499
 2844SOL    HW1 8548   4.244   0.336   1.508
 2844SOL    HW2 8549   4.081   0.334   1.503
 2845SOL     OW 8550   3.955   1.713   0.483
 2845SOL    HW1 8551   3.989   1.790   0.537
 2845SOL    HW2 8552   3.999   1.713   0.393
 2846SOL     OW 8553   3.954   1.434   0.538
 2846SOL    HW1 8554   3.928   1.530   0.538
 2846SOL    HW2 8555   3.883   1.380   0.583
 2847SOL     OW 8556   3.964   1.091   0.886
 2847SOL    HW1 8557   3.978   1.007   0.938
 2847SOL    HW2 8558   3.909   1.155   0.941
 2848SOL     OW 8559   4.344   1.786   1.439
 2848SOL    HW1 8560   4.252   1.769   1.474
 2848SOL    HW2 8561   4.372   1.878   1.465
 2849SOL     OW 8562   4.330   0.964   0.123
 2849SOL    HW1 8563   4.337   1.048   0.069
 2849SOL    HW2 8564   4.376   0.977   0.211
 2850SOL     OW 8565   3.846   0.643   0.563
 2850SOL    HW1 8566   3.801   0.555   0.580
 2850SOL    HW2 8567   3.845   0.697   0.647
 2851SOL     OW 8568   3.751   1.596   0.117
 2851SOL    HW1 8569   3.732   1.500   0.138
 2851SOL    HW2 8570   3.718   1.654   0.192
 2852SOL     OW 8571   3.837   0.737   1.597
 2852SOL    HW1 8572   3.925   0.724   1.642
 2852SOL    HW2 8573   3.824   0.834   1.575
 2853SOL     OW 8574   4.337   1.365   0.726
 2853SOL    HW1 8575   4.288   1.278   0.735
 2853SOL    HW2 8576   4.314   1.408   0.639
 2854SOL     OW 8577   4.533   0.004   0.502
 2854SOL    HW1 8578   4.573   0.095   0.493
 2854SOL    HW2 8579   4.433   0.012   0.508
 2855SOL     OW 8580   3.921   0.976   1.264
 2855SOL    HW1 8581   4.010   0.931   1.250
 2855SOL    HW2 8582   3.848   0.911   1.245
 2856SOL     OW 8583   4.041   0.251   1.801
 2856SOL    HW1 8584   4.112   0.322   1.807
 2856SOL    HW2 8585   3.953   0.290   1.829
 2857SOL     OW 8586   4.322   0.729   0.270
 2857SOL    HW1 8587   4.346   0.798   0.202
 2857SOL    HW2 8588   4.244   0.762   0.324
 2858SOL     OW 8589   4.531   0.605   1.465
 2858SOL    HW1 8590   4.484   0.602   1.554
 2858SOL    HW2 8591   4.480   0.550   1.399
 2859SOL     OW 8592   4.697   0.890   1.572
 2859SOL    HW1 8593   4.743   0.806   1.543
 2859SOL    HW2 8594   4.641   0.924   1.497
 2860SOL     OW 8595   4.715   0.410   1.242
 2860SOL    HW1 8596   4.638   0.444   1.296
 2860SOL    HW2 8597   4.681   0.359   1.163
 2861SOL     OW 8598   4.765   0.701   0.429
 2861SOL    HW1 8599   4.791   0.697   0.525
 2861SOL    HW2 8600   4.680   0.650   0.415
 2862SOL     OW 8601   3.800   0.811   0.789
 2862SOL    HW1 8602   3.899   0.799   0.798
 2862SOL    HW2 8603   3.776   0.906   0.810
 2863SOL     OW 8604   3.854   1.821   1.571
 2863SOL    HW1 8605   3.844   1.806   1.670
 2863SOL    HW2 8606   3.768   1.857   1.535
 2864SOL     OW 8607   4.589   0.348   0.195
 2864SOL    HW1 8608   4.648   0.411   0.146
 2864SOL    HW2 8609   4.608   0.254   0.166
 2865SOL     OW 8610   4.274   0.196   0.885
 2865SOL    HW1 8611   4.269   0.191   0.985
 2865SOL    HW2 8612   4.276   0.292   0.856
 2866SOL     OW 8613   4.732   1.456   0.477
 2866SOL    HW1 8614   4.686   1.528   0.425
 2866SOL    HW2 8615   4.728   1.476   0.575
 2867SOL     OW 8616   4.075   1.801   0.853
 2867SOL    HW1 8617   4.125   1.715   0.859
 2867SOL    HW2 8618   4.140   1.878   0.850
 2868SOL     OW 8619   4.045   0.943   0.242
 2868SOL    HW1 8620   4.127   0.982   0.200
 2868SOL    HW2 8621   4.018   0.861   0.193
 2869SOL     OW 8622   4.185   1.266   1.727
 2869SOL    HW1 8623   4.135   1.267   1.641
 2869SOL    HW2 8624   4.122   1.248   1.803
 2870SOL     OW 8625   3.926   0.285   1.498
 2870SOL    HW1 8626   3.846   0.345   1.485
 2870SOL    HW2 8627   3.916   0.236   1.584
 2871SOL     OW 8628   4.188   1.743   0.323
 2871SOL    HW1 8629   4.221   1.782   0.409
 2871SOL    HW2 8630   4.264   1.736   0.258
 2872SOL     OW 8631   3.973   1.785   1.241
 2872SOL    HW1 8632   4.030   1.720   1.291
 2872SOL    HW2 8633   3.957   1.752   1.148
 2873SOL     OW 8634   4.664   1.698   0.904
 2873SOL    HW1 8635   4.744   1.641   0.925
 2873SOL    HW2 8636   4.615   1.658   0.827
 2874SOL     OW 8637   4.106   0.700   0.480
 2874SOL    HW1 8638   4.151   0.610   0.477
 2874SOL    HW2 8639   4.012   0.689   0.513
 2875SOL     OW 8640   4.338   0.122   0.117
 2875SOL    HW1 8641   4.436   0.100   0.124
 2875SOL    HW2 8642   4.307   0.105   0.024
 2876SOL     OW 8643   4.505   0.264   1.749
 2876SOL    HW1 8644   4.572   0.203   1.792
 2876SOL    HW2 8645   4.432   0.283   1.814
 2877SOL     OW 8646   4.612   1.514   1.195
 2877SOL    HW1 8647   4.589   1.489   1.101
 2877SOL    HW2 8648   4.673   1.445   1.234
 2878SOL     OW 8649   4.527   1.402   0.924
 2878SOL    HW1 8650   4.617   1.416   0.882
 2878SOL    HW2 8651   4.456   1.404   0.853
 2879SOL     OW 8652   4.646   0.503   0.899
 2879SOL    HW1 8653   4.621   0.494   0.803
 2879SOL    HW2 8654   4.694   0.421   0.930
 2880SOL     OW 8655   4.263   0.064   0.512
 2880SOL    HW1 8656   4.182   0.065   0.570
 2880SOL    HW2 8657   4.266   0.147   0.457
 2881SOL     OW 8658   5.158   1.188   0.041
 2881SOL    HW1 8659   5.190   1.112   0.098
 2881SOL    HW2 8660   5.066   1.215   0.071
 2882SOL     OW 8661   4.021   0.035   0.171
 2882SOL    HW1 8662   4.070   0.119   0.150
 2882SOL    HW2 8663   4.083  -0.030   0.216
 2883SOL     OW 8664   4.659   0.236   0.480
 2883SOL    HW1 8665   4.611   0.277   0.402
 2883SOL    HW2 8666   4.758   0.234   0.461
 2884SOL     OW 8667   4.951   1.570   0.793
 2884SOL    HW1 8668   4.972   1.644   0.728
 2884SOL    HW2 8669   5.019   1.570   0.866
 2885SOL     OW 8670   4.183   1.152   0.741
 2885SOL    HW1 8671   4.112   1.125   0.806
 2885SOL    HW2 8672   4.157   1.124   0.648
 2886SOL     OW 8673   4.756   0.549   0.016
 2886SOL    HW1 8674   4.715   0.631  -0.023
 2886SOL    HW2 8675   4.820   0.575   0.089
 2887SOL     OW 8676   3.802   0.556   1.386
 2887SOL    HW1 8677   3.894   0.555   1.345
 2887SOL    HW2 8678   3.796   0.630   1.453
 2888SOL     OW 8679   4.285   0.222   1.147
 2888SOL    HW1 8680   4.323   0.138   1.184
 2888SOL    HW2 8681   4.197   0.241   1.191
 2889SOL     OW 8682   4.590   0.454   0.642
 2889SOL    HW1 8683   4.558   0.526   0.580
 2889SOL    HW2 8684   4.614   0.373   0.589
 2890SOL     OW 8685   4.741   0.039   0.753
 2890SOL    HW1 8686   4.669   0.044   0.684
 2890SOL    HW2 8687   4.717  -0.030   0.822
 2891SOL     OW 8688   4.212   1.385   0.174
 2891SOL    HW1 8689   4.125   1.370   0.221
 2891SOL    HW2 8690   4.195   1.411   0.079
 2892SOL     OW 8691   4.251   0.256   0.328
 2892SOL    HW1 8692   4.278   0.197   0.253
 2892SOL    HW2 8693   4.251   0.351   0.297
 2893SOL     OW 8694   4.639   0.089   1.402
 2893SOL    HW1 8695   4.664   0.069   1.307
 2893SOL    HW2 8696   4.711   0.145   1.444
 2894SOL     OW 8697   4.704   1.116   1.719
 2894SOL    HW1 8698   4.605   1.122   1.729
 2894SOL    HW2 8699   4.727   1.036   1.663
 2895SOL     OW 8700   4.429   1.050   0.368
 2895SOL    HW1 8701   4.415   1.057   0.467
 2895SOL    HW2 8702   4.513   0.999   0.350
 2896SOL     OW 8703   4.134   0.813   1.251
 2896SOL    HW1 8704   4.220   0.825   1.301
 2896SOL    HW2 8705   4.092   0.726   1.278
 2897SOL     OW 8706   3.788   1.564   1.331
 2897SOL    HW1 8707   3.742   1.646   1.297
 2897SOL    HW2 8708   3.886   1.583   1.340
 2898SOL     OW 8709   4.091   1.100   0.501
 2898SOL    HW1 8710   4.084   1.183   0.445
 2898SOL    HW2 8711   4.095   1.020   0.441
 2899SOL     OW 8712   4.290   0.537   0.865
 2899SOL    HW1 8713   4.302   0.603   0.791
 2899SOL    HW2 8714   4.336   0.571   0.948
 2900SOL     OW 8715   4.078   1.510   1.329
 2900SOL    HW1 8716   4.057   1.466   1.242
 2900SOL    HW2 8717   4.175   1.536   1.332
 2901SOL     OW 8718   4.126   0.751   1.598
 2901SOL    HW1 8719   4.194   0.806   1.551
 2901SOL    HW2 8720   4.166   0.663   1.625
 2902SOL     OW 8721   4.737   0.105   1.770
 2902SOL    HW1 8722   4.743   0.190   1.718
 2902SOL    HW2 8723   4.769   0.029   1.713
 2903SOL     OW 8724   4.228   0.050   1.740
 2903SOL    HW1 8725   4.186  -0.007   1.670
 2903SOL    HW2 8726   4.162   0.119   1.772
 2904SOL     OW 8727   4.297   0.870   1.029
 2904SOL    HW1 8728   4.341   0.959   1.020
 2904SOL    HW2 8729   4.234   0.870   1.106
 2905SOL     OW 8730   4.933   0.525   0.275
 2905SOL    HW1 8731   4.946   0.441   0.329
 2905SOL    HW2 8732   4.904   0.599   0.335
 2906SOL     OW 8733   4.031   0.213   1.231
 2906SOL    HW1 8734   4.008   0.250   1.321
 2906SOL    HW2 8735   4.001   0.118   1.225
 2907SOL     OW 8736   3.761   1.310   1.282
 2907SOL    HW1 8737   3.814   1.261   1.350
 2907SOL    HW2 8738   3.783   1.408   1.287
 2908SOL     OW 8739   4.456   0.634   1.064
 2908SOL    HW1 8740   4.515   0.608   0.988
 2908SOL    HW2 8741   4.428   0.730   1.053
 2909SOL     OW 8742   4.031   0.063   0.618
 2909SOL    HW1 8743   4.020   0.157   0.651
 2909SOL    HW2 8744   4.026   0.000   0.695
 2910SOL     OW 8745   4.747   0.766   0.966
 2910SOL    HW1 8746   4.762   0.787   1.062
 2910SOL    HW2 8747   4.717   0.671   0.957
 2911SOL     OW 8748   4.704   1.573   1.700
 2911SOL    HW1 8749   4.684   1.617   1.612
 2911SOL    HW2 8750   4.743   1.482   1.684
 2912SOL     OW 8751   4.074   0.898   1.804
 2912SOL    HW1 8752   4.150   0.942   1.852
 2912SOL    HW2 8753   4.109   0.851   1.722
 2913SOL     OW 8754   4.043   0.810   0.949
 2913SOL    HW1 8755   4.136   0.846   0.954
 2913SOL    HW2 8756   4.037   0.725   1.001
 2914SOL     OW 8757   4.063   0.509   1.006
 2914SOL    HW1 8758   4.011   0.426   0.989
 2914SOL    HW2 8759   4.140   0.514   0.942
 2915SOL     OW 8760   3.732   1.326   0.200
 2915SOL    HW1 8761   3.639   1.347   0.169
 2915SOL    HW2 8762   3.742   1.227   0.213
 2916SOL     OW 8763   3.812   1.801   0.927
 2916SOL    HW1 8764   3.770   1.715   0.900
 2916SOL    HW2 8765   3.906   1.804   0.893
 2917SOL     OW 8766   4.228   1.568   0.910
 2917SOL    HW1 8767   4.294   1.642   0.919
 2917SOL    HW2 8768   4.272   1.489   0.868
 2918SOL     OW 8769   4.726   0.796   1.238
 2918SOL    HW1 8770   4.767   0.764   1.324
 2918SOL    HW2 8771   4.630   0.769   1.235
 2919SOL     OW 8772   3.764   0.544   1.114
 2919SOL    HW1 8773   3.849   0.511   1.073
 2919SOL    HW2 8774   3.777   0.559   1.212
 2920SOL     OW 8775   3.913   0.520   1.722
 2920SOL    HW1 8776   3.972   0.480   1.652
 2920SOL    HW2 8777   3.855   0.591   1.681
 2921SOL     OW 8778   4.539   0.572   0.325
 2921SOL    HW1 8779   4.546   0.483   0.279
 2921SOL    HW2 8780   4.445   0.606   0.317
 2922SOL     OW 8781   3.976   1.564   1.744
 2922SOL    HW1 8782   3.946   1.621   1.820
 2922SOL    HW2 8783   3.969   1.467   1.770
 2923SOL     OW 8784   4.395   0.464   1.269
 2923SOL    HW1 8785   4.361   0.375   1.239
 2923SOL    HW2 8786   4.421   0.518   1.189
 2924SOL     OW 8787   4.654   1.678   1.465
 2924SOL    HW1 8788   4.630   1.660   1.370
 2924SOL    HW2 8789   4.684   1.772   1.475
 2925SOL     OW 8790   4.197   0.500   0.191
 2925SOL    HW1 8791   4.258   0.580   0.195
 2925SOL    HW2 8792   4.102   0.531   0.198
 2926SOL     OW 8793   3.883   1.137   1.466
 2926SOL    HW1 8794   3.905   1.076   1.542
 2926SOL    HW2 8795   3.893   1.088   1.380
 2927SOL     OW 8796   3.807   1.258   1.022
 2927SOL    HW1 8797   3.802   1.257   1.122
 2927SOL    HW2 8798   3.724   1.217   0.984
 2928SOL     OW 8799   4.412   1.662   1.716
 2928SOL    HW1 8800   4.356   1.743   1.725
 2928SOL    HW2 8801   4.464   1.666   1.630
 2929SOL     OW 8802   4.627   0.086   0.133
 2929SOL    HW1 8803   4.678   0.087   0.047
 2929SOL    HW2 8804   4.683   0.044   0.204
 2930SOL     OW 8805   3.854   1.794   1.851
 2930SOL    HW1 8806   3.813   1.720   1.904
 2930SOL    HW2 8807   3.918   1.845   1.909
 2931SOL     OW 8808   5.004   0.927   0.672
 2931SOL    HW1 8809   5.064   0.846   0.674
 2931SOL    HW2 8810   5.044   0.996   0.612
 2932SOL     OW 8811   4.554   1.273   1.422
 2932SOL    HW1 8812   4.549   1.306   1.517
 2932SOL    HW2 8813   4.468   1.292   1.376
 2933SOL     OW 8814   4.396   1.616   0.154
 2933SOL    HW1 8815   4.405   1.626   0.055
 2933SOL    HW2 8816   4.356   1.527   0.175
 2934SOL     OW 8817   3.987   0.326   0.720
 2934SOL    HW1 8818   3.908   0.377   0.686
 2934SOL    HW2 8819   3.978   0.311   0.818
 2935SOL     OW 8820   4.546   1.002   1.372
 2935SOL    HW1 8821   4.586   1.001   1.280
 2935SOL    HW2 8822   4.556   1.094   1.412
 2936SOL     OW 8823   4.640   0.910   0.291
 2936SOL    HW1 8824   4.703   0.948   0.223
 2936SOL    HW2 8825   4.680   0.827   0.330
 2937SOL     OW 8826   4.096   1.288   1.490
 2937SOL    HW1 8827   4.083   1.381   1.456
 2937SOL    HW2 8828   4.012   1.236   1.477
 2938SOL     OW 8829   4.763   1.098   0.696
 2938SOL    HW1 8830   4.693   1.051   0.750
 2938SOL    HW2 8831   4.822   1.030   0.653
 2939SOL     OW 8832   4.738   0.236   0.971
 2939SOL    HW1 8833   4.730   0.200   0.878
 2939SOL    HW2 8834   4.736   0.160   1.036
 2940SOL     OW 8835   4.314   1.487   0.491
 2940SOL    HW1 8836   4.356   1.429   0.421
 2940SOL    HW2 8837   4.270   1.566   0.447
 2941SOL     OW 8838   3.979   1.348   0.290
 2941SOL    HW1 8839   3.883   1.349   0.263
 2941SOL    HW2 8840   3.991   1.401   0.374
 2942SOL     OW 8841   3.829   1.013   1.726
 2942SOL    HW1 8842   3.752   0.980   1.780
 2942SOL    HW2 8843   3.914   0.983   1.768
 2943SOL     OW 8844   4.396   0.203   1.489
 2943SOL    HW1 8845   4.486   0.187   1.449
 2943SOL    HW2 8846   4.404   0.208   1.588
 2944SOL     OW 8847   3.799   0.345   0.033
 2944SOL    HW1 8848   3.707   0.317   0.004
 2944SOL    HW2 8849   3.830   0.422  -0.023
 2945SOL     OW 8850   3.796   0.166   0.318
 2945SOL    HW1 8851   3.779   0.249   0.264
 2945SOL    HW2 8852   3.886   0.129   0.296
 2946SOL     OW 8853   4.337   0.842   1.431
 2946SOL    HW1 8854   4.393   0.923   1.414
 2946SOL    HW2 8855   4.396   0.762   1.434
 2947SOL     OW 8856   4.440   0.565   1.708
 2947SOL    HW1 8857   4.459   0.630   1.782
 2947SOL    HW2 8858   4.500   0.485   1.717
 2948SOL     OW 8859   4.114   1.741   1.560
 2948SOL    HW1 8860   4.023   1.782   1.558
 2948SOL    HW2 8861   4.107   1.647   1.592
 2949SOL     OW 8862   4.949   0.325   0.449
 2949SOL    HW1 8863   5.014   0.251   0.438
 2949SOL    HW2 8864   4.969   0.375   0.533
 2950SOL     OW 8865   4.318   0.745   0.652
 2950SOL    HW1 8866   4.368   0.830   0.633
 2950SOL    HW2 8867   4.230   0.747   0.604
 2951SOL     OW 8868   4.583   1.374   0.016
 2951SOL    HW1 8869   4.537   1.389   0.104
 2951SOL    HW2 8870   4.627   1.459  -0.014
 2952SOL     OW 8871   4.385   1.790   0.953
 2952SOL    HW1 8872   4.339   1.878   0.940
 2952SOL    HW2 8873   4.484   1.802   0.946
 2953SOL     OW 8874   4.583   0.956   0.861
 2953SOL    HW1 8875   4.637   0.887   0.909
 2953SOL    HW2 8876   4.551   1.025   0.927
 2954SOL     OW 8877   4.807   0.984   0.087
 2954SOL    HW1 8878   4.784   1.037   0.005
 2954SOL    HW2 8879   4.888   0.928   0.068
 2955SOL     OW 8880   3.945   1.314   1.844
 2955SOL    HW1 8881   3.880   1.241   1.823
 2955SOL    HW2 8882   3.949   1.328   1.942
 2956SOL     OW 8883   3.803   1.240   0.653
 2956SOL    HW1 8884   3.802   1.193   0.741
 2956SOL    HW2 8885   3.885   1.212   0.602
 2957SOL     OW 8886   4.396   1.391   1.624
 2957SOL    HW1 8887   4.318   1.341   1.662
 2957SOL    HW2 8888   4.393   1.486   1.655
 2958SOL     OW 8889   4.152   0.424   0.520
 2958SOL    HW1 8890   4.182   0.352   0.458
 2958SOL    HW2 8891   4.113   0.384   0.603
 2959SOL     OW 8892   4.041   0.547   1.280
 2959SOL    HW1 8893   4.079   0.488   1.352
 2959SOL    HW2 8894   4.081   0.521   1.192
 2960SOL     OW 8895   4.536   1.586   0.687
 2960SOL    HW1 8896   4.568   1.596   0.593
 2960SOL    HW2 8897   4.457   1.524   0.689
 2961SOL     OW 8898   4.725   0.034   1.154
 2961SOL    HW1 8899   4.662  -0.038   1.123
 2961SOL    HW2 8900   4.818  -0.002   1.154
 2962SOL     OW 8901   4.494   1.330   0.301
 2962SOL    HW1 8902   4.448   1.243   0.318
 2962SOL    HW2 8903   4.585   1.327   0.342
 2963SOL     OW 8904   4.342   1.567   1.284
 2963SOL    HW1 8905   4.337   1.649   1.341
 2963SOL    HW2 8906   4.431   1.564   1.239
 2964SOL     OW 8907   3.763   1.077   0.300
 2964SOL    HW1 8908   3.862   1.066   0.291
 2964SOL    HW2 8909   3.723   0.991   0.332
 2965SOL     OW 8910   4.599   1.646   0.337
 2965SOL    HW1 8911   4.522   1.611   0.283
 2965SOL    HW2 8912   4.567   1.717   0.399
 2966SOL     OW 8913   3.954   0.628   1.975
 2966SOL    HW1 8914   3.861   0.626   2.012
 2966SOL    HW2 8915   3.955   0.589   1.883
 2967SOL     OW 8916   3.949   0.275   2.858
 2967SOL    HW1 8917   3.984   0.258   2.950
 2967SOL    HW2 8918   3.861   0.230   2.846
 2968SOL     OW 8919   3.743   0.368   2.509
 2968SOL    HW1 8920   3.661   0.411   2.548
 2968SOL    HW2 8921   3.715   0.295   2.446
 2969SOL     OW 8922   4.293   1.275   3.027
 2969SOL    HW1 8923   4.200   1.268   2.990
 2969SOL    HW2 8924   4.304   1.364   3.071
 2970SOL     OW 8925   4.492   1.144   2.885
 2970SOL    HW1 8926   4.414   1.161   2.945
 2970SOL    HW2 8927   4.526   1.231   2.849
 2971SOL     OW 8928   4.574   0.798   3.685
 2971SOL    HW1 8929   4.570   0.874   3.750
 2971SOL    HW2 8930   4.596   0.834   3.594
 2972SOL     OW 8931   4.409   1.012   2.527
 2972SOL    HW1 8932   4.478   0.996   2.597
 2972SOL    HW2 8933   4.336   1.069   2.565
 2973SOL     OW 8934   4.410   1.161   3.665
 2973SOL    HW1 8935   4.470   1.240   3.679
 2973SOL    HW2 8936   4.324   1.192   3.624
 2974SOL     OW 8937   4.059   1.435   2.923
 2974SOL    HW1 8938   3.981   1.404   2.870
 2974SOL    HW2 8939   4.117   1.493   2.866
 2975SOL     OW 8940   4.162   0.392   3.361
 2975SOL    HW1 8941   4.244   0.336   3.370
 2975SOL    HW2 8942   4.081   0.334   3.365
 2976SOL     OW 8943   3.955   1.713   2.345
 2976SOL    HW1 8944   3.989   1.790   2.399
 2976SOL    HW2 8945   3.999   1.713   2.255
 2977SOL     OW 8946   3.954   1.434   2.400
 2977SOL    HW1 8947   3.928   1.530   2.400
 2977SOL    HW2 8948   3.883   1.380   2.445
 2978SOL     OW 8949   3.964   1.091   2.748
 2978SOL    HW1 8950   3.978   1.007   2.800
 2978SOL    HW2 8951   3.909   1.155   2.803
 2979SOL     OW 8952   4.344   1.786   3.301
 2979SOL    HW1 8953   4.252   1.769   3.336
 2979SOL    HW2 8954   4.372   1.878   3.327
 2980SOL     OW 8955   4.330   0.964   1.985
 2980SOL    HW1 8956   4.337   1.048   1.931
 2980SOL    HW2 8957   4.376   0.977   2.073
 2981SOL     OW 8958   3.846   0.643   2.425
 2981SOL    HW1 8959   3.801   0.555   2.442
 2981SOL    HW2 8960   3.845   0.697   2.509
 2982SOL     OW 8961   3.751   1.596   1.979
 2982SOL    HW1 8962   3.732   1.500   2.000
 2982SOL    HW2 8963   3.718   1.654   2.054
 2983SOL     OW 8964   3.837   0.737   3.459
 2983SOL    HW1 8965   3.925   0.724   3.504
 2983SOL    HW2 8966   3.824   0.834   3.437
 2984SOL     OW 8967   4.337   1.365   2.588
 2984SOL    HW1 8968   4.288   1.278   2.597
 2984SOL    HW2 8969   4.314   1.408   2.501
 2985SOL     OW 8970   4.533   0.004   2.364
 2985SOL    HW1 8971   4.573   0.095   2.355
 2985SOL    HW2 8972   4.433   0.012   2.370
 2986SOL     OW 8973   3.921   0.976   3.126
 2986SOL    HW1 8974   4.010   0.931   3.112
 2986SOL    HW2 8975   3.848   0.911   3.107
 2987SOL     OW 8976   4.041   0.251   3.663
 2987SOL    HW1 8977   4.112   0.322   3.669
 2987SOL    HW2 8978   3.953   0.290   3.691
 2988SOL     OW 8979   4.322   0.729   2.132
 2988SOL    HW1 8980   4.346   0.798   2.064
 2988SOL    HW2 8981   4.244   0.762   2.186
 2989SOL     OW 8982   4.531   0.605   3.327
 2989SOL    HW1 8983   4.484   0.602   3.416
 2989SOL    HW2 8984   4.480   0.550   3.261
 2990SOL     OW 8985   4.697   0.890   3.434
 2990SOL    HW1 8986   4.743   0.806   3.405
 2990SOL    HW2 8987   4.641   0.924   3.359
 2991SOL     OW 8988   4.715   0.410   3.104
 2991SOL    HW1 8989   4.638   0.444   3.158
 2991SOL    HW2 8990   4.681   0.359   3.025
 2992SOL     OW 8991   4.765   0.701   2.291
 2992SOL    HW1 8992   4.791   0.697   2.387
 2992SOL    HW2 8993   4.680   0.650   2.277
 2993SOL     OW 8994   3.800   0.811   2.651
 2993SOL    HW1 8995   3.899   0.799   2.660
 2993SOL    HW2 8996   3.776   0.906   2.672
 2994SOL     OW 8997   3.854   1.821   3.433
 2994SOL    HW1 8998   3.844   1.806   3.532
 2994SOL    HW2 8999   3.768   1.857   3.397
 2995SOL     OW 9000   4.589   0.348   2.057
 2995SOL    HW1 9001   4.648   0.411   2.008
 2995SOL    HW2 9002   4.608   0.254   2.028
 2996SOL     OW 9003   4.274   0.196   2.747
 2996SOL    HW1 9004   4.269   0.191   2.847
 2996SOL    HW2 9005   4.276   0.292   2.718
 2997SOL     OW 9006   4.732   1.456   2.339
 2997SOL    HW1 9007   4.686   1.528   2.287
 2997SOL    HW2 9008   4.728   1.476   2.437
 2998SOL     OW 9009   4.075   1.801   2.715
 2998SOL    HW1 9010   4.125   1.715   2.721
 2998SOL    HW2 9011   4.140   1.878   2.712
 2999SOL     OW 9012   4.045   0.943   2.104
 2999SOL    HW1 9013   4.127   0.982   2.062
 2999SOL    HW2 9014   4.018   0.861   2.055
 3000SOL     OW 9015   4.185   1.266   3.589
 3000SOL    HW1 9016   4.135   1.267   3.503
 3000SOL    HW2 9017   4.122   1.248   3.665
 3001SOL     OW 9018   3.926   0.285   3.360
 3001SOL    HW1 9019   3.846   0.345   3.347
 3001SOL    HW2 9020   3.916   0.236   3.446
 3002SOL     OW 9021   4.188   1.743   2.185
 3002SOL    HW1 9022   4.221   1.782   2.271
 3002SOL    HW2 9023   4.264   1.736   2.120
 3003SOL     OW 9024   3.973   1.785   3.103
 3003SOL    HW1 9025   4.030   1.720   3.153
 3003SOL    HW2 9026   3.957   1.752   3.010
 3004SOL     OW 9027   4.664   1.698   2.766
 3004SOL    HW1 9028   4.744   1.641   2.787
 3004SOL    HW2 9029   4.615   1.658   2.689
 3005SOL     OW 9030   4.106   0.700   2.342
 3005SOL    HW1 9031   4.151   0.610   2.339
 3005SOL    HW2 9032   4.012   0.689   2.375
 3006SOL     OW 9033   4.338   0.122   1.979
 3006SOL    HW1 9034   4.436   0.100   1.986
 3006SOL    HW2 9035   4.307   0.105   1.886
 3007SOL     OW 9036   4.505   0.264   3.611
 3007SOL    HW1 9037   4.572   0.203   3.654
 3007SOL    HW2 9038   4.432   0.283   3.676
 3008SOL     OW 9039   4.612   1.514   3.057
 3008SOL    HW1 9040   4.589   1.489   2.963
 3008SOL    HW2 9041   4.673   1.445   3.096
 3009SOL     OW 9042   4.527   1.402   2.786
 3009SOL    HW1 9043   4.617   1.416   2.744
 3009SOL    HW2 9044   4.456   1.404   2.715
 3010SOL     OW 9045   4.646   0.503   2.761
 3010SOL    HW1 9046   4.621   0.494   2.665
 3010SOL    HW2 9047   4.694   0.421   2.792
 3011SOL     OW 9048   4.263   0.064   2.374
 3011SOL    HW1 9049   4.182   0.065   2.432
 3011SOL    HW2 9050   4.266   0.147   2.319
 3012SOL     OW 9051   4.021   0.035   2.033
 3012SOL    HW1 9052   4.070   0.119   2.012
 3012SOL    HW2 9053   4.083  -0.030   2.078
 3013SOL     OW 9054   4.659   0.236   2.342
 3013SOL    HW1 9055   4.611   0.277   2.264
 3013SOL    HW2 9056   4.758   0.234   2.323
 3014SOL     OW 9057   4.951   1.570   2.655
 3014SOL    HW1 9058   4.972   1.644   2.590
 3014SOL    HW2 9059   5.019   1.570   2.728
 3015SOL     OW 9060   4.183   1.152   2.603
 3015SOL    HW1 9061   4.112   1.125   2.668
 3015SOL    HW2 9062   4.157   1.124   2.510
 3016SOL     OW 9063   4.756   0.549   1.878
 3016SOL    HW1 9064   4.715   0.631   1.839
 3016SOL    HW2 9065   4.820   0.575   1.951
 3017SOL     OW 9066   3.802   0.556   3.248
 3017SOL    HW1 9067   3.894   0.555   3.207
 3017SOL    HW2 9068   3.796   0.630   3.315
 3018SOL     OW 9069   4.285   0.222   3.009
 3018SOL    HW1 9070   4.323   0.138   3.046
 3018SOL    HW2 9071   4.197   0.241   3.053
 3019SOL     OW 9072   4.590   0.454   2.504
 3019SOL    HW1 9073   4.558   0.526   2.442
 3019SOL    HW2 9074   4.614   0.373   2.451
 3020SOL     OW 9075   4.741   0.039   2.615
 3020SOL    HW1 9076   4.669   0.044   2.546
 3020SOL    HW2 9077   4.717  -0.030   2.684
 3021SOL     OW 9078   4.212   1.385   2.036
 3021SOL    HW1 9079   4.125   1.370   2.083
 3021SOL    HW2 9080   4.195   1.411   1.941
 3022SOL     OW 9081   4.251   0.256   2.190
 3022SOL    HW1 9082   4.278   0.197   2.115
 3022SOL    HW2 9083   4.251   0.351   2.159
 3023SOL     OW 9084   4.639   0.089   3.264
 3023SOL    HW1 9085   4.664   0.069   3.169
 3023SOL    HW2 9086   4.711   0.145   3.306
 3024SOL     OW 9087   4.704   1.116   3.581
 3024SOL    HW1 9088   4.605   1.122   3.591
 3024SOL    HW2 9089   4.727   1.036   3.525
 3025SOL     OW 9090   4.429   1.050   2.230
 3025SOL    HW1 9091   4.415   1.057   2.329
 3025SOL    HW2 9092   4.513   0.999   2.212
 3026SOL     OW 9093   4.134   0.813   3.113
 3026SOL    HW1 9094   4.220   0.825   3.163
 3026SOL    HW2 9095   4.092   0.726   3.140
 3027SOL     OW 9096   3.788   1.564   3.193
 3027SOL    HW1 9097   3.742   1.646   3.159
 3027SOL    HW2 9098   3.886   1.583   3.202
 3028SOL     OW 9099   4.091   1.100   2.363
 3028SOL    HW1 9100   4.084   1.183   2.307
 3028SOL    HW2 9101   4.095   1.020   2.303
 3029SOL     OW 9102   4.290   0.537   2.727
 3029SOL    HW1 9103   4.302   0.603   2.653
 3029SOL    HW2 9104   4.336   0.571   2.810
 3030SOL     OW 9105   4.078   1.510   3.191
 3030SOL    HW1 9106   4.057   1.466   3.104
 3030SOL    HW2 9107   4.175   1.536   3.194
 3031SOL     OW 9108   4.126   0.751   3.460
 3031SOL    HW1 9109   4.194   0.806   3.413
 3031SOL    HW2 9110   4.166   0.663   3.487
 3032SOL     OW 9111   4.737   0.105   3.632
 3032SOL    HW1 9112   4.743   0.190   3.580
 3032SOL    HW2 9113   4.769   0.029   3.575
 3033SOL     OW 9114   4.228   0.050   3.602
 3033SOL    HW1 9115   4.186  -0.007   3.532
 3033SOL    HW2 9116   4.162   0.119   3.634
 3034SOL     OW 9117   4.297   0.870   2.891
 3034SOL    HW1 9118   4.341   0.959   2.882
 3034SOL    HW2 9119   4.234   0.870   2.968
 3035SOL     OW 9120   4.933   0.525   2.137
 3035SOL    HW1 9121   4.946   0.441   2.191
 3035SOL    HW2 9122   4.904   0.599   2.197
 3036SOL     OW 9123   4.031   0.213   3.093
 3036SOL    HW1 9124   4.008   0.250   3.183
 3036SOL    HW2 9125   4.001   0.118   3.087
 3037SOL     OW 9126   3.761   1.310   3.144
 3037SOL    HW1 9127   3.814   1.261   3.212
 3037SOL    HW2 9128   3.783   1.408   3.149
 3038SOL     OW 9129   4.456   0.634   2.926
 3038SOL    HW1 9130   4.515   0.608   2.850
 3038SOL    HW2 9131   4.428   0.730   2.915
 3039SOL     OW 9132   4.031   0.063   2.480
 3039SOL    HW1 9133   4.020   0.157   2.513
 3039SOL    HW2 9134   4.026   0.000   2.557
 3040SOL     OW 9135   4.747   0.766   2.828
 3040SOL    HW1 9136   4.762   0.787   2.924
 3040SOL    HW2 9137   4.717   0.671   2.819
 3041SOL     OW 9138   4.704   1.573   3.562
 3041SOL    HW1 9139   4.684   1.617   3.474
 3041SOL    HW2 9140   4.743   1.482   3.546
 3042SOL     OW 9141   4.074   0.898   3.666
 3042SOL    HW1 9142   4.150   0.942   3.714
 3042SOL    HW2 9143   4.109   0.851   3.584
 3043SOL     OW 9144   4.043   0.810   2.811
 3043SOL    HW1 9145   4.136   0.846   2.816
 3043SOL    HW2 9146   4.037   0.725   2.863
 3044SOL     OW 9147   4.063   0.509   2.868
 3044SOL    HW1 9148   4.011   0.426   2.851
 3044SOL    HW2 9149   4.140   0.514   2.804
 3045SOL     OW 9150   3.732   1.326   2.062
 3045SOL    HW1 9151   3.639   1.347   2.031
 3045SOL    HW2 9152   3.742   1.227   2.075
 3046SOL     OW 9153   3.812   1.801   2.789
 3046SOL    HW1 9154   3.770   1.715   2.762
 3046SOL    HW2 9155   3.906   1.804   2.755
 3047SOL     OW 9156   4.228   1.568   2.772
 3047SOL    HW1 9157   4.294   1.642   2.781
 3047SOL    HW2 9158   4.272   1.489   2.730
 3048SOL     OW 9159   4.726   0.796   3.100
 3048SOL    HW1 9160   4.767   0.764   3.186
 3048SOL    HW2 9161   4.630   0.769   3.097
 3049SOL     OW 9162   3.764   0.544   2.976
 3049SOL    HW1 9163   3.849   0.511   2.935
 3049SOL    HW2 9164   3.777   0.559   3.074
 3050SOL     OW 9165   3.913   0.520   3.584
 3050SOL    HW1 9166   3.972   0.480   3.514
 3050SOL    HW2 9167   3.855   0.591   3.543
 3051SOL     OW 9168   4.539   0.572   2.187
 3051SOL    HW1 9169   4.546   0.483   2.141
 3051SOL    HW2 9170   4.445   0.606   2.179
 3052SOL     OW 9171   3.976   1.564   3.606
 3052SOL    HW1 9172   3.946   1.621   3.682
 3052SOL    HW2 9173   3.969   1.467   3.632
 3053SOL     OW 9174   4.395   0.464   3.131
 3053SOL    HW1 9175   4.361   0.375   3.101
 3053SOL    HW2 9176   4.421   0.518   3.051
 3054SOL     OW 9177   4.654   1.678   3.327
 3054SOL    HW1 9178   4.630   1.660   3.232
 3054SOL    HW2 9179   4.684   1.772   3.337
 3055SOL     OW 9180   4.197   0.500   2.053
 3055SOL    HW1 9181   4.258   0.580   2.057
 3055SOL    HW2 9182   4.102   0.531   2.060
 3056SOL     OW 9183   3.883   1.137   3.328
 3056SOL    HW1 9184   3.905   1.076   3.404
 3056SOL    HW2 9185   3.893   1.088   3.242
 3057SOL     OW 9186   3.807   1.258   2.884
 3057SOL    HW1 9187   3.802   1.257   2.984
 3057SOL    HW2 9188   3.724   1.217   2.846
 3058SOL     OW 9189   4.412   1.662   3.578
 3058SOL    HW1 9190   4.356   1.743   3.587
 3058SOL    HW2 9191   4.464   1.666   3.492
 3059SOL     OW 9192   3.854   1.794   3.713
 3059SOL    HW1 9193   3.813   1.720   3.766
 3059SOL    HW2 9194   3.918   1.845   3.771
 3060SOL     OW 9195   5.004   0.927   2.534
 3060SOL    HW1 9196   5.064   0.846   2.536
 3060SOL    HW2 9197   5.044   0.996   2.474
 3061SOL     OW 9198   4.554   1.273   3.284
 3061SOL    HW1 9199   4.549   1.306   3.379
 3061SOL    HW2 9200   4.468   1.292   3.238
 3062SOL     OW 9201   4.396   1.616   2.016
 3062SOL    HW1 9202   4.405   1.626   1.917
 3062SOL    HW2 9203   4.356   1.527   2.037
 3063SOL     OW 9204   3.987   0.326   2.582
 3063SOL    HW1 9205   3.908   0.377   2.548
 3063SOL    HW2 9206   3.978   0.311   2.680
 3064SOL     OW 9207   4.546   1.002   3.234
 3064SOL    HW1 9208   4.586   1.001   3.142
 3064SOL    HW2 9209   4.556   1.094   3.274
 3065SOL     OW 9210   4.640   0.910   2.153
 3065SOL    HW1 9211   4.703   0.948   2.085
 3065SOL    HW2 9212   4.680   0.827   2.192
 3066SOL     OW 9213   4.096   1.288   3.352
 3066SOL    HW1 9214   4.083   1.381   3.318
 3066SOL    HW2 9215   4.012   1.236   3.339
 3067SOL     OW 9216   4.763   1.098   2.558
 3067SOL    HW1 9217   4.693   1.051   2.612
 3067SOL    HW2 9218   4.822   1.030   2.515
 3068SOL     OW 9219   4.738   0.236   2.833
 3068SOL    HW1 9220   4.730   0.200   2.740
 3068SOL    HW2 9221   4.736   0.160   2.898
 3069SOL     OW 9222   4.314   1.487   2.353
 3069SOL    HW1 9223   4.356   1.429   2.283
 3069SOL    HW2 9224   4.270   1.566   2.309
 3070SOL     OW 9225   3.979   1.348   2.152
 3070SOL    HW1 9226   3.883   1.349   2.125
 3070SOL    HW2 9227   3.991   1.401   2.236
 3071SOL     OW 9228   3.829   1.013   3.588
 3071SOL    HW1 9229   3.752   0.980   3.642
 3071SOL    HW2 9230   3.914   0.983   3.630
 3072SOL     OW 9231   4.396   0.203   3.351
 3072SOL    HW1 9232   4.486   0.187   3.311
 3072SOL    HW2 9233   4.404   0.208   3.450
 3073SOL     OW 9234   3.799   0.345   1.895
 3073SOL    HW1 9235   3.707   0.317   1.866
 3073SOL    HW2 9236   3.830   0.422   1.839
 3074SOL     OW 9237   3.796   0.166   2.180
 3074SOL    HW1 9238   3.779   0.249   2.126
 3074SOL    HW2 9239   3.886   0.129   2.158
 3075SOL     OW 9240   4.337   0.842   3.293
 3075SOL    HW1 9241   4.393   0.923   3.276
 3075SOL    HW2 9242   4.396   0.762   3.296
 3076SOL     OW 9243   4.440   0.565   3.570
 3076SOL    HW1 9244   4.459   0.630   3.644
 3076SOL    HW2 9245   4.500   0.485   3.579
 3077SOL     OW 9246   4.114   1.741   3.422
 3077SOL    HW1 9247   4.023   1.782   3.420
 3077SOL    HW2 9248   4.107   1.647   3.454
 3078SOL     OW 9249   4.949   0.325   2.311
 3078SOL    HW1 9250   5.014   0.251   2.300
 3078SOL    HW2 9251   4.969   0.375   2.395
 3079SOL     OW 9252   4.318   0.745   2.514
 3079SOL    HW1 9253   4.368   0.830   2.495
 3079SOL    HW2 9254   4.230   0.747   2.466
 3080SOL     OW 9255   4.583   1.374   1.878
 3080SOL    HW1 9256   4.537   1.389   1.966
 3080SOL    HW2 9257   4.627   1.459   1.848
 3081SOL     OW 9258   4.385   1.790   2.815
 3081SOL    HW1 9259   4.339   1.878   2.802
 3081SOL    HW2 9260   4.484   1.802   2.808
 3082SOL     OW 9261   4.583   0.956   2.723
 3082SOL    HW1 9262   4.637   0.887   2.771
 3082SOL    HW2 9263   4.551   1.025   2.789
 3083SOL     OW 9264   3.945   1.314   3.706
 3083SOL    HW1 9265   3.880   1.241   3.685
 3083SOL    HW2 9266   3.949   1.328   3.804
 3084SOL     OW 9267   3.803   1.240   2.515
 3084SOL    HW1 9268   3.802   1.193   2.603
 3084SOL    HW2 9269   3.885   1.212   2.464
 3085SOL     OW 9270   4.396   1.391   3.486
 3085SOL    HW1 9271   4.318   1.341   3.524
 3085SOL    HW2 9272   4.393   1.486   3.517
 3086SOL     OW 9273   4.152   0.424   2.382
 3086SOL    HW1 9274   4.182   0.352   2.320
 3086SOL    HW2 9275   4.113   0.384   2.465
 3087SOL     OW 9276   4.041   0.547   3.142
 3087SOL    HW1 9277   4.079   0.488   3.214
 3087SOL    HW2 9278   4.081   0.521   3.054
 3088SOL     OW 9279   4.536   1.586   2.549
 3088SOL    HW1 9280   4.568   1.596   2.455
 3088SOL    HW2 9281   4.457   1.524   2.551
 3089SOL     OW 9282   4.725   0.034   3.016
 3089SOL    HW1 9283   4.662  -0.038   2.985
 3089SOL    HW2 9284   4.818  -0.002   3.016
 3090SOL     OW 9285   4.494   1.330   2.163
 3090SOL    HW1 9286   4.448   1.243   2.180
 3090SOL    HW2 9287   4.585   1.327   2.204
 3091SOL     OW 9288   4.342   1.567   3.146
 3091SOL    HW1 9289   4.337   1.649   3.203
 3091SOL    HW2 9290   4.431   1.564   3.101
 3092SOL     OW 9291   3.763   1.077   2.162
 3092SOL    HW1 9292   3.862   1.066   2.153
 3092SOL    HW2 9293   3.723   0.991   2.194
 3093SOL     OW 9294   4.599   1.646   2.199
 3093SOL    HW1 9295   4.522   1.611   2.145
 3093SOL    HW2 9296   4.567   1.717   2.261
 3094SOL     OW 9297   3.954   0.628   3.837
 3094SOL    HW1 9298   3.861   0.626   3.874
 3094SOL    HW2 9299   3.955   0.589   3.745
 3095SOL     OW 9300   3.949   0.275   4.720
 3095SOL    HW1 9301   3.984   0.258   4.812
 3095SOL    HW2 9302   3.861   0.230   4.708
 3096SOL     OW 9303   3.743   0.368   4.371
 3096SOL    HW1 9304   3.661   0.411   4.410
 3096SOL    HW2 9305   3.715   0.295   4.308
 3097SOL     OW 9306   4.492   1.144   4.747
 3097SOL    HW1 9307   4.414   1.161   4.807
 3097SOL    HW2 9308   4.526   1.231   4.711
 3098SOL     OW 9309   4.409   1.012   4.389
 3098SOL    HW1 9310   4.478   0.996   4.459
 3098SOL    HW2 9311   4.336   1.069   4.427
 3099SOL     OW 9312   4.059   1.435   4.785
 3099SOL    HW1 9313   3.981   1.404   4.732
 3099SOL    HW2 9314   4.117   1.493   4.728
 3100SOL     OW 9315   3.955   1.713   4.207
 3100SOL    HW1 9316   3.989   1.790   4.261
 3100SOL    HW2 9317   3.999   1.713   4.117
 3101SOL     OW 9318   3.954   1.434   4.262
 3101SOL    HW1 9319   3.928   1.530   4.262
 3101SOL    HW2 9320   3.883   1.380   4.307
 3102SOL     OW 9321   3.964   1.091   4.610
 3102SOL    HW1 9322   3.978   1.007   4.662
 3102SOL    HW2 9323   3.909   1.155   4.665
 3103SOL     OW 9324   4.330   0.964   3.847
 3103SOL    HW1 9325   4.337   1.048   3.793
 3103SOL    HW2 9326   4.376   0.977   3.935
 3104SOL     OW 9327   3.846   0.643   4.287
 3104SOL    HW1 9328   3.801   0.555   4.304
 3104SOL    HW2 9329   3.845   0.697   4.371
 3105SOL     OW 9330   3.751   1.596   3.841
 3105SOL    HW1 9331   3.732   1.500   3.862
 3105SOL    HW2 9332   3.718   1.654   3.916
 3106SOL     OW 9333   4.337   1.365   4.450
 3106SOL    HW1 9334   4.288   1.278   4.459
 3106SOL    HW2 9335   4.314   1.408   4.363
 3107SOL     OW 9336   4.533   0.004   4.226
 3107SOL    HW1 9337   4.573   0.095   4.217
 3107SOL    HW2 9338   4.433   0.012   4.232
 3108SOL     OW 9339   4.322   0.729   3.994
 3108SOL    HW1 9340   4.346   0.798   3.926
 3108SOL    HW2 9341   4.244   0.762   4.048
 3109SOL     OW 9342   4.765   0.701   4.153
 3109SOL    HW1 9343   4.791   0.697   4.249
 3109SOL    HW2 9344   4.680   0.650   4.139
 3110SOL     OW 9345   3.800   0.811   4.513
 3110SOL    HW1 9346   3.899   0.799   4.522
 3110SOL    HW2 9347   3.776   0.906   4.534
 3111SOL     OW 9348   4.589   0.348   3.919
 3111SOL    HW1 9349   4.648   0.411   3.870
 3111SOL    HW2 9350   4.608   0.254   3.890
 3112SOL     OW 9351   4.274   0.196   4.609
 3112SOL    HW1 9352   4.269   0.191   4.709
 3112SOL    HW2 9353   4.276   0.292   4.580
 3113SOL     OW 9354   4.732   1.456   4.201
 3113SOL    HW1 9355   4.686   1.528   4.149
 3113SOL    HW2 9356   4.728   1.476   4.299
 3114SOL     OW 9357   4.075   1.801   4.577
 3114SOL    HW1 9358   4.125   1.715   4.583
 3114SOL    HW2 9359   4.140   1.878   4.574
 3115SOL     OW 9360   4.045   0.943   3.966
 3115SOL    HW1 9361   4.127   0.982   3.924
 3115SOL    HW2 9362   4.018   0.861   3.917
 3116SOL     OW 9363   4.188   1.743   4.047
 3116SOL    HW1 9364   4.221   1.782   4.133
 3116SOL    HW2 9365   4.264   1.736   3.982
 3117SOL     OW 9366   3.973   1.785   4.965
 3117SOL    HW1 9367   4.030   1.720   5.015
 3117SOL    HW2 9368   3.957   1.752   4.872
 3118SOL     OW 9369   4.664   1.698   4.628
 3118SOL    HW1 9370   4.744   1.641   4.649
 3118SOL    HW2 9371   4.615   1.658   4.551
 3119SOL     OW 9372   4.106   0.700   4.204
 3119SOL    HW1 9373   4.151   0.610   4.201
 3119SOL    HW2 9374   4.012   0.689   4.237
 3120SOL     OW 9375   4.338   0.122   3.841
 3120SOL    HW1 9376   4.436   0.100   3.848
 3120SOL    HW2 9377   4.307   0.105   3.748
 3121SOL     OW 9378   4.527   1.402   4.648
 3121SOL    HW1 9379   4.617   1.416   4.606
 3121SOL    HW2 9380   4.456   1.404   4.577
 3122SOL     OW 9381   4.646   0.503   4.623
 3122SOL    HW1 9382   4.621   0.494   4.527
 3122SOL    HW2 9383   4.694   0.421   4.654
 3123SOL     OW 9384   4.263   0.064   4.236
 3123SOL    HW1 9385   4.182   0.065   4.294
 3123SOL    HW2 9386   4.266   0.147   4.181
 3124SOL     OW 9387   4.021   0.035   3.895
 3124SOL    HW1 9388   4.070   0.119   3.874
 3124SOL    HW2 9389   4.083  -0.030   3.940
 3125SOL     OW 9390   4.659   0.236   4.204
 3125SOL    HW1 9391   4.611   0.277   4.126
 3125SOL    HW2 9392   4.758   0.234   4.185
 3126SOL     OW 9393   4.951   1.570   4.517
 3126SOL    HW1 9394   4.972   1.644   4.452
 3126SOL    HW2 9395   5.019   1.570   4.590
 3127SOL     OW 9396   4.183   1.152   4.465
 3127SOL    HW1 9397   4.112   1.125   4.530
 3127SOL    HW2 9398   4.157   1.124   4.372
 3128SOL     OW 9399   4.756   0.549   3.740
 3128SOL    HW1 9400   4.715   0.631   3.701
 3128SOL    HW2 9401   4.820   0.575   3.813
 3129SOL     OW 9402   4.590   0.454   4.366
 3129SOL    HW1 9403   4.558   0.526   4.304
 3129SOL    HW2 9404   4.614   0.373   4.313
 3130SOL     OW 9405   4.741   0.039   4.477
 3130SOL    HW1 9406   4.669   0.044   4.408
 3130SOL    HW2 9407   4.717  -0.030   4.546
 3131SOL     OW 9408   4.212   1.385   3.898
 3131SOL    HW1 9409   4.125   1.370   3.945
 3131SOL    HW2 9410   4.195   1.411   3.803
 3132SOL     OW 9411   4.251   0.256   4.052
 3132SOL    HW1 9412   4.278   0.197   3.977
 3132SOL    HW2 9413   4.251   0.351   4.021
 3133SOL     OW 9414   4.429   1.050   4.092
 3133SOL    HW1 9415   4.415   1.057   4.191
 3133SOL    HW2 9416   4.513   0.999   4.074
 3134SOL     OW 9417   4.091   1.100   4.225
 3134SOL    HW1 9418   4.084   1.183   4.169
 3134SOL    HW2 9419   4.095   1.020   4.165
 3135SOL     OW 9420   4.290   0.537   4.589
 3135SOL    HW1 9421   4.302   0.603   4.515
 3135SOL    HW2 9422   4.336   0.571   4.672
 3136SOL     OW 9423   4.297   0.870   4.753
 3136SOL    HW1 9424   4.341   0.959   4.744
 3136SOL    HW2 9425   4.234   0.870   4.830
 3137SOL     OW 9426   4.933   0.525   3.999
 3137SOL    HW1 9427   4.946   0.441   4.053
 3137SOL    HW2 9428   4.904   0.599   4.059
 3138SOL     OW 9429   4.456   0.634   4.788
 3138SOL    HW1 9430   4.515   0.608   4.712
 3138SOL    HW2 9431   4.428   0.730   4.777
 3139SOL     OW 9432   4.031   0.063   4.342
 3139SOL    HW1 9433   4.020   0.157   4.375
 3139SOL    HW2 9434   4.026   0.000   4.419
 3140SOL     OW 9435   4.043   0.810   4.673
 3140SOL    HW1 9436   4.136   0.846   4.678
 3140SOL    HW2 9437   4.037   0.725   4.725
 3141SOL     OW 9438   4.063   0.509   4.730
 3141SOL    HW1 9439   4.011   0.426   4.713
 3141SOL    HW2 9440   4.140   0.514   4.666
 3142SOL     OW 9441   3.732   1.326   3.924
 3142SOL    HW1 9442   3.639   1.347   3.893
 3142SOL    HW2 9443   3.742   1.227   3.937
 3143SOL     OW 9444   3.812   1.801   4.651
 3143SOL    HW1 9445   3.770   1.715   4.624
 3143SOL    HW2 9446   3.906   1.804   4.617
 3144SOL     OW 9447   4.228   1.568   4.634
 3144SOL    HW1 9448   4.294   1.642   4.643
 3144SOL    HW2 9449   4.272   1.489   4.592
 3145SOL     OW 9450   4.726   0.796   4.962
 3145SOL    HW1 9451   4.767   0.764   5.048
 3145SOL    HW2 9452   4.630   0.769   4.959
 3146SOL     OW 9453   4.539   0.572   4.049
 3146SOL    HW1 9454   4.546   0.483   4.003
 3146SOL    HW2 9455   4.445   0.606   4.041
 3147SOL     OW 9456   4.395   0.464   4.993
 3147SOL    HW1 9457   4.361   0.375   4.963
 3147SOL    HW2 9458   4.421   0.518   4.913
 3148SOL     OW 9459   4.197   0.500   3.915
 3148SOL    HW1 9460   4.258   0.580   3.919
 3148SOL    HW2 9461   4.102   0.531   3.922
 3149SOL     OW 9462   3.807   1.258   4.746
 3149SOL    HW1 9463   3.802   1.257   4.846
 3149SOL    HW2 9464   3.724   1.217   4.708
 3150SOL     OW 9465   5.004   0.927   4.396
 3150SOL    HW1 9466   5.064   0.846   4.398
 3150SOL    HW2 9467   5.044   0.996   4.336
 3151SOL     OW 9468   4.396   1.616   3.878
 3151SOL    HW1 9469   4.405   1.626   3.779
 3151SOL    HW2 9470   4.356   1.527   3.899
 3152SOL     OW 9471   3.987   0.326   4.444
 3152SOL    HW1 9472   3.908   0.377   4.410
 3152SOL    HW2 9473   3.978   0.311   4.542
 3153SOL     OW 9474   4.640   0.910   4.015
 3153SOL    HW1 9475   4.703   0.948   3.947
 3153SOL    HW2 9476   4.680   0.827   4.054
 3154SOL     OW 9477   4.763   1.098   4.420
 3154SOL    HW1 9478   4.693   1.051   4.474
 3154SOL    HW2 9479   4.822   1.030   4.377
 3155SOL     OW 9480   4.738   0.236   4.695
 3155SOL    HW1 9481   4.730   0.200   4.602
 3155SOL    HW2 9482   4.736   0.160   4.760
 3156SOL     OW 9483   4.314   1.487   4.215
 3156SOL    HW1 9484   4.356   1.429   4.145
 3156SOL    HW2 9485   4.270   1.566   4.171
 3157SOL     OW 9486   3.979   1.348   4.014
 3157SOL    HW1 9487   3.883   1.349   3.987
 3157SOL    HW2 9488   3.991   1.401   4.098
 3158SOL     OW 9489   3.799   0.345   3.757
 3158SOL    HW1 9490   3.707   0.317   3.728
 3158SOL    HW2 9491   3.830   0.422   3.701
 3159SOL     OW 9492   3.796   0.166   4.042
 3159SOL    HW1 9493   3.779   0.249   3.988
 3159SOL    HW2 9494   3.886   0.129   4.020
 3160SOL     OW 9495   4.949   0.325   4.173
 3160SOL    HW1 9496   5.014   0.251   4.162
 3160SOL    HW2 9497   4.969   0.375   4.257
 3161SOL     OW 9498   4.318   0.745   4.376
 3161SOL    HW1 9499   4.368   0.830   4.357
 3161SOL    HW2 9500   4.230   0.747   4.328
 3162SOL     OW 9501   4.583   1.374   3.740
 3162SOL    HW1 9502   4.537   1.389   3.828
 3162SOL    HW2 9503   4.627   1.459   3.710
 3163SOL     OW 9504   4.385   1.790   4.677
 3163SOL    HW1 9505   4.339   1.878   4.664
 3163SOL    HW2 9506   4.484   1.802   4.670
 3164SOL     OW 9507   4.583   0.956   4.585
 3164SOL    HW1 9508   4.637   0.887   4.633
 3164SOL    HW2 9509   4.551   1.025   4.651
 3165SOL     OW 9510   3.803   1.240   4.377
 3165SOL    HW1 9511   3.802   1.193   4.465
 3165SOL    HW2 9512   3.885   1.212   4.326
 3166SOL     OW 9513   4.152   0.424   4.244
 3166SOL    HW1 9514   4.182   0.352   4.182
 3166SOL    HW2 9515   4.113   0.384   4.327
 3167SOL     OW 9516   4.536   1.586   4.411
 3167SOL    HW1 9517   4.568   1.596   4.317
 3167SOL    HW2 9518   4.457   1.524   4.413
 3168SOL     OW 9519   4.494   1.330   4.025
 3168SOL    HW1 9520   4.448   1.243   4.042
 3168SOL    HW2 9521   4.585   1.327   4.066
 3169SOL     OW 9522   3.763   1.077   4.024
 3169SOL    HW1 9523   3.862   1.066   4.015
 3169SOL    HW2 9524   3.723   0.991   4.056
 3170SOL     OW 9525   4.599   1.646   4.061
 3170SOL    HW1 9526   4.522   1.611   4.007
 3170SOL    HW2 9527   4.567   1.717   4.123
 3171SOL     OW 9528   3.954   2.490   0.113
 3171SOL    HW1 9529   3.861   2.488   0.150
 3171SOL    HW2 9530   3.955   2.451   0.021
 3172SOL     OW 9531   3.949   2.137   0.996
 3172SOL    HW1 9532   3.984   2.120   1.088
 3172SOL    HW2 9533   3.861   2.092   0.984
 3173SOL     OW 9534   3.743   2.230   0.647
 3173SOL    HW1 9535   3.661   2.273   0.686
 3173SOL    HW2 9536   3.715   2.157   0.584
 3174SOL     OW 9537   4.293   3.137   1.165
 3174SOL    HW1 9538   4.200   3.130   1.128
 3174SOL    HW2 9539   4.304   3.226   1.209
 3175SOL     OW 9540   4.492   3.006   1.023
 3175SOL    HW1 9541   4.414   3.023   1.083
 3175SOL    HW2 9542   4.526   3.093   0.987
 3176SOL     OW 9543   4.574   2.660   1.823
 3176SOL    HW1 9544   4.570   2.736   1.888
 3176SOL    HW2 9545   4.596   2.696   1.732
 3177SOL     OW 9546   4.409   2.874   0.665
 3177SOL    HW1 9547   4.478   2.858   0.735
 3177SOL    HW2 9548   4.336   2.931   0.703
 3178SOL     OW 9549   4.410   3.023   1.803
 3178SOL    HW1 9550   4.470   3.102   1.817
 3178SOL    HW2 9551   4.324   3.054   1.762
 3179SOL     OW 9552   4.059   3.297   1.061
 3179SOL    HW1 9553   3.981   3.266   1.008
 3179SOL    HW2 9554   4.117   3.355   1.004
 3180SOL     OW 9555   4.162   2.254   1.499
 3180SOL    HW1 9556   4.244   2.198   1.508
 3180SOL    HW2 9557   4.081   2.196   1.503
 3181SOL     OW 9558   3.955   3.575   0.483
 3181SOL    HW1 9559   3.989   3.652   0.537
 3181SOL    HW2 9560   3.999   3.575   0.393
 3182SOL     OW 9561   3.954   3.296   0.538
 3182SOL    HW1 9562   3.928   3.392   0.538
 3182SOL    HW2 9563   3.883   3.242   0.583
 3183SOL     OW 9564   3.964   2.953   0.886
 3183SOL    HW1 9565   3.978   2.869   0.938
 3183SOL    HW2 9566   3.909   3.017   0.941
 3184SOL     OW 9567   4.344   3.648   1.439
 3184SOL    HW1 9568   4.252   3.631   1.474
 3184SOL    HW2 9569   4.372   3.740   1.465
 3185SOL     OW 9570   4.330   2.826   0.123
 3185SOL    HW1 9571   4.337   2.910   0.069
 3185SOL    HW2 9572   4.376   2.839   0.211
 3186SOL     OW 9573   3.846   2.505   0.563
 3186SOL    HW1 9574   3.801   2.417   0.580
 3186SOL    HW2 9575   3.845   2.559   0.647
 3187SOL     OW 9576   3.751   3.458   0.117
 3187SOL    HW1 9577   3.732   3.362   0.138
 3187SOL    HW2 9578   3.718   3.516   0.192
 3188SOL     OW 9579   3.837   2.599   1.597
 3188SOL    HW1 9580   3.925   2.586   1.642
 3188SOL    HW2 9581   3.824   2.696   1.575
 3189SOL     OW 9582   4.337   3.227   0.726
 3189SOL    HW1 9583   4.288   3.140   0.735
 3189SOL    HW2 9584   4.314   3.270   0.639
 3190SOL     OW 9585   4.533   1.866   0.502
 3190SOL    HW1 9586   4.573   1.957   0.493
 3190SOL    HW2 9587   4.433   1.874   0.508
 3191SOL     OW 9588   3.921   2.838   1.264
 3191SOL    HW1 9589   4.010   2.793   1.250
 3191SOL    HW2 9590   3.848   2.773   1.245
 3192SOL     OW 9591   4.041   2.113   1.801
 3192SOL    HW1 9592   4.112   2.184   1.807
 3192SOL    HW2 9593   3.953   2.152   1.829
 3193SOL     OW 9594   4.322   2.591   0.270
 3193SOL    HW1 9595   4.346   2.660   0.202
 3193SOL    HW2 9596   4.244   2.624   0.324
 3194SOL     OW 9597   4.531   2.467   1.465
 3194SOL    HW1 9598   4.484   2.464   1.554
 3194SOL    HW2 9599   4.480   2.412   1.399
 3195SOL     OW 9600   4.697   2.752   1.572
 3195SOL    HW1 9601   4.743   2.668   1.543
 3195SOL    HW2 9602   4.641   2.786   1.497
 3196SOL     OW 9603   4.715   2.272   1.242
 3196SOL    HW1 9604   4.638   2.306   1.296
 3196SOL    HW2 9605   4.681   2.221   1.163
 3197SOL     OW 9606   4.765   2.563   0.429
 3197SOL    HW1 9607   4.791   2.559   0.525
 3197SOL    HW2 9608   4.680   2.512   0.415
 3198SOL     OW 9609   3.800   2.673   0.789
 3198SOL    HW1 9610   3.899   2.661   0.798
 3198SOL    HW2 9611   3.776   2.768   0.810
 3199SOL     OW 9612   3.854   3.683   1.571
 3199SOL    HW1 9613   3.844   3.668   1.670
 3199SOL    HW2 9614   3.768   3.719   1.535
 3200SOL     OW 9615   4.589   2.210   0.195
 3200SOL    HW1 9616   4.648   2.273   0.146
 3200SOL    HW2 9617   4.608   2.116   0.166
 3201SOL     OW 9618   4.274   2.058   0.885
 3201SOL    HW1 9619   4.269   2.053   0.985
 3201SOL    HW2 9620   4.276   2.154   0.856
 3202SOL     OW 9621   4.732   3.318   0.477
 3202SOL    HW1 9622   4.686   3.390   0.425
 3202SOL    HW2 9623   4.728   3.338   0.575
 3203SOL     OW 9624   4.075   3.663   0.853
 3203SOL    HW1 9625   4.125   3.577   0.859
 3203SOL    HW2 9626   4.140   3.740   0.850
 3204SOL     OW 9627   4.045   2.805   0.242
 3204SOL    HW1 9628   4.127   2.844   0.200
 3204SOL    HW2 9629   4.018   2.723   0.193
 3205SOL     OW 9630   4.185   3.128   1.727
 3205SOL    HW1 9631   4.135   3.129   1.641
 3205SOL    HW2 9632   4.122   3.110   1.803
 3206SOL     OW 9633   3.926   2.147   1.498
 3206SOL    HW1 9634   3.846   2.207   1.485
 3206SOL    HW2 9635   3.916   2.098   1.584
 3207SOL     OW 9636   4.188   3.605   0.323
 3207SOL    HW1 9637   4.221   3.644   0.409
 3207SOL    HW2 9638   4.264   3.598   0.258
 3208SOL     OW 9639   3.973   3.647   1.241
 3208SOL    HW1 9640   4.030   3.582   1.291
 3208SOL    HW2 9641   3.957   3.614   1.148
 3209SOL     OW 9642   4.664   3.560   0.904
 3209SOL    HW1 9643   4.744   3.503   0.925
 3209SOL    HW2 9644   4.615   3.520   0.827
 3210SOL     OW 9645   4.106   2.562   0.480
 3210SOL    HW1 9646   4.151   2.472   0.477
 3210SOL    HW2 9647   4.012   2.551   0.513
 3211SOL     OW 9648   4.338   1.984   0.117
 3211SOL    HW1 9649   4.436   1.962   0.124
 3211SOL    HW2 9650   4.307   1.967   0.024
 3212SOL     OW 9651   4.505   2.126   1.749
 3212SOL    HW1 9652   4.572   2.065   1.792
 3212SOL    HW2 9653   4.432   2.145   1.814
 3213SOL     OW 9654   4.612   3.376   1.195
 3213SOL    HW1 9655   4.589   3.351   1.101
 3213SOL    HW2 9656   4.673   3.307   1.234
 3214SOL     OW 9657   4.527   3.264   0.924
 3214SOL    HW1 9658   4.617   3.278   0.882
 3214SOL    HW2 9659   4.456   3.266   0.853
 3215SOL     OW 9660   4.646   2.365   0.899
 3215SOL    HW1 9661   4.621   2.356   0.803
 3215SOL    HW2 9662   4.694   2.283   0.930
 3216SOL     OW 9663   4.263   1.926   0.512
 3216SOL    HW1 9664   4.182   1.927   0.570
 3216SOL    HW2 9665   4.266   2.009   0.457
 3217SOL     OW 9666   5.158   3.050   0.041
 3217SOL    HW1 9667   5.190   2.974   0.098
 3217SOL    HW2 9668   5.066   3.077   0.071
 3218SOL     OW 9669   4.659   2.098   0.480
 3218SOL    HW1 9670   4.611   2.139   0.402
 3218SOL    HW2 9671   4.758   2.096   0.461
 3219SOL     OW 9672   4.951   3.432   0.793
 3219SOL    HW1 9673   4.972   3.506   0.728
 3219SOL    HW2 9674   5.019   3.432   0.866
 3220SOL     OW 9675   4.183   3.014   0.741
 3220SOL    HW1 9676   4.112   2.987   0.806
 3220SOL    HW2 9677   4.157   2.986   0.648
 3221SOL     OW 9678   4.756   2.411   0.016
 3221SOL    HW1 9679   4.715   2.493  -0.023
 3221SOL    HW2 9680   4.820   2.437   0.089
 3222SOL     OW 9681   3.802   2.418   1.386
 3222SOL    HW1 9682   3.894   2.417   1.345
 3222SOL    HW2 9683   3.796   2.492   1.453
 3223SOL     OW 9684   4.285   2.084   1.147
 3223SOL    HW1 9685   4.323   2.000   1.184
 3223SOL    HW2 9686   4.197   2.103   1.191
 3224SOL     OW 9687   4.590   2.316   0.642
 3224SOL    HW1 9688   4.558   2.388   0.580
 3224SOL    HW2 9689   4.614   2.235   0.589
 3225SOL     OW 9690   4.741   1.901   0.753
 3225SOL    HW1 9691   4.669   1.906   0.684
 3225SOL    HW2 9692   4.717   1.832   0.822
 3226SOL     OW 9693   4.212   3.247   0.174
 3226SOL    HW1 9694   4.125   3.232   0.221
 3226SOL    HW2 9695   4.195   3.273   0.079
 3227SOL     OW 9696   4.251   2.118   0.328
 3227SOL    HW1 9697   4.278   2.059   0.253
 3227SOL    HW2 9698   4.251   2.213   0.297
 3228SOL     OW 9699   4.639   1.951   1.402
 3228SOL    HW1 9700   4.664   1.931   1.307
 3228SOL    HW2 9701   4.711   2.007   1.444
 3229SOL     OW 9702   4.704   2.978   1.719
 3229SOL    HW1 9703   4.605   2.984   1.729
 3229SOL    HW2 9704   4.727   2.898   1.663
 3230SOL     OW 9705   4.429   2.912   0.368
 3230SOL    HW1 9706   4.415   2.919   0.467
 3230SOL    HW2 9707   4.513   2.861   0.350
 3231SOL     OW 9708   4.134   2.675   1.251
 3231SOL    HW1 9709   4.220   2.687   1.301
 3231SOL    HW2 9710   4.092   2.588   1.278
 3232SOL     OW 9711   3.788   3.426   1.331
 3232SOL    HW1 9712   3.742   3.508   1.297
 3232SOL    HW2 9713   3.886   3.445   1.340
 3233SOL     OW 9714   4.091   2.962   0.501
 3233SOL    HW1 9715   4.084   3.045   0.445
 3233SOL    HW2 9716   4.095   2.882   0.441
 3234SOL     OW 9717   4.290   2.399   0.865
 3234SOL    HW1 9718   4.302   2.465   0.791
 3234SOL    HW2 9719   4.336   2.433   0.948
 3235SOL     OW 9720   4.078   3.372   1.329
 3235SOL    HW1 9721   4.057   3.328   1.242
 3235SOL    HW2 9722   4.175   3.398   1.332
 3236SOL     OW 9723   4.126   2.613   1.598
 3236SOL    HW1 9724   4.194   2.668   1.551
 3236SOL    HW2 9725   4.166   2.525   1.625
 3237SOL     OW 9726   4.737   1.967   1.770
 3237SOL    HW1 9727   4.743   2.052   1.718
 3237SOL    HW2 9728   4.769   1.891   1.713
 3238SOL     OW 9729   4.228   1.912   1.740
 3238SOL    HW1 9730   4.186   1.855   1.670
 3238SOL    HW2 9731   4.162   1.981   1.772
 3239SOL     OW 9732   4.297   2.732   1.029
 3239SOL    HW1 9733   4.341   2.821   1.020
 3239SOL    HW2 9734   4.234   2.732   1.106
 3240SOL     OW 9735   4.933   2.387   0.275
 3240SOL    HW1 9736   4.946   2.303   0.329
 3240SOL    HW2 9737   4.904   2.461   0.335
 3241SOL     OW 9738   4.031   2.075   1.231
 3241SOL    HW1 9739   4.008   2.112   1.321
 3241SOL    HW2 9740   4.001   1.980   1.225
 3242SOL     OW 9741   3.761   3.172   1.282
 3242SOL    HW1 9742   3.814   3.123   1.350
 3242SOL    HW2 9743   3.783   3.270   1.287
 3243SOL     OW 9744   4.456   2.496   1.064
 3243SOL    HW1 9745   4.515   2.470   0.988
 3243SOL    HW2 9746   4.428   2.592   1.053
 3244SOL     OW 9747   4.031   1.925   0.618
 3244SOL    HW1 9748   4.020   2.019   0.651
 3244SOL    HW2 9749   4.026   1.862   0.695
 3245SOL     OW 9750   4.747   2.628   0.966
 3245SOL    HW1 9751   4.762   2.649   1.062
 3245SOL    HW2 9752   4.717   2.533   0.957
 3246SOL     OW 9753   4.704   3.435   1.700
 3246SOL    HW1 9754   4.684   3.479   1.612
 3246SOL    HW2 9755   4.743   3.344   1.684
 3247SOL     OW 9756   4.074   2.760   1.804
 3247SOL    HW1 9757   4.150   2.804   1.852
 3247SOL    HW2 9758   4.109   2.713   1.722
 3248SOL     OW 9759   4.043   2.672   0.949
 3248SOL    HW1 9760   4.136   2.708   0.954
 3248SOL    HW2 9761   4.037   2.587   1.001
 3249SOL     OW 9762   4.063   2.371   1.006
 3249SOL    HW1 9763   4.011   2.288   0.989
 3249SOL    HW2 9764   4.140   2.376   0.942
 3250SOL     OW 9765   3.732   3.188   0.200
 3250SOL    HW1 9766   3.639   3.209   0.169
 3250SOL    HW2 9767   3.742   3.089   0.213
 3251SOL     OW 9768   3.812   3.663   0.927
 3251SOL    HW1 9769   3.770   3.577   0.900
 3251SOL    HW2 9770   3.906   3.666   0.893
 3252SOL     OW 9771   4.228   3.430   0.910
 3252SOL    HW1 9772   4.294   3.504   0.919
 3252SOL    HW2 9773   4.272   3.351   0.868
 3253SOL     OW 9774   4.726   2.658   1.238
 3253SOL    HW1 9775   4.767   2.626   1.324
 3253SOL    HW2 9776   4.630   2.631   1.235
 3254SOL     OW 9777   3.764   2.406   1.114
 3254SOL    HW1 9778   3.849   2.373   1.073
 3254SOL    HW2 9779   3.777   2.421   1.212
 3255SOL     OW 9780   3.913   2.382   1.722
 3255SOL    HW1 9781   3.972   2.342   1.652
 3255SOL    HW2 9782   3.855   2.453   1.681
 3256SOL     OW 9783   4.539   2.434   0.325
 3256SOL    HW1 9784   4.546   2.345   0.279
 3256SOL    HW2 9785   4.445   2.468   0.317
 3257SOL     OW 9786   3.976   3.426   1.744
 3257SOL    HW1 9787   3.946   3.483   1.820
 3257SOL    HW2 9788   3.969   3.329   1.770
 3258SOL     OW 9789   4.395   2.326   1.269
 3258SOL    HW1 9790   4.361   2.237   1.239
 3258SOL    HW2 9791   4.421   2.380   1.189
 3259SOL     OW 9792   4.654   3.540   1.465
 3259SOL    HW1 9793   4.630   3.522   1.370
 3259SOL    HW2 9794   4.684   3.634   1.475
 3260SOL     OW 9795   4.197   2.362   0.191
 3260SOL    HW1 9796   4.258   2.442   0.195
 3260SOL    HW2 9797   4.102   2.393   0.198
 3261SOL     OW 9798   3.883   2.999   1.466
 3261SOL    HW1 9799   3.905   2.938   1.542
 3261SOL    HW2 9800   3.893   2.950   1.380
 3262SOL     OW 9801   3.807   3.120   1.022
 3262SOL    HW1 9802   3.802   3.119   1.122
 3262SOL    HW2 9803   3.724   3.079   0.984
 3263SOL     OW 9804   4.412   3.524   1.716
 3263SOL    HW1 9805   4.356   3.605   1.725
 3263SOL    HW2 9806   4.464   3.528   1.630
 3264SOL     OW 9807   4.627   1.948   0.133
 3264SOL    HW1 9808   4.678   1.949   0.047
 3264SOL    HW2 9809   4.683   1.906   0.204
 3265SOL     OW 9810   3.854   3.656   1.851
 3265SOL    HW1 9811   3.813   3.582   1.904
 3265SOL    HW2 9812   3.918   3.707   1.909
 3266SOL     OW 9813   5.004   2.789   0.672
 3266SOL    HW1 9814   5.064   2.708   0.674
 3266SOL    HW2 9815   5.044   2.858   0.612
 3267SOL     OW 9816   4.554   3.135   1.422
 3267SOL    HW1 9817   4.549   3.168   1.517
 3267SOL    HW2 9818   4.468   3.154   1.376
 3268SOL     OW 9819   4.396   3.478   0.154
 3268SOL    HW1 9820   4.405   3.488   0.055
 3268SOL    HW2 9821   4.356   3.389   0.175
 3269SOL     OW 9822   3.987   2.188   0.720
 3269SOL    HW1 9823   3.908   2.239   0.686
 3269SOL    HW2 9824   3.978   2.173   0.818
 3270SOL     OW 9825   4.546   2.864   1.372
 3270SOL    HW1 9826   4.586   2.863   1.280
 3270SOL    HW2 9827   4.556   2.956   1.412
 3271SOL     OW 9828   4.640   2.772   0.291
 3271SOL    HW1 9829   4.703   2.810   0.223
 3271SOL    HW2 9830   4.680   2.689   0.330
 3272SOL     OW 9831   4.096   3.150   1.490
 3272SOL    HW1 9832   4.083   3.243   1.456
 3272SOL    HW2 9833   4.012   3.098   1.477
 3273SOL     OW 9834   4.763   2.960   0.696
 3273SOL    HW1 9835   4.693   2.913   0.750
 3273SOL    HW2 9836   4.822   2.892   0.653
 3274SOL     OW 9837   4.738   2.098   0.971
 3274SOL    HW1 9838   4.730   2.062   0.878
 3274SOL    HW2 9839   4.736   2.022   1.036
 3275SOL     OW 9840   4.314   3.349   0.491
 3275SOL    HW1 9841   4.356   3.291   0.421
 3275SOL    HW2 9842   4.270   3.428   0.447
 3276SOL     OW 9843   3.979   3.210   0.290
 3276SOL    HW1 9844   3.883   3.211   0.263
 3276SOL    HW2 9845   3.991   3.263   0.374
 3277SOL     OW 9846   3.829   2.875   1.726
 3277SOL    HW1 9847   3.752   2.842   1.780
 3277SOL    HW2 9848   3.914   2.845   1.768
 3278SOL     OW 9849   4.396   2.065   1.489
 3278SOL    HW1 9850   4.486   2.049   1.449
 3278SOL    HW2 9851   4.404   2.070   1.588
 3279SOL     OW 9852   3.799   2.207   0.033
 3279SOL    HW1 9853   3.707   2.179   0.004
 3279SOL    HW2 9854   3.830   2.284  -0.023
 3280SOL     OW 9855   3.796   2.028   0.318
 3280SOL    HW1 9856   3.779   2.111   0.264
 3280SOL    HW2 9857   3.886   1.991   0.296
 3281SOL     OW 9858   4.337   2.704   1.431
 3281SOL    HW1 9859   4.393   2.785   1.414
 3281SOL    HW2 9860   4.396   2.624   1.434
 3282SOL     OW 9861   4.440   2.427   1.708
 3282SOL    HW1 9862   4.459   2.492   1.782
 3282SOL    HW2 9863   4.500   2.347   1.717
 3283SOL     OW 9864   4.114   3.603   1.560
 3283SOL    HW1 9865   4.023   3.644   1.558
 3283SOL    HW2 9866   4.107   3.509   1.592
 3284SOL     OW 9867   4.949   2.187   0.449
 3284SOL    HW1 9868   5.014   2.113   0.438
 3284SOL    HW2 9869   4.969   2.237   0.533
 3285SOL     OW 9870   4.318   2.607   0.652
 3285SOL    HW1 9871   4.368   2.692   0.633
 3285SOL    HW2 9872   4.230   2.609   0.604
 3286SOL     OW 9873   4.583   3.236   0.016
 3286SOL    HW1 9874   4.537   3.251   0.104
 3286SOL    HW2 9875   4.627   3.321  -0.014
 3287SOL     OW 9876   4.385   3.652   0.953
 3287SOL    HW1 9877   4.339   3.740   0.940
 3287SOL    HW2 9878   4.484   3.664   0.946
 3288SOL     OW 9879   4.583   2.818   0.861
 3288SOL    HW1 9880   4.637   2.749   0.909
 3288SOL    HW2 9881   4.551   2.887   0.927
 3289SOL     OW 9882   4.807   2.846   0.087
 3289SOL    HW1 9883   4.784   2.899   0.005
 3289SOL    HW2 9884   4.888   2.790   0.068
 3290SOL     OW 9885   3.945   3.176   1.844
 3290SOL    HW1 9886   3.880   3.103   1.823
 3290SOL    HW2 9887   3.949   3.190   1.942
 3291SOL     OW 9888   3.803   3.102   0.653
 3291SOL    HW1 9889   3.802   3.055   0.741
 3291SOL    HW2 9890   3.885   3.074   0.602
 3292SOL     OW 9891   4.396   3.253   1.624
 3292SOL    HW1 9892   4.318   3.203   1.662
 3292SOL    HW2 9893   4.393   3.348   1.655
 3293SOL     OW 9894   4.152   2.286   0.520
 3293SOL    HW1 9895   4.182   2.214   0.458
 3293SOL    HW2 9896   4.113   2.246   0.603
 3294SOL     OW 9897   4.041   2.409   1.280
 3294SOL    HW1 9898   4.079   2.350   1.352
 3294SOL    HW2 9899   4.081   2.383   1.192
 3295SOL     OW 9900   4.536   3.448   0.687
 3295SOL    HW1 9901   4.568   3.458   0.593
 3295SOL    HW2 9902   4.457   3.386   0.689
 3296SOL     OW 9903   4.725   1.896   1.154
 3296SOL    HW1 9904   4.662   1.824   1.123
 3296SOL    HW2 9905   4.818   1.860   1.154
 3297SOL     OW 9906   4.494   3.192   0.301
 3297SOL    HW1 9907   4.448   3.105   0.318
 3297SOL    HW2 9908   4.585   3.189   0.342
 3298SOL     OW 9909   4.342   3.429   1.284
 3298SOL    HW1 9910   4.337   3.511   1.341
 3298SOL    HW2 9911   4.431   3.426   1.239
 3299SOL     OW 9912   3.763   2.939   0.300
 3299SOL    HW1 9913   3.862   2.928   0.291
 3299SOL    HW2 9914   3.723   2.853   0.332
 3300SOL     OW 9915   4.599   3.508   0.337
 3300SOL    HW1 9916   4.522   3.473   0.283
 3300SOL    HW2 9917   4.567   3.579   0.399
 3301SOL     OW 9918   3.954   2.490   1.975
 3301SOL    HW1 9919   3.861   2.488   2.012
 3301SOL    HW2 9920   3.955   2.451   1.883
 3302SOL     OW 9921   3.949   2.137   2.858
 3302SOL    HW1 9922   3.984   2.120   2.950
 3302SOL    HW2 9923   3.861   2.092   2.846
 3303SOL     OW 9924   3.743   2.230   2.509
 3303SOL    HW1 9925   3.661   2.273   2.548
 3303SOL    HW2 9926   3.715   2.157   2.446
 3304SOL     OW 9927   4.293   3.137   3.027
 3304SOL    HW1 9928   4.200   3.130   2.990
 3304SOL    HW2 9929   4.304   3.226   3.071
 3305SOL     OW 9930   4.492   3.006   2.885
 3305SOL    HW1 9931   4.414   3.023   2.945
 3305SOL    HW2 9932   4.526   3.093   2.849
 3306SOL     OW 9933   4.574   2.660   3.685
 3306SOL    HW1 9934   4.570   2.736   3.750
 3306SOL    HW2 9935   4.596   2.696   3.594
 3307SOL     OW 9936   4.409   2.874   2.527
 3307SOL    HW1 9937   4.478   2.858   2.597
 3307SOL    HW2 9938   4.336   2.931   2.565
 3308SOL     OW 9939   4.410   3.023   3.665
 3308SOL    HW1 9940   4.470   3.102   3.679
 3308SOL    HW2 9941   4.324   3.054   3.624
 3309SOL     OW 9942   4.059   3.297   2.923
 3309SOL    HW1 9943   3.981   3.266   2.870
 3309SOL    HW2 9944   4.117   3.355   2.866
 3310SOL     OW 9945   4.162   2.254   3.361
 3310SOL    HW1 9946   4.244   2.198   3.370
 3310SOL    HW2 9947   4.081   2.196   3.365
 3311SOL     OW 9948   3.955   3.575   2.345
 3311SOL    HW1 9949   3.989   3.652   2.399
 3311SOL    HW2 9950   3.999   3.575   2.255
 3312SOL     OW 9951   3.954   3.296   2.400
 3312SOL    HW1 9952   3.928   3.392   2.400
 3312SOL    HW2 9953   3.883   3.242   2.445
 3313SOL     OW 9954   3.964   2.953   2.748
 3313SOL    HW1 9955   3.978   2.869   2.800
 3313SOL    HW2 9956   3.909   3.017   2.803
 3314SOL     OW 9957   4.344   3.648   3.301
 3314SOL    HW1 9958   4.252   3.631   3.336
 3314SOL    HW2 9959   4.372   3.740   3.327
 3315SOL     OW 9960   4.330   2.826   1.985
 3315SOL    HW1 9961   4.337   2.910   1.931
 3315SOL    HW2 9962   4.376   2.839   2.073
 3316SOL     OW 9963   3.846   2.505   2.425
 3316SOL    HW1 9964   3.801   2.417   2.442
 3316SOL    HW2 9965   3.845   2.559   2.509
 3317SOL     OW 9966   3.751   3.458   1.979
 3317SOL    HW1 9967   3.732   3.362   2.000
 3317SOL    HW2 9968   3.718   3.516   2.054
 3318SOL     OW 9969   3.837   2.599   3.459
 3318SOL    HW1 9970   3.925   2.586   3.504
 3318SOL    HW2 9971   3.824   2.696   3.437
 3319SOL     OW 9972   4.337   3.227   2.588
 3319SOL    HW1 9973   4.288   3.140   2.597
 3319SOL    HW2 9974   4.314   3.270   2.501
 3320SOL     OW 9975   4.533   1.866   2.364
 3320SOL    HW1 9976   4.573   1.957   2.355
 3320SOL    HW2 9977   4.433   1.874   2.370
 3321SOL     OW 9978   3.921   2.838   3.126
 3321SOL    HW1 9979   4.010   2.793   3.112
 3321SOL    HW2 9980   3.848   2.773   3.107
 3322SOL     OW 9981   4.041   2.113   3.663
 3322SOL    HW1 9982   4.112   2.184   3.669
 3322SOL    HW2 9983   3.953   2.152   3.691
 3323SOL     OW 9984   4.322   2.591   2.132
 3323SOL    HW1 9985   4.346   2.660   2.064
 3323SOL    HW2 9986   4.244   2.624   2.186
 3324SOL     OW 9987   4.531   2.467   3.327
 3324SOL    HW1 9988   4.484   2.464   3.416
 3324SOL    HW2 9989   4.480   2.412   3.261
 3325SOL     OW 9990   4.697   2.752   3.434
 3325SOL    HW1 9991   4.743   2.668   3.405
 3325SOL    HW2 9992   4.641   2.786   3.359
 3326SOL     OW 9993   4.715   2.272   3.104
 3326SOL    HW1 9994   4.638   2.306   3.158
 3326SOL    HW2 9995   4.681   2.221   3.025
 3327SOL     OW 9996   4.765   2.563   2.291
 3327SOL    HW1 9997   4.791   2.559   2.387
 3327SOL    HW2 9998   4.680   2.512   2.277
 3328SOL     OW 9999   3.800   2.673   2.651
 3328SOL    HW110000   3.899   2.661   2.660
 3328SOL    HW210001   3.776   2.768   2.672
 3329SOL     OW10002   3.854   3.683   3.433
 3329SOL    HW110003   3.844   3.668   3.532
 3329SOL    HW210004   3.768   3.719   3.397
 3330SOL     OW10005   4.589   2.210   2.057
 3330SOL    HW110006   4.648   2.273   2.008
 3330SOL    HW210007   4.608   2.116   2.028
 3331SOL     OW10008   4.274   2.058   2.747
 3331SOL    HW110009   4.269   2.053   2.847
 3331SOL    HW210010   4.276   2.154   2.718
 3332SOL     OW10011   4.732   3.318   2.339
 3332SOL    HW110012   4.686   3.390   2.287
 3332SOL    HW210013   4.728   3.338   2.437
 3333SOL     OW10014   4.075   3.663   2.715
 3333SOL    HW110015   4.125   3.577   2.721
 3333SOL    HW210016   4.140   3.740   2.712
 3334SOL     OW10017   4.045   2.805   2.104
 3334SOL    HW110018   4.127   2.844   2.062
 3334SOL    HW210019   4.018   2.723   2.055
 3335SOL     OW10020   4.185   3.128   3.589
 3335SOL    HW110021   4.135   3.129   3.503
 3335SOL    HW210022   4.122   3.110   3.665
 3336SOL     OW10023   3.926   2.147   3.360
 3336SOL    HW110024   3.846   2.207   3.347
 3336SOL    HW210025   3.916   2.098   3.446
 3337SOL     OW10026   4.188   3.605   2.185
 3337SOL    HW110027   4.221   3.644   2.271
 3337SOL    HW210028   4.264   3.598   2.120
 3338SOL     OW10029   3.973   3.647   3.103
 3338SOL    HW110030   4.030   3.582   3.153
 3338SOL    HW210031   3.957   3.614   3.010
 3339SOL     OW10032   4.664   3.560   2.766
 3339SOL    HW110033   4.744   3.503   2.787
 3339SOL    HW210034   4.615   3.520   2.689
 3340SOL     OW10035   4.106   2.562   2.342
 3340SOL    HW110036   4.151   2.472   2.339
 3340SOL    HW210037   4.012   2.551   2.375
 3341SOL     OW10038   4.338   1.984   1.979
 3341SOL    HW110039   4.436   1.962   1.986
 3341SOL    HW210040   4.307   1.967   1.886
 3342SOL     OW10041   4.505   2.126   3.611
 3342SOL    HW110042   4.572   2.065   3.654
 3342SOL    HW210043   4.432   2.145   3.676
 3343SOL     OW10044   4.612   3.376   3.057
 3343SOL    HW110045   4.589   3.351   2.963
 3343SOL    HW210046   4.673   3.307   3.096
 3344SOL     OW10047   4.527   3.264   2.786
 3344SOL    HW110048   4.617   3.278   2.744
 3344SOL    HW210049   4.456   3.266   2.715
 3345SOL     OW10050   4.646   2.365   2.761
 3345SOL    HW110051   4.621   2.356   2.665
 3345SOL    HW210052   4.694   2.283   2.792
 3346SOL     OW10053   4.263   1.926   2.374
 3346SOL    HW110054   4.182   1.927   2.432
 3346SOL    HW210055   4.266   2.009   2.319
 3347SOL     OW10056   4.021   1.897   2.033
 3347SOL    HW110057   4.070   1.981   2.012
 3347SOL    HW210058   4.083   1.832   2.078
 3348SOL     OW10059   4.659   2.098   2.342
 3348SOL    HW110060   4.611   2.139   2.264
 3348SOL    HW210061   4.758   2.096   2.323
 3349SOL     OW10062   4.951   3.432   2.655
 3349SOL    HW110063   4.972   3.506   2.590
 3349SOL    HW210064   5.019   3.432   2.728
 3350SOL     OW10065   4.183   3.014   2.603
 3350SOL    HW110066   4.112   2.987   2.668
 3350SOL    HW210067   4.157   2.986   2.510
 3351SOL     OW10068   4.756   2.411   1.878
 3351SOL    HW110069   4.715   2.493   1.839
 3351SOL    HW210070   4.820   2.437   1.951
 3352SOL     OW10071   3.802   2.418   3.248
 3352SOL    HW110072   3.894   2.417   3.207
 3352SOL    HW210073   3.796   2.492   3.315
 3353SOL     OW10074   4.285   2.084   3.009
 3353SOL    HW110075   4.323   2.000   3.046
 3353SOL    HW210076   4.197   2.103   3.053
 3354SOL     OW10077   4.590   2.316   2.504
 3354SOL    HW110078   4.558   2.388   2.442
 3354SOL    HW210079   4.614   2.235   2.451
 3355SOL     OW10080   4.741   1.901   2.615
 3355SOL    HW110081   4.669   1.906   2.546
 3355SOL    HW210082   4.717   1.832   2.684
 3356SOL     OW10083   4.212   3.247   2.036
 3356SOL    HW110084   4.125   3.232   2.083
 3356SOL    HW210085   4.195   3.273   1.941
 3357SOL     OW10086   4.251   2.118   2.190
 3357SOL    HW110087   4.278   2.059   2.115
 3357SOL    HW210088   4.251   2.213   2.159
 3358SOL     OW10089   4.639   1.951   3.264
 3358SOL    HW110090   4.664   1.931   3.169
 3358SOL    HW210091   4.711   2.007   3.306
 3359SOL     OW10092   4.704   2.978   3.581
 3359SOL    HW110093   4.605   2.984   3.591
 3359SOL    HW210094   4.727   2.898   3.525
 3360SOL     OW10095   4.429   2.912   2.230
 3360SOL    HW110096   4.415   2.919   2.329
 3360SOL    HW210097   4.513   2.861   2.212
 3361SOL     OW10098   4.134   2.675   3.113
 3361SOL    HW110099   4.220   2.687   3.163
 3361SOL    HW210100   4.092   2.588   3.140
 3362SOL     OW10101   3.788   3.426   3.193
 3362SOL    HW110102   3.742   3.508   3.159
 3362SOL    HW210103   3.886   3.445   3.202
 3363SOL     OW10104   4.091   2.962   2.363
 3363SOL    HW110105   4.084   3.045   2.307
 3363SOL    HW210106   4.095   2.882   2.303
 3364SOL     OW10107   4.290   2.399   2.727
 3364SOL    HW110108   4.302   2.465   2.653
 3364SOL    HW210109   4.336   2.433   2.810
 3365SOL     OW10110   4.078   3.372   3.191
 3365SOL    HW110111   4.057   3.328   3.104
 3365SOL    HW210112   4.175   3.398   3.194
 3366SOL     OW10113   4.126   2.613   3.460
 3366SOL    HW110114   4.194   2.668   3.413
 3366SOL    HW210115   4.166   2.525   3.487
 3367SOL     OW10116   4.737   1.967   3.632
 3367SOL    HW110117   4.743   2.052   3.580
 3367SOL    HW210118   4.769   1.891   3.575
 3368SOL     OW10119   4.228   1.912   3.602
 3368SOL    HW110120   4.186   1.855   3.532
 3368SOL    HW210121   4.162   1.981   3.634
 3369SOL     OW10122   4.297   2.732   2.891
 3369SOL    HW110123   4.341   2.821   2.882
 3369SOL    HW210124   4.234   2.732   2.968
 3370SOL     OW10125   4.933   2.387   2.137
 3370SOL    HW110126   4.946   2.303   2.191
 3370SOL    HW210127   4.904   2.461   2.197
 3371SOL     OW10128   4.031   2.075   3.093
 3371SOL    HW110129   4.008   2.112   3.183
 3371SOL    HW210130   4.001   1.980   3.087
 3372SOL     OW10131   3.761   3.172   3.144
 3372SOL    HW110132   3.814   3.123   3.212
 3372SOL    HW210133   3.783   3.270   3.149
 3373SOL     OW10134   4.456   2.496   2.926
 3373SOL    HW110135   4.515   2.470   2.850
 3373SOL    HW210136   4.428   2.592   2.915
 3374SOL     OW10137   4.031   1.925   2.480
 3374SOL    HW110138   4.020   2.019   2.513
 3374SOL    HW210139   4.026   1.862   2.557
 3375SOL     OW10140   4.747   2.628   2.828
 3375SOL    HW110141   4.762   2.649   2.924
 3375SOL    HW210142   4.717   2.533   2.819
 3376SOL     OW10143   4.704   3.435   3.562
 3376SOL    HW110144   4.684   3.479   3.474
 3376SOL    HW210145   4.743   3.344   3.546
 3377SOL     OW10146   4.074   2.760   3.666
 3377SOL    HW110147   4.150   2.804   3.714
 3377SOL    HW210148   4.109   2.713   3.584
 3378SOL     OW10149   4.043   2.672   2.811
 3378SOL    HW110150   4.136   2.708   2.816
 3378SOL    HW210151   4.037   2.587   2.863
 3379SOL     OW10152   4.063   2.371   2.868
 3379SOL    HW110153   4.011   2.288   2.851
 3379SOL    HW210154   4.140   2.376   2.804
 3380SOL     OW10155   3.732   3.188   2.062
 3380SOL    HW110156   3.639   3.209   2.031
 3380SOL    HW210157   3.742   3.089   2.075
 3381SOL     OW10158   3.812   3.663   2.789
 3381SOL    HW110159   3.770   3.577   2.762
 3381SOL    HW210160   3.906   3.666   2.755
 3382SOL     OW10161   4.228   3.430   2.772
 3382SOL    HW110162   4.294   3.504   2.781
 3382SOL    HW210163   4.272   3.351   2.730
 3383SOL     OW10164   4.726   2.658   3.100
 3383SOL    HW110165   4.767   2.626   3.186
 3383SOL    HW210166   4.630   2.631   3.097
 3384SOL     OW10167   3.764   2.406   2.976
 3384SOL    HW110168   3.849   2.373   2.935
 3384SOL    HW210169   3.777   2.421   3.074
 3385SOL     OW10170   3.913   2.382   3.584
 3385SOL    HW110171   3.972   2.342   3.514
 3385SOL    HW210172   3.855   2.453   3.543
 3386SOL     OW10173   4.539   2.434   2.187
 3386SOL    HW110174   4.546   2.345   2.141
 3386SOL    HW210175   4.445   2.468   2.179
 3387SOL     OW10176   3.976   3.426   3.606
 3387SOL    HW110177   3.946   3.483   3.682
 3387SOL    HW210178   3.969   3.329   3.632
 3388SOL     OW10179   4.395   2.326   3.131
 3388SOL    HW110180   4.361   2.237   3.101
 3388SOL    HW210181   4.421   2.380   3.051
 3389SOL     OW10182   4.654   3.540   3.327
 3389SOL    HW110183   4.630   3.522   3.232
 3389SOL    HW210184   4.684   3.634   3.337
 3390SOL     OW10185   4.197   2.362   2.053
 3390SOL    HW110186   4.258   2.442   2.057
 3390SOL    HW210187   4.102   2.393   2.060
 3391SOL     OW10188   3.883   2.999   3.328
 3391SOL    HW110189   3.905   2.938   3.404
 3391SOL    HW210190   3.893   2.950   3.242
 3392SOL     OW10191   3.807   3.120   2.884
 3392SOL    HW110192   3.802   3.119   2.984
 3392SOL    HW210193   3.724   3.079   2.846
 3393SOL     OW10194   4.412   3.524   3.578
 3393SOL    HW110195   4.356   3.605   3.587
 3393SOL    HW210196   4.464   3.528   3.492
 3394SOL     OW10197   3.854   3.656   3.713
 3394SOL    HW110198   3.813   3.582   3.766
 3394SOL    HW210199   3.918   3.707   3.771
 3395SOL     OW10200   5.004   2.789   2.534
 3395SOL    HW110201   5.064   2.708   2.536
 3395SOL    HW210202   5.044   2.858   2.474
 3396SOL     OW10203   4.554   3.135   3.284
 3396SOL    HW110204   4.549   3.168   3.379
 3396SOL    HW210205   4.468   3.154   3.238
 3397SOL     OW10206   4.396   3.478   2.016
 3397SOL    HW110207   4.405   3.488   1.917
 3397SOL    HW210208   4.356   3.389   2.037
 3398SOL     OW10209   3.987   2.188   2.582
 3398SOL    HW110210   3.908   2.239   2.548
 3398SOL    HW210211   3.978   2.173   2.680
 3399SOL     OW10212   4.546   2.864   3.234
 3399SOL    HW110213   4.586   2.863   3.142
 3399SOL    HW210214   4.556   2.956   3.274
 3400SOL     OW10215   4.640   2.772   2.153
 3400SOL    HW110216   4.703   2.810   2.085
 3400SOL    HW210217   4.680   2.689   2.192
 3401SOL     OW10218   4.096   3.150   3.352
 3401SOL    HW110219   4.083   3.243   3.318
 3401SOL    HW210220   4.012   3.098   3.339
 3402SOL     OW10221   4.763   2.960   2.558
 3402SOL    HW110222   4.693   2.913   2.612
 3402SOL    HW210223   4.822   2.892   2.515
 3403SOL     OW10224   4.738   2.098   2.833
 3403SOL    HW110225   4.730   2.062   2.740
 3403SOL    HW210226   4.736   2.022   2.898
 3404SOL     OW10227   4.314   3.349   2.353
 3404SOL    HW110228   4.356   3.291   2.283
 3404SOL    HW210229   4.270   3.428   2.309
 3405SOL     OW10230   3.979   3.210   2.152
 3405SOL    HW110231   3.883   3.211   2.125
 3405SOL    HW210232   3.991   3.263   2.236
 3406SOL     OW10233   3.829   2.875   3.588
 3406SOL    HW110234   3.752   2.842   3.642
 3406SOL    HW210235   3.914   2.845   3.630
 3407SOL     OW10236   4.396   2.065   3.351
 3407SOL    HW110237   4.486   2.049   3.311
 3407SOL    HW210238   4.404   2.070   3.450
 3408SOL     OW10239   3.799   2.207   1.895
 3408SOL    HW110240   3.707   2.179   1.866
 3408SOL    HW210241   3.830   2.284   1.839
 3409SOL     OW10242   3.796   2.028   2.180
 3409SOL    HW110243   3.779   2.111   2.126
 3409SOL    HW210244   3.886   1.991   2.158
 3410SOL     OW10245   4.337   2.704   3.293
 3410SOL    HW110246   4.393   2.785   3.276
 3410SOL    HW210247   4.396   2.624   3.296
 3411SOL     OW10248   4.440   2.427   3.570
 3411SOL    HW110249   4.459   2.492   3.644
 3411SOL    HW210250   4.500   2.347   3.579
 3412SOL     OW10251   4.114   3.603   3.422
 3412SOL    HW110252   4.023   3.644   3.420
 3412SOL    HW210253   4.107   3.509   3.454
 3413SOL     OW10254   4.949   2.187   2.311
 3413SOL    HW110255   5.014   2.113   2.300
 3413SOL    HW210256   4.969   2.237   2.395
 3414SOL     OW10257   4.318   2.607   2.514
 3414SOL    HW110258   4.368   2.692   2.495
 3414SOL    HW210259   4.230   2.609   2.466
 3415SOL     OW10260   4.583   3.236   1.878
 3415SOL    HW110261   4.537   3.251   1.966
 3415SOL    HW210262   4.627   3.321   1.848
 3416SOL     OW10263   4.385   3.652   2.815
 3416SOL    HW110264   4.339   3.740   2.802
 3416SOL    HW210265   4.484   3.664   2.808
 3417SOL     OW10266   4.583   2.818   2.723
 3417SOL    HW110267   4.637   2.749   2.771
 3417SOL    HW210268   4.551   2.887   2.789
 3418SOL     OW10269   3.945   3.176   3.706
 3418SOL    HW110270   3.880   3.103   3.685
 3418SOL    HW210271   3.949   3.190   3.804
 3419SOL     OW10272   3.803   3.102   2.515
 3419SOL    HW110273   3.802   3.055   2.603
 3419SOL    HW210274   3.885   3.074   2.464
 3420SOL     OW10275   4.396   3.253   3.486
 3420SOL    HW110276   4.318   3.203   3.524
 3420SOL    HW210277   4.393   3.348   3.517
 3421SOL     OW10278   4.152   2.286   2.382
 3421SOL    HW110279   4.182   2.214   2.320
 3421SOL    HW210280   4.113   2.246   2.465
 3422SOL     OW10281   4.041   2.409   3.142
 3422SOL    HW110282   4.079   2.350   3.214
 3422SOL    HW210283   4.081   2.383   3.054
 3423SOL     OW10284   4.536   3.448   2.549
 3423SOL    HW110285   4.568   3.458   2.455
 3423SOL    HW210286   4.457   3.386   2.551
 3424SOL     OW10287   4.725   1.896   3.016
 3424SOL    HW110288   4.662   1.824   2.985
 3424SOL    HW210289   4.818   1.860   3.016
 3425SOL     OW10290   4.494   3.192   2.163
 3425SOL    HW110291   4.448   3.105   2.180
 3425SOL    HW210292   4.585   3.189   2.204
 3426SOL     OW10293   4.342   3.429   3.146
 3426SOL    HW110294   4.337   3.511   3.203
 3426SOL    HW210295   4.431   3.426   3.101
 3427SOL     OW10296   3.763   2.939   2.162
 3427SOL    HW110297   3.862   2.928   2.153
 3427SOL    HW210298   3.723   2.853   2.194
 3428SOL     OW10299   4.599   3.508   2.199
 3428SOL    HW110300   4.522   3.473   2.145
 3428SOL    HW210301   4.567   3.579   2.261
 3429SOL     OW10302   3.954   2.490   3.837
 3429SOL    HW110303   3.861   2.488   3.874
 3429SOL    HW210304   3.955   2.451   3.745
 3430SOL     OW10305   3.949   2.137   4.720
 3430SOL    HW110306   3.984   2.120   4.812
 3430SOL    HW210307   3.861   2.092   4.708
 3431SOL     OW10308   3.743   2.230   4.371
 3431SOL    HW110309   3.661   2.273   4.410
 3431SOL    HW210310   3.715   2.157   4.308
 3432SOL     OW10311   4.492   3.006   4.747
 3432SOL    HW110312   4.414   3.023   4.807
 3432SOL    HW210313   4.526   3.093   4.711
 3433SOL     OW10314   4.409   2.874   4.389
 3433SOL    HW110315   4.478   2.858   4.459
 3433SOL    HW210316   4.336   2.931   4.427
 3434SOL     OW10317   4.059   3.297   4.785
 3434SOL    HW110318   3.981   3.266   4.732
 3434SOL    HW210319   4.117   3.355   4.728
 3435SOL     OW10320   3.955   3.575   4.207
 3435SOL    HW110321   3.989   3.652   4.261
 3435SOL    HW210322   3.999   3.575   4.117
 3436SOL     OW10323   3.954   3.296   4.262
 3436SOL    HW110324   3.928   3.392   4.262
 3436SOL    HW210325   3.883   3.242   4.307
 3437SOL     OW10326   3.964   2.953   4.610
 3437SOL    HW110327   3.978   2.869   4.662
 3437SOL    HW210328   3.909   3.017   4.665
 3438SOL     OW10329   4.330   2.826   3.847
 3438SOL    HW110330   4.337   2.910   3.793
 3438SOL    HW210331   4.376   2.839   3.935
 3439SOL     OW10332   3.846   2.505   4.287
 3439SOL    HW110333   3.801   2.417   4.304
 3439SOL    HW210334   3.845   2.559   4.371
 3440SOL     OW10335   3.751   3.458   3.841
 3440SOL    HW110336   3.732   3.362   3.862
 3440SOL    HW210337   3.718   3.516   3.916
 3441SOL     OW10338   4.337   3.227   4.450
 3441SOL    HW110339   4.288   3.140   4.459
 3441SOL    HW210340   4.314   3.270   4.363
 3442SOL     OW10341   4.533   1.866   4.226
 3442SOL    HW110342   4.573   1.957   4.217
 3442SOL    HW210343   4.433   1.874   4.232
 3443SOL     OW10344   4.322   2.591   3.994
 3443SOL    HW110345   4.346   2.660   3.926
 3443SOL    HW210346   4.244   2.624   4.048
 3444SOL     OW10347   4.765   2.563   4.153
 3444SOL    HW110348   4.791   2.559   4.249
 3444SOL    HW210349   4.680   2.512   4.139
 3445SOL     OW10350   3.800   2.673   4.513
 3445SOL    HW110351   3.899   2.661   4.522
 3445SOL    HW210352   3.776   2.768   4.534
 3446SOL     OW10353   4.589   2.210   3.919
 3446SOL    HW110354   4.648   2.273   3.870
 3446SOL    HW210355   4.608   2.116   3.890
 3447SOL     OW10356   4.274   2.058   4.609
 3447SOL    HW110357   4.269   2.053   4.709
 3447SOL    HW210358   4.276   2.154   4.580
 3448SOL     OW10359   4.732   3.318   4.201
 3448SOL    HW110360   4.686   3.390   4.149
 3448SOL    HW210361   4.728   3.338   4.299
 3449SOL     OW10362   4.075   3.663   4.577
 3449SOL    HW110363   4.125   3.577   4.583
 3449SOL    HW210364   4.140   3.740   4.574
 3450SOL     OW10365   4.045   2.805   3.966
 3450SOL    HW110366   4.127   2.844   3.924
 3450SOL    HW210367   4.018   2.723   3.917
 3451SOL     OW10368   4.188   3.605   4.047
 3451SOL    HW110369   4.221   3.644   4.133
 3451SOL    HW210370   4.264   3.598   3.982
 3452SOL     OW10371   3.973   3.647   4.965
 3452SOL    HW110372   4.030   3.582   5.015
 3452SOL    HW210373   3.957   3.614   4.872
 3453SOL     OW10374   4.664   3.560   4.628
 3453SOL    HW110375   4.744   3.503   4.649
 3453SOL    HW210376   4.615   3.520   4.551
 3454SOL     OW10377   4.106   2.562   4.204
 3454SOL    HW110378   4.151   2.472   4.201
 3454SOL    HW210379   4.012   2.551   4.237
 3455SOL     OW10380   4.338   1.984   3.841
 3455SOL    HW110381   4.436   1.962   3.848
 3455SOL    HW210382   4.307   1.967   3.748
 3456SOL     OW10383   4.527   3.264   4.648
 3456SOL    HW110384   4.617   3.278   4.606
 3456SOL    HW210385   4.456   3.266   4.577
 3457SOL     OW10386   4.646   2.365   4.623
 3457SOL    HW110387   4.621   2.356   4.527
 3457SOL    HW210388   4.694   2.283   4.654
 3458SOL     OW10389   4.263   1.926   4.236
 3458SOL    HW110390   4.182   1.927   4.294
 3458SOL    HW210391   4.266   2.009   4.181
 3459SOL     OW10392   4.021   1.897   3.895
 3459SOL    HW110393   4.070   1.981   3.874
 3459SOL    HW210394   4.083   1.832   3.940
 3460SOL     OW10395   4.659   2.098   4.204
 3460SOL    HW110396   4.611   2.139   4.126
 3460SOL    HW210397   4.758   2.096   4.185
 3461SOL     OW10398   4.951   3.432   4.517
 3461SOL    HW110399   4.972   3.506   4.452
 3461SOL    HW210400   5.019   3.432   4.590
 3462SOL     OW10401   4.183   3.014   4.465
 3462SOL    HW110402   4.112   2.987   4.530
 3462SOL    HW210403   4.157   2.986   4.372
 3463SOL     OW10404   4.756   2.411   3.740
 3463SOL    HW110405   4.715   2.493   3.701
 3463SOL    HW210406   4.820   2.437   3.813
 3464SOL     OW10407   4.590   2.316   4.366
 3464SOL    HW110408   4.558   2.388   4.304
 3464SOL    HW210409   4.614   2.235   4.313
 3465SOL     OW10410   4.741   1.901   4.477
 3465SOL    HW110411   4.669   1.906   4.408
 3465SOL    HW210412   4.717   1.832   4.546
 3466SOL     OW10413   4.212   3.247   3.898
 3466SOL    HW110414   4.125   3.232   3.945
 3466SOL    HW210415   4.195   3.273   3.803
 3467SOL     OW10416   4.251   2.118   4.052
 3467SOL    HW110417   4.278   2.059   3.977
 3467SOL    HW210418   4.251   2.213   4.021
 3468SOL     OW10419   4.429   2.912   4.092
 3468SOL    HW110420   4.415   2.919   4.191
 3468SOL    HW210421   4.513   2.861   4.074
 3469SOL     OW10422   4.091   2.962   4.225
 3469SOL    HW110423   4.084   3.045   4.169
 3469SOL    HW210424   4.095   2.882   4.165
 3470SOL     OW10425   4.290   2.399   4.589
 3470SOL    HW110426   4.302   2.465   4.515
 3470SOL    HW210427   4.336   2.433   4.672
 3471SOL     OW10428   4.297   2.732   4.753
 3471SOL    HW110429   4.341   2.821   4.744
 3471SOL    HW210430   4.234   2.732   4.830
 3472SOL     OW10431   4.933   2.387   3.999
 3472SOL    HW110432   4.946   2.303   4.053
 3472SOL    HW210433   4.904   2.461   4.059
 3473SOL     OW10434   4.031   2.075   4.955
 3473SOL    HW110435   4.008   2.112   5.045
 3473SOL    HW210436   4.001   1.980   4.949
 3474SOL     OW10437   4.456   2.496   4.788
 3474SOL    HW110438   4.515   2.470   4.712
 3474SOL    HW210439   4.428   2.592   4.777
 3475SOL     OW10440   4.031   1.925   4.342
 3475SOL    HW110441   4.020   2.019   4.375
 3475SOL    HW210442   4.026   1.862   4.419
 3476SOL     OW10443   4.043   2.672   4.673
 3476SOL    HW110444   4.136   2.708   4.678
 3476SOL    HW210445   4.037   2.587   4.725
 3477SOL     OW10446   4.063   2.371   4.730
 3477SOL    HW110447   4.011   2.288   4.713
 3477SOL    HW210448   4.140   2.376   4.666
 3478SOL     OW10449   3.732   3.188   3.924
 3478SOL    HW110450   3.639   3.209   3.893
 3478SOL    HW210451   3.742   3.089   3.937
 3479SOL     OW10452   3.812   3.663   4.651
 3479SOL    HW110453   3.770   3.577   4.624
 3479SOL    HW210454   3.906   3.666   4.617
 3480SOL     OW10455   4.228   3.430   4.634
 3480SOL    HW110456   4.294   3.504   4.643
 3480SOL    HW210457   4.272   3.351   4.592
 3481SOL     OW10458   4.726   2.658   4.962
 3481SOL    HW110459   4.767   2.626   5.048
 3481SOL    HW210460   4.630   2.631   4.959
 3482SOL     OW10461   4.539   2.434   4.049
 3482SOL    HW110462   4.546   2.345   4.003
 3482SOL    HW210463   4.445   2.468   4.041
 3483SOL     OW10464   4.395   2.326   4.993
 3483SOL    HW110465   4.361   2.237   4.963
 3483SOL    HW210466   4.421   2.380   4.913
 3484SOL     OW10467   4.197   2.362   3.915
 3484SOL    HW110468   4.258   2.442   3.919
 3484SOL    HW210469   4.102   2.393   3.922
 3485SOL     OW10470   3.807   3.120   4.746
 3485SOL    HW110471   3.802   3.119   4.846
 3485SOL    HW210472   3.724   3.079   4.708
 3486SOL     OW10473   5.004   2.789   4.396
 3486SOL    HW110474   5.064   2.708   4.398
 3486SOL    HW210475   5.044   2.858   4.336
 3487SOL     OW10476   4.396   3.478   3.878
 3487SOL    HW110477   4.405   3.488   3.779
 3487SOL    HW210478   4.356   3.389   3.899
 3488SOL     OW10479   3.987   2.188   4.444
 3488SOL    HW110480   3.908   2.239   4.410
 3488SOL    HW210481   3.978   2.173   4.542
 3489SOL     OW10482   4.640   2.772   4.015
 3489SOL    HW110483   4.703   2.810   3.947
 3489SOL    HW210484   4.680   2.689   4.054
 3490SOL     OW10485   4.763   2.960   4.420
 3490SOL    HW110486   4.693   2.913   4.474
 3490SOL    HW210487   4.822   2.892   4.377
 3491SOL     OW10488   4.738   2.098   4.695
 3491SOL    HW110489   4.730   2.062   4.602
 3491SOL    HW210490   4.736   2.022   4.760
 3492SOL     OW10491   4.314   3.349   4.215
 3492SOL    HW110492   4.356   3.291   4.145
 3492SOL    HW210493   4.270   3.428   4.171
 3493SOL     OW10494   3.979   3.210   4.014
 3493SOL    HW110495   3.883   3.211   3.987
 3493SOL    HW210496   3.991   3.263   4.098
 3494SOL     OW10497   3.799   2.207   3.757
 3494SOL    HW110498   3.707   2.179   3.728
 3494SOL    HW210499   3.830   2.284   3.701
 3495SOL     OW10500   3.796   2.028   4.042
 3495SOL    HW110501   3.779   2.111   3.988
 3495SOL    HW210502   3.886   1.991   4.020
 3496SOL     OW10503   4.949   2.187   4.173
 3496SOL    HW110504   5.014   2.113   4.162
 3496SOL    HW210505   4.969   2.237   4.257
 3497SOL     OW10506   4.318   2.607   4.376
 3497SOL    HW110507   4.368   2.692   4.357
 3497SOL    HW210508   4.230   2.609   4.328
 3498SOL     OW10509   4.583   3.236   3.740
 3498SOL    HW110510   4.537   3.251   3.828
 3498SOL    HW210511   4.627   3.321   3.710
 3499SOL     OW10512   4.385   3.652   4.677
 3499SOL    HW110513   4.339   3.740   4.664
 3499SOL    HW210514   4.484   3.664   4.670
 3500SOL     OW10515   4.583   2.818   4.585
 3500SOL    HW110516   4.637   2.749   4.633
 3500SOL    HW210517   4.551   2.887   4.651
 3501SOL     OW10518   3.803   3.102   4.377
 3501SOL    HW110519   3.802   3.055   4.465
 3501SOL    HW210520   3.885   3.074   4.326
 3502SOL     OW10521   4.152   2.286   4.244
 3502SOL    HW110522   4.182   2.214   4.182
 3502SOL    HW210523   4.113   2.246   4.327
 3503SOL     OW10524   4.536   3.448   4.411
 3503SOL    HW110525   4.568   3.458   4.317
 3503SOL    HW210526   4.457   3.386   4.413
 3504SOL     OW10527   4.494   3.192   4.025
 3504SOL    HW110528   4.448   3.105   4.042
 3504SOL    HW210529   4.585   3.189   4.066
 3505SOL     OW10530   3.763   2.939   4.024
 3505SOL    HW110531   3.862   2.928   4.015
 3505SOL    HW210532   3.723   2.853   4.056
 3506SOL     OW10533   4.599   3.508   4.061
 3506SOL    HW110534   4.522   3.473   4.007
 3506SOL    HW210535   4.567   3.579   4.123
 3507SOL     OW10536   3.954   4.352   0.113
 3507SOL    HW110537   3.861   4.350   0.150
 3507SOL    HW210538   3.955   4.313   0.021
 3508SOL     OW10539   3.949   3.999   0.996
 3508SOL    HW110540   3.984   3.982   1.088
 3508SOL    HW210541   3.861   3.954   0.984
 3509SOL     OW10542   3.743   4.092   0.647
 3509SOL    HW110543   3.661   4.135   0.686
 3509SOL    HW210544   3.715   4.019   0.584
 3510SOL     OW10545   4.492   4.868   1.023
 3510SOL    HW110546   4.414   4.885   1.083
 3510SOL    HW210547   4.526   4.955   0.987
 3511SOL     OW10548   4.574   4.522   1.823
 3511SOL    HW110549   4.570   4.598   1.888
 3511SOL    HW210550   4.596   4.558   1.732
 3512SOL     OW10551   4.409   4.736   0.665
 3512SOL    HW110552   4.478   4.720   0.735
 3512SOL    HW210553   4.336   4.793   0.703
 3513SOL     OW10554   4.162   4.116   1.499
 3513SOL    HW110555   4.244   4.060   1.508
 3513SOL    HW210556   4.081   4.058   1.503
 3514SOL     OW10557   3.964   4.815   0.886
 3514SOL    HW110558   3.978   4.731   0.938
 3514SOL    HW210559   3.909   4.879   0.941
 3515SOL     OW10560   4.330   4.688   0.123
 3515SOL    HW110561   4.337   4.772   0.069
 3515SOL    HW210562   4.376   4.701   0.211
 3516SOL     OW10563   3.846   4.367   0.563
 3516SOL    HW110564   3.801   4.279   0.580
 3516SOL    HW210565   3.845   4.421   0.647
 3517SOL     OW10566   3.837   4.461   1.597
 3517SOL    HW110567   3.925   4.448   1.642
 3517SOL    HW210568   3.824   4.558   1.575
 3518SOL     OW10569   4.533   3.728   0.502
 3518SOL    HW110570   4.573   3.819   0.493
 3518SOL    HW210571   4.433   3.736   0.508
 3519SOL     OW10572   3.921   4.700   1.264
 3519SOL    HW110573   4.010   4.655   1.250
 3519SOL    HW210574   3.848   4.635   1.245
 3520SOL     OW10575   4.041   3.975   1.801
 3520SOL    HW110576   4.112   4.046   1.807
 3520SOL    HW210577   3.953   4.014   1.829
 3521SOL     OW10578   4.322   4.453   0.270
 3521SOL    HW110579   4.346   4.522   0.202
 3521SOL    HW210580   4.244   4.486   0.324
 3522SOL     OW10581   4.531   4.329   1.465
 3522SOL    HW110582   4.484   4.326   1.554
 3522SOL    HW210583   4.480   4.274   1.399
 3523SOL     OW10584   4.697   4.614   1.572
 3523SOL    HW110585   4.743   4.530   1.543
 3523SOL    HW210586   4.641   4.648   1.497
 3524SOL     OW10587   4.715   4.134   1.242
 3524SOL    HW110588   4.638   4.168   1.296
 3524SOL    HW210589   4.681   4.083   1.163
 3525SOL     OW10590   4.765   4.425   0.429
 3525SOL    HW110591   4.791   4.421   0.525
 3525SOL    HW210592   4.680   4.374   0.415
 3526SOL     OW10593   3.800   4.535   0.789
 3526SOL    HW110594   3.899   4.523   0.798
 3526SOL    HW210595   3.776   4.630   0.810
 3527SOL     OW10596   4.589   4.072   0.195
 3527SOL    HW110597   4.648   4.135   0.146
 3527SOL    HW210598   4.608   3.978   0.166
 3528SOL     OW10599   4.274   3.920   0.885
 3528SOL    HW110600   4.269   3.915   0.985
 3528SOL    HW210601   4.276   4.016   0.856
 3529SOL     OW10602   3.926   4.009   1.498
 3529SOL    HW110603   3.846   4.069   1.485
 3529SOL    HW210604   3.916   3.960   1.584
 3530SOL     OW10605   4.106   4.424   0.480
 3530SOL    HW110606   4.151   4.334   0.477
 3530SOL    HW210607   4.012   4.413   0.513
 3531SOL     OW10608   4.338   3.846   0.117
 3531SOL    HW110609   4.436   3.824   0.124
 3531SOL    HW210610   4.307   3.829   0.024
 3532SOL     OW10611   4.505   3.988   1.749
 3532SOL    HW110612   4.572   3.927   1.792
 3532SOL    HW210613   4.432   4.007   1.814
 3533SOL     OW10614   4.646   4.227   0.899
 3533SOL    HW110615   4.621   4.218   0.803
 3533SOL    HW210616   4.694   4.145   0.930
 3534SOL     OW10617   4.263   3.788   0.512
 3534SOL    HW110618   4.182   3.789   0.570
 3534SOL    HW210619   4.266   3.871   0.457
 3535SOL     OW10620   4.659   3.960   0.480
 3535SOL    HW110621   4.611   4.001   0.402
 3535SOL    HW210622   4.758   3.958   0.461
 3536SOL     OW10623   4.756   4.273   0.016
 3536SOL    HW110624   4.715   4.355  -0.023
 3536SOL    HW210625   4.820   4.299   0.089
 3537SOL     OW10626   3.802   4.280   1.386
 3537SOL    HW110627   3.894   4.279   1.345
 3537SOL    HW210628   3.796   4.354   1.453
 3538SOL     OW10629   4.285   3.946   1.147
 3538SOL    HW110630   4.323   3.862   1.184
 3538SOL    HW210631   4.197   3.965   1.191
 3539SOL     OW10632   4.590   4.178   0.642
 3539SOL    HW110633   4.558   4.250   0.580
 3539SOL    HW210634   4.614   4.097   0.589
 3540SOL     OW10635   4.741   3.763   0.753
 3540SOL    HW110636   4.669   3.768   0.684
 3540SOL    HW210637   4.717   3.694   0.822
 3541SOL     OW10638   4.251   3.980   0.328
 3541SOL    HW110639   4.278   3.921   0.253
 3541SOL    HW210640   4.251   4.075   0.297
 3542SOL     OW10641   4.639   3.813   1.402
 3542SOL    HW110642   4.664   3.793   1.307
 3542SOL    HW210643   4.711   3.869   1.444
 3543SOL     OW10644   4.134   4.537   1.251
 3543SOL    HW110645   4.220   4.549   1.301
 3543SOL    HW210646   4.092   4.450   1.278
 3544SOL     OW10647   4.290   4.261   0.865
 3544SOL    HW110648   4.302   4.327   0.791
 3544SOL    HW210649   4.336   4.295   0.948
 3545SOL     OW10650   4.126   4.475   1.598
 3545SOL    HW110651   4.194   4.530   1.551
 3545SOL    HW210652   4.166   4.387   1.625
 3546SOL     OW10653   4.737   3.829   1.770
 3546SOL    HW110654   4.743   3.914   1.718
 3546SOL    HW210655   4.769   3.753   1.713
 3547SOL     OW10656   4.228   3.774   1.740
 3547SOL    HW110657   4.186   3.717   1.670
 3547SOL    HW210658   4.162   3.843   1.772
 3548SOL     OW10659   4.297   4.594   1.029
 3548SOL    HW110660   4.341   4.683   1.020
 3548SOL    HW210661   4.234   4.594   1.106
 3549SOL     OW10662   4.933   4.249   0.275
 3549SOL    HW110663   4.946   4.165   0.329
 3549SOL    HW210664   4.904   4.323   0.335
 3550SOL     OW10665   4.031   3.937   1.231
 3550SOL    HW110666   4.008   3.974   1.321
 3550SOL    HW210667   4.001   3.842   1.225
 3551SOL     OW10668   4.456   4.358   1.064
 3551SOL    HW110669   4.515   4.332   0.988
 3551SOL    HW210670   4.428   4.454   1.053
 3552SOL     OW10671   4.031   3.787   0.618
 3552SOL    HW110672   4.020   3.881   0.651
 3552SOL    HW210673   4.026   3.724   0.695
 3553SOL     OW10674   4.747   4.490   0.966
 3553SOL    HW110675   4.762   4.511   1.062
 3553SOL    HW210676   4.717   4.395   0.957
 3554SOL     OW10677   4.074   4.622   1.804
 3554SOL    HW110678   4.150   4.666   1.852
 3554SOL    HW210679   4.109   4.575   1.722
 3555SOL     OW10680   4.043   4.534   0.949
 3555SOL    HW110681   4.136   4.570   0.954
 3555SOL    HW210682   4.037   4.449   1.001
 3556SOL     OW10683   4.063   4.233   1.006
 3556SOL    HW110684   4.011   4.150   0.989
 3556SOL    HW210685   4.140   4.238   0.942
 3557SOL     OW10686   4.726   4.520   1.238
 3557SOL    HW110687   4.767   4.488   1.324
 3557SOL    HW210688   4.630   4.493   1.235
 3558SOL     OW10689   3.764   4.268   1.114
 3558SOL    HW110690   3.849   4.235   1.073
 3558SOL    HW210691   3.777   4.283   1.212
 3559SOL     OW10692   3.913   4.244   1.722
 3559SOL    HW110693   3.972   4.204   1.652
 3559SOL    HW210694   3.855   4.315   1.681
 3560SOL     OW10695   4.539   4.296   0.325
 3560SOL    HW110696   4.546   4.207   0.279
 3560SOL    HW210697   4.445   4.330   0.317
 3561SOL     OW10698   4.395   4.188   1.269
 3561SOL    HW110699   4.361   4.099   1.239
 3561SOL    HW210700   4.421   4.242   1.189
 3562SOL     OW10701   4.197   4.224   0.191
 3562SOL    HW110702   4.258   4.304   0.195
 3562SOL    HW210703   4.102   4.255   0.198
 3563SOL     OW10704   3.883   4.861   1.466
 3563SOL    HW110705   3.905   4.800   1.542
 3563SOL    HW210706   3.893   4.812   1.380
 3564SOL     OW10707   4.627   3.810   0.133
 3564SOL    HW110708   4.678   3.811   0.047
 3564SOL    HW210709   4.683   3.768   0.204
 3565SOL     OW10710   5.004   4.651   0.672
 3565SOL    HW110711   5.064   4.570   0.674
 3565SOL    HW210712   5.044   4.720   0.612
 3566SOL     OW10713   3.987   4.050   0.720
 3566SOL    HW110714   3.908   4.101   0.686
 3566SOL    HW210715   3.978   4.035   0.818
 3567SOL     OW10716   4.640   4.634   0.291
 3567SOL    HW110717   4.703   4.672   0.223
 3567SOL    HW210718   4.680   4.551   0.330
 3568SOL     OW10719   4.738   3.960   0.971
 3568SOL    HW110720   4.730   3.924   0.878
 3568SOL    HW210721   4.736   3.884   1.036
 3569SOL     OW10722   3.829   4.737   1.726
 3569SOL    HW110723   3.752   4.704   1.780
 3569SOL    HW210724   3.914   4.707   1.768
 3570SOL     OW10725   4.396   3.927   1.489
 3570SOL    HW110726   4.486   3.911   1.449
 3570SOL    HW210727   4.404   3.932   1.588
 3571SOL     OW10728   3.799   4.069   0.033
 3571SOL    HW110729   3.707   4.041   0.004
 3571SOL    HW210730   3.830   4.146  -0.023
 3572SOL     OW10731   3.796   3.890   0.318
 3572SOL    HW110732   3.779   3.973   0.264
 3572SOL    HW210733   3.886   3.853   0.296
 3573SOL     OW10734   4.337   4.566   1.431
 3573SOL    HW110735   4.393   4.647   1.414
 3573SOL    HW210736   4.396   4.486   1.434
 3574SOL     OW10737   4.440   4.289   1.708
 3574SOL    HW110738   4.459   4.354   1.782
 3574SOL    HW210739   4.500   4.209   1.717
 3575SOL     OW10740   4.949   4.049   0.449
 3575SOL    HW110741   5.014   3.975   0.438
 3575SOL    HW210742   4.969   4.099   0.533
 3576SOL     OW10743   4.318   4.469   0.652
 3576SOL    HW110744   4.368   4.554   0.633
 3576SOL    HW210745   4.230   4.471   0.604
 3577SOL     OW10746   4.583   4.680   0.861
 3577SOL    HW110747   4.637   4.611   0.909
 3577SOL    HW210748   4.551   4.749   0.927
 3578SOL     OW10749   3.803   4.964   0.653
 3578SOL    HW110750   3.802   4.917   0.741
 3578SOL    HW210751   3.885   4.936   0.602
 3579SOL     OW10752   4.152   4.148   0.520
 3579SOL    HW110753   4.182   4.076   0.458
 3579SOL    HW210754   4.113   4.108   0.603
 3580SOL     OW10755   4.041   4.271   1.280
 3580SOL    HW110756   4.079   4.212   1.352
 3580SOL    HW210757   4.081   4.245   1.192
 3581SOL     OW10758   4.725   3.758   1.154
 3581SOL    HW110759   4.662   3.686   1.123
 3581SOL    HW210760   4.818   3.722   1.154
 3582SOL     OW10761   3.763   4.801   0.300
 3582SOL    HW110762   3.862   4.790   0.291
 3582SOL    HW210763   3.723   4.715   0.332
 3583SOL     OW10764   3.954   4.352   1.975
 3583SOL    HW110765   3.861   4.350   2.012
 3583SOL    HW210766   3.955   4.313   1.883
 3584SOL     OW10767   3.949   3.999   2.858
 3584SOL    HW110768   3.984   3.982   2.950
 3584SOL    HW210769   3.861   3.954   2.846
 3585SOL     OW10770   3.743   4.092   2.509
 3585SOL    HW110771   3.661   4.135   2.548
 3585SOL    HW210772   3.715   4.019   2.446
 3586SOL     OW10773   4.492   4.868   2.885
 3586SOL    HW110774   4.414   4.885   2.945
 3586SOL    HW210775   4.526   4.955   2.849
 3587SOL     OW10776   4.574   4.522   3.685
 3587SOL    HW110777   4.570   4.598   3.750
 3587SOL    HW210778   4.596   4.558   3.594
 3588SOL     OW10779   4.409   4.736   2.527
 3588SOL    HW110780   4.478   4.720   2.597
 3588SOL    HW210781   4.336   4.793   2.565
 3589SOL     OW10782   4.162   4.116   3.361
 3589SOL    HW110783   4.244   4.060   3.370
 3589SOL    HW210784   4.081   4.058   3.365
 3590SOL     OW10785   3.964   4.815   2.748
 3590SOL    HW110786   3.978   4.731   2.800
 3590SOL    HW210787   3.909   4.879   2.803
 3591SOL     OW10788   4.330   4.688   1.985
 3591SOL    HW110789   4.337   4.772   1.931
 3591SOL    HW210790   4.376   4.701   2.073
 3592SOL     OW10791   3.846   4.367   2.425
 3592SOL    HW110792   3.801   4.279   2.442
 3592SOL    HW210793   3.845   4.421   2.509
 3593SOL     OW10794   3.837   4.461   3.459
 3593SOL    HW110795   3.925   4.448   3.504
 3593SOL    HW210796   3.824   4.558   3.437
 3594SOL     OW10797   4.533   3.728   2.364
 3594SOL    HW110798   4.573   3.819   2.355
 3594SOL    HW210799   4.433   3.736   2.370
 3595SOL     OW10800   3.921   4.700   3.126
 3595SOL    HW110801   4.010   4.655   3.112
 3595SOL    HW210802   3.848   4.635   3.107
 3596SOL     OW10803   4.041   3.975   3.663
 3596SOL    HW110804   4.112   4.046   3.669
 3596SOL    HW210805   3.953   4.014   3.691
 3597SOL     OW10806   4.322   4.453   2.132
 3597SOL    HW110807   4.346   4.522   2.064
 3597SOL    HW210808   4.244   4.486   2.186
 3598SOL     OW10809   4.531   4.329   3.327
 3598SOL    HW110810   4.484   4.326   3.416
 3598SOL    HW210811   4.480   4.274   3.261
 3599SOL     OW10812   4.697   4.614   3.434
 3599SOL    HW110813   4.743   4.530   3.405
 3599SOL    HW210814   4.641   4.648   3.359
 3600SOL     OW10815   4.715   4.134   3.104
 3600SOL    HW110816   4.638   4.168   3.158
 3600SOL    HW210817   4.681   4.083   3.025
 3601SOL     OW10818   4.765   4.425   2.291
 3601SOL    HW110819   4.791   4.421   2.387
 3601SOL    HW210820   4.680   4.374   2.277
 3602SOL     OW10821   3.800   4.535   2.651
 3602SOL    HW110822   3.899   4.523   2.660
 3602SOL    HW210823   3.776   4.630   2.672
 3603SOL     OW10824   4.589   4.072   2.057
 3603SOL    HW110825   4.648   4.135   2.008
 3603SOL    HW210826   4.608   3.978   2.028
 3604SOL     OW10827   4.274   3.920   2.747
 3604SOL    HW110828   4.269   3.915   2.847
 3604SOL    HW210829   4.276   4.016   2.718
 3605SOL     OW10830   3.926   4.009   3.360
 3605SOL    HW110831   3.846   4.069   3.347
 3605SOL    HW210832   3.916   3.960   3.446
 3606SOL     OW10833   4.106   4.424   2.342
 3606SOL    HW110834   4.151   4.334   2.339
 3606SOL    HW210835   4.012   4.413   2.375
 3607SOL     OW10836   4.338   3.846   1.979
 3607SOL    HW110837   4.436   3.824   1.986
 3607SOL    HW210838   4.307   3.829   1.886
 3608SOL     OW10839   4.505   3.988   3.611
 3608SOL    HW110840   4.572   3.927   3.654
 3608SOL    HW210841   4.432   4.007   3.676
 3609SOL     OW10842   4.646   4.227   2.761
 3609SOL    HW110843   4.621   4.218   2.665
 3609SOL    HW210844   4.694   4.145   2.792
 3610SOL     OW10845   4.263   3.788   2.374
 3610SOL    HW110846   4.182   3.789   2.432
 3610SOL    HW210847   4.266   3.871   2.319
 3611SOL     OW10848   4.021   3.759   2.033
 3611SOL    HW110849   4.070   3.843   2.012
 3611SOL    HW210850   4.083   3.694   2.078
 3612SOL     OW10851   4.659   3.960   2.342
 3612SOL    HW110852   4.611   4.001   2.264
 3612SOL    HW210853   4.758   3.958   2.323
 3613SOL     OW10854   4.756   4.273   1.878
 3613SOL    HW110855   4.715   4.355   1.839
 3613SOL    HW210856   4.820   4.299   1.951
 3614SOL     OW10857   3.802   4.280   3.248
 3614SOL    HW110858   3.894   4.279   3.207
 3614SOL    HW210859   3.796   4.354   3.315
 3615SOL     OW10860   4.285   3.946   3.009
 3615SOL    HW110861   4.323   3.862   3.046
 3615SOL    HW210862   4.197   3.965   3.053
 3616SOL     OW10863   4.590   4.178   2.504
 3616SOL    HW110864   4.558   4.250   2.442
 3616SOL    HW210865   4.614   4.097   2.451
 3617SOL     OW10866   4.741   3.763   2.615
 3617SOL    HW110867   4.669   3.768   2.546
 3617SOL    HW210868   4.717   3.694   2.684
 3618SOL     OW10869   4.251   3.980   2.190
 3618SOL    HW110870   4.278   3.921   2.115
 3618SOL    HW210871   4.251   4.075   2.159
 3619SOL     OW10872   4.639   3.813   3.264
 3619SOL    HW110873   4.664   3.793   3.169
 3619SOL    HW210874   4.711   3.869   3.306
 3620SOL     OW10875   4.134   4.537   3.113
 3620SOL    HW110876   4.220   4.549   3.163
 3620SOL    HW210877   4.092   4.450   3.140
 3621SOL     OW10878   4.290   4.261   2.727
 3621SOL    HW110879   4.302   4.327   2.653
 3621SOL    HW210880   4.336   4.295   2.810
 3622SOL     OW10881   4.126   4.475   3.460
 3622SOL    HW110882   4.194   4.530   3.413
 3622SOL    HW210883   4.166   4.387   3.487
 3623SOL     OW10884   4.737   3.829   3.632
 3623SOL    HW110885   4.743   3.914   3.580
 3623SOL    HW210886   4.769   3.753   3.575
 3624SOL     OW10887   4.228   3.774   3.602
 3624SOL    HW110888   4.186   3.717   3.532
 3624SOL    HW210889   4.162   3.843   3.634
 3625SOL     OW10890   4.297   4.594   2.891
 3625SOL    HW110891   4.341   4.683   2.882
 3625SOL    HW210892   4.234   4.594   2.968
 3626SOL     OW10893   4.933   4.249   2.137
 3626SOL    HW110894   4.946   4.165   2.191
 3626SOL    HW210895   4.904   4.323   2.197
 3627SOL     OW10896   4.031   3.937   3.093
 3627SOL    HW110897   4.008   3.974   3.183
 3627SOL    HW210898   4.001   3.842   3.087
 3628SOL     OW10899   4.456   4.358   2.926
 3628SOL    HW110900   4.515   4.332   2.850
 3628SOL    HW210901   4.428   4.454   2.915
 3629SOL     OW10902   4.031   3.787   2.480
 3629SOL    HW110903   4.020   3.881   2.513
 3629SOL    HW210904   4.026   3.724   2.557
 3630SOL     OW10905   4.747   4.490   2.828
 3630SOL    HW110906   4.762   4.511   2.924
 3630SOL    HW210907   4.717   4.395   2.819
 3631SOL     OW10908   4.074   4.622   3.666
 3631SOL    HW110909   4.150   4.666   3.714
 3631SOL    HW210910   4.109   4.575   3.584
 3632SOL     OW10911   4.043   4.534   2.811
 3632SOL    HW110912   4.136   4.570   2.816
 3632SOL    HW210913   4.037   4.449   2.863
 3633SOL     OW10914   4.063   4.233   2.868
 3633SOL    HW110915   4.011   4.150   2.851
 3633SOL    HW210916   4.140   4.238   2.804
 3634SOL     OW10917   4.726   4.520   3.100
 3634SOL    HW110918   4.767   4.488   3.186
 3634SOL    HW210919   4.630   4.493   3.097
 3635SOL     OW10920   3.764   4.268   2.976
 3635SOL    HW110921   3.849   4.235   2.935
 3635SOL    HW210922   3.777   4.283   3.074
 3636SOL     OW10923   3.913   4.244   3.584
 3636SOL    HW110924   3.972   4.204   3.514
 3636SOL    HW210925   3.855   4.315   3.543
 3637SOL     OW10926   4.539   4.296   2.187
 3637SOL    HW110927   4.546   4.207   2.141
 3637SOL    HW210928   4.445   4.330   2.179
 3638SOL     OW10929   4.395   4.188   3.131
 3638SOL    HW110930   4.361   4.099   3.101
 3638SOL    HW210931   4.421   4.242   3.051
 3639SOL     OW10932   4.197   4.224   2.053
 3639SOL    HW110933   4.258   4.304   2.057
 3639SOL    HW210934   4.102   4.255   2.060
 3640SOL     OW10935   3.883   4.861   3.328
 3640SOL    HW110936   3.905   4.800   3.404
 3640SOL    HW210937   3.893   4.812   3.242
 3641SOL     OW10938   5.026   4.579   2.171
 3641SOL    HW110939   4.940   4.548   2.213
 3641SOL    HW210940   5.022   4.565   2.072
 3642SOL     OW10941   5.004   4.651   2.534
 3642SOL    HW110942   5.064   4.570   2.536
 3642SOL    HW210943   5.044   4.720   2.474
 3643SOL     OW10944   3.987   4.050   2.582
 3643SOL    HW110945   3.908   4.101   2.548
 3643SOL    HW210946   3.978   4.035   2.680
 3644SOL     OW10947   4.640   4.634   2.153
 3644SOL    HW110948   4.703   4.672   2.085
 3644SOL    HW210949   4.680   4.551   2.192
 3645SOL     OW10950   4.738   3.960   2.833
 3645SOL    HW110951   4.730   3.924   2.740
 3645SOL    HW210952   4.736   3.884   2.898
 3646SOL     OW10953   3.829   4.737   3.588
 3646SOL    HW110954   3.752   4.704   3.642
 3646SOL    HW210955   3.914   4.707   3.630
 3647SOL     OW10956   4.396   3.927   3.351
 3647SOL    HW110957   4.486   3.911   3.311
 3647SOL    HW210958   4.404   3.932   3.450
 3648SOL     OW10959   3.799   4.069   1.895
 3648SOL    HW110960   3.707   4.041   1.866
 3648SOL    HW210961   3.830   4.146   1.839
 3649SOL     OW10962   3.796   3.890   2.180
 3649SOL    HW110963   3.779   3.973   2.126
 3649SOL    HW210964   3.886   3.853   2.158
 3650SOL     OW10965   4.337   4.566   3.293
 3650SOL    HW110966   4.393   4.647   3.276
 3650SOL    HW210967   4.396   4.486   3.296
 3651SOL     OW10968   4.440   4.289   3.570
 3651SOL    HW110969   4.459   4.354   3.644
 3651SOL    HW210970   4.500   4.209   3.579
 3652SOL     OW10971   4.949   4.049   2.311
 3652SOL    HW110972   5.014   3.975   2.300
 3652SOL    HW210973   4.969   4.099   2.395
 3653SOL     OW10974   4.318   4.469   2.514
 3653SOL    HW110975   4.368   4.554   2.495
 3653SOL    HW210976   4.230   4.471   2.466
 3654SOL     OW10977   4.583   4.680   2.723
 3654SOL    HW110978   4.637   4.611   2.771
 3654SOL    HW210979   4.551   4.749   2.789
 3655SOL     OW10980   3.803   4.964   2.515
 3655SOL    HW110981   3.802   4.917   2.603
 3655SOL    HW210982   3.885   4.936   2.464
 3656SOL     OW10983   4.152   4.148   2.382
 3656SOL    HW110984   4.182   4.076   2.320
 3656SOL    HW210985   4.113   4.108   2.465
 3657SOL     OW10986   4.041   4.271   3.142
 3657SOL    HW110987   4.079   4.212   3.214
 3657SOL    HW210988   4.081   4.245   3.054
 3658SOL     OW10989   4.725   3.758   3.016
 3658SOL    HW110990   4.662   3.686   2.985
 3658SOL    HW210991   4.818   3.722   3.016
 3659SOL     OW10992   3.763   4.801   2.162
 3659SOL    HW110993   3.862   4.790   2.153
 3659SOL    HW210994   3.723   4.715   2.194
 3660SOL     OW10995   3.954   4.352   3.837
 3660SOL    HW110996   3.861   4.350   3.874
 3660SOL    HW210997   3.955   4.313   3.745
 3661SOL     OW10998   3.949   3.999   4.720
 3661SOL    HW110999   3.984   3.982   4.812
 3661SOL    HW211000   3.861   3.954   4.708
 3662SOL     OW11001   3.743   4.092   4.371
 3662SOL    HW111002   3.661   4.135   4.410
 3662SOL    HW211003   3.715   4.019   4.308
 3663SOL     OW11004   4.409   4.736   4.389
 3663SOL    HW111005   4.478   4.720   4.459
 3663SOL    HW211006   4.336   4.793   4.427
 3664SOL     OW11007   3.964   4.815   4.610
 3664SOL    HW111008   3.978   4.731   4.662
 3664SOL    HW211009   3.909   4.879   4.665
 3665SOL     OW11010   4.330   4.688   3.847
 3665SOL    HW111011   4.337   4.772   3.793
 3665SOL    HW211012   4.376   4.701   3.935
 3666SOL     OW11013   3.846   4.367   4.287
 3666SOL    HW111014   3.801   4.279   4.304
 3666SOL    HW211015   3.845   4.421   4.371
 3667SOL     OW11016   4.533   3.728   4.226
 3667SOL    HW111017   4.573   3.819   4.217
 3667SOL    HW211018   4.433   3.736   4.232
 3668SOL     OW11019   3.921   4.700   4.988
 3668SOL    HW111020   4.010   4.655   4.974
 3668SOL    HW211021   3.848   4.635   4.969
 3669SOL     OW11022   4.322   4.453   3.994
 3669SOL    HW111023   4.346   4.522   3.926
 3669SOL    HW211024   4.244   4.486   4.048
 3670SOL     OW11025   4.765   4.425   4.153
 3670SOL    HW111026   4.791   4.421   4.249
 3670SOL    HW211027   4.680   4.374   4.139
 3671SOL     OW11028   3.800   4.535   4.513
 3671SOL    HW111029   3.899   4.523   4.522
 3671SOL    HW211030   3.776   4.630   4.534
 3672SOL     OW11031   4.589   4.072   3.919
 3672SOL    HW111032   4.648   4.135   3.870
 3672SOL    HW211033   4.608   3.978   3.890
 3673SOL     OW11034   4.274   3.920   4.609
 3673SOL    HW111035   4.269   3.915   4.709
 3673SOL    HW211036   4.276   4.016   4.580
 3674SOL     OW11037   4.106   4.424   4.204
 3674SOL    HW111038   4.151   4.334   4.201
 3674SOL    HW211039   4.012   4.413   4.237
 3675SOL     OW11040   4.338   3.846   3.841
 3675SOL    HW111041   4.436   3.824   3.848
 3675SOL    HW211042   4.307   3.829   3.748
 3676SOL     OW11043   4.646   4.227   4.623
 3676SOL    HW111044   4.621   4.218   4.527
 3676SOL    HW211045   4.694   4.145   4.654
 3677SOL     OW11046   4.263   3.788   4.236
 3677SOL    HW111047   4.182   3.789   4.294
 3677SOL    HW211048   4.266   3.871   4.181
 3678SOL     OW11049   4.021   3.759   3.895
 3678SOL    HW111050   4.070   3.843   3.874
 3678SOL    HW211051   4.083   3.694   3.940
 3679SOL     OW11052   4.659   3.960   4.204
 3679SOL    HW111053   4.611   4.001   4.126
 3679SOL    HW211054   4.758   3.958   4.185
 3680SOL     OW11055   4.756   4.273   3.740
 3680SOL    HW111056   4.715   4.355   3.701
 3680SOL    HW211057   4.820   4.299   3.813
 3681SOL     OW11058   4.590   4.178   4.366
 3681SOL    HW111059   4.558   4.250   4.304
 3681SOL    HW211060   4.614   4.097   4.313
 3682SOL     OW11061   4.741   3.763   4.477
 3682SOL    HW111062   4.669   3.768   4.408
 3682SOL    HW211063   4.717   3.694   4.546
 3683SOL     OW11064   4.251   3.980   4.052
 3683SOL    HW111065   4.278   3.921   3.977
 3683SOL    HW211066   4.251   4.075   4.021
 3684SOL     OW11067   4.290   4.261   4.589
 3684SOL    HW111068   4.302   4.327   4.515
 3684SOL    HW211069   4.336   4.295   4.672
 3685SOL     OW11070   4.297   4.594   4.753
 3685SOL    HW111071   4.341   4.683   4.744
 3685SOL    HW211072   4.234   4.594   4.830
 3686SOL     OW11073   4.933   4.249   3.999
 3686SOL    HW111074   4.946   4.165   4.053
 3686SOL    HW211075   4.904   4.323   4.059
 3687SOL     OW11076   4.031   3.937   4.955
 3687SOL    HW111077   4.008   3.974   5.045
 3687SOL    HW211078   4.001   3.842   4.949
 3688SOL     OW11079   4.456   4.358   4.788
 3688SOL    HW111080   4.515   4.332   4.712
 3688SOL    HW211081   4.428   4.454   4.777
 3689SOL     OW11082   4.031   3.787   4.342
 3689SOL    HW111083   4.020   3.881   4.375
 3689SOL    HW211084   4.026   3.724   4.419
 3690SOL     OW11085   4.043   4.534   4.673
 3690SOL    HW111086   4.136   4.570   4.678
 3690SOL    HW211087   4.037   4.449   4.725
 3691SOL     OW11088   4.063   4.233   4.730
 3691SOL    HW111089   4.011   4.150   4.713
 3691SOL    HW211090   4.140   4.238   4.666
 3692SOL     OW11091   4.726   4.520   4.962
 3692SOL    HW111092   4.767   4.488   5.048
 3692SOL    HW211093   4.630   4.493   4.959
 3693SOL     OW11094   4.539   4.296   4.049
 3693SOL    HW111095   4.546   4.207   4.003
 3693SOL    HW211096   4.445   4.330   4.041
 3694SOL     OW11097   4.395   4.188   4.993
 3694SOL    HW111098   4.361   4.099   4.963
 3694SOL    HW211099   4.421   4.242   4.913
 3695SOL     OW11100   4.197   4.224   3.915
 3695SOL    HW111101   4.258   4.304   3.919
 3695SOL    HW211102   4.102   4.255   3.922
 3696SOL     OW11103   5.026   4.579   4.033
 3696SOL    HW111104   4.940   4.548   4.075
 3696SOL    HW211105   5.022   4.565   3.934
 3697SOL     OW11106   5.004   4.651   4.396
 3697SOL    HW111107   5.064   4.570   4.398
 3697SOL    HW211108   5.044   4.720   4.336
 3698SOL     OW11109   3.987   4.050   4.444
 3698SOL    HW111110   3.908   4.101   4.410
 3698SOL    HW211111   3.978   4.035   4.542
 3699SOL     OW11112   4.640   4.634   4.015
 3699SOL    HW111113   4.703   4.672   3.947
 3699SOL    HW211114   4.680   4.551   4.054
 3700SOL     OW11115   4.738   3.960   4.695
 3700SOL    HW111116   4.730   3.924   4.602
 3700SOL    HW211117   4.736   3.884   4.760
 3701SOL     OW11118   3.799   4.069   3.757
 3701SOL    HW111119   3.707   4.041   3.728
 3701SOL    HW211120   3.830   4.146   3.701
 3702SOL     OW11121   3.796   3.890   4.042
 3702SOL    HW111122   3.779   3.973   3.988
 3702SOL    HW211123   3.886   3.853   4.020
 3703SOL     OW11124   4.949   4.049   4.173
 3703SOL    HW111125   5.014   3.975   4.162
 3703SOL    HW211126   4.969   4.099   4.257
 3704SOL     OW11127   4.318   4.469   4.376
 3704SOL    HW111128   4.368   4.554   4.357
 3704SOL    HW211129   4.230   4.471   4.328
 3705SOL     OW11130   4.583   4.680   4.585
 3705SOL    HW111131   4.637   4.611   4.633
 3705SOL    HW211132   4.551   4.749   4.651
 3706SOL     OW11133   3.803   4.964   4.377
 3706SOL    HW111134   3.802   4.917   4.465
 3706SOL    HW211135   3.885   4.936   4.326
 3707SOL     OW11136   4.152   4.148   4.244
 3707SOL    HW111137   4.182   4.076   4.182
 3707SOL    HW211138   4.113   4.108   4.327
 3708SOL     OW11139   3.763   4.801   4.024
 3708SOL    HW111140   3.862   4.790   4.015
 3708SOL    HW211141   3.723   4.715   4.056
   4.81571   4.81571   4.81571
