; mobley_2310185_GMX_OPLS.top created by acpype (v: 2023.10.27) on Wed May 20 23:42:16 2026

; Include forcefield parameters
#include "ffoplsaa.itp"

; Include mobley_2310185_GMX.itp topology
#include "mobley_2310185_GMX.itp"

; Ligand position restraints
#ifdef POSRES_LIG
#include "posre_mobley_2310185.itp"
#endif

[ system ]
 mobley_2310185

[ molecules ]
; Compound        nmols
 mobley_2310185   1     
