mobley_2763835_GMX.gro created by acpype (v: 2023.10.27) on Wed May 20 23:42:50 2026
   19
    1MOL     C1    1   2.420   2.347   2.107
    1MOL     C2    2   2.313   2.407   2.174
    1MOL     C3    3   2.525   2.291   2.179
    1MOL     C4    4   2.311   2.410   2.314
    1MOL     C5    5   2.523   2.294   2.319
    1MOL     C6    6   2.416   2.353   2.386
    1MOL     C7    7   2.413   2.495   2.718
    1MOL     C8    8   2.348   2.466   2.584
    1MOL     O1    9   2.414   2.356   2.522
    1MOL     H1   10   2.421   2.345   1.998
    1MOL     H2   11   2.231   2.451   2.118
    1MOL     H3   12   2.608   2.244   2.127
    1MOL     H4   13   2.228   2.457   2.366
    1MOL     H5   14   2.605   2.249   2.375
    1MOL     H6   15   2.364   2.579   2.768
    1MOL     H7   16   2.407   2.406   2.782
    1MOL     H8   17   2.519   2.518   2.705
    1MOL     H9   18   2.355   2.553   2.518
    1MOL    H10   19   2.242   2.441   2.597
   4.80679   4.80679   4.80679
