hexafluoropropene
     9
   1.1670000   0.4710000  -0.4490000   0.0000000  -0.0000000   0.0000000
   1.4860000   0.7500000  -1.8750000   2.1360000   0.7130000   0.4640000
  -0.1970000  -0.2230000   1.3160000  -0.9960000  -0.2570000  -0.8750000
   2.7430000   1.2230000  -2.0690000   1.3670000  -0.3680000  -2.6340000
   0.6360000   1.6700000  -2.3980000
