; mobley_5494918_GMX_OPLS.top created by acpype (v: 2023.10.27) on Wed May 20 23:55:03 2026

; Include forcefield parameters
#include "ffoplsaa.itp"

; Include mobley_5494918_GMX.itp topology
#include "mobley_5494918_GMX.itp"

; Ligand position restraints
#ifdef POSRES_LIG
#include "posre_mobley_5494918.itp"
#endif

[ system ]
 mobley_5494918

[ molecules ]
; Compound        nmols
 mobley_5494918   1     
