; mobley_5494918_GMX_OPLS.itp created by acpype (v: 2023.10.27) on Wed May 20 23:55:03 2026

; For OPLS atomtypes manual fine tuning
; AC_at:OPLS_at:OPLScode: Possible_Alternatives (see ffoplsaa.atp and ffoplsaanb.itp)
; c2:CR:opls_509: ['510']
; c3:CT:opls_135: ['136', '137', '149', '157', '158', '206', '209', '210', '223B', '224B', '245', '246', '274', '283', '284', '285', '292', '292B', '293B', '296', '307', '308', '505']
; f:x:opls_x: []

[ moleculetype ]
;name            nrexcl
 mobley_5494918   3

[ atoms ]
;   nr  type  resi  res  atom  cgnr     charge      mass       ; qtot   bond_type
     1 opls_509     1   MOL    C1    1    -0.055700     12.01100 ; qtot -0.056  CR  
     2 opls_509     1   MOL    C2    2     0.378000     12.01100 ; qtot  0.322  CR  
     3 opls_135     1   MOL    C3    3     0.695101     12.01100 ; qtot  1.017  CT  
     4 opls_x     1   MOL    F1    4    -0.111500      0.00000 ; qtot  0.906  x   
     5 opls_x     1   MOL    F2    5    -0.129000      0.00000 ; qtot  0.777  x   
     6 opls_x     1   MOL    F3    6    -0.129000      0.00000 ; qtot  0.648  x   
     7 opls_x     1   MOL    F4    7    -0.215967      0.00000 ; qtot  0.432  x   
     8 opls_x     1   MOL    F5    8    -0.215967      0.00000 ; qtot  0.216  x   
     9 opls_x     1   MOL    F6    9    -0.215967      0.00000 ; qtot -0.000  x   

[ bonds ]
;   ai     aj funct   r             k
     1      2   1 ;    1.3379e-01    3.6484e+05 ;     C1 - C2         CR - CR    
     1      3   1 ;    1.5088e-01    2.0786e+05 ;     C1 - C3         CR - CT    
     1      4   1 ;    1.3375e-01    2.9339e+05 ;     C1 - F1         CR - x     
     2      5   1 ;    1.3375e-01    2.9339e+05 ;     C2 - F2         CR - x     
     2      6   1 ;    1.3375e-01    2.9339e+05 ;     C2 - F3         CR - x     
     3      7   1 ;    1.3512e-01    2.7973e+05 ;     C3 - F4         CT - x     
     3      8   1 ;    1.3512e-01    2.7973e+05 ;     C3 - F5         CT - x     
     3      9   1 ;    1.3512e-01    2.7973e+05 ;     C3 - F6         CT - x     

[ pairs ]
;   ai     aj    funct
     2      7      1 ;     C2 - F4    
     2      8      1 ;     C2 - F5    
     2      9      1 ;     C2 - F6    
     3      5      1 ;     C3 - F2    
     3      6      1 ;     C3 - F3    
     4      5      1 ;     F1 - F2    
     4      6      1 ;     F1 - F3    
     4      7      1 ;     F1 - F4    
     4      8      1 ;     F1 - F5    
     4      9      1 ;     F1 - F6    

[ angles ]
;   ai     aj     ak    funct   theta         cth
     1      2      5      1 ;    1.2284e+02    6.8199e+02 ;     C1 - C2   - F2       CR -   CR - x   
     1      2      6      1 ;    1.2284e+02    6.8199e+02 ;     C1 - C2   - F3       CR -   CR - x   
     1      3      7      1 ;    1.1111e+02    6.6668e+02 ;     C1 - C3   - F4       CR -   CT - x   
     1      3      8      1 ;    1.1111e+02    6.6668e+02 ;     C1 - C3   - F5       CR -   CT - x   
     1      3      9      1 ;    1.1111e+02    6.6668e+02 ;     C1 - C3   - F6       CR -   CT - x   
     2      1      3      1 ;    1.2495e+02    5.0944e+02 ;     C2 - C1   - C3       CR -   CR - CT  
     2      1      4      1 ;    1.2284e+02    6.8199e+02 ;     C2 - C1   - F1       CR -   CR - x   
     3      1      4      1 ;    1.1403e+02    6.6049e+02 ;     C3 - C1   - F1       CT -   CR - x   
     5      2      6      1 ;    1.1204e+02    8.8450e+02 ;     F2 - C2   - F3        x -   CR - x   
     7      3      8      1 ;    1.0737e+02    8.9437e+02 ;     F4 - C3   - F5        x -   CT - x   
     7      3      9      1 ;    1.0737e+02    8.9437e+02 ;     F4 - C3   - F6        x -   CT - x   
     8      3      9      1 ;    1.0737e+02    8.9437e+02 ;     F5 - C3   - F6        x -   CT - x   

[ dihedrals ] ; propers
; for gromacs 4.5 or higher, using funct 9
;    i      j      k      l   func   phase     kd      pn
     2      1      3      7      9 ;     0.00   0.00000   0 ;     C2-    C1-    C3-    F4
     2      1      3      8      9 ;     0.00   0.00000   0 ;     C2-    C1-    C3-    F5
     2      1      3      9      9 ;     0.00   0.00000   0 ;     C2-    C1-    C3-    F6
     3      1      2      5      9 ;   180.00  27.82360   2 ;     C3-    C1-    C2-    F2
     3      1      2      6      9 ;   180.00  27.82360   2 ;     C3-    C1-    C2-    F3
     4      1      2      5      9 ;   180.00  27.82360   2 ;     F1-    C1-    C2-    F2
     4      1      2      6      9 ;   180.00  27.82360   2 ;     F1-    C1-    C2-    F3
     4      1      3      7      9 ;     0.00   0.00000   0 ;     F1-    C1-    C3-    F4
     4      1      3      8      9 ;     0.00   0.00000   0 ;     F1-    C1-    C3-    F5
     4      1      3      9      9 ;     0.00   0.00000   0 ;     F1-    C1-    C3-    F6

[ dihedrals ] ; impropers
; treated as propers in GROMACS to use correct AMBER analytical function
;    i      j      k      l   func   phase     kd      pn
     1      5      2      6      4 ;   180.00   4.60240   2 ;     C1-    F2-    C2-    F3
     4      1      3      2      4 ;   180.00   4.60240   2 ;     F1-    C1-    C3-    C2
