mobley_5494918_GMX.gro created by acpype (v: 2023.10.27) on Wed May 20 23:55:03 2026
 9
    1  MOL   C1    1   0.117   0.047  -0.045
    1  MOL   C2    2   0.000  -0.000   0.000
    1  MOL   C3    3   0.149   0.075  -0.188
    1  MOL   F1    4   0.214   0.071   0.046
    1  MOL   F2    5  -0.020  -0.022   0.132
    1  MOL   F3    6  -0.100  -0.026  -0.088
    1  MOL   F4    7   0.274   0.122  -0.207
    1  MOL   F5    8   0.137  -0.037  -0.263
    1  MOL   F6    9   0.064   0.167  -0.240
    7.47800     4.07600     7.90000
