mobley_8765203_GMX.gro created by acpype (v: 2023.10.27) on Thu May 21 00:04:39 2026
   13
    1MOL     C1    1   2.316   2.462   2.340
    1MOL     C2    2   2.232   2.104   2.331
    1MOL     C3    3   2.284   2.337   2.374
    1MOL     C4    4   2.263   2.225   2.282
    1MOL     C5    5   2.277   2.247   2.134
    1MOL     H1    6   2.329   2.537   2.417
    1MOL     H2    7   2.329   2.494   2.237
    1MOL     H3    8   2.216   2.019   2.264
    1MOL     H4    9   2.222   2.085   2.437
    1MOL     H5   10   2.273   2.315   2.480
    1MOL     H6   11   2.205   2.322   2.099
    1MOL     H7   12   2.259   2.156   2.077
    1MOL     H8   13   2.378   2.281   2.109
   4.55182   4.55182   4.55182
