mobley_3398536_GMX.gro created by acpype (v: 2023.10.27) on Wed May 20 23:45:39 2026
   12
    1MOL     C1    1   2.300   2.295   2.151
    1MOL     C2    2   2.193   2.355   2.218
    1MOL     C3    3   2.405   2.239   2.223
    1MOL     C4    4   2.191   2.358   2.358
    1MOL     C5    5   2.403   2.242   2.363
    1MOL     C6    6   2.296   2.301   2.430
    1MOL     I1    7   2.294   2.306   2.638
    1MOL     H1    8   2.301   2.293   2.042
    1MOL     H2    9   2.111   2.399   2.162
    1MOL     H3   10   2.488   2.192   2.171
    1MOL     H4   11   2.107   2.405   2.408
    1MOL     H5   12   2.486   2.197   2.417
   4.59618   4.59618   4.59618
