mobley_6843802_GMX.gro created by acpype (v: 2023.10.27) on Wed May 20 23:56:36 2026
   19
    1MOL     C1    1   2.466   2.420   2.113
    1MOL     C2    2   2.359   2.480   2.180
    1MOL     C3    3   2.571   2.364   2.185
    1MOL     C4    4   2.357   2.483   2.320
    1MOL     C5    5   2.569   2.367   2.325
    1MOL     C6    6   2.462   2.426   2.392
    1MOL     C7    7   2.333   2.428   2.593
    1MOL     C8    8   2.348   2.363   2.729
    1MOL     O1    9   2.460   2.429   2.528
    1MOL     F1   10   2.293   2.556   2.612
    1MOL     F2   11   2.229   2.365   2.794
    1MOL     F3   12   2.435   2.434   2.804
    1MOL     H1   13   2.467   2.418   2.004
    1MOL     H2   14   2.277   2.524   2.124
    1MOL     H3   15   2.654   2.317   2.133
    1MOL     H4   16   2.274   2.530   2.372
    1MOL     H5   17   2.651   2.322   2.381
    1MOL     H6   18   2.258   2.374   2.534
    1MOL     H7   19   2.384   2.260   2.722
   4.82677   4.82677   4.82677
