; mobley_6739648_GMX_OPLS.top created by acpype (v: 2023.10.27) on Wed May 20 23:50:52 2026

; Include forcefield parameters
#include "ffoplsaa.itp"

; Include mobley_6739648_GMX.itp topology
#include "mobley_6739648_GMX.itp"

; Ligand position restraints
#ifdef POSRES_LIG
#include "posre_mobley_6739648.itp"
#endif

[ system ]
 mobley_6739648

[ molecules ]
; Compound        nmols
 mobley_6739648   1     
