14_dioxane
    14
  -0.4850000  -0.3530000   0.9150000  -0.1540000  -1.8160000   1.1640000
  -0.6070000   0.0150000   3.2350000  -0.2750000  -1.4480000   3.4840000
  -0.0130000   0.4410000   2.0060000  -0.7470000  -2.2420000   2.3930000
   0.0000000  -0.0000000  -0.0000000  -1.5660000  -0.2030000   0.8120000
  -0.5490000  -2.4420000   0.3580000   0.9290000  -1.9730000   1.2230000
  -1.6900000   0.1710000   3.1750000  -0.2120000   0.6410000   4.0410000
   0.8060000  -1.5980000   3.5860000  -0.7600000  -1.8010000   4.3990000
