; mobley_6739648_GMX_OPLS.itp created by acpype (v: 2023.10.27) on Wed May 20 23:50:52 2026

; For OPLS atomtypes manual fine tuning
; AC_at:OPLS_at:OPLScode: Possible_Alternatives (see ffoplsaa.atp and ffoplsaanb.itp)
; c6:x:opls_x: []
; os:x:opls_x: []
; h1:HC:opls_140: []

[ moleculetype ]
;name            nrexcl
 mobley_6739648   3

[ atoms ]
;   nr  type  resi  res  atom  cgnr     charge      mass       ; qtot   bond_type
     1 opls_x     1   MOL    C1    1     0.091400      0.00000 ; qtot  0.091  x   
     2 opls_x     1   MOL    C2    2     0.091400      0.00000 ; qtot  0.183  x   
     3 opls_x     1   MOL    C3    3     0.091400      0.00000 ; qtot  0.274  x   
     4 opls_x     1   MOL    C4    4     0.091400      0.00000 ; qtot  0.366  x   
     5 opls_x     1   MOL    O1    5    -0.411600      0.00000 ; qtot -0.046  x   
     6 opls_x     1   MOL    O2    6    -0.411600      0.00000 ; qtot -0.458  x   
     7 opls_140     1   MOL    H1    7     0.057200      1.00800 ; qtot -0.400  HC  
     8 opls_140     1   MOL    H2    8     0.057200      1.00800 ; qtot -0.343  HC  
     9 opls_140     1   MOL    H3    9     0.057200      1.00800 ; qtot -0.286  HC  
    10 opls_140     1   MOL    H4   10     0.057200      1.00800 ; qtot -0.229  HC  
    11 opls_140     1   MOL    H5   11     0.057200      1.00800 ; qtot -0.172  HC  
    12 opls_140     1   MOL    H6   12     0.057200      1.00800 ; qtot -0.114  HC  
    13 opls_140     1   MOL    H7   13     0.057200      1.00800 ; qtot -0.057  HC  
    14 opls_140     1   MOL    H8   14     0.057200      1.00800 ; qtot -0.000  HC  

[ bonds ]
;   ai     aj funct   r             k
     1      2   1 ;    1.5384e-01    1.8979e+05 ;     C1 - C2          x - x     
     1      5   1 ;    1.4300e-01    2.3412e+05 ;     C1 - O1          x - x     
     1      7   1 ;    1.0984e-01    2.8620e+05 ;     C1 - H1          x - HC    
     1      8   1 ;    1.0984e-01    2.8620e+05 ;     C1 - H2          x - HC    
     2      6   1 ;    1.4300e-01    2.3412e+05 ;     C2 - O2          x - x     
     2      9   1 ;    1.0984e-01    2.8620e+05 ;     C2 - H3          x - HC    
     2     10   1 ;    1.0984e-01    2.8620e+05 ;     C2 - H4          x - HC    
     3      4   1 ;    1.5384e-01    1.8979e+05 ;     C3 - C4          x - x     
     3      5   1 ;    1.4300e-01    2.3412e+05 ;     C3 - O1          x - x     
     3     11   1 ;    1.0984e-01    2.8620e+05 ;     C3 - H5          x - HC    
     3     12   1 ;    1.0984e-01    2.8620e+05 ;     C3 - H6          x - HC    
     4      6   1 ;    1.4300e-01    2.3412e+05 ;     C4 - O2          x - x     
     4     13   1 ;    1.0984e-01    2.8620e+05 ;     C4 - H7          x - HC    
     4     14   1 ;    1.0984e-01    2.8620e+05 ;     C4 - H8          x - HC    

[ pairs ]
;   ai     aj    funct
     1      4      1 ;     C1 - C4    
     1     11      1 ;     C1 - H5    
     1     12      1 ;     C1 - H6    
     2      3      1 ;     C2 - C3    
     2     13      1 ;     C2 - H7    
     2     14      1 ;     C2 - H8    
     4      9      1 ;     C4 - H3    
     4     10      1 ;     C4 - H4    
     5      6      1 ;     O1 - O2    
     5      9      1 ;     O1 - H3    
     5     10      1 ;     O1 - H4    
     5     13      1 ;     O1 - H7    
     5     14      1 ;     O1 - H8    
     6     11      1 ;     O2 - H5    
     6     12      1 ;     O2 - H6    
     7      3      1 ;     H1 - C3    
     7      6      1 ;     H1 - O2    
     7      9      1 ;     H1 - H3    
     7     10      1 ;     H1 - H4    
     8      3      1 ;     H2 - C3    
     8      6      1 ;     H2 - O2    
     8      9      1 ;     H2 - H3    
     8     10      1 ;     H2 - H4    
    11     13      1 ;     H5 - H7    
    11     14      1 ;     H5 - H8    
    12     13      1 ;     H6 - H7    
    12     14      1 ;     H6 - H8    

[ angles ]
;   ai     aj     ak    funct   theta         cth
     1      2      6      1 ;    1.1009e+02    6.3948e+02 ;     C1 - C2   - O2        x -    x - x   
     1      2      9      1 ;    1.0918e+02    3.6217e+02 ;     C1 - C2   - H3        x -    x - HC  
     1      2     10      1 ;    1.0918e+02    3.6217e+02 ;     C1 - C2   - H4        x -    x - HC  
     1      5      3      1 ;    1.1330e+02    7.3873e+02 ;     C1 - O1   - C3        x -    x - x   
     2      1      5      1 ;    1.1009e+02    6.3948e+02 ;     C2 - C1   - O1        x -    x - x   
     2      1      7      1 ;    1.0918e+02    3.6217e+02 ;     C2 - C1   - H1        x -    x - HC  
     2      1      8      1 ;    1.0918e+02    3.6217e+02 ;     C2 - C1   - H2        x -    x - HC  
     2      6      4      1 ;    1.1330e+02    7.3873e+02 ;     C2 - O2   - C4        x -    x - x   
     3      4      6      1 ;    1.1009e+02    6.3948e+02 ;     C3 - C4   - O2        x -    x - x   
     3      4     13      1 ;    1.0918e+02    3.6217e+02 ;     C3 - C4   - H7        x -    x - HC  
     3      4     14      1 ;    1.0918e+02    3.6217e+02 ;     C3 - C4   - H8        x -    x - HC  
     4      3      5      1 ;    1.1009e+02    6.3948e+02 ;     C4 - C3   - O1        x -    x - x   
     4      3     11      1 ;    1.0918e+02    3.6217e+02 ;     C4 - C3   - H5        x -    x - HC  
     4      3     12      1 ;    1.0918e+02    3.6217e+02 ;     C4 - C3   - H6        x -    x - HC  
     5      1      7      1 ;    1.0808e+02    4.7430e+02 ;     O1 - C1   - H1        x -    x - HC  
     5      1      8      1 ;    1.0808e+02    4.7430e+02 ;     O1 - C1   - H2        x -    x - HC  
     5      3     11      1 ;    1.0808e+02    4.7430e+02 ;     O1 - C3   - H5        x -    x - HC  
     5      3     12      1 ;    1.0808e+02    4.7430e+02 ;     O1 - C3   - H6        x -    x - HC  
     6      2      9      1 ;    1.0808e+02    4.7430e+02 ;     O2 - C2   - H3        x -    x - HC  
     6      2     10      1 ;    1.0808e+02    4.7430e+02 ;     O2 - C2   - H4        x -    x - HC  
     6      4     13      1 ;    1.0808e+02    4.7430e+02 ;     O2 - C4   - H7        x -    x - HC  
     6      4     14      1 ;    1.0808e+02    4.7430e+02 ;     O2 - C4   - H8        x -    x - HC  
     7      1      8      1 ;    1.0750e+02    2.9932e+02 ;     H1 - C1   - H2       HC -    x - HC  
     9      2     10      1 ;    1.0750e+02    2.9932e+02 ;     H3 - C2   - H4       HC -    x - HC  
    11      3     12      1 ;    1.0750e+02    2.9932e+02 ;     H5 - C3   - H6       HC -    x - HC  
    13      4     14      1 ;    1.0750e+02    2.9932e+02 ;     H7 - C4   - H8       HC -    x - HC  

[ dihedrals ] ; propers
; for gromacs 4.5 or higher, using funct 9
;    i      j      k      l   func   phase     kd      pn
     1      2      6      4      9 ;     0.00   4.85344   3 ;     C1-    C2-    O2-    C4
     1      2      6      4      9 ;     0.00   5.77392   2 ;     C1-    C2-    O2-    C4
     1      2      6      4      9 ;   180.00   1.46440   1 ;     C1-    C2-    O2-    C4
     1      5      3      4      9 ;     0.00   4.85344   3 ;     C1-    O1-    C3-    C4
     1      5      3      4      9 ;     0.00   5.77392   2 ;     C1-    O1-    C3-    C4
     1      5      3      4      9 ;   180.00   1.46440   1 ;     C1-    O1-    C3-    C4
     1      5      3     11      9 ;     0.00   1.41001   3 ;     C1-    O1-    C3-    H5
     1      5      3     12      9 ;     0.00   1.41001   3 ;     C1-    O1-    C3-    H6
     2      1      5      3      9 ;     0.00   4.85344   3 ;     C2-    C1-    O1-    C3
     2      1      5      3      9 ;     0.00   5.77392   2 ;     C2-    C1-    O1-    C3
     2      1      5      3      9 ;   180.00   1.46440   1 ;     C2-    C1-    O1-    C3
     2      6      4      3      9 ;     0.00   4.85344   3 ;     C2-    O2-    C4-    C3
     2      6      4      3      9 ;     0.00   5.77392   2 ;     C2-    O2-    C4-    C3
     2      6      4      3      9 ;   180.00   1.46440   1 ;     C2-    O2-    C4-    C3
     2      6      4     13      9 ;     0.00   1.41001   3 ;     C2-    O2-    C4-    H7
     2      6      4     14      9 ;     0.00   1.41001   3 ;     C2-    O2-    C4-    H8
     4      6      2      9      9 ;     0.00   1.41001   3 ;     C4-    O2-    C2-    H3
     4      6      2     10      9 ;     0.00   1.41001   3 ;     C4-    O2-    C2-    H4
     5      1      2      6      9 ;     0.00   0.75312   1 ;     O1-    C1-    C2-    O2
     5      1      2      6      9 ;     0.00   2.09200   3 ;     O1-    C1-    C2-    O2
     5      1      2      6      9 ;     0.00   3.76560   2 ;     O1-    C1-    C2-    O2
     5      1      2      9      9 ;     0.00   0.00000   0 ;     O1-    C1-    C2-    H3
     5      1      2      9      9 ;     0.00   1.04600   1 ;     O1-    C1-    C2-    H3
     5      1      2     10      9 ;     0.00   0.00000   0 ;     O1-    C1-    C2-    H4
     5      1      2     10      9 ;     0.00   1.04600   1 ;     O1-    C1-    C2-    H4
     5      3      4      6      9 ;     0.00   0.75312   1 ;     O1-    C3-    C4-    O2
     5      3      4      6      9 ;     0.00   2.09200   3 ;     O1-    C3-    C4-    O2
     5      3      4      6      9 ;     0.00   3.76560   2 ;     O1-    C3-    C4-    O2
     5      3      4     13      9 ;     0.00   0.00000   0 ;     O1-    C3-    C4-    H7
     5      3      4     13      9 ;     0.00   1.04600   1 ;     O1-    C3-    C4-    H7
     5      3      4     14      9 ;     0.00   0.00000   0 ;     O1-    C3-    C4-    H8
     5      3      4     14      9 ;     0.00   1.04600   1 ;     O1-    C3-    C4-    H8
     6      4      3     11      9 ;     0.00   0.00000   0 ;     O2-    C4-    C3-    H5
     6      4      3     11      9 ;     0.00   1.04600   1 ;     O2-    C4-    C3-    H5
     6      4      3     12      9 ;     0.00   0.00000   0 ;     O2-    C4-    C3-    H6
     6      4      3     12      9 ;     0.00   1.04600   1 ;     O2-    C4-    C3-    H6
     7      1      2      6      9 ;     0.00   0.00000   0 ;     H1-    C1-    C2-    O2
     7      1      2      6      9 ;     0.00   1.04600   1 ;     H1-    C1-    C2-    O2
     7      1      2      9      9 ;     0.00   0.65084   3 ;     H1-    C1-    C2-    H3
     7      1      2     10      9 ;     0.00   0.65084   3 ;     H1-    C1-    C2-    H4
     7      1      5      3      9 ;     0.00   1.41001   3 ;     H1-    C1-    O1-    C3
     8      1      2      6      9 ;     0.00   0.00000   0 ;     H2-    C1-    C2-    O2
     8      1      2      6      9 ;     0.00   1.04600   1 ;     H2-    C1-    C2-    O2
     8      1      2      9      9 ;     0.00   0.65084   3 ;     H2-    C1-    C2-    H3
     8      1      2     10      9 ;     0.00   0.65084   3 ;     H2-    C1-    C2-    H4
     8      1      5      3      9 ;     0.00   1.41001   3 ;     H2-    C1-    O1-    C3
    11      3      4     13      9 ;     0.00   0.65084   3 ;     H5-    C3-    C4-    H7
    11      3      4     14      9 ;     0.00   0.65084   3 ;     H5-    C3-    C4-    H8
    12      3      4     13      9 ;     0.00   0.65084   3 ;     H6-    C3-    C4-    H7
    12      3      4     14      9 ;     0.00   0.65084   3 ;     H6-    C3-    C4-    H8
