%VERSION  VERSION_STAMP = V0001.000  DATE = 05/20/26  23:50:53                  
%FLAG TITLE                                                                     
%FORMAT(20a4)                                                                   
14_dioxane                                                                      
%FLAG POINTERS                                                                  
%FORMAT(10I8)                                                                   
      14       3       8       6      20       6      32      18       0       0
      69       1       6       6      18       3       5      10       3       0
       0       0       0       0       0       0       0       0      14       0
       0
%FLAG ATOM_NAME                                                                 
%FORMAT(20a4)                                                                   
C1  C2  C3  C4  O1  O2  H1  H2  H3  H4  H5  H6  H7  H8  
%FLAG CHARGE                                                                    
%FORMAT(5E16.8)                                                                 
  1.66551822E+00  1.66551822E+00  1.66551822E+00  1.66551822E+00 -7.51852098E+00
 -7.51852098E+00  1.04231556E+00  1.04231556E+00  1.04231556E+00  1.04231556E+00
  1.04231556E+00  1.04231556E+00  1.04231556E+00  1.04231556E+00
%FLAG ATOMIC_NUMBER                                                             
%FORMAT(10I8)                                                                   
       6       6       6       6       8       8       1       1       1       1
       1       1       1       1
%FLAG MASS                                                                      
%FORMAT(5E16.8)                                                                 
  1.20100000E+01  1.20100000E+01  1.20100000E+01  1.20100000E+01  1.60000000E+01
  1.60000000E+01  1.00800000E+00  1.00800000E+00  1.00800000E+00  1.00800000E+00
  1.00800000E+00  1.00800000E+00  1.00800000E+00  1.00800000E+00
%FLAG ATOM_TYPE_INDEX                                                           
%FORMAT(10I8)                                                                   
       1       1       1       1       2       2       3       3       3       3
       3       3       3       3
%FLAG NUMBER_EXCLUDED_ATOMS                                                     
%FORMAT(10I8)                                                                   
      11      10       9       8       9       8       3       2       1       1
       3       2       1       1
%FLAG NONBONDED_PARM_INDEX                                                      
%FORMAT(10I8)                                                                   
       1       2       4       2       3       5       4       5       6
%FLAG RESIDUE_LABEL                                                             
%FORMAT(20a4)                                                                   
MOL 
%FLAG RESIDUE_POINTER                                                           
%FORMAT(10I8)                                                                   
       1
%FLAG BOND_FORCE_CONSTANT                                                       
%FORMAT(5E16.8)                                                                 
  2.26810000E+02  2.79780000E+02  3.42020000E+02
%FLAG BOND_EQUIL_VALUE                                                          
%FORMAT(5E16.8)                                                                 
  1.53840000E+00  1.43000000E+00  1.09840000E+00
%FLAG ANGLE_FORCE_CONSTANT                                                      
%FORMAT(5E16.8)                                                                 
  7.64200000E+01  4.32800000E+01  8.82800000E+01  5.66800000E+01  3.57700000E+01
%FLAG ANGLE_EQUIL_VALUE                                                         
%FORMAT(5E16.8)                                                                 
  1.92143380E+00  1.90555129E+00  1.97745889E+00  1.88635266E+00  1.87622975E+00
%FLAG DIHEDRAL_FORCE_CONSTANT                                                   
%FORMAT(5E16.8)                                                                 
  3.50000000E-01  1.38000000E+00  1.16000000E+00  3.37000000E-01  1.80000000E-01
  9.00000000E-01  5.00000000E-01  2.50000000E-01  0.00000000E+00  1.55555556E-01
%FLAG DIHEDRAL_PERIODICITY                                                      
%FORMAT(5E16.8)                                                                 
  1.00000000E+00  2.00000000E+00  3.00000000E+00  3.00000000E+00  1.00000000E+00
  2.00000000E+00  3.00000000E+00  1.00000000E+00  3.00000000E+00  3.00000000E+00
%FLAG DIHEDRAL_PHASE                                                            
%FORMAT(5E16.8)                                                                 
  3.14159400E+00  0.00000000E+00  0.00000000E+00  0.00000000E+00  0.00000000E+00
  0.00000000E+00  0.00000000E+00  0.00000000E+00  0.00000000E+00  0.00000000E+00
%FLAG SCEE_SCALE_FACTOR                                                         
%FORMAT(5E16.8)                                                                 
  1.20000000E+00  1.20000000E+00  1.20000000E+00  1.20000000E+00  1.20000000E+00
  1.20000000E+00  1.20000000E+00  1.20000000E+00  1.20000000E+00  1.20000000E+00
%FLAG SCNB_SCALE_FACTOR                                                         
%FORMAT(5E16.8)                                                                 
  2.00000000E+00  2.00000000E+00  2.00000000E+00  2.00000000E+00  2.00000000E+00
  2.00000000E+00  2.00000000E+00  2.00000000E+00  2.00000000E+00  2.00000000E+00
%FLAG SOLTY                                                                     
%FORMAT(5E16.8)                                                                 
  0.00000000E+00  0.00000000E+00  0.00000000E+00
%FLAG LENNARD_JONES_ACOEF                                                       
%FORMAT(5E16.8)                                                                 
  1.02073671E+06  5.42502534E+05  2.83662575E+05  6.97998263E+04  3.44374471E+04
  3.39005767E+03
%FLAG LENNARD_JONES_BCOEF                                                       
%FORMAT(5E16.8)                                                                 
  6.63431737E+02  4.38146883E+02  2.87011518E+02  1.14981426E+02  7.31636661E+01
  1.67944276E+01
%FLAG BONDS_INC_HYDROGEN                                                        
%FORMAT(10I8)                                                                   
       0      18       3       0      21       3       3      24       3       3
      27       3       6      30       3       6      33       3       9      36
       3       9      39       3
%FLAG BONDS_WITHOUT_HYDROGEN                                                    
%FORMAT(10I8)                                                                   
       0       3       1       0      12       2       3      15       2       6
       9       1       6      12       2       9      15       2
%FLAG ANGLES_INC_HYDROGEN                                                       
%FORMAT(10I8)                                                                   
       0       3      24       2       0       3      27       2       3       0
      18       2       3       0      21       2       6       9      36       2
       6       9      39       2       9       6      30       2       9       6
      33       2      12       0      18       4      12       0      21       4
      12       6      30       4      12       6      33       4      15       3
      24       4      15       3      27       4      15       9      36       4
      15       9      39       4      18       0      21       5      24       3
      27       5      30       6      33       5      36       9      39       5
%FLAG ANGLES_WITHOUT_HYDROGEN                                                   
%FORMAT(10I8)                                                                   
       0       3      15       1       0      12       6       3       3       0
      12       1       3      15       9       3       6       9      15       1
       9       6      12       1
%FLAG DIHEDRALS_INC_HYDROGEN                                                    
%FORMAT(10I8)                                                                   
       0      12       6      30       4       0      12       6      33       4
       3      15       9      36       4       3      15       9      39       4
      18       0      12       6       4      21       0      12       6       4
       9      15       3      24       4       9      15       3      27       4
      12       0       3      24       8      12       0      -3      24       9
      12       0       3      27       8      12       0      -3      27       9
      12       6       9      36       8      12       6      -9      36       9
      12       6       9      39       8      12       6      -9      39       9
      18       0       3      15       8      18       0      -3      15       9
      21       0       3      15       8      21       0      -3      15       9
      15       9       6      30       8      15       9      -6      30       9
      15       9       6      33       8      15       9      -6      33       9
      18       0       3      24      10      18       0       3      27      10
      21       0       3      24      10      21       0       3      27      10
      30       6       9      36      10      30       6       9      39      10
      33       6       9      36      10      33       6       9      39      10
%FLAG DIHEDRALS_WITHOUT_HYDROGEN                                                
%FORMAT(10I8)                                                                   
       0       3      15       9       1       0       3     -15       9       2
       0       3     -15       9       3       0      12      -6       9       1
       0      12      -6       9       2       0      12      -6       9       3
       3       0      12       6       1       3       0     -12       6       2
       3       0     -12       6       3       3      15      -9       6       1
       3      15      -9       6       2       3      15      -9       6       3
      12       0       3      15       5      12       0      -3      15       6
      12       0      -3      15       7      12       6      -9      15       5
      12       6      -9      15       6      12       6      -9      15       7
%FLAG EXCLUDED_ATOMS_LIST                                                       
%FORMAT(10I8)                                                                   
       2       3       4       5       6       7       8       9      10      11
      12       3       4       5       6       7       8       9      10      13
      14       4       5       6       7       8      11      12      13      14
       5       6       9      10      11      12      13      14       6       7
       8       9      10      11      12      13      14       7       8       9
      10      11      12      13      14       8       9      10       9      10
      10       0      12      13      14      13      14      14       0
%FLAG HBOND_ACOEF                                                               
%FORMAT(5E16.8)                                                                 

%FLAG HBOND_BCOEF                                                               
%FORMAT(5E16.8)                                                                 

%FLAG HBCUT                                                                     
%FORMAT(5E16.8)                                                                 

%FLAG AMBER_ATOM_TYPE                                                           
%FORMAT(20a4)                                                                   
c6  c6  c6  c6  os  os  h1  h1  h1  h1  h1  h1  h1  h1  
%FLAG TREE_CHAIN_CLASSIFICATION                                                 
%FORMAT(20a4)                                                                   
BLA BLA BLA BLA BLA BLA BLA BLA BLA BLA BLA BLA BLA BLA 
%FLAG JOIN_ARRAY                                                                
%FORMAT(10I8)                                                                   
       0       0       0       0       0       0       0       0       0       0
       0       0       0       0
%FLAG IROTAT                                                                    
%FORMAT(10I8)                                                                   
       0       0       0       0       0       0       0       0       0       0
       0       0       0       0
%FLAG RADIUS_SET                                                                
%FORMAT(1a80)                                                                   
modified Bondi radii (mbondi)                                                   
%FLAG RADII                                                                     
%FORMAT(5E16.8)                                                                 
  1.70000000E+00  1.70000000E+00  1.70000000E+00  1.70000000E+00  1.50000000E+00
  1.50000000E+00  1.30000000E+00  1.30000000E+00  1.30000000E+00  1.30000000E+00
  1.30000000E+00  1.30000000E+00  1.30000000E+00  1.30000000E+00
%FLAG SCREEN                                                                    
%FORMAT(5E16.8)                                                                 
  7.20000000E-01  7.20000000E-01  7.20000000E-01  7.20000000E-01  8.50000000E-01
  8.50000000E-01  8.50000000E-01  8.50000000E-01  8.50000000E-01  8.50000000E-01
  8.50000000E-01  8.50000000E-01  8.50000000E-01  8.50000000E-01
%FLAG IPOL                                                                      
%FORMAT(1I8)                                                                    
       0
