; mobley_6739648_GMX.itp created by acpype (v: 2023.10.27) on Wed May 20 23:50:52 2026

[ atomtypes ]
;name   bond_type     mass     charge   ptype   sigma         epsilon       Amb
 c6       c6          0.00000  0.00000   A     3.39771e-01   4.51035e-01 ; 1.91  0.1078
 os       os          0.00000  0.00000   A     3.15610e-01   3.03758e-01 ; 1.77  0.0726
 h1       h1          0.00000  0.00000   A     2.42200e-01   8.70272e-02 ; 1.36  0.0208

[ moleculetype ]
;name            nrexcl
 mobley_6739648   3

[ atoms ]
;   nr  type  resi  res  atom  cgnr     charge      mass       ; qtot   bond_type
     1   c6     1   MOL    C1    1     0.091400     12.01000 ; qtot 0.091
     2   c6     1   MOL    C2    2     0.091400     12.01000 ; qtot 0.183
     3   c6     1   MOL    C3    3     0.091400     12.01000 ; qtot 0.274
     4   c6     1   MOL    C4    4     0.091400     12.01000 ; qtot 0.366
     5   os     1   MOL    O1    5    -0.411600     16.00000 ; qtot -0.046
     6   os     1   MOL    O2    6    -0.411600     16.00000 ; qtot -0.458
     7   h1     1   MOL    H1    7     0.057200      1.00800 ; qtot -0.400
     8   h1     1   MOL    H2    8     0.057200      1.00800 ; qtot -0.343
     9   h1     1   MOL    H3    9     0.057200      1.00800 ; qtot -0.286
    10   h1     1   MOL    H4   10     0.057200      1.00800 ; qtot -0.229
    11   h1     1   MOL    H5   11     0.057200      1.00800 ; qtot -0.172
    12   h1     1   MOL    H6   12     0.057200      1.00800 ; qtot -0.114
    13   h1     1   MOL    H7   13     0.057200      1.00800 ; qtot -0.057
    14   h1     1   MOL    H8   14     0.057200      1.00800 ; qtot -0.000

[ bonds ]
;   ai     aj funct   r             k
     1      2   1    1.5384e-01    1.8979e+05 ;     C1 - C2    
     1      5   1    1.4300e-01    2.3412e+05 ;     C1 - O1    
     1      7   1    1.0984e-01    2.8620e+05 ;     C1 - H1    
     1      8   1    1.0984e-01    2.8620e+05 ;     C1 - H2    
     2      6   1    1.4300e-01    2.3412e+05 ;     C2 - O2    
     2      9   1    1.0984e-01    2.8620e+05 ;     C2 - H3    
     2     10   1    1.0984e-01    2.8620e+05 ;     C2 - H4    
     3      4   1    1.5384e-01    1.8979e+05 ;     C3 - C4    
     3      5   1    1.4300e-01    2.3412e+05 ;     C3 - O1    
     3     11   1    1.0984e-01    2.8620e+05 ;     C3 - H5    
     3     12   1    1.0984e-01    2.8620e+05 ;     C3 - H6    
     4      6   1    1.4300e-01    2.3412e+05 ;     C4 - O2    
     4     13   1    1.0984e-01    2.8620e+05 ;     C4 - H7    
     4     14   1    1.0984e-01    2.8620e+05 ;     C4 - H8    

[ pairs ]
;   ai     aj    funct
     1      4      1 ;     C1 - C4    
     1     11      1 ;     C1 - H5    
     1     12      1 ;     C1 - H6    
     2      3      1 ;     C2 - C3    
     2     13      1 ;     C2 - H7    
     2     14      1 ;     C2 - H8    
     4      9      1 ;     C4 - H3    
     4     10      1 ;     C4 - H4    
     5      6      1 ;     O1 - O2    
     5      9      1 ;     O1 - H3    
     5     10      1 ;     O1 - H4    
     5     13      1 ;     O1 - H7    
     5     14      1 ;     O1 - H8    
     6     11      1 ;     O2 - H5    
     6     12      1 ;     O2 - H6    
     7      3      1 ;     H1 - C3    
     7      6      1 ;     H1 - O2    
     7      9      1 ;     H1 - H3    
     7     10      1 ;     H1 - H4    
     8      3      1 ;     H2 - C3    
     8      6      1 ;     H2 - O2    
     8      9      1 ;     H2 - H3    
     8     10      1 ;     H2 - H4    
    11     13      1 ;     H5 - H7    
    11     14      1 ;     H5 - H8    
    12     13      1 ;     H6 - H7    
    12     14      1 ;     H6 - H8    

[ angles ]
;   ai     aj     ak    funct   theta         cth
     1      2      6      1    1.1009e+02    6.3948e+02 ;     C1 - C2     - O2    
     1      2      9      1    1.0918e+02    3.6217e+02 ;     C1 - C2     - H3    
     1      2     10      1    1.0918e+02    3.6217e+02 ;     C1 - C2     - H4    
     1      5      3      1    1.1330e+02    7.3873e+02 ;     C1 - O1     - C3    
     2      1      5      1    1.1009e+02    6.3948e+02 ;     C2 - C1     - O1    
     2      1      7      1    1.0918e+02    3.6217e+02 ;     C2 - C1     - H1    
     2      1      8      1    1.0918e+02    3.6217e+02 ;     C2 - C1     - H2    
     2      6      4      1    1.1330e+02    7.3873e+02 ;     C2 - O2     - C4    
     3      4      6      1    1.1009e+02    6.3948e+02 ;     C3 - C4     - O2    
     3      4     13      1    1.0918e+02    3.6217e+02 ;     C3 - C4     - H7    
     3      4     14      1    1.0918e+02    3.6217e+02 ;     C3 - C4     - H8    
     4      3      5      1    1.1009e+02    6.3948e+02 ;     C4 - C3     - O1    
     4      3     11      1    1.0918e+02    3.6217e+02 ;     C4 - C3     - H5    
     4      3     12      1    1.0918e+02    3.6217e+02 ;     C4 - C3     - H6    
     5      1      7      1    1.0808e+02    4.7430e+02 ;     O1 - C1     - H1    
     5      1      8      1    1.0808e+02    4.7430e+02 ;     O1 - C1     - H2    
     5      3     11      1    1.0808e+02    4.7430e+02 ;     O1 - C3     - H5    
     5      3     12      1    1.0808e+02    4.7430e+02 ;     O1 - C3     - H6    
     6      2      9      1    1.0808e+02    4.7430e+02 ;     O2 - C2     - H3    
     6      2     10      1    1.0808e+02    4.7430e+02 ;     O2 - C2     - H4    
     6      4     13      1    1.0808e+02    4.7430e+02 ;     O2 - C4     - H7    
     6      4     14      1    1.0808e+02    4.7430e+02 ;     O2 - C4     - H8    
     7      1      8      1    1.0750e+02    2.9932e+02 ;     H1 - C1     - H2    
     9      2     10      1    1.0750e+02    2.9932e+02 ;     H3 - C2     - H4    
    11      3     12      1    1.0750e+02    2.9932e+02 ;     H5 - C3     - H6    
    13      4     14      1    1.0750e+02    2.9932e+02 ;     H7 - C4     - H8    

[ dihedrals ] ; propers
; for gromacs 4.5 or higher, using funct 9
;    i      j      k      l   func   phase     kd      pn
     1      2      6      4      9     0.00   4.85344   3 ;     C1-    C2-    O2-    C4
     1      2      6      4      9     0.00   5.77392   2 ;     C1-    C2-    O2-    C4
     1      2      6      4      9   180.00   1.46440   1 ;     C1-    C2-    O2-    C4
     1      5      3      4      9     0.00   4.85344   3 ;     C1-    O1-    C3-    C4
     1      5      3      4      9     0.00   5.77392   2 ;     C1-    O1-    C3-    C4
     1      5      3      4      9   180.00   1.46440   1 ;     C1-    O1-    C3-    C4
     1      5      3     11      9     0.00   1.41001   3 ;     C1-    O1-    C3-    H5
     1      5      3     12      9     0.00   1.41001   3 ;     C1-    O1-    C3-    H6
     2      1      5      3      9     0.00   4.85344   3 ;     C2-    C1-    O1-    C3
     2      1      5      3      9     0.00   5.77392   2 ;     C2-    C1-    O1-    C3
     2      1      5      3      9   180.00   1.46440   1 ;     C2-    C1-    O1-    C3
     2      6      4      3      9     0.00   4.85344   3 ;     C2-    O2-    C4-    C3
     2      6      4      3      9     0.00   5.77392   2 ;     C2-    O2-    C4-    C3
     2      6      4      3      9   180.00   1.46440   1 ;     C2-    O2-    C4-    C3
     2      6      4     13      9     0.00   1.41001   3 ;     C2-    O2-    C4-    H7
     2      6      4     14      9     0.00   1.41001   3 ;     C2-    O2-    C4-    H8
     4      6      2      9      9     0.00   1.41001   3 ;     C4-    O2-    C2-    H3
     4      6      2     10      9     0.00   1.41001   3 ;     C4-    O2-    C2-    H4
     5      1      2      6      9     0.00   0.75312   1 ;     O1-    C1-    C2-    O2
     5      1      2      6      9     0.00   2.09200   3 ;     O1-    C1-    C2-    O2
     5      1      2      6      9     0.00   3.76560   2 ;     O1-    C1-    C2-    O2
     5      1      2      9      9     0.00   0.00000   0 ;     O1-    C1-    C2-    H3
     5      1      2      9      9     0.00   1.04600   1 ;     O1-    C1-    C2-    H3
     5      1      2     10      9     0.00   0.00000   0 ;     O1-    C1-    C2-    H4
     5      1      2     10      9     0.00   1.04600   1 ;     O1-    C1-    C2-    H4
     5      3      4      6      9     0.00   0.75312   1 ;     O1-    C3-    C4-    O2
     5      3      4      6      9     0.00   2.09200   3 ;     O1-    C3-    C4-    O2
     5      3      4      6      9     0.00   3.76560   2 ;     O1-    C3-    C4-    O2
     5      3      4     13      9     0.00   0.00000   0 ;     O1-    C3-    C4-    H7
     5      3      4     13      9     0.00   1.04600   1 ;     O1-    C3-    C4-    H7
     5      3      4     14      9     0.00   0.00000   0 ;     O1-    C3-    C4-    H8
     5      3      4     14      9     0.00   1.04600   1 ;     O1-    C3-    C4-    H8
     6      4      3     11      9     0.00   0.00000   0 ;     O2-    C4-    C3-    H5
     6      4      3     11      9     0.00   1.04600   1 ;     O2-    C4-    C3-    H5
     6      4      3     12      9     0.00   0.00000   0 ;     O2-    C4-    C3-    H6
     6      4      3     12      9     0.00   1.04600   1 ;     O2-    C4-    C3-    H6
     7      1      2      6      9     0.00   0.00000   0 ;     H1-    C1-    C2-    O2
     7      1      2      6      9     0.00   1.04600   1 ;     H1-    C1-    C2-    O2
     7      1      2      9      9     0.00   0.65084   3 ;     H1-    C1-    C2-    H3
     7      1      2     10      9     0.00   0.65084   3 ;     H1-    C1-    C2-    H4
     7      1      5      3      9     0.00   1.41001   3 ;     H1-    C1-    O1-    C3
     8      1      2      6      9     0.00   0.00000   0 ;     H2-    C1-    C2-    O2
     8      1      2      6      9     0.00   1.04600   1 ;     H2-    C1-    C2-    O2
     8      1      2      9      9     0.00   0.65084   3 ;     H2-    C1-    C2-    H3
     8      1      2     10      9     0.00   0.65084   3 ;     H2-    C1-    C2-    H4
     8      1      5      3      9     0.00   1.41001   3 ;     H2-    C1-    O1-    C3
    11      3      4     13      9     0.00   0.65084   3 ;     H5-    C3-    C4-    H7
    11      3      4     14      9     0.00   0.65084   3 ;     H5-    C3-    C4-    H8
    12      3      4     13      9     0.00   0.65084   3 ;     H6-    C3-    C4-    H7
    12      3      4     14      9     0.00   0.65084   3 ;     H6-    C3-    C4-    H8
