; mobley_1662128_GMX_OPLS.top created by acpype (v: 2023.10.27) on Wed May 20 23:56:44 2026

; Include forcefield parameters
#include "ffoplsaa.itp"

; Include mobley_1662128_GMX.itp topology
#include "mobley_1662128_GMX.itp"

; Ligand position restraints
#ifdef POSRES_LIG
#include "posre_mobley_1662128.itp"
#endif

[ system ]
 mobley_1662128

[ molecules ]
; Compound        nmols
 mobley_1662128   1     
