but_1_ene
    12
   0.6570000  -1.0570000  -0.4310000   1.9490000  -0.7460000  -0.2810000
   3.1010000   0.3360000  -2.2120000   2.5720000   0.5160000  -0.7980000
   0.2470000  -1.9820000  -0.0410000  -0.0140000  -0.3820000  -0.9510000
   2.5930000  -1.4390000   0.2540000   3.5610000   1.2640000  -2.5650000
   2.2950000   0.0730000  -2.9060000   3.8590000  -0.4540000  -2.2560000
   1.8540000   1.3440000  -0.7840000   3.3980000   0.7980000  -0.1340000
