mobley_1662128_GMX.gro created by acpype (v: 2023.10.27) on Wed May 20 23:56:44 2026
 12
    1  MOL   C1    1   0.066  -0.106  -0.043
    1  MOL   C2    2   0.195  -0.075  -0.028
    1  MOL   C3    3   0.310   0.034  -0.221
    1  MOL   C4    4   0.257   0.052  -0.080
    1  MOL   H1    5   0.025  -0.198  -0.004
    1  MOL   H2    6  -0.001  -0.038  -0.095
    1  MOL   H3    7   0.259  -0.144   0.025
    1  MOL   H4    8   0.356   0.126  -0.257
    1  MOL   H5    9   0.230   0.007  -0.291
    1  MOL   H6   10   0.386  -0.045  -0.226
    1  MOL   H7   11   0.185   0.134  -0.078
    1  MOL   H8   12   0.340   0.080  -0.013
    7.74600     6.65200     6.32000
