; mobley_1662128_GMX_OPLS.itp created by acpype (v: 2023.10.27) on Wed May 20 23:56:44 2026

; For OPLS atomtypes manual fine tuning
; AC_at:OPLS_at:OPLScode: Possible_Alternatives (see ffoplsaa.atp and ffoplsaanb.itp)
; c2:CR:opls_509: ['510']
; c3:CT:opls_135: ['136', '137', '149', '157', '158', '206', '209', '210', '223B', '224B', '245', '246', '274', '283', '284', '285', '292', '292B', '293B', '296', '307', '308', '505']
; ha:HA:opls_146: []
; hc:HC:opls_140: []

[ moleculetype ]
;name            nrexcl
 mobley_1662128   3

[ atoms ]
;   nr  type  resi  res  atom  cgnr     charge      mass       ; qtot   bond_type
     1 opls_509     1   MOL    C1    1    -0.226001     12.01100 ; qtot -0.226  CR  
     2 opls_509     1   MOL    C2    2    -0.164200     12.01100 ; qtot -0.390  CR  
     3 opls_135     1   MOL    C3    3    -0.090100     12.01100 ; qtot -0.480  CT  
     4 opls_135     1   MOL    C4    4    -0.053200     12.01100 ; qtot -0.534  CT  
     5 opls_146     1   MOL    H1    5     0.110500      1.00800 ; qtot -0.423  HA  
     6 opls_146     1   MOL    H2    6     0.110500      1.00800 ; qtot -0.313  HA  
     7 opls_146     1   MOL    H3    7     0.118000      1.00800 ; qtot -0.195  HA  
     8 opls_140     1   MOL    H4    8     0.034367      1.00800 ; qtot -0.160  HC  
     9 opls_140     1   MOL    H5    9     0.034367      1.00800 ; qtot -0.126  HC  
    10 opls_140     1   MOL    H6   10     0.034367      1.00800 ; qtot -0.091  HC  
    11 opls_140     1   MOL    H7   11     0.045700      1.00800 ; qtot -0.046  HC  
    12 opls_140     1   MOL    H8   12     0.045700      1.00800 ; qtot -0.000  HC  

[ bonds ]
;   ai     aj funct   r             k
     1      2   1 ;    1.3379e-01    3.6484e+05 ;     C1 - C2         CR - CR    
     1      5   1 ;    1.0882e-01    2.9898e+05 ;     C1 - H1         CR - HA    
     1      6   1 ;    1.0882e-01    2.9898e+05 ;     C1 - H2         CR - HA    
     2      4   1 ;    1.5088e-01    2.0786e+05 ;     C2 - C4         CR - CT    
     2      7   1 ;    1.0882e-01    2.9898e+05 ;     C2 - H3         CR - HA    
     3      4   1 ;    1.5354e-01    1.9154e+05 ;     C3 - C4         CT - CT    
     3      8   1 ;    1.0962e-01    2.8891e+05 ;     C3 - H4         CT - HC    
     3      9   1 ;    1.0962e-01    2.8891e+05 ;     C3 - H5         CT - HC    
     3     10   1 ;    1.0962e-01    2.8891e+05 ;     C3 - H6         CT - HC    
     4     11   1 ;    1.0962e-01    2.8891e+05 ;     C4 - H7         CT - HC    
     4     12   1 ;    1.0962e-01    2.8891e+05 ;     C4 - H8         CT - HC    

[ pairs ]
;   ai     aj    funct
     1      3      1 ;     C1 - C3    
     1     11      1 ;     C1 - H7    
     1     12      1 ;     C1 - H8    
     2      8      1 ;     C2 - H4    
     2      9      1 ;     C2 - H5    
     2     10      1 ;     C2 - H6    
     3      7      1 ;     C3 - H3    
     5      4      1 ;     H1 - C4    
     5      7      1 ;     H1 - H3    
     6      4      1 ;     H2 - C4    
     6      7      1 ;     H2 - H3    
     7     11      1 ;     H3 - H7    
     7     12      1 ;     H3 - H8    
     8     11      1 ;     H4 - H7    
     8     12      1 ;     H4 - H8    
     9     11      1 ;     H5 - H7    
     9     12      1 ;     H5 - H8    
    10     11      1 ;     H6 - H7    
    10     12      1 ;     H6 - H8    

[ angles ]
;   ai     aj     ak    funct   theta         cth
     1      2      4      1 ;    1.2495e+02    5.0944e+02 ;     C1 - C2   - C4       CR -   CR - CT  
     1      2      7      1 ;    1.2039e+02    3.8802e+02 ;     C1 - C2   - H3       CR -   CR - HA  
     2      1      5      1 ;    1.2039e+02    3.8802e+02 ;     C2 - C1   - H1       CR -   CR - HA  
     2      1      6      1 ;    1.2039e+02    3.8802e+02 ;     C2 - C1   - H2       CR -   CR - HA  
     2      4      3      1 ;    1.1258e+02    5.0543e+02 ;     C2 - C4   - C3       CR -   CT - CT  
     2      4     11      1 ;    1.1065e+02    3.6618e+02 ;     C2 - C4   - H7       CR -   CT - HC  
     2      4     12      1 ;    1.1065e+02    3.6618e+02 ;     C2 - C4   - H8       CR -   CT - HC  
     3      4     11      1 ;    1.0968e+02    3.6208e+02 ;     C3 - C4   - H7       CT -   CT - HC  
     3      4     12      1 ;    1.0968e+02    3.6208e+02 ;     C3 - C4   - H8       CT -   CT - HC  
     4      2      7      1 ;    1.1505e+02    3.5941e+02 ;     C4 - C2   - H3       CT -   CR - HA  
     4      3      8      1 ;    1.0968e+02    3.6208e+02 ;     C4 - C3   - H4       CT -   CT - HC  
     4      3      9      1 ;    1.0968e+02    3.6208e+02 ;     C4 - C3   - H5       CT -   CT - HC  
     4      3     10      1 ;    1.0968e+02    3.6208e+02 ;     C4 - C3   - H6       CT -   CT - HC  
     5      1      6      1 ;    1.1666e+02    2.9003e+02 ;     H1 - C1   - H2       HA -   CR - HA  
     8      3      9      1 ;    1.0773e+02    2.9957e+02 ;     H4 - C3   - H5       HC -   CT - HC  
     8      3     10      1 ;    1.0773e+02    2.9957e+02 ;     H4 - C3   - H6       HC -   CT - HC  
     9      3     10      1 ;    1.0773e+02    2.9957e+02 ;     H5 - C3   - H6       HC -   CT - HC  
    11      4     12      1 ;    1.0773e+02    2.9957e+02 ;     H7 - C4   - H8       HC -   CT - HC  

[ dihedrals ] ; propers
; for gromacs 4.5 or higher, using funct 9
;    i      j      k      l   func   phase     kd      pn
     1      2      4      3      9 ;     0.00   0.00000   0 ;     C1-    C2-    C4-    C3
     1      2      4     11      9 ;   180.00   1.08784   3 ;     C1-    C2-    C4-    H7
     1      2      4     12      9 ;   180.00   1.08784   3 ;     C1-    C2-    C4-    H8
     2      4      3      8      9 ;     0.00   0.65084   3 ;     C2-    C4-    C3-    H4
     2      4      3      9      9 ;     0.00   0.65084   3 ;     C2-    C4-    C3-    H5
     2      4      3     10      9 ;     0.00   0.65084   3 ;     C2-    C4-    C3-    H6
     3      4      2      7      9 ;     0.00   0.00000   0 ;     C3-    C4-    C2-    H3
     5      1      2      4      9 ;   180.00  27.82360   2 ;     H1-    C1-    C2-    C4
     5      1      2      7      9 ;   180.00  27.82360   2 ;     H1-    C1-    C2-    H3
     6      1      2      4      9 ;   180.00  27.82360   2 ;     H2-    C1-    C2-    C4
     6      1      2      7      9 ;   180.00  27.82360   2 ;     H2-    C1-    C2-    H3
     7      2      4     11      9 ;     0.00   0.00000   0 ;     H3-    C2-    C4-    H7
     7      2      4     12      9 ;     0.00   0.00000   0 ;     H3-    C2-    C4-    H8
     8      3      4     11      9 ;     0.00   0.50208   3 ;     H4-    C3-    C4-    H7
     8      3      4     12      9 ;     0.00   0.50208   3 ;     H4-    C3-    C4-    H8
     9      3      4     11      9 ;     0.00   0.50208   3 ;     H5-    C3-    C4-    H7
     9      3      4     12      9 ;     0.00   0.50208   3 ;     H5-    C3-    C4-    H8
    10      3      4     11      9 ;     0.00   0.50208   3 ;     H6-    C3-    C4-    H7
    10      3      4     12      9 ;     0.00   0.50208   3 ;     H6-    C3-    C4-    H8

[ dihedrals ] ; impropers
; treated as propers in GROMACS to use correct AMBER analytical function
;    i      j      k      l   func   phase     kd      pn
     1      4      2      7      4 ;   180.00   4.60240   2 ;     C1-    C4-    C2-    H3
     6      1      5      2      4 ;   180.00   4.60240   2 ;     H2-    C1-    H1-    C2
