%VERSION  VERSION_STAMP = V0001.000  DATE = 05/20/26  23:50:19                  
%FLAG TITLE                                                                     
%FORMAT(20a4)                                                                   
hexan_1_ol                                                                      
%FLAG POINTERS                                                                  
%FORMAT(10I8)                                                                   
      21       5      14       6      32       5      44       4       0       0
     106       1       6       5       4       5       8       8       5       0
       0       0       0       0       0       0       0       0      21       0
       0
%FLAG ATOM_NAME                                                                 
%FORMAT(20a4)                                                                   
C1  C2  C3  C4  C5  C6  O1  H1  H2  H3  H4  H5  H6  H7  H8  H9  H10 H11 H12 H13 
H14 
%FLAG CHARGE                                                                    
%FORMAT(5E16.8)                                                                 
 -1.69649613E+00 -1.46507292E+00 -1.44685062E+00 -1.39218372E+00 -2.19396492E+00
  2.32152102E+00 -1.09115132E+01  6.08023484E-01  6.08023484E-01  6.08023484E-01
  7.14314160E-01  7.14314160E-01  7.41647610E-01  7.41647610E-01  7.50758760E-01
  7.50758760E-01  8.60092560E-01  8.60092560E-01  8.05425660E-01  8.05425660E-01
  7.21603080E+00
%FLAG ATOMIC_NUMBER                                                             
%FORMAT(10I8)                                                                   
       6       6       6       6       6       6       8       1       1       1
       1       1       1       1       1       1       1       1       1       1
       1
%FLAG MASS                                                                      
%FORMAT(5E16.8)                                                                 
  1.20100000E+01  1.20100000E+01  1.20100000E+01  1.20100000E+01  1.20100000E+01
  1.20100000E+01  1.60000000E+01  1.00800000E+00  1.00800000E+00  1.00800000E+00
  1.00800000E+00  1.00800000E+00  1.00800000E+00  1.00800000E+00  1.00800000E+00
  1.00800000E+00  1.00800000E+00  1.00800000E+00  1.00800000E+00  1.00800000E+00
  1.00800000E+00
%FLAG ATOM_TYPE_INDEX                                                           
%FORMAT(10I8)                                                                   
       1       1       1       1       1       1       2       3       3       3
       3       3       3       3       3       3       3       3       4       4
       5
%FLAG NUMBER_EXCLUDED_ATOMS                                                     
%FORMAT(10I8)                                                                   
      10      12      14      13      11       8       5       4       3       2
       3       2       3       2       3       2       3       2       2       1
       1
%FLAG NONBONDED_PARM_INDEX                                                      
%FORMAT(10I8)                                                                   
       1       2       4       7      11       2       3       5       8      12
       4       5       6       9      13       7       8       9      10      14
      11      12      13      14      15
%FLAG RESIDUE_LABEL                                                             
%FORMAT(20a4)                                                                   
MOL 
%FLAG RESIDUE_POINTER                                                           
%FORMAT(10I8)                                                                   
       1
%FLAG BOND_FORCE_CONSTANT                                                       
%FORMAT(5E16.8)                                                                 
  2.28890000E+02  3.45250000E+02  2.85150000E+02  3.44220000E+02  5.35510000E+02
%FLAG BOND_EQUIL_VALUE                                                          
%FORMAT(5E16.8)                                                                 
  1.53540000E+00  1.09620000E+00  1.42420000E+00  1.09690000E+00  9.72500000E-01
%FLAG ANGLE_FORCE_CONSTANT                                                      
%FORMAT(5E16.8)                                                                 
  5.98700000E+01  4.32700000E+01  7.67900000E+01  4.32800000E+01  6.51300000E+01
  5.62900000E+01  3.58000000E+01  3.56400000E+01
%FLAG ANGLE_EQUIL_VALUE                                                         
%FORMAT(5E16.8)                                                                 
  1.96576518E+00  1.91427794E+00  1.91392888E+00  1.91270715E+00  1.87430989E+00
  1.92649525E+00  1.88024401E+00  1.89455572E+00
%FLAG DIHEDRAL_FORCE_CONSTANT                                                   
%FORMAT(5E16.8)                                                                 
  5.20000000E-01  1.30000000E-01  1.80000000E-01  1.55555556E-01  6.00000000E-02
  9.00000000E-02  1.20000000E-01  1.23000000E-01
%FLAG DIHEDRAL_PERIODICITY                                                      
%FORMAT(5E16.8)                                                                 
  3.00000000E+00  3.00000000E+00  3.00000000E+00  3.00000000E+00  3.00000000E+00
  3.00000000E+00  3.00000000E+00  3.00000000E+00
%FLAG DIHEDRAL_PHASE                                                            
%FORMAT(5E16.8)                                                                 
  0.00000000E+00  0.00000000E+00  0.00000000E+00  0.00000000E+00  0.00000000E+00
  0.00000000E+00  0.00000000E+00  0.00000000E+00
%FLAG SCEE_SCALE_FACTOR                                                         
%FORMAT(5E16.8)                                                                 
  1.20000000E+00  1.20000000E+00  1.20000000E+00  1.20000000E+00  1.20000000E+00
  1.20000000E+00  1.20000000E+00  1.20000000E+00
%FLAG SCNB_SCALE_FACTOR                                                         
%FORMAT(5E16.8)                                                                 
  2.00000000E+00  2.00000000E+00  2.00000000E+00  2.00000000E+00  2.00000000E+00
  2.00000000E+00  2.00000000E+00  2.00000000E+00
%FLAG SOLTY                                                                     
%FORMAT(5E16.8)                                                                 
  0.00000000E+00  0.00000000E+00  0.00000000E+00  0.00000000E+00  0.00000000E+00
%FLAG LENNARD_JONES_ACOEF                                                       
%FORMAT(5E16.8)                                                                 
  1.02073671E+06  7.18991463E+05  5.03152404E+05  1.00235148E+05  6.80216136E+04
  7.94617769E+03  6.97998263E+04  4.69084694E+04  5.22955465E+03  3.39005767E+03
  3.03553352E+02  1.74176419E+02  8.80612241E+00  4.36660257E+00  1.10360882E-05
%FLAG LENNARD_JONES_BCOEF                                                       
%FORMAT(5E16.8)                                                                 
  6.63431737E+02  5.36620538E+02  4.32634597E+02  1.37787728E+02  1.09393126E+02
  2.57122925E+01  1.14981426E+02  9.08431526E+01  2.08590256E+01  1.67944276E+01
  5.22789272E+00  3.81654050E+00  5.90150328E-01  4.15568027E-01  4.55498033E-04
%FLAG BONDS_INC_HYDROGEN                                                        
%FORMAT(10I8)                                                                   
       0      21       2       0      24       2       0      27       2       3
      30       2       3      33       2       6      36       2       6      39
       2       9      42       2       9      45       2      12      48       2
      12      51       2      15      54       4      15      57       4      18
      60       5
%FLAG BONDS_WITHOUT_HYDROGEN                                                    
%FORMAT(10I8)                                                                   
       0       3       1       3       6       1       6       9       1       9
      12       1      12      15       1      15      18       3
%FLAG ANGLES_INC_HYDROGEN                                                       
%FORMAT(10I8)                                                                   
       0       3      30       2       0       3      33       2       3       0
      21       2       3       0      24       2       3       0      27       2
       3       6      36       2       3       6      39       2       6       3
      30       2       6       3      33       2       6       9      42       2
       6       9      45       2       9       6      36       2       9       6
      39       2       9      12      48       2       9      12      51       2
      12       9      42       2      12       9      45       2      12      15
      54       4      12      15      57       4      15      12      48       2
      15      12      51       2      15      18      60       5      18      15
      54       6      18      15      57       6      21       0      24       7
      21       0      27       7      24       0      27       7      30       3
      33       7      36       6      39       7      42       9      45       7
      48      12      51       7      54      15      57       8
%FLAG ANGLES_WITHOUT_HYDROGEN                                                   
%FORMAT(10I8)                                                                   
       0       3       6       1       3       6       9       1       6       9
      12       1       9      12      15       1      12      15      18       3
%FLAG DIHEDRALS_INC_HYDROGEN                                                    
%FORMAT(10I8)                                                                   
       0       3       6      36       2       0       3       6      39       2
       3       6       9      42       2       3       6       9      45       2
      21       0       3       6       2      24       0       3       6       2
      27       0       3       6       2       6       9      12      48       2
       6       9      12      51       2       9       6       3      30       2
       9       6       3      33       2       9      12      15      54       4
       9      12      15      57       4      12       9       6      36       2
      12       9       6      39       2      12      15      18      60       5
      15      12       9      42       2      15      12       9      45       2
      18      15      12      48       6      18      15      12      51       6
      21       0       3      30       7      21       0       3      33       7
      24       0       3      30       7      24       0       3      33       7
      27       0       3      30       7      27       0       3      33       7
      30       3       6      36       7      30       3       6      39       7
      33       3       6      36       7      33       3       6      39       7
      36       6       9      42       7      36       6       9      45       7
      39       6       9      42       7      39       6       9      45       7
      42       9      12      48       7      42       9      12      51       7
      45       9      12      48       7      45       9      12      51       7
      48      12      15      54       4      48      12      15      57       4
      51      12      15      54       4      51      12      15      57       4
      54      15      18      60       8      57      15      18      60       8
%FLAG DIHEDRALS_WITHOUT_HYDROGEN                                                
%FORMAT(10I8)                                                                   
       0       3       6       9       1       3       6       9      12       1
       6       9      12      15       1       9      12      15      18       3
%FLAG EXCLUDED_ATOMS_LIST                                                       
%FORMAT(10I8)                                                                   
       2       3       4       8       9      10      11      12      13      14
       3       4       5       8       9      10      11      12      13      14
      15      16       4       5       6       8       9      10      11      12
      13      14      15      16      17      18       5       6       7      11
      12      13      14      15      16      17      18      19      20       6
       7      13      14      15      16      17      18      19      20      21
       7      15      16      17      18      19      20      21      17      18
      19      20      21       9      10      11      12      10      11      12
      11      12      12      13      14      13      14      14      15      16
      15      16      16      17      18      17      18      18      19      20
      19      20      20      21      21       0
%FLAG HBOND_ACOEF                                                               
%FORMAT(5E16.8)                                                                 

%FLAG HBOND_BCOEF                                                               
%FORMAT(5E16.8)                                                                 

%FLAG HBCUT                                                                     
%FORMAT(5E16.8)                                                                 

%FLAG AMBER_ATOM_TYPE                                                           
%FORMAT(20a4)                                                                   
c3  c3  c3  c3  c3  c3  oh  hc  hc  hc  hc  hc  hc  hc  hc  hc  hc  hc  h1  h1  
ho  
%FLAG TREE_CHAIN_CLASSIFICATION                                                 
%FORMAT(20a4)                                                                   
BLA BLA BLA BLA BLA BLA BLA BLA BLA BLA BLA BLA BLA BLA BLA BLA BLA BLA BLA BLA 
BLA 
%FLAG JOIN_ARRAY                                                                
%FORMAT(10I8)                                                                   
       0       0       0       0       0       0       0       0       0       0
       0       0       0       0       0       0       0       0       0       0
       0
%FLAG IROTAT                                                                    
%FORMAT(10I8)                                                                   
       0       0       0       0       0       0       0       0       0       0
       0       0       0       0       0       0       0       0       0       0
       0
%FLAG RADIUS_SET                                                                
%FORMAT(1a80)                                                                   
modified Bondi radii (mbondi)                                                   
%FLAG RADII                                                                     
%FORMAT(5E16.8)                                                                 
  1.70000000E+00  1.70000000E+00  1.70000000E+00  1.70000000E+00  1.70000000E+00
  1.70000000E+00  1.50000000E+00  1.30000000E+00  1.30000000E+00  1.30000000E+00
  1.30000000E+00  1.30000000E+00  1.30000000E+00  1.30000000E+00  1.30000000E+00
  1.30000000E+00  1.30000000E+00  1.30000000E+00  1.30000000E+00  1.30000000E+00
  8.00000000E-01
%FLAG SCREEN                                                                    
%FORMAT(5E16.8)                                                                 
  7.20000000E-01  7.20000000E-01  7.20000000E-01  7.20000000E-01  7.20000000E-01
  7.20000000E-01  8.50000000E-01  8.50000000E-01  8.50000000E-01  8.50000000E-01
  8.50000000E-01  8.50000000E-01  8.50000000E-01  8.50000000E-01  8.50000000E-01
  8.50000000E-01  8.50000000E-01  8.50000000E-01  8.50000000E-01  8.50000000E-01
  8.50000000E-01
%FLAG IPOL                                                                      
%FORMAT(1I8)                                                                    
       0
