; mobley_3546460_GMX_OPLS.top created by acpype (v: 2023.10.27) on Wed May 20 23:50:17 2026

; Include forcefield parameters
#include "ffoplsaa.itp"

; Include mobley_3546460_GMX.itp topology
#include "mobley_3546460_GMX.itp"

; Ligand position restraints
#ifdef POSRES_LIG
#include "posre_mobley_3546460.itp"
#endif

[ system ]
 mobley_3546460

[ molecules ]
; Compound        nmols
 mobley_3546460   1     
