mobley_4584540_GMX.gro created by acpype (v: 2023.10.27) on Thu May 21 00:02:38 2026
 17
    1  MOL   C1    1   0.129  -0.006   0.173
    1  MOL   C2    2   0.018  -0.044   0.097
    1  MOL   C3    3   0.150  -0.064   0.298
    1  MOL   C4    4  -0.067  -0.139   0.150
    1  MOL   C5    5   0.058  -0.159   0.342
    1  MOL   C6    6  -0.186  -0.182   0.071
    1  MOL   C7    7   0.078  -0.223   0.475
    1  MOL   N1    8  -0.050  -0.198   0.271
    1  MOL   H1    9   0.198   0.069   0.136
    1  MOL   H2   10   0.001   0.001   0.000
    1  MOL   H3   11   0.235  -0.035   0.358
    1  MOL   H4   12  -0.223  -0.279   0.108
    1  MOL   H5   13  -0.267  -0.109   0.078
    1  MOL   H6   14  -0.162  -0.193  -0.035
    1  MOL   H7   15   0.157  -0.171   0.531
    1  MOL   H8   16  -0.014  -0.221   0.534
    1  MOL   H9   17   0.106  -0.328   0.464
   10.04800     7.93800    11.38400
