26_dimethylpyridine
    17
   1.2860000  -0.0600000   1.7330000   0.1840000  -0.4390000   0.9740000
   1.4970000  -0.6400000   2.9790000  -0.6700000  -1.3940000   1.5010000
   0.5840000  -1.5860000   3.4170000  -1.8620000  -1.8240000   0.7140000
   0.7790000  -2.2290000   4.7500000  -0.4980000  -1.9790000   2.7080000
   1.9790000   0.6850000   1.3550000   0.0090000   0.0060000   0.0000000
   2.3520000  -0.3530000   3.5820000  -2.2340000  -2.7880000   1.0810000
  -2.6720000  -1.0880000   0.7840000  -1.6180000  -1.9280000  -0.3510000
   1.5650000  -1.7110000   5.3110000  -0.1450000  -2.2060000   5.3410000
   1.0630000  -3.2840000   4.6440000
