; mobley_5445548_GMX_OPLS.top created by acpype (v: 2023.10.27) on Wed May 20 23:58:59 2026

; Include forcefield parameters
#include "ffoplsaa.itp"

; Include mobley_5445548_GMX.itp topology
#include "mobley_5445548_GMX.itp"

; Ligand position restraints
#ifdef POSRES_LIG
#include "posre_mobley_5445548.itp"
#endif

[ system ]
 mobley_5445548

[ molecules ]
; Compound        nmols
 mobley_5445548   1     
