isopropylbenzene
    21
   1.8850000  -1.0380000  -0.1090000   0.8180000  -0.4410000   0.5630000
   2.9350000  -1.6040000   0.6140000   0.8010000  -0.4100000   1.9570000
   2.9180000  -1.5730000   2.0080000   1.8510000  -0.9770000   2.6800000
   2.5110000   0.3170000   4.7400000   2.4630000  -2.2030000   4.7950000
   1.8330000  -0.9440000   4.1710000   1.8980000  -1.0610000  -1.1950000
   0.0000000   0.0000000  -0.0000000   3.7650000  -2.0680000   0.0910000
  -0.0350000   0.0570000   2.4720000   3.7400000  -2.0170000   2.5630000
   3.5790000   0.3440000   4.4990000   2.4160000   0.3650000   5.8300000
   2.0510000   1.2200000   4.3230000   1.9700000  -3.1050000   4.4160000
   2.3640000  -2.2010000   5.8860000   3.5300000  -2.2800000   4.5590000
   0.7870000  -0.9160000   4.5330000
