mobley_5445548_GMX.gro created by acpype (v: 2023.10.27) on Wed May 20 23:58:59 2026
 21
    1  MOL   C1    1   0.189  -0.104  -0.011
    1  MOL   C2    2   0.082  -0.044   0.056
    1  MOL   C3    3   0.294  -0.160   0.061
    1  MOL   C4    4   0.080  -0.041   0.196
    1  MOL   C5    5   0.292  -0.157   0.201
    1  MOL   C6    6   0.185  -0.098   0.268
    1  MOL   C7    7   0.251   0.032   0.474
    1  MOL   C8    8   0.246  -0.220   0.480
    1  MOL   C9    9   0.183  -0.094   0.417
    1  MOL   H1   10   0.190  -0.106  -0.120
    1  MOL   H2   11   0.000   0.000  -0.000
    1  MOL   H3   12   0.377  -0.207   0.009
    1  MOL   H4   13  -0.004   0.006   0.247
    1  MOL   H5   14   0.374  -0.202   0.256
    1  MOL   H6   15   0.358   0.034   0.450
    1  MOL   H7   16   0.242   0.036   0.583
    1  MOL   H8   17   0.205   0.122   0.432
    1  MOL   H9   18   0.197  -0.310   0.442
    1  MOL  H10   19   0.236  -0.220   0.589
    1  MOL  H11   20   0.353  -0.228   0.456
    1  MOL  H12   21   0.079  -0.092   0.453
    7.60000     8.65000    14.16200
