mobley_9029594_GMX.gro created by acpype (v: 2023.10.27) on Wed May 20 23:50:20 2026
    5
    1MOL     C1    1   2.104   2.097   2.096
    1MOL     F1    2   2.026   2.174   2.176
    1MOL     H1    3   2.182   2.159   2.053
    1MOL     H2    4   2.148   2.017   2.156
    1MOL     H3    5   2.042   2.055   2.017
   4.19983   4.19983   4.19983
