%VERSION  VERSION_STAMP = V0001.000  DATE = 05/20/26  23:56:27                  
%FLAG TITLE                                                                     
%FORMAT(20a4)                                                                   
1,2,3,7-tetrachlorodibenzo-p-di                                                 
%FLAG POINTERS                                                                  
%FORMAT(10I8)                                                                   
      22       4       4      20       8      30      19      49       0       0
     113       1      20      30      49       4       5       3       4       0
       0       0       0       0       0       0       0       0      22       0
       0
%FLAG ATOM_NAME                                                                 
%FORMAT(20a4)                                                                   
C1  C2  C3  C4  C5  C6  C7  C8  C9  C10 C11 C12 O1  O2  Cl1 Cl2 Cl3 Cl4 H1  H2  
H3  H4  
%FLAG CHARGE                                                                    
%FORMAT(5E16.8)                                                                 
 -3.06681309E+00 -2.16845370E+00 -3.17614689E+00 -3.15792459E+00  3.83943861E+00
  3.96699471E+00  4.18566231E+00  4.11277311E+00  3.53512620E-01  4.62846420E-01
 -6.35958270E-01  2.62401120E-01 -6.81149574E+00 -6.97549644E+00 -1.39218372E+00
 -9.00181620E-01 -4.81068720E-01 -6.26847120E-01  3.00667950E+00  2.87912340E+00
  3.13423560E+00  3.22534710E+00
%FLAG ATOMIC_NUMBER                                                             
%FORMAT(10I8)                                                                   
       6       6       6       6       6       6       6       6       6       6
       6       6       8       8      17      17      17      17       1       1
       1       1
%FLAG MASS                                                                      
%FORMAT(5E16.8)                                                                 
  1.20100000E+01  1.20100000E+01  1.20100000E+01  1.20100000E+01  1.20100000E+01
  1.20100000E+01  1.20100000E+01  1.20100000E+01  1.20100000E+01  1.20100000E+01
  1.20100000E+01  1.20100000E+01  1.60000000E+01  1.60000000E+01  3.54500000E+01
  3.54500000E+01  3.54500000E+01  3.54500000E+01  1.00800000E+00  1.00800000E+00
  1.00800000E+00  1.00800000E+00
%FLAG ATOM_TYPE_INDEX                                                           
%FORMAT(10I8)                                                                   
       1       1       1       1       1       1       1       1       1       1
       1       1       2       2       3       3       3       3       4       4
       4       4
%FLAG NUMBER_EXCLUDED_ATOMS                                                     
%FORMAT(10I8)                                                                   
      11       9       9      11      10       8       9       8       5       7
       6       5       3       2       2       2       1       1       1       1
       1       1
%FLAG NONBONDED_PARM_INDEX                                                      
%FORMAT(10I8)                                                                   
       1       2       4       7       2       3       5       8       4       5
       6       9       7       8       9      10
%FLAG RESIDUE_LABEL                                                             
%FORMAT(20a4)                                                                   
MOL 
%FLAG RESIDUE_POINTER                                                           
%FORMAT(10I8)                                                                   
       1
%FLAG BOND_FORCE_CONSTANT                                                       
%FORMAT(5E16.8)                                                                 
  3.54250000E+02  3.60690000E+02  3.43340000E+02  1.87980000E+02
%FLAG BOND_EQUIL_VALUE                                                          
%FORMAT(5E16.8)                                                                 
  1.39860000E+00  1.08600000E+00  1.36880000E+00  1.75720000E+00
%FLAG ANGLE_FORCE_CONSTANT                                                      
%FORMAT(5E16.8)                                                                 
  6.36700000E+01  4.49000000E+01  7.90000000E+01  6.40600000E+01  8.96700000E+01
%FLAG ANGLE_EQUIL_VALUE                                                         
%FORMAT(5E16.8)                                                                 
  2.09474507E+00  2.09230160E+00  2.07886256E+00  2.08357495E+00  2.09212707E+00
%FLAG DIHEDRAL_FORCE_CONSTANT                                                   
%FORMAT(5E16.8)                                                                 
  3.62500000E+00  9.00000000E-01  1.10000000E+00
%FLAG DIHEDRAL_PERIODICITY                                                      
%FORMAT(5E16.8)                                                                 
  2.00000000E+00  2.00000000E+00  2.00000000E+00
%FLAG DIHEDRAL_PHASE                                                            
%FORMAT(5E16.8)                                                                 
  3.14159400E+00  3.14159400E+00  3.14159400E+00
%FLAG SCEE_SCALE_FACTOR                                                         
%FORMAT(5E16.8)                                                                 
  1.20000000E+00  1.20000000E+00  0.00000000E+00
%FLAG SCNB_SCALE_FACTOR                                                         
%FORMAT(5E16.8)                                                                 
  2.00000000E+00  2.00000000E+00  0.00000000E+00
%FLAG SOLTY                                                                     
%FORMAT(5E16.8)                                                                 
  0.00000000E+00  0.00000000E+00  0.00000000E+00  0.00000000E+00
%FLAG LENNARD_JONES_ACOEF                                                       
%FORMAT(5E16.8)                                                                 
  6.96551276E+05  4.46121722E+05  2.83662575E+05  1.49062160E+06  9.60982218E+05
  3.17107030E+06  7.52549148E+04  4.65732396E+04  1.66104821E+05  6.90855956E+03
%FLAG LENNARD_JONES_BCOEF                                                       
%FORMAT(5E16.8)                                                                 
  5.24668528E+02  3.88758656E+02  2.87011518E+02  9.81118883E+02  7.29357620E+02
  1.82923847E+03  1.09570372E+02  7.98066064E+01  2.08087638E+02  2.10929191E+01
%FLAG BONDS_INC_HYDROGEN                                                        
%FORMAT(10I8)                                                                   
       0      54       2       3      57       2       6      60       2       9
      63       2
%FLAG BONDS_WITHOUT_HYDROGEN                                                    
%FORMAT(10I8)                                                                   
       0       3       1       0      12       1       3      24       1       6
      15       1       6      24       1       9      18       1       9      27
       1      12      15       1      12      36       3      15      39       3
      18      21       1      18      39       3      21      30       1      21
      36       3      24      42       4      27      33       1      27      45
       4      30      33       1      30      48       4      33      51       4
%FLAG ANGLES_INC_HYDROGEN                                                       
%FORMAT(10I8)                                                                   
       0       3      57       2       3       0      54       2      12       0
      54       2      15       6      60       2      18       9      63       2
      24       3      57       2      24       6      60       2      27       9
      63       2
%FLAG ANGLES_WITHOUT_HYDROGEN                                                   
%FORMAT(10I8)                                                                   
       0       3      24       1       0      12      15       1       0      12
      36       3       3       0      12       1       3      24       6       1
       3      24      42       4       6      15      12       1       6      15
      39       3       6      24      42       4       9      18      21       1
       9      18      39       3       9      27      33       1       9      27
      45       4      12      15      39       3      12      36      21       5
      15       6      24       1      15      12      36       3      15      39
      18       5      18       9      27       1      18      21      30       1
      18      21      36       3      21      18      39       3      21      30
      33       1      21      30      48       4      27      33      30       1
      27      33      51       4      30      21      36       3      30      33
      51       4      33      27      45       4      33      30      48       4
%FLAG DIHEDRALS_INC_HYDROGEN                                                    
%FORMAT(10I8)                                                                   
       3      24       6      60       1       6      24       3      57       1
      12       0       3      57       1      12      15       6      60       1
      54       0      12      15       1      21      18       9      63       1
      54       0       3      24       1      33      27       9      63       1
      54       0      12      36       1      39      15       6      60       1
      39      18       9      63       1      42      24       3      57       1
      42      24       6      60       1      45      27       9      63       1
      54       0       3      57       1      54       0     -12      -3       3
       0      24      -3     -57       3      15      24      -6     -60       3
      18      27      -9     -63       3
%FLAG DIHEDRALS_WITHOUT_HYDROGEN                                                
%FORMAT(10I8)                                                                   
       0       3      24       6       1       0       3      24      42       1
       0      12     -15       6       1       0      12      15      39       1
       0      12      36      21       2       3       0      12      15       1
       3       0      12      36       1       3      24      -6      15       1
       6      15      12      36       1       6      15      39      18       2
       9      18      21      30       1       9      18      21      36       1
       9      18      39      15       2       9      27     -33      30       1
       9      27      33      51       1      12       0       3      24       1
      12      15      -6      24       1      12      15      39      18       2
      12      36     -21      18       2      12      36      21      30       2
      15       6      24      42       1      15      12      36      21       2
      15      39     -18      21       2      18       9      27      33       1
      18       9      27      45       1      18      21     -30      33       1
      18      21      30      48       1      21      18       9      27       1
      21      30     -33      27       1      21      30      33      51       1
      24       6      15      39       1      27       9      18      39       1
      27      33      30      48       1      30      21      18      39       1
      30      33      27      45       1      33      30      21      36       1
      36      12      15      39       1      36      21     -18      39       1
      36      21      30      48       1      45      27      33      51       1
      48      30      33      51       1       0      15     -12     -36       3
       6      12     -15     -39       3       9      21     -18     -39       3
      18      30     -21     -36       3       3       6     -24     -42       3
       9      33     -27     -45       3      21      33     -30     -48       3
      27      30     -33     -51       3
%FLAG EXCLUDED_ATOMS_LIST                                                       
%FORMAT(10I8)                                                                   
       2       3       5       6       8       9      13      14      15      19
      20       3       5       6       9      13      15      19      20      21
       5       6       7       9      13      14      15      20      21       6
       7       8      10      11      12      13      14      16      18      22
       6       7       8       9      11      13      14      19      20      21
       7       8       9      13      14      15      19      21       8      10
      11      12      13      14      16      17      22      10      11      12
      13      14      17      18      22      14      15      19      20      21
      11      12      14      16      17      18      22      12      13      14
      16      17      18      13      16      17      18      22      14      17
      19      21      22      20      21      18      22      18       0      20
       0       0       0
%FLAG HBOND_ACOEF                                                               
%FORMAT(5E16.8)                                                                 

%FLAG HBOND_BCOEF                                                               
%FORMAT(5E16.8)                                                                 

%FLAG HBCUT                                                                     
%FORMAT(5E16.8)                                                                 

%FLAG AMBER_ATOM_TYPE                                                           
%FORMAT(20a4)                                                                   
ca  ca  ca  ca  ca  ca  ca  ca  ca  ca  ca  ca  os  os  cl  cl  cl  cl  ha  ha  
ha  ha  
%FLAG TREE_CHAIN_CLASSIFICATION                                                 
%FORMAT(20a4)                                                                   
BLA BLA BLA BLA BLA BLA BLA BLA BLA BLA BLA BLA BLA BLA BLA BLA BLA BLA BLA BLA 
BLA BLA 
%FLAG JOIN_ARRAY                                                                
%FORMAT(10I8)                                                                   
       0       0       0       0       0       0       0       0       0       0
       0       0       0       0       0       0       0       0       0       0
       0       0
%FLAG IROTAT                                                                    
%FORMAT(10I8)                                                                   
       0       0       0       0       0       0       0       0       0       0
       0       0       0       0       0       0       0       0       0       0
       0       0
%FLAG RADIUS_SET                                                                
%FORMAT(1a80)                                                                   
modified Bondi radii (mbondi)                                                   
%FLAG RADII                                                                     
%FORMAT(5E16.8)                                                                 
  1.70000000E+00  1.70000000E+00  1.70000000E+00  1.70000000E+00  1.70000000E+00
  1.70000000E+00  1.70000000E+00  1.70000000E+00  1.70000000E+00  1.70000000E+00
  1.70000000E+00  1.70000000E+00  1.50000000E+00  1.50000000E+00  1.70000000E+00
  1.70000000E+00  1.70000000E+00  1.70000000E+00  1.30000000E+00  1.30000000E+00
  1.30000000E+00  1.30000000E+00
%FLAG SCREEN                                                                    
%FORMAT(5E16.8)                                                                 
  7.20000000E-01  7.20000000E-01  7.20000000E-01  7.20000000E-01  7.20000000E-01
  7.20000000E-01  7.20000000E-01  7.20000000E-01  7.20000000E-01  7.20000000E-01
  7.20000000E-01  7.20000000E-01  8.50000000E-01  8.50000000E-01  8.00000000E-01
  8.00000000E-01  8.00000000E-01  8.00000000E-01  8.50000000E-01  8.50000000E-01
  8.50000000E-01  8.50000000E-01
%FLAG IPOL                                                                      
%FORMAT(1I8)                                                                    
       0
