; mobley_2844990_GMX_OPLS.itp created by acpype (v: 2023.10.27) on Wed May 20 23:56:26 2026

; For OPLS atomtypes manual fine tuning
; AC_at:OPLS_at:OPLScode: Possible_Alternatives (see ffoplsaa.atp and ffoplsaanb.itp)
; ca:CA:opls_145: ['166', '501', '502']
; os:x:opls_x: []
; cl:x:opls_x: []
; ha:HA:opls_146: []

[ moleculetype ]
;name            nrexcl
 mobley_2844990   3

[ atoms ]
;   nr  type  resi  res  atom  cgnr     charge      mass       ; qtot   bond_type
     1 opls_145     1   MOL    C1    1    -0.168300     12.01100 ; qtot -0.168  CA  
     2 opls_145     1   MOL    C2    2    -0.119000     12.01100 ; qtot -0.287  CA  
     3 opls_145     1   MOL    C3    3    -0.174300     12.01100 ; qtot -0.462  CA  
     4 opls_145     1   MOL    C4    4    -0.173300     12.01100 ; qtot -0.635  CA  
     5 opls_145     1   MOL    C5    5     0.210700     12.01100 ; qtot -0.424  CA  
     6 opls_145     1   MOL    C6    6     0.217700     12.01100 ; qtot -0.207  CA  
     7 opls_145     1   MOL    C7    7     0.229700     12.01100 ; qtot  0.023  CA  
     8 opls_145     1   MOL    C8    8     0.225700     12.01100 ; qtot  0.249  CA  
     9 opls_145     1   MOL    C9    9     0.019400     12.01100 ; qtot  0.268  CA  
    10 opls_145     1   MOL   C10   10     0.025400     12.01100 ; qtot  0.294  CA  
    11 opls_145     1   MOL   C11   11    -0.034900     12.01100 ; qtot  0.259  CA  
    12 opls_145     1   MOL   C12   12     0.014400     12.01100 ; qtot  0.273  CA  
    13 opls_x     1   MOL    O1   13    -0.373800      0.00000 ; qtot -0.101  x   
    14 opls_x     1   MOL    O2   14    -0.384800      0.00000 ; qtot -0.485  x   
    15 opls_x     1   MOL   CL1   15    -0.076400      0.00000 ; qtot -0.562  x   
    16 opls_x     1   MOL   CL2   16    -0.049400      0.00000 ; qtot -0.611  x   
    17 opls_x     1   MOL   CL3   17    -0.026400      0.00000 ; qtot -0.638  x   
    18 opls_x     1   MOL   CL4   18    -0.034400      0.00000 ; qtot -0.672  x   
    19 opls_146     1   MOL    H1   19     0.165000      1.00800 ; qtot -0.507  HA  
    20 opls_146     1   MOL    H2   20     0.158000      1.00800 ; qtot -0.349  HA  
    21 opls_146     1   MOL    H3   21     0.172000      1.00800 ; qtot -0.177  HA  
    22 opls_146     1   MOL    H4   22     0.177000      1.00800 ; qtot  0.000  HA  

[ bonds ]
;   ai     aj funct   r             k
     1      2   1 ;    1.3986e-01    2.9644e+05 ;     C1 - C2         CA - CA    
     1      5   1 ;    1.3986e-01    2.9644e+05 ;     C1 - C5         CA - CA    
     1     19   1 ;    1.0860e-01    3.0183e+05 ;     C1 - H1         CA - HA    
     2      9   1 ;    1.3986e-01    2.9644e+05 ;     C2 - C9         CA - CA    
     2     20   1 ;    1.0860e-01    3.0183e+05 ;     C2 - H2         CA - HA    
     3      6   1 ;    1.3986e-01    2.9644e+05 ;     C3 - C6         CA - CA    
     3      9   1 ;    1.3986e-01    2.9644e+05 ;     C3 - C9         CA - CA    
     3     21   1 ;    1.0860e-01    3.0183e+05 ;     C3 - H3         CA - HA    
     4      7   1 ;    1.3986e-01    2.9644e+05 ;     C4 - C7         CA - CA    
     4     10   1 ;    1.3986e-01    2.9644e+05 ;     C4 - C10        CA - CA    
     4     22   1 ;    1.0860e-01    3.0183e+05 ;     C4 - H4         CA - HA    
     5      6   1 ;    1.3986e-01    2.9644e+05 ;     C5 - C6         CA - CA    
     5     13   1 ;    1.3688e-01    2.8731e+05 ;     C5 - O1         CA - x     
     6     14   1 ;    1.3688e-01    2.8731e+05 ;     C6 - O2         CA - x     
     7      8   1 ;    1.3986e-01    2.9644e+05 ;     C7 - C8         CA - CA    
     7     14   1 ;    1.3688e-01    2.8731e+05 ;     C7 - O2         CA - x     
     8     11   1 ;    1.3986e-01    2.9644e+05 ;     C8 - C11        CA - CA    
     8     13   1 ;    1.3688e-01    2.8731e+05 ;     C8 - O1         CA - x     
     9     15   1 ;    1.7572e-01    1.5730e+05 ;     C9 - CL1        CA - x     
    10     12   1 ;    1.3986e-01    2.9644e+05 ;    C10 - C12        CA - CA    
    10     16   1 ;    1.7572e-01    1.5730e+05 ;    C10 - CL2        CA - x     
    11     12   1 ;    1.3986e-01    2.9644e+05 ;    C11 - C12        CA - CA    
    11     17   1 ;    1.7572e-01    1.5730e+05 ;    C11 - CL3        CA - x     
    12     18   1 ;    1.7572e-01    1.5730e+05 ;    C12 - CL4        CA - x     

[ pairs ]
;   ai     aj    funct
     1      3      1 ;     C1 - C3    
     1      8      1 ;     C1 - C8    
     1     14      1 ;     C1 - O2    
     1     15      1 ;     C1 - CL1   
     2      6      1 ;     C2 - C6    
     2     13      1 ;     C2 - O1    
     2     21      1 ;     C2 - H3    
     3      7      1 ;     C3 - C7    
     3     13      1 ;     C3 - O1    
     3     20      1 ;     C3 - H2    
     4      6      1 ;     C4 - C6    
     4     11      1 ;     C4 - C11   
     4     13      1 ;     C4 - O1    
     4     18      1 ;     C4 - CL4   
     5      7      1 ;     C5 - C7    
     5      9      1 ;     C5 - C9    
     5     11      1 ;     C5 - C11   
     5     20      1 ;     C5 - H2    
     5     21      1 ;     C5 - H3    
     6      8      1 ;     C6 - C8    
     6     15      1 ;     C6 - CL1   
     7     12      1 ;     C7 - C12   
     7     16      1 ;     C7 - CL2   
     7     17      1 ;     C7 - CL3   
     8     10      1 ;     C8 - C10   
     8     18      1 ;     C8 - CL4   
     8     22      1 ;     C8 - H4    
     9     14      1 ;     C9 - O2    
    10     14      1 ;    C10 - O2    
    10     17      1 ;    C10 - CL3   
    11     14      1 ;    C11 - O2    
    11     16      1 ;    C11 - CL2   
    12     13      1 ;    C12 - O1    
    12     22      1 ;    C12 - H4    
    13     14      1 ;     O1 - O2    
    13     17      1 ;     O1 - CL3   
    14     21      1 ;     O2 - H3    
    14     22      1 ;     O2 - H4    
    15     20      1 ;    CL1 - H2    
    15     21      1 ;    CL1 - H3    
    16     18      1 ;    CL2 - CL4   
    16     22      1 ;    CL2 - H4    
    17     18      1 ;    CL3 - CL4   
    19      6      1 ;     H1 - C6    
    19      9      1 ;     H1 - C9    
    19     13      1 ;     H1 - O1    
    19     20      1 ;     H1 - H2    

[ angles ]
;   ai     aj     ak    funct   theta         cth
     1      2      9      1 ;    1.2002e+02    5.3279e+02 ;     C1 - C2   - C9       CA -   CA - CA  
     1      2     20      1 ;    1.1988e+02    3.7572e+02 ;     C1 - C2   - H2       CA -   CA - HA  
     1      5      6      1 ;    1.2002e+02    5.3279e+02 ;     C1 - C5   - C6       CA -   CA - CA  
     1      5     13      1 ;    1.1911e+02    6.6107e+02 ;     C1 - C5   - O1       CA -   CA - x   
     2      1      5      1 ;    1.2002e+02    5.3279e+02 ;     C2 - C1   - C5       CA -   CA - CA  
     2      1     19      1 ;    1.1988e+02    3.7572e+02 ;     C2 - C1   - H1       CA -   CA - HA  
     2      9      3      1 ;    1.2002e+02    5.3279e+02 ;     C2 - C9   - C3       CA -   CA - CA  
     2      9     15      1 ;    1.1938e+02    5.3605e+02 ;     C2 - C9   - CL1      CA -   CA - x   
     3      6      5      1 ;    1.2002e+02    5.3279e+02 ;     C3 - C6   - C5       CA -   CA - CA  
     3      6     14      1 ;    1.1911e+02    6.6107e+02 ;     C3 - C6   - O2       CA -   CA - x   
     3      9     15      1 ;    1.1938e+02    5.3605e+02 ;     C3 - C9   - CL1      CA -   CA - x   
     4      7      8      1 ;    1.2002e+02    5.3279e+02 ;     C4 - C7   - C8       CA -   CA - CA  
     4      7     14      1 ;    1.1911e+02    6.6107e+02 ;     C4 - C7   - O2       CA -   CA - x   
     4     10     12      1 ;    1.2002e+02    5.3279e+02 ;     C4 - C10  - C12      CA -   CA - CA  
     4     10     16      1 ;    1.1938e+02    5.3605e+02 ;     C4 - C10  - CL2      CA -   CA - x   
     5      1     19      1 ;    1.1988e+02    3.7572e+02 ;     C5 - C1   - H1       CA -   CA - HA  
     5      6     14      1 ;    1.1911e+02    6.6107e+02 ;     C5 - C6   - O2       CA -   CA - x   
     5     13      8      1 ;    1.1987e+02    7.5036e+02 ;     C5 - O1   - C8       CA -    x - CA  
     6      3      9      1 ;    1.2002e+02    5.3279e+02 ;     C6 - C3   - C9       CA -   CA - CA  
     6      3     21      1 ;    1.1988e+02    3.7572e+02 ;     C6 - C3   - H3       CA -   CA - HA  
     6      5     13      1 ;    1.1911e+02    6.6107e+02 ;     C6 - C5   - O1       CA -   CA - x   
     6     14      7      1 ;    1.1987e+02    7.5036e+02 ;     C6 - O2   - C7       CA -    x - CA  
     7      4     10      1 ;    1.2002e+02    5.3279e+02 ;     C7 - C4   - C10      CA -   CA - CA  
     7      4     22      1 ;    1.1988e+02    3.7572e+02 ;     C7 - C4   - H4       CA -   CA - HA  
     7      8     11      1 ;    1.2002e+02    5.3279e+02 ;     C7 - C8   - C11      CA -   CA - CA  
     7      8     13      1 ;    1.1911e+02    6.6107e+02 ;     C7 - C8   - O1       CA -   CA - x   
     8      7     14      1 ;    1.1911e+02    6.6107e+02 ;     C8 - C7   - O2       CA -   CA - x   
     8     11     12      1 ;    1.2002e+02    5.3279e+02 ;     C8 - C11  - C12      CA -   CA - CA  
     8     11     17      1 ;    1.1938e+02    5.3605e+02 ;     C8 - C11  - CL3      CA -   CA - x   
     9      2     20      1 ;    1.1988e+02    3.7572e+02 ;     C9 - C2   - H2       CA -   CA - HA  
     9      3     21      1 ;    1.1988e+02    3.7572e+02 ;     C9 - C3   - H3       CA -   CA - HA  
    10      4     22      1 ;    1.1988e+02    3.7572e+02 ;    C10 - C4   - H4       CA -   CA - HA  
    10     12     11      1 ;    1.2002e+02    5.3279e+02 ;    C10 - C12  - C11      CA -   CA - CA  
    10     12     18      1 ;    1.1938e+02    5.3605e+02 ;    C10 - C12  - CL4      CA -   CA - x   
    11      8     13      1 ;    1.1911e+02    6.6107e+02 ;    C11 - C8   - O1       CA -   CA - x   
    11     12     18      1 ;    1.1938e+02    5.3605e+02 ;    C11 - C12  - CL4      CA -   CA - x   
    12     10     16      1 ;    1.1938e+02    5.3605e+02 ;    C12 - C10  - CL2      CA -   CA - x   
    12     11     17      1 ;    1.1938e+02    5.3605e+02 ;    C12 - C11  - CL3      CA -   CA - x   

[ dihedrals ] ; propers
; for gromacs 4.5 or higher, using funct 9
;    i      j      k      l   func   phase     kd      pn
     1      2      9      3      9 ;   180.00  15.16700   2 ;     C1-    C2-    C9-    C3
     1      2      9     15      9 ;   180.00  15.16700   2 ;     C1-    C2-    C9-   CL1
     1      5      6      3      9 ;   180.00  15.16700   2 ;     C1-    C5-    C6-    C3
     1      5      6     14      9 ;   180.00  15.16700   2 ;     C1-    C5-    C6-    O2
     1      5     13      8      9 ;   180.00   3.76560   2 ;     C1-    C5-    O1-    C8
     2      1      5      6      9 ;   180.00  15.16700   2 ;     C2-    C1-    C5-    C6
     2      1      5     13      9 ;   180.00  15.16700   2 ;     C2-    C1-    C5-    O1
     2      9      3      6      9 ;   180.00  15.16700   2 ;     C2-    C9-    C3-    C6
     2      9      3     21      9 ;   180.00  15.16700   2 ;     C2-    C9-    C3-    H3
     3      6      5     13      9 ;   180.00  15.16700   2 ;     C3-    C6-    C5-    O1
     3      6     14      7      9 ;   180.00   3.76560   2 ;     C3-    C6-    O2-    C7
     3      9      2     20      9 ;   180.00  15.16700   2 ;     C3-    C9-    C2-    H2
     4      7      8     11      9 ;   180.00  15.16700   2 ;     C4-    C7-    C8-   C11
     4      7      8     13      9 ;   180.00  15.16700   2 ;     C4-    C7-    C8-    O1
     4      7     14      6      9 ;   180.00   3.76560   2 ;     C4-    C7-    O2-    C6
     4     10     12     11      9 ;   180.00  15.16700   2 ;     C4-   C10-   C12-   C11
     4     10     12     18      9 ;   180.00  15.16700   2 ;     C4-   C10-   C12-   CL4
     5      1      2      9      9 ;   180.00  15.16700   2 ;     C5-    C1-    C2-    C9
     5      1      2     20      9 ;   180.00  15.16700   2 ;     C5-    C1-    C2-    H2
     5      6      3      9      9 ;   180.00  15.16700   2 ;     C5-    C6-    C3-    C9
     5      6      3     21      9 ;   180.00  15.16700   2 ;     C5-    C6-    C3-    H3
     5      6     14      7      9 ;   180.00   3.76560   2 ;     C5-    C6-    O2-    C7
     5     13      8      7      9 ;   180.00   3.76560   2 ;     C5-    O1-    C8-    C7
     5     13      8     11      9 ;   180.00   3.76560   2 ;     C5-    O1-    C8-   C11
     6      3      9     15      9 ;   180.00  15.16700   2 ;     C6-    C3-    C9-   CL1
     6      5     13      8      9 ;   180.00   3.76560   2 ;     C6-    C5-    O1-    C8
     6     14      7      8      9 ;   180.00   3.76560   2 ;     C6-    O2-    C7-    C8
     7      4     10     12      9 ;   180.00  15.16700   2 ;     C7-    C4-   C10-   C12
     7      4     10     16      9 ;   180.00  15.16700   2 ;     C7-    C4-   C10-   CL2
     7      8     11     12      9 ;   180.00  15.16700   2 ;     C7-    C8-   C11-   C12
     7      8     11     17      9 ;   180.00  15.16700   2 ;     C7-    C8-   C11-   CL3
     8      7      4     10      9 ;   180.00  15.16700   2 ;     C8-    C7-    C4-   C10
     8      7      4     22      9 ;   180.00  15.16700   2 ;     C8-    C7-    C4-    H4
     8     11     12     10      9 ;   180.00  15.16700   2 ;     C8-   C11-   C12-   C10
     8     11     12     18      9 ;   180.00  15.16700   2 ;     C8-   C11-   C12-   CL4
     9      3      6     14      9 ;   180.00  15.16700   2 ;     C9-    C3-    C6-    O2
    10      4      7     14      9 ;   180.00  15.16700   2 ;    C10-    C4-    C7-    O2
    10     12     11     17      9 ;   180.00  15.16700   2 ;    C10-   C12-   C11-   CL3
    11      8      7     14      9 ;   180.00  15.16700   2 ;    C11-    C8-    C7-    O2
    11     12     10     16      9 ;   180.00  15.16700   2 ;    C11-   C12-   C10-   CL2
    12     10      4     22      9 ;   180.00  15.16700   2 ;    C12-   C10-    C4-    H4
    12     11      8     13      9 ;   180.00  15.16700   2 ;    C12-   C11-    C8-    O1
    13      5      6     14      9 ;   180.00  15.16700   2 ;     O1-    C5-    C6-    O2
    13      8      7     14      9 ;   180.00  15.16700   2 ;     O1-    C8-    C7-    O2
    13      8     11     17      9 ;   180.00  15.16700   2 ;     O1-    C8-   C11-   CL3
    14      6      3     21      9 ;   180.00  15.16700   2 ;     O2-    C6-    C3-    H3
    14      7      4     22      9 ;   180.00  15.16700   2 ;     O2-    C7-    C4-    H4
    15      9      2     20      9 ;   180.00  15.16700   2 ;    CL1-    C9-    C2-    H2
    15      9      3     21      9 ;   180.00  15.16700   2 ;    CL1-    C9-    C3-    H3
    16     10      4     22      9 ;   180.00  15.16700   2 ;    CL2-   C10-    C4-    H4
    16     10     12     18      9 ;   180.00  15.16700   2 ;    CL2-   C10-   C12-   CL4
    17     11     12     18      9 ;   180.00  15.16700   2 ;    CL3-   C11-   C12-   CL4
    19      1      2      9      9 ;   180.00  15.16700   2 ;     H1-    C1-    C2-    C9
    19      1      2     20      9 ;   180.00  15.16700   2 ;     H1-    C1-    C2-    H2
    19      1      5      6      9 ;   180.00  15.16700   2 ;     H1-    C1-    C5-    C6
    19      1      5     13      9 ;   180.00  15.16700   2 ;     H1-    C1-    C5-    O1

[ dihedrals ] ; impropers
; treated as propers in GROMACS to use correct AMBER analytical function
;    i      j      k      l   func   phase     kd      pn
     1      6      5     13      4 ;   180.00   4.60240   2 ;     C1-    C6-    C5-    O1
     1      9      2     20      4 ;   180.00   4.60240   2 ;     C1-    C9-    C2-    H2
     2      3      9     15      4 ;   180.00   4.60240   2 ;     C2-    C3-    C9-   CL1
     3      5      6     14      4 ;   180.00   4.60240   2 ;     C3-    C5-    C6-    O2
     4      8      7     14      4 ;   180.00   4.60240   2 ;     C4-    C8-    C7-    O2
     4     12     10     16      4 ;   180.00   4.60240   2 ;     C4-   C12-   C10-   CL2
     6      9      3     21      4 ;   180.00   4.60240   2 ;     C6-    C9-    C3-    H3
     7     10      4     22      4 ;   180.00   4.60240   2 ;     C7-   C10-    C4-    H4
     7     11      8     13      4 ;   180.00   4.60240   2 ;     C7-   C11-    C8-    O1
     8     12     11     17      4 ;   180.00   4.60240   2 ;     C8-   C12-   C11-   CL3
    10     11     12     18      4 ;   180.00   4.60240   2 ;    C10-   C11-   C12-   CL4
    19      1      5      2      4 ;   180.00   4.60240   2 ;     H1-    C1-    C5-    C2
