%VERSION  VERSION_STAMP = V0001.000  DATE = 05/20/26  23:41:40                  
%FLAG TITLE                                                                     
%FORMAT(20a4)                                                                   
SAMPL4_021                                                                      
%FLAG POINTERS                                                                  
%FORMAT(10I8)                                                                   
      22       8      10      13      21      16      41      21       0       0
     109       1      13      16      21      12      19       7      10       0
       0       0       0       0       0       0       0       0      22       0
       0
%FLAG ATOM_NAME                                                                 
%FORMAT(20a4)                                                                   
C1  C2  C3  C4  C5  C6  C7  C8  C9  C10 N1  N2  H1  H2  H3  H4  H5  H6  H7  H8  
H9  H10 
%FLAG CHARGE                                                                    
%FORMAT(5E16.8)                                                                 
 -2.18667600E+00 -2.33245440E+00 -2.33245440E+00 -2.06823105E+00 -2.06823105E+00
  5.30633376E+00 -4.76695368E+00  7.18687512E+00 -2.15569809E+00  1.61449578E+00
 -1.21724964E+01 -3.78841617E+00  2.46001050E+00  2.46912165E+00  2.46912165E+00
  2.46001050E+00  2.46001050E+00  7.48936530E-01  3.17068020E+00  1.09516023E+00
  1.21542741E+00  1.21542741E+00
%FLAG ATOMIC_NUMBER                                                             
%FORMAT(10I8)                                                                   
       6       6       6       6       6       6       6       6       6       6
       7       7       1       1       1       1       1       1       1       1
       1       1
%FLAG MASS                                                                      
%FORMAT(5E16.8)                                                                 
  1.20100000E+01  1.20100000E+01  1.20100000E+01  1.20100000E+01  1.20100000E+01
  1.20100000E+01  1.20100000E+01  1.20100000E+01  1.20100000E+01  1.20100000E+01
  1.40100000E+01  1.40100000E+01  1.00800000E+00  1.00800000E+00  1.00800000E+00
  1.00800000E+00  1.00800000E+00  1.00800000E+00  1.00800000E+00  1.00800000E+00
  1.00800000E+00  1.00800000E+00
%FLAG ATOM_TYPE_INDEX                                                           
%FORMAT(10I8)                                                                   
       1       1       1       1       1       1       1       1       1       2
       3       4       5       5       5       5       5       6       6       7
       8       8
%FLAG NUMBER_EXCLUDED_ATOMS                                                     
%FORMAT(10I8)                                                                   
      10       9       8      10       9       8      10       9       8       8
       4       5       2       1       1       1       1       1       1       1
       1       1
%FLAG NONBONDED_PARM_INDEX                                                      
%FORMAT(10I8)                                                                   
       1       2       4       7      11      16      22      29       2       3
       5       8      12      17      23      30       4       5       6       9
      13      18      24      31       7       8       9      10      14      19
      25      32      11      12      13      14      15      20      26      33
      16      17      18      19      20      21      27      34      22      23
      24      25      26      27      28      35      29      30      31      32
      33      34      35      36
%FLAG RESIDUE_LABEL                                                             
%FORMAT(20a4)                                                                   
MOL 
%FLAG RESIDUE_POINTER                                                           
%FORMAT(10I8)                                                                   
       1
%FLAG BOND_FORCE_CONSTANT                                                       
%FORMAT(5E16.8)                                                                 
  3.54250000E+02  3.60690000E+02  3.86240000E+02  3.56030000E+02  3.68720000E+02
  3.32450000E+02  3.67290000E+02  4.17790000E+02  3.66810000E+02  2.43910000E+02
  2.54790000E+02  3.44220000E+02
%FLAG BOND_EQUIL_VALUE                                                          
%FORMAT(5E16.8)                                                                 
  1.39860000E+00  1.08600000E+00  1.37300000E+00  1.36290000E+00  1.08090000E+00
  1.38300000E+00  1.08180000E+00  1.31710000E+00  1.08210000E+00  1.51470000E+00
  1.46390000E+00  1.09690000E+00
%FLAG ANGLE_FORCE_CONSTANT                                                      
%FORMAT(5E16.8)                                                                 
  6.36700000E+01  4.49000000E+01  6.07400000E+01  7.19900000E+01  4.42000000E+01
  8.60800000E+01  6.97000000E+01  4.39500000E+01  8.27900000E+01  7.54900000E+01
  6.53500000E+01  4.38100000E+01  4.85300000E+01  7.65100000E+01  4.88900000E+01
  4.80800000E+01  4.79400000E+01  4.81000000E+01  3.56400000E+01
%FLAG ANGLE_EQUIL_VALUE                                                         
%FORMAT(5E16.8)                                                                 
  2.09474507E+00  2.09230160E+00  2.10888224E+00  1.90223517E+00  2.22773921E+00
  1.90502770E+00  2.05931487E+00  2.25339556E+00  1.93557097E+00  2.19038915E+00
  1.97396823E+00  1.91288168E+00  2.10766051E+00  1.97257197E+00  2.18672396E+00
  2.09736306E+00  2.10888224E+00  1.89822091E+00  1.89455572E+00
%FLAG DIHEDRAL_FORCE_CONSTANT                                                   
%FORMAT(5E16.8)                                                                 
  3.62500000E+00  2.95000000E-01  0.00000000E+00  1.70000000E+00  4.75000000E+00
  4.00000000E+00  1.10000000E+00
%FLAG DIHEDRAL_PERIODICITY                                                      
%FORMAT(5E16.8)                                                                 
  2.00000000E+00  2.00000000E+00  2.00000000E+00  2.00000000E+00  2.00000000E+00
  2.00000000E+00  2.00000000E+00
%FLAG DIHEDRAL_PHASE                                                            
%FORMAT(5E16.8)                                                                 
  3.14159400E+00  3.14159400E+00  0.00000000E+00  3.14159400E+00  3.14159400E+00
  3.14159400E+00  3.14159400E+00
%FLAG SCEE_SCALE_FACTOR                                                         
%FORMAT(5E16.8)                                                                 
  1.20000000E+00  1.20000000E+00  1.20000000E+00  1.20000000E+00  1.20000000E+00
  1.20000000E+00  0.00000000E+00
%FLAG SCNB_SCALE_FACTOR                                                         
%FORMAT(5E16.8)                                                                 
  2.00000000E+00  2.00000000E+00  2.00000000E+00  2.00000000E+00  2.00000000E+00
  2.00000000E+00  0.00000000E+00
%FLAG SOLTY                                                                     
%FORMAT(5E16.8)                                                                 
  0.00000000E+00  0.00000000E+00  0.00000000E+00  0.00000000E+00  0.00000000E+00
  0.00000000E+00  0.00000000E+00  0.00000000E+00  0.00000000E+00  0.00000000E+00
%FLAG LENNARD_JONES_ACOEF                                                       
%FORMAT(5E16.8)                                                                 
  6.96551276E+05  8.43969952E+05  1.02073671E+06  7.69642101E+05  9.31115275E+05
  8.49322032E+05  8.20152428E+05  9.96191545E+05  9.08092643E+05  9.62429652E+05
  7.52549148E+04  9.27554496E+04  8.43518904E+04  8.65595848E+04  6.90855956E+03
  6.27751680E+04  7.75673747E+04  7.05112106E+04  7.19580450E+04  5.62610481E+03
  4.56536476E+03  5.22195041E+04  6.46910138E+04  5.87815925E+04  5.96470418E+04
  4.56536476E+03  3.69092714E+03  2.97255425E+03  5.63013422E+04  6.97998263E+04
  6.34160397E+04  6.42436358E+04  4.88692384E+03  3.94664935E+03  3.17496391E+03
  3.39005767E+03
%FLAG LENNARD_JONES_BCOEF                                                       
%FORMAT(5E16.8)                                                                 
  5.24668528E+02  5.90251928E+02  6.63431737E+02  5.44830041E+02  6.12468585E+02
  5.65406768E+02  6.82622272E+02  7.68900328E+02  7.09588248E+02  8.86629877E+02
  1.09570372E+02  1.24325688E+02  1.14599119E+02  1.40899023E+02  2.10929191E+01
  1.00073628E+02  1.13692208E+02  1.04776275E+02  1.28466555E+02  1.90347353E+01
  1.71467049E+01  9.12729468E+01  1.03827676E+02  9.56653235E+01  1.16962018E+02
  1.71467049E+01  1.54173833E+01  1.38359132E+01  1.01040256E+02  1.14981426E+02
  1.05935811E+02  1.29412081E+02  1.89134207E+01  1.69967767E+01  1.52447987E+01
  1.67944276E+01
%FLAG BONDS_INC_HYDROGEN                                                        
%FORMAT(10I8)                                                                   
       0      36       2       3      39       2       6      42       2       9
      45       2      12      48       2      15      51       5      18      54
       7      21      57       9      27      60      12      27      63      12
%FLAG BONDS_WITHOUT_HYDROGEN                                                    
%FORMAT(10I8)                                                                   
       0       3       1       0       6       1       3       9       1       6
      12       1       9      24       1      12      24       1      15      18
       3      15      30       4      18      33       6      21      30       8
      21      33       6      24      27      10      27      33      11
%FLAG ANGLES_INC_HYDROGEN                                                       
%FORMAT(10I8)                                                                   
       0       3      39       2       0       6      42       2       3       0
      36       2       3       9      45       2       6       0      36       2
       6      12      48       2       9       3      39       2      12       6
      42       2      15      18      54       5      18      15      51       8
      24       9      45       2      24      12      48       2      24      27
      60      12      24      27      63      12      30      15      51      13
      30      21      57      15      33      18      54      16      33      21
      57      17      33      27      60      18      33      27      63      18
      60      27      63      19
%FLAG ANGLES_WITHOUT_HYDROGEN                                                   
%FORMAT(10I8)                                                                   
       0       3       9       1       0       6      12       1       3       0
       6       1       3       9      24       1       6      12      24       1
       9      24      12       1       9      24      27       3      12      24
      27       3      15      18      33       4      15      30      21       6
      18      15      30       7      18      33      21       9      18      33
      27      10      21      33      27      10      24      27      33      11
      30      21      33      14
%FLAG DIHEDRALS_INC_HYDROGEN                                                    
%FORMAT(10I8)                                                                   
       0       3       9      45       1       0       6      12      48       1
       3       0       6      42       1       6       0       3      39       1
      36       0       3       9       1       9      24      12      48       1
       9      24      27      60       3       9      24      27      63       3
      36       0       6      12       1      12      24       9      45       1
      12      24      27      60       3      12      24      27      63       3
      15      30      21      57       5      18      33      21      57       4
      18      33      27      60       3      18      33      27      63       3
      21      30      15      51       5      21      33      18      54       4
      21      33      27      60       3      21      33      27      63       3
      24       9       3      39       1      24      12       6      42       1
      27      24       9      45       1      27      24      12      48       1
      27      33      18      54       4      27      33      21      57       4
      30      15      18      54       6      33      18      15      51       6
      36       0       3      39       1      36       0       6      42       1
      39       3       9      45       1      42       6      12      48       1
      51      15      18      54       6      36       0      -6      -3       7
       0       9      -3     -39       7       0      12      -6     -42       7
       3      24      -9     -45       7       6      24     -12     -48       7
      18      51     -15     -30       7      15      54     -18     -33       7
      57      33     -21     -30       7
%FLAG DIHEDRALS_WITHOUT_HYDROGEN                                                
%FORMAT(10I8)                                                                   
       0       3       9      24       1       0       6     -12      24       1
       3       0       6      12       1       3       9     -24      12       1
       3       9      24      27       1       6       0       3       9       1
       6      12     -24       9       1       6      12      24      27       1
       9      24      27      33       2      12      24      27      33       2
      15      18     -33      21       4      15      18      33      27       4
      15      30     -21      33       5      18      15     -30      21       5
      18      33     -21      30       4      18      33      27      24       3
      21      33      27      24       3      27      33      21      30       4
      30      15     -18      33       6       9      12     -24     -27       7
      27      18     -33     -21       7
%FLAG EXCLUDED_ATOMS_LIST                                                       
%FORMAT(10I8)                                                                   
       2       3       4       5       9      13      14      15      16      17
       3       4       5       9      10      13      14      15      16       4
       5       9      10      13      14      15      17       5       9      10
      12      13      14      16      17      21      22       9      10      12
      13      15      16      17      21      22       7       8      10      11
      12      18      19      20       8       9      10      11      12      18
      19      20      21      22       9      10      11      12      18      19
      20      21      22      10      12      14      15      16      17      21
      22      11      12      16      17      19      20      21      22      12
      18      19      20      18      19      20      21      22      14      15
      16      17       0       0      19       0       0      22       0
%FLAG HBOND_ACOEF                                                               
%FORMAT(5E16.8)                                                                 

%FLAG HBOND_BCOEF                                                               
%FORMAT(5E16.8)                                                                 

%FLAG HBCUT                                                                     
%FORMAT(5E16.8)                                                                 

%FLAG AMBER_ATOM_TYPE                                                           
%FORMAT(20a4)                                                                   
ca  ca  ca  ca  ca  cc  cd  cd  ca  c3  nc  na  ha  ha  ha  ha  ha  h4  h4  h5  
h1  h1  
%FLAG TREE_CHAIN_CLASSIFICATION                                                 
%FORMAT(20a4)                                                                   
BLA BLA BLA BLA BLA BLA BLA BLA BLA BLA BLA BLA BLA BLA BLA BLA BLA BLA BLA BLA 
BLA BLA 
%FLAG JOIN_ARRAY                                                                
%FORMAT(10I8)                                                                   
       0       0       0       0       0       0       0       0       0       0
       0       0       0       0       0       0       0       0       0       0
       0       0
%FLAG IROTAT                                                                    
%FORMAT(10I8)                                                                   
       0       0       0       0       0       0       0       0       0       0
       0       0       0       0       0       0       0       0       0       0
       0       0
%FLAG RADIUS_SET                                                                
%FORMAT(1a80)                                                                   
modified Bondi radii (mbondi)                                                   
%FLAG RADII                                                                     
%FORMAT(5E16.8)                                                                 
  1.70000000E+00  1.70000000E+00  1.70000000E+00  1.70000000E+00  1.70000000E+00
  1.70000000E+00  1.70000000E+00  1.70000000E+00  1.70000000E+00  1.70000000E+00
  1.55000000E+00  1.55000000E+00  1.30000000E+00  1.30000000E+00  1.30000000E+00
  1.30000000E+00  1.30000000E+00  1.30000000E+00  1.30000000E+00  1.30000000E+00
  1.30000000E+00  1.30000000E+00
%FLAG SCREEN                                                                    
%FORMAT(5E16.8)                                                                 
  7.20000000E-01  7.20000000E-01  7.20000000E-01  7.20000000E-01  7.20000000E-01
  7.20000000E-01  7.20000000E-01  7.20000000E-01  7.20000000E-01  7.20000000E-01
  7.90000000E-01  7.90000000E-01  8.50000000E-01  8.50000000E-01  8.50000000E-01
  8.50000000E-01  8.50000000E-01  8.50000000E-01  8.50000000E-01  8.50000000E-01
  8.50000000E-01  8.50000000E-01
%FLAG IPOL                                                                      
%FORMAT(1I8)                                                                    
       0
