; mobley_4613090_GMX.top created by acpype (v: 2023.10.27) on Wed May 20 23:41:34 2026

[ defaults ]
; nbfunc        comb-rule       gen-pairs       fudgeLJ fudgeQQ
1               2               yes             0.5     0.8333333333

; Include mobley_4613090_GMX.itp topology
#include "mobley_4613090_GMX.itp"

; Ligand position restraints
#ifdef POSRES_LIG
#include "posre_mobley_4613090.itp"
#endif

[ system ]
mobley_4613090 in water

[ molecules ]
; Compound        nmols
 mobley_4613090   1     
SOL              3698
