SAMPL4_021
    22
   4.8260000   0.3920000   6.2160000   4.8940000  -0.8690000   5.6230000
   3.6490000   1.1360000   6.1390000   3.7850000  -1.3850000   4.9520000
   2.5400000   0.6210000   5.4690000   2.1630000  -1.4950000   0.6430000
   2.3250000  -1.9620000   1.9260000   1.0110000  -0.1940000   1.8710000
   2.6080000  -0.6400000   4.8750000   1.4220000  -1.1910000   4.1580000
   1.3450000  -0.3940000   0.6160000   1.5810000  -1.1180000   2.7020000
   5.6890000   0.7930000   6.7390000   5.8100000  -1.4490000   5.6830000
   3.5950000   2.1170000   6.6020000   3.8470000  -2.3670000   4.4920000
   1.6270000   1.2080000   5.4140000   2.5950000  -1.8960000  -0.2620000
   2.8840000  -2.7910000   2.3380000   0.3670000   0.5950000   2.2360000
   1.2370000  -2.2440000   4.4210000   0.4980000  -0.6500000   4.4190000
