mobley_4613090_GMX.gro created by acpype (v: 2023.10.27) on Wed May 20 23:41:34 2026
 22
    1  MOL   C1    1   0.483   0.039   0.622
    1  MOL   C2    2   0.489  -0.087   0.562
    1  MOL   C3    3   0.365   0.114   0.614
    1  MOL   C4    4   0.379  -0.139   0.495
    1  MOL   C5    5   0.254   0.062   0.547
    1  MOL   C6    6   0.216  -0.150   0.064
    1  MOL   C7    7   0.233  -0.196   0.193
    1  MOL   C8    8   0.101  -0.019   0.187
    1  MOL   C9    9   0.261  -0.064   0.488
    1  MOL  C10   10   0.142  -0.119   0.416
    1  MOL   N1   11   0.135  -0.039   0.062
    1  MOL   N2   12   0.158  -0.112   0.270
    1  MOL   H1   13   0.569   0.079   0.674
    1  MOL   H2   14   0.581  -0.145   0.568
    1  MOL   H3   15   0.360   0.212   0.660
    1  MOL   H4   16   0.385  -0.237   0.449
    1  MOL   H5   17   0.163   0.121   0.541
    1  MOL   H6   18   0.260  -0.190  -0.026
    1  MOL   H7   19   0.288  -0.279   0.234
    1  MOL   H8   20   0.037   0.059   0.224
    1  MOL   H9   21   0.124  -0.224   0.442
    1  MOL  H10   22   0.050  -0.065   0.442
   10.88600     9.81600    14.00200
