mobley_1781152_GMX.gro created by acpype (v: 2023.10.27) on Wed May 20 23:43:16 2026
 20
    1  MOL   C1    1   0.292  -0.152   0.110
    1  MOL   C2    2   0.070  -0.041   0.073
    1  MOL   C3    3   0.259   0.003  -0.085
    1  MOL   C4    4   0.149  -0.222  -0.084
    1  MOL   C5    5   0.318  -0.299   0.294
    1  MOL   C6    6   0.192  -0.103   0.004
    1  MOL   O1    7   0.407  -0.112   0.120
    1  MOL   O2    8   0.234  -0.246   0.190
    1  MOL   H1    9   0.100   0.040   0.141
    1  MOL   H2   10   0.000   0.000  -0.000
    1  MOL   H3   11   0.016  -0.115   0.133
    1  MOL   H4   12   0.292   0.089  -0.025
    1  MOL   H5   13   0.191   0.040  -0.161
    1  MOL   H6   14   0.348  -0.037  -0.135
    1  MOL   H7   15   0.096  -0.298  -0.027
    1  MOL   H8   16   0.083  -0.189  -0.165
    1  MOL   H9   17   0.236  -0.270  -0.130
    1  MOL  H10   18   0.414  -0.247   0.293
    1  MOL  H11   19   0.333  -0.406   0.277
    1  MOL  H12   20   0.269  -0.285   0.390
    8.27200     9.90200    11.09800
