; mobley_1781152_GMX_OPLS.top created by acpype (v: 2023.10.27) on Wed May 20 23:43:16 2026

; Include forcefield parameters
#include "ffoplsaa.itp"

; Include mobley_1781152_GMX.itp topology
#include "mobley_1781152_GMX.itp"

; Ligand position restraints
#ifdef POSRES_LIG
#include "posre_mobley_1781152.itp"
#endif

[ system ]
 mobley_1781152

[ molecules ]
; Compound        nmols
 mobley_1781152   1     
