; mobley_1781152_GMX_OPLS.itp created by acpype (v: 2023.10.27) on Wed May 20 23:43:16 2026

; For OPLS atomtypes manual fine tuning
; AC_at:OPLS_at:OPLScode: Possible_Alternatives (see ffoplsaa.atp and ffoplsaanb.itp)
; c:C:opls_235: ['271']
; c3:CT:opls_135: ['136', '137', '149', '157', '158', '206', '209', '210', '223B', '224B', '245', '246', '274', '283', '284', '285', '292', '292B', '293B', '296', '307', '308', '505']
; o:O:opls_236: ['272']
; os:x:opls_x: []
; hc:HC:opls_140: []
; h1:HC:opls_140: []

[ moleculetype ]
;name            nrexcl
 mobley_1781152   3

[ atoms ]
;   nr  type  resi  res  atom  cgnr     charge      mass       ; qtot   bond_type
     1 opls_235     1   MOL    C1    1     0.630101     12.01100 ; qtot  0.630  C   
     2 opls_135     1   MOL    C2    2    -0.089100     12.01100 ; qtot  0.541  CT  
     3 opls_135     1   MOL    C3    3    -0.089100     12.01100 ; qtot  0.452  CT  
     4 opls_135     1   MOL    C4    4    -0.089100     12.01100 ; qtot  0.363  CT  
     5 opls_135     1   MOL    C5    5     0.125700     12.01100 ; qtot  0.489  CT  
     6 opls_135     1   MOL    C6    6    -0.088000     12.01100 ; qtot  0.401  CT  
     7 opls_236     1   MOL    O1    7    -0.540000     15.99940 ; qtot -0.139  O   
     8 opls_x     1   MOL    O2    8    -0.439900      0.00000 ; qtot -0.579  x   
     9 opls_140     1   MOL    H1    9     0.047700      1.00800 ; qtot -0.532  HC  
    10 opls_140     1   MOL    H2   10     0.047700      1.00800 ; qtot -0.484  HC  
    11 opls_140     1   MOL    H3   11     0.047700      1.00800 ; qtot -0.436  HC  
    12 opls_140     1   MOL    H4   12     0.047700      1.00800 ; qtot -0.389  HC  
    13 opls_140     1   MOL    H5   13     0.047700      1.00800 ; qtot -0.341  HC  
    14 opls_140     1   MOL    H6   14     0.047700      1.00800 ; qtot -0.293  HC  
    15 opls_140     1   MOL    H7   15     0.047700      1.00800 ; qtot -0.245  HC  
    16 opls_140     1   MOL    H8   16     0.047700      1.00800 ; qtot -0.198  HC  
    17 opls_140     1   MOL    H9   17     0.047700      1.00800 ; qtot -0.150  HC  
    18 opls_140     1   MOL   H10   18     0.050033      1.00800 ; qtot -0.100  HC  
    19 opls_140     1   MOL   H11   19     0.050033      1.00800 ; qtot -0.050  HC  
    20 opls_140     1   MOL   H12   20     0.050033      1.00800 ; qtot -0.000  HC  

[ bonds ]
;   ai     aj funct   r             k
     1      6   1 ;    1.5270e-01    1.9652e+05 ;     C1 - C6          C - CT    
     1      7   1 ;    1.2190e-01    4.9421e+05 ;     C1 - O1          C - O     
     1      8   1 ;    1.3621e-01    2.9398e+05 ;     C1 - O2          C - x     
     2      6   1 ;    1.5354e-01    1.9154e+05 ;     C2 - C6         CT - CT    
     2      9   1 ;    1.0962e-01    2.8891e+05 ;     C2 - H1         CT - HC    
     2     10   1 ;    1.0962e-01    2.8891e+05 ;     C2 - H2         CT - HC    
     2     11   1 ;    1.0962e-01    2.8891e+05 ;     C2 - H3         CT - HC    
     3      6   1 ;    1.5354e-01    1.9154e+05 ;     C3 - C6         CT - CT    
     3     12   1 ;    1.0962e-01    2.8891e+05 ;     C3 - H4         CT - HC    
     3     13   1 ;    1.0962e-01    2.8891e+05 ;     C3 - H5         CT - HC    
     3     14   1 ;    1.0962e-01    2.8891e+05 ;     C3 - H6         CT - HC    
     4      6   1 ;    1.5354e-01    1.9154e+05 ;     C4 - C6         CT - CT    
     4     15   1 ;    1.0962e-01    2.8891e+05 ;     C4 - H7         CT - HC    
     4     16   1 ;    1.0962e-01    2.8891e+05 ;     C4 - H8         CT - HC    
     4     17   1 ;    1.0962e-01    2.8891e+05 ;     C4 - H9         CT - HC    
     5      8   1 ;    1.4273e-01    2.3620e+05 ;     C5 - O2         CT - x     
     5     18   1 ;    1.0969e-01    2.8804e+05 ;     C5 - H10        CT - HC    
     5     19   1 ;    1.0969e-01    2.8804e+05 ;     C5 - H11        CT - HC    
     5     20   1 ;    1.0969e-01    2.8804e+05 ;     C5 - H12        CT - HC    

[ pairs ]
;   ai     aj    funct
     1      9      1 ;     C1 - H1    
     1     10      1 ;     C1 - H2    
     1     11      1 ;     C1 - H3    
     1     12      1 ;     C1 - H4    
     1     13      1 ;     C1 - H5    
     1     14      1 ;     C1 - H6    
     1     15      1 ;     C1 - H7    
     1     16      1 ;     C1 - H8    
     1     17      1 ;     C1 - H9    
     1     18      1 ;     C1 - H10   
     1     19      1 ;     C1 - H11   
     1     20      1 ;     C1 - H12   
     2     12      1 ;     C2 - H4    
     2     13      1 ;     C2 - H5    
     2     14      1 ;     C2 - H6    
     2     15      1 ;     C2 - H7    
     2     16      1 ;     C2 - H8    
     2     17      1 ;     C2 - H9    
     3      9      1 ;     C3 - H1    
     3     10      1 ;     C3 - H2    
     3     11      1 ;     C3 - H3    
     3     15      1 ;     C3 - H7    
     3     16      1 ;     C3 - H8    
     3     17      1 ;     C3 - H9    
     4      9      1 ;     C4 - H1    
     4     10      1 ;     C4 - H2    
     4     11      1 ;     C4 - H3    
     4     12      1 ;     C4 - H4    
     4     13      1 ;     C4 - H5    
     4     14      1 ;     C4 - H6    
     6      5      1 ;     C6 - C5    
     7      2      1 ;     O1 - C2    
     7      3      1 ;     O1 - C3    
     7      4      1 ;     O1 - C4    
     7      5      1 ;     O1 - C5    
     8      2      1 ;     O2 - C2    
     8      3      1 ;     O2 - C3    
     8      4      1 ;     O2 - C4    

[ angles ]
;   ai     aj     ak    funct   theta         cth
     1      6      2      1 ;    1.1143e+02    5.0509e+02 ;     C1 - C6   - C2        C -   CT - CT  
     1      6      3      1 ;    1.1143e+02    5.0509e+02 ;     C1 - C6   - C3        C -   CT - CT  
     1      6      4      1 ;    1.1143e+02    5.0509e+02 ;     C1 - C6   - C4        C -   CT - CT  
     1      8      5      1 ;    1.1582e+02    7.4835e+02 ;     C1 - O2   - C5        C -    x - CT  
     2      6      3      1 ;    1.1263e+02    5.0099e+02 ;     C2 - C6   - C3       CT -   CT - CT  
     2      6      4      1 ;    1.1263e+02    5.0099e+02 ;     C2 - C6   - C4       CT -   CT - CT  
     3      6      4      1 ;    1.1263e+02    5.0099e+02 ;     C3 - C6   - C4       CT -   CT - CT  
     6      1      7      1 ;    1.2290e+02    6.3973e+02 ;     C6 - C1   - O1       CT -    C - O   
     6      1      8      1 ;    1.1080e+02    6.5245e+02 ;     C6 - C1   - O2       CT -    C - x   
     6      2      9      1 ;    1.0968e+02    3.6208e+02 ;     C6 - C2   - H1       CT -   CT - HC  
     6      2     10      1 ;    1.0968e+02    3.6208e+02 ;     C6 - C2   - H2       CT -   CT - HC  
     6      2     11      1 ;    1.0968e+02    3.6208e+02 ;     C6 - C2   - H3       CT -   CT - HC  
     6      3     12      1 ;    1.0968e+02    3.6208e+02 ;     C6 - C3   - H4       CT -   CT - HC  
     6      3     13      1 ;    1.0968e+02    3.6208e+02 ;     C6 - C3   - H5       CT -   CT - HC  
     6      3     14      1 ;    1.0968e+02    3.6208e+02 ;     C6 - C3   - H6       CT -   CT - HC  
     6      4     15      1 ;    1.0968e+02    3.6208e+02 ;     C6 - C4   - H7       CT -   CT - HC  
     6      4     16      1 ;    1.0968e+02    3.6208e+02 ;     C6 - C4   - H8       CT -   CT - HC  
     6      4     17      1 ;    1.0968e+02    3.6208e+02 ;     C6 - C4   - H9       CT -   CT - HC  
     7      1      8      1 ;    1.2320e+02    8.4734e+02 ;     O1 - C1   - O2        O -    C - x   
     8      5     18      1 ;    1.1034e+02    4.7028e+02 ;     O2 - C5   - H10       x -   CT - HC  
     8      5     19      1 ;    1.1034e+02    4.7028e+02 ;     O2 - C5   - H11       x -   CT - HC  
     8      5     20      1 ;    1.1034e+02    4.7028e+02 ;     O2 - C5   - H12       x -   CT - HC  
     9      2     10      1 ;    1.0773e+02    2.9957e+02 ;     H1 - C2   - H2       HC -   CT - HC  
     9      2     11      1 ;    1.0773e+02    2.9957e+02 ;     H1 - C2   - H3       HC -   CT - HC  
    10      2     11      1 ;    1.0773e+02    2.9957e+02 ;     H2 - C2   - H3       HC -   CT - HC  
    12      3     13      1 ;    1.0773e+02    2.9957e+02 ;     H4 - C3   - H5       HC -   CT - HC  
    12      3     14      1 ;    1.0773e+02    2.9957e+02 ;     H4 - C3   - H6       HC -   CT - HC  
    13      3     14      1 ;    1.0773e+02    2.9957e+02 ;     H5 - C3   - H6       HC -   CT - HC  
    15      4     16      1 ;    1.0773e+02    2.9957e+02 ;     H7 - C4   - H8       HC -   CT - HC  
    15      4     17      1 ;    1.0773e+02    2.9957e+02 ;     H7 - C4   - H9       HC -   CT - HC  
    16      4     17      1 ;    1.0773e+02    2.9957e+02 ;     H8 - C4   - H9       HC -   CT - HC  
    18      5     19      1 ;    1.0855e+02    2.9824e+02 ;    H10 - C5   - H11      HC -   CT - HC  
    18      5     20      1 ;    1.0855e+02    2.9824e+02 ;    H10 - C5   - H12      HC -   CT - HC  
    19      5     20      1 ;    1.0855e+02    2.9824e+02 ;    H11 - C5   - H12      HC -   CT - HC  

[ dihedrals ] ; propers
; for gromacs 4.5 or higher, using funct 9
;    i      j      k      l   func   phase     kd      pn
     1      6      2      9      9 ;     0.00   0.65084   3 ;     C1-    C6-    C2-    H1
     1      6      2     10      9 ;     0.00   0.65084   3 ;     C1-    C6-    C2-    H2
     1      6      2     11      9 ;     0.00   0.65084   3 ;     C1-    C6-    C2-    H3
     1      6      3     12      9 ;     0.00   0.65084   3 ;     C1-    C6-    C3-    H4
     1      6      3     13      9 ;     0.00   0.65084   3 ;     C1-    C6-    C3-    H5
     1      6      3     14      9 ;     0.00   0.65084   3 ;     C1-    C6-    C3-    H6
     1      6      4     15      9 ;     0.00   0.65084   3 ;     C1-    C6-    C4-    H7
     1      6      4     16      9 ;     0.00   0.65084   3 ;     C1-    C6-    C4-    H8
     1      6      4     17      9 ;     0.00   0.65084   3 ;     C1-    C6-    C4-    H9
     1      8      5     18      9 ;     0.00   1.60387   3 ;     C1-    O2-    C5-   H10
     1      8      5     19      9 ;     0.00   1.60387   3 ;     C1-    O2-    C5-   H11
     1      8      5     20      9 ;     0.00   1.60387   3 ;     C1-    O2-    C5-   H12
     2      6      3     12      9 ;     0.00   0.54392   3 ;     C2-    C6-    C3-    H4
     2      6      3     13      9 ;     0.00   0.54392   3 ;     C2-    C6-    C3-    H5
     2      6      3     14      9 ;     0.00   0.54392   3 ;     C2-    C6-    C3-    H6
     2      6      4     15      9 ;     0.00   0.54392   3 ;     C2-    C6-    C4-    H7
     2      6      4     16      9 ;     0.00   0.54392   3 ;     C2-    C6-    C4-    H8
     2      6      4     17      9 ;     0.00   0.54392   3 ;     C2-    C6-    C4-    H9
     3      6      2      9      9 ;     0.00   0.54392   3 ;     C3-    C6-    C2-    H1
     3      6      2     10      9 ;     0.00   0.54392   3 ;     C3-    C6-    C2-    H2
     3      6      2     11      9 ;     0.00   0.54392   3 ;     C3-    C6-    C2-    H3
     3      6      4     15      9 ;     0.00   0.54392   3 ;     C3-    C6-    C4-    H7
     3      6      4     16      9 ;     0.00   0.54392   3 ;     C3-    C6-    C4-    H8
     3      6      4     17      9 ;     0.00   0.54392   3 ;     C3-    C6-    C4-    H9
     4      6      2      9      9 ;     0.00   0.54392   3 ;     C4-    C6-    C2-    H1
     4      6      2     10      9 ;     0.00   0.54392   3 ;     C4-    C6-    C2-    H2
     4      6      2     11      9 ;     0.00   0.54392   3 ;     C4-    C6-    C2-    H3
     4      6      3     12      9 ;     0.00   0.54392   3 ;     C4-    C6-    C3-    H4
     4      6      3     13      9 ;     0.00   0.54392   3 ;     C4-    C6-    C3-    H5
     4      6      3     14      9 ;     0.00   0.54392   3 ;     C4-    C6-    C3-    H6
     6      1      8      5      9 ;     0.00   3.13800   3 ;     C6-    C1-    O2-    C5
     6      1      8      5      9 ;   180.00   7.90776   1 ;     C6-    C1-    O2-    C5
     6      1      8      5      9 ;   180.00  13.76536   2 ;     C6-    C1-    O2-    C5
     7      1      6      2      9 ;     0.00   2.84512   1 ;     O1-    C1-    C6-    C2
     7      1      6      2      9 ;   180.00   0.83680   2 ;     O1-    C1-    C6-    C2
     7      1      6      2      9 ;   180.00   1.84096   3 ;     O1-    C1-    C6-    C2
     7      1      6      3      9 ;     0.00   2.84512   1 ;     O1-    C1-    C6-    C3
     7      1      6      3      9 ;   180.00   0.83680   2 ;     O1-    C1-    C6-    C3
     7      1      6      3      9 ;   180.00   1.84096   3 ;     O1-    C1-    C6-    C3
     7      1      6      4      9 ;     0.00   2.84512   1 ;     O1-    C1-    C6-    C4
     7      1      6      4      9 ;   180.00   0.83680   2 ;     O1-    C1-    C6-    C4
     7      1      6      4      9 ;   180.00   1.84096   3 ;     O1-    C1-    C6-    C4
     7      1      8      5      9 ;   180.00   5.85760   1 ;     O1-    C1-    O2-    C5
     7      1      8      5      9 ;   180.00  11.29680   2 ;     O1-    C1-    O2-    C5
     8      1      6      2      9 ;   180.00   0.00000   2 ;     O2-    C1-    C6-    C2
     8      1      6      3      9 ;   180.00   0.00000   2 ;     O2-    C1-    C6-    C3
     8      1      6      4      9 ;   180.00   0.00000   2 ;     O2-    C1-    C6-    C4

[ dihedrals ] ; impropers
; treated as propers in GROMACS to use correct AMBER analytical function
;    i      j      k      l   func   phase     kd      pn
     8      1      7      6      4 ;   180.00   4.60240   2 ;     O2-    C1-    O1-    C6
