methyl_trimethylacetate
    20
   2.9200000  -1.5220000   1.0970000   0.7040000  -0.4120000   0.7310000
   2.5940000   0.0300000  -0.8450000   1.4940000  -2.2150000  -0.8430000
   3.1760000  -2.9930000   2.9350000   1.9240000  -1.0340000   0.0390000
   4.0730000  -1.1200000   1.2000000   2.3400000  -2.4610000   1.9030000
   1.0050000   0.3980000   1.4050000   0.0000000   0.0000000  -0.0000000
   0.1620000  -1.1490000   1.3330000   2.9230000   0.8900000  -0.2500000
   1.9060000   0.4000000  -1.6140000   3.4780000  -0.3730000  -1.3520000
   0.9620000  -2.9780000  -0.2650000   0.8280000  -1.8860000  -1.6480000
   2.3640000  -2.7010000  -1.3000000   4.1360000  -2.4710000   2.9330000
   3.3300000  -4.0610000   2.7660000   2.6860000  -2.8460000   3.9010000
