mobley_63712_GMX.gro created by acpype (v: 2023.10.27) on Wed May 20 23:43:55 2026
   20
    1MOL     C1    1   2.287   2.410   2.357
    1MOL     C2    2   2.323   2.271   2.408
    1MOL     C3    3   2.198   2.401   2.234
    1MOL     C4    4   2.380   2.183   2.296
    1MOL     C5    5   2.258   2.309   2.128
    1MOL     C6    6   2.176   2.092   2.199
    1MOL     N1    7   2.294   2.175   2.177
    1MOL     H1    8   2.237   2.467   2.436
    1MOL     H2    9   2.379   2.464   2.332
    1MOL     H3   10   2.397   2.279   2.489
    1MOL     H4   11   2.234   2.223   2.451
    1MOL     H5   12   2.099   2.363   2.263
    1MOL     H6   13   2.182   2.501   2.192
    1MOL     H7   14   2.477   2.224   2.265
    1MOL     H8   15   2.400   2.083   2.334
    1MOL     H9   16   2.190   2.301   2.042
    1MOL    H10   17   2.349   2.356   2.088
    1MOL    H11   18   2.127   2.068   2.104
    1MOL    H12   19   2.105   2.143   2.264
    1MOL    H13   20   2.205   1.998   2.248
   4.53059   4.53059   4.53059
