mobley_1963873_GMX.gro created by acpype (v: 2023.10.27) on Wed May 20 23:59:28 2026
   12
    1MOL     C1    1   2.294   2.340   2.272
    1MOL     C2    2   2.181   2.430   2.229
    1MOL     C3    3   2.349   2.100   2.307
    1MOL     N1    4   2.258   2.207   2.272
    1MOL     O1    5   2.405   2.385   2.302
    1MOL     H1    6   2.205   2.534   2.254
    1MOL     H2    7   2.167   2.421   2.121
    1MOL     H3    8   2.089   2.402   2.280
    1MOL     H4    9   2.348   2.088   2.416
    1MOL     H5   10   2.450   2.127   2.274
    1MOL     H6   11   2.317   2.008   2.259
    1MOL     H7   12   2.163   2.182   2.246
   4.53782   4.53782   4.53782
