mobley_1963873_GMX.gro created by acpype (v: 2023.10.27) on Wed May 20 23:59:28 2026
 9177
    1MOL     C1    1   2.294   2.340   2.272
    1MOL     C2    2   2.181   2.430   2.229
    1MOL     C3    3   2.349   2.100   2.307
    1MOL     N1    4   2.258   2.207   2.272
    1MOL     O1    5   2.405   2.385   2.302
    1MOL     H1    6   2.205   2.534   2.254
    1MOL     H2    7   2.167   2.421   2.121
    1MOL     H3    8   2.089   2.402   2.280
    1MOL     H4    9   2.348   2.088   2.416
    1MOL     H5   10   2.450   2.127   2.274
    1MOL     H6   11   2.317   2.008   2.259
    1MOL     H7   12   2.163   2.182   2.246
    2SOL     OW   13   0.230   0.628   0.113
    2SOL    HW1   14   0.137   0.626   0.150
    2SOL    HW2   15   0.231   0.589   0.021
    3SOL     OW   16   0.225   0.275   0.996
    3SOL    HW1   17   0.260   0.258   1.088
    3SOL    HW2   18   0.137   0.230   0.984
    4SOL     OW   19   0.019   0.368   0.647
    4SOL    HW1   20  -0.063   0.411   0.686
    4SOL    HW2   21  -0.009   0.295   0.584
    5SOL     OW   22   0.569   1.275   1.165
    5SOL    HW1   23   0.476   1.268   1.128
    5SOL    HW2   24   0.580   1.364   1.209
    6SOL     OW   25   1.555   1.511   0.703
    6SOL    HW1   26   1.498   1.495   0.784
    6SOL    HW2   27   1.496   1.521   0.623
    7SOL     OW   28   1.135   0.703   0.717
    7SOL    HW1   29   1.192   0.781   0.692
    7SOL    HW2   30   1.075   0.729   0.793
    8SOL     OW   31   1.755   0.607   0.231
    8SOL    HW1   32   1.743   0.594   0.132
    8SOL    HW2   33   1.725   0.526   0.280
    9SOL     OW   34   0.768   1.144   1.023
    9SOL    HW1   35   0.690   1.161   1.083
    9SOL    HW2   36   0.802   1.231   0.987
   10SOL     OW   37   0.850   0.798   1.823
   10SOL    HW1   38   0.846   0.874   1.888
   10SOL    HW2   39   0.872   0.834   1.732
   11SOL     OW   40   0.685   1.012   0.665
   11SOL    HW1   41   0.754   0.996   0.735
   11SOL    HW2   42   0.612   1.069   0.703
   12SOL     OW   43   0.686   1.161   1.803
   12SOL    HW1   44   0.746   1.240   1.817
   12SOL    HW2   45   0.600   1.192   1.762
   13SOL     OW   46   0.335   1.435   1.061
   13SOL    HW1   47   0.257   1.404   1.008
   13SOL    HW2   48   0.393   1.493   1.004
   14SOL     OW   49   1.460   1.505   1.339
   14SOL    HW1   50   1.484   1.599   1.365
   14SOL    HW2   51   1.444   1.451   1.421
   15SOL     OW   52   0.438   0.392   1.499
   15SOL    HW1   53   0.520   0.336   1.508
   15SOL    HW2   54   0.357   0.334   1.503
   16SOL     OW   55   1.603   0.447   0.737
   16SOL    HW1   56   1.529   0.493   0.687
   16SOL    HW2   57   1.654   0.515   0.790
   17SOL     OW   58   0.231   1.713   0.483
   17SOL    HW1   59   0.265   1.790   0.537
   17SOL    HW2   60   0.275   1.713   0.393
   18SOL     OW   61   1.127   1.341   1.690
   18SOL    HW1   62   1.174   1.341   1.778
   18SOL    HW2   63   1.079   1.254   1.679
   19SOL     OW   64   0.230   1.434   0.538
   19SOL    HW1   65   0.204   1.530   0.538
   19SOL    HW2   66   0.159   1.380   0.583
   20SOL     OW   67   0.240   1.091   0.886
   20SOL    HW1   68   0.254   1.007   0.938
   20SOL    HW2   69   0.185   1.155   0.941
   21SOL     OW   70   0.620   1.786   1.439
   21SOL    HW1   71   0.528   1.769   1.474
   21SOL    HW2   72   0.648   1.878   1.465
   22SOL     OW   73   0.606   0.964   0.123
   22SOL    HW1   74   0.613   1.048   0.069
   22SOL    HW2   75   0.652   0.977   0.211
   23SOL     OW   76   1.594   0.114   1.480
   23SOL    HW1   77   1.576   0.181   1.408
   23SOL    HW2   78   1.591   0.160   1.569
   24SOL     OW   79   0.122   0.643   0.563
   24SOL    HW1   80   0.077   0.555   0.580
   24SOL    HW2   81   0.121   0.697   0.647
   25SOL     OW   82   1.842   1.767   0.359
   25SOL    HW1   83   1.896   1.738   0.439
   25SOL    HW2   84   1.872   1.857   0.330
   26SOL     OW   85   0.027   1.596   0.117
   26SOL    HW1   86   0.008   1.500   0.138
   26SOL    HW2   87  -0.006   1.654   0.192
   27SOL     OW   88   1.689   0.922   0.612
   27SOL    HW1   89   1.784   0.893   0.620
   27SOL    HW2   90   1.681   0.987   0.537
   28SOL     OW   91   1.641   1.108   0.432
   28SOL    HW1   92   1.727   1.110   0.380
   28SOL    HW2   93   1.655   1.155   0.520
   29SOL     OW   94   0.113   0.737   1.597
   29SOL    HW1   95   0.201   0.724   1.642
   29SOL    HW2   96   0.100   0.834   1.575
   30SOL     OW   97   0.613   1.365   0.726
   30SOL    HW1   98   0.564   1.278   0.735
   30SOL    HW2   99   0.590   1.408   0.639
   31SOL     OW  100   1.293   1.228   1.423
   31SOL    HW1  101   1.330   1.155   1.365
   31SOL    HW2  102   1.345   1.233   1.508
   32SOL     OW  103   0.809   0.004   0.502
   32SOL    HW1  104   0.849   0.095   0.493
   32SOL    HW2  105   0.709   0.012   0.508
   33SOL     OW  106   0.197   0.976   1.264
   33SOL    HW1  107   0.286   0.931   1.250
   33SOL    HW2  108   0.124   0.911   1.245
   34SOL     OW  109   1.525   0.999   0.190
   34SOL    HW1  110   1.462   0.923   0.203
   34SOL    HW2  111   1.573   1.017   0.276
   35SOL     OW  112   1.187   1.792   1.616
   35SOL    HW1  113   1.211   1.852   1.540
   35SOL    HW2  114   1.194   1.697   1.586
   36SOL     OW  115   0.317   0.251   1.801
   36SOL    HW1  116   0.388   0.322   1.807
   36SOL    HW2  117   0.229   0.290   1.829
   37SOL     OW  118   1.466   1.417   0.953
   37SOL    HW1  119   1.407   1.423   1.033
   37SOL    HW2  120   1.451   1.329   0.907
   38SOL     OW  121   1.667   1.714   0.572
   38SOL    HW1  122   1.626   1.691   0.484
   38SOL    HW2  123   1.649   1.640   0.637
   39SOL     OW  124   0.598   0.729   0.270
   39SOL    HW1  125   0.622   0.798   0.202
   39SOL    HW2  126   0.520   0.762   0.324
   40SOL     OW  127   1.281   0.345   0.944
   40SOL    HW1  128   1.195   0.295   0.931
   40SOL    HW2  129   1.343   0.291   1.000
   41SOL     OW  130   1.576   1.662   0.307
   41SOL    HW1  131   1.665   1.708   0.310
   41SOL    HW2  132   1.555   1.638   0.212
   42SOL     OW  133   0.807   0.605   1.465
   42SOL    HW1  134   0.760   0.602   1.554
   42SOL    HW2  135   0.756   0.550   1.399
   43SOL     OW  136   1.394   0.469   1.674
   43SOL    HW1  137   1.374   0.512   1.762
   43SOL    HW2  138   1.472   0.407   1.683
   44SOL     OW  139   0.973   0.890   1.572
   44SOL    HW1  140   1.019   0.806   1.543
   44SOL    HW2  141   0.917   0.924   1.497
   45SOL     OW  142   0.991   0.410   1.242
   45SOL    HW1  143   0.914   0.444   1.296
   45SOL    HW2  144   0.957   0.359   1.163
   46SOL     OW  145   1.041   0.701   0.429
   46SOL    HW1  146   1.067   0.697   0.525
   46SOL    HW2  147   0.956   0.650   0.415
   47SOL     OW  148   0.076   0.811   0.789
   47SOL    HW1  149   0.175   0.799   0.798
   47SOL    HW2  150   0.052   0.906   0.810
   48SOL     OW  151   0.130   1.821   1.571
   48SOL    HW1  152   0.120   1.806   1.670
   48SOL    HW2  153   0.044   1.857   1.535
   49SOL     OW  154   0.865   0.348   0.195
   49SOL    HW1  155   0.924   0.411   0.146
   49SOL    HW2  156   0.884   0.254   0.166
   50SOL     OW  157   1.719   0.585   1.831
   50SOL    HW1  158   1.693   0.674   1.795
   50SOL    HW2  159   1.717   0.517   1.758
   51SOL     OW  160   1.362   1.144   0.545
   51SOL    HW1  161   1.445   1.115   0.497
   51SOL    HW2  162   1.313   1.211   0.489
   52SOL     OW  163   0.550   0.196   0.885
   52SOL    HW1  164   0.545   0.191   0.985
   52SOL    HW2  165   0.552   0.292   0.856
   53SOL     OW  166   1.008   1.456   0.477
   53SOL    HW1  167   0.962   1.528   0.425
   53SOL    HW2  168   1.004   1.476   0.575
   54SOL     OW  169   0.351   1.801   0.853
   54SOL    HW1  170   0.401   1.715   0.859
   54SOL    HW2  171   0.416   1.878   0.850
   55SOL     OW  172   1.795   1.066   0.873
   55SOL    HW1  173   1.733   1.051   0.797
   55SOL    HW2  174   1.743   1.077   0.958
   56SOL     OW  175   1.227   1.550   1.506
   56SOL    HW1  176   1.233   1.473   1.570
   56SOL    HW2  177   1.175   1.524   1.426
   57SOL     OW  178   0.321   0.943   0.242
   57SOL    HW1  179   0.403   0.982   0.200
   57SOL    HW2  180   0.294   0.861   0.193
   58SOL     OW  181   1.458   0.735   0.728
   58SOL    HW1  182   1.453   0.670   0.803
   58SOL    HW2  183   1.538   0.794   0.741
   59SOL     OW  184   0.461   1.266   1.727
   59SOL    HW1  185   0.411   1.267   1.641
   59SOL    HW2  186   0.398   1.248   1.803
   60SOL     OW  187   1.111   1.776   0.237
   60SOL    HW1  188   1.051   1.714   0.287
   60SOL    HW2  189   1.142   1.732   0.152
   61SOL     OW  190   0.202   0.285   1.498
   61SOL    HW1  191   0.122   0.345   1.485
   61SOL    HW2  192   0.192   0.236   1.584
   62SOL     OW  193   1.632   1.377   0.081
   62SOL    HW1  194   1.600   1.471   0.071
   62SOL    HW2  195   1.556   1.314   0.069
   63SOL     OW  196   0.464   1.743   0.323
   63SOL    HW1  197   0.497   1.782   0.409
   63SOL    HW2  198   0.540   1.736   0.258
   64SOL     OW  199   1.400   0.107   0.426
   64SOL    HW1  200   1.376   0.070   0.336
   64SOL    HW2  201   1.499   0.123   0.430
   65SOL     OW  202   0.249   1.785   1.241
   65SOL    HW1  203   0.306   1.720   1.291
   65SOL    HW2  204   0.233   1.752   1.148
   66SOL     OW  205   0.940   1.698   0.904
   66SOL    HW1  206   1.020   1.641   0.925
   66SOL    HW2  207   0.891   1.658   0.827
   67SOL     OW  208   0.382   0.700   0.480
   67SOL    HW1  209   0.427   0.610   0.477
   67SOL    HW2  210   0.288   0.689   0.513
   68SOL     OW  211   1.547   0.222   1.729
   68SOL    HW1  212   1.542   0.259   1.821
   68SOL    HW2  213   1.475   0.153   1.717
   69SOL     OW  214   0.614   0.122   0.117
   69SOL    HW1  215   0.712   0.100   0.124
   69SOL    HW2  216   0.583   0.105   0.024
   70SOL     OW  217   0.781   0.264   1.749
   70SOL    HW1  218   0.848   0.203   1.792
   70SOL    HW2  219   0.708   0.283   1.814
   71SOL     OW  220   0.888   1.514   1.195
   71SOL    HW1  221   0.865   1.489   1.101
   71SOL    HW2  222   0.949   1.445   1.234
   72SOL     OW  223   1.351   0.590   1.433
   72SOL    HW1  224   1.379   0.547   1.518
   72SOL    HW2  225   1.376   0.686   1.434
   73SOL     OW  226   0.803   1.402   0.924
   73SOL    HW1  227   0.893   1.416   0.882
   73SOL    HW2  228   0.732   1.404   0.853
   74SOL     OW  229   0.922   0.503   0.899
   74SOL    HW1  230   0.897   0.494   0.803
   74SOL    HW2  231   0.970   0.421   0.930
   75SOL     OW  232   0.539   0.064   0.512
   75SOL    HW1  233   0.458   0.065   0.570
   75SOL    HW2  234   0.542   0.147   0.457
   76SOL     OW  235   1.434   1.188   0.041
   76SOL    HW1  236   1.466   1.112   0.098
   76SOL    HW2  237   1.342   1.215   0.071
   77SOL     OW  238   0.297   0.035   0.171
   77SOL    HW1  239   0.346   0.119   0.150
   77SOL    HW2  240   0.359  -0.030   0.216
   78SOL     OW  241   0.935   0.236   0.480
   78SOL    HW1  242   0.887   0.277   0.402
   78SOL    HW2  243   1.034   0.234   0.461
   79SOL     OW  244   1.076   0.683   1.464
   79SOL    HW1  245   0.996   0.622   1.467
   79SOL    HW2  246   1.157   0.630   1.440
   80SOL     OW  247   1.227   1.570   0.793
   80SOL    HW1  248   1.248   1.644   0.728
   80SOL    HW2  249   1.295   1.570   0.866
   81SOL     OW  250   0.459   1.152   0.741
   81SOL    HW1  251   0.388   1.125   0.806
   81SOL    HW2  252   0.433   1.124   0.648
   82SOL     OW  253   1.271   1.797   0.591
   82SOL    HW1  254   1.315   1.861   0.527
   82SOL    HW2  255   1.221   1.849   0.661
   83SOL     OW  256   1.032   0.549   0.016
   83SOL    HW1  257   0.991   0.631  -0.023
   83SOL    HW2  258   1.096   0.575   0.089
   84SOL     OW  259   0.078   0.556   1.386
   84SOL    HW1  260   0.170   0.555   1.345
   84SOL    HW2  261   0.072   0.630   1.453
   85SOL     OW  262   0.561   0.222   1.147
   85SOL    HW1  263   0.599   0.138   1.184
   85SOL    HW2  264   0.473   0.241   1.191
   86SOL     OW  265   0.866   0.454   0.642
   86SOL    HW1  266   0.834   0.526   0.580
   86SOL    HW2  267   0.890   0.373   0.589
   87SOL     OW  268   1.017   0.039   0.753
   87SOL    HW1  269   0.945   0.044   0.684
   87SOL    HW2  270   0.993  -0.030   0.822
   88SOL     OW  271   1.429   1.173   0.867
   88SOL    HW1  272   1.374   1.089   0.860
   88SOL    HW2  273   1.455   1.202   0.775
   89SOL     OW  274   1.466   0.590   0.992
   89SOL    HW1  275   1.436   0.495   0.999
   89SOL    HW2  276   1.539   0.606   1.058
   90SOL     OW  277   1.857   0.833   0.377
   90SOL    HW1  278   1.899   0.769   0.441
   90SOL    HW2  279   1.819   0.782   0.299
   91SOL     OW  280   0.488   1.385   0.174
   91SOL    HW1  281   0.401   1.370   0.221
   91SOL    HW2  282   0.471   1.411   0.079
   92SOL     OW  283   1.664   1.280   0.657
   92SOL    HW1  284   1.763   1.288   0.671
   92SOL    HW2  285   1.619   1.364   0.688
   93SOL     OW  286   1.390   0.575   0.078
   93SOL    HW1  287   1.336   0.554   0.159
   93SOL    HW2  288   1.481   0.534   0.087
   94SOL     OW  289   0.527   0.256   0.328
   94SOL    HW1  290   0.554   0.197   0.253
   94SOL    HW2  291   0.527   0.351   0.297
   95SOL     OW  292   1.754   1.223   1.588
   95SOL    HW1  293   1.845   1.184   1.575
   95SOL    HW2  294   1.762   1.319   1.612
   96SOL     OW  295   1.064   1.347   1.340
   96SOL    HW1  296   0.984   1.324   1.395
   96SOL    HW2  297   1.147   1.321   1.389
   97SOL     OW  298   1.592   1.629   1.625
   97SOL    HW1  299   1.619   1.663   1.535
   97SOL    HW2  300   1.671   1.591   1.671
   98SOL     OW  301   1.111   1.195   1.100
   98SOL    HW1  302   1.071   1.239   1.181
   98SOL    HW2  303   1.070   1.232   1.017
   99SOL     OW  304   1.638   1.099   1.079
   99SOL    HW1  305   1.643   1.180   1.138
   99SOL    HW2  306   1.552   1.101   1.028
  100SOL     OW  307   0.915   0.089   1.402
  100SOL    HW1  308   0.940   0.069   1.307
  100SOL    HW2  309   0.987   0.145   1.444
  101SOL     OW  310   0.980   1.116   1.719
  101SOL    HW1  311   0.881   1.122   1.729
  101SOL    HW2  312   1.003   1.036   1.663
  102SOL     OW  313   0.705   1.050   0.368
  102SOL    HW1  314   0.691   1.057   0.467
  102SOL    HW2  315   0.789   0.999   0.350
  103SOL     OW  316   0.410   0.813   1.251
  103SOL    HW1  317   0.496   0.825   1.301
  103SOL    HW2  318   0.368   0.726   1.278
  104SOL     OW  319   1.274   0.386   1.262
  104SOL    HW1  320   1.295   0.460   1.326
  104SOL    HW2  321   1.185   0.403   1.219
  105SOL     OW  322   0.064   1.564   1.331
  105SOL    HW1  323   0.018   1.646   1.297
  105SOL    HW2  324   0.162   1.583   1.340
  106SOL     OW  325   0.367   1.100   0.501
  106SOL    HW1  326   0.360   1.183   0.445
  106SOL    HW2  327   0.371   1.020   0.441
  107SOL     OW  328   0.566   0.537   0.865
  107SOL    HW1  329   0.578   0.603   0.791
  107SOL    HW2  330   0.612   0.571   0.948
  108SOL     OW  331   1.252   1.348   0.388
  108SOL    HW1  332   1.302   1.425   0.428
  108SOL    HW2  333   1.157   1.350   0.420
  109SOL     OW  334   1.272   1.445   1.142
  109SOL    HW1  335   1.319   1.458   1.229
  109SOL    HW2  336   1.206   1.371   1.151
  110SOL     OW  337   1.582   0.639   0.472
  110SOL    HW1  338   1.551   0.700   0.545
  110SOL    HW2  339   1.632   0.691   0.403
  111SOL     OW  340   0.354   1.510   1.329
  111SOL    HW1  341   0.333   1.466   1.242
  111SOL    HW2  342   0.451   1.536   1.332
  112SOL     OW  343   0.402   0.751   1.598
  112SOL    HW1  344   0.470   0.806   1.551
  112SOL    HW2  345   0.442   0.663   1.625
  113SOL     OW  346   1.587   0.779   1.670
  113SOL    HW1  347   1.495   0.817   1.665
  113SOL    HW2  348   1.647   0.826   1.605
  114SOL     OW  349   1.013   0.105   1.770
  114SOL    HW1  350   1.019   0.190   1.718
  114SOL    HW2  351   1.045   0.029   1.713
  115SOL     OW  352   0.504   0.050   1.740
  115SOL    HW1  353   0.462  -0.007   1.670
  115SOL    HW2  354   0.438   0.119   1.772
  116SOL     OW  355   0.573   0.870   1.029
  116SOL    HW1  356   0.617   0.959   1.020
  116SOL    HW2  357   0.510   0.870   1.106
  117SOL     OW  358   1.360   0.862   1.045
  117SOL    HW1  359   1.285   0.862   0.979
  117SOL    HW2  360   1.397   0.770   1.054
  118SOL     OW  361   1.209   0.525   0.275
  118SOL    HW1  362   1.222   0.441   0.329
  118SOL    HW2  363   1.180   0.599   0.335
  119SOL     OW  364   0.307   0.213   1.231
  119SOL    HW1  365   0.284   0.250   1.321
  119SOL    HW2  366   0.277   0.118   1.225
  120SOL     OW  367   0.037   1.310   1.282
  120SOL    HW1  368   0.090   1.261   1.350
  120SOL    HW2  369   0.059   1.408   1.287
  121SOL     OW  370   0.732   0.634   1.064
  121SOL    HW1  371   0.791   0.608   0.988
  121SOL    HW2  372   0.704   0.730   1.053
  122SOL     OW  373   1.728   0.935   1.854
  122SOL    HW1  374   1.682   0.928   1.765
  122SOL    HW2  375   1.666   0.979   1.920
  123SOL     OW  376   0.307   0.063   0.618
  123SOL    HW1  377   0.296   0.157   0.651
  123SOL    HW2  378   0.302   0.000   0.695
  124SOL     OW  379   1.622   0.367   0.374
  124SOL    HW1  380   1.624   0.291   0.438
  124SOL    HW2  381   1.574   0.444   0.414
  125SOL     OW  382   1.023   0.766   0.966
  125SOL    HW1  383   1.038   0.787   1.062
  125SOL    HW2  384   0.993   0.671   0.957
  126SOL     OW  385   0.980   1.573   1.700
  126SOL    HW1  386   0.960   1.617   1.612
  126SOL    HW2  387   1.019   1.482   1.684
  127SOL     OW  388   1.859   1.518   1.605
  127SOL    HW1  389   1.873   1.545   1.510
  127SOL    HW2  390   1.942   1.540   1.658
  128SOL     OW  391   0.350   0.898   1.804
  128SOL    HW1  392   0.426   0.942   1.852
  128SOL    HW2  393   0.385   0.851   1.722
  129SOL     OW  394   1.540   0.274   0.125
  129SOL    HW1  395   1.479   0.199   0.148
  129SOL    HW2  396   1.562   0.326   0.208
  130SOL     OW  397   1.303   0.838   0.042
  130SOL    HW1  398   1.337   0.745   0.057
  130SOL    HW2  399   1.321   0.865  -0.053
  131SOL     OW  400   1.068   1.333   0.849
  131SOL    HW1  401   1.075   1.249   0.794
  131SOL    HW2  402   1.130   1.402   0.813
  132SOL     OW  403   0.319   0.810   0.949
  132SOL    HW1  404   0.412   0.846   0.954
  132SOL    HW2  405   0.313   0.725   1.001
  133SOL     OW  406   0.339   0.509   1.006
  133SOL    HW1  407   0.287   0.426   0.989
  133SOL    HW2  408   0.416   0.514   0.942
  134SOL     OW  409   1.138   0.380   1.678
  134SOL    HW1  410   1.093   0.443   1.742
  134SOL    HW2  411   1.231   0.411   1.661
  135SOL     OW  412   1.160   0.207   1.477
  135SOL    HW1  413   1.160   0.271   1.554
  135SOL    HW2  414   1.188   0.255   1.394
  136SOL     OW  415   0.008   1.326   0.200
  136SOL    HW1  416  -0.085   1.347   0.169
  136SOL    HW2  417   0.018   1.227   0.213
  137SOL     OW  418   0.088   1.801   0.927
  137SOL    HW1  419   0.046   1.715   0.900
  137SOL    HW2  420   0.182   1.804   0.893
  138SOL     OW  421   0.504   1.568   0.910
  138SOL    HW1  422   0.570   1.642   0.919
  138SOL    HW2  423   0.548   1.489   0.868
  139SOL     OW  424   1.002   0.796   1.238
  139SOL    HW1  425   1.043   0.764   1.324
  139SOL    HW2  426   0.906   0.769   1.235
  140SOL     OW  427   0.040   0.544   1.114
  140SOL    HW1  428   0.125   0.511   1.073
  140SOL    HW2  429   0.053   0.559   1.212
  141SOL     OW  430   0.189   0.520   1.722
  141SOL    HW1  431   0.248   0.480   1.652
  141SOL    HW2  432   0.131   0.591   1.681
  142SOL     OW  433   1.369   0.950   1.660
  142SOL    HW1  434   1.408   1.039   1.680
  142SOL    HW2  435   1.379   0.930   1.563
  143SOL     OW  436   0.815   0.572   0.325
  143SOL    HW1  437   0.822   0.483   0.279
  143SOL    HW2  438   0.721   0.606   0.317
  144SOL     OW  439   1.657   0.604   1.206
  144SOL    HW1  440   1.619   0.535   1.268
  144SOL    HW2  441   1.739   0.568   1.162
  145SOL     OW  442   0.252   1.564   1.744
  145SOL    HW1  443   0.222   1.621   1.820
  145SOL    HW2  444   0.245   1.467   1.770
  146SOL     OW  445   0.671   0.464   1.269
  146SOL    HW1  446   0.637   0.375   1.239
  146SOL    HW2  447   0.697   0.518   1.189
  147SOL     OW  448   0.930   1.678   1.465
  147SOL    HW1  449   0.906   1.660   1.370
  147SOL    HW2  450   0.960   1.772   1.475
  148SOL     OW  451   0.473   0.500   0.191
  148SOL    HW1  452   0.534   0.580   0.195
  148SOL    HW2  453   0.378   0.531   0.198
  149SOL     OW  454   0.159   1.137   1.466
  149SOL    HW1  455   0.181   1.076   1.542
  149SOL    HW2  456   0.169   1.088   1.380
  150SOL     OW  457   1.347   1.059   1.234
  150SOL    HW1  458   1.371   0.996   1.160
  150SOL    HW2  459   1.257   1.099   1.216
  151SOL     OW  460   1.302   0.855   0.309
  151SOL    HW1  461   1.216   0.824   0.351
  151SOL    HW2  462   1.298   0.841   0.210
  152SOL     OW  463   1.759   1.747   1.154
  152SOL    HW1  464   1.820   1.777   1.081
  152SOL    HW2  465   1.721   1.658   1.132
  153SOL     OW  466   1.252   1.731   1.128
  153SOL    HW1  467   1.336   1.736   1.074
  153SOL    HW2  468   1.229   1.635   1.146
  154SOL     OW  469   0.083   1.258   1.022
  154SOL    HW1  470   0.078   1.257   1.122
  154SOL    HW2  471   0.000   1.217   0.984
  155SOL     OW  472   0.688   1.662   1.716
  155SOL    HW1  473   0.632   1.743   1.725
  155SOL    HW2  474   0.740   1.666   1.630
  156SOL     OW  475   0.903   0.086   0.133
  156SOL    HW1  476   0.954   0.087   0.047
  156SOL    HW2  477   0.959   0.044   0.204
  157SOL     OW  478   1.726   0.135   0.523
  157SOL    HW1  479   1.799   0.118   0.456
  157SOL    HW2  480   1.695   0.048   0.561
  158SOL     OW  481   1.388   1.573   0.477
  158SOL    HW1  482   1.455   1.585   0.403
  158SOL    HW2  483   1.348   1.662   0.500
  159SOL     OW  484   0.130   1.794   1.851
  159SOL    HW1  485   0.089   1.720   1.904
  159SOL    HW2  486   0.194   1.845   1.909
  160SOL     OW  487   1.280   0.927   0.672
  160SOL    HW1  488   1.340   0.846   0.674
  160SOL    HW2  489   1.320   0.996   0.612
  161SOL     OW  490   0.830   1.273   1.422
  161SOL    HW1  491   0.825   1.306   1.517
  161SOL    HW2  492   0.744   1.292   1.376
  162SOL     OW  493   0.672   1.616   0.154
  162SOL    HW1  494   0.681   1.626   0.055
  162SOL    HW2  495   0.632   1.527   0.175
  163SOL     OW  496   1.650   1.720   1.394
  163SOL    HW1  497   1.703   1.730   1.310
  163SOL    HW2  498   1.623   1.810   1.428
  164SOL     OW  499   1.841   0.175   0.963
  164SOL    HW1  500   1.880   0.090   0.927
  164SOL    HW2  501   1.743   0.177   0.944
  165SOL     OW  502   0.263   0.326   0.720
  165SOL    HW1  503   0.184   0.377   0.686
  165SOL    HW2  504   0.254   0.311   0.818
  166SOL     OW  505   1.194   1.612   0.031
  166SOL    HW1  506   1.200   1.519   0.068
  166SOL    HW2  507   1.135   1.612  -0.049
  167SOL     OW  508   0.822   1.002   1.372
  167SOL    HW1  509   0.862   1.001   1.280
  167SOL    HW2  510   0.832   1.094   1.412
  168SOL     OW  511   0.916   0.910   0.291
  168SOL    HW1  512   0.979   0.948   0.223
  168SOL    HW2  513   0.956   0.827   0.330
  169SOL     OW  514   1.504   1.607   0.044
  169SOL    HW1  515   1.412   1.644   0.051
  169SOL    HW2  516   1.542   1.627  -0.046
  170SOL     OW  517   0.372   1.288   1.490
  170SOL    HW1  518   0.359   1.381   1.456
  170SOL    HW2  519   0.288   1.236   1.477
  171SOL     OW  520   1.614   1.292   1.289
  171SOL    HW1  521   1.674   1.295   1.369
  171SOL    HW2  522   1.539   1.356   1.302
  172SOL     OW  523   1.039   1.098   0.696
  172SOL    HW1  524   0.969   1.051   0.750
  172SOL    HW2  525   1.098   1.030   0.653
  173SOL     OW  526   1.014   0.236   0.971
  173SOL    HW1  527   1.006   0.200   0.878
  173SOL    HW2  528   1.012   0.160   1.036
  174SOL     OW  529   0.590   1.487   0.491
  174SOL    HW1  530   0.632   1.429   0.421
  174SOL    HW2  531   0.546   1.566   0.447
  175SOL     OW  532   1.709   0.385   1.381
  175SOL    HW1  533   1.782   0.454   1.385
  175SOL    HW2  534   1.737   0.310   1.322
  176SOL     OW  535   0.255   1.348   0.290
  176SOL    HW1  536   0.159   1.349   0.263
  176SOL    HW2  537   0.267   1.401   0.374
  177SOL     OW  538   0.105   1.013   1.726
  177SOL    HW1  539   0.028   0.980   1.780
  177SOL    HW2  540   0.190   0.983   1.768
  178SOL     OW  541   0.672   0.203   1.489
  178SOL    HW1  542   0.762   0.187   1.449
  178SOL    HW2  543   0.680   0.208   1.588
  179SOL     OW  544   0.075   0.345   0.033
  179SOL    HW1  545  -0.017   0.317   0.004
  179SOL    HW2  546   0.106   0.422  -0.023
  180SOL     OW  547   1.440   0.856   1.398
  180SOL    HW1  548   1.383   0.908   1.335
  180SOL    HW2  549   1.536   0.868   1.374
  181SOL     OW  550   0.072   0.166   0.318
  181SOL    HW1  551   0.055   0.249   0.264
  181SOL    HW2  552   0.162   0.129   0.296
  182SOL     OW  553   1.183   1.335   0.119
  182SOL    HW1  554   1.084   1.324   0.121
  182SOL    HW2  555   1.217   1.350   0.212
  183SOL     OW  556   0.613   0.842   1.431
  183SOL    HW1  557   0.669   0.923   1.414
  183SOL    HW2  558   0.672   0.762   1.434
  184SOL     OW  559   1.493   1.767   0.959
  184SOL    HW1  560   1.526   1.831   0.890
  184SOL    HW2  561   1.559   1.761   1.034
  185SOL     OW  562   0.716   0.565   1.708
  185SOL    HW1  563   0.735   0.630   1.782
  185SOL    HW2  564   0.776   0.485   1.717
  186SOL     OW  565   1.450   1.220   1.633
  186SOL    HW1  566   1.441   1.210   1.732
  186SOL    HW2  567   1.546   1.213   1.607
  187SOL     OW  568   0.390   1.741   1.560
  187SOL    HW1  569   0.299   1.782   1.558
  187SOL    HW2  570   0.383   1.647   1.592
  188SOL     OW  571   1.674   0.883   1.254
  188SOL    HW1  572   1.647   0.794   1.217
  188SOL    HW2  573   1.675   0.951   1.181
  189SOL     OW  574   1.225   0.325   0.449
  189SOL    HW1  575   1.290   0.251   0.438
  189SOL    HW2  576   1.245   0.375   0.533
  190SOL     OW  577   0.594   0.745   0.652
  190SOL    HW1  578   0.644   0.830   0.633
  190SOL    HW2  579   0.506   0.747   0.604
  191SOL     OW  580   1.777   0.342   1.642
  191SOL    HW1  581   1.760   0.373   1.548
  191SOL    HW2  582   1.693   0.305   1.680
  192SOL     OW  583   1.730   0.934   1.517
  192SOL    HW1  584   1.768   1.025   1.532
  192SOL    HW2  585   1.722   0.917   1.418
  193SOL     OW  586   0.859   1.374   0.016
  193SOL    HW1  587   0.813   1.389   0.104
  193SOL    HW2  588   0.903   1.459  -0.014
  194SOL     OW  589   0.661   1.790   0.953
  194SOL    HW1  590   0.615   1.878   0.940
  194SOL    HW2  591   0.760   1.802   0.946
  195SOL     OW  592   0.859   0.956   0.861
  195SOL    HW1  593   0.913   0.887   0.909
  195SOL    HW2  594   0.827   1.025   0.927
  196SOL     OW  595   1.083   0.984   0.087
  196SOL    HW1  596   1.060   1.037   0.005
  196SOL    HW2  597   1.164   0.928   0.068
  197SOL     OW  598   1.861   1.569   0.851
  197SOL    HW1  599   1.790   1.557   0.781
  197SOL    HW2  600   1.862   1.490   0.911
  198SOL     OW  601   0.221   1.314   1.844
  198SOL    HW1  602   0.156   1.241   1.823
  198SOL    HW2  603   0.225   1.328   1.942
  199SOL     OW  604   0.079   1.240   0.653
  199SOL    HW1  605   0.078   1.193   0.741
  199SOL    HW2  606   0.161   1.212   0.602
  200SOL     OW  607   0.672   1.391   1.624
  200SOL    HW1  608   0.594   1.341   1.662
  200SOL    HW2  609   0.669   1.486   1.655
  201SOL     OW  610   1.824   0.192   1.227
  201SOL    HW1  611   1.820   0.102   1.271
  201SOL    HW2  612   1.827   0.181   1.128
  202SOL     OW  613   0.428   0.424   0.520
  202SOL    HW1  614   0.458   0.352   0.458
  202SOL    HW2  615   0.389   0.384   0.603
  203SOL     OW  616   1.705   1.487   1.104
  203SOL    HW1  617   1.612   1.462   1.077
  203SOL    HW2  618   1.731   1.437   1.186
  204SOL     OW  619   0.317   0.547   1.280
  204SOL    HW1  620   0.355   0.488   1.352
  204SOL    HW2  621   0.357   0.521   1.192
  205SOL     OW  622   0.812   1.586   0.687
  205SOL    HW1  623   0.844   1.596   0.593
  205SOL    HW2  624   0.733   1.524   0.689
  206SOL     OW  625   1.424   0.214   1.112
  206SOL    HW1  626   1.476   0.149   1.167
  206SOL    HW2  627   1.375   0.277   1.173
  207SOL     OW  628   1.001   0.034   1.154
  207SOL    HW1  629   0.938  -0.038   1.123
  207SOL    HW2  630   1.094  -0.002   1.154
  208SOL     OW  631   0.770   1.330   0.301
  208SOL    HW1  632   0.724   1.243   0.318
  208SOL    HW2  633   0.861   1.327   0.342
  209SOL     OW  634   0.618   1.567   1.284
  209SOL    HW1  635   0.613   1.649   1.341
  209SOL    HW2  636   0.707   1.564   1.239
  210SOL     OW  637   1.352   0.052   0.168
  210SOL    HW1  638   1.387   0.011   0.084
  210SOL    HW2  639   1.262   0.014   0.188
  211SOL     OW  640   1.300   0.453   0.691
  211SOL    HW1  641   1.241   0.533   0.695
  211SOL    HW2  642   1.315   0.418   0.784
  212SOL     OW  643   1.593   0.221   0.882
  212SOL    HW1  644   1.509   0.220   0.936
  212SOL    HW2  645   1.595   0.304   0.826
  213SOL     OW  646   0.039   1.077   0.300
  213SOL    HW1  647   0.138   1.066   0.291
  213SOL    HW2  648  -0.001   0.991   0.332
  214SOL     OW  649   0.875   1.646   0.337
  214SOL    HW1  650   0.798   1.611   0.283
  214SOL    HW2  651   0.843   1.717   0.399
  215SOL     OW  652   0.230   0.628   1.975
  215SOL    HW1  653   0.137   0.626   2.012
  215SOL    HW2  654   0.231   0.589   1.883
  216SOL     OW  655   0.225   0.275   2.858
  216SOL    HW1  656   0.260   0.258   2.950
  216SOL    HW2  657   0.137   0.230   2.846
  217SOL     OW  658   0.019   0.368   2.509
  217SOL    HW1  659  -0.063   0.411   2.548
  217SOL    HW2  660  -0.009   0.295   2.446
  218SOL     OW  661   0.569   1.275   3.027
  218SOL    HW1  662   0.476   1.268   2.990
  218SOL    HW2  663   0.580   1.364   3.071
  219SOL     OW  664   1.555   1.511   2.565
  219SOL    HW1  665   1.498   1.495   2.646
  219SOL    HW2  666   1.496   1.521   2.485
  220SOL     OW  667   1.135   0.703   2.579
  220SOL    HW1  668   1.192   0.781   2.554
  220SOL    HW2  669   1.075   0.729   2.655
  221SOL     OW  670   1.755   0.607   2.093
  221SOL    HW1  671   1.743   0.594   1.994
  221SOL    HW2  672   1.725   0.526   2.142
  222SOL     OW  673   0.768   1.144   2.885
  222SOL    HW1  674   0.690   1.161   2.945
  222SOL    HW2  675   0.802   1.231   2.849
  223SOL     OW  676   0.850   0.798   3.685
  223SOL    HW1  677   0.846   0.874   3.750
  223SOL    HW2  678   0.872   0.834   3.594
  224SOL     OW  679   0.685   1.012   2.527
  224SOL    HW1  680   0.754   0.996   2.597
  224SOL    HW2  681   0.612   1.069   2.565
  225SOL     OW  682   0.686   1.161   3.665
  225SOL    HW1  683   0.746   1.240   3.679
  225SOL    HW2  684   0.600   1.192   3.624
  226SOL     OW  685   0.335   1.435   2.923
  226SOL    HW1  686   0.257   1.404   2.870
  226SOL    HW2  687   0.393   1.493   2.866
  227SOL     OW  688   1.460   1.505   3.201
  227SOL    HW1  689   1.484   1.599   3.227
  227SOL    HW2  690   1.444   1.451   3.283
  228SOL     OW  691   0.438   0.392   3.361
  228SOL    HW1  692   0.520   0.336   3.370
  228SOL    HW2  693   0.357   0.334   3.365
  229SOL     OW  694   1.603   0.447   2.599
  229SOL    HW1  695   1.529   0.493   2.549
  229SOL    HW2  696   1.654   0.515   2.652
  230SOL     OW  697   0.231   1.713   2.345
  230SOL    HW1  698   0.265   1.790   2.399
  230SOL    HW2  699   0.275   1.713   2.255
  231SOL     OW  700   1.127   1.341   3.552
  231SOL    HW1  701   1.174   1.341   3.640
  231SOL    HW2  702   1.079   1.254   3.541
  232SOL     OW  703   0.230   1.434   2.400
  232SOL    HW1  704   0.204   1.530   2.400
  232SOL    HW2  705   0.159   1.380   2.445
  233SOL     OW  706   0.240   1.091   2.748
  233SOL    HW1  707   0.254   1.007   2.800
  233SOL    HW2  708   0.185   1.155   2.803
  234SOL     OW  709   0.620   1.786   3.301
  234SOL    HW1  710   0.528   1.769   3.336
  234SOL    HW2  711   0.648   1.878   3.327
  235SOL     OW  712   0.606   0.964   1.985
  235SOL    HW1  713   0.613   1.048   1.931
  235SOL    HW2  714   0.652   0.977   2.073
  236SOL     OW  715   1.594   0.114   3.342
  236SOL    HW1  716   1.576   0.181   3.270
  236SOL    HW2  717   1.591   0.160   3.431
  237SOL     OW  718   0.122   0.643   2.425
  237SOL    HW1  719   0.077   0.555   2.442
  237SOL    HW2  720   0.121   0.697   2.509
  238SOL     OW  721   1.842   1.767   2.221
  238SOL    HW1  722   1.896   1.738   2.301
  238SOL    HW2  723   1.872   1.857   2.192
  239SOL     OW  724   0.027   1.596   1.979
  239SOL    HW1  725   0.008   1.500   2.000
  239SOL    HW2  726  -0.006   1.654   2.054
  240SOL     OW  727   1.689   0.922   2.474
  240SOL    HW1  728   1.784   0.893   2.482
  240SOL    HW2  729   1.681   0.987   2.399
  241SOL     OW  730   1.641   1.108   2.294
  241SOL    HW1  731   1.727   1.110   2.242
  241SOL    HW2  732   1.655   1.155   2.382
  242SOL     OW  733   0.113   0.737   3.459
  242SOL    HW1  734   0.201   0.724   3.504
  242SOL    HW2  735   0.100   0.834   3.437
  243SOL     OW  736   0.613   1.365   2.588
  243SOL    HW1  737   0.564   1.278   2.597
  243SOL    HW2  738   0.590   1.408   2.501
  244SOL     OW  739   1.293   1.228   3.285
  244SOL    HW1  740   1.330   1.155   3.227
  244SOL    HW2  741   1.345   1.233   3.370
  245SOL     OW  742   0.809   0.004   2.364
  245SOL    HW1  743   0.849   0.095   2.355
  245SOL    HW2  744   0.709   0.012   2.370
  246SOL     OW  745   0.197   0.976   3.126
  246SOL    HW1  746   0.286   0.931   3.112
  246SOL    HW2  747   0.124   0.911   3.107
  247SOL     OW  748   1.525   0.999   2.052
  247SOL    HW1  749   1.462   0.923   2.065
  247SOL    HW2  750   1.573   1.017   2.138
  248SOL     OW  751   1.187   1.792   3.478
  248SOL    HW1  752   1.211   1.852   3.402
  248SOL    HW2  753   1.194   1.697   3.448
  249SOL     OW  754   0.317   0.251   3.663
  249SOL    HW1  755   0.388   0.322   3.669
  249SOL    HW2  756   0.229   0.290   3.691
  250SOL     OW  757   1.466   1.417   2.815
  250SOL    HW1  758   1.407   1.423   2.895
  250SOL    HW2  759   1.451   1.329   2.769
  251SOL     OW  760   1.667   1.714   2.434
  251SOL    HW1  761   1.626   1.691   2.346
  251SOL    HW2  762   1.649   1.640   2.499
  252SOL     OW  763   0.598   0.729   2.132
  252SOL    HW1  764   0.622   0.798   2.064
  252SOL    HW2  765   0.520   0.762   2.186
  253SOL     OW  766   1.281   0.345   2.806
  253SOL    HW1  767   1.195   0.295   2.793
  253SOL    HW2  768   1.343   0.291   2.862
  254SOL     OW  769   1.576   1.662   2.169
  254SOL    HW1  770   1.665   1.708   2.172
  254SOL    HW2  771   1.555   1.638   2.074
  255SOL     OW  772   0.807   0.605   3.327
  255SOL    HW1  773   0.760   0.602   3.416
  255SOL    HW2  774   0.756   0.550   3.261
  256SOL     OW  775   1.394   0.469   3.536
  256SOL    HW1  776   1.374   0.512   3.624
  256SOL    HW2  777   1.472   0.407   3.545
  257SOL     OW  778   0.973   0.890   3.434
  257SOL    HW1  779   1.019   0.806   3.405
  257SOL    HW2  780   0.917   0.924   3.359
  258SOL     OW  781   0.991   0.410   3.104
  258SOL    HW1  782   0.914   0.444   3.158
  258SOL    HW2  783   0.957   0.359   3.025
  259SOL     OW  784   1.041   0.701   2.291
  259SOL    HW1  785   1.067   0.697   2.387
  259SOL    HW2  786   0.956   0.650   2.277
  260SOL     OW  787   0.076   0.811   2.651
  260SOL    HW1  788   0.175   0.799   2.660
  260SOL    HW2  789   0.052   0.906   2.672
  261SOL     OW  790   0.130   1.821   3.433
  261SOL    HW1  791   0.120   1.806   3.532
  261SOL    HW2  792   0.044   1.857   3.397
  262SOL     OW  793   0.865   0.348   2.057
  262SOL    HW1  794   0.924   0.411   2.008
  262SOL    HW2  795   0.884   0.254   2.028
  263SOL     OW  796   1.719   0.585   3.693
  263SOL    HW1  797   1.693   0.674   3.657
  263SOL    HW2  798   1.717   0.517   3.620
  264SOL     OW  799   1.362   1.144   2.407
  264SOL    HW1  800   1.445   1.115   2.359
  264SOL    HW2  801   1.313   1.211   2.351
  265SOL     OW  802   0.550   0.196   2.747
  265SOL    HW1  803   0.545   0.191   2.847
  265SOL    HW2  804   0.552   0.292   2.718
  266SOL     OW  805   1.008   1.456   2.339
  266SOL    HW1  806   0.962   1.528   2.287
  266SOL    HW2  807   1.004   1.476   2.437
  267SOL     OW  808   0.351   1.801   2.715
  267SOL    HW1  809   0.401   1.715   2.721
  267SOL    HW2  810   0.416   1.878   2.712
  268SOL     OW  811   1.795   1.066   2.735
  268SOL    HW1  812   1.733   1.051   2.659
  268SOL    HW2  813   1.743   1.077   2.820
  269SOL     OW  814   1.227   1.550   3.368
  269SOL    HW1  815   1.233   1.473   3.432
  269SOL    HW2  816   1.175   1.524   3.288
  270SOL     OW  817   0.321   0.943   2.104
  270SOL    HW1  818   0.403   0.982   2.062
  270SOL    HW2  819   0.294   0.861   2.055
  271SOL     OW  820   1.458   0.735   2.590
  271SOL    HW1  821   1.453   0.670   2.665
  271SOL    HW2  822   1.538   0.794   2.603
  272SOL     OW  823   0.461   1.266   3.589
  272SOL    HW1  824   0.411   1.267   3.503
  272SOL    HW2  825   0.398   1.248   3.665
  273SOL     OW  826   1.111   1.776   2.099
  273SOL    HW1  827   1.051   1.714   2.149
  273SOL    HW2  828   1.142   1.732   2.014
  274SOL     OW  829   0.202   0.285   3.360
  274SOL    HW1  830   0.122   0.345   3.347
  274SOL    HW2  831   0.192   0.236   3.446
  275SOL     OW  832   1.632   1.377   1.943
  275SOL    HW1  833   1.600   1.471   1.933
  275SOL    HW2  834   1.556   1.314   1.931
  276SOL     OW  835   0.464   1.743   2.185
  276SOL    HW1  836   0.497   1.782   2.271
  276SOL    HW2  837   0.540   1.736   2.120
  277SOL     OW  838   1.400   0.107   2.288
  277SOL    HW1  839   1.376   0.070   2.198
  277SOL    HW2  840   1.499   0.123   2.292
  278SOL     OW  841   0.249   1.785   3.103
  278SOL    HW1  842   0.306   1.720   3.153
  278SOL    HW2  843   0.233   1.752   3.010
  279SOL     OW  844   0.940   1.698   2.766
  279SOL    HW1  845   1.020   1.641   2.787
  279SOL    HW2  846   0.891   1.658   2.689
  280SOL     OW  847   0.382   0.700   2.342
  280SOL    HW1  848   0.427   0.610   2.339
  280SOL    HW2  849   0.288   0.689   2.375
  281SOL     OW  850   1.547   0.222   3.591
  281SOL    HW1  851   1.542   0.259   3.683
  281SOL    HW2  852   1.475   0.153   3.579
  282SOL     OW  853   0.614   0.122   1.979
  282SOL    HW1  854   0.712   0.100   1.986
  282SOL    HW2  855   0.583   0.105   1.886
  283SOL     OW  856   0.781   0.264   3.611
  283SOL    HW1  857   0.848   0.203   3.654
  283SOL    HW2  858   0.708   0.283   3.676
  284SOL     OW  859   0.888   1.514   3.057
  284SOL    HW1  860   0.865   1.489   2.963
  284SOL    HW2  861   0.949   1.445   3.096
  285SOL     OW  862   1.351   0.590   3.295
  285SOL    HW1  863   1.379   0.547   3.380
  285SOL    HW2  864   1.376   0.686   3.296
  286SOL     OW  865   0.803   1.402   2.786
  286SOL    HW1  866   0.893   1.416   2.744
  286SOL    HW2  867   0.732   1.404   2.715
  287SOL     OW  868   0.922   0.503   2.761
  287SOL    HW1  869   0.897   0.494   2.665
  287SOL    HW2  870   0.970   0.421   2.792
  288SOL     OW  871   0.539   0.064   2.374
  288SOL    HW1  872   0.458   0.065   2.432
  288SOL    HW2  873   0.542   0.147   2.319
  289SOL     OW  874   1.434   1.188   1.903
  289SOL    HW1  875   1.466   1.112   1.960
  289SOL    HW2  876   1.342   1.215   1.933
  290SOL     OW  877   0.297   0.035   2.033
  290SOL    HW1  878   0.346   0.119   2.012
  290SOL    HW2  879   0.359  -0.030   2.078
  291SOL     OW  880   0.935   0.236   2.342
  291SOL    HW1  881   0.887   0.277   2.264
  291SOL    HW2  882   1.034   0.234   2.323
  292SOL     OW  883   1.076   0.683   3.326
  292SOL    HW1  884   0.996   0.622   3.329
  292SOL    HW2  885   1.157   0.630   3.302
  293SOL     OW  886   1.227   1.570   2.655
  293SOL    HW1  887   1.248   1.644   2.590
  293SOL    HW2  888   1.295   1.570   2.728
  294SOL     OW  889   0.459   1.152   2.603
  294SOL    HW1  890   0.388   1.125   2.668
  294SOL    HW2  891   0.433   1.124   2.510
  295SOL     OW  892   1.271   1.797   2.453
  295SOL    HW1  893   1.315   1.861   2.389
  295SOL    HW2  894   1.221   1.849   2.523
  296SOL     OW  895   1.032   0.549   1.878
  296SOL    HW1  896   0.991   0.631   1.839
  296SOL    HW2  897   1.096   0.575   1.951
  297SOL     OW  898   0.078   0.556   3.248
  297SOL    HW1  899   0.170   0.555   3.207
  297SOL    HW2  900   0.072   0.630   3.315
  298SOL     OW  901   0.561   0.222   3.009
  298SOL    HW1  902   0.599   0.138   3.046
  298SOL    HW2  903   0.473   0.241   3.053
  299SOL     OW  904   0.866   0.454   2.504
  299SOL    HW1  905   0.834   0.526   2.442
  299SOL    HW2  906   0.890   0.373   2.451
  300SOL     OW  907   1.017   0.039   2.615
  300SOL    HW1  908   0.945   0.044   2.546
  300SOL    HW2  909   0.993  -0.030   2.684
  301SOL     OW  910   1.429   1.173   2.729
  301SOL    HW1  911   1.374   1.089   2.722
  301SOL    HW2  912   1.455   1.202   2.637
  302SOL     OW  913   1.466   0.590   2.854
  302SOL    HW1  914   1.436   0.495   2.861
  302SOL    HW2  915   1.539   0.606   2.920
  303SOL     OW  916   1.857   0.833   2.239
  303SOL    HW1  917   1.899   0.769   2.303
  303SOL    HW2  918   1.819   0.782   2.161
  304SOL     OW  919   0.488   1.385   2.036
  304SOL    HW1  920   0.401   1.370   2.083
  304SOL    HW2  921   0.471   1.411   1.941
  305SOL     OW  922   1.664   1.280   2.519
  305SOL    HW1  923   1.763   1.288   2.533
  305SOL    HW2  924   1.619   1.364   2.550
  306SOL     OW  925   1.390   0.575   1.940
  306SOL    HW1  926   1.336   0.554   2.021
  306SOL    HW2  927   1.481   0.534   1.949
  307SOL     OW  928   0.527   0.256   2.190
  307SOL    HW1  929   0.554   0.197   2.115
  307SOL    HW2  930   0.527   0.351   2.159
  308SOL     OW  931   1.754   1.223   3.450
  308SOL    HW1  932   1.845   1.184   3.437
  308SOL    HW2  933   1.762   1.319   3.474
  309SOL     OW  934   1.064   1.347   3.202
  309SOL    HW1  935   0.984   1.324   3.257
  309SOL    HW2  936   1.147   1.321   3.251
  310SOL     OW  937   1.592   1.629   3.487
  310SOL    HW1  938   1.619   1.663   3.397
  310SOL    HW2  939   1.671   1.591   3.533
  311SOL     OW  940   1.111   1.195   2.962
  311SOL    HW1  941   1.071   1.239   3.043
  311SOL    HW2  942   1.070   1.232   2.879
  312SOL     OW  943   1.638   1.099   2.941
  312SOL    HW1  944   1.643   1.180   3.000
  312SOL    HW2  945   1.552   1.101   2.890
  313SOL     OW  946   0.915   0.089   3.264
  313SOL    HW1  947   0.940   0.069   3.169
  313SOL    HW2  948   0.987   0.145   3.306
  314SOL     OW  949   0.980   1.116   3.581
  314SOL    HW1  950   0.881   1.122   3.591
  314SOL    HW2  951   1.003   1.036   3.525
  315SOL     OW  952   0.705   1.050   2.230
  315SOL    HW1  953   0.691   1.057   2.329
  315SOL    HW2  954   0.789   0.999   2.212
  316SOL     OW  955   0.410   0.813   3.113
  316SOL    HW1  956   0.496   0.825   3.163
  316SOL    HW2  957   0.368   0.726   3.140
  317SOL     OW  958   1.274   0.386   3.124
  317SOL    HW1  959   1.295   0.460   3.188
  317SOL    HW2  960   1.185   0.403   3.081
  318SOL     OW  961   0.064   1.564   3.193
  318SOL    HW1  962   0.018   1.646   3.159
  318SOL    HW2  963   0.162   1.583   3.202
  319SOL     OW  964   0.367   1.100   2.363
  319SOL    HW1  965   0.360   1.183   2.307
  319SOL    HW2  966   0.371   1.020   2.303
  320SOL     OW  967   0.566   0.537   2.727
  320SOL    HW1  968   0.578   0.603   2.653
  320SOL    HW2  969   0.612   0.571   2.810
  321SOL     OW  970   1.252   1.348   2.250
  321SOL    HW1  971   1.302   1.425   2.290
  321SOL    HW2  972   1.157   1.350   2.282
  322SOL     OW  973   1.272   1.445   3.004
  322SOL    HW1  974   1.319   1.458   3.091
  322SOL    HW2  975   1.206   1.371   3.013
  323SOL     OW  976   1.582   0.639   2.334
  323SOL    HW1  977   1.551   0.700   2.407
  323SOL    HW2  978   1.632   0.691   2.265
  324SOL     OW  979   0.354   1.510   3.191
  324SOL    HW1  980   0.333   1.466   3.104
  324SOL    HW2  981   0.451   1.536   3.194
  325SOL     OW  982   0.402   0.751   3.460
  325SOL    HW1  983   0.470   0.806   3.413
  325SOL    HW2  984   0.442   0.663   3.487
  326SOL     OW  985   1.587   0.779   3.532
  326SOL    HW1  986   1.495   0.817   3.527
  326SOL    HW2  987   1.647   0.826   3.467
  327SOL     OW  988   1.013   0.105   3.632
  327SOL    HW1  989   1.019   0.190   3.580
  327SOL    HW2  990   1.045   0.029   3.575
  328SOL     OW  991   0.504   0.050   3.602
  328SOL    HW1  992   0.462  -0.007   3.532
  328SOL    HW2  993   0.438   0.119   3.634
  329SOL     OW  994   0.573   0.870   2.891
  329SOL    HW1  995   0.617   0.959   2.882
  329SOL    HW2  996   0.510   0.870   2.968
  330SOL     OW  997   1.360   0.862   2.907
  330SOL    HW1  998   1.285   0.862   2.841
  330SOL    HW2  999   1.397   0.770   2.916
  331SOL     OW 1000   1.209   0.525   2.137
  331SOL    HW1 1001   1.222   0.441   2.191
  331SOL    HW2 1002   1.180   0.599   2.197
  332SOL     OW 1003   0.307   0.213   3.093
  332SOL    HW1 1004   0.284   0.250   3.183
  332SOL    HW2 1005   0.277   0.118   3.087
  333SOL     OW 1006   0.037   1.310   3.144
  333SOL    HW1 1007   0.090   1.261   3.212
  333SOL    HW2 1008   0.059   1.408   3.149
  334SOL     OW 1009   0.732   0.634   2.926
  334SOL    HW1 1010   0.791   0.608   2.850
  334SOL    HW2 1011   0.704   0.730   2.915
  335SOL     OW 1012   1.728   0.935   3.716
  335SOL    HW1 1013   1.682   0.928   3.627
  335SOL    HW2 1014   1.666   0.979   3.782
  336SOL     OW 1015   0.307   0.063   2.480
  336SOL    HW1 1016   0.296   0.157   2.513
  336SOL    HW2 1017   0.302   0.000   2.557
  337SOL     OW 1018   1.622   0.367   2.236
  337SOL    HW1 1019   1.624   0.291   2.300
  337SOL    HW2 1020   1.574   0.444   2.276
  338SOL     OW 1021   1.023   0.766   2.828
  338SOL    HW1 1022   1.038   0.787   2.924
  338SOL    HW2 1023   0.993   0.671   2.819
  339SOL     OW 1024   0.980   1.573   3.562
  339SOL    HW1 1025   0.960   1.617   3.474
  339SOL    HW2 1026   1.019   1.482   3.546
  340SOL     OW 1027   1.859   1.518   3.467
  340SOL    HW1 1028   1.873   1.545   3.372
  340SOL    HW2 1029   1.942   1.540   3.520
  341SOL     OW 1030   0.350   0.898   3.666
  341SOL    HW1 1031   0.426   0.942   3.714
  341SOL    HW2 1032   0.385   0.851   3.584
  342SOL     OW 1033   1.540   0.274   1.987
  342SOL    HW1 1034   1.479   0.199   2.010
  342SOL    HW2 1035   1.562   0.326   2.070
  343SOL     OW 1036   1.303   0.838   1.904
  343SOL    HW1 1037   1.337   0.745   1.919
  343SOL    HW2 1038   1.321   0.865   1.809
  344SOL     OW 1039   1.068   1.333   2.711
  344SOL    HW1 1040   1.075   1.249   2.656
  344SOL    HW2 1041   1.130   1.402   2.675
  345SOL     OW 1042   0.319   0.810   2.811
  345SOL    HW1 1043   0.412   0.846   2.816
  345SOL    HW2 1044   0.313   0.725   2.863
  346SOL     OW 1045   0.339   0.509   2.868
  346SOL    HW1 1046   0.287   0.426   2.851
  346SOL    HW2 1047   0.416   0.514   2.804
  347SOL     OW 1048   1.138   0.380   3.540
  347SOL    HW1 1049   1.093   0.443   3.604
  347SOL    HW2 1050   1.231   0.411   3.523
  348SOL     OW 1051   1.160   0.207   3.339
  348SOL    HW1 1052   1.160   0.271   3.416
  348SOL    HW2 1053   1.188   0.255   3.256
  349SOL     OW 1054   0.008   1.326   2.062
  349SOL    HW1 1055  -0.085   1.347   2.031
  349SOL    HW2 1056   0.018   1.227   2.075
  350SOL     OW 1057   0.088   1.801   2.789
  350SOL    HW1 1058   0.046   1.715   2.762
  350SOL    HW2 1059   0.182   1.804   2.755
  351SOL     OW 1060   0.504   1.568   2.772
  351SOL    HW1 1061   0.570   1.642   2.781
  351SOL    HW2 1062   0.548   1.489   2.730
  352SOL     OW 1063   1.002   0.796   3.100
  352SOL    HW1 1064   1.043   0.764   3.186
  352SOL    HW2 1065   0.906   0.769   3.097
  353SOL     OW 1066   0.040   0.544   2.976
  353SOL    HW1 1067   0.125   0.511   2.935
  353SOL    HW2 1068   0.053   0.559   3.074
  354SOL     OW 1069   0.189   0.520   3.584
  354SOL    HW1 1070   0.248   0.480   3.514
  354SOL    HW2 1071   0.131   0.591   3.543
  355SOL     OW 1072   1.369   0.950   3.522
  355SOL    HW1 1073   1.408   1.039   3.542
  355SOL    HW2 1074   1.379   0.930   3.425
  356SOL     OW 1075   0.815   0.572   2.187
  356SOL    HW1 1076   0.822   0.483   2.141
  356SOL    HW2 1077   0.721   0.606   2.179
  357SOL     OW 1078   1.657   0.604   3.068
  357SOL    HW1 1079   1.619   0.535   3.130
  357SOL    HW2 1080   1.739   0.568   3.024
  358SOL     OW 1081   0.252   1.564   3.606
  358SOL    HW1 1082   0.222   1.621   3.682
  358SOL    HW2 1083   0.245   1.467   3.632
  359SOL     OW 1084   0.671   0.464   3.131
  359SOL    HW1 1085   0.637   0.375   3.101
  359SOL    HW2 1086   0.697   0.518   3.051
  360SOL     OW 1087   0.930   1.678   3.327
  360SOL    HW1 1088   0.906   1.660   3.232
  360SOL    HW2 1089   0.960   1.772   3.337
  361SOL     OW 1090   0.473   0.500   2.053
  361SOL    HW1 1091   0.534   0.580   2.057
  361SOL    HW2 1092   0.378   0.531   2.060
  362SOL     OW 1093   0.159   1.137   3.328
  362SOL    HW1 1094   0.181   1.076   3.404
  362SOL    HW2 1095   0.169   1.088   3.242
  363SOL     OW 1096   1.347   1.059   3.096
  363SOL    HW1 1097   1.371   0.996   3.022
  363SOL    HW2 1098   1.257   1.099   3.078
  364SOL     OW 1099   1.302   0.855   2.171
  364SOL    HW1 1100   1.216   0.824   2.213
  364SOL    HW2 1101   1.298   0.841   2.072
  365SOL     OW 1102   1.759   1.747   3.016
  365SOL    HW1 1103   1.820   1.777   2.943
  365SOL    HW2 1104   1.721   1.658   2.994
  366SOL     OW 1105   1.252   1.731   2.990
  366SOL    HW1 1106   1.336   1.736   2.936
  366SOL    HW2 1107   1.229   1.635   3.008
  367SOL     OW 1108   0.083   1.258   2.884
  367SOL    HW1 1109   0.078   1.257   2.984
  367SOL    HW2 1110   0.000   1.217   2.846
  368SOL     OW 1111   0.688   1.662   3.578
  368SOL    HW1 1112   0.632   1.743   3.587
  368SOL    HW2 1113   0.740   1.666   3.492
  369SOL     OW 1114   1.726   0.135   2.385
  369SOL    HW1 1115   1.799   0.118   2.318
  369SOL    HW2 1116   1.695   0.048   2.423
  370SOL     OW 1117   1.388   1.573   2.339
  370SOL    HW1 1118   1.455   1.585   2.265
  370SOL    HW2 1119   1.348   1.662   2.362
  371SOL     OW 1120   0.130   1.794   3.713
  371SOL    HW1 1121   0.089   1.720   3.766
  371SOL    HW2 1122   0.194   1.845   3.771
  372SOL     OW 1123   1.280   0.927   2.534
  372SOL    HW1 1124   1.340   0.846   2.536
  372SOL    HW2 1125   1.320   0.996   2.474
  373SOL     OW 1126   0.830   1.273   3.284
  373SOL    HW1 1127   0.825   1.306   3.379
  373SOL    HW2 1128   0.744   1.292   3.238
  374SOL     OW 1129   0.672   1.616   2.016
  374SOL    HW1 1130   0.681   1.626   1.917
  374SOL    HW2 1131   0.632   1.527   2.037
  375SOL     OW 1132   1.650   1.720   3.256
  375SOL    HW1 1133   1.703   1.730   3.172
  375SOL    HW2 1134   1.623   1.810   3.290
  376SOL     OW 1135   1.841   0.175   2.825
  376SOL    HW1 1136   1.880   0.090   2.789
  376SOL    HW2 1137   1.743   0.177   2.806
  377SOL     OW 1138   0.263   0.326   2.582
  377SOL    HW1 1139   0.184   0.377   2.548
  377SOL    HW2 1140   0.254   0.311   2.680
  378SOL     OW 1141   1.194   1.612   1.893
  378SOL    HW1 1142   1.200   1.519   1.930
  378SOL    HW2 1143   1.135   1.612   1.813
  379SOL     OW 1144   0.822   1.002   3.234
  379SOL    HW1 1145   0.862   1.001   3.142
  379SOL    HW2 1146   0.832   1.094   3.274
  380SOL     OW 1147   0.916   0.910   2.153
  380SOL    HW1 1148   0.979   0.948   2.085
  380SOL    HW2 1149   0.956   0.827   2.192
  381SOL     OW 1150   1.504   1.607   1.906
  381SOL    HW1 1151   1.412   1.644   1.913
  381SOL    HW2 1152   1.542   1.627   1.816
  382SOL     OW 1153   0.372   1.288   3.352
  382SOL    HW1 1154   0.359   1.381   3.318
  382SOL    HW2 1155   0.288   1.236   3.339
  383SOL     OW 1156   1.614   1.292   3.151
  383SOL    HW1 1157   1.674   1.295   3.231
  383SOL    HW2 1158   1.539   1.356   3.164
  384SOL     OW 1159   1.039   1.098   2.558
  384SOL    HW1 1160   0.969   1.051   2.612
  384SOL    HW2 1161   1.098   1.030   2.515
  385SOL     OW 1162   1.014   0.236   2.833
  385SOL    HW1 1163   1.006   0.200   2.740
  385SOL    HW2 1164   1.012   0.160   2.898
  386SOL     OW 1165   0.590   1.487   2.353
  386SOL    HW1 1166   0.632   1.429   2.283
  386SOL    HW2 1167   0.546   1.566   2.309
  387SOL     OW 1168   1.709   0.385   3.243
  387SOL    HW1 1169   1.782   0.454   3.247
  387SOL    HW2 1170   1.737   0.310   3.184
  388SOL     OW 1171   0.255   1.348   2.152
  388SOL    HW1 1172   0.159   1.349   2.125
  388SOL    HW2 1173   0.267   1.401   2.236
  389SOL     OW 1174   0.105   1.013   3.588
  389SOL    HW1 1175   0.028   0.980   3.642
  389SOL    HW2 1176   0.190   0.983   3.630
  390SOL     OW 1177   0.672   0.203   3.351
  390SOL    HW1 1178   0.762   0.187   3.311
  390SOL    HW2 1179   0.680   0.208   3.450
  391SOL     OW 1180   0.075   0.345   1.895
  391SOL    HW1 1181  -0.017   0.317   1.866
  391SOL    HW2 1182   0.106   0.422   1.839
  392SOL     OW 1183   1.440   0.856   3.260
  392SOL    HW1 1184   1.383   0.908   3.197
  392SOL    HW2 1185   1.536   0.868   3.236
  393SOL     OW 1186   0.072   0.166   2.180
  393SOL    HW1 1187   0.055   0.249   2.126
  393SOL    HW2 1188   0.162   0.129   2.158
  394SOL     OW 1189   1.183   1.335   1.981
  394SOL    HW1 1190   1.084   1.324   1.983
  394SOL    HW2 1191   1.217   1.350   2.074
  395SOL     OW 1192   0.613   0.842   3.293
  395SOL    HW1 1193   0.669   0.923   3.276
  395SOL    HW2 1194   0.672   0.762   3.296
  396SOL     OW 1195   1.493   1.767   2.821
  396SOL    HW1 1196   1.526   1.831   2.752
  396SOL    HW2 1197   1.559   1.761   2.896
  397SOL     OW 1198   0.716   0.565   3.570
  397SOL    HW1 1199   0.735   0.630   3.644
  397SOL    HW2 1200   0.776   0.485   3.579
  398SOL     OW 1201   1.450   1.220   3.495
  398SOL    HW1 1202   1.441   1.210   3.594
  398SOL    HW2 1203   1.546   1.213   3.469
  399SOL     OW 1204   0.390   1.741   3.422
  399SOL    HW1 1205   0.299   1.782   3.420
  399SOL    HW2 1206   0.383   1.647   3.454
  400SOL     OW 1207   1.674   0.883   3.116
  400SOL    HW1 1208   1.647   0.794   3.079
  400SOL    HW2 1209   1.675   0.951   3.043
  401SOL     OW 1210   1.225   0.325   2.311
  401SOL    HW1 1211   1.290   0.251   2.300
  401SOL    HW2 1212   1.245   0.375   2.395
  402SOL     OW 1213   0.594   0.745   2.514
  402SOL    HW1 1214   0.644   0.830   2.495
  402SOL    HW2 1215   0.506   0.747   2.466
  403SOL     OW 1216   1.777   0.342   3.504
  403SOL    HW1 1217   1.760   0.373   3.410
  403SOL    HW2 1218   1.693   0.305   3.542
  404SOL     OW 1219   1.730   0.934   3.379
  404SOL    HW1 1220   1.768   1.025   3.394
  404SOL    HW2 1221   1.722   0.917   3.280
  405SOL     OW 1222   0.859   1.374   1.878
  405SOL    HW1 1223   0.813   1.389   1.966
  405SOL    HW2 1224   0.903   1.459   1.848
  406SOL     OW 1225   0.661   1.790   2.815
  406SOL    HW1 1226   0.615   1.878   2.802
  406SOL    HW2 1227   0.760   1.802   2.808
  407SOL     OW 1228   0.859   0.956   2.723
  407SOL    HW1 1229   0.913   0.887   2.771
  407SOL    HW2 1230   0.827   1.025   2.789
  408SOL     OW 1231   1.083   0.984   1.949
  408SOL    HW1 1232   1.060   1.037   1.867
  408SOL    HW2 1233   1.164   0.928   1.930
  409SOL     OW 1234   1.861   1.569   2.713
  409SOL    HW1 1235   1.790   1.557   2.643
  409SOL    HW2 1236   1.862   1.490   2.773
  410SOL     OW 1237   0.221   1.314   3.706
  410SOL    HW1 1238   0.156   1.241   3.685
  410SOL    HW2 1239   0.225   1.328   3.804
  411SOL     OW 1240   0.079   1.240   2.515
  411SOL    HW1 1241   0.078   1.193   2.603
  411SOL    HW2 1242   0.161   1.212   2.464
  412SOL     OW 1243   0.672   1.391   3.486
  412SOL    HW1 1244   0.594   1.341   3.524
  412SOL    HW2 1245   0.669   1.486   3.517
  413SOL     OW 1246   1.824   0.192   3.089
  413SOL    HW1 1247   1.820   0.102   3.133
  413SOL    HW2 1248   1.827   0.181   2.990
  414SOL     OW 1249   0.428   0.424   2.382
  414SOL    HW1 1250   0.458   0.352   2.320
  414SOL    HW2 1251   0.389   0.384   2.465
  415SOL     OW 1252   1.705   1.487   2.966
  415SOL    HW1 1253   1.612   1.462   2.939
  415SOL    HW2 1254   1.731   1.437   3.048
  416SOL     OW 1255   0.317   0.547   3.142
  416SOL    HW1 1256   0.355   0.488   3.214
  416SOL    HW2 1257   0.357   0.521   3.054
  417SOL     OW 1258   0.812   1.586   2.549
  417SOL    HW1 1259   0.844   1.596   2.455
  417SOL    HW2 1260   0.733   1.524   2.551
  418SOL     OW 1261   1.424   0.214   2.974
  418SOL    HW1 1262   1.476   0.149   3.029
  418SOL    HW2 1263   1.375   0.277   3.035
  419SOL     OW 1264   1.001   0.034   3.016
  419SOL    HW1 1265   0.938  -0.038   2.985
  419SOL    HW2 1266   1.094  -0.002   3.016
  420SOL     OW 1267   0.770   1.330   2.163
  420SOL    HW1 1268   0.724   1.243   2.180
  420SOL    HW2 1269   0.861   1.327   2.204
  421SOL     OW 1270   0.618   1.567   3.146
  421SOL    HW1 1271   0.613   1.649   3.203
  421SOL    HW2 1272   0.707   1.564   3.101
  422SOL     OW 1273   1.352   0.052   2.030
  422SOL    HW1 1274   1.387   0.011   1.946
  422SOL    HW2 1275   1.262   0.014   2.050
  423SOL     OW 1276   1.300   0.453   2.553
  423SOL    HW1 1277   1.241   0.533   2.557
  423SOL    HW2 1278   1.315   0.418   2.646
  424SOL     OW 1279   1.593   0.221   2.744
  424SOL    HW1 1280   1.509   0.220   2.798
  424SOL    HW2 1281   1.595   0.304   2.688
  425SOL     OW 1282   0.039   1.077   2.162
  425SOL    HW1 1283   0.138   1.066   2.153
  425SOL    HW2 1284  -0.001   0.991   2.194
  426SOL     OW 1285   0.875   1.646   2.199
  426SOL    HW1 1286   0.798   1.611   2.145
  426SOL    HW2 1287   0.843   1.717   2.261
  427SOL     OW 1288   0.230   0.628   3.837
  427SOL    HW1 1289   0.137   0.626   3.874
  427SOL    HW2 1290   0.231   0.589   3.745
  428SOL     OW 1291   0.019   0.368   4.371
  428SOL    HW1 1292  -0.063   0.411   4.410
  428SOL    HW2 1293  -0.009   0.295   4.308
  429SOL     OW 1294   1.755   0.607   3.955
  429SOL    HW1 1295   1.743   0.594   3.856
  429SOL    HW2 1296   1.725   0.526   4.004
  430SOL     OW 1297   0.685   1.012   4.389
  430SOL    HW1 1298   0.754   0.996   4.459
  430SOL    HW2 1299   0.612   1.069   4.427
  431SOL     OW 1300   1.603   0.447   4.461
  431SOL    HW1 1301   1.529   0.493   4.411
  431SOL    HW2 1302   1.654   0.515   4.514
  432SOL     OW 1303   0.231   1.713   4.207
  432SOL    HW1 1304   0.265   1.790   4.261
  432SOL    HW2 1305   0.275   1.713   4.117
  433SOL     OW 1306   0.230   1.434   4.262
  433SOL    HW1 1307   0.204   1.530   4.262
  433SOL    HW2 1308   0.159   1.380   4.307
  434SOL     OW 1309   0.606   0.964   3.847
  434SOL    HW1 1310   0.613   1.048   3.793
  434SOL    HW2 1311   0.652   0.977   3.935
  435SOL     OW 1312   0.122   0.643   4.287
  435SOL    HW1 1313   0.077   0.555   4.304
  435SOL    HW2 1314   0.121   0.697   4.371
  436SOL     OW 1315   1.842   1.767   4.083
  436SOL    HW1 1316   1.896   1.738   4.163
  436SOL    HW2 1317   1.872   1.857   4.054
  437SOL     OW 1318   0.027   1.596   3.841
  437SOL    HW1 1319   0.008   1.500   3.862
  437SOL    HW2 1320  -0.006   1.654   3.916
  438SOL     OW 1321   1.689   0.922   4.336
  438SOL    HW1 1322   1.784   0.893   4.344
  438SOL    HW2 1323   1.681   0.987   4.261
  439SOL     OW 1324   1.641   1.108   4.156
  439SOL    HW1 1325   1.727   1.110   4.104
  439SOL    HW2 1326   1.655   1.155   4.244
  440SOL     OW 1327   0.613   1.365   4.450
  440SOL    HW1 1328   0.564   1.278   4.459
  440SOL    HW2 1329   0.590   1.408   4.363
  441SOL     OW 1330   0.809   0.004   4.226
  441SOL    HW1 1331   0.849   0.095   4.217
  441SOL    HW2 1332   0.709   0.012   4.232
  442SOL     OW 1333   1.525   0.999   3.914
  442SOL    HW1 1334   1.462   0.923   3.927
  442SOL    HW2 1335   1.573   1.017   4.000
  443SOL     OW 1336   1.667   1.714   4.296
  443SOL    HW1 1337   1.626   1.691   4.208
  443SOL    HW2 1338   1.649   1.640   4.361
  444SOL     OW 1339   0.598   0.729   3.994
  444SOL    HW1 1340   0.622   0.798   3.926
  444SOL    HW2 1341   0.520   0.762   4.048
  445SOL     OW 1342   1.281   0.345   4.668
  445SOL    HW1 1343   1.195   0.295   4.655
  445SOL    HW2 1344   1.343   0.291   4.724
  446SOL     OW 1345   1.576   1.662   4.031
  446SOL    HW1 1346   1.665   1.708   4.034
  446SOL    HW2 1347   1.555   1.638   3.936
  447SOL     OW 1348   1.041   0.701   4.153
  447SOL    HW1 1349   1.067   0.697   4.249
  447SOL    HW2 1350   0.956   0.650   4.139
  448SOL     OW 1351   0.076   0.811   4.513
  448SOL    HW1 1352   0.175   0.799   4.522
  448SOL    HW2 1353   0.052   0.906   4.534
  449SOL     OW 1354   0.865   0.348   3.919
  449SOL    HW1 1355   0.924   0.411   3.870
  449SOL    HW2 1356   0.884   0.254   3.890
  450SOL     OW 1357   1.362   1.144   4.269
  450SOL    HW1 1358   1.445   1.115   4.221
  450SOL    HW2 1359   1.313   1.211   4.213
  451SOL     OW 1360   1.008   1.456   4.201
  451SOL    HW1 1361   0.962   1.528   4.149
  451SOL    HW2 1362   1.004   1.476   4.299
  452SOL     OW 1363   0.351   1.801   4.577
  452SOL    HW1 1364   0.401   1.715   4.583
  452SOL    HW2 1365   0.416   1.878   4.574
  453SOL     OW 1366   1.795   1.066   4.597
  453SOL    HW1 1367   1.733   1.051   4.521
  453SOL    HW2 1368   1.743   1.077   4.682
  454SOL     OW 1369   0.321   0.943   3.966
  454SOL    HW1 1370   0.403   0.982   3.924
  454SOL    HW2 1371   0.294   0.861   3.917
  455SOL     OW 1372   1.111   1.776   3.961
  455SOL    HW1 1373   1.051   1.714   4.011
  455SOL    HW2 1374   1.142   1.732   3.876
  456SOL     OW 1375   1.632   1.377   3.805
  456SOL    HW1 1376   1.600   1.471   3.795
  456SOL    HW2 1377   1.556   1.314   3.793
  457SOL     OW 1378   0.464   1.743   4.047
  457SOL    HW1 1379   0.497   1.782   4.133
  457SOL    HW2 1380   0.540   1.736   3.982
  458SOL     OW 1381   1.400   0.107   4.150
  458SOL    HW1 1382   1.376   0.070   4.060
  458SOL    HW2 1383   1.499   0.123   4.154
  459SOL     OW 1384   0.940   1.698   4.628
  459SOL    HW1 1385   1.020   1.641   4.649
  459SOL    HW2 1386   0.891   1.658   4.551
  460SOL     OW 1387   0.382   0.700   4.204
  460SOL    HW1 1388   0.427   0.610   4.201
  460SOL    HW2 1389   0.288   0.689   4.237
  461SOL     OW 1390   0.614   0.122   3.841
  461SOL    HW1 1391   0.712   0.100   3.848
  461SOL    HW2 1392   0.583   0.105   3.748
  462SOL     OW 1393   0.539   0.064   4.236
  462SOL    HW1 1394   0.458   0.065   4.294
  462SOL    HW2 1395   0.542   0.147   4.181
  463SOL     OW 1396   1.434   1.188   3.765
  463SOL    HW1 1397   1.466   1.112   3.822
  463SOL    HW2 1398   1.342   1.215   3.795
  464SOL     OW 1399   0.297   0.035   3.895
  464SOL    HW1 1400   0.346   0.119   3.874
  464SOL    HW2 1401   0.359  -0.030   3.940
  465SOL     OW 1402   0.935   0.236   4.204
  465SOL    HW1 1403   0.887   0.277   4.126
  465SOL    HW2 1404   1.034   0.234   4.185
  466SOL     OW 1405   0.459   1.152   4.465
  466SOL    HW1 1406   0.388   1.125   4.530
  466SOL    HW2 1407   0.433   1.124   4.372
  467SOL     OW 1408   1.271   1.797   4.315
  467SOL    HW1 1409   1.315   1.861   4.251
  467SOL    HW2 1410   1.221   1.849   4.385
  468SOL     OW 1411   1.032   0.549   3.740
  468SOL    HW1 1412   0.991   0.631   3.701
  468SOL    HW2 1413   1.096   0.575   3.813
  469SOL     OW 1414   0.866   0.454   4.366
  469SOL    HW1 1415   0.834   0.526   4.304
  469SOL    HW2 1416   0.890   0.373   4.313
  470SOL     OW 1417   1.857   0.833   4.101
  470SOL    HW1 1418   1.899   0.769   4.165
  470SOL    HW2 1419   1.819   0.782   4.023
  471SOL     OW 1420   0.488   1.385   3.898
  471SOL    HW1 1421   0.401   1.370   3.945
  471SOL    HW2 1422   0.471   1.411   3.803
  472SOL     OW 1423   1.664   1.280   4.381
  472SOL    HW1 1424   1.763   1.288   4.395
  472SOL    HW2 1425   1.619   1.364   4.412
  473SOL     OW 1426   1.390   0.575   3.802
  473SOL    HW1 1427   1.336   0.554   3.883
  473SOL    HW2 1428   1.481   0.534   3.811
  474SOL     OW 1429   0.527   0.256   4.052
  474SOL    HW1 1430   0.554   0.197   3.977
  474SOL    HW2 1431   0.527   0.351   4.021
  475SOL     OW 1432   0.705   1.050   4.092
  475SOL    HW1 1433   0.691   1.057   4.191
  475SOL    HW2 1434   0.789   0.999   4.074
  476SOL     OW 1435   0.367   1.100   4.225
  476SOL    HW1 1436   0.360   1.183   4.169
  476SOL    HW2 1437   0.371   1.020   4.165
  477SOL     OW 1438   1.252   1.348   4.112
  477SOL    HW1 1439   1.302   1.425   4.152
  477SOL    HW2 1440   1.157   1.350   4.144
  478SOL     OW 1441   1.582   0.639   4.196
  478SOL    HW1 1442   1.551   0.700   4.269
  478SOL    HW2 1443   1.632   0.691   4.127
  479SOL     OW 1444   1.209   0.525   3.999
  479SOL    HW1 1445   1.222   0.441   4.053
  479SOL    HW2 1446   1.180   0.599   4.059
  480SOL     OW 1447   0.307   0.063   4.342
  480SOL    HW1 1448   0.296   0.157   4.375
  480SOL    HW2 1449   0.302   0.000   4.419
  481SOL     OW 1450   1.622   0.367   4.098
  481SOL    HW1 1451   1.624   0.291   4.162
  481SOL    HW2 1452   1.574   0.444   4.138
  482SOL     OW 1453   1.540   0.274   3.849
  482SOL    HW1 1454   1.479   0.199   3.872
  482SOL    HW2 1455   1.562   0.326   3.932
  483SOL     OW 1456   1.303   0.838   3.766
  483SOL    HW1 1457   1.337   0.745   3.781
  483SOL    HW2 1458   1.321   0.865   3.671
  484SOL     OW 1459   0.008   1.326   3.924
  484SOL    HW1 1460  -0.085   1.347   3.893
  484SOL    HW2 1461   0.018   1.227   3.937
  485SOL     OW 1462   0.040   0.544   4.838
  485SOL    HW1 1463   0.125   0.511   4.797
  485SOL    HW2 1464   0.053   0.559   4.936
  486SOL     OW 1465   0.815   0.572   4.049
  486SOL    HW1 1466   0.822   0.483   4.003
  486SOL    HW2 1467   0.721   0.606   4.041
  487SOL     OW 1468   0.473   0.500   3.915
  487SOL    HW1 1469   0.534   0.580   3.919
  487SOL    HW2 1470   0.378   0.531   3.922
  488SOL     OW 1471   1.302   0.855   4.033
  488SOL    HW1 1472   1.216   0.824   4.075
  488SOL    HW2 1473   1.298   0.841   3.934
  489SOL     OW 1474   1.726   0.135   4.247
  489SOL    HW1 1475   1.799   0.118   4.180
  489SOL    HW2 1476   1.695   0.048   4.285
  490SOL     OW 1477   1.388   1.573   4.201
  490SOL    HW1 1478   1.455   1.585   4.127
  490SOL    HW2 1479   1.348   1.662   4.224
  491SOL     OW 1480   0.672   1.616   3.878
  491SOL    HW1 1481   0.681   1.626   3.779
  491SOL    HW2 1482   0.632   1.527   3.899
  492SOL     OW 1483   1.841   0.175   4.687
  492SOL    HW1 1484   1.880   0.090   4.651
  492SOL    HW2 1485   1.743   0.177   4.668
  493SOL     OW 1486   0.263   0.326   4.444
  493SOL    HW1 1487   0.184   0.377   4.410
  493SOL    HW2 1488   0.254   0.311   4.542
  494SOL     OW 1489   1.194   1.612   3.755
  494SOL    HW1 1490   1.200   1.519   3.792
  494SOL    HW2 1491   1.135   1.612   3.675
  495SOL     OW 1492   0.916   0.910   4.015
  495SOL    HW1 1493   0.979   0.948   3.947
  495SOL    HW2 1494   0.956   0.827   4.054
  496SOL     OW 1495   1.504   1.607   3.768
  496SOL    HW1 1496   1.412   1.644   3.775
  496SOL    HW2 1497   1.542   1.627   3.678
  497SOL     OW 1498   0.590   1.487   4.215
  497SOL    HW1 1499   0.632   1.429   4.145
  497SOL    HW2 1500   0.546   1.566   4.171
  498SOL     OW 1501   0.255   1.348   4.014
  498SOL    HW1 1502   0.159   1.349   3.987
  498SOL    HW2 1503   0.267   1.401   4.098
  499SOL     OW 1504   0.075   0.345   3.757
  499SOL    HW1 1505  -0.017   0.317   3.728
  499SOL    HW2 1506   0.106   0.422   3.701
  500SOL     OW 1507   0.072   0.166   4.042
  500SOL    HW1 1508   0.055   0.249   3.988
  500SOL    HW2 1509   0.162   0.129   4.020
  501SOL     OW 1510   1.183   1.335   3.843
  501SOL    HW1 1511   1.084   1.324   3.845
  501SOL    HW2 1512   1.217   1.350   3.936
  502SOL     OW 1513   1.225   0.325   4.173
  502SOL    HW1 1514   1.290   0.251   4.162
  502SOL    HW2 1515   1.245   0.375   4.257
  503SOL     OW 1516   0.594   0.745   4.376
  503SOL    HW1 1517   0.644   0.830   4.357
  503SOL    HW2 1518   0.506   0.747   4.328
  504SOL     OW 1519   0.859   1.374   3.740
  504SOL    HW1 1520   0.813   1.389   3.828
  504SOL    HW2 1521   0.903   1.459   3.710
  505SOL     OW 1522   0.661   1.790   4.677
  505SOL    HW1 1523   0.615   1.878   4.664
  505SOL    HW2 1524   0.760   1.802   4.670
  506SOL     OW 1525   0.859   0.956   4.585
  506SOL    HW1 1526   0.913   0.887   4.633
  506SOL    HW2 1527   0.827   1.025   4.651
  507SOL     OW 1528   1.083   0.984   3.811
  507SOL    HW1 1529   1.060   1.037   3.729
  507SOL    HW2 1530   1.164   0.928   3.792
  508SOL     OW 1531   0.079   1.240   4.377
  508SOL    HW1 1532   0.078   1.193   4.465
  508SOL    HW2 1533   0.161   1.212   4.326
  509SOL     OW 1534   0.428   0.424   4.244
  509SOL    HW1 1535   0.458   0.352   4.182
  509SOL    HW2 1536   0.389   0.384   4.327
  510SOL     OW 1537   0.812   1.586   4.411
  510SOL    HW1 1538   0.844   1.596   4.317
  510SOL    HW2 1539   0.733   1.524   4.413
  511SOL     OW 1540   0.770   1.330   4.025
  511SOL    HW1 1541   0.724   1.243   4.042
  511SOL    HW2 1542   0.861   1.327   4.066
  512SOL     OW 1543   1.352   0.052   3.892
  512SOL    HW1 1544   1.387   0.011   3.808
  512SOL    HW2 1545   1.262   0.014   3.912
  513SOL     OW 1546   1.300   0.453   4.415
  513SOL    HW1 1547   1.241   0.533   4.419
  513SOL    HW2 1548   1.315   0.418   4.508
  514SOL     OW 1549   0.039   1.077   4.024
  514SOL    HW1 1550   0.138   1.066   4.015
  514SOL    HW2 1551  -0.001   0.991   4.056
  515SOL     OW 1552   0.875   1.646   4.061
  515SOL    HW1 1553   0.798   1.611   4.007
  515SOL    HW2 1554   0.843   1.717   4.123
  516SOL     OW 1555   0.230   2.490   0.113
  516SOL    HW1 1556   0.137   2.488   0.150
  516SOL    HW2 1557   0.231   2.451   0.021
  517SOL     OW 1558   0.225   2.137   0.996
  517SOL    HW1 1559   0.260   2.120   1.088
  517SOL    HW2 1560   0.137   2.092   0.984
  518SOL     OW 1561   0.019   2.230   0.647
  518SOL    HW1 1562  -0.063   2.273   0.686
  518SOL    HW2 1563  -0.009   2.157   0.584
  519SOL     OW 1564   0.569   3.137   1.165
  519SOL    HW1 1565   0.476   3.130   1.128
  519SOL    HW2 1566   0.580   3.226   1.209
  520SOL     OW 1567   1.555   3.373   0.703
  520SOL    HW1 1568   1.498   3.357   0.784
  520SOL    HW2 1569   1.496   3.383   0.623
  521SOL     OW 1570   1.135   2.565   0.717
  521SOL    HW1 1571   1.192   2.643   0.692
  521SOL    HW2 1572   1.075   2.591   0.793
  522SOL     OW 1573   1.755   2.469   0.231
  522SOL    HW1 1574   1.743   2.456   0.132
  522SOL    HW2 1575   1.725   2.388   0.280
  523SOL     OW 1576   0.768   3.006   1.023
  523SOL    HW1 1577   0.690   3.023   1.083
  523SOL    HW2 1578   0.802   3.093   0.987
  524SOL     OW 1579   0.850   2.660   1.823
  524SOL    HW1 1580   0.846   2.736   1.888
  524SOL    HW2 1581   0.872   2.696   1.732
  525SOL     OW 1582   0.685   2.874   0.665
  525SOL    HW1 1583   0.754   2.858   0.735
  525SOL    HW2 1584   0.612   2.931   0.703
  526SOL     OW 1585   0.686   3.023   1.803
  526SOL    HW1 1586   0.746   3.102   1.817
  526SOL    HW2 1587   0.600   3.054   1.762
  527SOL     OW 1588   0.335   3.297   1.061
  527SOL    HW1 1589   0.257   3.266   1.008
  527SOL    HW2 1590   0.393   3.355   1.004
  528SOL     OW 1591   1.460   3.367   1.339
  528SOL    HW1 1592   1.484   3.461   1.365
  528SOL    HW2 1593   1.444   3.313   1.421
  529SOL     OW 1594   0.438   2.254   1.499
  529SOL    HW1 1595   0.520   2.198   1.508
  529SOL    HW2 1596   0.357   2.196   1.503
  530SOL     OW 1597   1.603   2.309   0.737
  530SOL    HW1 1598   1.529   2.355   0.687
  530SOL    HW2 1599   1.654   2.377   0.790
  531SOL     OW 1600   0.231   3.575   0.483
  531SOL    HW1 1601   0.265   3.652   0.537
  531SOL    HW2 1602   0.275   3.575   0.393
  532SOL     OW 1603   1.127   3.203   1.690
  532SOL    HW1 1604   1.174   3.203   1.778
  532SOL    HW2 1605   1.079   3.116   1.679
  533SOL     OW 1606   0.230   3.296   0.538
  533SOL    HW1 1607   0.204   3.392   0.538
  533SOL    HW2 1608   0.159   3.242   0.583
  534SOL     OW 1609   0.240   2.953   0.886
  534SOL    HW1 1610   0.254   2.869   0.938
  534SOL    HW2 1611   0.185   3.017   0.941
  535SOL     OW 1612   0.620   3.648   1.439
  535SOL    HW1 1613   0.528   3.631   1.474
  535SOL    HW2 1614   0.648   3.740   1.465
  536SOL     OW 1615   0.606   2.826   0.123
  536SOL    HW1 1616   0.613   2.910   0.069
  536SOL    HW2 1617   0.652   2.839   0.211
  537SOL     OW 1618   1.594   1.976   1.480
  537SOL    HW1 1619   1.576   2.043   1.408
  537SOL    HW2 1620   1.591   2.022   1.569
  538SOL     OW 1621   0.122   2.505   0.563
  538SOL    HW1 1622   0.077   2.417   0.580
  538SOL    HW2 1623   0.121   2.559   0.647
  539SOL     OW 1624   1.842   3.629   0.359
  539SOL    HW1 1625   1.896   3.600   0.439
  539SOL    HW2 1626   1.872   3.719   0.330
  540SOL     OW 1627   0.027   3.458   0.117
  540SOL    HW1 1628   0.008   3.362   0.138
  540SOL    HW2 1629  -0.006   3.516   0.192
  541SOL     OW 1630   1.689   2.784   0.612
  541SOL    HW1 1631   1.784   2.755   0.620
  541SOL    HW2 1632   1.681   2.849   0.537
  542SOL     OW 1633   1.641   2.970   0.432
  542SOL    HW1 1634   1.727   2.972   0.380
  542SOL    HW2 1635   1.655   3.017   0.520
  543SOL     OW 1636   0.113   2.599   1.597
  543SOL    HW1 1637   0.201   2.586   1.642
  543SOL    HW2 1638   0.100   2.696   1.575
  544SOL     OW 1639   0.613   3.227   0.726
  544SOL    HW1 1640   0.564   3.140   0.735
  544SOL    HW2 1641   0.590   3.270   0.639
  545SOL     OW 1642   1.293   3.090   1.423
  545SOL    HW1 1643   1.330   3.017   1.365
  545SOL    HW2 1644   1.345   3.095   1.508
  546SOL     OW 1645   0.809   1.866   0.502
  546SOL    HW1 1646   0.849   1.957   0.493
  546SOL    HW2 1647   0.709   1.874   0.508
  547SOL     OW 1648   0.197   2.838   1.264
  547SOL    HW1 1649   0.286   2.793   1.250
  547SOL    HW2 1650   0.124   2.773   1.245
  548SOL     OW 1651   1.525   2.861   0.190
  548SOL    HW1 1652   1.462   2.785   0.203
  548SOL    HW2 1653   1.573   2.879   0.276
  549SOL     OW 1654   1.187   3.654   1.616
  549SOL    HW1 1655   1.211   3.714   1.540
  549SOL    HW2 1656   1.194   3.559   1.586
  550SOL     OW 1657   0.317   2.113   1.801
  550SOL    HW1 1658   0.388   2.184   1.807
  550SOL    HW2 1659   0.229   2.152   1.829
  551SOL     OW 1660   1.466   3.279   0.953
  551SOL    HW1 1661   1.407   3.285   1.033
  551SOL    HW2 1662   1.451   3.191   0.907
  552SOL     OW 1663   1.667   3.576   0.572
  552SOL    HW1 1664   1.626   3.553   0.484
  552SOL    HW2 1665   1.649   3.502   0.637
  553SOL     OW 1666   0.598   2.591   0.270
  553SOL    HW1 1667   0.622   2.660   0.202
  553SOL    HW2 1668   0.520   2.624   0.324
  554SOL     OW 1669   1.281   2.207   0.944
  554SOL    HW1 1670   1.195   2.157   0.931
  554SOL    HW2 1671   1.343   2.153   1.000
  555SOL     OW 1672   1.576   3.524   0.307
  555SOL    HW1 1673   1.665   3.570   0.310
  555SOL    HW2 1674   1.555   3.500   0.212
  556SOL     OW 1675   0.807   2.467   1.465
  556SOL    HW1 1676   0.760   2.464   1.554
  556SOL    HW2 1677   0.756   2.412   1.399
  557SOL     OW 1678   1.394   2.331   1.674
  557SOL    HW1 1679   1.374   2.374   1.762
  557SOL    HW2 1680   1.472   2.269   1.683
  558SOL     OW 1681   0.973   2.752   1.572
  558SOL    HW1 1682   1.019   2.668   1.543
  558SOL    HW2 1683   0.917   2.786   1.497
  559SOL     OW 1684   0.991   2.272   1.242
  559SOL    HW1 1685   0.914   2.306   1.296
  559SOL    HW2 1686   0.957   2.221   1.163
  560SOL     OW 1687   1.041   2.563   0.429
  560SOL    HW1 1688   1.067   2.559   0.525
  560SOL    HW2 1689   0.956   2.512   0.415
  561SOL     OW 1690   0.076   2.673   0.789
  561SOL    HW1 1691   0.175   2.661   0.798
  561SOL    HW2 1692   0.052   2.768   0.810
  562SOL     OW 1693   0.130   3.683   1.571
  562SOL    HW1 1694   0.120   3.668   1.670
  562SOL    HW2 1695   0.044   3.719   1.535
  563SOL     OW 1696   0.865   2.210   0.195
  563SOL    HW1 1697   0.924   2.273   0.146
  563SOL    HW2 1698   0.884   2.116   0.166
  564SOL     OW 1699   1.719   2.447   1.831
  564SOL    HW1 1700   1.693   2.536   1.795
  564SOL    HW2 1701   1.717   2.379   1.758
  565SOL     OW 1702   1.362   3.006   0.545
  565SOL    HW1 1703   1.445   2.977   0.497
  565SOL    HW2 1704   1.313   3.073   0.489
  566SOL     OW 1705   0.550   2.058   0.885
  566SOL    HW1 1706   0.545   2.053   0.985
  566SOL    HW2 1707   0.552   2.154   0.856
  567SOL     OW 1708   1.008   3.318   0.477
  567SOL    HW1 1709   0.962   3.390   0.425
  567SOL    HW2 1710   1.004   3.338   0.575
  568SOL     OW 1711   0.351   3.663   0.853
  568SOL    HW1 1712   0.401   3.577   0.859
  568SOL    HW2 1713   0.416   3.740   0.850
  569SOL     OW 1714   1.795   2.928   0.873
  569SOL    HW1 1715   1.733   2.913   0.797
  569SOL    HW2 1716   1.743   2.939   0.958
  570SOL     OW 1717   1.227   3.412   1.506
  570SOL    HW1 1718   1.233   3.335   1.570
  570SOL    HW2 1719   1.175   3.386   1.426
  571SOL     OW 1720   0.321   2.805   0.242
  571SOL    HW1 1721   0.403   2.844   0.200
  571SOL    HW2 1722   0.294   2.723   0.193
  572SOL     OW 1723   1.458   2.597   0.728
  572SOL    HW1 1724   1.453   2.532   0.803
  572SOL    HW2 1725   1.538   2.656   0.741
  573SOL     OW 1726   0.461   3.128   1.727
  573SOL    HW1 1727   0.411   3.129   1.641
  573SOL    HW2 1728   0.398   3.110   1.803
  574SOL     OW 1729   1.111   3.638   0.237
  574SOL    HW1 1730   1.051   3.576   0.287
  574SOL    HW2 1731   1.142   3.594   0.152
  575SOL     OW 1732   0.202   2.147   1.498
  575SOL    HW1 1733   0.122   2.207   1.485
  575SOL    HW2 1734   0.192   2.098   1.584
  576SOL     OW 1735   1.632   3.239   0.081
  576SOL    HW1 1736   1.600   3.333   0.071
  576SOL    HW2 1737   1.556   3.176   0.069
  577SOL     OW 1738   0.464   3.605   0.323
  577SOL    HW1 1739   0.497   3.644   0.409
  577SOL    HW2 1740   0.540   3.598   0.258
  578SOL     OW 1741   1.400   1.969   0.426
  578SOL    HW1 1742   1.376   1.932   0.336
  578SOL    HW2 1743   1.499   1.985   0.430
  579SOL     OW 1744   0.249   3.647   1.241
  579SOL    HW1 1745   0.306   3.582   1.291
  579SOL    HW2 1746   0.233   3.614   1.148
  580SOL     OW 1747   0.940   3.560   0.904
  580SOL    HW1 1748   1.020   3.503   0.925
  580SOL    HW2 1749   0.891   3.520   0.827
  581SOL     OW 1750   0.382   2.562   0.480
  581SOL    HW1 1751   0.427   2.472   0.477
  581SOL    HW2 1752   0.288   2.551   0.513
  582SOL     OW 1753   1.547   2.084   1.729
  582SOL    HW1 1754   1.542   2.121   1.821
  582SOL    HW2 1755   1.475   2.015   1.717
  583SOL     OW 1756   0.781   2.126   1.749
  583SOL    HW1 1757   0.848   2.065   1.792
  583SOL    HW2 1758   0.708   2.145   1.814
  584SOL     OW 1759   0.888   3.376   1.195
  584SOL    HW1 1760   0.865   3.351   1.101
  584SOL    HW2 1761   0.949   3.307   1.234
  585SOL     OW 1762   1.351   2.452   1.433
  585SOL    HW1 1763   1.379   2.409   1.518
  585SOL    HW2 1764   1.376   2.548   1.434
  586SOL     OW 1765   0.803   3.264   0.924
  586SOL    HW1 1766   0.893   3.278   0.882
  586SOL    HW2 1767   0.732   3.266   0.853
  587SOL     OW 1768   0.922   2.365   0.899
  587SOL    HW1 1769   0.897   2.356   0.803
  587SOL    HW2 1770   0.970   2.283   0.930
  588SOL     OW 1771   0.539   1.926   0.512
  588SOL    HW1 1772   0.458   1.927   0.570
  588SOL    HW2 1773   0.542   2.009   0.457
  589SOL     OW 1774   1.434   3.050   0.041
  589SOL    HW1 1775   1.466   2.974   0.098
  589SOL    HW2 1776   1.342   3.077   0.071
  590SOL     OW 1777   0.935   2.098   0.480
  590SOL    HW1 1778   0.887   2.139   0.402
  590SOL    HW2 1779   1.034   2.096   0.461
  591SOL     OW 1780   1.076   2.545   1.464
  591SOL    HW1 1781   0.996   2.484   1.467
  591SOL    HW2 1782   1.157   2.492   1.440
  592SOL     OW 1783   1.227   3.432   0.793
  592SOL    HW1 1784   1.248   3.506   0.728
  592SOL    HW2 1785   1.295   3.432   0.866
  593SOL     OW 1786   0.459   3.014   0.741
  593SOL    HW1 1787   0.388   2.987   0.806
  593SOL    HW2 1788   0.433   2.986   0.648
  594SOL     OW 1789   1.271   3.659   0.591
  594SOL    HW1 1790   1.315   3.723   0.527
  594SOL    HW2 1791   1.221   3.711   0.661
  595SOL     OW 1792   1.032   2.411   0.016
  595SOL    HW1 1793   0.991   2.493  -0.023
  595SOL    HW2 1794   1.096   2.437   0.089
  596SOL     OW 1795   0.078   2.418   1.386
  596SOL    HW1 1796   0.170   2.417   1.345
  596SOL    HW2 1797   0.072   2.492   1.453
  597SOL     OW 1798   0.561   2.084   1.147
  597SOL    HW1 1799   0.599   2.000   1.184
  597SOL    HW2 1800   0.473   2.103   1.191
  598SOL     OW 1801   0.866   2.316   0.642
  598SOL    HW1 1802   0.834   2.388   0.580
  598SOL    HW2 1803   0.890   2.235   0.589
  599SOL     OW 1804   1.017   1.901   0.753
  599SOL    HW1 1805   0.945   1.906   0.684
  599SOL    HW2 1806   0.993   1.832   0.822
  600SOL     OW 1807   1.429   3.035   0.867
  600SOL    HW1 1808   1.374   2.951   0.860
  600SOL    HW2 1809   1.455   3.064   0.775
  601SOL     OW 1810   1.466   2.452   0.992
  601SOL    HW1 1811   1.436   2.357   0.999
  601SOL    HW2 1812   1.539   2.468   1.058
  602SOL     OW 1813   1.857   2.695   0.377
  602SOL    HW1 1814   1.899   2.631   0.441
  602SOL    HW2 1815   1.819   2.644   0.299
  603SOL     OW 1816   0.488   3.247   0.174
  603SOL    HW1 1817   0.401   3.232   0.221
  603SOL    HW2 1818   0.471   3.273   0.079
  604SOL     OW 1819   1.664   3.142   0.657
  604SOL    HW1 1820   1.763   3.150   0.671
  604SOL    HW2 1821   1.619   3.226   0.688
  605SOL     OW 1822   1.390   2.437   0.078
  605SOL    HW1 1823   1.336   2.416   0.159
  605SOL    HW2 1824   1.481   2.396   0.087
  606SOL     OW 1825   0.527   2.118   0.328
  606SOL    HW1 1826   0.554   2.059   0.253
  606SOL    HW2 1827   0.527   2.213   0.297
  607SOL     OW 1828   1.754   3.085   1.588
  607SOL    HW1 1829   1.845   3.046   1.575
  607SOL    HW2 1830   1.762   3.181   1.612
  608SOL     OW 1831   1.064   3.209   1.340
  608SOL    HW1 1832   0.984   3.186   1.395
  608SOL    HW2 1833   1.147   3.183   1.389
  609SOL     OW 1834   1.592   3.491   1.625
  609SOL    HW1 1835   1.619   3.525   1.535
  609SOL    HW2 1836   1.671   3.453   1.671
  610SOL     OW 1837   1.111   3.057   1.100
  610SOL    HW1 1838   1.071   3.101   1.181
  610SOL    HW2 1839   1.070   3.094   1.017
  611SOL     OW 1840   1.638   2.961   1.079
  611SOL    HW1 1841   1.643   3.042   1.138
  611SOL    HW2 1842   1.552   2.963   1.028
  612SOL     OW 1843   0.915   1.951   1.402
  612SOL    HW1 1844   0.940   1.931   1.307
  612SOL    HW2 1845   0.987   2.007   1.444
  613SOL     OW 1846   0.980   2.978   1.719
  613SOL    HW1 1847   0.881   2.984   1.729
  613SOL    HW2 1848   1.003   2.898   1.663
  614SOL     OW 1849   0.705   2.912   0.368
  614SOL    HW1 1850   0.691   2.919   0.467
  614SOL    HW2 1851   0.789   2.861   0.350
  615SOL     OW 1852   0.410   2.675   1.251
  615SOL    HW1 1853   0.496   2.687   1.301
  615SOL    HW2 1854   0.368   2.588   1.278
  616SOL     OW 1855   1.274   2.248   1.262
  616SOL    HW1 1856   1.295   2.322   1.326
  616SOL    HW2 1857   1.185   2.265   1.219
  617SOL     OW 1858   0.064   3.426   1.331
  617SOL    HW1 1859   0.018   3.508   1.297
  617SOL    HW2 1860   0.162   3.445   1.340
  618SOL     OW 1861   0.367   2.962   0.501
  618SOL    HW1 1862   0.360   3.045   0.445
  618SOL    HW2 1863   0.371   2.882   0.441
  619SOL     OW 1864   0.566   2.399   0.865
  619SOL    HW1 1865   0.578   2.465   0.791
  619SOL    HW2 1866   0.612   2.433   0.948
  620SOL     OW 1867   1.252   3.210   0.388
  620SOL    HW1 1868   1.302   3.287   0.428
  620SOL    HW2 1869   1.157   3.212   0.420
  621SOL     OW 1870   1.272   3.307   1.142
  621SOL    HW1 1871   1.319   3.320   1.229
  621SOL    HW2 1872   1.206   3.233   1.151
  622SOL     OW 1873   1.582   2.501   0.472
  622SOL    HW1 1874   1.551   2.562   0.545
  622SOL    HW2 1875   1.632   2.553   0.403
  623SOL     OW 1876   0.354   3.372   1.329
  623SOL    HW1 1877   0.333   3.328   1.242
  623SOL    HW2 1878   0.451   3.398   1.332
  624SOL     OW 1879   0.402   2.613   1.598
  624SOL    HW1 1880   0.470   2.668   1.551
  624SOL    HW2 1881   0.442   2.525   1.625
  625SOL     OW 1882   1.587   2.641   1.670
  625SOL    HW1 1883   1.495   2.679   1.665
  625SOL    HW2 1884   1.647   2.688   1.605
  626SOL     OW 1885   1.013   1.967   1.770
  626SOL    HW1 1886   1.019   2.052   1.718
  626SOL    HW2 1887   1.045   1.891   1.713
  627SOL     OW 1888   0.504   1.912   1.740
  627SOL    HW1 1889   0.462   1.855   1.670
  627SOL    HW2 1890   0.438   1.981   1.772
  628SOL     OW 1891   0.573   2.732   1.029
  628SOL    HW1 1892   0.617   2.821   1.020
  628SOL    HW2 1893   0.510   2.732   1.106
  629SOL     OW 1894   1.360   2.724   1.045
  629SOL    HW1 1895   1.285   2.724   0.979
  629SOL    HW2 1896   1.397   2.632   1.054
  630SOL     OW 1897   1.209   2.387   0.275
  630SOL    HW1 1898   1.222   2.303   0.329
  630SOL    HW2 1899   1.180   2.461   0.335
  631SOL     OW 1900   0.307   2.075   1.231
  631SOL    HW1 1901   0.284   2.112   1.321
  631SOL    HW2 1902   0.277   1.980   1.225
  632SOL     OW 1903   0.037   3.172   1.282
  632SOL    HW1 1904   0.090   3.123   1.350
  632SOL    HW2 1905   0.059   3.270   1.287
  633SOL     OW 1906   0.732   2.496   1.064
  633SOL    HW1 1907   0.791   2.470   0.988
  633SOL    HW2 1908   0.704   2.592   1.053
  634SOL     OW 1909   1.728   2.797   1.854
  634SOL    HW1 1910   1.682   2.790   1.765
  634SOL    HW2 1911   1.666   2.841   1.920
  635SOL     OW 1912   0.307   1.925   0.618
  635SOL    HW1 1913   0.296   2.019   0.651
  635SOL    HW2 1914   0.302   1.862   0.695
  636SOL     OW 1915   1.622   2.229   0.374
  636SOL    HW1 1916   1.624   2.153   0.438
  636SOL    HW2 1917   1.574   2.306   0.414
  637SOL     OW 1918   1.023   2.628   0.966
  637SOL    HW1 1919   1.038   2.649   1.062
  637SOL    HW2 1920   0.993   2.533   0.957
  638SOL     OW 1921   0.980   3.435   1.700
  638SOL    HW1 1922   0.960   3.479   1.612
  638SOL    HW2 1923   1.019   3.344   1.684
  639SOL     OW 1924   1.859   3.380   1.605
  639SOL    HW1 1925   1.873   3.407   1.510
  639SOL    HW2 1926   1.942   3.402   1.658
  640SOL     OW 1927   0.350   2.760   1.804
  640SOL    HW1 1928   0.426   2.804   1.852
  640SOL    HW2 1929   0.385   2.713   1.722
  641SOL     OW 1930   1.540   2.136   0.125
  641SOL    HW1 1931   1.479   2.061   0.148
  641SOL    HW2 1932   1.562   2.188   0.208
  642SOL     OW 1933   1.303   2.700   0.042
  642SOL    HW1 1934   1.337   2.607   0.057
  642SOL    HW2 1935   1.321   2.727  -0.053
  643SOL     OW 1936   1.068   3.195   0.849
  643SOL    HW1 1937   1.075   3.111   0.794
  643SOL    HW2 1938   1.130   3.264   0.813
  644SOL     OW 1939   0.319   2.672   0.949
  644SOL    HW1 1940   0.412   2.708   0.954
  644SOL    HW2 1941   0.313   2.587   1.001
  645SOL     OW 1942   0.339   2.371   1.006
  645SOL    HW1 1943   0.287   2.288   0.989
  645SOL    HW2 1944   0.416   2.376   0.942
  646SOL     OW 1945   1.138   2.242   1.678
  646SOL    HW1 1946   1.093   2.305   1.742
  646SOL    HW2 1947   1.231   2.273   1.661
  647SOL     OW 1948   1.160   2.069   1.477
  647SOL    HW1 1949   1.160   2.133   1.554
  647SOL    HW2 1950   1.188   2.117   1.394
  648SOL     OW 1951   0.008   3.188   0.200
  648SOL    HW1 1952  -0.085   3.209   0.169
  648SOL    HW2 1953   0.018   3.089   0.213
  649SOL     OW 1954   0.088   3.663   0.927
  649SOL    HW1 1955   0.046   3.577   0.900
  649SOL    HW2 1956   0.182   3.666   0.893
  650SOL     OW 1957   0.504   3.430   0.910
  650SOL    HW1 1958   0.570   3.504   0.919
  650SOL    HW2 1959   0.548   3.351   0.868
  651SOL     OW 1960   1.002   2.658   1.238
  651SOL    HW1 1961   1.043   2.626   1.324
  651SOL    HW2 1962   0.906   2.631   1.235
  652SOL     OW 1963   0.040   2.406   1.114
  652SOL    HW1 1964   0.125   2.373   1.073
  652SOL    HW2 1965   0.053   2.421   1.212
  653SOL     OW 1966   0.189   2.382   1.722
  653SOL    HW1 1967   0.248   2.342   1.652
  653SOL    HW2 1968   0.131   2.453   1.681
  654SOL     OW 1969   1.369   2.812   1.660
  654SOL    HW1 1970   1.408   2.901   1.680
  654SOL    HW2 1971   1.379   2.792   1.563
  655SOL     OW 1972   0.815   2.434   0.325
  655SOL    HW1 1973   0.822   2.345   0.279
  655SOL    HW2 1974   0.721   2.468   0.317
  656SOL     OW 1975   1.657   2.466   1.206
  656SOL    HW1 1976   1.619   2.397   1.268
  656SOL    HW2 1977   1.739   2.430   1.162
  657SOL     OW 1978   0.252   3.426   1.744
  657SOL    HW1 1979   0.222   3.483   1.820
  657SOL    HW2 1980   0.245   3.329   1.770
  658SOL     OW 1981   0.671   2.326   1.269
  658SOL    HW1 1982   0.637   2.237   1.239
  658SOL    HW2 1983   0.697   2.380   1.189
  659SOL     OW 1984   0.930   3.540   1.465
  659SOL    HW1 1985   0.906   3.522   1.370
  659SOL    HW2 1986   0.960   3.634   1.475
  660SOL     OW 1987   0.473   2.362   0.191
  660SOL    HW1 1988   0.534   2.442   0.195
  660SOL    HW2 1989   0.378   2.393   0.198
  661SOL     OW 1990   0.159   2.999   1.466
  661SOL    HW1 1991   0.181   2.938   1.542
  661SOL    HW2 1992   0.169   2.950   1.380
  662SOL     OW 1993   1.347   2.921   1.234
  662SOL    HW1 1994   1.371   2.858   1.160
  662SOL    HW2 1995   1.257   2.961   1.216
  663SOL     OW 1996   1.302   2.717   0.309
  663SOL    HW1 1997   1.216   2.686   0.351
  663SOL    HW2 1998   1.298   2.703   0.210
  664SOL     OW 1999   1.759   3.609   1.154
  664SOL    HW1 2000   1.820   3.639   1.081
  664SOL    HW2 2001   1.721   3.520   1.132
  665SOL     OW 2002   1.252   3.593   1.128
  665SOL    HW1 2003   1.336   3.598   1.074
  665SOL    HW2 2004   1.229   3.497   1.146
  666SOL     OW 2005   0.083   3.120   1.022
  666SOL    HW1 2006   0.078   3.119   1.122
  666SOL    HW2 2007   0.000   3.079   0.984
  667SOL     OW 2008   0.688   3.524   1.716
  667SOL    HW1 2009   0.632   3.605   1.725
  667SOL    HW2 2010   0.740   3.528   1.630
  668SOL     OW 2011   0.903   1.948   0.133
  668SOL    HW1 2012   0.954   1.949   0.047
  668SOL    HW2 2013   0.959   1.906   0.204
  669SOL     OW 2014   1.726   1.997   0.523
  669SOL    HW1 2015   1.799   1.980   0.456
  669SOL    HW2 2016   1.695   1.910   0.561
  670SOL     OW 2017   1.388   3.435   0.477
  670SOL    HW1 2018   1.455   3.447   0.403
  670SOL    HW2 2019   1.348   3.524   0.500
  671SOL     OW 2020   0.130   3.656   1.851
  671SOL    HW1 2021   0.089   3.582   1.904
  671SOL    HW2 2022   0.194   3.707   1.909
  672SOL     OW 2023   1.280   2.789   0.672
  672SOL    HW1 2024   1.340   2.708   0.674
  672SOL    HW2 2025   1.320   2.858   0.612
  673SOL     OW 2026   0.830   3.135   1.422
  673SOL    HW1 2027   0.825   3.168   1.517
  673SOL    HW2 2028   0.744   3.154   1.376
  674SOL     OW 2029   0.672   3.478   0.154
  674SOL    HW1 2030   0.681   3.488   0.055
  674SOL    HW2 2031   0.632   3.389   0.175
  675SOL     OW 2032   1.650   3.582   1.394
  675SOL    HW1 2033   1.703   3.592   1.310
  675SOL    HW2 2034   1.623   3.672   1.428
  676SOL     OW 2035   1.841   2.037   0.963
  676SOL    HW1 2036   1.880   1.952   0.927
  676SOL    HW2 2037   1.743   2.039   0.944
  677SOL     OW 2038   0.263   2.188   0.720
  677SOL    HW1 2039   0.184   2.239   0.686
  677SOL    HW2 2040   0.254   2.173   0.818
  678SOL     OW 2041   1.194   3.474   0.031
  678SOL    HW1 2042   1.200   3.381   0.068
  678SOL    HW2 2043   1.135   3.474  -0.049
  679SOL     OW 2044   0.822   2.864   1.372
  679SOL    HW1 2045   0.862   2.863   1.280
  679SOL    HW2 2046   0.832   2.956   1.412
  680SOL     OW 2047   0.916   2.772   0.291
  680SOL    HW1 2048   0.979   2.810   0.223
  680SOL    HW2 2049   0.956   2.689   0.330
  681SOL     OW 2050   1.504   3.469   0.044
  681SOL    HW1 2051   1.412   3.506   0.051
  681SOL    HW2 2052   1.542   3.489  -0.046
  682SOL     OW 2053   0.372   3.150   1.490
  682SOL    HW1 2054   0.359   3.243   1.456
  682SOL    HW2 2055   0.288   3.098   1.477
  683SOL     OW 2056   1.614   3.154   1.289
  683SOL    HW1 2057   1.674   3.157   1.369
  683SOL    HW2 2058   1.539   3.218   1.302
  684SOL     OW 2059   1.039   2.960   0.696
  684SOL    HW1 2060   0.969   2.913   0.750
  684SOL    HW2 2061   1.098   2.892   0.653
  685SOL     OW 2062   1.014   2.098   0.971
  685SOL    HW1 2063   1.006   2.062   0.878
  685SOL    HW2 2064   1.012   2.022   1.036
  686SOL     OW 2065   0.590   3.349   0.491
  686SOL    HW1 2066   0.632   3.291   0.421
  686SOL    HW2 2067   0.546   3.428   0.447
  687SOL     OW 2068   1.709   2.247   1.381
  687SOL    HW1 2069   1.782   2.316   1.385
  687SOL    HW2 2070   1.737   2.172   1.322
  688SOL     OW 2071   0.255   3.210   0.290
  688SOL    HW1 2072   0.159   3.211   0.263
  688SOL    HW2 2073   0.267   3.263   0.374
  689SOL     OW 2074   0.105   2.875   1.726
  689SOL    HW1 2075   0.028   2.842   1.780
  689SOL    HW2 2076   0.190   2.845   1.768
  690SOL     OW 2077   0.672   2.065   1.489
  690SOL    HW1 2078   0.762   2.049   1.449
  690SOL    HW2 2079   0.680   2.070   1.588
  691SOL     OW 2080   0.075   2.207   0.033
  691SOL    HW1 2081  -0.017   2.179   0.004
  691SOL    HW2 2082   0.106   2.284  -0.023
  692SOL     OW 2083   1.440   2.718   1.398
  692SOL    HW1 2084   1.383   2.770   1.335
  692SOL    HW2 2085   1.536   2.730   1.374
  693SOL     OW 2086   0.072   2.028   0.318
  693SOL    HW1 2087   0.055   2.111   0.264
  693SOL    HW2 2088   0.162   1.991   0.296
  694SOL     OW 2089   1.183   3.197   0.119
  694SOL    HW1 2090   1.084   3.186   0.121
  694SOL    HW2 2091   1.217   3.212   0.212
  695SOL     OW 2092   0.613   2.704   1.431
  695SOL    HW1 2093   0.669   2.785   1.414
  695SOL    HW2 2094   0.672   2.624   1.434
  696SOL     OW 2095   1.493   3.629   0.959
  696SOL    HW1 2096   1.526   3.693   0.890
  696SOL    HW2 2097   1.559   3.623   1.034
  697SOL     OW 2098   0.716   2.427   1.708
  697SOL    HW1 2099   0.735   2.492   1.782
  697SOL    HW2 2100   0.776   2.347   1.717
  698SOL     OW 2101   1.450   3.082   1.633
  698SOL    HW1 2102   1.441   3.072   1.732
  698SOL    HW2 2103   1.546   3.075   1.607
  699SOL     OW 2104   0.390   3.603   1.560
  699SOL    HW1 2105   0.299   3.644   1.558
  699SOL    HW2 2106   0.383   3.509   1.592
  700SOL     OW 2107   1.674   2.745   1.254
  700SOL    HW1 2108   1.647   2.656   1.217
  700SOL    HW2 2109   1.675   2.813   1.181
  701SOL     OW 2110   1.225   2.187   0.449
  701SOL    HW1 2111   1.290   2.113   0.438
  701SOL    HW2 2112   1.245   2.237   0.533
  702SOL     OW 2113   0.594   2.607   0.652
  702SOL    HW1 2114   0.644   2.692   0.633
  702SOL    HW2 2115   0.506   2.609   0.604
  703SOL     OW 2116   1.777   2.204   1.642
  703SOL    HW1 2117   1.760   2.235   1.548
  703SOL    HW2 2118   1.693   2.167   1.680
  704SOL     OW 2119   1.730   2.796   1.517
  704SOL    HW1 2120   1.768   2.887   1.532
  704SOL    HW2 2121   1.722   2.779   1.418
  705SOL     OW 2122   0.859   3.236   0.016
  705SOL    HW1 2123   0.813   3.251   0.104
  705SOL    HW2 2124   0.903   3.321  -0.014
  706SOL     OW 2125   0.661   3.652   0.953
  706SOL    HW1 2126   0.615   3.740   0.940
  706SOL    HW2 2127   0.760   3.664   0.946
  707SOL     OW 2128   0.859   2.818   0.861
  707SOL    HW1 2129   0.913   2.749   0.909
  707SOL    HW2 2130   0.827   2.887   0.927
  708SOL     OW 2131   1.083   2.846   0.087
  708SOL    HW1 2132   1.060   2.899   0.005
  708SOL    HW2 2133   1.164   2.790   0.068
  709SOL     OW 2134   1.861   3.431   0.851
  709SOL    HW1 2135   1.790   3.419   0.781
  709SOL    HW2 2136   1.862   3.352   0.911
  710SOL     OW 2137   0.221   3.176   1.844
  710SOL    HW1 2138   0.156   3.103   1.823
  710SOL    HW2 2139   0.225   3.190   1.942
  711SOL     OW 2140   0.079   3.102   0.653
  711SOL    HW1 2141   0.078   3.055   0.741
  711SOL    HW2 2142   0.161   3.074   0.602
  712SOL     OW 2143   0.672   3.253   1.624
  712SOL    HW1 2144   0.594   3.203   1.662
  712SOL    HW2 2145   0.669   3.348   1.655
  713SOL     OW 2146   1.824   2.054   1.227
  713SOL    HW1 2147   1.820   1.964   1.271
  713SOL    HW2 2148   1.827   2.043   1.128
  714SOL     OW 2149   0.428   2.286   0.520
  714SOL    HW1 2150   0.458   2.214   0.458
  714SOL    HW2 2151   0.389   2.246   0.603
  715SOL     OW 2152   1.705   3.349   1.104
  715SOL    HW1 2153   1.612   3.324   1.077
  715SOL    HW2 2154   1.731   3.299   1.186
  716SOL     OW 2155   0.317   2.409   1.280
  716SOL    HW1 2156   0.355   2.350   1.352
  716SOL    HW2 2157   0.357   2.383   1.192
  717SOL     OW 2158   0.812   3.448   0.687
  717SOL    HW1 2159   0.844   3.458   0.593
  717SOL    HW2 2160   0.733   3.386   0.689
  718SOL     OW 2161   1.424   2.076   1.112
  718SOL    HW1 2162   1.476   2.011   1.167
  718SOL    HW2 2163   1.375   2.139   1.173
  719SOL     OW 2164   1.001   1.896   1.154
  719SOL    HW1 2165   0.938   1.824   1.123
  719SOL    HW2 2166   1.094   1.860   1.154
  720SOL     OW 2167   0.770   3.192   0.301
  720SOL    HW1 2168   0.724   3.105   0.318
  720SOL    HW2 2169   0.861   3.189   0.342
  721SOL     OW 2170   0.618   3.429   1.284
  721SOL    HW1 2171   0.613   3.511   1.341
  721SOL    HW2 2172   0.707   3.426   1.239
  722SOL     OW 2173   1.352   1.914   0.168
  722SOL    HW1 2174   1.387   1.873   0.084
  722SOL    HW2 2175   1.262   1.876   0.188
  723SOL     OW 2176   1.300   2.315   0.691
  723SOL    HW1 2177   1.241   2.395   0.695
  723SOL    HW2 2178   1.315   2.280   0.784
  724SOL     OW 2179   1.593   2.083   0.882
  724SOL    HW1 2180   1.509   2.082   0.936
  724SOL    HW2 2181   1.595   2.166   0.826
  725SOL     OW 2182   0.039   2.939   0.300
  725SOL    HW1 2183   0.138   2.928   0.291
  725SOL    HW2 2184  -0.001   2.853   0.332
  726SOL     OW 2185   0.875   3.508   0.337
  726SOL    HW1 2186   0.798   3.473   0.283
  726SOL    HW2 2187   0.843   3.579   0.399
  727SOL     OW 2188   0.230   2.490   1.975
  727SOL    HW1 2189   0.137   2.488   2.012
  727SOL    HW2 2190   0.231   2.451   1.883
  728SOL     OW 2191   0.225   2.137   2.858
  728SOL    HW1 2192   0.260   2.120   2.950
  728SOL    HW2 2193   0.137   2.092   2.846
  729SOL     OW 2194   0.019   2.230   2.509
  729SOL    HW1 2195  -0.063   2.273   2.548
  729SOL    HW2 2196  -0.009   2.157   2.446
  730SOL     OW 2197   0.569   3.137   3.027
  730SOL    HW1 2198   0.476   3.130   2.990
  730SOL    HW2 2199   0.580   3.226   3.071
  731SOL     OW 2200   1.555   3.373   2.565
  731SOL    HW1 2201   1.498   3.357   2.646
  731SOL    HW2 2202   1.496   3.383   2.485
  732SOL     OW 2203   1.135   2.565   2.579
  732SOL    HW1 2204   1.192   2.643   2.554
  732SOL    HW2 2205   1.075   2.591   2.655
  733SOL     OW 2206   1.755   2.469   2.093
  733SOL    HW1 2207   1.743   2.456   1.994
  733SOL    HW2 2208   1.725   2.388   2.142
  734SOL     OW 2209   0.768   3.006   2.885
  734SOL    HW1 2210   0.690   3.023   2.945
  734SOL    HW2 2211   0.802   3.093   2.849
  735SOL     OW 2212   0.850   2.660   3.685
  735SOL    HW1 2213   0.846   2.736   3.750
  735SOL    HW2 2214   0.872   2.696   3.594
  736SOL     OW 2215   0.685   2.874   2.527
  736SOL    HW1 2216   0.754   2.858   2.597
  736SOL    HW2 2217   0.612   2.931   2.565
  737SOL     OW 2218   0.686   3.023   3.665
  737SOL    HW1 2219   0.746   3.102   3.679
  737SOL    HW2 2220   0.600   3.054   3.624
  738SOL     OW 2221   0.335   3.297   2.923
  738SOL    HW1 2222   0.257   3.266   2.870
  738SOL    HW2 2223   0.393   3.355   2.866
  739SOL     OW 2224   1.460   3.367   3.201
  739SOL    HW1 2225   1.484   3.461   3.227
  739SOL    HW2 2226   1.444   3.313   3.283
  740SOL     OW 2227   0.438   2.254   3.361
  740SOL    HW1 2228   0.520   2.198   3.370
  740SOL    HW2 2229   0.357   2.196   3.365
  741SOL     OW 2230   1.603   2.309   2.599
  741SOL    HW1 2231   1.529   2.355   2.549
  741SOL    HW2 2232   1.654   2.377   2.652
  742SOL     OW 2233   0.231   3.575   2.345
  742SOL    HW1 2234   0.265   3.652   2.399
  742SOL    HW2 2235   0.275   3.575   2.255
  743SOL     OW 2236   1.127   3.203   3.552
  743SOL    HW1 2237   1.174   3.203   3.640
  743SOL    HW2 2238   1.079   3.116   3.541
  744SOL     OW 2239   0.230   3.296   2.400
  744SOL    HW1 2240   0.204   3.392   2.400
  744SOL    HW2 2241   0.159   3.242   2.445
  745SOL     OW 2242   0.240   2.953   2.748
  745SOL    HW1 2243   0.254   2.869   2.800
  745SOL    HW2 2244   0.185   3.017   2.803
  746SOL     OW 2245   0.620   3.648   3.301
  746SOL    HW1 2246   0.528   3.631   3.336
  746SOL    HW2 2247   0.648   3.740   3.327
  747SOL     OW 2248   0.606   2.826   1.985
  747SOL    HW1 2249   0.613   2.910   1.931
  747SOL    HW2 2250   0.652   2.839   2.073
  748SOL     OW 2251   1.594   1.976   3.342
  748SOL    HW1 2252   1.576   2.043   3.270
  748SOL    HW2 2253   1.591   2.022   3.431
  749SOL     OW 2254   0.122   2.505   2.425
  749SOL    HW1 2255   0.077   2.417   2.442
  749SOL    HW2 2256   0.121   2.559   2.509
  750SOL     OW 2257   1.842   3.629   2.221
  750SOL    HW1 2258   1.896   3.600   2.301
  750SOL    HW2 2259   1.872   3.719   2.192
  751SOL     OW 2260   0.027   3.458   1.979
  751SOL    HW1 2261   0.008   3.362   2.000
  751SOL    HW2 2262  -0.006   3.516   2.054
  752SOL     OW 2263   1.689   2.784   2.474
  752SOL    HW1 2264   1.784   2.755   2.482
  752SOL    HW2 2265   1.681   2.849   2.399
  753SOL     OW 2266   1.641   2.970   2.294
  753SOL    HW1 2267   1.727   2.972   2.242
  753SOL    HW2 2268   1.655   3.017   2.382
  754SOL     OW 2269   0.113   2.599   3.459
  754SOL    HW1 2270   0.201   2.586   3.504
  754SOL    HW2 2271   0.100   2.696   3.437
  755SOL     OW 2272   0.613   3.227   2.588
  755SOL    HW1 2273   0.564   3.140   2.597
  755SOL    HW2 2274   0.590   3.270   2.501
  756SOL     OW 2275   1.293   3.090   3.285
  756SOL    HW1 2276   1.330   3.017   3.227
  756SOL    HW2 2277   1.345   3.095   3.370
  757SOL     OW 2278   0.809   1.866   2.364
  757SOL    HW1 2279   0.849   1.957   2.355
  757SOL    HW2 2280   0.709   1.874   2.370
  758SOL     OW 2281   0.197   2.838   3.126
  758SOL    HW1 2282   0.286   2.793   3.112
  758SOL    HW2 2283   0.124   2.773   3.107
  759SOL     OW 2284   1.525   2.861   2.052
  759SOL    HW1 2285   1.462   2.785   2.065
  759SOL    HW2 2286   1.573   2.879   2.138
  760SOL     OW 2287   1.187   3.654   3.478
  760SOL    HW1 2288   1.211   3.714   3.402
  760SOL    HW2 2289   1.194   3.559   3.448
  761SOL     OW 2290   0.317   2.113   3.663
  761SOL    HW1 2291   0.388   2.184   3.669
  761SOL    HW2 2292   0.229   2.152   3.691
  762SOL     OW 2293   1.466   3.279   2.815
  762SOL    HW1 2294   1.407   3.285   2.895
  762SOL    HW2 2295   1.451   3.191   2.769
  763SOL     OW 2296   1.667   3.576   2.434
  763SOL    HW1 2297   1.626   3.553   2.346
  763SOL    HW2 2298   1.649   3.502   2.499
  764SOL     OW 2299   0.598   2.591   2.132
  764SOL    HW1 2300   0.622   2.660   2.064
  764SOL    HW2 2301   0.520   2.624   2.186
  765SOL     OW 2302   1.281   2.207   2.806
  765SOL    HW1 2303   1.195   2.157   2.793
  765SOL    HW2 2304   1.343   2.153   2.862
  766SOL     OW 2305   1.576   3.524   2.169
  766SOL    HW1 2306   1.665   3.570   2.172
  766SOL    HW2 2307   1.555   3.500   2.074
  767SOL     OW 2308   0.807   2.467   3.327
  767SOL    HW1 2309   0.760   2.464   3.416
  767SOL    HW2 2310   0.756   2.412   3.261
  768SOL     OW 2311   1.394   2.331   3.536
  768SOL    HW1 2312   1.374   2.374   3.624
  768SOL    HW2 2313   1.472   2.269   3.545
  769SOL     OW 2314   0.973   2.752   3.434
  769SOL    HW1 2315   1.019   2.668   3.405
  769SOL    HW2 2316   0.917   2.786   3.359
  770SOL     OW 2317   0.991   2.272   3.104
  770SOL    HW1 2318   0.914   2.306   3.158
  770SOL    HW2 2319   0.957   2.221   3.025
  771SOL     OW 2320   1.041   2.563   2.291
  771SOL    HW1 2321   1.067   2.559   2.387
  771SOL    HW2 2322   0.956   2.512   2.277
  772SOL     OW 2323   0.076   2.673   2.651
  772SOL    HW1 2324   0.175   2.661   2.660
  772SOL    HW2 2325   0.052   2.768   2.672
  773SOL     OW 2326   0.130   3.683   3.433
  773SOL    HW1 2327   0.120   3.668   3.532
  773SOL    HW2 2328   0.044   3.719   3.397
  774SOL     OW 2329   0.865   2.210   2.057
  774SOL    HW1 2330   0.924   2.273   2.008
  774SOL    HW2 2331   0.884   2.116   2.028
  775SOL     OW 2332   1.719   2.447   3.693
  775SOL    HW1 2333   1.693   2.536   3.657
  775SOL    HW2 2334   1.717   2.379   3.620
  776SOL     OW 2335   1.362   3.006   2.407
  776SOL    HW1 2336   1.445   2.977   2.359
  776SOL    HW2 2337   1.313   3.073   2.351
  777SOL     OW 2338   0.550   2.058   2.747
  777SOL    HW1 2339   0.545   2.053   2.847
  777SOL    HW2 2340   0.552   2.154   2.718
  778SOL     OW 2341   1.008   3.318   2.339
  778SOL    HW1 2342   0.962   3.390   2.287
  778SOL    HW2 2343   1.004   3.338   2.437
  779SOL     OW 2344   0.351   3.663   2.715
  779SOL    HW1 2345   0.401   3.577   2.721
  779SOL    HW2 2346   0.416   3.740   2.712
  780SOL     OW 2347   1.795   2.928   2.735
  780SOL    HW1 2348   1.733   2.913   2.659
  780SOL    HW2 2349   1.743   2.939   2.820
  781SOL     OW 2350   1.227   3.412   3.368
  781SOL    HW1 2351   1.233   3.335   3.432
  781SOL    HW2 2352   1.175   3.386   3.288
  782SOL     OW 2353   0.321   2.805   2.104
  782SOL    HW1 2354   0.403   2.844   2.062
  782SOL    HW2 2355   0.294   2.723   2.055
  783SOL     OW 2356   1.458   2.597   2.590
  783SOL    HW1 2357   1.453   2.532   2.665
  783SOL    HW2 2358   1.538   2.656   2.603
  784SOL     OW 2359   0.461   3.128   3.589
  784SOL    HW1 2360   0.411   3.129   3.503
  784SOL    HW2 2361   0.398   3.110   3.665
  785SOL     OW 2362   1.111   3.638   2.099
  785SOL    HW1 2363   1.051   3.576   2.149
  785SOL    HW2 2364   1.142   3.594   2.014
  786SOL     OW 2365   0.202   2.147   3.360
  786SOL    HW1 2366   0.122   2.207   3.347
  786SOL    HW2 2367   0.192   2.098   3.446
  787SOL     OW 2368   1.632   3.239   1.943
  787SOL    HW1 2369   1.600   3.333   1.933
  787SOL    HW2 2370   1.556   3.176   1.931
  788SOL     OW 2371   0.464   3.605   2.185
  788SOL    HW1 2372   0.497   3.644   2.271
  788SOL    HW2 2373   0.540   3.598   2.120
  789SOL     OW 2374   1.400   1.969   2.288
  789SOL    HW1 2375   1.376   1.932   2.198
  789SOL    HW2 2376   1.499   1.985   2.292
  790SOL     OW 2377   0.249   3.647   3.103
  790SOL    HW1 2378   0.306   3.582   3.153
  790SOL    HW2 2379   0.233   3.614   3.010
  791SOL     OW 2380   0.940   3.560   2.766
  791SOL    HW1 2381   1.020   3.503   2.787
  791SOL    HW2 2382   0.891   3.520   2.689
  792SOL     OW 2383   0.382   2.562   2.342
  792SOL    HW1 2384   0.427   2.472   2.339
  792SOL    HW2 2385   0.288   2.551   2.375
  793SOL     OW 2386   1.547   2.084   3.591
  793SOL    HW1 2387   1.542   2.121   3.683
  793SOL    HW2 2388   1.475   2.015   3.579
  794SOL     OW 2389   0.614   1.984   1.979
  794SOL    HW1 2390   0.712   1.962   1.986
  794SOL    HW2 2391   0.583   1.967   1.886
  795SOL     OW 2392   0.781   2.126   3.611
  795SOL    HW1 2393   0.848   2.065   3.654
  795SOL    HW2 2394   0.708   2.145   3.676
  796SOL     OW 2395   0.888   3.376   3.057
  796SOL    HW1 2396   0.865   3.351   2.963
  796SOL    HW2 2397   0.949   3.307   3.096
  797SOL     OW 2398   1.351   2.452   3.295
  797SOL    HW1 2399   1.379   2.409   3.380
  797SOL    HW2 2400   1.376   2.548   3.296
  798SOL     OW 2401   0.803   3.264   2.786
  798SOL    HW1 2402   0.893   3.278   2.744
  798SOL    HW2 2403   0.732   3.266   2.715
  799SOL     OW 2404   0.922   2.365   2.761
  799SOL    HW1 2405   0.897   2.356   2.665
  799SOL    HW2 2406   0.970   2.283   2.792
  800SOL     OW 2407   0.539   1.926   2.374
  800SOL    HW1 2408   0.458   1.927   2.432
  800SOL    HW2 2409   0.542   2.009   2.319
  801SOL     OW 2410   1.434   3.050   1.903
  801SOL    HW1 2411   1.466   2.974   1.960
  801SOL    HW2 2412   1.342   3.077   1.933
  802SOL     OW 2413   0.297   1.897   2.033
  802SOL    HW1 2414   0.346   1.981   2.012
  802SOL    HW2 2415   0.359   1.832   2.078
  803SOL     OW 2416   0.935   2.098   2.342
  803SOL    HW1 2417   0.887   2.139   2.264
  803SOL    HW2 2418   1.034   2.096   2.323
  804SOL     OW 2419   1.076   2.545   3.326
  804SOL    HW1 2420   0.996   2.484   3.329
  804SOL    HW2 2421   1.157   2.492   3.302
  805SOL     OW 2422   1.227   3.432   2.655
  805SOL    HW1 2423   1.248   3.506   2.590
  805SOL    HW2 2424   1.295   3.432   2.728
  806SOL     OW 2425   0.459   3.014   2.603
  806SOL    HW1 2426   0.388   2.987   2.668
  806SOL    HW2 2427   0.433   2.986   2.510
  807SOL     OW 2428   1.271   3.659   2.453
  807SOL    HW1 2429   1.315   3.723   2.389
  807SOL    HW2 2430   1.221   3.711   2.523
  808SOL     OW 2431   1.032   2.411   1.878
  808SOL    HW1 2432   0.991   2.493   1.839
  808SOL    HW2 2433   1.096   2.437   1.951
  809SOL     OW 2434   0.078   2.418   3.248
  809SOL    HW1 2435   0.170   2.417   3.207
  809SOL    HW2 2436   0.072   2.492   3.315
  810SOL     OW 2437   0.561   2.084   3.009
  810SOL    HW1 2438   0.599   2.000   3.046
  810SOL    HW2 2439   0.473   2.103   3.053
  811SOL     OW 2440   0.866   2.316   2.504
  811SOL    HW1 2441   0.834   2.388   2.442
  811SOL    HW2 2442   0.890   2.235   2.451
  812SOL     OW 2443   1.017   1.901   2.615
  812SOL    HW1 2444   0.945   1.906   2.546
  812SOL    HW2 2445   0.993   1.832   2.684
  813SOL     OW 2446   1.429   3.035   2.729
  813SOL    HW1 2447   1.374   2.951   2.722
  813SOL    HW2 2448   1.455   3.064   2.637
  814SOL     OW 2449   1.466   2.452   2.854
  814SOL    HW1 2450   1.436   2.357   2.861
  814SOL    HW2 2451   1.539   2.468   2.920
  815SOL     OW 2452   1.857   2.695   2.239
  815SOL    HW1 2453   1.899   2.631   2.303
  815SOL    HW2 2454   1.819   2.644   2.161
  816SOL     OW 2455   0.488   3.247   2.036
  816SOL    HW1 2456   0.401   3.232   2.083
  816SOL    HW2 2457   0.471   3.273   1.941
  817SOL     OW 2458   1.664   3.142   2.519
  817SOL    HW1 2459   1.763   3.150   2.533
  817SOL    HW2 2460   1.619   3.226   2.550
  818SOL     OW 2461   1.390   2.437   1.940
  818SOL    HW1 2462   1.336   2.416   2.021
  818SOL    HW2 2463   1.481   2.396   1.949
  819SOL     OW 2464   0.527   2.118   2.190
  819SOL    HW1 2465   0.554   2.059   2.115
  819SOL    HW2 2466   0.527   2.213   2.159
  820SOL     OW 2467   1.754   3.085   3.450
  820SOL    HW1 2468   1.845   3.046   3.437
  820SOL    HW2 2469   1.762   3.181   3.474
  821SOL     OW 2470   1.064   3.209   3.202
  821SOL    HW1 2471   0.984   3.186   3.257
  821SOL    HW2 2472   1.147   3.183   3.251
  822SOL     OW 2473   1.592   3.491   3.487
  822SOL    HW1 2474   1.619   3.525   3.397
  822SOL    HW2 2475   1.671   3.453   3.533
  823SOL     OW 2476   1.111   3.057   2.962
  823SOL    HW1 2477   1.071   3.101   3.043
  823SOL    HW2 2478   1.070   3.094   2.879
  824SOL     OW 2479   1.638   2.961   2.941
  824SOL    HW1 2480   1.643   3.042   3.000
  824SOL    HW2 2481   1.552   2.963   2.890
  825SOL     OW 2482   0.915   1.951   3.264
  825SOL    HW1 2483   0.940   1.931   3.169
  825SOL    HW2 2484   0.987   2.007   3.306
  826SOL     OW 2485   0.980   2.978   3.581
  826SOL    HW1 2486   0.881   2.984   3.591
  826SOL    HW2 2487   1.003   2.898   3.525
  827SOL     OW 2488   0.705   2.912   2.230
  827SOL    HW1 2489   0.691   2.919   2.329
  827SOL    HW2 2490   0.789   2.861   2.212
  828SOL     OW 2491   0.410   2.675   3.113
  828SOL    HW1 2492   0.496   2.687   3.163
  828SOL    HW2 2493   0.368   2.588   3.140
  829SOL     OW 2494   1.274   2.248   3.124
  829SOL    HW1 2495   1.295   2.322   3.188
  829SOL    HW2 2496   1.185   2.265   3.081
  830SOL     OW 2497   0.064   3.426   3.193
  830SOL    HW1 2498   0.018   3.508   3.159
  830SOL    HW2 2499   0.162   3.445   3.202
  831SOL     OW 2500   0.367   2.962   2.363
  831SOL    HW1 2501   0.360   3.045   2.307
  831SOL    HW2 2502   0.371   2.882   2.303
  832SOL     OW 2503   0.566   2.399   2.727
  832SOL    HW1 2504   0.578   2.465   2.653
  832SOL    HW2 2505   0.612   2.433   2.810
  833SOL     OW 2506   1.252   3.210   2.250
  833SOL    HW1 2507   1.302   3.287   2.290
  833SOL    HW2 2508   1.157   3.212   2.282
  834SOL     OW 2509   1.272   3.307   3.004
  834SOL    HW1 2510   1.319   3.320   3.091
  834SOL    HW2 2511   1.206   3.233   3.013
  835SOL     OW 2512   1.582   2.501   2.334
  835SOL    HW1 2513   1.551   2.562   2.407
  835SOL    HW2 2514   1.632   2.553   2.265
  836SOL     OW 2515   0.354   3.372   3.191
  836SOL    HW1 2516   0.333   3.328   3.104
  836SOL    HW2 2517   0.451   3.398   3.194
  837SOL     OW 2518   0.402   2.613   3.460
  837SOL    HW1 2519   0.470   2.668   3.413
  837SOL    HW2 2520   0.442   2.525   3.487
  838SOL     OW 2521   1.587   2.641   3.532
  838SOL    HW1 2522   1.495   2.679   3.527
  838SOL    HW2 2523   1.647   2.688   3.467
  839SOL     OW 2524   1.013   1.967   3.632
  839SOL    HW1 2525   1.019   2.052   3.580
  839SOL    HW2 2526   1.045   1.891   3.575
  840SOL     OW 2527   0.504   1.912   3.602
  840SOL    HW1 2528   0.462   1.855   3.532
  840SOL    HW2 2529   0.438   1.981   3.634
  841SOL     OW 2530   0.573   2.732   2.891
  841SOL    HW1 2531   0.617   2.821   2.882
  841SOL    HW2 2532   0.510   2.732   2.968
  842SOL     OW 2533   1.360   2.724   2.907
  842SOL    HW1 2534   1.285   2.724   2.841
  842SOL    HW2 2535   1.397   2.632   2.916
  843SOL     OW 2536   1.209   2.387   2.137
  843SOL    HW1 2537   1.222   2.303   2.191
  843SOL    HW2 2538   1.180   2.461   2.197
  844SOL     OW 2539   0.307   2.075   3.093
  844SOL    HW1 2540   0.284   2.112   3.183
  844SOL    HW2 2541   0.277   1.980   3.087
  845SOL     OW 2542   0.037   3.172   3.144
  845SOL    HW1 2543   0.090   3.123   3.212
  845SOL    HW2 2544   0.059   3.270   3.149
  846SOL     OW 2545   0.732   2.496   2.926
  846SOL    HW1 2546   0.791   2.470   2.850
  846SOL    HW2 2547   0.704   2.592   2.915
  847SOL     OW 2548   1.728   2.797   3.716
  847SOL    HW1 2549   1.682   2.790   3.627
  847SOL    HW2 2550   1.666   2.841   3.782
  848SOL     OW 2551   0.307   1.925   2.480
  848SOL    HW1 2552   0.296   2.019   2.513
  848SOL    HW2 2553   0.302   1.862   2.557
  849SOL     OW 2554   1.622   2.229   2.236
  849SOL    HW1 2555   1.624   2.153   2.300
  849SOL    HW2 2556   1.574   2.306   2.276
  850SOL     OW 2557   1.023   2.628   2.828
  850SOL    HW1 2558   1.038   2.649   2.924
  850SOL    HW2 2559   0.993   2.533   2.819
  851SOL     OW 2560   0.980   3.435   3.562
  851SOL    HW1 2561   0.960   3.479   3.474
  851SOL    HW2 2562   1.019   3.344   3.546
  852SOL     OW 2563   1.859   3.380   3.467
  852SOL    HW1 2564   1.873   3.407   3.372
  852SOL    HW2 2565   1.942   3.402   3.520
  853SOL     OW 2566   0.350   2.760   3.666
  853SOL    HW1 2567   0.426   2.804   3.714
  853SOL    HW2 2568   0.385   2.713   3.584
  854SOL     OW 2569   1.540   2.136   1.987
  854SOL    HW1 2570   1.479   2.061   2.010
  854SOL    HW2 2571   1.562   2.188   2.070
  855SOL     OW 2572   1.303   2.700   1.904
  855SOL    HW1 2573   1.337   2.607   1.919
  855SOL    HW2 2574   1.321   2.727   1.809
  856SOL     OW 2575   1.068   3.195   2.711
  856SOL    HW1 2576   1.075   3.111   2.656
  856SOL    HW2 2577   1.130   3.264   2.675
  857SOL     OW 2578   0.319   2.672   2.811
  857SOL    HW1 2579   0.412   2.708   2.816
  857SOL    HW2 2580   0.313   2.587   2.863
  858SOL     OW 2581   0.339   2.371   2.868
  858SOL    HW1 2582   0.287   2.288   2.851
  858SOL    HW2 2583   0.416   2.376   2.804
  859SOL     OW 2584   1.138   2.242   3.540
  859SOL    HW1 2585   1.093   2.305   3.604
  859SOL    HW2 2586   1.231   2.273   3.523
  860SOL     OW 2587   1.160   2.069   3.339
  860SOL    HW1 2588   1.160   2.133   3.416
  860SOL    HW2 2589   1.188   2.117   3.256
  861SOL     OW 2590   0.008   3.188   2.062
  861SOL    HW1 2591  -0.085   3.209   2.031
  861SOL    HW2 2592   0.018   3.089   2.075
  862SOL     OW 2593   0.088   3.663   2.789
  862SOL    HW1 2594   0.046   3.577   2.762
  862SOL    HW2 2595   0.182   3.666   2.755
  863SOL     OW 2596   0.504   3.430   2.772
  863SOL    HW1 2597   0.570   3.504   2.781
  863SOL    HW2 2598   0.548   3.351   2.730
  864SOL     OW 2599   1.002   2.658   3.100
  864SOL    HW1 2600   1.043   2.626   3.186
  864SOL    HW2 2601   0.906   2.631   3.097
  865SOL     OW 2602   0.040   2.406   2.976
  865SOL    HW1 2603   0.125   2.373   2.935
  865SOL    HW2 2604   0.053   2.421   3.074
  866SOL     OW 2605   0.189   2.382   3.584
  866SOL    HW1 2606   0.248   2.342   3.514
  866SOL    HW2 2607   0.131   2.453   3.543
  867SOL     OW 2608   1.369   2.812   3.522
  867SOL    HW1 2609   1.408   2.901   3.542
  867SOL    HW2 2610   1.379   2.792   3.425
  868SOL     OW 2611   0.815   2.434   2.187
  868SOL    HW1 2612   0.822   2.345   2.141
  868SOL    HW2 2613   0.721   2.468   2.179
  869SOL     OW 2614   1.657   2.466   3.068
  869SOL    HW1 2615   1.619   2.397   3.130
  869SOL    HW2 2616   1.739   2.430   3.024
  870SOL     OW 2617   0.252   3.426   3.606
  870SOL    HW1 2618   0.222   3.483   3.682
  870SOL    HW2 2619   0.245   3.329   3.632
  871SOL     OW 2620   0.671   2.326   3.131
  871SOL    HW1 2621   0.637   2.237   3.101
  871SOL    HW2 2622   0.697   2.380   3.051
  872SOL     OW 2623   0.930   3.540   3.327
  872SOL    HW1 2624   0.906   3.522   3.232
  872SOL    HW2 2625   0.960   3.634   3.337
  873SOL     OW 2626   0.473   2.362   2.053
  873SOL    HW1 2627   0.534   2.442   2.057
  873SOL    HW2 2628   0.378   2.393   2.060
  874SOL     OW 2629   0.159   2.999   3.328
  874SOL    HW1 2630   0.181   2.938   3.404
  874SOL    HW2 2631   0.169   2.950   3.242
  875SOL     OW 2632   1.347   2.921   3.096
  875SOL    HW1 2633   1.371   2.858   3.022
  875SOL    HW2 2634   1.257   2.961   3.078
  876SOL     OW 2635   1.302   2.717   2.171
  876SOL    HW1 2636   1.216   2.686   2.213
  876SOL    HW2 2637   1.298   2.703   2.072
  877SOL     OW 2638   1.759   3.609   3.016
  877SOL    HW1 2639   1.820   3.639   2.943
  877SOL    HW2 2640   1.721   3.520   2.994
  878SOL     OW 2641   1.252   3.593   2.990
  878SOL    HW1 2642   1.336   3.598   2.936
  878SOL    HW2 2643   1.229   3.497   3.008
  879SOL     OW 2644   0.083   3.120   2.884
  879SOL    HW1 2645   0.078   3.119   2.984
  879SOL    HW2 2646   0.000   3.079   2.846
  880SOL     OW 2647   0.688   3.524   3.578
  880SOL    HW1 2648   0.632   3.605   3.587
  880SOL    HW2 2649   0.740   3.528   3.492
  881SOL     OW 2650   1.726   1.997   2.385
  881SOL    HW1 2651   1.799   1.980   2.318
  881SOL    HW2 2652   1.695   1.910   2.423
  882SOL     OW 2653   1.388   3.435   2.339
  882SOL    HW1 2654   1.455   3.447   2.265
  882SOL    HW2 2655   1.348   3.524   2.362
  883SOL     OW 2656   0.130   3.656   3.713
  883SOL    HW1 2657   0.089   3.582   3.766
  883SOL    HW2 2658   0.194   3.707   3.771
  884SOL     OW 2659   1.280   2.789   2.534
  884SOL    HW1 2660   1.340   2.708   2.536
  884SOL    HW2 2661   1.320   2.858   2.474
  885SOL     OW 2662   0.830   3.135   3.284
  885SOL    HW1 2663   0.825   3.168   3.379
  885SOL    HW2 2664   0.744   3.154   3.238
  886SOL     OW 2665   0.672   3.478   2.016
  886SOL    HW1 2666   0.681   3.488   1.917
  886SOL    HW2 2667   0.632   3.389   2.037
  887SOL     OW 2668   1.650   3.582   3.256
  887SOL    HW1 2669   1.703   3.592   3.172
  887SOL    HW2 2670   1.623   3.672   3.290
  888SOL     OW 2671   1.841   2.037   2.825
  888SOL    HW1 2672   1.880   1.952   2.789
  888SOL    HW2 2673   1.743   2.039   2.806
  889SOL     OW 2674   0.263   2.188   2.582
  889SOL    HW1 2675   0.184   2.239   2.548
  889SOL    HW2 2676   0.254   2.173   2.680
  890SOL     OW 2677   1.194   3.474   1.893
  890SOL    HW1 2678   1.200   3.381   1.930
  890SOL    HW2 2679   1.135   3.474   1.813
  891SOL     OW 2680   0.822   2.864   3.234
  891SOL    HW1 2681   0.862   2.863   3.142
  891SOL    HW2 2682   0.832   2.956   3.274
  892SOL     OW 2683   0.916   2.772   2.153
  892SOL    HW1 2684   0.979   2.810   2.085
  892SOL    HW2 2685   0.956   2.689   2.192
  893SOL     OW 2686   1.504   3.469   1.906
  893SOL    HW1 2687   1.412   3.506   1.913
  893SOL    HW2 2688   1.542   3.489   1.816
  894SOL     OW 2689   0.372   3.150   3.352
  894SOL    HW1 2690   0.359   3.243   3.318
  894SOL    HW2 2691   0.288   3.098   3.339
  895SOL     OW 2692   1.614   3.154   3.151
  895SOL    HW1 2693   1.674   3.157   3.231
  895SOL    HW2 2694   1.539   3.218   3.164
  896SOL     OW 2695   1.039   2.960   2.558
  896SOL    HW1 2696   0.969   2.913   2.612
  896SOL    HW2 2697   1.098   2.892   2.515
  897SOL     OW 2698   1.014   2.098   2.833
  897SOL    HW1 2699   1.006   2.062   2.740
  897SOL    HW2 2700   1.012   2.022   2.898
  898SOL     OW 2701   0.590   3.349   2.353
  898SOL    HW1 2702   0.632   3.291   2.283
  898SOL    HW2 2703   0.546   3.428   2.309
  899SOL     OW 2704   1.709   2.247   3.243
  899SOL    HW1 2705   1.782   2.316   3.247
  899SOL    HW2 2706   1.737   2.172   3.184
  900SOL     OW 2707   0.255   3.210   2.152
  900SOL    HW1 2708   0.159   3.211   2.125
  900SOL    HW2 2709   0.267   3.263   2.236
  901SOL     OW 2710   0.105   2.875   3.588
  901SOL    HW1 2711   0.028   2.842   3.642
  901SOL    HW2 2712   0.190   2.845   3.630
  902SOL     OW 2713   0.672   2.065   3.351
  902SOL    HW1 2714   0.762   2.049   3.311
  902SOL    HW2 2715   0.680   2.070   3.450
  903SOL     OW 2716   0.075   2.207   1.895
  903SOL    HW1 2717  -0.017   2.179   1.866
  903SOL    HW2 2718   0.106   2.284   1.839
  904SOL     OW 2719   1.440   2.718   3.260
  904SOL    HW1 2720   1.383   2.770   3.197
  904SOL    HW2 2721   1.536   2.730   3.236
  905SOL     OW 2722   0.072   2.028   2.180
  905SOL    HW1 2723   0.055   2.111   2.126
  905SOL    HW2 2724   0.162   1.991   2.158
  906SOL     OW 2725   1.183   3.197   1.981
  906SOL    HW1 2726   1.084   3.186   1.983
  906SOL    HW2 2727   1.217   3.212   2.074
  907SOL     OW 2728   0.613   2.704   3.293
  907SOL    HW1 2729   0.669   2.785   3.276
  907SOL    HW2 2730   0.672   2.624   3.296
  908SOL     OW 2731   1.493   3.629   2.821
  908SOL    HW1 2732   1.526   3.693   2.752
  908SOL    HW2 2733   1.559   3.623   2.896
  909SOL     OW 2734   0.716   2.427   3.570
  909SOL    HW1 2735   0.735   2.492   3.644
  909SOL    HW2 2736   0.776   2.347   3.579
  910SOL     OW 2737   1.450   3.082   3.495
  910SOL    HW1 2738   1.441   3.072   3.594
  910SOL    HW2 2739   1.546   3.075   3.469
  911SOL     OW 2740   0.390   3.603   3.422
  911SOL    HW1 2741   0.299   3.644   3.420
  911SOL    HW2 2742   0.383   3.509   3.454
  912SOL     OW 2743   1.674   2.745   3.116
  912SOL    HW1 2744   1.647   2.656   3.079
  912SOL    HW2 2745   1.675   2.813   3.043
  913SOL     OW 2746   1.225   2.187   2.311
  913SOL    HW1 2747   1.290   2.113   2.300
  913SOL    HW2 2748   1.245   2.237   2.395
  914SOL     OW 2749   0.594   2.607   2.514
  914SOL    HW1 2750   0.644   2.692   2.495
  914SOL    HW2 2751   0.506   2.609   2.466
  915SOL     OW 2752   1.777   2.204   3.504
  915SOL    HW1 2753   1.760   2.235   3.410
  915SOL    HW2 2754   1.693   2.167   3.542
  916SOL     OW 2755   1.730   2.796   3.379
  916SOL    HW1 2756   1.768   2.887   3.394
  916SOL    HW2 2757   1.722   2.779   3.280
  917SOL     OW 2758   0.859   3.236   1.878
  917SOL    HW1 2759   0.813   3.251   1.966
  917SOL    HW2 2760   0.903   3.321   1.848
  918SOL     OW 2761   0.661   3.652   2.815
  918SOL    HW1 2762   0.615   3.740   2.802
  918SOL    HW2 2763   0.760   3.664   2.808
  919SOL     OW 2764   0.859   2.818   2.723
  919SOL    HW1 2765   0.913   2.749   2.771
  919SOL    HW2 2766   0.827   2.887   2.789
  920SOL     OW 2767   1.083   2.846   1.949
  920SOL    HW1 2768   1.060   2.899   1.867
  920SOL    HW2 2769   1.164   2.790   1.930
  921SOL     OW 2770   1.861   3.431   2.713
  921SOL    HW1 2771   1.790   3.419   2.643
  921SOL    HW2 2772   1.862   3.352   2.773
  922SOL     OW 2773   0.221   3.176   3.706
  922SOL    HW1 2774   0.156   3.103   3.685
  922SOL    HW2 2775   0.225   3.190   3.804
  923SOL     OW 2776   0.079   3.102   2.515
  923SOL    HW1 2777   0.078   3.055   2.603
  923SOL    HW2 2778   0.161   3.074   2.464
  924SOL     OW 2779   0.672   3.253   3.486
  924SOL    HW1 2780   0.594   3.203   3.524
  924SOL    HW2 2781   0.669   3.348   3.517
  925SOL     OW 2782   1.824   2.054   3.089
  925SOL    HW1 2783   1.820   1.964   3.133
  925SOL    HW2 2784   1.827   2.043   2.990
  926SOL     OW 2785   0.428   2.286   2.382
  926SOL    HW1 2786   0.458   2.214   2.320
  926SOL    HW2 2787   0.389   2.246   2.465
  927SOL     OW 2788   1.705   3.349   2.966
  927SOL    HW1 2789   1.612   3.324   2.939
  927SOL    HW2 2790   1.731   3.299   3.048
  928SOL     OW 2791   0.317   2.409   3.142
  928SOL    HW1 2792   0.355   2.350   3.214
  928SOL    HW2 2793   0.357   2.383   3.054
  929SOL     OW 2794   0.812   3.448   2.549
  929SOL    HW1 2795   0.844   3.458   2.455
  929SOL    HW2 2796   0.733   3.386   2.551
  930SOL     OW 2797   1.424   2.076   2.974
  930SOL    HW1 2798   1.476   2.011   3.029
  930SOL    HW2 2799   1.375   2.139   3.035
  931SOL     OW 2800   1.001   1.896   3.016
  931SOL    HW1 2801   0.938   1.824   2.985
  931SOL    HW2 2802   1.094   1.860   3.016
  932SOL     OW 2803   0.770   3.192   2.163
  932SOL    HW1 2804   0.724   3.105   2.180
  932SOL    HW2 2805   0.861   3.189   2.204
  933SOL     OW 2806   0.618   3.429   3.146
  933SOL    HW1 2807   0.613   3.511   3.203
  933SOL    HW2 2808   0.707   3.426   3.101
  934SOL     OW 2809   1.352   1.914   2.030
  934SOL    HW1 2810   1.387   1.873   1.946
  934SOL    HW2 2811   1.262   1.876   2.050
  935SOL     OW 2812   1.300   2.315   2.553
  935SOL    HW1 2813   1.241   2.395   2.557
  935SOL    HW2 2814   1.315   2.280   2.646
  936SOL     OW 2815   1.593   2.083   2.744
  936SOL    HW1 2816   1.509   2.082   2.798
  936SOL    HW2 2817   1.595   2.166   2.688
  937SOL     OW 2818   0.039   2.939   2.162
  937SOL    HW1 2819   0.138   2.928   2.153
  937SOL    HW2 2820  -0.001   2.853   2.194
  938SOL     OW 2821   0.875   3.508   2.199
  938SOL    HW1 2822   0.798   3.473   2.145
  938SOL    HW2 2823   0.843   3.579   2.261
  939SOL     OW 2824   0.230   2.490   3.837
  939SOL    HW1 2825   0.137   2.488   3.874
  939SOL    HW2 2826   0.231   2.451   3.745
  940SOL     OW 2827   0.019   2.230   4.371
  940SOL    HW1 2828  -0.063   2.273   4.410
  940SOL    HW2 2829  -0.009   2.157   4.308
  941SOL     OW 2830   1.755   2.469   3.955
  941SOL    HW1 2831   1.743   2.456   3.856
  941SOL    HW2 2832   1.725   2.388   4.004
  942SOL     OW 2833   0.685   2.874   4.389
  942SOL    HW1 2834   0.754   2.858   4.459
  942SOL    HW2 2835   0.612   2.931   4.427
  943SOL     OW 2836   1.603   2.309   4.461
  943SOL    HW1 2837   1.529   2.355   4.411
  943SOL    HW2 2838   1.654   2.377   4.514
  944SOL     OW 2839   0.231   3.575   4.207
  944SOL    HW1 2840   0.265   3.652   4.261
  944SOL    HW2 2841   0.275   3.575   4.117
  945SOL     OW 2842   0.230   3.296   4.262
  945SOL    HW1 2843   0.204   3.392   4.262
  945SOL    HW2 2844   0.159   3.242   4.307
  946SOL     OW 2845   0.606   2.826   3.847
  946SOL    HW1 2846   0.613   2.910   3.793
  946SOL    HW2 2847   0.652   2.839   3.935
  947SOL     OW 2848   0.122   2.505   4.287
  947SOL    HW1 2849   0.077   2.417   4.304
  947SOL    HW2 2850   0.121   2.559   4.371
  948SOL     OW 2851   1.842   3.629   4.083
  948SOL    HW1 2852   1.896   3.600   4.163
  948SOL    HW2 2853   1.872   3.719   4.054
  949SOL     OW 2854   0.027   3.458   3.841
  949SOL    HW1 2855   0.008   3.362   3.862
  949SOL    HW2 2856  -0.006   3.516   3.916
  950SOL     OW 2857   1.689   2.784   4.336
  950SOL    HW1 2858   1.784   2.755   4.344
  950SOL    HW2 2859   1.681   2.849   4.261
  951SOL     OW 2860   1.641   2.970   4.156
  951SOL    HW1 2861   1.727   2.972   4.104
  951SOL    HW2 2862   1.655   3.017   4.244
  952SOL     OW 2863   0.613   3.227   4.450
  952SOL    HW1 2864   0.564   3.140   4.459
  952SOL    HW2 2865   0.590   3.270   4.363
  953SOL     OW 2866   0.809   1.866   4.226
  953SOL    HW1 2867   0.849   1.957   4.217
  953SOL    HW2 2868   0.709   1.874   4.232
  954SOL     OW 2869   1.525   2.861   3.914
  954SOL    HW1 2870   1.462   2.785   3.927
  954SOL    HW2 2871   1.573   2.879   4.000
  955SOL     OW 2872   1.667   3.576   4.296
  955SOL    HW1 2873   1.626   3.553   4.208
  955SOL    HW2 2874   1.649   3.502   4.361
  956SOL     OW 2875   0.598   2.591   3.994
  956SOL    HW1 2876   0.622   2.660   3.926
  956SOL    HW2 2877   0.520   2.624   4.048
  957SOL     OW 2878   1.281   2.207   4.668
  957SOL    HW1 2879   1.195   2.157   4.655
  957SOL    HW2 2880   1.343   2.153   4.724
  958SOL     OW 2881   1.576   3.524   4.031
  958SOL    HW1 2882   1.665   3.570   4.034
  958SOL    HW2 2883   1.555   3.500   3.936
  959SOL     OW 2884   1.041   2.563   4.153
  959SOL    HW1 2885   1.067   2.559   4.249
  959SOL    HW2 2886   0.956   2.512   4.139
  960SOL     OW 2887   0.076   2.673   4.513
  960SOL    HW1 2888   0.175   2.661   4.522
  960SOL    HW2 2889   0.052   2.768   4.534
  961SOL     OW 2890   0.865   2.210   3.919
  961SOL    HW1 2891   0.924   2.273   3.870
  961SOL    HW2 2892   0.884   2.116   3.890
  962SOL     OW 2893   1.362   3.006   4.269
  962SOL    HW1 2894   1.445   2.977   4.221
  962SOL    HW2 2895   1.313   3.073   4.213
  963SOL     OW 2896   1.008   3.318   4.201
  963SOL    HW1 2897   0.962   3.390   4.149
  963SOL    HW2 2898   1.004   3.338   4.299
  964SOL     OW 2899   0.351   3.663   4.577
  964SOL    HW1 2900   0.401   3.577   4.583
  964SOL    HW2 2901   0.416   3.740   4.574
  965SOL     OW 2902   1.795   2.928   4.597
  965SOL    HW1 2903   1.733   2.913   4.521
  965SOL    HW2 2904   1.743   2.939   4.682
  966SOL     OW 2905   0.321   2.805   3.966
  966SOL    HW1 2906   0.403   2.844   3.924
  966SOL    HW2 2907   0.294   2.723   3.917
  967SOL     OW 2908   1.111   3.638   3.961
  967SOL    HW1 2909   1.051   3.576   4.011
  967SOL    HW2 2910   1.142   3.594   3.876
  968SOL     OW 2911   1.632   3.239   3.805
  968SOL    HW1 2912   1.600   3.333   3.795
  968SOL    HW2 2913   1.556   3.176   3.793
  969SOL     OW 2914   0.464   3.605   4.047
  969SOL    HW1 2915   0.497   3.644   4.133
  969SOL    HW2 2916   0.540   3.598   3.982
  970SOL     OW 2917   1.400   1.969   4.150
  970SOL    HW1 2918   1.376   1.932   4.060
  970SOL    HW2 2919   1.499   1.985   4.154
  971SOL     OW 2920   0.940   3.560   4.628
  971SOL    HW1 2921   1.020   3.503   4.649
  971SOL    HW2 2922   0.891   3.520   4.551
  972SOL     OW 2923   0.382   2.562   4.204
  972SOL    HW1 2924   0.427   2.472   4.201
  972SOL    HW2 2925   0.288   2.551   4.237
  973SOL     OW 2926   0.614   1.984   3.841
  973SOL    HW1 2927   0.712   1.962   3.848
  973SOL    HW2 2928   0.583   1.967   3.748
  974SOL     OW 2929   0.539   1.926   4.236
  974SOL    HW1 2930   0.458   1.927   4.294
  974SOL    HW2 2931   0.542   2.009   4.181
  975SOL     OW 2932   1.434   3.050   3.765
  975SOL    HW1 2933   1.466   2.974   3.822
  975SOL    HW2 2934   1.342   3.077   3.795
  976SOL     OW 2935   0.297   1.897   3.895
  976SOL    HW1 2936   0.346   1.981   3.874
  976SOL    HW2 2937   0.359   1.832   3.940
  977SOL     OW 2938   0.935   2.098   4.204
  977SOL    HW1 2939   0.887   2.139   4.126
  977SOL    HW2 2940   1.034   2.096   4.185
  978SOL     OW 2941   0.459   3.014   4.465
  978SOL    HW1 2942   0.388   2.987   4.530
  978SOL    HW2 2943   0.433   2.986   4.372
  979SOL     OW 2944   1.271   3.659   4.315
  979SOL    HW1 2945   1.315   3.723   4.251
  979SOL    HW2 2946   1.221   3.711   4.385
  980SOL     OW 2947   1.032   2.411   3.740
  980SOL    HW1 2948   0.991   2.493   3.701
  980SOL    HW2 2949   1.096   2.437   3.813
  981SOL     OW 2950   0.866   2.316   4.366
  981SOL    HW1 2951   0.834   2.388   4.304
  981SOL    HW2 2952   0.890   2.235   4.313
  982SOL     OW 2953   1.857   2.695   4.101
  982SOL    HW1 2954   1.899   2.631   4.165
  982SOL    HW2 2955   1.819   2.644   4.023
  983SOL     OW 2956   0.488   3.247   3.898
  983SOL    HW1 2957   0.401   3.232   3.945
  983SOL    HW2 2958   0.471   3.273   3.803
  984SOL     OW 2959   1.664   3.142   4.381
  984SOL    HW1 2960   1.763   3.150   4.395
  984SOL    HW2 2961   1.619   3.226   4.412
  985SOL     OW 2962   1.390   2.437   3.802
  985SOL    HW1 2963   1.336   2.416   3.883
  985SOL    HW2 2964   1.481   2.396   3.811
  986SOL     OW 2965   0.527   2.118   4.052
  986SOL    HW1 2966   0.554   2.059   3.977
  986SOL    HW2 2967   0.527   2.213   4.021
  987SOL     OW 2968   0.705   2.912   4.092
  987SOL    HW1 2969   0.691   2.919   4.191
  987SOL    HW2 2970   0.789   2.861   4.074
  988SOL     OW 2971   0.367   2.962   4.225
  988SOL    HW1 2972   0.360   3.045   4.169
  988SOL    HW2 2973   0.371   2.882   4.165
  989SOL     OW 2974   1.252   3.210   4.112
  989SOL    HW1 2975   1.302   3.287   4.152
  989SOL    HW2 2976   1.157   3.212   4.144
  990SOL     OW 2977   1.582   2.501   4.196
  990SOL    HW1 2978   1.551   2.562   4.269
  990SOL    HW2 2979   1.632   2.553   4.127
  991SOL     OW 2980   1.209   2.387   3.999
  991SOL    HW1 2981   1.222   2.303   4.053
  991SOL    HW2 2982   1.180   2.461   4.059
  992SOL     OW 2983   0.307   1.925   4.342
  992SOL    HW1 2984   0.296   2.019   4.375
  992SOL    HW2 2985   0.302   1.862   4.419
  993SOL     OW 2986   1.622   2.229   4.098
  993SOL    HW1 2987   1.624   2.153   4.162
  993SOL    HW2 2988   1.574   2.306   4.138
  994SOL     OW 2989   1.540   2.136   3.849
  994SOL    HW1 2990   1.479   2.061   3.872
  994SOL    HW2 2991   1.562   2.188   3.932
  995SOL     OW 2992   1.303   2.700   3.766
  995SOL    HW1 2993   1.337   2.607   3.781
  995SOL    HW2 2994   1.321   2.727   3.671
  996SOL     OW 2995   0.008   3.188   3.924
  996SOL    HW1 2996  -0.085   3.209   3.893
  996SOL    HW2 2997   0.018   3.089   3.937
  997SOL     OW 2998   0.040   2.406   4.838
  997SOL    HW1 2999   0.125   2.373   4.797
  997SOL    HW2 3000   0.053   2.421   4.936
  998SOL     OW 3001   0.815   2.434   4.049
  998SOL    HW1 3002   0.822   2.345   4.003
  998SOL    HW2 3003   0.721   2.468   4.041
  999SOL     OW 3004   0.473   2.362   3.915
  999SOL    HW1 3005   0.534   2.442   3.919
  999SOL    HW2 3006   0.378   2.393   3.922
 1000SOL     OW 3007   1.302   2.717   4.033
 1000SOL    HW1 3008   1.216   2.686   4.075
 1000SOL    HW2 3009   1.298   2.703   3.934
 1001SOL     OW 3010   1.726   1.997   4.247
 1001SOL    HW1 3011   1.799   1.980   4.180
 1001SOL    HW2 3012   1.695   1.910   4.285
 1002SOL     OW 3013   1.388   3.435   4.201
 1002SOL    HW1 3014   1.455   3.447   4.127
 1002SOL    HW2 3015   1.348   3.524   4.224
 1003SOL     OW 3016   0.672   3.478   3.878
 1003SOL    HW1 3017   0.681   3.488   3.779
 1003SOL    HW2 3018   0.632   3.389   3.899
 1004SOL     OW 3019   1.841   2.037   4.687
 1004SOL    HW1 3020   1.880   1.952   4.651
 1004SOL    HW2 3021   1.743   2.039   4.668
 1005SOL     OW 3022   0.263   2.188   4.444
 1005SOL    HW1 3023   0.184   2.239   4.410
 1005SOL    HW2 3024   0.254   2.173   4.542
 1006SOL     OW 3025   1.194   3.474   3.755
 1006SOL    HW1 3026   1.200   3.381   3.792
 1006SOL    HW2 3027   1.135   3.474   3.675
 1007SOL     OW 3028   0.916   2.772   4.015
 1007SOL    HW1 3029   0.979   2.810   3.947
 1007SOL    HW2 3030   0.956   2.689   4.054
 1008SOL     OW 3031   1.504   3.469   3.768
 1008SOL    HW1 3032   1.412   3.506   3.775
 1008SOL    HW2 3033   1.542   3.489   3.678
 1009SOL     OW 3034   0.590   3.349   4.215
 1009SOL    HW1 3035   0.632   3.291   4.145
 1009SOL    HW2 3036   0.546   3.428   4.171
 1010SOL     OW 3037   0.255   3.210   4.014
 1010SOL    HW1 3038   0.159   3.211   3.987
 1010SOL    HW2 3039   0.267   3.263   4.098
 1011SOL     OW 3040   0.075   2.207   3.757
 1011SOL    HW1 3041  -0.017   2.179   3.728
 1011SOL    HW2 3042   0.106   2.284   3.701
 1012SOL     OW 3043   0.072   2.028   4.042
 1012SOL    HW1 3044   0.055   2.111   3.988
 1012SOL    HW2 3045   0.162   1.991   4.020
 1013SOL     OW 3046   1.183   3.197   3.843
 1013SOL    HW1 3047   1.084   3.186   3.845
 1013SOL    HW2 3048   1.217   3.212   3.936
 1014SOL     OW 3049   1.225   2.187   4.173
 1014SOL    HW1 3050   1.290   2.113   4.162
 1014SOL    HW2 3051   1.245   2.237   4.257
 1015SOL     OW 3052   0.594   2.607   4.376
 1015SOL    HW1 3053   0.644   2.692   4.357
 1015SOL    HW2 3054   0.506   2.609   4.328
 1016SOL     OW 3055   0.859   3.236   3.740
 1016SOL    HW1 3056   0.813   3.251   3.828
 1016SOL    HW2 3057   0.903   3.321   3.710
 1017SOL     OW 3058   0.661   3.652   4.677
 1017SOL    HW1 3059   0.615   3.740   4.664
 1017SOL    HW2 3060   0.760   3.664   4.670
 1018SOL     OW 3061   0.859   2.818   4.585
 1018SOL    HW1 3062   0.913   2.749   4.633
 1018SOL    HW2 3063   0.827   2.887   4.651
 1019SOL     OW 3064   1.083   2.846   3.811
 1019SOL    HW1 3065   1.060   2.899   3.729
 1019SOL    HW2 3066   1.164   2.790   3.792
 1020SOL     OW 3067   0.079   3.102   4.377
 1020SOL    HW1 3068   0.078   3.055   4.465
 1020SOL    HW2 3069   0.161   3.074   4.326
 1021SOL     OW 3070   0.428   2.286   4.244
 1021SOL    HW1 3071   0.458   2.214   4.182
 1021SOL    HW2 3072   0.389   2.246   4.327
 1022SOL     OW 3073   0.812   3.448   4.411
 1022SOL    HW1 3074   0.844   3.458   4.317
 1022SOL    HW2 3075   0.733   3.386   4.413
 1023SOL     OW 3076   0.770   3.192   4.025
 1023SOL    HW1 3077   0.724   3.105   4.042
 1023SOL    HW2 3078   0.861   3.189   4.066
 1024SOL     OW 3079   1.352   1.914   3.892
 1024SOL    HW1 3080   1.387   1.873   3.808
 1024SOL    HW2 3081   1.262   1.876   3.912
 1025SOL     OW 3082   1.300   2.315   4.415
 1025SOL    HW1 3083   1.241   2.395   4.419
 1025SOL    HW2 3084   1.315   2.280   4.508
 1026SOL     OW 3085   0.039   2.939   4.024
 1026SOL    HW1 3086   0.138   2.928   4.015
 1026SOL    HW2 3087  -0.001   2.853   4.056
 1027SOL     OW 3088   0.875   3.508   4.061
 1027SOL    HW1 3089   0.798   3.473   4.007
 1027SOL    HW2 3090   0.843   3.579   4.123
 1028SOL     OW 3091   0.230   4.352   0.113
 1028SOL    HW1 3092   0.137   4.350   0.150
 1028SOL    HW2 3093   0.231   4.313   0.021
 1029SOL     OW 3094   0.225   3.999   0.996
 1029SOL    HW1 3095   0.260   3.982   1.088
 1029SOL    HW2 3096   0.137   3.954   0.984
 1030SOL     OW 3097   0.019   4.092   0.647
 1030SOL    HW1 3098  -0.063   4.135   0.686
 1030SOL    HW2 3099  -0.009   4.019   0.584
 1031SOL     OW 3100   1.755   4.331   0.231
 1031SOL    HW1 3101   1.743   4.318   0.132
 1031SOL    HW2 3102   1.725   4.250   0.280
 1032SOL     OW 3103   0.850   4.522   1.823
 1032SOL    HW1 3104   0.846   4.598   1.888
 1032SOL    HW2 3105   0.872   4.558   1.732
 1033SOL     OW 3106   0.685   4.736   0.665
 1033SOL    HW1 3107   0.754   4.720   0.735
 1033SOL    HW2 3108   0.612   4.793   0.703
 1034SOL     OW 3109   0.438   4.116   1.499
 1034SOL    HW1 3110   0.520   4.060   1.508
 1034SOL    HW2 3111   0.357   4.058   1.503
 1035SOL     OW 3112   1.603   4.171   0.737
 1035SOL    HW1 3113   1.529   4.217   0.687
 1035SOL    HW2 3114   1.654   4.239   0.790
 1036SOL     OW 3115   1.594   3.838   1.480
 1036SOL    HW1 3116   1.576   3.905   1.408
 1036SOL    HW2 3117   1.591   3.884   1.569
 1037SOL     OW 3118   0.122   4.367   0.563
 1037SOL    HW1 3119   0.077   4.279   0.580
 1037SOL    HW2 3120   0.121   4.421   0.647
 1038SOL     OW 3121   0.113   4.461   1.597
 1038SOL    HW1 3122   0.201   4.448   1.642
 1038SOL    HW2 3123   0.100   4.558   1.575
 1039SOL     OW 3124   0.809   3.728   0.502
 1039SOL    HW1 3125   0.849   3.819   0.493
 1039SOL    HW2 3126   0.709   3.736   0.508
 1040SOL     OW 3127   0.317   3.975   1.801
 1040SOL    HW1 3128   0.388   4.046   1.807
 1040SOL    HW2 3129   0.229   4.014   1.829
 1041SOL     OW 3130   0.598   4.453   0.270
 1041SOL    HW1 3131   0.622   4.522   0.202
 1041SOL    HW2 3132   0.520   4.486   0.324
 1042SOL     OW 3133   1.281   4.069   0.944
 1042SOL    HW1 3134   1.195   4.019   0.931
 1042SOL    HW2 3135   1.343   4.015   1.000
 1043SOL     OW 3136   0.807   4.329   1.465
 1043SOL    HW1 3137   0.760   4.326   1.554
 1043SOL    HW2 3138   0.756   4.274   1.399
 1044SOL     OW 3139   1.394   4.193   1.674
 1044SOL    HW1 3140   1.374   4.236   1.762
 1044SOL    HW2 3141   1.472   4.131   1.683
 1045SOL     OW 3142   0.991   4.134   1.242
 1045SOL    HW1 3143   0.914   4.168   1.296
 1045SOL    HW2 3144   0.957   4.083   1.163
 1046SOL     OW 3145   1.041   4.425   0.429
 1046SOL    HW1 3146   1.067   4.421   0.525
 1046SOL    HW2 3147   0.956   4.374   0.415
 1047SOL     OW 3148   0.076   4.535   0.789
 1047SOL    HW1 3149   0.175   4.523   0.798
 1047SOL    HW2 3150   0.052   4.630   0.810
 1048SOL     OW 3151   0.865   4.072   0.195
 1048SOL    HW1 3152   0.924   4.135   0.146
 1048SOL    HW2 3153   0.884   3.978   0.166
 1049SOL     OW 3154   1.719   4.309   1.831
 1049SOL    HW1 3155   1.693   4.398   1.795
 1049SOL    HW2 3156   1.717   4.241   1.758
 1050SOL     OW 3157   0.550   3.920   0.885
 1050SOL    HW1 3158   0.545   3.915   0.985
 1050SOL    HW2 3159   0.552   4.016   0.856
 1051SOL     OW 3160   1.458   4.459   0.728
 1051SOL    HW1 3161   1.453   4.394   0.803
 1051SOL    HW2 3162   1.538   4.518   0.741
 1052SOL     OW 3163   0.202   4.009   1.498
 1052SOL    HW1 3164   0.122   4.069   1.485
 1052SOL    HW2 3165   0.192   3.960   1.584
 1053SOL     OW 3166   1.400   3.831   0.426
 1053SOL    HW1 3167   1.376   3.794   0.336
 1053SOL    HW2 3168   1.499   3.847   0.430
 1054SOL     OW 3169   0.382   4.424   0.480
 1054SOL    HW1 3170   0.427   4.334   0.477
 1054SOL    HW2 3171   0.288   4.413   0.513
 1055SOL     OW 3172   1.547   3.946   1.729
 1055SOL    HW1 3173   1.542   3.983   1.821
 1055SOL    HW2 3174   1.475   3.877   1.717
 1056SOL     OW 3175   0.781   3.988   1.749
 1056SOL    HW1 3176   0.848   3.927   1.792
 1056SOL    HW2 3177   0.708   4.007   1.814
 1057SOL     OW 3178   1.351   4.314   1.433
 1057SOL    HW1 3179   1.379   4.271   1.518
 1057SOL    HW2 3180   1.376   4.410   1.434
 1058SOL     OW 3181   0.922   4.227   0.899
 1058SOL    HW1 3182   0.897   4.218   0.803
 1058SOL    HW2 3183   0.970   4.145   0.930
 1059SOL     OW 3184   0.539   3.788   0.512
 1059SOL    HW1 3185   0.458   3.789   0.570
 1059SOL    HW2 3186   0.542   3.871   0.457
 1060SOL     OW 3187   0.935   3.960   0.480
 1060SOL    HW1 3188   0.887   4.001   0.402
 1060SOL    HW2 3189   1.034   3.958   0.461
 1061SOL     OW 3190   1.076   4.407   1.464
 1061SOL    HW1 3191   0.996   4.346   1.467
 1061SOL    HW2 3192   1.157   4.354   1.440
 1062SOL     OW 3193   1.032   4.273   0.016
 1062SOL    HW1 3194   0.991   4.355  -0.023
 1062SOL    HW2 3195   1.096   4.299   0.089
 1063SOL     OW 3196   0.078   4.280   1.386
 1063SOL    HW1 3197   0.170   4.279   1.345
 1063SOL    HW2 3198   0.072   4.354   1.453
 1064SOL     OW 3199   0.561   3.946   1.147
 1064SOL    HW1 3200   0.599   3.862   1.184
 1064SOL    HW2 3201   0.473   3.965   1.191
 1065SOL     OW 3202   0.866   4.178   0.642
 1065SOL    HW1 3203   0.834   4.250   0.580
 1065SOL    HW2 3204   0.890   4.097   0.589
 1066SOL     OW 3205   1.017   3.763   0.753
 1066SOL    HW1 3206   0.945   3.768   0.684
 1066SOL    HW2 3207   0.993   3.694   0.822
 1067SOL     OW 3208   1.466   4.314   0.992
 1067SOL    HW1 3209   1.436   4.219   0.999
 1067SOL    HW2 3210   1.539   4.330   1.058
 1068SOL     OW 3211   1.390   4.299   0.078
 1068SOL    HW1 3212   1.336   4.278   0.159
 1068SOL    HW2 3213   1.481   4.258   0.087
 1069SOL     OW 3214   0.527   3.980   0.328
 1069SOL    HW1 3215   0.554   3.921   0.253
 1069SOL    HW2 3216   0.527   4.075   0.297
 1070SOL     OW 3217   0.915   3.813   1.402
 1070SOL    HW1 3218   0.940   3.793   1.307
 1070SOL    HW2 3219   0.987   3.869   1.444
 1071SOL     OW 3220   0.705   4.774   0.368
 1071SOL    HW1 3221   0.691   4.781   0.467
 1071SOL    HW2 3222   0.789   4.723   0.350
 1072SOL     OW 3223   0.410   4.537   1.251
 1072SOL    HW1 3224   0.496   4.549   1.301
 1072SOL    HW2 3225   0.368   4.450   1.278
 1073SOL     OW 3226   1.274   4.110   1.262
 1073SOL    HW1 3227   1.295   4.184   1.326
 1073SOL    HW2 3228   1.185   4.127   1.219
 1074SOL     OW 3229   0.566   4.261   0.865
 1074SOL    HW1 3230   0.578   4.327   0.791
 1074SOL    HW2 3231   0.612   4.295   0.948
 1075SOL     OW 3232   1.582   4.363   0.472
 1075SOL    HW1 3233   1.551   4.424   0.545
 1075SOL    HW2 3234   1.632   4.415   0.403
 1076SOL     OW 3235   1.587   4.503   1.670
 1076SOL    HW1 3236   1.495   4.541   1.665
 1076SOL    HW2 3237   1.647   4.550   1.605
 1077SOL     OW 3238   1.013   3.829   1.770
 1077SOL    HW1 3239   1.019   3.914   1.718
 1077SOL    HW2 3240   1.045   3.753   1.713
 1078SOL     OW 3241   0.504   3.774   1.740
 1078SOL    HW1 3242   0.462   3.717   1.670
 1078SOL    HW2 3243   0.438   3.843   1.772
 1079SOL     OW 3244   1.360   4.586   1.045
 1079SOL    HW1 3245   1.285   4.586   0.979
 1079SOL    HW2 3246   1.397   4.494   1.054
 1080SOL     OW 3247   1.209   4.249   0.275
 1080SOL    HW1 3248   1.222   4.165   0.329
 1080SOL    HW2 3249   1.180   4.323   0.335
 1081SOL     OW 3250   0.307   3.937   1.231
 1081SOL    HW1 3251   0.284   3.974   1.321
 1081SOL    HW2 3252   0.277   3.842   1.225
 1082SOL     OW 3253   0.732   4.358   1.064
 1082SOL    HW1 3254   0.791   4.332   0.988
 1082SOL    HW2 3255   0.704   4.454   1.053
 1083SOL     OW 3256   1.728   4.659   1.854
 1083SOL    HW1 3257   1.682   4.652   1.765
 1083SOL    HW2 3258   1.666   4.703   1.920
 1084SOL     OW 3259   0.307   3.787   0.618
 1084SOL    HW1 3260   0.296   3.881   0.651
 1084SOL    HW2 3261   0.302   3.724   0.695
 1085SOL     OW 3262   1.622   4.091   0.374
 1085SOL    HW1 3263   1.624   4.015   0.438
 1085SOL    HW2 3264   1.574   4.168   0.414
 1086SOL     OW 3265   1.540   3.998   0.125
 1086SOL    HW1 3266   1.479   3.923   0.148
 1086SOL    HW2 3267   1.562   4.050   0.208
 1087SOL     OW 3268   0.319   4.534   0.949
 1087SOL    HW1 3269   0.412   4.570   0.954
 1087SOL    HW2 3270   0.313   4.449   1.001
 1088SOL     OW 3271   0.339   4.233   1.006
 1088SOL    HW1 3272   0.287   4.150   0.989
 1088SOL    HW2 3273   0.416   4.238   0.942
 1089SOL     OW 3274   1.138   4.104   1.678
 1089SOL    HW1 3275   1.093   4.167   1.742
 1089SOL    HW2 3276   1.231   4.135   1.661
 1090SOL     OW 3277   1.160   3.931   1.477
 1090SOL    HW1 3278   1.160   3.995   1.554
 1090SOL    HW2 3279   1.188   3.979   1.394
 1091SOL     OW 3280   0.040   4.268   1.114
 1091SOL    HW1 3281   0.125   4.235   1.073
 1091SOL    HW2 3282   0.053   4.283   1.212
 1092SOL     OW 3283   0.189   4.244   1.722
 1092SOL    HW1 3284   0.248   4.204   1.652
 1092SOL    HW2 3285   0.131   4.315   1.681
 1093SOL     OW 3286   0.815   4.296   0.325
 1093SOL    HW1 3287   0.822   4.207   0.279
 1093SOL    HW2 3288   0.721   4.330   0.317
 1094SOL     OW 3289   1.657   4.328   1.206
 1094SOL    HW1 3290   1.619   4.259   1.268
 1094SOL    HW2 3291   1.739   4.292   1.162
 1095SOL     OW 3292   0.671   4.188   1.269
 1095SOL    HW1 3293   0.637   4.099   1.239
 1095SOL    HW2 3294   0.697   4.242   1.189
 1096SOL     OW 3295   0.473   4.224   0.191
 1096SOL    HW1 3296   0.534   4.304   0.195
 1096SOL    HW2 3297   0.378   4.255   0.198
 1097SOL     OW 3298   0.903   3.810   0.133
 1097SOL    HW1 3299   0.954   3.811   0.047
 1097SOL    HW2 3300   0.959   3.768   0.204
 1098SOL     OW 3301   1.726   3.859   0.523
 1098SOL    HW1 3302   1.799   3.842   0.456
 1098SOL    HW2 3303   1.695   3.772   0.561
 1099SOL     OW 3304   1.280   4.651   0.672
 1099SOL    HW1 3305   1.340   4.570   0.674
 1099SOL    HW2 3306   1.320   4.720   0.612
 1100SOL     OW 3307   1.841   3.899   0.963
 1100SOL    HW1 3308   1.880   3.814   0.927
 1100SOL    HW2 3309   1.743   3.901   0.944
 1101SOL     OW 3310   0.263   4.050   0.720
 1101SOL    HW1 3311   0.184   4.101   0.686
 1101SOL    HW2 3312   0.254   4.035   0.818
 1102SOL     OW 3313   1.039   4.822   0.696
 1102SOL    HW1 3314   0.969   4.775   0.750
 1102SOL    HW2 3315   1.098   4.754   0.653
 1103SOL     OW 3316   1.014   3.960   0.971
 1103SOL    HW1 3317   1.006   3.924   0.878
 1103SOL    HW2 3318   1.012   3.884   1.036
 1104SOL     OW 3319   1.709   4.109   1.381
 1104SOL    HW1 3320   1.782   4.178   1.385
 1104SOL    HW2 3321   1.737   4.034   1.322
 1105SOL     OW 3322   0.672   3.927   1.489
 1105SOL    HW1 3323   0.762   3.911   1.449
 1105SOL    HW2 3324   0.680   3.932   1.588
 1106SOL     OW 3325   0.075   4.069   0.033
 1106SOL    HW1 3326  -0.017   4.041   0.004
 1106SOL    HW2 3327   0.106   4.146  -0.023
 1107SOL     OW 3328   0.072   3.890   0.318
 1107SOL    HW1 3329   0.055   3.973   0.264
 1107SOL    HW2 3330   0.162   3.853   0.296
 1108SOL     OW 3331   0.716   4.289   1.708
 1108SOL    HW1 3332   0.735   4.354   1.782
 1108SOL    HW2 3333   0.776   4.209   1.717
 1109SOL     OW 3334   1.225   4.049   0.449
 1109SOL    HW1 3335   1.290   3.975   0.438
 1109SOL    HW2 3336   1.245   4.099   0.533
 1110SOL     OW 3337   0.594   4.469   0.652
 1110SOL    HW1 3338   0.644   4.554   0.633
 1110SOL    HW2 3339   0.506   4.471   0.604
 1111SOL     OW 3340   1.777   4.066   1.642
 1111SOL    HW1 3341   1.760   4.097   1.548
 1111SOL    HW2 3342   1.693   4.029   1.680
 1112SOL     OW 3343   0.859   4.680   0.861
 1112SOL    HW1 3344   0.913   4.611   0.909
 1112SOL    HW2 3345   0.827   4.749   0.927
 1113SOL     OW 3346   1.083   4.708   0.087
 1113SOL    HW1 3347   1.060   4.761   0.005
 1113SOL    HW2 3348   1.164   4.652   0.068
 1114SOL     OW 3349   1.824   3.916   1.227
 1114SOL    HW1 3350   1.820   3.826   1.271
 1114SOL    HW2 3351   1.827   3.905   1.128
 1115SOL     OW 3352   0.428   4.148   0.520
 1115SOL    HW1 3353   0.458   4.076   0.458
 1115SOL    HW2 3354   0.389   4.108   0.603
 1116SOL     OW 3355   0.317   4.271   1.280
 1116SOL    HW1 3356   0.355   4.212   1.352
 1116SOL    HW2 3357   0.357   4.245   1.192
 1117SOL     OW 3358   1.424   3.938   1.112
 1117SOL    HW1 3359   1.476   3.873   1.167
 1117SOL    HW2 3360   1.375   4.001   1.173
 1118SOL     OW 3361   1.001   3.758   1.154
 1118SOL    HW1 3362   0.938   3.686   1.123
 1118SOL    HW2 3363   1.094   3.722   1.154
 1119SOL     OW 3364   1.352   3.776   0.168
 1119SOL    HW1 3365   1.387   3.735   0.084
 1119SOL    HW2 3366   1.262   3.738   0.188
 1120SOL     OW 3367   1.300   4.177   0.691
 1120SOL    HW1 3368   1.241   4.257   0.695
 1120SOL    HW2 3369   1.315   4.142   0.784
 1121SOL     OW 3370   1.593   3.945   0.882
 1121SOL    HW1 3371   1.509   3.944   0.936
 1121SOL    HW2 3372   1.595   4.028   0.826
 1122SOL     OW 3373   0.230   4.352   1.975
 1122SOL    HW1 3374   0.137   4.350   2.012
 1122SOL    HW2 3375   0.231   4.313   1.883
 1123SOL     OW 3376   0.225   3.999   2.858
 1123SOL    HW1 3377   0.260   3.982   2.950
 1123SOL    HW2 3378   0.137   3.954   2.846
 1124SOL     OW 3379   0.019   4.092   2.509
 1124SOL    HW1 3380  -0.063   4.135   2.548
 1124SOL    HW2 3381  -0.009   4.019   2.446
 1125SOL     OW 3382   1.755   4.331   2.093
 1125SOL    HW1 3383   1.743   4.318   1.994
 1125SOL    HW2 3384   1.725   4.250   2.142
 1126SOL     OW 3385   0.850   4.522   3.685
 1126SOL    HW1 3386   0.846   4.598   3.750
 1126SOL    HW2 3387   0.872   4.558   3.594
 1127SOL     OW 3388   0.685   4.736   2.527
 1127SOL    HW1 3389   0.754   4.720   2.597
 1127SOL    HW2 3390   0.612   4.793   2.565
 1128SOL     OW 3391   0.438   4.116   3.361
 1128SOL    HW1 3392   0.520   4.060   3.370
 1128SOL    HW2 3393   0.357   4.058   3.365
 1129SOL     OW 3394   1.603   4.171   2.599
 1129SOL    HW1 3395   1.529   4.217   2.549
 1129SOL    HW2 3396   1.654   4.239   2.652
 1130SOL     OW 3397   1.594   3.838   3.342
 1130SOL    HW1 3398   1.576   3.905   3.270
 1130SOL    HW2 3399   1.591   3.884   3.431
 1131SOL     OW 3400   0.122   4.367   2.425
 1131SOL    HW1 3401   0.077   4.279   2.442
 1131SOL    HW2 3402   0.121   4.421   2.509
 1132SOL     OW 3403   0.113   4.461   3.459
 1132SOL    HW1 3404   0.201   4.448   3.504
 1132SOL    HW2 3405   0.100   4.558   3.437
 1133SOL     OW 3406   0.809   3.728   2.364
 1133SOL    HW1 3407   0.849   3.819   2.355
 1133SOL    HW2 3408   0.709   3.736   2.370
 1134SOL     OW 3409   0.317   3.975   3.663
 1134SOL    HW1 3410   0.388   4.046   3.669
 1134SOL    HW2 3411   0.229   4.014   3.691
 1135SOL     OW 3412   0.598   4.453   2.132
 1135SOL    HW1 3413   0.622   4.522   2.064
 1135SOL    HW2 3414   0.520   4.486   2.186
 1136SOL     OW 3415   1.281   4.069   2.806
 1136SOL    HW1 3416   1.195   4.019   2.793
 1136SOL    HW2 3417   1.343   4.015   2.862
 1137SOL     OW 3418   0.807   4.329   3.327
 1137SOL    HW1 3419   0.760   4.326   3.416
 1137SOL    HW2 3420   0.756   4.274   3.261
 1138SOL     OW 3421   1.394   4.193   3.536
 1138SOL    HW1 3422   1.374   4.236   3.624
 1138SOL    HW2 3423   1.472   4.131   3.545
 1139SOL     OW 3424   0.991   4.134   3.104
 1139SOL    HW1 3425   0.914   4.168   3.158
 1139SOL    HW2 3426   0.957   4.083   3.025
 1140SOL     OW 3427   1.041   4.425   2.291
 1140SOL    HW1 3428   1.067   4.421   2.387
 1140SOL    HW2 3429   0.956   4.374   2.277
 1141SOL     OW 3430   0.076   4.535   2.651
 1141SOL    HW1 3431   0.175   4.523   2.660
 1141SOL    HW2 3432   0.052   4.630   2.672
 1142SOL     OW 3433   0.865   4.072   2.057
 1142SOL    HW1 3434   0.924   4.135   2.008
 1142SOL    HW2 3435   0.884   3.978   2.028
 1143SOL     OW 3436   1.719   4.309   3.693
 1143SOL    HW1 3437   1.693   4.398   3.657
 1143SOL    HW2 3438   1.717   4.241   3.620
 1144SOL     OW 3439   0.550   3.920   2.747
 1144SOL    HW1 3440   0.545   3.915   2.847
 1144SOL    HW2 3441   0.552   4.016   2.718
 1145SOL     OW 3442   1.458   4.459   2.590
 1145SOL    HW1 3443   1.453   4.394   2.665
 1145SOL    HW2 3444   1.538   4.518   2.603
 1146SOL     OW 3445   0.202   4.009   3.360
 1146SOL    HW1 3446   0.122   4.069   3.347
 1146SOL    HW2 3447   0.192   3.960   3.446
 1147SOL     OW 3448   1.400   3.831   2.288
 1147SOL    HW1 3449   1.376   3.794   2.198
 1147SOL    HW2 3450   1.499   3.847   2.292
 1148SOL     OW 3451   0.382   4.424   2.342
 1148SOL    HW1 3452   0.427   4.334   2.339
 1148SOL    HW2 3453   0.288   4.413   2.375
 1149SOL     OW 3454   1.547   3.946   3.591
 1149SOL    HW1 3455   1.542   3.983   3.683
 1149SOL    HW2 3456   1.475   3.877   3.579
 1150SOL     OW 3457   0.614   3.846   1.979
 1150SOL    HW1 3458   0.712   3.824   1.986
 1150SOL    HW2 3459   0.583   3.829   1.886
 1151SOL     OW 3460   0.781   3.988   3.611
 1151SOL    HW1 3461   0.848   3.927   3.654
 1151SOL    HW2 3462   0.708   4.007   3.676
 1152SOL     OW 3463   1.351   4.314   3.295
 1152SOL    HW1 3464   1.379   4.271   3.380
 1152SOL    HW2 3465   1.376   4.410   3.296
 1153SOL     OW 3466   0.922   4.227   2.761
 1153SOL    HW1 3467   0.897   4.218   2.665
 1153SOL    HW2 3468   0.970   4.145   2.792
 1154SOL     OW 3469   0.539   3.788   2.374
 1154SOL    HW1 3470   0.458   3.789   2.432
 1154SOL    HW2 3471   0.542   3.871   2.319
 1155SOL     OW 3472   0.297   3.759   2.033
 1155SOL    HW1 3473   0.346   3.843   2.012
 1155SOL    HW2 3474   0.359   3.694   2.078
 1156SOL     OW 3475   0.935   3.960   2.342
 1156SOL    HW1 3476   0.887   4.001   2.264
 1156SOL    HW2 3477   1.034   3.958   2.323
 1157SOL     OW 3478   1.076   4.407   3.326
 1157SOL    HW1 3479   0.996   4.346   3.329
 1157SOL    HW2 3480   1.157   4.354   3.302
 1158SOL     OW 3481   1.032   4.273   1.878
 1158SOL    HW1 3482   0.991   4.355   1.839
 1158SOL    HW2 3483   1.096   4.299   1.951
 1159SOL     OW 3484   0.078   4.280   3.248
 1159SOL    HW1 3485   0.170   4.279   3.207
 1159SOL    HW2 3486   0.072   4.354   3.315
 1160SOL     OW 3487   0.561   3.946   3.009
 1160SOL    HW1 3488   0.599   3.862   3.046
 1160SOL    HW2 3489   0.473   3.965   3.053
 1161SOL     OW 3490   0.866   4.178   2.504
 1161SOL    HW1 3491   0.834   4.250   2.442
 1161SOL    HW2 3492   0.890   4.097   2.451
 1162SOL     OW 3493   1.017   3.763   2.615
 1162SOL    HW1 3494   0.945   3.768   2.546
 1162SOL    HW2 3495   0.993   3.694   2.684
 1163SOL     OW 3496   1.466   4.314   2.854
 1163SOL    HW1 3497   1.436   4.219   2.861
 1163SOL    HW2 3498   1.539   4.330   2.920
 1164SOL     OW 3499   1.390   4.299   1.940
 1164SOL    HW1 3500   1.336   4.278   2.021
 1164SOL    HW2 3501   1.481   4.258   1.949
 1165SOL     OW 3502   0.527   3.980   2.190
 1165SOL    HW1 3503   0.554   3.921   2.115
 1165SOL    HW2 3504   0.527   4.075   2.159
 1166SOL     OW 3505   0.915   3.813   3.264
 1166SOL    HW1 3506   0.940   3.793   3.169
 1166SOL    HW2 3507   0.987   3.869   3.306
 1167SOL     OW 3508   0.705   4.774   2.230
 1167SOL    HW1 3509   0.691   4.781   2.329
 1167SOL    HW2 3510   0.789   4.723   2.212
 1168SOL     OW 3511   0.410   4.537   3.113
 1168SOL    HW1 3512   0.496   4.549   3.163
 1168SOL    HW2 3513   0.368   4.450   3.140
 1169SOL     OW 3514   1.274   4.110   3.124
 1169SOL    HW1 3515   1.295   4.184   3.188
 1169SOL    HW2 3516   1.185   4.127   3.081
 1170SOL     OW 3517   0.566   4.261   2.727
 1170SOL    HW1 3518   0.578   4.327   2.653
 1170SOL    HW2 3519   0.612   4.295   2.810
 1171SOL     OW 3520   1.582   4.363   2.334
 1171SOL    HW1 3521   1.551   4.424   2.407
 1171SOL    HW2 3522   1.632   4.415   2.265
 1172SOL     OW 3523   1.587   4.503   3.532
 1172SOL    HW1 3524   1.495   4.541   3.527
 1172SOL    HW2 3525   1.647   4.550   3.467
 1173SOL     OW 3526   1.013   3.829   3.632
 1173SOL    HW1 3527   1.019   3.914   3.580
 1173SOL    HW2 3528   1.045   3.753   3.575
 1174SOL     OW 3529   0.504   3.774   3.602
 1174SOL    HW1 3530   0.462   3.717   3.532
 1174SOL    HW2 3531   0.438   3.843   3.634
 1175SOL     OW 3532   1.360   4.586   2.907
 1175SOL    HW1 3533   1.285   4.586   2.841
 1175SOL    HW2 3534   1.397   4.494   2.916
 1176SOL     OW 3535   1.209   4.249   2.137
 1176SOL    HW1 3536   1.222   4.165   2.191
 1176SOL    HW2 3537   1.180   4.323   2.197
 1177SOL     OW 3538   0.307   3.937   3.093
 1177SOL    HW1 3539   0.284   3.974   3.183
 1177SOL    HW2 3540   0.277   3.842   3.087
 1178SOL     OW 3541   0.732   4.358   2.926
 1178SOL    HW1 3542   0.791   4.332   2.850
 1178SOL    HW2 3543   0.704   4.454   2.915
 1179SOL     OW 3544   1.728   4.659   3.716
 1179SOL    HW1 3545   1.682   4.652   3.627
 1179SOL    HW2 3546   1.666   4.703   3.782
 1180SOL     OW 3547   0.307   3.787   2.480
 1180SOL    HW1 3548   0.296   3.881   2.513
 1180SOL    HW2 3549   0.302   3.724   2.557
 1181SOL     OW 3550   1.622   4.091   2.236
 1181SOL    HW1 3551   1.624   4.015   2.300
 1181SOL    HW2 3552   1.574   4.168   2.276
 1182SOL     OW 3553   1.540   3.998   1.987
 1182SOL    HW1 3554   1.479   3.923   2.010
 1182SOL    HW2 3555   1.562   4.050   2.070
 1183SOL     OW 3556   0.319   4.534   2.811
 1183SOL    HW1 3557   0.412   4.570   2.816
 1183SOL    HW2 3558   0.313   4.449   2.863
 1184SOL     OW 3559   0.339   4.233   2.868
 1184SOL    HW1 3560   0.287   4.150   2.851
 1184SOL    HW2 3561   0.416   4.238   2.804
 1185SOL     OW 3562   1.138   4.104   3.540
 1185SOL    HW1 3563   1.093   4.167   3.604
 1185SOL    HW2 3564   1.231   4.135   3.523
 1186SOL     OW 3565   1.160   3.931   3.339
 1186SOL    HW1 3566   1.160   3.995   3.416
 1186SOL    HW2 3567   1.188   3.979   3.256
 1187SOL     OW 3568   0.040   4.268   2.976
 1187SOL    HW1 3569   0.125   4.235   2.935
 1187SOL    HW2 3570   0.053   4.283   3.074
 1188SOL     OW 3571   0.189   4.244   3.584
 1188SOL    HW1 3572   0.248   4.204   3.514
 1188SOL    HW2 3573   0.131   4.315   3.543
 1189SOL     OW 3574   0.815   4.296   2.187
 1189SOL    HW1 3575   0.822   4.207   2.141
 1189SOL    HW2 3576   0.721   4.330   2.179
 1190SOL     OW 3577   1.657   4.328   3.068
 1190SOL    HW1 3578   1.619   4.259   3.130
 1190SOL    HW2 3579   1.739   4.292   3.024
 1191SOL     OW 3580   0.671   4.188   3.131
 1191SOL    HW1 3581   0.637   4.099   3.101
 1191SOL    HW2 3582   0.697   4.242   3.051
 1192SOL     OW 3583   0.473   4.224   2.053
 1192SOL    HW1 3584   0.534   4.304   2.057
 1192SOL    HW2 3585   0.378   4.255   2.060
 1193SOL     OW 3586   1.726   3.859   2.385
 1193SOL    HW1 3587   1.799   3.842   2.318
 1193SOL    HW2 3588   1.695   3.772   2.423
 1194SOL     OW 3589   1.280   4.651   2.534
 1194SOL    HW1 3590   1.340   4.570   2.536
 1194SOL    HW2 3591   1.320   4.720   2.474
 1195SOL     OW 3592   1.841   3.899   2.825
 1195SOL    HW1 3593   1.880   3.814   2.789
 1195SOL    HW2 3594   1.743   3.901   2.806
 1196SOL     OW 3595   0.263   4.050   2.582
 1196SOL    HW1 3596   0.184   4.101   2.548
 1196SOL    HW2 3597   0.254   4.035   2.680
 1197SOL     OW 3598   0.916   4.634   2.153
 1197SOL    HW1 3599   0.979   4.672   2.085
 1197SOL    HW2 3600   0.956   4.551   2.192
 1198SOL     OW 3601   1.039   4.822   2.558
 1198SOL    HW1 3602   0.969   4.775   2.612
 1198SOL    HW2 3603   1.098   4.754   2.515
 1199SOL     OW 3604   1.014   3.960   2.833
 1199SOL    HW1 3605   1.006   3.924   2.740
 1199SOL    HW2 3606   1.012   3.884   2.898
 1200SOL     OW 3607   1.709   4.109   3.243
 1200SOL    HW1 3608   1.782   4.178   3.247
 1200SOL    HW2 3609   1.737   4.034   3.184
 1201SOL     OW 3610   0.672   3.927   3.351
 1201SOL    HW1 3611   0.762   3.911   3.311
 1201SOL    HW2 3612   0.680   3.932   3.450
 1202SOL     OW 3613   0.075   4.069   1.895
 1202SOL    HW1 3614  -0.017   4.041   1.866
 1202SOL    HW2 3615   0.106   4.146   1.839
 1203SOL     OW 3616   0.072   3.890   2.180
 1203SOL    HW1 3617   0.055   3.973   2.126
 1203SOL    HW2 3618   0.162   3.853   2.158
 1204SOL     OW 3619   0.716   4.289   3.570
 1204SOL    HW1 3620   0.735   4.354   3.644
 1204SOL    HW2 3621   0.776   4.209   3.579
 1205SOL     OW 3622   1.225   4.049   2.311
 1205SOL    HW1 3623   1.290   3.975   2.300
 1205SOL    HW2 3624   1.245   4.099   2.395
 1206SOL     OW 3625   0.594   4.469   2.514
 1206SOL    HW1 3626   0.644   4.554   2.495
 1206SOL    HW2 3627   0.506   4.471   2.466
 1207SOL     OW 3628   1.777   4.066   3.504
 1207SOL    HW1 3629   1.760   4.097   3.410
 1207SOL    HW2 3630   1.693   4.029   3.542
 1208SOL     OW 3631   0.859   4.680   2.723
 1208SOL    HW1 3632   0.913   4.611   2.771
 1208SOL    HW2 3633   0.827   4.749   2.789
 1209SOL     OW 3634   1.083   4.708   1.949
 1209SOL    HW1 3635   1.060   4.761   1.867
 1209SOL    HW2 3636   1.164   4.652   1.930
 1210SOL     OW 3637   1.824   3.916   3.089
 1210SOL    HW1 3638   1.820   3.826   3.133
 1210SOL    HW2 3639   1.827   3.905   2.990
 1211SOL     OW 3640   0.428   4.148   2.382
 1211SOL    HW1 3641   0.458   4.076   2.320
 1211SOL    HW2 3642   0.389   4.108   2.465
 1212SOL     OW 3643   0.317   4.271   3.142
 1212SOL    HW1 3644   0.355   4.212   3.214
 1212SOL    HW2 3645   0.357   4.245   3.054
 1213SOL     OW 3646   1.424   3.938   2.974
 1213SOL    HW1 3647   1.476   3.873   3.029
 1213SOL    HW2 3648   1.375   4.001   3.035
 1214SOL     OW 3649   1.001   3.758   3.016
 1214SOL    HW1 3650   0.938   3.686   2.985
 1214SOL    HW2 3651   1.094   3.722   3.016
 1215SOL     OW 3652   1.352   3.776   2.030
 1215SOL    HW1 3653   1.387   3.735   1.946
 1215SOL    HW2 3654   1.262   3.738   2.050
 1216SOL     OW 3655   1.300   4.177   2.553
 1216SOL    HW1 3656   1.241   4.257   2.557
 1216SOL    HW2 3657   1.315   4.142   2.646
 1217SOL     OW 3658   1.593   3.945   2.744
 1217SOL    HW1 3659   1.509   3.944   2.798
 1217SOL    HW2 3660   1.595   4.028   2.688
 1218SOL     OW 3661   0.230   4.352   3.837
 1218SOL    HW1 3662   0.137   4.350   3.874
 1218SOL    HW2 3663   0.231   4.313   3.745
 1219SOL     OW 3664   0.019   4.092   4.371
 1219SOL    HW1 3665  -0.063   4.135   4.410
 1219SOL    HW2 3666  -0.009   4.019   4.308
 1220SOL     OW 3667   1.755   4.331   3.955
 1220SOL    HW1 3668   1.743   4.318   3.856
 1220SOL    HW2 3669   1.725   4.250   4.004
 1221SOL     OW 3670   0.685   4.736   4.389
 1221SOL    HW1 3671   0.754   4.720   4.459
 1221SOL    HW2 3672   0.612   4.793   4.427
 1222SOL     OW 3673   1.603   4.171   4.461
 1222SOL    HW1 3674   1.529   4.217   4.411
 1222SOL    HW2 3675   1.654   4.239   4.514
 1223SOL     OW 3676   0.122   4.367   4.287
 1223SOL    HW1 3677   0.077   4.279   4.304
 1223SOL    HW2 3678   0.121   4.421   4.371
 1224SOL     OW 3679   0.809   3.728   4.226
 1224SOL    HW1 3680   0.849   3.819   4.217
 1224SOL    HW2 3681   0.709   3.736   4.232
 1225SOL     OW 3682   0.598   4.453   3.994
 1225SOL    HW1 3683   0.622   4.522   3.926
 1225SOL    HW2 3684   0.520   4.486   4.048
 1226SOL     OW 3685   1.281   4.069   4.668
 1226SOL    HW1 3686   1.195   4.019   4.655
 1226SOL    HW2 3687   1.343   4.015   4.724
 1227SOL     OW 3688   1.041   4.425   4.153
 1227SOL    HW1 3689   1.067   4.421   4.249
 1227SOL    HW2 3690   0.956   4.374   4.139
 1228SOL     OW 3691   0.076   4.535   4.513
 1228SOL    HW1 3692   0.175   4.523   4.522
 1228SOL    HW2 3693   0.052   4.630   4.534
 1229SOL     OW 3694   0.865   4.072   3.919
 1229SOL    HW1 3695   0.924   4.135   3.870
 1229SOL    HW2 3696   0.884   3.978   3.890
 1230SOL     OW 3697   1.400   3.831   4.150
 1230SOL    HW1 3698   1.376   3.794   4.060
 1230SOL    HW2 3699   1.499   3.847   4.154
 1231SOL     OW 3700   0.382   4.424   4.204
 1231SOL    HW1 3701   0.427   4.334   4.201
 1231SOL    HW2 3702   0.288   4.413   4.237
 1232SOL     OW 3703   0.614   3.846   3.841
 1232SOL    HW1 3704   0.712   3.824   3.848
 1232SOL    HW2 3705   0.583   3.829   3.748
 1233SOL     OW 3706   0.539   3.788   4.236
 1233SOL    HW1 3707   0.458   3.789   4.294
 1233SOL    HW2 3708   0.542   3.871   4.181
 1234SOL     OW 3709   0.297   3.759   3.895
 1234SOL    HW1 3710   0.346   3.843   3.874
 1234SOL    HW2 3711   0.359   3.694   3.940
 1235SOL     OW 3712   0.935   3.960   4.204
 1235SOL    HW1 3713   0.887   4.001   4.126
 1235SOL    HW2 3714   1.034   3.958   4.185
 1236SOL     OW 3715   1.032   4.273   3.740
 1236SOL    HW1 3716   0.991   4.355   3.701
 1236SOL    HW2 3717   1.096   4.299   3.813
 1237SOL     OW 3718   0.866   4.178   4.366
 1237SOL    HW1 3719   0.834   4.250   4.304
 1237SOL    HW2 3720   0.890   4.097   4.313
 1238SOL     OW 3721   1.390   4.299   3.802
 1238SOL    HW1 3722   1.336   4.278   3.883
 1238SOL    HW2 3723   1.481   4.258   3.811
 1239SOL     OW 3724   0.527   3.980   4.052
 1239SOL    HW1 3725   0.554   3.921   3.977
 1239SOL    HW2 3726   0.527   4.075   4.021
 1240SOL     OW 3727   0.705   4.774   4.092
 1240SOL    HW1 3728   0.691   4.781   4.191
 1240SOL    HW2 3729   0.789   4.723   4.074
 1241SOL     OW 3730   1.582   4.363   4.196
 1241SOL    HW1 3731   1.551   4.424   4.269
 1241SOL    HW2 3732   1.632   4.415   4.127
 1242SOL     OW 3733   1.209   4.249   3.999
 1242SOL    HW1 3734   1.222   4.165   4.053
 1242SOL    HW2 3735   1.180   4.323   4.059
 1243SOL     OW 3736   0.307   3.787   4.342
 1243SOL    HW1 3737   0.296   3.881   4.375
 1243SOL    HW2 3738   0.302   3.724   4.419
 1244SOL     OW 3739   1.622   4.091   4.098
 1244SOL    HW1 3740   1.624   4.015   4.162
 1244SOL    HW2 3741   1.574   4.168   4.138
 1245SOL     OW 3742   1.540   3.998   3.849
 1245SOL    HW1 3743   1.479   3.923   3.872
 1245SOL    HW2 3744   1.562   4.050   3.932
 1246SOL     OW 3745   0.040   4.268   4.838
 1246SOL    HW1 3746   0.125   4.235   4.797
 1246SOL    HW2 3747   0.053   4.283   4.936
 1247SOL     OW 3748   0.815   4.296   4.049
 1247SOL    HW1 3749   0.822   4.207   4.003
 1247SOL    HW2 3750   0.721   4.330   4.041
 1248SOL     OW 3751   0.473   4.224   3.915
 1248SOL    HW1 3752   0.534   4.304   3.919
 1248SOL    HW2 3753   0.378   4.255   3.922
 1249SOL     OW 3754   1.726   3.859   4.247
 1249SOL    HW1 3755   1.799   3.842   4.180
 1249SOL    HW2 3756   1.695   3.772   4.285
 1250SOL     OW 3757   1.280   4.651   4.396
 1250SOL    HW1 3758   1.340   4.570   4.398
 1250SOL    HW2 3759   1.320   4.720   4.336
 1251SOL     OW 3760   1.841   3.899   4.687
 1251SOL    HW1 3761   1.880   3.814   4.651
 1251SOL    HW2 3762   1.743   3.901   4.668
 1252SOL     OW 3763   0.263   4.050   4.444
 1252SOL    HW1 3764   0.184   4.101   4.410
 1252SOL    HW2 3765   0.254   4.035   4.542
 1253SOL     OW 3766   0.916   4.634   4.015
 1253SOL    HW1 3767   0.979   4.672   3.947
 1253SOL    HW2 3768   0.956   4.551   4.054
 1254SOL     OW 3769   0.075   4.069   3.757
 1254SOL    HW1 3770  -0.017   4.041   3.728
 1254SOL    HW2 3771   0.106   4.146   3.701
 1255SOL     OW 3772   0.072   3.890   4.042
 1255SOL    HW1 3773   0.055   3.973   3.988
 1255SOL    HW2 3774   0.162   3.853   4.020
 1256SOL     OW 3775   1.225   4.049   4.173
 1256SOL    HW1 3776   1.290   3.975   4.162
 1256SOL    HW2 3777   1.245   4.099   4.257
 1257SOL     OW 3778   0.594   4.469   4.376
 1257SOL    HW1 3779   0.644   4.554   4.357
 1257SOL    HW2 3780   0.506   4.471   4.328
 1258SOL     OW 3781   1.083   4.708   3.811
 1258SOL    HW1 3782   1.060   4.761   3.729
 1258SOL    HW2 3783   1.164   4.652   3.792
 1259SOL     OW 3784   0.428   4.148   4.244
 1259SOL    HW1 3785   0.458   4.076   4.182
 1259SOL    HW2 3786   0.389   4.108   4.327
 1260SOL     OW 3787   1.352   3.776   3.892
 1260SOL    HW1 3788   1.387   3.735   3.808
 1260SOL    HW2 3789   1.262   3.738   3.912
 1261SOL     OW 3790   1.300   4.177   4.415
 1261SOL    HW1 3791   1.241   4.257   4.419
 1261SOL    HW2 3792   1.315   4.142   4.508
 1262SOL     OW 3793   2.092   0.628   0.113
 1262SOL    HW1 3794   1.999   0.626   0.150
 1262SOL    HW2 3795   2.093   0.589   0.021
 1263SOL     OW 3796   2.087   0.275   0.996
 1263SOL    HW1 3797   2.122   0.258   1.088
 1263SOL    HW2 3798   1.999   0.230   0.984
 1264SOL     OW 3799   1.881   0.368   0.647
 1264SOL    HW1 3800   1.799   0.411   0.686
 1264SOL    HW2 3801   1.853   0.295   0.584
 1265SOL     OW 3802   2.431   1.275   1.165
 1265SOL    HW1 3803   2.338   1.268   1.128
 1265SOL    HW2 3804   2.442   1.364   1.209
 1266SOL     OW 3805   3.417   1.511   0.703
 1266SOL    HW1 3806   3.360   1.495   0.784
 1266SOL    HW2 3807   3.358   1.521   0.623
 1267SOL     OW 3808   2.997   0.703   0.717
 1267SOL    HW1 3809   3.054   0.781   0.692
 1267SOL    HW2 3810   2.937   0.729   0.793
 1268SOL     OW 3811   3.617   0.607   0.231
 1268SOL    HW1 3812   3.605   0.594   0.132
 1268SOL    HW2 3813   3.587   0.526   0.280
 1269SOL     OW 3814   2.630   1.144   1.023
 1269SOL    HW1 3815   2.552   1.161   1.083
 1269SOL    HW2 3816   2.664   1.231   0.987
 1270SOL     OW 3817   2.712   0.798   1.823
 1270SOL    HW1 3818   2.708   0.874   1.888
 1270SOL    HW2 3819   2.734   0.834   1.732
 1271SOL     OW 3820   2.547   1.012   0.665
 1271SOL    HW1 3821   2.616   0.996   0.735
 1271SOL    HW2 3822   2.474   1.069   0.703
 1272SOL     OW 3823   2.548   1.161   1.803
 1272SOL    HW1 3824   2.608   1.240   1.817
 1272SOL    HW2 3825   2.462   1.192   1.762
 1273SOL     OW 3826   2.197   1.435   1.061
 1273SOL    HW1 3827   2.119   1.404   1.008
 1273SOL    HW2 3828   2.255   1.493   1.004
 1274SOL     OW 3829   3.322   1.505   1.339
 1274SOL    HW1 3830   3.346   1.599   1.365
 1274SOL    HW2 3831   3.306   1.451   1.421
 1275SOL     OW 3832   2.300   0.392   1.499
 1275SOL    HW1 3833   2.382   0.336   1.508
 1275SOL    HW2 3834   2.219   0.334   1.503
 1276SOL     OW 3835   3.465   0.447   0.737
 1276SOL    HW1 3836   3.391   0.493   0.687
 1276SOL    HW2 3837   3.516   0.515   0.790
 1277SOL     OW 3838   2.093   1.713   0.483
 1277SOL    HW1 3839   2.127   1.790   0.537
 1277SOL    HW2 3840   2.137   1.713   0.393
 1278SOL     OW 3841   2.989   1.341   1.690
 1278SOL    HW1 3842   3.036   1.341   1.778
 1278SOL    HW2 3843   2.941   1.254   1.679
 1279SOL     OW 3844   2.092   1.434   0.538
 1279SOL    HW1 3845   2.066   1.530   0.538
 1279SOL    HW2 3846   2.021   1.380   0.583
 1280SOL     OW 3847   2.102   1.091   0.886
 1280SOL    HW1 3848   2.116   1.007   0.938
 1280SOL    HW2 3849   2.047   1.155   0.941
 1281SOL     OW 3850   2.482   1.786   1.439
 1281SOL    HW1 3851   2.390   1.769   1.474
 1281SOL    HW2 3852   2.510   1.878   1.465
 1282SOL     OW 3853   2.468   0.964   0.123
 1282SOL    HW1 3854   2.475   1.048   0.069
 1282SOL    HW2 3855   2.514   0.977   0.211
 1283SOL     OW 3856   3.456   0.114   1.480
 1283SOL    HW1 3857   3.438   0.181   1.408
 1283SOL    HW2 3858   3.453   0.160   1.569
 1284SOL     OW 3859   1.984   0.643   0.563
 1284SOL    HW1 3860   1.939   0.555   0.580
 1284SOL    HW2 3861   1.983   0.697   0.647
 1285SOL     OW 3862   3.704   1.767   0.359
 1285SOL    HW1 3863   3.758   1.738   0.439
 1285SOL    HW2 3864   3.734   1.857   0.330
 1286SOL     OW 3865   1.889   1.596   0.117
 1286SOL    HW1 3866   1.870   1.500   0.138
 1286SOL    HW2 3867   1.856   1.654   0.192
 1287SOL     OW 3868   3.551   0.922   0.612
 1287SOL    HW1 3869   3.646   0.893   0.620
 1287SOL    HW2 3870   3.543   0.987   0.537
 1288SOL     OW 3871   3.503   1.108   0.432
 1288SOL    HW1 3872   3.589   1.110   0.380
 1288SOL    HW2 3873   3.517   1.155   0.520
 1289SOL     OW 3874   1.975   0.737   1.597
 1289SOL    HW1 3875   2.063   0.724   1.642
 1289SOL    HW2 3876   1.962   0.834   1.575
 1290SOL     OW 3877   2.475   1.365   0.726
 1290SOL    HW1 3878   2.426   1.278   0.735
 1290SOL    HW2 3879   2.452   1.408   0.639
 1291SOL     OW 3880   3.155   1.228   1.423
 1291SOL    HW1 3881   3.192   1.155   1.365
 1291SOL    HW2 3882   3.207   1.233   1.508
 1292SOL     OW 3883   2.671   0.004   0.502
 1292SOL    HW1 3884   2.711   0.095   0.493
 1292SOL    HW2 3885   2.571   0.012   0.508
 1293SOL     OW 3886   2.059   0.976   1.264
 1293SOL    HW1 3887   2.148   0.931   1.250
 1293SOL    HW2 3888   1.986   0.911   1.245
 1294SOL     OW 3889   3.387   0.999   0.190
 1294SOL    HW1 3890   3.324   0.923   0.203
 1294SOL    HW2 3891   3.435   1.017   0.276
 1295SOL     OW 3892   3.049   1.792   1.616
 1295SOL    HW1 3893   3.073   1.852   1.540
 1295SOL    HW2 3894   3.056   1.697   1.586
 1296SOL     OW 3895   2.179   0.251   1.801
 1296SOL    HW1 3896   2.250   0.322   1.807
 1296SOL    HW2 3897   2.091   0.290   1.829
 1297SOL     OW 3898   3.328   1.417   0.953
 1297SOL    HW1 3899   3.269   1.423   1.033
 1297SOL    HW2 3900   3.313   1.329   0.907
 1298SOL     OW 3901   3.529   1.714   0.572
 1298SOL    HW1 3902   3.488   1.691   0.484
 1298SOL    HW2 3903   3.511   1.640   0.637
 1299SOL     OW 3904   2.460   0.729   0.270
 1299SOL    HW1 3905   2.484   0.798   0.202
 1299SOL    HW2 3906   2.382   0.762   0.324
 1300SOL     OW 3907   3.143   0.345   0.944
 1300SOL    HW1 3908   3.057   0.295   0.931
 1300SOL    HW2 3909   3.205   0.291   1.000
 1301SOL     OW 3910   3.438   1.662   0.307
 1301SOL    HW1 3911   3.527   1.708   0.310
 1301SOL    HW2 3912   3.417   1.638   0.212
 1302SOL     OW 3913   2.669   0.605   1.465
 1302SOL    HW1 3914   2.622   0.602   1.554
 1302SOL    HW2 3915   2.618   0.550   1.399
 1303SOL     OW 3916   3.256   0.469   1.674
 1303SOL    HW1 3917   3.236   0.512   1.762
 1303SOL    HW2 3918   3.334   0.407   1.683
 1304SOL     OW 3919   2.835   0.890   1.572
 1304SOL    HW1 3920   2.881   0.806   1.543
 1304SOL    HW2 3921   2.779   0.924   1.497
 1305SOL     OW 3922   2.853   0.410   1.242
 1305SOL    HW1 3923   2.776   0.444   1.296
 1305SOL    HW2 3924   2.819   0.359   1.163
 1306SOL     OW 3925   2.903   0.701   0.429
 1306SOL    HW1 3926   2.929   0.697   0.525
 1306SOL    HW2 3927   2.818   0.650   0.415
 1307SOL     OW 3928   1.938   0.811   0.789
 1307SOL    HW1 3929   2.037   0.799   0.798
 1307SOL    HW2 3930   1.914   0.906   0.810
 1308SOL     OW 3931   1.992   1.821   1.571
 1308SOL    HW1 3932   1.982   1.806   1.670
 1308SOL    HW2 3933   1.906   1.857   1.535
 1309SOL     OW 3934   2.727   0.348   0.195
 1309SOL    HW1 3935   2.786   0.411   0.146
 1309SOL    HW2 3936   2.746   0.254   0.166
 1310SOL     OW 3937   3.581   0.585   1.831
 1310SOL    HW1 3938   3.555   0.674   1.795
 1310SOL    HW2 3939   3.579   0.517   1.758
 1311SOL     OW 3940   3.224   1.144   0.545
 1311SOL    HW1 3941   3.307   1.115   0.497
 1311SOL    HW2 3942   3.175   1.211   0.489
 1312SOL     OW 3943   2.412   0.196   0.885
 1312SOL    HW1 3944   2.407   0.191   0.985
 1312SOL    HW2 3945   2.414   0.292   0.856
 1313SOL     OW 3946   2.870   1.456   0.477
 1313SOL    HW1 3947   2.824   1.528   0.425
 1313SOL    HW2 3948   2.866   1.476   0.575
 1314SOL     OW 3949   2.213   1.801   0.853
 1314SOL    HW1 3950   2.263   1.715   0.859
 1314SOL    HW2 3951   2.278   1.878   0.850
 1315SOL     OW 3952   3.657   1.066   0.873
 1315SOL    HW1 3953   3.595   1.051   0.797
 1315SOL    HW2 3954   3.605   1.077   0.958
 1316SOL     OW 3955   3.089   1.550   1.506
 1316SOL    HW1 3956   3.095   1.473   1.570
 1316SOL    HW2 3957   3.037   1.524   1.426
 1317SOL     OW 3958   2.183   0.943   0.242
 1317SOL    HW1 3959   2.265   0.982   0.200
 1317SOL    HW2 3960   2.156   0.861   0.193
 1318SOL     OW 3961   3.320   0.735   0.728
 1318SOL    HW1 3962   3.315   0.670   0.803
 1318SOL    HW2 3963   3.400   0.794   0.741
 1319SOL     OW 3964   2.323   1.266   1.727
 1319SOL    HW1 3965   2.273   1.267   1.641
 1319SOL    HW2 3966   2.260   1.248   1.803
 1320SOL     OW 3967   2.973   1.776   0.237
 1320SOL    HW1 3968   2.913   1.714   0.287
 1320SOL    HW2 3969   3.004   1.732   0.152
 1321SOL     OW 3970   2.064   0.285   1.498
 1321SOL    HW1 3971   1.984   0.345   1.485
 1321SOL    HW2 3972   2.054   0.236   1.584
 1322SOL     OW 3973   3.494   1.377   0.081
 1322SOL    HW1 3974   3.462   1.471   0.071
 1322SOL    HW2 3975   3.418   1.314   0.069
 1323SOL     OW 3976   2.326   1.743   0.323
 1323SOL    HW1 3977   2.359   1.782   0.409
 1323SOL    HW2 3978   2.402   1.736   0.258
 1324SOL     OW 3979   3.262   0.107   0.426
 1324SOL    HW1 3980   3.238   0.070   0.336
 1324SOL    HW2 3981   3.361   0.123   0.430
 1325SOL     OW 3982   2.111   1.785   1.241
 1325SOL    HW1 3983   2.168   1.720   1.291
 1325SOL    HW2 3984   2.095   1.752   1.148
 1326SOL     OW 3985   2.802   1.698   0.904
 1326SOL    HW1 3986   2.882   1.641   0.925
 1326SOL    HW2 3987   2.753   1.658   0.827
 1327SOL     OW 3988   2.244   0.700   0.480
 1327SOL    HW1 3989   2.289   0.610   0.477
 1327SOL    HW2 3990   2.150   0.689   0.513
 1328SOL     OW 3991   3.409   0.222   1.729
 1328SOL    HW1 3992   3.404   0.259   1.821
 1328SOL    HW2 3993   3.337   0.153   1.717
 1329SOL     OW 3994   2.476   0.122   0.117
 1329SOL    HW1 3995   2.574   0.100   0.124
 1329SOL    HW2 3996   2.445   0.105   0.024
 1330SOL     OW 3997   2.643   0.264   1.749
 1330SOL    HW1 3998   2.710   0.203   1.792
 1330SOL    HW2 3999   2.570   0.283   1.814
 1331SOL     OW 4000   2.750   1.514   1.195
 1331SOL    HW1 4001   2.727   1.489   1.101
 1331SOL    HW2 4002   2.811   1.445   1.234
 1332SOL     OW 4003   3.213   0.590   1.433
 1332SOL    HW1 4004   3.241   0.547   1.518
 1332SOL    HW2 4005   3.238   0.686   1.434
 1333SOL     OW 4006   2.665   1.402   0.924
 1333SOL    HW1 4007   2.755   1.416   0.882
 1333SOL    HW2 4008   2.594   1.404   0.853
 1334SOL     OW 4009   2.784   0.503   0.899
 1334SOL    HW1 4010   2.759   0.494   0.803
 1334SOL    HW2 4011   2.832   0.421   0.930
 1335SOL     OW 4012   2.401   0.064   0.512
 1335SOL    HW1 4013   2.320   0.065   0.570
 1335SOL    HW2 4014   2.404   0.147   0.457
 1336SOL     OW 4015   3.296   1.188   0.041
 1336SOL    HW1 4016   3.328   1.112   0.098
 1336SOL    HW2 4017   3.204   1.215   0.071
 1337SOL     OW 4018   2.159   0.035   0.171
 1337SOL    HW1 4019   2.208   0.119   0.150
 1337SOL    HW2 4020   2.221  -0.030   0.216
 1338SOL     OW 4021   2.797   0.236   0.480
 1338SOL    HW1 4022   2.749   0.277   0.402
 1338SOL    HW2 4023   2.896   0.234   0.461
 1339SOL     OW 4024   2.938   0.683   1.464
 1339SOL    HW1 4025   2.858   0.622   1.467
 1339SOL    HW2 4026   3.019   0.630   1.440
 1340SOL     OW 4027   3.089   1.570   0.793
 1340SOL    HW1 4028   3.110   1.644   0.728
 1340SOL    HW2 4029   3.157   1.570   0.866
 1341SOL     OW 4030   2.321   1.152   0.741
 1341SOL    HW1 4031   2.250   1.125   0.806
 1341SOL    HW2 4032   2.295   1.124   0.648
 1342SOL     OW 4033   3.133   1.797   0.591
 1342SOL    HW1 4034   3.177   1.861   0.527
 1342SOL    HW2 4035   3.083   1.849   0.661
 1343SOL     OW 4036   2.894   0.549   0.016
 1343SOL    HW1 4037   2.853   0.631  -0.023
 1343SOL    HW2 4038   2.958   0.575   0.089
 1344SOL     OW 4039   1.940   0.556   1.386
 1344SOL    HW1 4040   2.032   0.555   1.345
 1344SOL    HW2 4041   1.934   0.630   1.453
 1345SOL     OW 4042   2.423   0.222   1.147
 1345SOL    HW1 4043   2.461   0.138   1.184
 1345SOL    HW2 4044   2.335   0.241   1.191
 1346SOL     OW 4045   2.728   0.454   0.642
 1346SOL    HW1 4046   2.696   0.526   0.580
 1346SOL    HW2 4047   2.752   0.373   0.589
 1347SOL     OW 4048   2.879   0.039   0.753
 1347SOL    HW1 4049   2.807   0.044   0.684
 1347SOL    HW2 4050   2.855  -0.030   0.822
 1348SOL     OW 4051   3.291   1.173   0.867
 1348SOL    HW1 4052   3.236   1.089   0.860
 1348SOL    HW2 4053   3.317   1.202   0.775
 1349SOL     OW 4054   3.328   0.590   0.992
 1349SOL    HW1 4055   3.298   0.495   0.999
 1349SOL    HW2 4056   3.401   0.606   1.058
 1350SOL     OW 4057   3.719   0.833   0.377
 1350SOL    HW1 4058   3.761   0.769   0.441
 1350SOL    HW2 4059   3.681   0.782   0.299
 1351SOL     OW 4060   2.350   1.385   0.174
 1351SOL    HW1 4061   2.263   1.370   0.221
 1351SOL    HW2 4062   2.333   1.411   0.079
 1352SOL     OW 4063   3.526   1.280   0.657
 1352SOL    HW1 4064   3.625   1.288   0.671
 1352SOL    HW2 4065   3.481   1.364   0.688
 1353SOL     OW 4066   3.252   0.575   0.078
 1353SOL    HW1 4067   3.198   0.554   0.159
 1353SOL    HW2 4068   3.343   0.534   0.087
 1354SOL     OW 4069   2.389   0.256   0.328
 1354SOL    HW1 4070   2.416   0.197   0.253
 1354SOL    HW2 4071   2.389   0.351   0.297
 1355SOL     OW 4072   3.616   1.223   1.588
 1355SOL    HW1 4073   3.707   1.184   1.575
 1355SOL    HW2 4074   3.624   1.319   1.612
 1356SOL     OW 4075   2.926   1.347   1.340
 1356SOL    HW1 4076   2.846   1.324   1.395
 1356SOL    HW2 4077   3.009   1.321   1.389
 1357SOL     OW 4078   3.454   1.629   1.625
 1357SOL    HW1 4079   3.481   1.663   1.535
 1357SOL    HW2 4080   3.533   1.591   1.671
 1358SOL     OW 4081   2.973   1.195   1.100
 1358SOL    HW1 4082   2.933   1.239   1.181
 1358SOL    HW2 4083   2.932   1.232   1.017
 1359SOL     OW 4084   3.500   1.099   1.079
 1359SOL    HW1 4085   3.505   1.180   1.138
 1359SOL    HW2 4086   3.414   1.101   1.028
 1360SOL     OW 4087   2.777   0.089   1.402
 1360SOL    HW1 4088   2.802   0.069   1.307
 1360SOL    HW2 4089   2.849   0.145   1.444
 1361SOL     OW 4090   2.842   1.116   1.719
 1361SOL    HW1 4091   2.743   1.122   1.729
 1361SOL    HW2 4092   2.865   1.036   1.663
 1362SOL     OW 4093   2.567   1.050   0.368
 1362SOL    HW1 4094   2.553   1.057   0.467
 1362SOL    HW2 4095   2.651   0.999   0.350
 1363SOL     OW 4096   2.272   0.813   1.251
 1363SOL    HW1 4097   2.358   0.825   1.301
 1363SOL    HW2 4098   2.230   0.726   1.278
 1364SOL     OW 4099   3.136   0.386   1.262
 1364SOL    HW1 4100   3.157   0.460   1.326
 1364SOL    HW2 4101   3.047   0.403   1.219
 1365SOL     OW 4102   1.926   1.564   1.331
 1365SOL    HW1 4103   1.880   1.646   1.297
 1365SOL    HW2 4104   2.024   1.583   1.340
 1366SOL     OW 4105   2.229   1.100   0.501
 1366SOL    HW1 4106   2.222   1.183   0.445
 1366SOL    HW2 4107   2.233   1.020   0.441
 1367SOL     OW 4108   2.428   0.537   0.865
 1367SOL    HW1 4109   2.440   0.603   0.791
 1367SOL    HW2 4110   2.474   0.571   0.948
 1368SOL     OW 4111   3.114   1.348   0.388
 1368SOL    HW1 4112   3.164   1.425   0.428
 1368SOL    HW2 4113   3.019   1.350   0.420
 1369SOL     OW 4114   3.134   1.445   1.142
 1369SOL    HW1 4115   3.181   1.458   1.229
 1369SOL    HW2 4116   3.068   1.371   1.151
 1370SOL     OW 4117   3.444   0.639   0.472
 1370SOL    HW1 4118   3.413   0.700   0.545
 1370SOL    HW2 4119   3.494   0.691   0.403
 1371SOL     OW 4120   2.216   1.510   1.329
 1371SOL    HW1 4121   2.195   1.466   1.242
 1371SOL    HW2 4122   2.313   1.536   1.332
 1372SOL     OW 4123   2.264   0.751   1.598
 1372SOL    HW1 4124   2.332   0.806   1.551
 1372SOL    HW2 4125   2.304   0.663   1.625
 1373SOL     OW 4126   3.449   0.779   1.670
 1373SOL    HW1 4127   3.357   0.817   1.665
 1373SOL    HW2 4128   3.509   0.826   1.605
 1374SOL     OW 4129   2.875   0.105   1.770
 1374SOL    HW1 4130   2.881   0.190   1.718
 1374SOL    HW2 4131   2.907   0.029   1.713
 1375SOL     OW 4132   2.366   0.050   1.740
 1375SOL    HW1 4133   2.324  -0.007   1.670
 1375SOL    HW2 4134   2.300   0.119   1.772
 1376SOL     OW 4135   2.435   0.870   1.029
 1376SOL    HW1 4136   2.479   0.959   1.020
 1376SOL    HW2 4137   2.372   0.870   1.106
 1377SOL     OW 4138   3.222   0.862   1.045
 1377SOL    HW1 4139   3.147   0.862   0.979
 1377SOL    HW2 4140   3.259   0.770   1.054
 1378SOL     OW 4141   3.071   0.525   0.275
 1378SOL    HW1 4142   3.084   0.441   0.329
 1378SOL    HW2 4143   3.042   0.599   0.335
 1379SOL     OW 4144   2.169   0.213   1.231
 1379SOL    HW1 4145   2.146   0.250   1.321
 1379SOL    HW2 4146   2.139   0.118   1.225
 1380SOL     OW 4147   1.899   1.310   1.282
 1380SOL    HW1 4148   1.952   1.261   1.350
 1380SOL    HW2 4149   1.921   1.408   1.287
 1381SOL     OW 4150   2.594   0.634   1.064
 1381SOL    HW1 4151   2.653   0.608   0.988
 1381SOL    HW2 4152   2.566   0.730   1.053
 1382SOL     OW 4153   3.590   0.935   1.854
 1382SOL    HW1 4154   3.544   0.928   1.765
 1382SOL    HW2 4155   3.528   0.979   1.920
 1383SOL     OW 4156   2.169   0.063   0.618
 1383SOL    HW1 4157   2.158   0.157   0.651
 1383SOL    HW2 4158   2.164   0.000   0.695
 1384SOL     OW 4159   3.484   0.367   0.374
 1384SOL    HW1 4160   3.486   0.291   0.438
 1384SOL    HW2 4161   3.436   0.444   0.414
 1385SOL     OW 4162   2.885   0.766   0.966
 1385SOL    HW1 4163   2.900   0.787   1.062
 1385SOL    HW2 4164   2.855   0.671   0.957
 1386SOL     OW 4165   2.842   1.573   1.700
 1386SOL    HW1 4166   2.822   1.617   1.612
 1386SOL    HW2 4167   2.881   1.482   1.684
 1387SOL     OW 4168   3.721   1.518   1.605
 1387SOL    HW1 4169   3.735   1.545   1.510
 1387SOL    HW2 4170   3.804   1.540   1.658
 1388SOL     OW 4171   2.212   0.898   1.804
 1388SOL    HW1 4172   2.288   0.942   1.852
 1388SOL    HW2 4173   2.247   0.851   1.722
 1389SOL     OW 4174   3.402   0.274   0.125
 1389SOL    HW1 4175   3.341   0.199   0.148
 1389SOL    HW2 4176   3.424   0.326   0.208
 1390SOL     OW 4177   3.165   0.838   0.042
 1390SOL    HW1 4178   3.199   0.745   0.057
 1390SOL    HW2 4179   3.183   0.865  -0.053
 1391SOL     OW 4180   2.930   1.333   0.849
 1391SOL    HW1 4181   2.937   1.249   0.794
 1391SOL    HW2 4182   2.992   1.402   0.813
 1392SOL     OW 4183   2.181   0.810   0.949
 1392SOL    HW1 4184   2.274   0.846   0.954
 1392SOL    HW2 4185   2.175   0.725   1.001
 1393SOL     OW 4186   2.201   0.509   1.006
 1393SOL    HW1 4187   2.149   0.426   0.989
 1393SOL    HW2 4188   2.278   0.514   0.942
 1394SOL     OW 4189   3.000   0.380   1.678
 1394SOL    HW1 4190   2.955   0.443   1.742
 1394SOL    HW2 4191   3.093   0.411   1.661
 1395SOL     OW 4192   3.022   0.207   1.477
 1395SOL    HW1 4193   3.022   0.271   1.554
 1395SOL    HW2 4194   3.050   0.255   1.394
 1396SOL     OW 4195   1.870   1.326   0.200
 1396SOL    HW1 4196   1.777   1.347   0.169
 1396SOL    HW2 4197   1.880   1.227   0.213
 1397SOL     OW 4198   1.950   1.801   0.927
 1397SOL    HW1 4199   1.908   1.715   0.900
 1397SOL    HW2 4200   2.044   1.804   0.893
 1398SOL     OW 4201   2.366   1.568   0.910
 1398SOL    HW1 4202   2.432   1.642   0.919
 1398SOL    HW2 4203   2.410   1.489   0.868
 1399SOL     OW 4204   2.864   0.796   1.238
 1399SOL    HW1 4205   2.905   0.764   1.324
 1399SOL    HW2 4206   2.768   0.769   1.235
 1400SOL     OW 4207   1.902   0.544   1.114
 1400SOL    HW1 4208   1.987   0.511   1.073
 1400SOL    HW2 4209   1.915   0.559   1.212
 1401SOL     OW 4210   2.051   0.520   1.722
 1401SOL    HW1 4211   2.110   0.480   1.652
 1401SOL    HW2 4212   1.993   0.591   1.681
 1402SOL     OW 4213   3.231   0.950   1.660
 1402SOL    HW1 4214   3.270   1.039   1.680
 1402SOL    HW2 4215   3.241   0.930   1.563
 1403SOL     OW 4216   2.677   0.572   0.325
 1403SOL    HW1 4217   2.684   0.483   0.279
 1403SOL    HW2 4218   2.583   0.606   0.317
 1404SOL     OW 4219   3.519   0.604   1.206
 1404SOL    HW1 4220   3.481   0.535   1.268
 1404SOL    HW2 4221   3.601   0.568   1.162
 1405SOL     OW 4222   2.114   1.564   1.744
 1405SOL    HW1 4223   2.084   1.621   1.820
 1405SOL    HW2 4224   2.107   1.467   1.770
 1406SOL     OW 4225   2.533   0.464   1.269
 1406SOL    HW1 4226   2.499   0.375   1.239
 1406SOL    HW2 4227   2.559   0.518   1.189
 1407SOL     OW 4228   2.792   1.678   1.465
 1407SOL    HW1 4229   2.768   1.660   1.370
 1407SOL    HW2 4230   2.822   1.772   1.475
 1408SOL     OW 4231   2.335   0.500   0.191
 1408SOL    HW1 4232   2.396   0.580   0.195
 1408SOL    HW2 4233   2.240   0.531   0.198
 1409SOL     OW 4234   2.021   1.137   1.466
 1409SOL    HW1 4235   2.043   1.076   1.542
 1409SOL    HW2 4236   2.031   1.088   1.380
 1410SOL     OW 4237   3.209   1.059   1.234
 1410SOL    HW1 4238   3.233   0.996   1.160
 1410SOL    HW2 4239   3.119   1.099   1.216
 1411SOL     OW 4240   3.164   0.855   0.309
 1411SOL    HW1 4241   3.078   0.824   0.351
 1411SOL    HW2 4242   3.160   0.841   0.210
 1412SOL     OW 4243   3.621   1.747   1.154
 1412SOL    HW1 4244   3.682   1.777   1.081
 1412SOL    HW2 4245   3.583   1.658   1.132
 1413SOL     OW 4246   3.114   1.731   1.128
 1413SOL    HW1 4247   3.198   1.736   1.074
 1413SOL    HW2 4248   3.091   1.635   1.146
 1414SOL     OW 4249   1.945   1.258   1.022
 1414SOL    HW1 4250   1.940   1.257   1.122
 1414SOL    HW2 4251   1.862   1.217   0.984
 1415SOL     OW 4252   2.550   1.662   1.716
 1415SOL    HW1 4253   2.494   1.743   1.725
 1415SOL    HW2 4254   2.602   1.666   1.630
 1416SOL     OW 4255   2.765   0.086   0.133
 1416SOL    HW1 4256   2.816   0.087   0.047
 1416SOL    HW2 4257   2.821   0.044   0.204
 1417SOL     OW 4258   3.588   0.135   0.523
 1417SOL    HW1 4259   3.661   0.118   0.456
 1417SOL    HW2 4260   3.557   0.048   0.561
 1418SOL     OW 4261   3.250   1.573   0.477
 1418SOL    HW1 4262   3.317   1.585   0.403
 1418SOL    HW2 4263   3.210   1.662   0.500
 1419SOL     OW 4264   1.992   1.794   1.851
 1419SOL    HW1 4265   1.951   1.720   1.904
 1419SOL    HW2 4266   2.056   1.845   1.909
 1420SOL     OW 4267   3.142   0.927   0.672
 1420SOL    HW1 4268   3.202   0.846   0.674
 1420SOL    HW2 4269   3.182   0.996   0.612
 1421SOL     OW 4270   2.692   1.273   1.422
 1421SOL    HW1 4271   2.687   1.306   1.517
 1421SOL    HW2 4272   2.606   1.292   1.376
 1422SOL     OW 4273   2.534   1.616   0.154
 1422SOL    HW1 4274   2.543   1.626   0.055
 1422SOL    HW2 4275   2.494   1.527   0.175
 1423SOL     OW 4276   3.512   1.720   1.394
 1423SOL    HW1 4277   3.565   1.730   1.310
 1423SOL    HW2 4278   3.485   1.810   1.428
 1424SOL     OW 4279   3.703   0.175   0.963
 1424SOL    HW1 4280   3.742   0.090   0.927
 1424SOL    HW2 4281   3.605   0.177   0.944
 1425SOL     OW 4282   2.125   0.326   0.720
 1425SOL    HW1 4283   2.046   0.377   0.686
 1425SOL    HW2 4284   2.116   0.311   0.818
 1426SOL     OW 4285   3.056   1.612   0.031
 1426SOL    HW1 4286   3.062   1.519   0.068
 1426SOL    HW2 4287   2.997   1.612  -0.049
 1427SOL     OW 4288   2.684   1.002   1.372
 1427SOL    HW1 4289   2.724   1.001   1.280
 1427SOL    HW2 4290   2.694   1.094   1.412
 1428SOL     OW 4291   2.778   0.910   0.291
 1428SOL    HW1 4292   2.841   0.948   0.223
 1428SOL    HW2 4293   2.818   0.827   0.330
 1429SOL     OW 4294   3.366   1.607   0.044
 1429SOL    HW1 4295   3.274   1.644   0.051
 1429SOL    HW2 4296   3.404   1.627  -0.046
 1430SOL     OW 4297   2.234   1.288   1.490
 1430SOL    HW1 4298   2.221   1.381   1.456
 1430SOL    HW2 4299   2.150   1.236   1.477
 1431SOL     OW 4300   3.476   1.292   1.289
 1431SOL    HW1 4301   3.536   1.295   1.369
 1431SOL    HW2 4302   3.401   1.356   1.302
 1432SOL     OW 4303   2.901   1.098   0.696
 1432SOL    HW1 4304   2.831   1.051   0.750
 1432SOL    HW2 4305   2.960   1.030   0.653
 1433SOL     OW 4306   2.876   0.236   0.971
 1433SOL    HW1 4307   2.868   0.200   0.878
 1433SOL    HW2 4308   2.874   0.160   1.036
 1434SOL     OW 4309   2.452   1.487   0.491
 1434SOL    HW1 4310   2.494   1.429   0.421
 1434SOL    HW2 4311   2.408   1.566   0.447
 1435SOL     OW 4312   3.571   0.385   1.381
 1435SOL    HW1 4313   3.644   0.454   1.385
 1435SOL    HW2 4314   3.599   0.310   1.322
 1436SOL     OW 4315   2.117   1.348   0.290
 1436SOL    HW1 4316   2.021   1.349   0.263
 1436SOL    HW2 4317   2.129   1.401   0.374
 1437SOL     OW 4318   1.967   1.013   1.726
 1437SOL    HW1 4319   1.890   0.980   1.780
 1437SOL    HW2 4320   2.052   0.983   1.768
 1438SOL     OW 4321   2.534   0.203   1.489
 1438SOL    HW1 4322   2.624   0.187   1.449
 1438SOL    HW2 4323   2.542   0.208   1.588
 1439SOL     OW 4324   1.937   0.345   0.033
 1439SOL    HW1 4325   1.845   0.317   0.004
 1439SOL    HW2 4326   1.968   0.422  -0.023
 1440SOL     OW 4327   3.302   0.856   1.398
 1440SOL    HW1 4328   3.245   0.908   1.335
 1440SOL    HW2 4329   3.398   0.868   1.374
 1441SOL     OW 4330   1.934   0.166   0.318
 1441SOL    HW1 4331   1.917   0.249   0.264
 1441SOL    HW2 4332   2.024   0.129   0.296
 1442SOL     OW 4333   3.045   1.335   0.119
 1442SOL    HW1 4334   2.946   1.324   0.121
 1442SOL    HW2 4335   3.079   1.350   0.212
 1443SOL     OW 4336   2.475   0.842   1.431
 1443SOL    HW1 4337   2.531   0.923   1.414
 1443SOL    HW2 4338   2.534   0.762   1.434
 1444SOL     OW 4339   3.355   1.767   0.959
 1444SOL    HW1 4340   3.388   1.831   0.890
 1444SOL    HW2 4341   3.421   1.761   1.034
 1445SOL     OW 4342   2.578   0.565   1.708
 1445SOL    HW1 4343   2.597   0.630   1.782
 1445SOL    HW2 4344   2.638   0.485   1.717
 1446SOL     OW 4345   3.312   1.220   1.633
 1446SOL    HW1 4346   3.303   1.210   1.732
 1446SOL    HW2 4347   3.408   1.213   1.607
 1447SOL     OW 4348   2.252   1.741   1.560
 1447SOL    HW1 4349   2.161   1.782   1.558
 1447SOL    HW2 4350   2.245   1.647   1.592
 1448SOL     OW 4351   3.536   0.883   1.254
 1448SOL    HW1 4352   3.509   0.794   1.217
 1448SOL    HW2 4353   3.537   0.951   1.181
 1449SOL     OW 4354   3.087   0.325   0.449
 1449SOL    HW1 4355   3.152   0.251   0.438
 1449SOL    HW2 4356   3.107   0.375   0.533
 1450SOL     OW 4357   2.456   0.745   0.652
 1450SOL    HW1 4358   2.506   0.830   0.633
 1450SOL    HW2 4359   2.368   0.747   0.604
 1451SOL     OW 4360   3.639   0.342   1.642
 1451SOL    HW1 4361   3.622   0.373   1.548
 1451SOL    HW2 4362   3.555   0.305   1.680
 1452SOL     OW 4363   3.592   0.934   1.517
 1452SOL    HW1 4364   3.630   1.025   1.532
 1452SOL    HW2 4365   3.584   0.917   1.418
 1453SOL     OW 4366   2.721   1.374   0.016
 1453SOL    HW1 4367   2.675   1.389   0.104
 1453SOL    HW2 4368   2.765   1.459  -0.014
 1454SOL     OW 4369   2.523   1.790   0.953
 1454SOL    HW1 4370   2.477   1.878   0.940
 1454SOL    HW2 4371   2.622   1.802   0.946
 1455SOL     OW 4372   2.721   0.956   0.861
 1455SOL    HW1 4373   2.775   0.887   0.909
 1455SOL    HW2 4374   2.689   1.025   0.927
 1456SOL     OW 4375   2.945   0.984   0.087
 1456SOL    HW1 4376   2.922   1.037   0.005
 1456SOL    HW2 4377   3.026   0.928   0.068
 1457SOL     OW 4378   3.723   1.569   0.851
 1457SOL    HW1 4379   3.652   1.557   0.781
 1457SOL    HW2 4380   3.724   1.490   0.911
 1458SOL     OW 4381   2.083   1.314   1.844
 1458SOL    HW1 4382   2.018   1.241   1.823
 1458SOL    HW2 4383   2.087   1.328   1.942
 1459SOL     OW 4384   1.941   1.240   0.653
 1459SOL    HW1 4385   1.940   1.193   0.741
 1459SOL    HW2 4386   2.023   1.212   0.602
 1460SOL     OW 4387   2.534   1.391   1.624
 1460SOL    HW1 4388   2.456   1.341   1.662
 1460SOL    HW2 4389   2.531   1.486   1.655
 1461SOL     OW 4390   3.686   0.192   1.227
 1461SOL    HW1 4391   3.682   0.102   1.271
 1461SOL    HW2 4392   3.689   0.181   1.128
 1462SOL     OW 4393   2.290   0.424   0.520
 1462SOL    HW1 4394   2.320   0.352   0.458
 1462SOL    HW2 4395   2.251   0.384   0.603
 1463SOL     OW 4396   3.567   1.487   1.104
 1463SOL    HW1 4397   3.474   1.462   1.077
 1463SOL    HW2 4398   3.593   1.437   1.186
 1464SOL     OW 4399   2.179   0.547   1.280
 1464SOL    HW1 4400   2.217   0.488   1.352
 1464SOL    HW2 4401   2.219   0.521   1.192
 1465SOL     OW 4402   2.674   1.586   0.687
 1465SOL    HW1 4403   2.706   1.596   0.593
 1465SOL    HW2 4404   2.595   1.524   0.689
 1466SOL     OW 4405   3.286   0.214   1.112
 1466SOL    HW1 4406   3.338   0.149   1.167
 1466SOL    HW2 4407   3.237   0.277   1.173
 1467SOL     OW 4408   2.863   0.034   1.154
 1467SOL    HW1 4409   2.800  -0.038   1.123
 1467SOL    HW2 4410   2.956  -0.002   1.154
 1468SOL     OW 4411   2.632   1.330   0.301
 1468SOL    HW1 4412   2.586   1.243   0.318
 1468SOL    HW2 4413   2.723   1.327   0.342
 1469SOL     OW 4414   2.480   1.567   1.284
 1469SOL    HW1 4415   2.475   1.649   1.341
 1469SOL    HW2 4416   2.569   1.564   1.239
 1470SOL     OW 4417   3.214   0.052   0.168
 1470SOL    HW1 4418   3.249   0.011   0.084
 1470SOL    HW2 4419   3.124   0.014   0.188
 1471SOL     OW 4420   3.162   0.453   0.691
 1471SOL    HW1 4421   3.103   0.533   0.695
 1471SOL    HW2 4422   3.177   0.418   0.784
 1472SOL     OW 4423   3.455   0.221   0.882
 1472SOL    HW1 4424   3.371   0.220   0.936
 1472SOL    HW2 4425   3.457   0.304   0.826
 1473SOL     OW 4426   1.901   1.077   0.300
 1473SOL    HW1 4427   2.000   1.066   0.291
 1473SOL    HW2 4428   1.861   0.991   0.332
 1474SOL     OW 4429   2.737   1.646   0.337
 1474SOL    HW1 4430   2.660   1.611   0.283
 1474SOL    HW2 4431   2.705   1.717   0.399
 1475SOL     OW 4432   2.092   0.628   1.975
 1475SOL    HW1 4433   1.999   0.626   2.012
 1475SOL    HW2 4434   2.093   0.589   1.883
 1476SOL     OW 4435   2.087   0.275   2.858
 1476SOL    HW1 4436   2.122   0.258   2.950
 1476SOL    HW2 4437   1.999   0.230   2.846
 1477SOL     OW 4438   1.881   0.368   2.509
 1477SOL    HW1 4439   1.799   0.411   2.548
 1477SOL    HW2 4440   1.853   0.295   2.446
 1478SOL     OW 4441   2.431   1.275   3.027
 1478SOL    HW1 4442   2.338   1.268   2.990
 1478SOL    HW2 4443   2.442   1.364   3.071
 1479SOL     OW 4444   3.417   1.511   2.565
 1479SOL    HW1 4445   3.360   1.495   2.646
 1479SOL    HW2 4446   3.358   1.521   2.485
 1480SOL     OW 4447   2.997   0.703   2.579
 1480SOL    HW1 4448   3.054   0.781   2.554
 1480SOL    HW2 4449   2.937   0.729   2.655
 1481SOL     OW 4450   3.617   0.607   2.093
 1481SOL    HW1 4451   3.605   0.594   1.994
 1481SOL    HW2 4452   3.587   0.526   2.142
 1482SOL     OW 4453   2.630   1.144   2.885
 1482SOL    HW1 4454   2.552   1.161   2.945
 1482SOL    HW2 4455   2.664   1.231   2.849
 1483SOL     OW 4456   2.712   0.798   3.685
 1483SOL    HW1 4457   2.708   0.874   3.750
 1483SOL    HW2 4458   2.734   0.834   3.594
 1484SOL     OW 4459   2.547   1.012   2.527
 1484SOL    HW1 4460   2.616   0.996   2.597
 1484SOL    HW2 4461   2.474   1.069   2.565
 1485SOL     OW 4462   2.548   1.161   3.665
 1485SOL    HW1 4463   2.608   1.240   3.679
 1485SOL    HW2 4464   2.462   1.192   3.624
 1486SOL     OW 4465   2.197   1.435   2.923
 1486SOL    HW1 4466   2.119   1.404   2.870
 1486SOL    HW2 4467   2.255   1.493   2.866
 1487SOL     OW 4468   3.322   1.505   3.201
 1487SOL    HW1 4469   3.346   1.599   3.227
 1487SOL    HW2 4470   3.306   1.451   3.283
 1488SOL     OW 4471   2.300   0.392   3.361
 1488SOL    HW1 4472   2.382   0.336   3.370
 1488SOL    HW2 4473   2.219   0.334   3.365
 1489SOL     OW 4474   3.465   0.447   2.599
 1489SOL    HW1 4475   3.391   0.493   2.549
 1489SOL    HW2 4476   3.516   0.515   2.652
 1490SOL     OW 4477   2.093   1.713   2.345
 1490SOL    HW1 4478   2.127   1.790   2.399
 1490SOL    HW2 4479   2.137   1.713   2.255
 1491SOL     OW 4480   2.989   1.341   3.552
 1491SOL    HW1 4481   3.036   1.341   3.640
 1491SOL    HW2 4482   2.941   1.254   3.541
 1492SOL     OW 4483   2.092   1.434   2.400
 1492SOL    HW1 4484   2.066   1.530   2.400
 1492SOL    HW2 4485   2.021   1.380   2.445
 1493SOL     OW 4486   2.102   1.091   2.748
 1493SOL    HW1 4487   2.116   1.007   2.800
 1493SOL    HW2 4488   2.047   1.155   2.803
 1494SOL     OW 4489   2.482   1.786   3.301
 1494SOL    HW1 4490   2.390   1.769   3.336
 1494SOL    HW2 4491   2.510   1.878   3.327
 1495SOL     OW 4492   2.468   0.964   1.985
 1495SOL    HW1 4493   2.475   1.048   1.931
 1495SOL    HW2 4494   2.514   0.977   2.073
 1496SOL     OW 4495   3.456   0.114   3.342
 1496SOL    HW1 4496   3.438   0.181   3.270
 1496SOL    HW2 4497   3.453   0.160   3.431
 1497SOL     OW 4498   1.984   0.643   2.425
 1497SOL    HW1 4499   1.939   0.555   2.442
 1497SOL    HW2 4500   1.983   0.697   2.509
 1498SOL     OW 4501   3.704   1.767   2.221
 1498SOL    HW1 4502   3.758   1.738   2.301
 1498SOL    HW2 4503   3.734   1.857   2.192
 1499SOL     OW 4504   1.889   1.596   1.979
 1499SOL    HW1 4505   1.870   1.500   2.000
 1499SOL    HW2 4506   1.856   1.654   2.054
 1500SOL     OW 4507   3.551   0.922   2.474
 1500SOL    HW1 4508   3.646   0.893   2.482
 1500SOL    HW2 4509   3.543   0.987   2.399
 1501SOL     OW 4510   3.503   1.108   2.294
 1501SOL    HW1 4511   3.589   1.110   2.242
 1501SOL    HW2 4512   3.517   1.155   2.382
 1502SOL     OW 4513   1.975   0.737   3.459
 1502SOL    HW1 4514   2.063   0.724   3.504
 1502SOL    HW2 4515   1.962   0.834   3.437
 1503SOL     OW 4516   2.475   1.365   2.588
 1503SOL    HW1 4517   2.426   1.278   2.597
 1503SOL    HW2 4518   2.452   1.408   2.501
 1504SOL     OW 4519   3.155   1.228   3.285
 1504SOL    HW1 4520   3.192   1.155   3.227
 1504SOL    HW2 4521   3.207   1.233   3.370
 1505SOL     OW 4522   2.671   0.004   2.364
 1505SOL    HW1 4523   2.711   0.095   2.355
 1505SOL    HW2 4524   2.571   0.012   2.370
 1506SOL     OW 4525   2.059   0.976   3.126
 1506SOL    HW1 4526   2.148   0.931   3.112
 1506SOL    HW2 4527   1.986   0.911   3.107
 1507SOL     OW 4528   3.387   0.999   2.052
 1507SOL    HW1 4529   3.324   0.923   2.065
 1507SOL    HW2 4530   3.435   1.017   2.138
 1508SOL     OW 4531   3.049   1.792   3.478
 1508SOL    HW1 4532   3.073   1.852   3.402
 1508SOL    HW2 4533   3.056   1.697   3.448
 1509SOL     OW 4534   2.179   0.251   3.663
 1509SOL    HW1 4535   2.250   0.322   3.669
 1509SOL    HW2 4536   2.091   0.290   3.691
 1510SOL     OW 4537   3.328   1.417   2.815
 1510SOL    HW1 4538   3.269   1.423   2.895
 1510SOL    HW2 4539   3.313   1.329   2.769
 1511SOL     OW 4540   3.529   1.714   2.434
 1511SOL    HW1 4541   3.488   1.691   2.346
 1511SOL    HW2 4542   3.511   1.640   2.499
 1512SOL     OW 4543   2.460   0.729   2.132
 1512SOL    HW1 4544   2.484   0.798   2.064
 1512SOL    HW2 4545   2.382   0.762   2.186
 1513SOL     OW 4546   3.143   0.345   2.806
 1513SOL    HW1 4547   3.057   0.295   2.793
 1513SOL    HW2 4548   3.205   0.291   2.862
 1514SOL     OW 4549   3.438   1.662   2.169
 1514SOL    HW1 4550   3.527   1.708   2.172
 1514SOL    HW2 4551   3.417   1.638   2.074
 1515SOL     OW 4552   2.669   0.605   3.327
 1515SOL    HW1 4553   2.622   0.602   3.416
 1515SOL    HW2 4554   2.618   0.550   3.261
 1516SOL     OW 4555   3.256   0.469   3.536
 1516SOL    HW1 4556   3.236   0.512   3.624
 1516SOL    HW2 4557   3.334   0.407   3.545
 1517SOL     OW 4558   2.835   0.890   3.434
 1517SOL    HW1 4559   2.881   0.806   3.405
 1517SOL    HW2 4560   2.779   0.924   3.359
 1518SOL     OW 4561   2.853   0.410   3.104
 1518SOL    HW1 4562   2.776   0.444   3.158
 1518SOL    HW2 4563   2.819   0.359   3.025
 1519SOL     OW 4564   2.903   0.701   2.291
 1519SOL    HW1 4565   2.929   0.697   2.387
 1519SOL    HW2 4566   2.818   0.650   2.277
 1520SOL     OW 4567   1.938   0.811   2.651
 1520SOL    HW1 4568   2.037   0.799   2.660
 1520SOL    HW2 4569   1.914   0.906   2.672
 1521SOL     OW 4570   1.992   1.821   3.433
 1521SOL    HW1 4571   1.982   1.806   3.532
 1521SOL    HW2 4572   1.906   1.857   3.397
 1522SOL     OW 4573   2.727   0.348   2.057
 1522SOL    HW1 4574   2.786   0.411   2.008
 1522SOL    HW2 4575   2.746   0.254   2.028
 1523SOL     OW 4576   3.581   0.585   3.693
 1523SOL    HW1 4577   3.555   0.674   3.657
 1523SOL    HW2 4578   3.579   0.517   3.620
 1524SOL     OW 4579   3.224   1.144   2.407
 1524SOL    HW1 4580   3.307   1.115   2.359
 1524SOL    HW2 4581   3.175   1.211   2.351
 1525SOL     OW 4582   2.412   0.196   2.747
 1525SOL    HW1 4583   2.407   0.191   2.847
 1525SOL    HW2 4584   2.414   0.292   2.718
 1526SOL     OW 4585   2.870   1.456   2.339
 1526SOL    HW1 4586   2.824   1.528   2.287
 1526SOL    HW2 4587   2.866   1.476   2.437
 1527SOL     OW 4588   2.213   1.801   2.715
 1527SOL    HW1 4589   2.263   1.715   2.721
 1527SOL    HW2 4590   2.278   1.878   2.712
 1528SOL     OW 4591   3.657   1.066   2.735
 1528SOL    HW1 4592   3.595   1.051   2.659
 1528SOL    HW2 4593   3.605   1.077   2.820
 1529SOL     OW 4594   3.089   1.550   3.368
 1529SOL    HW1 4595   3.095   1.473   3.432
 1529SOL    HW2 4596   3.037   1.524   3.288
 1530SOL     OW 4597   2.183   0.943   2.104
 1530SOL    HW1 4598   2.265   0.982   2.062
 1530SOL    HW2 4599   2.156   0.861   2.055
 1531SOL     OW 4600   3.320   0.735   2.590
 1531SOL    HW1 4601   3.315   0.670   2.665
 1531SOL    HW2 4602   3.400   0.794   2.603
 1532SOL     OW 4603   2.323   1.266   3.589
 1532SOL    HW1 4604   2.273   1.267   3.503
 1532SOL    HW2 4605   2.260   1.248   3.665
 1533SOL     OW 4606   2.973   1.776   2.099
 1533SOL    HW1 4607   2.913   1.714   2.149
 1533SOL    HW2 4608   3.004   1.732   2.014
 1534SOL     OW 4609   2.064   0.285   3.360
 1534SOL    HW1 4610   1.984   0.345   3.347
 1534SOL    HW2 4611   2.054   0.236   3.446
 1535SOL     OW 4612   3.494   1.377   1.943
 1535SOL    HW1 4613   3.462   1.471   1.933
 1535SOL    HW2 4614   3.418   1.314   1.931
 1536SOL     OW 4615   2.326   1.743   2.185
 1536SOL    HW1 4616   2.359   1.782   2.271
 1536SOL    HW2 4617   2.402   1.736   2.120
 1537SOL     OW 4618   3.262   0.107   2.288
 1537SOL    HW1 4619   3.238   0.070   2.198
 1537SOL    HW2 4620   3.361   0.123   2.292
 1538SOL     OW 4621   2.111   1.785   3.103
 1538SOL    HW1 4622   2.168   1.720   3.153
 1538SOL    HW2 4623   2.095   1.752   3.010
 1539SOL     OW 4624   2.802   1.698   2.766
 1539SOL    HW1 4625   2.882   1.641   2.787
 1539SOL    HW2 4626   2.753   1.658   2.689
 1540SOL     OW 4627   2.244   0.700   2.342
 1540SOL    HW1 4628   2.289   0.610   2.339
 1540SOL    HW2 4629   2.150   0.689   2.375
 1541SOL     OW 4630   3.409   0.222   3.591
 1541SOL    HW1 4631   3.404   0.259   3.683
 1541SOL    HW2 4632   3.337   0.153   3.579
 1542SOL     OW 4633   2.476   0.122   1.979
 1542SOL    HW1 4634   2.574   0.100   1.986
 1542SOL    HW2 4635   2.445   0.105   1.886
 1543SOL     OW 4636   2.643   0.264   3.611
 1543SOL    HW1 4637   2.710   0.203   3.654
 1543SOL    HW2 4638   2.570   0.283   3.676
 1544SOL     OW 4639   2.750   1.514   3.057
 1544SOL    HW1 4640   2.727   1.489   2.963
 1544SOL    HW2 4641   2.811   1.445   3.096
 1545SOL     OW 4642   3.213   0.590   3.295
 1545SOL    HW1 4643   3.241   0.547   3.380
 1545SOL    HW2 4644   3.238   0.686   3.296
 1546SOL     OW 4645   2.665   1.402   2.786
 1546SOL    HW1 4646   2.755   1.416   2.744
 1546SOL    HW2 4647   2.594   1.404   2.715
 1547SOL     OW 4648   2.784   0.503   2.761
 1547SOL    HW1 4649   2.759   0.494   2.665
 1547SOL    HW2 4650   2.832   0.421   2.792
 1548SOL     OW 4651   2.401   0.064   2.374
 1548SOL    HW1 4652   2.320   0.065   2.432
 1548SOL    HW2 4653   2.404   0.147   2.319
 1549SOL     OW 4654   3.296   1.188   1.903
 1549SOL    HW1 4655   3.328   1.112   1.960
 1549SOL    HW2 4656   3.204   1.215   1.933
 1550SOL     OW 4657   2.159   0.035   2.033
 1550SOL    HW1 4658   2.208   0.119   2.012
 1550SOL    HW2 4659   2.221  -0.030   2.078
 1551SOL     OW 4660   2.797   0.236   2.342
 1551SOL    HW1 4661   2.749   0.277   2.264
 1551SOL    HW2 4662   2.896   0.234   2.323
 1552SOL     OW 4663   2.938   0.683   3.326
 1552SOL    HW1 4664   2.858   0.622   3.329
 1552SOL    HW2 4665   3.019   0.630   3.302
 1553SOL     OW 4666   3.089   1.570   2.655
 1553SOL    HW1 4667   3.110   1.644   2.590
 1553SOL    HW2 4668   3.157   1.570   2.728
 1554SOL     OW 4669   2.321   1.152   2.603
 1554SOL    HW1 4670   2.250   1.125   2.668
 1554SOL    HW2 4671   2.295   1.124   2.510
 1555SOL     OW 4672   3.133   1.797   2.453
 1555SOL    HW1 4673   3.177   1.861   2.389
 1555SOL    HW2 4674   3.083   1.849   2.523
 1556SOL     OW 4675   2.894   0.549   1.878
 1556SOL    HW1 4676   2.853   0.631   1.839
 1556SOL    HW2 4677   2.958   0.575   1.951
 1557SOL     OW 4678   1.940   0.556   3.248
 1557SOL    HW1 4679   2.032   0.555   3.207
 1557SOL    HW2 4680   1.934   0.630   3.315
 1558SOL     OW 4681   2.423   0.222   3.009
 1558SOL    HW1 4682   2.461   0.138   3.046
 1558SOL    HW2 4683   2.335   0.241   3.053
 1559SOL     OW 4684   2.728   0.454   2.504
 1559SOL    HW1 4685   2.696   0.526   2.442
 1559SOL    HW2 4686   2.752   0.373   2.451
 1560SOL     OW 4687   2.879   0.039   2.615
 1560SOL    HW1 4688   2.807   0.044   2.546
 1560SOL    HW2 4689   2.855  -0.030   2.684
 1561SOL     OW 4690   3.291   1.173   2.729
 1561SOL    HW1 4691   3.236   1.089   2.722
 1561SOL    HW2 4692   3.317   1.202   2.637
 1562SOL     OW 4693   3.328   0.590   2.854
 1562SOL    HW1 4694   3.298   0.495   2.861
 1562SOL    HW2 4695   3.401   0.606   2.920
 1563SOL     OW 4696   3.719   0.833   2.239
 1563SOL    HW1 4697   3.761   0.769   2.303
 1563SOL    HW2 4698   3.681   0.782   2.161
 1564SOL     OW 4699   2.350   1.385   2.036
 1564SOL    HW1 4700   2.263   1.370   2.083
 1564SOL    HW2 4701   2.333   1.411   1.941
 1565SOL     OW 4702   3.526   1.280   2.519
 1565SOL    HW1 4703   3.625   1.288   2.533
 1565SOL    HW2 4704   3.481   1.364   2.550
 1566SOL     OW 4705   3.252   0.575   1.940
 1566SOL    HW1 4706   3.198   0.554   2.021
 1566SOL    HW2 4707   3.343   0.534   1.949
 1567SOL     OW 4708   2.389   0.256   2.190
 1567SOL    HW1 4709   2.416   0.197   2.115
 1567SOL    HW2 4710   2.389   0.351   2.159
 1568SOL     OW 4711   3.616   1.223   3.450
 1568SOL    HW1 4712   3.707   1.184   3.437
 1568SOL    HW2 4713   3.624   1.319   3.474
 1569SOL     OW 4714   2.926   1.347   3.202
 1569SOL    HW1 4715   2.846   1.324   3.257
 1569SOL    HW2 4716   3.009   1.321   3.251
 1570SOL     OW 4717   3.454   1.629   3.487
 1570SOL    HW1 4718   3.481   1.663   3.397
 1570SOL    HW2 4719   3.533   1.591   3.533
 1571SOL     OW 4720   2.973   1.195   2.962
 1571SOL    HW1 4721   2.933   1.239   3.043
 1571SOL    HW2 4722   2.932   1.232   2.879
 1572SOL     OW 4723   3.500   1.099   2.941
 1572SOL    HW1 4724   3.505   1.180   3.000
 1572SOL    HW2 4725   3.414   1.101   2.890
 1573SOL     OW 4726   2.777   0.089   3.264
 1573SOL    HW1 4727   2.802   0.069   3.169
 1573SOL    HW2 4728   2.849   0.145   3.306
 1574SOL     OW 4729   2.842   1.116   3.581
 1574SOL    HW1 4730   2.743   1.122   3.591
 1574SOL    HW2 4731   2.865   1.036   3.525
 1575SOL     OW 4732   2.567   1.050   2.230
 1575SOL    HW1 4733   2.553   1.057   2.329
 1575SOL    HW2 4734   2.651   0.999   2.212
 1576SOL     OW 4735   2.272   0.813   3.113
 1576SOL    HW1 4736   2.358   0.825   3.163
 1576SOL    HW2 4737   2.230   0.726   3.140
 1577SOL     OW 4738   3.136   0.386   3.124
 1577SOL    HW1 4739   3.157   0.460   3.188
 1577SOL    HW2 4740   3.047   0.403   3.081
 1578SOL     OW 4741   1.926   1.564   3.193
 1578SOL    HW1 4742   1.880   1.646   3.159
 1578SOL    HW2 4743   2.024   1.583   3.202
 1579SOL     OW 4744   2.229   1.100   2.363
 1579SOL    HW1 4745   2.222   1.183   2.307
 1579SOL    HW2 4746   2.233   1.020   2.303
 1580SOL     OW 4747   2.428   0.537   2.727
 1580SOL    HW1 4748   2.440   0.603   2.653
 1580SOL    HW2 4749   2.474   0.571   2.810
 1581SOL     OW 4750   3.114   1.348   2.250
 1581SOL    HW1 4751   3.164   1.425   2.290
 1581SOL    HW2 4752   3.019   1.350   2.282
 1582SOL     OW 4753   3.134   1.445   3.004
 1582SOL    HW1 4754   3.181   1.458   3.091
 1582SOL    HW2 4755   3.068   1.371   3.013
 1583SOL     OW 4756   3.444   0.639   2.334
 1583SOL    HW1 4757   3.413   0.700   2.407
 1583SOL    HW2 4758   3.494   0.691   2.265
 1584SOL     OW 4759   2.216   1.510   3.191
 1584SOL    HW1 4760   2.195   1.466   3.104
 1584SOL    HW2 4761   2.313   1.536   3.194
 1585SOL     OW 4762   2.264   0.751   3.460
 1585SOL    HW1 4763   2.332   0.806   3.413
 1585SOL    HW2 4764   2.304   0.663   3.487
 1586SOL     OW 4765   3.449   0.779   3.532
 1586SOL    HW1 4766   3.357   0.817   3.527
 1586SOL    HW2 4767   3.509   0.826   3.467
 1587SOL     OW 4768   2.875   0.105   3.632
 1587SOL    HW1 4769   2.881   0.190   3.580
 1587SOL    HW2 4770   2.907   0.029   3.575
 1588SOL     OW 4771   2.366   0.050   3.602
 1588SOL    HW1 4772   2.324  -0.007   3.532
 1588SOL    HW2 4773   2.300   0.119   3.634
 1589SOL     OW 4774   2.435   0.870   2.891
 1589SOL    HW1 4775   2.479   0.959   2.882
 1589SOL    HW2 4776   2.372   0.870   2.968
 1590SOL     OW 4777   3.222   0.862   2.907
 1590SOL    HW1 4778   3.147   0.862   2.841
 1590SOL    HW2 4779   3.259   0.770   2.916
 1591SOL     OW 4780   3.071   0.525   2.137
 1591SOL    HW1 4781   3.084   0.441   2.191
 1591SOL    HW2 4782   3.042   0.599   2.197
 1592SOL     OW 4783   2.169   0.213   3.093
 1592SOL    HW1 4784   2.146   0.250   3.183
 1592SOL    HW2 4785   2.139   0.118   3.087
 1593SOL     OW 4786   1.899   1.310   3.144
 1593SOL    HW1 4787   1.952   1.261   3.212
 1593SOL    HW2 4788   1.921   1.408   3.149
 1594SOL     OW 4789   2.594   0.634   2.926
 1594SOL    HW1 4790   2.653   0.608   2.850
 1594SOL    HW2 4791   2.566   0.730   2.915
 1595SOL     OW 4792   3.590   0.935   3.716
 1595SOL    HW1 4793   3.544   0.928   3.627
 1595SOL    HW2 4794   3.528   0.979   3.782
 1596SOL     OW 4795   2.169   0.063   2.480
 1596SOL    HW1 4796   2.158   0.157   2.513
 1596SOL    HW2 4797   2.164   0.000   2.557
 1597SOL     OW 4798   3.484   0.367   2.236
 1597SOL    HW1 4799   3.486   0.291   2.300
 1597SOL    HW2 4800   3.436   0.444   2.276
 1598SOL     OW 4801   2.885   0.766   2.828
 1598SOL    HW1 4802   2.900   0.787   2.924
 1598SOL    HW2 4803   2.855   0.671   2.819
 1599SOL     OW 4804   2.842   1.573   3.562
 1599SOL    HW1 4805   2.822   1.617   3.474
 1599SOL    HW2 4806   2.881   1.482   3.546
 1600SOL     OW 4807   3.721   1.518   3.467
 1600SOL    HW1 4808   3.735   1.545   3.372
 1600SOL    HW2 4809   3.804   1.540   3.520
 1601SOL     OW 4810   2.212   0.898   3.666
 1601SOL    HW1 4811   2.288   0.942   3.714
 1601SOL    HW2 4812   2.247   0.851   3.584
 1602SOL     OW 4813   3.402   0.274   1.987
 1602SOL    HW1 4814   3.341   0.199   2.010
 1602SOL    HW2 4815   3.424   0.326   2.070
 1603SOL     OW 4816   3.165   0.838   1.904
 1603SOL    HW1 4817   3.199   0.745   1.919
 1603SOL    HW2 4818   3.183   0.865   1.809
 1604SOL     OW 4819   2.930   1.333   2.711
 1604SOL    HW1 4820   2.937   1.249   2.656
 1604SOL    HW2 4821   2.992   1.402   2.675
 1605SOL     OW 4822   2.181   0.810   2.811
 1605SOL    HW1 4823   2.274   0.846   2.816
 1605SOL    HW2 4824   2.175   0.725   2.863
 1606SOL     OW 4825   2.201   0.509   2.868
 1606SOL    HW1 4826   2.149   0.426   2.851
 1606SOL    HW2 4827   2.278   0.514   2.804
 1607SOL     OW 4828   3.000   0.380   3.540
 1607SOL    HW1 4829   2.955   0.443   3.604
 1607SOL    HW2 4830   3.093   0.411   3.523
 1608SOL     OW 4831   3.022   0.207   3.339
 1608SOL    HW1 4832   3.022   0.271   3.416
 1608SOL    HW2 4833   3.050   0.255   3.256
 1609SOL     OW 4834   1.870   1.326   2.062
 1609SOL    HW1 4835   1.777   1.347   2.031
 1609SOL    HW2 4836   1.880   1.227   2.075
 1610SOL     OW 4837   1.950   1.801   2.789
 1610SOL    HW1 4838   1.908   1.715   2.762
 1610SOL    HW2 4839   2.044   1.804   2.755
 1611SOL     OW 4840   2.366   1.568   2.772
 1611SOL    HW1 4841   2.432   1.642   2.781
 1611SOL    HW2 4842   2.410   1.489   2.730
 1612SOL     OW 4843   2.864   0.796   3.100
 1612SOL    HW1 4844   2.905   0.764   3.186
 1612SOL    HW2 4845   2.768   0.769   3.097
 1613SOL     OW 4846   1.902   0.544   2.976
 1613SOL    HW1 4847   1.987   0.511   2.935
 1613SOL    HW2 4848   1.915   0.559   3.074
 1614SOL     OW 4849   2.051   0.520   3.584
 1614SOL    HW1 4850   2.110   0.480   3.514
 1614SOL    HW2 4851   1.993   0.591   3.543
 1615SOL     OW 4852   3.231   0.950   3.522
 1615SOL    HW1 4853   3.270   1.039   3.542
 1615SOL    HW2 4854   3.241   0.930   3.425
 1616SOL     OW 4855   2.677   0.572   2.187
 1616SOL    HW1 4856   2.684   0.483   2.141
 1616SOL    HW2 4857   2.583   0.606   2.179
 1617SOL     OW 4858   3.519   0.604   3.068
 1617SOL    HW1 4859   3.481   0.535   3.130
 1617SOL    HW2 4860   3.601   0.568   3.024
 1618SOL     OW 4861   2.114   1.564   3.606
 1618SOL    HW1 4862   2.084   1.621   3.682
 1618SOL    HW2 4863   2.107   1.467   3.632
 1619SOL     OW 4864   2.533   0.464   3.131
 1619SOL    HW1 4865   2.499   0.375   3.101
 1619SOL    HW2 4866   2.559   0.518   3.051
 1620SOL     OW 4867   2.792   1.678   3.327
 1620SOL    HW1 4868   2.768   1.660   3.232
 1620SOL    HW2 4869   2.822   1.772   3.337
 1621SOL     OW 4870   2.335   0.500   2.053
 1621SOL    HW1 4871   2.396   0.580   2.057
 1621SOL    HW2 4872   2.240   0.531   2.060
 1622SOL     OW 4873   2.021   1.137   3.328
 1622SOL    HW1 4874   2.043   1.076   3.404
 1622SOL    HW2 4875   2.031   1.088   3.242
 1623SOL     OW 4876   3.209   1.059   3.096
 1623SOL    HW1 4877   3.233   0.996   3.022
 1623SOL    HW2 4878   3.119   1.099   3.078
 1624SOL     OW 4879   3.164   0.855   2.171
 1624SOL    HW1 4880   3.078   0.824   2.213
 1624SOL    HW2 4881   3.160   0.841   2.072
 1625SOL     OW 4882   3.621   1.747   3.016
 1625SOL    HW1 4883   3.682   1.777   2.943
 1625SOL    HW2 4884   3.583   1.658   2.994
 1626SOL     OW 4885   3.114   1.731   2.990
 1626SOL    HW1 4886   3.198   1.736   2.936
 1626SOL    HW2 4887   3.091   1.635   3.008
 1627SOL     OW 4888   1.945   1.258   2.884
 1627SOL    HW1 4889   1.940   1.257   2.984
 1627SOL    HW2 4890   1.862   1.217   2.846
 1628SOL     OW 4891   2.550   1.662   3.578
 1628SOL    HW1 4892   2.494   1.743   3.587
 1628SOL    HW2 4893   2.602   1.666   3.492
 1629SOL     OW 4894   3.588   0.135   2.385
 1629SOL    HW1 4895   3.661   0.118   2.318
 1629SOL    HW2 4896   3.557   0.048   2.423
 1630SOL     OW 4897   3.250   1.573   2.339
 1630SOL    HW1 4898   3.317   1.585   2.265
 1630SOL    HW2 4899   3.210   1.662   2.362
 1631SOL     OW 4900   1.992   1.794   3.713
 1631SOL    HW1 4901   1.951   1.720   3.766
 1631SOL    HW2 4902   2.056   1.845   3.771
 1632SOL     OW 4903   3.142   0.927   2.534
 1632SOL    HW1 4904   3.202   0.846   2.536
 1632SOL    HW2 4905   3.182   0.996   2.474
 1633SOL     OW 4906   2.692   1.273   3.284
 1633SOL    HW1 4907   2.687   1.306   3.379
 1633SOL    HW2 4908   2.606   1.292   3.238
 1634SOL     OW 4909   2.534   1.616   2.016
 1634SOL    HW1 4910   2.543   1.626   1.917
 1634SOL    HW2 4911   2.494   1.527   2.037
 1635SOL     OW 4912   3.512   1.720   3.256
 1635SOL    HW1 4913   3.565   1.730   3.172
 1635SOL    HW2 4914   3.485   1.810   3.290
 1636SOL     OW 4915   3.703   0.175   2.825
 1636SOL    HW1 4916   3.742   0.090   2.789
 1636SOL    HW2 4917   3.605   0.177   2.806
 1637SOL     OW 4918   2.125   0.326   2.582
 1637SOL    HW1 4919   2.046   0.377   2.548
 1637SOL    HW2 4920   2.116   0.311   2.680
 1638SOL     OW 4921   3.056   1.612   1.893
 1638SOL    HW1 4922   3.062   1.519   1.930
 1638SOL    HW2 4923   2.997   1.612   1.813
 1639SOL     OW 4924   2.684   1.002   3.234
 1639SOL    HW1 4925   2.724   1.001   3.142
 1639SOL    HW2 4926   2.694   1.094   3.274
 1640SOL     OW 4927   2.778   0.910   2.153
 1640SOL    HW1 4928   2.841   0.948   2.085
 1640SOL    HW2 4929   2.818   0.827   2.192
 1641SOL     OW 4930   3.366   1.607   1.906
 1641SOL    HW1 4931   3.274   1.644   1.913
 1641SOL    HW2 4932   3.404   1.627   1.816
 1642SOL     OW 4933   2.234   1.288   3.352
 1642SOL    HW1 4934   2.221   1.381   3.318
 1642SOL    HW2 4935   2.150   1.236   3.339
 1643SOL     OW 4936   3.476   1.292   3.151
 1643SOL    HW1 4937   3.536   1.295   3.231
 1643SOL    HW2 4938   3.401   1.356   3.164
 1644SOL     OW 4939   2.901   1.098   2.558
 1644SOL    HW1 4940   2.831   1.051   2.612
 1644SOL    HW2 4941   2.960   1.030   2.515
 1645SOL     OW 4942   2.876   0.236   2.833
 1645SOL    HW1 4943   2.868   0.200   2.740
 1645SOL    HW2 4944   2.874   0.160   2.898
 1646SOL     OW 4945   2.452   1.487   2.353
 1646SOL    HW1 4946   2.494   1.429   2.283
 1646SOL    HW2 4947   2.408   1.566   2.309
 1647SOL     OW 4948   3.571   0.385   3.243
 1647SOL    HW1 4949   3.644   0.454   3.247
 1647SOL    HW2 4950   3.599   0.310   3.184
 1648SOL     OW 4951   2.117   1.348   2.152
 1648SOL    HW1 4952   2.021   1.349   2.125
 1648SOL    HW2 4953   2.129   1.401   2.236
 1649SOL     OW 4954   1.967   1.013   3.588
 1649SOL    HW1 4955   1.890   0.980   3.642
 1649SOL    HW2 4956   2.052   0.983   3.630
 1650SOL     OW 4957   2.534   0.203   3.351
 1650SOL    HW1 4958   2.624   0.187   3.311
 1650SOL    HW2 4959   2.542   0.208   3.450
 1651SOL     OW 4960   1.937   0.345   1.895
 1651SOL    HW1 4961   1.845   0.317   1.866
 1651SOL    HW2 4962   1.968   0.422   1.839
 1652SOL     OW 4963   3.302   0.856   3.260
 1652SOL    HW1 4964   3.245   0.908   3.197
 1652SOL    HW2 4965   3.398   0.868   3.236
 1653SOL     OW 4966   1.934   0.166   2.180
 1653SOL    HW1 4967   1.917   0.249   2.126
 1653SOL    HW2 4968   2.024   0.129   2.158
 1654SOL     OW 4969   3.045   1.335   1.981
 1654SOL    HW1 4970   2.946   1.324   1.983
 1654SOL    HW2 4971   3.079   1.350   2.074
 1655SOL     OW 4972   2.475   0.842   3.293
 1655SOL    HW1 4973   2.531   0.923   3.276
 1655SOL    HW2 4974   2.534   0.762   3.296
 1656SOL     OW 4975   3.355   1.767   2.821
 1656SOL    HW1 4976   3.388   1.831   2.752
 1656SOL    HW2 4977   3.421   1.761   2.896
 1657SOL     OW 4978   2.578   0.565   3.570
 1657SOL    HW1 4979   2.597   0.630   3.644
 1657SOL    HW2 4980   2.638   0.485   3.579
 1658SOL     OW 4981   3.312   1.220   3.495
 1658SOL    HW1 4982   3.303   1.210   3.594
 1658SOL    HW2 4983   3.408   1.213   3.469
 1659SOL     OW 4984   2.252   1.741   3.422
 1659SOL    HW1 4985   2.161   1.782   3.420
 1659SOL    HW2 4986   2.245   1.647   3.454
 1660SOL     OW 4987   3.536   0.883   3.116
 1660SOL    HW1 4988   3.509   0.794   3.079
 1660SOL    HW2 4989   3.537   0.951   3.043
 1661SOL     OW 4990   3.087   0.325   2.311
 1661SOL    HW1 4991   3.152   0.251   2.300
 1661SOL    HW2 4992   3.107   0.375   2.395
 1662SOL     OW 4993   2.456   0.745   2.514
 1662SOL    HW1 4994   2.506   0.830   2.495
 1662SOL    HW2 4995   2.368   0.747   2.466
 1663SOL     OW 4996   3.639   0.342   3.504
 1663SOL    HW1 4997   3.622   0.373   3.410
 1663SOL    HW2 4998   3.555   0.305   3.542
 1664SOL     OW 4999   3.592   0.934   3.379
 1664SOL    HW1 5000   3.630   1.025   3.394
 1664SOL    HW2 5001   3.584   0.917   3.280
 1665SOL     OW 5002   2.721   1.374   1.878
 1665SOL    HW1 5003   2.675   1.389   1.966
 1665SOL    HW2 5004   2.765   1.459   1.848
 1666SOL     OW 5005   2.523   1.790   2.815
 1666SOL    HW1 5006   2.477   1.878   2.802
 1666SOL    HW2 5007   2.622   1.802   2.808
 1667SOL     OW 5008   2.721   0.956   2.723
 1667SOL    HW1 5009   2.775   0.887   2.771
 1667SOL    HW2 5010   2.689   1.025   2.789
 1668SOL     OW 5011   2.945   0.984   1.949
 1668SOL    HW1 5012   2.922   1.037   1.867
 1668SOL    HW2 5013   3.026   0.928   1.930
 1669SOL     OW 5014   3.723   1.569   2.713
 1669SOL    HW1 5015   3.652   1.557   2.643
 1669SOL    HW2 5016   3.724   1.490   2.773
 1670SOL     OW 5017   2.083   1.314   3.706
 1670SOL    HW1 5018   2.018   1.241   3.685
 1670SOL    HW2 5019   2.087   1.328   3.804
 1671SOL     OW 5020   1.941   1.240   2.515
 1671SOL    HW1 5021   1.940   1.193   2.603
 1671SOL    HW2 5022   2.023   1.212   2.464
 1672SOL     OW 5023   2.534   1.391   3.486
 1672SOL    HW1 5024   2.456   1.341   3.524
 1672SOL    HW2 5025   2.531   1.486   3.517
 1673SOL     OW 5026   3.686   0.192   3.089
 1673SOL    HW1 5027   3.682   0.102   3.133
 1673SOL    HW2 5028   3.689   0.181   2.990
 1674SOL     OW 5029   2.290   0.424   2.382
 1674SOL    HW1 5030   2.320   0.352   2.320
 1674SOL    HW2 5031   2.251   0.384   2.465
 1675SOL     OW 5032   3.567   1.487   2.966
 1675SOL    HW1 5033   3.474   1.462   2.939
 1675SOL    HW2 5034   3.593   1.437   3.048
 1676SOL     OW 5035   2.179   0.547   3.142
 1676SOL    HW1 5036   2.217   0.488   3.214
 1676SOL    HW2 5037   2.219   0.521   3.054
 1677SOL     OW 5038   2.674   1.586   2.549
 1677SOL    HW1 5039   2.706   1.596   2.455
 1677SOL    HW2 5040   2.595   1.524   2.551
 1678SOL     OW 5041   3.286   0.214   2.974
 1678SOL    HW1 5042   3.338   0.149   3.029
 1678SOL    HW2 5043   3.237   0.277   3.035
 1679SOL     OW 5044   2.863   0.034   3.016
 1679SOL    HW1 5045   2.800  -0.038   2.985
 1679SOL    HW2 5046   2.956  -0.002   3.016
 1680SOL     OW 5047   2.632   1.330   2.163
 1680SOL    HW1 5048   2.586   1.243   2.180
 1680SOL    HW2 5049   2.723   1.327   2.204
 1681SOL     OW 5050   2.480   1.567   3.146
 1681SOL    HW1 5051   2.475   1.649   3.203
 1681SOL    HW2 5052   2.569   1.564   3.101
 1682SOL     OW 5053   3.214   0.052   2.030
 1682SOL    HW1 5054   3.249   0.011   1.946
 1682SOL    HW2 5055   3.124   0.014   2.050
 1683SOL     OW 5056   3.162   0.453   2.553
 1683SOL    HW1 5057   3.103   0.533   2.557
 1683SOL    HW2 5058   3.177   0.418   2.646
 1684SOL     OW 5059   3.455   0.221   2.744
 1684SOL    HW1 5060   3.371   0.220   2.798
 1684SOL    HW2 5061   3.457   0.304   2.688
 1685SOL     OW 5062   1.901   1.077   2.162
 1685SOL    HW1 5063   2.000   1.066   2.153
 1685SOL    HW2 5064   1.861   0.991   2.194
 1686SOL     OW 5065   2.737   1.646   2.199
 1686SOL    HW1 5066   2.660   1.611   2.145
 1686SOL    HW2 5067   2.705   1.717   2.261
 1687SOL     OW 5068   2.092   0.628   3.837
 1687SOL    HW1 5069   1.999   0.626   3.874
 1687SOL    HW2 5070   2.093   0.589   3.745
 1688SOL     OW 5071   1.881   0.368   4.371
 1688SOL    HW1 5072   1.799   0.411   4.410
 1688SOL    HW2 5073   1.853   0.295   4.308
 1689SOL     OW 5074   3.617   0.607   3.955
 1689SOL    HW1 5075   3.605   0.594   3.856
 1689SOL    HW2 5076   3.587   0.526   4.004
 1690SOL     OW 5077   2.547   1.012   4.389
 1690SOL    HW1 5078   2.616   0.996   4.459
 1690SOL    HW2 5079   2.474   1.069   4.427
 1691SOL     OW 5080   3.465   0.447   4.461
 1691SOL    HW1 5081   3.391   0.493   4.411
 1691SOL    HW2 5082   3.516   0.515   4.514
 1692SOL     OW 5083   2.093   1.713   4.207
 1692SOL    HW1 5084   2.127   1.790   4.261
 1692SOL    HW2 5085   2.137   1.713   4.117
 1693SOL     OW 5086   2.092   1.434   4.262
 1693SOL    HW1 5087   2.066   1.530   4.262
 1693SOL    HW2 5088   2.021   1.380   4.307
 1694SOL     OW 5089   2.468   0.964   3.847
 1694SOL    HW1 5090   2.475   1.048   3.793
 1694SOL    HW2 5091   2.514   0.977   3.935
 1695SOL     OW 5092   1.984   0.643   4.287
 1695SOL    HW1 5093   1.939   0.555   4.304
 1695SOL    HW2 5094   1.983   0.697   4.371
 1696SOL     OW 5095   3.704   1.767   4.083
 1696SOL    HW1 5096   3.758   1.738   4.163
 1696SOL    HW2 5097   3.734   1.857   4.054
 1697SOL     OW 5098   1.889   1.596   3.841
 1697SOL    HW1 5099   1.870   1.500   3.862
 1697SOL    HW2 5100   1.856   1.654   3.916
 1698SOL     OW 5101   3.551   0.922   4.336
 1698SOL    HW1 5102   3.646   0.893   4.344
 1698SOL    HW2 5103   3.543   0.987   4.261
 1699SOL     OW 5104   3.503   1.108   4.156
 1699SOL    HW1 5105   3.589   1.110   4.104
 1699SOL    HW2 5106   3.517   1.155   4.244
 1700SOL     OW 5107   2.475   1.365   4.450
 1700SOL    HW1 5108   2.426   1.278   4.459
 1700SOL    HW2 5109   2.452   1.408   4.363
 1701SOL     OW 5110   2.671   0.004   4.226
 1701SOL    HW1 5111   2.711   0.095   4.217
 1701SOL    HW2 5112   2.571   0.012   4.232
 1702SOL     OW 5113   3.387   0.999   3.914
 1702SOL    HW1 5114   3.324   0.923   3.927
 1702SOL    HW2 5115   3.435   1.017   4.000
 1703SOL     OW 5116   3.529   1.714   4.296
 1703SOL    HW1 5117   3.488   1.691   4.208
 1703SOL    HW2 5118   3.511   1.640   4.361
 1704SOL     OW 5119   2.460   0.729   3.994
 1704SOL    HW1 5120   2.484   0.798   3.926
 1704SOL    HW2 5121   2.382   0.762   4.048
 1705SOL     OW 5122   3.143   0.345   4.668
 1705SOL    HW1 5123   3.057   0.295   4.655
 1705SOL    HW2 5124   3.205   0.291   4.724
 1706SOL     OW 5125   3.438   1.662   4.031
 1706SOL    HW1 5126   3.527   1.708   4.034
 1706SOL    HW2 5127   3.417   1.638   3.936
 1707SOL     OW 5128   2.903   0.701   4.153
 1707SOL    HW1 5129   2.929   0.697   4.249
 1707SOL    HW2 5130   2.818   0.650   4.139
 1708SOL     OW 5131   1.938   0.811   4.513
 1708SOL    HW1 5132   2.037   0.799   4.522
 1708SOL    HW2 5133   1.914   0.906   4.534
 1709SOL     OW 5134   2.727   0.348   3.919
 1709SOL    HW1 5135   2.786   0.411   3.870
 1709SOL    HW2 5136   2.746   0.254   3.890
 1710SOL     OW 5137   3.224   1.144   4.269
 1710SOL    HW1 5138   3.307   1.115   4.221
 1710SOL    HW2 5139   3.175   1.211   4.213
 1711SOL     OW 5140   2.870   1.456   4.201
 1711SOL    HW1 5141   2.824   1.528   4.149
 1711SOL    HW2 5142   2.866   1.476   4.299
 1712SOL     OW 5143   2.213   1.801   4.577
 1712SOL    HW1 5144   2.263   1.715   4.583
 1712SOL    HW2 5145   2.278   1.878   4.574
 1713SOL     OW 5146   3.657   1.066   4.597
 1713SOL    HW1 5147   3.595   1.051   4.521
 1713SOL    HW2 5148   3.605   1.077   4.682
 1714SOL     OW 5149   2.183   0.943   3.966
 1714SOL    HW1 5150   2.265   0.982   3.924
 1714SOL    HW2 5151   2.156   0.861   3.917
 1715SOL     OW 5152   2.973   1.776   3.961
 1715SOL    HW1 5153   2.913   1.714   4.011
 1715SOL    HW2 5154   3.004   1.732   3.876
 1716SOL     OW 5155   3.494   1.377   3.805
 1716SOL    HW1 5156   3.462   1.471   3.795
 1716SOL    HW2 5157   3.418   1.314   3.793
 1717SOL     OW 5158   2.326   1.743   4.047
 1717SOL    HW1 5159   2.359   1.782   4.133
 1717SOL    HW2 5160   2.402   1.736   3.982
 1718SOL     OW 5161   3.262   0.107   4.150
 1718SOL    HW1 5162   3.238   0.070   4.060
 1718SOL    HW2 5163   3.361   0.123   4.154
 1719SOL     OW 5164   2.802   1.698   4.628
 1719SOL    HW1 5165   2.882   1.641   4.649
 1719SOL    HW2 5166   2.753   1.658   4.551
 1720SOL     OW 5167   2.244   0.700   4.204
 1720SOL    HW1 5168   2.289   0.610   4.201
 1720SOL    HW2 5169   2.150   0.689   4.237
 1721SOL     OW 5170   2.476   0.122   3.841
 1721SOL    HW1 5171   2.574   0.100   3.848
 1721SOL    HW2 5172   2.445   0.105   3.748
 1722SOL     OW 5173   2.401   0.064   4.236
 1722SOL    HW1 5174   2.320   0.065   4.294
 1722SOL    HW2 5175   2.404   0.147   4.181
 1723SOL     OW 5176   3.296   1.188   3.765
 1723SOL    HW1 5177   3.328   1.112   3.822
 1723SOL    HW2 5178   3.204   1.215   3.795
 1724SOL     OW 5179   2.159   0.035   3.895
 1724SOL    HW1 5180   2.208   0.119   3.874
 1724SOL    HW2 5181   2.221  -0.030   3.940
 1725SOL     OW 5182   2.797   0.236   4.204
 1725SOL    HW1 5183   2.749   0.277   4.126
 1725SOL    HW2 5184   2.896   0.234   4.185
 1726SOL     OW 5185   2.321   1.152   4.465
 1726SOL    HW1 5186   2.250   1.125   4.530
 1726SOL    HW2 5187   2.295   1.124   4.372
 1727SOL     OW 5188   3.133   1.797   4.315
 1727SOL    HW1 5189   3.177   1.861   4.251
 1727SOL    HW2 5190   3.083   1.849   4.385
 1728SOL     OW 5191   2.894   0.549   3.740
 1728SOL    HW1 5192   2.853   0.631   3.701
 1728SOL    HW2 5193   2.958   0.575   3.813
 1729SOL     OW 5194   2.728   0.454   4.366
 1729SOL    HW1 5195   2.696   0.526   4.304
 1729SOL    HW2 5196   2.752   0.373   4.313
 1730SOL     OW 5197   3.719   0.833   4.101
 1730SOL    HW1 5198   3.761   0.769   4.165
 1730SOL    HW2 5199   3.681   0.782   4.023
 1731SOL     OW 5200   2.350   1.385   3.898
 1731SOL    HW1 5201   2.263   1.370   3.945
 1731SOL    HW2 5202   2.333   1.411   3.803
 1732SOL     OW 5203   3.526   1.280   4.381
 1732SOL    HW1 5204   3.625   1.288   4.395
 1732SOL    HW2 5205   3.481   1.364   4.412
 1733SOL     OW 5206   3.252   0.575   3.802
 1733SOL    HW1 5207   3.198   0.554   3.883
 1733SOL    HW2 5208   3.343   0.534   3.811
 1734SOL     OW 5209   2.389   0.256   4.052
 1734SOL    HW1 5210   2.416   0.197   3.977
 1734SOL    HW2 5211   2.389   0.351   4.021
 1735SOL     OW 5212   2.567   1.050   4.092
 1735SOL    HW1 5213   2.553   1.057   4.191
 1735SOL    HW2 5214   2.651   0.999   4.074
 1736SOL     OW 5215   2.229   1.100   4.225
 1736SOL    HW1 5216   2.222   1.183   4.169
 1736SOL    HW2 5217   2.233   1.020   4.165
 1737SOL     OW 5218   3.114   1.348   4.112
 1737SOL    HW1 5219   3.164   1.425   4.152
 1737SOL    HW2 5220   3.019   1.350   4.144
 1738SOL     OW 5221   3.444   0.639   4.196
 1738SOL    HW1 5222   3.413   0.700   4.269
 1738SOL    HW2 5223   3.494   0.691   4.127
 1739SOL     OW 5224   3.071   0.525   3.999
 1739SOL    HW1 5225   3.084   0.441   4.053
 1739SOL    HW2 5226   3.042   0.599   4.059
 1740SOL     OW 5227   2.169   0.063   4.342
 1740SOL    HW1 5228   2.158   0.157   4.375
 1740SOL    HW2 5229   2.164   0.000   4.419
 1741SOL     OW 5230   3.484   0.367   4.098
 1741SOL    HW1 5231   3.486   0.291   4.162
 1741SOL    HW2 5232   3.436   0.444   4.138
 1742SOL     OW 5233   3.402   0.274   3.849
 1742SOL    HW1 5234   3.341   0.199   3.872
 1742SOL    HW2 5235   3.424   0.326   3.932
 1743SOL     OW 5236   3.165   0.838   3.766
 1743SOL    HW1 5237   3.199   0.745   3.781
 1743SOL    HW2 5238   3.183   0.865   3.671
 1744SOL     OW 5239   1.870   1.326   3.924
 1744SOL    HW1 5240   1.777   1.347   3.893
 1744SOL    HW2 5241   1.880   1.227   3.937
 1745SOL     OW 5242   1.902   0.544   4.838
 1745SOL    HW1 5243   1.987   0.511   4.797
 1745SOL    HW2 5244   1.915   0.559   4.936
 1746SOL     OW 5245   2.677   0.572   4.049
 1746SOL    HW1 5246   2.684   0.483   4.003
 1746SOL    HW2 5247   2.583   0.606   4.041
 1747SOL     OW 5248   2.335   0.500   3.915
 1747SOL    HW1 5249   2.396   0.580   3.919
 1747SOL    HW2 5250   2.240   0.531   3.922
 1748SOL     OW 5251   3.164   0.855   4.033
 1748SOL    HW1 5252   3.078   0.824   4.075
 1748SOL    HW2 5253   3.160   0.841   3.934
 1749SOL     OW 5254   3.588   0.135   4.247
 1749SOL    HW1 5255   3.661   0.118   4.180
 1749SOL    HW2 5256   3.557   0.048   4.285
 1750SOL     OW 5257   3.250   1.573   4.201
 1750SOL    HW1 5258   3.317   1.585   4.127
 1750SOL    HW2 5259   3.210   1.662   4.224
 1751SOL     OW 5260   2.534   1.616   3.878
 1751SOL    HW1 5261   2.543   1.626   3.779
 1751SOL    HW2 5262   2.494   1.527   3.899
 1752SOL     OW 5263   3.703   0.175   4.687
 1752SOL    HW1 5264   3.742   0.090   4.651
 1752SOL    HW2 5265   3.605   0.177   4.668
 1753SOL     OW 5266   2.125   0.326   4.444
 1753SOL    HW1 5267   2.046   0.377   4.410
 1753SOL    HW2 5268   2.116   0.311   4.542
 1754SOL     OW 5269   3.056   1.612   3.755
 1754SOL    HW1 5270   3.062   1.519   3.792
 1754SOL    HW2 5271   2.997   1.612   3.675
 1755SOL     OW 5272   2.778   0.910   4.015
 1755SOL    HW1 5273   2.841   0.948   3.947
 1755SOL    HW2 5274   2.818   0.827   4.054
 1756SOL     OW 5275   3.366   1.607   3.768
 1756SOL    HW1 5276   3.274   1.644   3.775
 1756SOL    HW2 5277   3.404   1.627   3.678
 1757SOL     OW 5278   2.452   1.487   4.215
 1757SOL    HW1 5279   2.494   1.429   4.145
 1757SOL    HW2 5280   2.408   1.566   4.171
 1758SOL     OW 5281   2.117   1.348   4.014
 1758SOL    HW1 5282   2.021   1.349   3.987
 1758SOL    HW2 5283   2.129   1.401   4.098
 1759SOL     OW 5284   1.937   0.345   3.757
 1759SOL    HW1 5285   1.845   0.317   3.728
 1759SOL    HW2 5286   1.968   0.422   3.701
 1760SOL     OW 5287   1.934   0.166   4.042
 1760SOL    HW1 5288   1.917   0.249   3.988
 1760SOL    HW2 5289   2.024   0.129   4.020
 1761SOL     OW 5290   3.045   1.335   3.843
 1761SOL    HW1 5291   2.946   1.324   3.845
 1761SOL    HW2 5292   3.079   1.350   3.936
 1762SOL     OW 5293   3.087   0.325   4.173
 1762SOL    HW1 5294   3.152   0.251   4.162
 1762SOL    HW2 5295   3.107   0.375   4.257
 1763SOL     OW 5296   2.456   0.745   4.376
 1763SOL    HW1 5297   2.506   0.830   4.357
 1763SOL    HW2 5298   2.368   0.747   4.328
 1764SOL     OW 5299   2.721   1.374   3.740
 1764SOL    HW1 5300   2.675   1.389   3.828
 1764SOL    HW2 5301   2.765   1.459   3.710
 1765SOL     OW 5302   2.523   1.790   4.677
 1765SOL    HW1 5303   2.477   1.878   4.664
 1765SOL    HW2 5304   2.622   1.802   4.670
 1766SOL     OW 5305   2.721   0.956   4.585
 1766SOL    HW1 5306   2.775   0.887   4.633
 1766SOL    HW2 5307   2.689   1.025   4.651
 1767SOL     OW 5308   2.945   0.984   3.811
 1767SOL    HW1 5309   2.922   1.037   3.729
 1767SOL    HW2 5310   3.026   0.928   3.792
 1768SOL     OW 5311   1.941   1.240   4.377
 1768SOL    HW1 5312   1.940   1.193   4.465
 1768SOL    HW2 5313   2.023   1.212   4.326
 1769SOL     OW 5314   2.290   0.424   4.244
 1769SOL    HW1 5315   2.320   0.352   4.182
 1769SOL    HW2 5316   2.251   0.384   4.327
 1770SOL     OW 5317   2.674   1.586   4.411
 1770SOL    HW1 5318   2.706   1.596   4.317
 1770SOL    HW2 5319   2.595   1.524   4.413
 1771SOL     OW 5320   2.632   1.330   4.025
 1771SOL    HW1 5321   2.586   1.243   4.042
 1771SOL    HW2 5322   2.723   1.327   4.066
 1772SOL     OW 5323   3.214   0.052   3.892
 1772SOL    HW1 5324   3.249   0.011   3.808
 1772SOL    HW2 5325   3.124   0.014   3.912
 1773SOL     OW 5326   3.162   0.453   4.415
 1773SOL    HW1 5327   3.103   0.533   4.419
 1773SOL    HW2 5328   3.177   0.418   4.508
 1774SOL     OW 5329   1.901   1.077   4.024
 1774SOL    HW1 5330   2.000   1.066   4.015
 1774SOL    HW2 5331   1.861   0.991   4.056
 1775SOL     OW 5332   2.737   1.646   4.061
 1775SOL    HW1 5333   2.660   1.611   4.007
 1775SOL    HW2 5334   2.705   1.717   4.123
 1776SOL     OW 5335   2.092   2.490   0.113
 1776SOL    HW1 5336   1.999   2.488   0.150
 1776SOL    HW2 5337   2.093   2.451   0.021
 1777SOL     OW 5338   2.087   2.137   0.996
 1777SOL    HW1 5339   2.122   2.120   1.088
 1777SOL    HW2 5340   1.999   2.092   0.984
 1778SOL     OW 5341   1.881   2.230   0.647
 1778SOL    HW1 5342   1.799   2.273   0.686
 1778SOL    HW2 5343   1.853   2.157   0.584
 1779SOL     OW 5344   2.431   3.137   1.165
 1779SOL    HW1 5345   2.338   3.130   1.128
 1779SOL    HW2 5346   2.442   3.226   1.209
 1780SOL     OW 5347   3.417   3.373   0.703
 1780SOL    HW1 5348   3.360   3.357   0.784
 1780SOL    HW2 5349   3.358   3.383   0.623
 1781SOL     OW 5350   2.997   2.565   0.717
 1781SOL    HW1 5351   3.054   2.643   0.692
 1781SOL    HW2 5352   2.937   2.591   0.793
 1782SOL     OW 5353   3.617   2.469   0.231
 1782SOL    HW1 5354   3.605   2.456   0.132
 1782SOL    HW2 5355   3.587   2.388   0.280
 1783SOL     OW 5356   2.630   3.006   1.023
 1783SOL    HW1 5357   2.552   3.023   1.083
 1783SOL    HW2 5358   2.664   3.093   0.987
 1784SOL     OW 5359   2.712   2.660   1.823
 1784SOL    HW1 5360   2.708   2.736   1.888
 1784SOL    HW2 5361   2.734   2.696   1.732
 1785SOL     OW 5362   2.547   2.874   0.665
 1785SOL    HW1 5363   2.616   2.858   0.735
 1785SOL    HW2 5364   2.474   2.931   0.703
 1786SOL     OW 5365   2.548   3.023   1.803
 1786SOL    HW1 5366   2.608   3.102   1.817
 1786SOL    HW2 5367   2.462   3.054   1.762
 1787SOL     OW 5368   2.197   3.297   1.061
 1787SOL    HW1 5369   2.119   3.266   1.008
 1787SOL    HW2 5370   2.255   3.355   1.004
 1788SOL     OW 5371   3.322   3.367   1.339
 1788SOL    HW1 5372   3.346   3.461   1.365
 1788SOL    HW2 5373   3.306   3.313   1.421
 1789SOL     OW 5374   2.300   2.254   1.499
 1789SOL    HW1 5375   2.382   2.198   1.508
 1789SOL    HW2 5376   2.219   2.196   1.503
 1790SOL     OW 5377   3.465   2.309   0.737
 1790SOL    HW1 5378   3.391   2.355   0.687
 1790SOL    HW2 5379   3.516   2.377   0.790
 1791SOL     OW 5380   2.093   3.575   0.483
 1791SOL    HW1 5381   2.127   3.652   0.537
 1791SOL    HW2 5382   2.137   3.575   0.393
 1792SOL     OW 5383   2.989   3.203   1.690
 1792SOL    HW1 5384   3.036   3.203   1.778
 1792SOL    HW2 5385   2.941   3.116   1.679
 1793SOL     OW 5386   2.092   3.296   0.538
 1793SOL    HW1 5387   2.066   3.392   0.538
 1793SOL    HW2 5388   2.021   3.242   0.583
 1794SOL     OW 5389   2.102   2.953   0.886
 1794SOL    HW1 5390   2.116   2.869   0.938
 1794SOL    HW2 5391   2.047   3.017   0.941
 1795SOL     OW 5392   2.482   3.648   1.439
 1795SOL    HW1 5393   2.390   3.631   1.474
 1795SOL    HW2 5394   2.510   3.740   1.465
 1796SOL     OW 5395   2.468   2.826   0.123
 1796SOL    HW1 5396   2.475   2.910   0.069
 1796SOL    HW2 5397   2.514   2.839   0.211
 1797SOL     OW 5398   3.456   1.976   1.480
 1797SOL    HW1 5399   3.438   2.043   1.408
 1797SOL    HW2 5400   3.453   2.022   1.569
 1798SOL     OW 5401   1.984   2.505   0.563
 1798SOL    HW1 5402   1.939   2.417   0.580
 1798SOL    HW2 5403   1.983   2.559   0.647
 1799SOL     OW 5404   3.704   3.629   0.359
 1799SOL    HW1 5405   3.758   3.600   0.439
 1799SOL    HW2 5406   3.734   3.719   0.330
 1800SOL     OW 5407   1.889   3.458   0.117
 1800SOL    HW1 5408   1.870   3.362   0.138
 1800SOL    HW2 5409   1.856   3.516   0.192
 1801SOL     OW 5410   3.551   2.784   0.612
 1801SOL    HW1 5411   3.646   2.755   0.620
 1801SOL    HW2 5412   3.543   2.849   0.537
 1802SOL     OW 5413   3.503   2.970   0.432
 1802SOL    HW1 5414   3.589   2.972   0.380
 1802SOL    HW2 5415   3.517   3.017   0.520
 1803SOL     OW 5416   1.975   2.599   1.597
 1803SOL    HW1 5417   2.063   2.586   1.642
 1803SOL    HW2 5418   1.962   2.696   1.575
 1804SOL     OW 5419   2.475   3.227   0.726
 1804SOL    HW1 5420   2.426   3.140   0.735
 1804SOL    HW2 5421   2.452   3.270   0.639
 1805SOL     OW 5422   3.155   3.090   1.423
 1805SOL    HW1 5423   3.192   3.017   1.365
 1805SOL    HW2 5424   3.207   3.095   1.508
 1806SOL     OW 5425   2.671   1.866   0.502
 1806SOL    HW1 5426   2.711   1.957   0.493
 1806SOL    HW2 5427   2.571   1.874   0.508
 1807SOL     OW 5428   2.059   2.838   1.264
 1807SOL    HW1 5429   2.148   2.793   1.250
 1807SOL    HW2 5430   1.986   2.773   1.245
 1808SOL     OW 5431   3.387   2.861   0.190
 1808SOL    HW1 5432   3.324   2.785   0.203
 1808SOL    HW2 5433   3.435   2.879   0.276
 1809SOL     OW 5434   3.049   3.654   1.616
 1809SOL    HW1 5435   3.073   3.714   1.540
 1809SOL    HW2 5436   3.056   3.559   1.586
 1810SOL     OW 5437   2.179   2.113   1.801
 1810SOL    HW1 5438   2.250   2.184   1.807
 1810SOL    HW2 5439   2.091   2.152   1.829
 1811SOL     OW 5440   3.328   3.279   0.953
 1811SOL    HW1 5441   3.269   3.285   1.033
 1811SOL    HW2 5442   3.313   3.191   0.907
 1812SOL     OW 5443   3.529   3.576   0.572
 1812SOL    HW1 5444   3.488   3.553   0.484
 1812SOL    HW2 5445   3.511   3.502   0.637
 1813SOL     OW 5446   2.460   2.591   0.270
 1813SOL    HW1 5447   2.484   2.660   0.202
 1813SOL    HW2 5448   2.382   2.624   0.324
 1814SOL     OW 5449   3.143   2.207   0.944
 1814SOL    HW1 5450   3.057   2.157   0.931
 1814SOL    HW2 5451   3.205   2.153   1.000
 1815SOL     OW 5452   3.438   3.524   0.307
 1815SOL    HW1 5453   3.527   3.570   0.310
 1815SOL    HW2 5454   3.417   3.500   0.212
 1816SOL     OW 5455   2.669   2.467   1.465
 1816SOL    HW1 5456   2.622   2.464   1.554
 1816SOL    HW2 5457   2.618   2.412   1.399
 1817SOL     OW 5458   3.256   2.331   1.674
 1817SOL    HW1 5459   3.236   2.374   1.762
 1817SOL    HW2 5460   3.334   2.269   1.683
 1818SOL     OW 5461   2.835   2.752   1.572
 1818SOL    HW1 5462   2.881   2.668   1.543
 1818SOL    HW2 5463   2.779   2.786   1.497
 1819SOL     OW 5464   2.853   2.272   1.242
 1819SOL    HW1 5465   2.776   2.306   1.296
 1819SOL    HW2 5466   2.819   2.221   1.163
 1820SOL     OW 5467   2.903   2.563   0.429
 1820SOL    HW1 5468   2.929   2.559   0.525
 1820SOL    HW2 5469   2.818   2.512   0.415
 1821SOL     OW 5470   1.938   2.673   0.789
 1821SOL    HW1 5471   2.037   2.661   0.798
 1821SOL    HW2 5472   1.914   2.768   0.810
 1822SOL     OW 5473   1.992   3.683   1.571
 1822SOL    HW1 5474   1.982   3.668   1.670
 1822SOL    HW2 5475   1.906   3.719   1.535
 1823SOL     OW 5476   2.727   2.210   0.195
 1823SOL    HW1 5477   2.786   2.273   0.146
 1823SOL    HW2 5478   2.746   2.116   0.166
 1824SOL     OW 5479   3.581   2.447   1.831
 1824SOL    HW1 5480   3.555   2.536   1.795
 1824SOL    HW2 5481   3.579   2.379   1.758
 1825SOL     OW 5482   3.224   3.006   0.545
 1825SOL    HW1 5483   3.307   2.977   0.497
 1825SOL    HW2 5484   3.175   3.073   0.489
 1826SOL     OW 5485   2.412   2.058   0.885
 1826SOL    HW1 5486   2.407   2.053   0.985
 1826SOL    HW2 5487   2.414   2.154   0.856
 1827SOL     OW 5488   2.870   3.318   0.477
 1827SOL    HW1 5489   2.824   3.390   0.425
 1827SOL    HW2 5490   2.866   3.338   0.575
 1828SOL     OW 5491   2.213   3.663   0.853
 1828SOL    HW1 5492   2.263   3.577   0.859
 1828SOL    HW2 5493   2.278   3.740   0.850
 1829SOL     OW 5494   3.657   2.928   0.873
 1829SOL    HW1 5495   3.595   2.913   0.797
 1829SOL    HW2 5496   3.605   2.939   0.958
 1830SOL     OW 5497   3.089   3.412   1.506
 1830SOL    HW1 5498   3.095   3.335   1.570
 1830SOL    HW2 5499   3.037   3.386   1.426
 1831SOL     OW 5500   2.183   2.805   0.242
 1831SOL    HW1 5501   2.265   2.844   0.200
 1831SOL    HW2 5502   2.156   2.723   0.193
 1832SOL     OW 5503   3.320   2.597   0.728
 1832SOL    HW1 5504   3.315   2.532   0.803
 1832SOL    HW2 5505   3.400   2.656   0.741
 1833SOL     OW 5506   2.323   3.128   1.727
 1833SOL    HW1 5507   2.273   3.129   1.641
 1833SOL    HW2 5508   2.260   3.110   1.803
 1834SOL     OW 5509   2.973   3.638   0.237
 1834SOL    HW1 5510   2.913   3.576   0.287
 1834SOL    HW2 5511   3.004   3.594   0.152
 1835SOL     OW 5512   2.064   2.147   1.498
 1835SOL    HW1 5513   1.984   2.207   1.485
 1835SOL    HW2 5514   2.054   2.098   1.584
 1836SOL     OW 5515   3.494   3.239   0.081
 1836SOL    HW1 5516   3.462   3.333   0.071
 1836SOL    HW2 5517   3.418   3.176   0.069
 1837SOL     OW 5518   2.326   3.605   0.323
 1837SOL    HW1 5519   2.359   3.644   0.409
 1837SOL    HW2 5520   2.402   3.598   0.258
 1838SOL     OW 5521   3.262   1.969   0.426
 1838SOL    HW1 5522   3.238   1.932   0.336
 1838SOL    HW2 5523   3.361   1.985   0.430
 1839SOL     OW 5524   2.111   3.647   1.241
 1839SOL    HW1 5525   2.168   3.582   1.291
 1839SOL    HW2 5526   2.095   3.614   1.148
 1840SOL     OW 5527   2.802   3.560   0.904
 1840SOL    HW1 5528   2.882   3.503   0.925
 1840SOL    HW2 5529   2.753   3.520   0.827
 1841SOL     OW 5530   2.244   2.562   0.480
 1841SOL    HW1 5531   2.289   2.472   0.477
 1841SOL    HW2 5532   2.150   2.551   0.513
 1842SOL     OW 5533   3.409   2.084   1.729
 1842SOL    HW1 5534   3.404   2.121   1.821
 1842SOL    HW2 5535   3.337   2.015   1.717
 1843SOL     OW 5536   2.643   2.126   1.749
 1843SOL    HW1 5537   2.710   2.065   1.792
 1843SOL    HW2 5538   2.570   2.145   1.814
 1844SOL     OW 5539   2.750   3.376   1.195
 1844SOL    HW1 5540   2.727   3.351   1.101
 1844SOL    HW2 5541   2.811   3.307   1.234
 1845SOL     OW 5542   3.213   2.452   1.433
 1845SOL    HW1 5543   3.241   2.409   1.518
 1845SOL    HW2 5544   3.238   2.548   1.434
 1846SOL     OW 5545   2.665   3.264   0.924
 1846SOL    HW1 5546   2.755   3.278   0.882
 1846SOL    HW2 5547   2.594   3.266   0.853
 1847SOL     OW 5548   2.784   2.365   0.899
 1847SOL    HW1 5549   2.759   2.356   0.803
 1847SOL    HW2 5550   2.832   2.283   0.930
 1848SOL     OW 5551   2.401   1.926   0.512
 1848SOL    HW1 5552   2.320   1.927   0.570
 1848SOL    HW2 5553   2.404   2.009   0.457
 1849SOL     OW 5554   3.296   3.050   0.041
 1849SOL    HW1 5555   3.328   2.974   0.098
 1849SOL    HW2 5556   3.204   3.077   0.071
 1850SOL     OW 5557   2.797   2.098   0.480
 1850SOL    HW1 5558   2.749   2.139   0.402
 1850SOL    HW2 5559   2.896   2.096   0.461
 1851SOL     OW 5560   2.938   2.545   1.464
 1851SOL    HW1 5561   2.858   2.484   1.467
 1851SOL    HW2 5562   3.019   2.492   1.440
 1852SOL     OW 5563   3.089   3.432   0.793
 1852SOL    HW1 5564   3.110   3.506   0.728
 1852SOL    HW2 5565   3.157   3.432   0.866
 1853SOL     OW 5566   2.321   3.014   0.741
 1853SOL    HW1 5567   2.250   2.987   0.806
 1853SOL    HW2 5568   2.295   2.986   0.648
 1854SOL     OW 5569   3.133   3.659   0.591
 1854SOL    HW1 5570   3.177   3.723   0.527
 1854SOL    HW2 5571   3.083   3.711   0.661
 1855SOL     OW 5572   2.894   2.411   0.016
 1855SOL    HW1 5573   2.853   2.493  -0.023
 1855SOL    HW2 5574   2.958   2.437   0.089
 1856SOL     OW 5575   1.940   2.418   1.386
 1856SOL    HW1 5576   2.032   2.417   1.345
 1856SOL    HW2 5577   1.934   2.492   1.453
 1857SOL     OW 5578   2.423   2.084   1.147
 1857SOL    HW1 5579   2.461   2.000   1.184
 1857SOL    HW2 5580   2.335   2.103   1.191
 1858SOL     OW 5581   2.728   2.316   0.642
 1858SOL    HW1 5582   2.696   2.388   0.580
 1858SOL    HW2 5583   2.752   2.235   0.589
 1859SOL     OW 5584   2.879   1.901   0.753
 1859SOL    HW1 5585   2.807   1.906   0.684
 1859SOL    HW2 5586   2.855   1.832   0.822
 1860SOL     OW 5587   3.291   3.035   0.867
 1860SOL    HW1 5588   3.236   2.951   0.860
 1860SOL    HW2 5589   3.317   3.064   0.775
 1861SOL     OW 5590   3.328   2.452   0.992
 1861SOL    HW1 5591   3.298   2.357   0.999
 1861SOL    HW2 5592   3.401   2.468   1.058
 1862SOL     OW 5593   3.719   2.695   0.377
 1862SOL    HW1 5594   3.761   2.631   0.441
 1862SOL    HW2 5595   3.681   2.644   0.299
 1863SOL     OW 5596   2.350   3.247   0.174
 1863SOL    HW1 5597   2.263   3.232   0.221
 1863SOL    HW2 5598   2.333   3.273   0.079
 1864SOL     OW 5599   3.526   3.142   0.657
 1864SOL    HW1 5600   3.625   3.150   0.671
 1864SOL    HW2 5601   3.481   3.226   0.688
 1865SOL     OW 5602   3.252   2.437   0.078
 1865SOL    HW1 5603   3.198   2.416   0.159
 1865SOL    HW2 5604   3.343   2.396   0.087
 1866SOL     OW 5605   2.389   2.118   0.328
 1866SOL    HW1 5606   2.416   2.059   0.253
 1866SOL    HW2 5607   2.389   2.213   0.297
 1867SOL     OW 5608   3.616   3.085   1.588
 1867SOL    HW1 5609   3.707   3.046   1.575
 1867SOL    HW2 5610   3.624   3.181   1.612
 1868SOL     OW 5611   2.926   3.209   1.340
 1868SOL    HW1 5612   2.846   3.186   1.395
 1868SOL    HW2 5613   3.009   3.183   1.389
 1869SOL     OW 5614   3.454   3.491   1.625
 1869SOL    HW1 5615   3.481   3.525   1.535
 1869SOL    HW2 5616   3.533   3.453   1.671
 1870SOL     OW 5617   2.973   3.057   1.100
 1870SOL    HW1 5618   2.933   3.101   1.181
 1870SOL    HW2 5619   2.932   3.094   1.017
 1871SOL     OW 5620   3.500   2.961   1.079
 1871SOL    HW1 5621   3.505   3.042   1.138
 1871SOL    HW2 5622   3.414   2.963   1.028
 1872SOL     OW 5623   2.777   1.951   1.402
 1872SOL    HW1 5624   2.802   1.931   1.307
 1872SOL    HW2 5625   2.849   2.007   1.444
 1873SOL     OW 5626   2.842   2.978   1.719
 1873SOL    HW1 5627   2.743   2.984   1.729
 1873SOL    HW2 5628   2.865   2.898   1.663
 1874SOL     OW 5629   2.567   2.912   0.368
 1874SOL    HW1 5630   2.553   2.919   0.467
 1874SOL    HW2 5631   2.651   2.861   0.350
 1875SOL     OW 5632   2.272   2.675   1.251
 1875SOL    HW1 5633   2.358   2.687   1.301
 1875SOL    HW2 5634   2.230   2.588   1.278
 1876SOL     OW 5635   3.136   2.248   1.262
 1876SOL    HW1 5636   3.157   2.322   1.326
 1876SOL    HW2 5637   3.047   2.265   1.219
 1877SOL     OW 5638   1.926   3.426   1.331
 1877SOL    HW1 5639   1.880   3.508   1.297
 1877SOL    HW2 5640   2.024   3.445   1.340
 1878SOL     OW 5641   2.229   2.962   0.501
 1878SOL    HW1 5642   2.222   3.045   0.445
 1878SOL    HW2 5643   2.233   2.882   0.441
 1879SOL     OW 5644   2.428   2.399   0.865
 1879SOL    HW1 5645   2.440   2.465   0.791
 1879SOL    HW2 5646   2.474   2.433   0.948
 1880SOL     OW 5647   3.114   3.210   0.388
 1880SOL    HW1 5648   3.164   3.287   0.428
 1880SOL    HW2 5649   3.019   3.212   0.420
 1881SOL     OW 5650   3.134   3.307   1.142
 1881SOL    HW1 5651   3.181   3.320   1.229
 1881SOL    HW2 5652   3.068   3.233   1.151
 1882SOL     OW 5653   3.444   2.501   0.472
 1882SOL    HW1 5654   3.413   2.562   0.545
 1882SOL    HW2 5655   3.494   2.553   0.403
 1883SOL     OW 5656   2.216   3.372   1.329
 1883SOL    HW1 5657   2.195   3.328   1.242
 1883SOL    HW2 5658   2.313   3.398   1.332
 1884SOL     OW 5659   2.264   2.613   1.598
 1884SOL    HW1 5660   2.332   2.668   1.551
 1884SOL    HW2 5661   2.304   2.525   1.625
 1885SOL     OW 5662   3.449   2.641   1.670
 1885SOL    HW1 5663   3.357   2.679   1.665
 1885SOL    HW2 5664   3.509   2.688   1.605
 1886SOL     OW 5665   2.875   1.967   1.770
 1886SOL    HW1 5666   2.881   2.052   1.718
 1886SOL    HW2 5667   2.907   1.891   1.713
 1887SOL     OW 5668   2.366   1.912   1.740
 1887SOL    HW1 5669   2.324   1.855   1.670
 1887SOL    HW2 5670   2.300   1.981   1.772
 1888SOL     OW 5671   2.435   2.732   1.029
 1888SOL    HW1 5672   2.479   2.821   1.020
 1888SOL    HW2 5673   2.372   2.732   1.106
 1889SOL     OW 5674   3.222   2.724   1.045
 1889SOL    HW1 5675   3.147   2.724   0.979
 1889SOL    HW2 5676   3.259   2.632   1.054
 1890SOL     OW 5677   3.071   2.387   0.275
 1890SOL    HW1 5678   3.084   2.303   0.329
 1890SOL    HW2 5679   3.042   2.461   0.335
 1891SOL     OW 5680   2.169   2.075   1.231
 1891SOL    HW1 5681   2.146   2.112   1.321
 1891SOL    HW2 5682   2.139   1.980   1.225
 1892SOL     OW 5683   1.899   3.172   1.282
 1892SOL    HW1 5684   1.952   3.123   1.350
 1892SOL    HW2 5685   1.921   3.270   1.287
 1893SOL     OW 5686   2.594   2.496   1.064
 1893SOL    HW1 5687   2.653   2.470   0.988
 1893SOL    HW2 5688   2.566   2.592   1.053
 1894SOL     OW 5689   3.590   2.797   1.854
 1894SOL    HW1 5690   3.544   2.790   1.765
 1894SOL    HW2 5691   3.528   2.841   1.920
 1895SOL     OW 5692   2.169   1.925   0.618
 1895SOL    HW1 5693   2.158   2.019   0.651
 1895SOL    HW2 5694   2.164   1.862   0.695
 1896SOL     OW 5695   3.484   2.229   0.374
 1896SOL    HW1 5696   3.486   2.153   0.438
 1896SOL    HW2 5697   3.436   2.306   0.414
 1897SOL     OW 5698   2.885   2.628   0.966
 1897SOL    HW1 5699   2.900   2.649   1.062
 1897SOL    HW2 5700   2.855   2.533   0.957
 1898SOL     OW 5701   2.842   3.435   1.700
 1898SOL    HW1 5702   2.822   3.479   1.612
 1898SOL    HW2 5703   2.881   3.344   1.684
 1899SOL     OW 5704   3.721   3.380   1.605
 1899SOL    HW1 5705   3.735   3.407   1.510
 1899SOL    HW2 5706   3.804   3.402   1.658
 1900SOL     OW 5707   2.212   2.760   1.804
 1900SOL    HW1 5708   2.288   2.804   1.852
 1900SOL    HW2 5709   2.247   2.713   1.722
 1901SOL     OW 5710   3.402   2.136   0.125
 1901SOL    HW1 5711   3.341   2.061   0.148
 1901SOL    HW2 5712   3.424   2.188   0.208
 1902SOL     OW 5713   3.165   2.700   0.042
 1902SOL    HW1 5714   3.199   2.607   0.057
 1902SOL    HW2 5715   3.183   2.727  -0.053
 1903SOL     OW 5716   2.930   3.195   0.849
 1903SOL    HW1 5717   2.937   3.111   0.794
 1903SOL    HW2 5718   2.992   3.264   0.813
 1904SOL     OW 5719   2.181   2.672   0.949
 1904SOL    HW1 5720   2.274   2.708   0.954
 1904SOL    HW2 5721   2.175   2.587   1.001
 1905SOL     OW 5722   2.201   2.371   1.006
 1905SOL    HW1 5723   2.149   2.288   0.989
 1905SOL    HW2 5724   2.278   2.376   0.942
 1906SOL     OW 5725   3.000   2.242   1.678
 1906SOL    HW1 5726   2.955   2.305   1.742
 1906SOL    HW2 5727   3.093   2.273   1.661
 1907SOL     OW 5728   3.022   2.069   1.477
 1907SOL    HW1 5729   3.022   2.133   1.554
 1907SOL    HW2 5730   3.050   2.117   1.394
 1908SOL     OW 5731   1.870   3.188   0.200
 1908SOL    HW1 5732   1.777   3.209   0.169
 1908SOL    HW2 5733   1.880   3.089   0.213
 1909SOL     OW 5734   1.950   3.663   0.927
 1909SOL    HW1 5735   1.908   3.577   0.900
 1909SOL    HW2 5736   2.044   3.666   0.893
 1910SOL     OW 5737   2.366   3.430   0.910
 1910SOL    HW1 5738   2.432   3.504   0.919
 1910SOL    HW2 5739   2.410   3.351   0.868
 1911SOL     OW 5740   2.864   2.658   1.238
 1911SOL    HW1 5741   2.905   2.626   1.324
 1911SOL    HW2 5742   2.768   2.631   1.235
 1912SOL     OW 5743   1.902   2.406   1.114
 1912SOL    HW1 5744   1.987   2.373   1.073
 1912SOL    HW2 5745   1.915   2.421   1.212
 1913SOL     OW 5746   2.051   2.382   1.722
 1913SOL    HW1 5747   2.110   2.342   1.652
 1913SOL    HW2 5748   1.993   2.453   1.681
 1914SOL     OW 5749   3.231   2.812   1.660
 1914SOL    HW1 5750   3.270   2.901   1.680
 1914SOL    HW2 5751   3.241   2.792   1.563
 1915SOL     OW 5752   2.677   2.434   0.325
 1915SOL    HW1 5753   2.684   2.345   0.279
 1915SOL    HW2 5754   2.583   2.468   0.317
 1916SOL     OW 5755   3.519   2.466   1.206
 1916SOL    HW1 5756   3.481   2.397   1.268
 1916SOL    HW2 5757   3.601   2.430   1.162
 1917SOL     OW 5758   2.114   3.426   1.744
 1917SOL    HW1 5759   2.084   3.483   1.820
 1917SOL    HW2 5760   2.107   3.329   1.770
 1918SOL     OW 5761   2.533   2.326   1.269
 1918SOL    HW1 5762   2.499   2.237   1.239
 1918SOL    HW2 5763   2.559   2.380   1.189
 1919SOL     OW 5764   2.792   3.540   1.465
 1919SOL    HW1 5765   2.768   3.522   1.370
 1919SOL    HW2 5766   2.822   3.634   1.475
 1920SOL     OW 5767   2.335   2.362   0.191
 1920SOL    HW1 5768   2.396   2.442   0.195
 1920SOL    HW2 5769   2.240   2.393   0.198
 1921SOL     OW 5770   2.021   2.999   1.466
 1921SOL    HW1 5771   2.043   2.938   1.542
 1921SOL    HW2 5772   2.031   2.950   1.380
 1922SOL     OW 5773   3.209   2.921   1.234
 1922SOL    HW1 5774   3.233   2.858   1.160
 1922SOL    HW2 5775   3.119   2.961   1.216
 1923SOL     OW 5776   3.164   2.717   0.309
 1923SOL    HW1 5777   3.078   2.686   0.351
 1923SOL    HW2 5778   3.160   2.703   0.210
 1924SOL     OW 5779   3.621   3.609   1.154
 1924SOL    HW1 5780   3.682   3.639   1.081
 1924SOL    HW2 5781   3.583   3.520   1.132
 1925SOL     OW 5782   3.114   3.593   1.128
 1925SOL    HW1 5783   3.198   3.598   1.074
 1925SOL    HW2 5784   3.091   3.497   1.146
 1926SOL     OW 5785   1.945   3.120   1.022
 1926SOL    HW1 5786   1.940   3.119   1.122
 1926SOL    HW2 5787   1.862   3.079   0.984
 1927SOL     OW 5788   2.550   3.524   1.716
 1927SOL    HW1 5789   2.494   3.605   1.725
 1927SOL    HW2 5790   2.602   3.528   1.630
 1928SOL     OW 5791   2.765   1.948   0.133
 1928SOL    HW1 5792   2.816   1.949   0.047
 1928SOL    HW2 5793   2.821   1.906   0.204
 1929SOL     OW 5794   3.588   1.997   0.523
 1929SOL    HW1 5795   3.661   1.980   0.456
 1929SOL    HW2 5796   3.557   1.910   0.561
 1930SOL     OW 5797   3.250   3.435   0.477
 1930SOL    HW1 5798   3.317   3.447   0.403
 1930SOL    HW2 5799   3.210   3.524   0.500
 1931SOL     OW 5800   1.992   3.656   1.851
 1931SOL    HW1 5801   1.951   3.582   1.904
 1931SOL    HW2 5802   2.056   3.707   1.909
 1932SOL     OW 5803   3.142   2.789   0.672
 1932SOL    HW1 5804   3.202   2.708   0.674
 1932SOL    HW2 5805   3.182   2.858   0.612
 1933SOL     OW 5806   2.692   3.135   1.422
 1933SOL    HW1 5807   2.687   3.168   1.517
 1933SOL    HW2 5808   2.606   3.154   1.376
 1934SOL     OW 5809   2.534   3.478   0.154
 1934SOL    HW1 5810   2.543   3.488   0.055
 1934SOL    HW2 5811   2.494   3.389   0.175
 1935SOL     OW 5812   3.512   3.582   1.394
 1935SOL    HW1 5813   3.565   3.592   1.310
 1935SOL    HW2 5814   3.485   3.672   1.428
 1936SOL     OW 5815   3.703   2.037   0.963
 1936SOL    HW1 5816   3.742   1.952   0.927
 1936SOL    HW2 5817   3.605   2.039   0.944
 1937SOL     OW 5818   2.125   2.188   0.720
 1937SOL    HW1 5819   2.046   2.239   0.686
 1937SOL    HW2 5820   2.116   2.173   0.818
 1938SOL     OW 5821   3.056   3.474   0.031
 1938SOL    HW1 5822   3.062   3.381   0.068
 1938SOL    HW2 5823   2.997   3.474  -0.049
 1939SOL     OW 5824   2.684   2.864   1.372
 1939SOL    HW1 5825   2.724   2.863   1.280
 1939SOL    HW2 5826   2.694   2.956   1.412
 1940SOL     OW 5827   2.778   2.772   0.291
 1940SOL    HW1 5828   2.841   2.810   0.223
 1940SOL    HW2 5829   2.818   2.689   0.330
 1941SOL     OW 5830   3.366   3.469   0.044
 1941SOL    HW1 5831   3.274   3.506   0.051
 1941SOL    HW2 5832   3.404   3.489  -0.046
 1942SOL     OW 5833   2.234   3.150   1.490
 1942SOL    HW1 5834   2.221   3.243   1.456
 1942SOL    HW2 5835   2.150   3.098   1.477
 1943SOL     OW 5836   3.476   3.154   1.289
 1943SOL    HW1 5837   3.536   3.157   1.369
 1943SOL    HW2 5838   3.401   3.218   1.302
 1944SOL     OW 5839   2.901   2.960   0.696
 1944SOL    HW1 5840   2.831   2.913   0.750
 1944SOL    HW2 5841   2.960   2.892   0.653
 1945SOL     OW 5842   2.876   2.098   0.971
 1945SOL    HW1 5843   2.868   2.062   0.878
 1945SOL    HW2 5844   2.874   2.022   1.036
 1946SOL     OW 5845   2.452   3.349   0.491
 1946SOL    HW1 5846   2.494   3.291   0.421
 1946SOL    HW2 5847   2.408   3.428   0.447
 1947SOL     OW 5848   3.571   2.247   1.381
 1947SOL    HW1 5849   3.644   2.316   1.385
 1947SOL    HW2 5850   3.599   2.172   1.322
 1948SOL     OW 5851   2.117   3.210   0.290
 1948SOL    HW1 5852   2.021   3.211   0.263
 1948SOL    HW2 5853   2.129   3.263   0.374
 1949SOL     OW 5854   1.967   2.875   1.726
 1949SOL    HW1 5855   1.890   2.842   1.780
 1949SOL    HW2 5856   2.052   2.845   1.768
 1950SOL     OW 5857   2.534   2.065   1.489
 1950SOL    HW1 5858   2.624   2.049   1.449
 1950SOL    HW2 5859   2.542   2.070   1.588
 1951SOL     OW 5860   1.937   2.207   0.033
 1951SOL    HW1 5861   1.845   2.179   0.004
 1951SOL    HW2 5862   1.968   2.284  -0.023
 1952SOL     OW 5863   3.302   2.718   1.398
 1952SOL    HW1 5864   3.245   2.770   1.335
 1952SOL    HW2 5865   3.398   2.730   1.374
 1953SOL     OW 5866   1.934   2.028   0.318
 1953SOL    HW1 5867   1.917   2.111   0.264
 1953SOL    HW2 5868   2.024   1.991   0.296
 1954SOL     OW 5869   3.045   3.197   0.119
 1954SOL    HW1 5870   2.946   3.186   0.121
 1954SOL    HW2 5871   3.079   3.212   0.212
 1955SOL     OW 5872   2.475   2.704   1.431
 1955SOL    HW1 5873   2.531   2.785   1.414
 1955SOL    HW2 5874   2.534   2.624   1.434
 1956SOL     OW 5875   3.355   3.629   0.959
 1956SOL    HW1 5876   3.388   3.693   0.890
 1956SOL    HW2 5877   3.421   3.623   1.034
 1957SOL     OW 5878   2.578   2.427   1.708
 1957SOL    HW1 5879   2.597   2.492   1.782
 1957SOL    HW2 5880   2.638   2.347   1.717
 1958SOL     OW 5881   3.312   3.082   1.633
 1958SOL    HW1 5882   3.303   3.072   1.732
 1958SOL    HW2 5883   3.408   3.075   1.607
 1959SOL     OW 5884   2.252   3.603   1.560
 1959SOL    HW1 5885   2.161   3.644   1.558
 1959SOL    HW2 5886   2.245   3.509   1.592
 1960SOL     OW 5887   3.536   2.745   1.254
 1960SOL    HW1 5888   3.509   2.656   1.217
 1960SOL    HW2 5889   3.537   2.813   1.181
 1961SOL     OW 5890   3.087   2.187   0.449
 1961SOL    HW1 5891   3.152   2.113   0.438
 1961SOL    HW2 5892   3.107   2.237   0.533
 1962SOL     OW 5893   2.456   2.607   0.652
 1962SOL    HW1 5894   2.506   2.692   0.633
 1962SOL    HW2 5895   2.368   2.609   0.604
 1963SOL     OW 5896   3.639   2.204   1.642
 1963SOL    HW1 5897   3.622   2.235   1.548
 1963SOL    HW2 5898   3.555   2.167   1.680
 1964SOL     OW 5899   3.592   2.796   1.517
 1964SOL    HW1 5900   3.630   2.887   1.532
 1964SOL    HW2 5901   3.584   2.779   1.418
 1965SOL     OW 5902   2.721   3.236   0.016
 1965SOL    HW1 5903   2.675   3.251   0.104
 1965SOL    HW2 5904   2.765   3.321  -0.014
 1966SOL     OW 5905   2.523   3.652   0.953
 1966SOL    HW1 5906   2.477   3.740   0.940
 1966SOL    HW2 5907   2.622   3.664   0.946
 1967SOL     OW 5908   2.721   2.818   0.861
 1967SOL    HW1 5909   2.775   2.749   0.909
 1967SOL    HW2 5910   2.689   2.887   0.927
 1968SOL     OW 5911   2.945   2.846   0.087
 1968SOL    HW1 5912   2.922   2.899   0.005
 1968SOL    HW2 5913   3.026   2.790   0.068
 1969SOL     OW 5914   3.723   3.431   0.851
 1969SOL    HW1 5915   3.652   3.419   0.781
 1969SOL    HW2 5916   3.724   3.352   0.911
 1970SOL     OW 5917   2.083   3.176   1.844
 1970SOL    HW1 5918   2.018   3.103   1.823
 1970SOL    HW2 5919   2.087   3.190   1.942
 1971SOL     OW 5920   1.941   3.102   0.653
 1971SOL    HW1 5921   1.940   3.055   0.741
 1971SOL    HW2 5922   2.023   3.074   0.602
 1972SOL     OW 5923   2.534   3.253   1.624
 1972SOL    HW1 5924   2.456   3.203   1.662
 1972SOL    HW2 5925   2.531   3.348   1.655
 1973SOL     OW 5926   3.686   2.054   1.227
 1973SOL    HW1 5927   3.682   1.964   1.271
 1973SOL    HW2 5928   3.689   2.043   1.128
 1974SOL     OW 5929   2.290   2.286   0.520
 1974SOL    HW1 5930   2.320   2.214   0.458
 1974SOL    HW2 5931   2.251   2.246   0.603
 1975SOL     OW 5932   3.567   3.349   1.104
 1975SOL    HW1 5933   3.474   3.324   1.077
 1975SOL    HW2 5934   3.593   3.299   1.186
 1976SOL     OW 5935   2.179   2.409   1.280
 1976SOL    HW1 5936   2.217   2.350   1.352
 1976SOL    HW2 5937   2.219   2.383   1.192
 1977SOL     OW 5938   2.674   3.448   0.687
 1977SOL    HW1 5939   2.706   3.458   0.593
 1977SOL    HW2 5940   2.595   3.386   0.689
 1978SOL     OW 5941   3.286   2.076   1.112
 1978SOL    HW1 5942   3.338   2.011   1.167
 1978SOL    HW2 5943   3.237   2.139   1.173
 1979SOL     OW 5944   2.863   1.896   1.154
 1979SOL    HW1 5945   2.800   1.824   1.123
 1979SOL    HW2 5946   2.956   1.860   1.154
 1980SOL     OW 5947   2.632   3.192   0.301
 1980SOL    HW1 5948   2.586   3.105   0.318
 1980SOL    HW2 5949   2.723   3.189   0.342
 1981SOL     OW 5950   2.480   3.429   1.284
 1981SOL    HW1 5951   2.475   3.511   1.341
 1981SOL    HW2 5952   2.569   3.426   1.239
 1982SOL     OW 5953   3.214   1.914   0.168
 1982SOL    HW1 5954   3.249   1.873   0.084
 1982SOL    HW2 5955   3.124   1.876   0.188
 1983SOL     OW 5956   3.162   2.315   0.691
 1983SOL    HW1 5957   3.103   2.395   0.695
 1983SOL    HW2 5958   3.177   2.280   0.784
 1984SOL     OW 5959   3.455   2.083   0.882
 1984SOL    HW1 5960   3.371   2.082   0.936
 1984SOL    HW2 5961   3.457   2.166   0.826
 1985SOL     OW 5962   1.901   2.939   0.300
 1985SOL    HW1 5963   2.000   2.928   0.291
 1985SOL    HW2 5964   1.861   2.853   0.332
 1986SOL     OW 5965   2.737   3.508   0.337
 1986SOL    HW1 5966   2.660   3.473   0.283
 1986SOL    HW2 5967   2.705   3.579   0.399
 1987SOL     OW 5968   2.092   2.490   1.975
 1987SOL    HW1 5969   1.999   2.488   2.012
 1987SOL    HW2 5970   2.093   2.451   1.883
 1988SOL     OW 5971   2.087   2.137   2.858
 1988SOL    HW1 5972   2.122   2.120   2.950
 1988SOL    HW2 5973   1.999   2.092   2.846
 1989SOL     OW 5974   1.881   2.230   2.509
 1989SOL    HW1 5975   1.799   2.273   2.548
 1989SOL    HW2 5976   1.853   2.157   2.446
 1990SOL     OW 5977   2.431   3.137   3.027
 1990SOL    HW1 5978   2.338   3.130   2.990
 1990SOL    HW2 5979   2.442   3.226   3.071
 1991SOL     OW 5980   3.417   3.373   2.565
 1991SOL    HW1 5981   3.360   3.357   2.646
 1991SOL    HW2 5982   3.358   3.383   2.485
 1992SOL     OW 5983   2.997   2.565   2.579
 1992SOL    HW1 5984   3.054   2.643   2.554
 1992SOL    HW2 5985   2.937   2.591   2.655
 1993SOL     OW 5986   3.617   2.469   2.093
 1993SOL    HW1 5987   3.605   2.456   1.994
 1993SOL    HW2 5988   3.587   2.388   2.142
 1994SOL     OW 5989   2.630   3.006   2.885
 1994SOL    HW1 5990   2.552   3.023   2.945
 1994SOL    HW2 5991   2.664   3.093   2.849
 1995SOL     OW 5992   2.712   2.660   3.685
 1995SOL    HW1 5993   2.708   2.736   3.750
 1995SOL    HW2 5994   2.734   2.696   3.594
 1996SOL     OW 5995   2.547   2.874   2.527
 1996SOL    HW1 5996   2.616   2.858   2.597
 1996SOL    HW2 5997   2.474   2.931   2.565
 1997SOL     OW 5998   2.548   3.023   3.665
 1997SOL    HW1 5999   2.608   3.102   3.679
 1997SOL    HW2 6000   2.462   3.054   3.624
 1998SOL     OW 6001   2.197   3.297   2.923
 1998SOL    HW1 6002   2.119   3.266   2.870
 1998SOL    HW2 6003   2.255   3.355   2.866
 1999SOL     OW 6004   3.322   3.367   3.201
 1999SOL    HW1 6005   3.346   3.461   3.227
 1999SOL    HW2 6006   3.306   3.313   3.283
 2000SOL     OW 6007   2.300   2.254   3.361
 2000SOL    HW1 6008   2.382   2.198   3.370
 2000SOL    HW2 6009   2.219   2.196   3.365
 2001SOL     OW 6010   3.465   2.309   2.599
 2001SOL    HW1 6011   3.391   2.355   2.549
 2001SOL    HW2 6012   3.516   2.377   2.652
 2002SOL     OW 6013   2.093   3.575   2.345
 2002SOL    HW1 6014   2.127   3.652   2.399
 2002SOL    HW2 6015   2.137   3.575   2.255
 2003SOL     OW 6016   2.989   3.203   3.552
 2003SOL    HW1 6017   3.036   3.203   3.640
 2003SOL    HW2 6018   2.941   3.116   3.541
 2004SOL     OW 6019   2.092   3.296   2.400
 2004SOL    HW1 6020   2.066   3.392   2.400
 2004SOL    HW2 6021   2.021   3.242   2.445
 2005SOL     OW 6022   2.102   2.953   2.748
 2005SOL    HW1 6023   2.116   2.869   2.800
 2005SOL    HW2 6024   2.047   3.017   2.803
 2006SOL     OW 6025   2.482   3.648   3.301
 2006SOL    HW1 6026   2.390   3.631   3.336
 2006SOL    HW2 6027   2.510   3.740   3.327
 2007SOL     OW 6028   2.468   2.826   1.985
 2007SOL    HW1 6029   2.475   2.910   1.931
 2007SOL    HW2 6030   2.514   2.839   2.073
 2008SOL     OW 6031   3.456   1.976   3.342
 2008SOL    HW1 6032   3.438   2.043   3.270
 2008SOL    HW2 6033   3.453   2.022   3.431
 2009SOL     OW 6034   1.984   2.505   2.425
 2009SOL    HW1 6035   1.939   2.417   2.442
 2009SOL    HW2 6036   1.983   2.559   2.509
 2010SOL     OW 6037   3.704   3.629   2.221
 2010SOL    HW1 6038   3.758   3.600   2.301
 2010SOL    HW2 6039   3.734   3.719   2.192
 2011SOL     OW 6040   1.889   3.458   1.979
 2011SOL    HW1 6041   1.870   3.362   2.000
 2011SOL    HW2 6042   1.856   3.516   2.054
 2012SOL     OW 6043   3.551   2.784   2.474
 2012SOL    HW1 6044   3.646   2.755   2.482
 2012SOL    HW2 6045   3.543   2.849   2.399
 2013SOL     OW 6046   3.503   2.970   2.294
 2013SOL    HW1 6047   3.589   2.972   2.242
 2013SOL    HW2 6048   3.517   3.017   2.382
 2014SOL     OW 6049   1.975   2.599   3.459
 2014SOL    HW1 6050   2.063   2.586   3.504
 2014SOL    HW2 6051   1.962   2.696   3.437
 2015SOL     OW 6052   2.475   3.227   2.588
 2015SOL    HW1 6053   2.426   3.140   2.597
 2015SOL    HW2 6054   2.452   3.270   2.501
 2016SOL     OW 6055   3.155   3.090   3.285
 2016SOL    HW1 6056   3.192   3.017   3.227
 2016SOL    HW2 6057   3.207   3.095   3.370
 2017SOL     OW 6058   2.671   1.866   2.364
 2017SOL    HW1 6059   2.711   1.957   2.355
 2017SOL    HW2 6060   2.571   1.874   2.370
 2018SOL     OW 6061   2.059   2.838   3.126
 2018SOL    HW1 6062   2.148   2.793   3.112
 2018SOL    HW2 6063   1.986   2.773   3.107
 2019SOL     OW 6064   3.387   2.861   2.052
 2019SOL    HW1 6065   3.324   2.785   2.065
 2019SOL    HW2 6066   3.435   2.879   2.138
 2020SOL     OW 6067   3.049   3.654   3.478
 2020SOL    HW1 6068   3.073   3.714   3.402
 2020SOL    HW2 6069   3.056   3.559   3.448
 2021SOL     OW 6070   2.179   2.113   3.663
 2021SOL    HW1 6071   2.250   2.184   3.669
 2021SOL    HW2 6072   2.091   2.152   3.691
 2022SOL     OW 6073   3.328   3.279   2.815
 2022SOL    HW1 6074   3.269   3.285   2.895
 2022SOL    HW2 6075   3.313   3.191   2.769
 2023SOL     OW 6076   3.529   3.576   2.434
 2023SOL    HW1 6077   3.488   3.553   2.346
 2023SOL    HW2 6078   3.511   3.502   2.499
 2024SOL     OW 6079   2.460   2.591   2.132
 2024SOL    HW1 6080   2.484   2.660   2.064
 2024SOL    HW2 6081   2.382   2.624   2.186
 2025SOL     OW 6082   3.143   2.207   2.806
 2025SOL    HW1 6083   3.057   2.157   2.793
 2025SOL    HW2 6084   3.205   2.153   2.862
 2026SOL     OW 6085   3.438   3.524   2.169
 2026SOL    HW1 6086   3.527   3.570   2.172
 2026SOL    HW2 6087   3.417   3.500   2.074
 2027SOL     OW 6088   2.669   2.467   3.327
 2027SOL    HW1 6089   2.622   2.464   3.416
 2027SOL    HW2 6090   2.618   2.412   3.261
 2028SOL     OW 6091   3.256   2.331   3.536
 2028SOL    HW1 6092   3.236   2.374   3.624
 2028SOL    HW2 6093   3.334   2.269   3.545
 2029SOL     OW 6094   2.835   2.752   3.434
 2029SOL    HW1 6095   2.881   2.668   3.405
 2029SOL    HW2 6096   2.779   2.786   3.359
 2030SOL     OW 6097   2.853   2.272   3.104
 2030SOL    HW1 6098   2.776   2.306   3.158
 2030SOL    HW2 6099   2.819   2.221   3.025
 2031SOL     OW 6100   2.903   2.563   2.291
 2031SOL    HW1 6101   2.929   2.559   2.387
 2031SOL    HW2 6102   2.818   2.512   2.277
 2032SOL     OW 6103   1.938   2.673   2.651
 2032SOL    HW1 6104   2.037   2.661   2.660
 2032SOL    HW2 6105   1.914   2.768   2.672
 2033SOL     OW 6106   1.992   3.683   3.433
 2033SOL    HW1 6107   1.982   3.668   3.532
 2033SOL    HW2 6108   1.906   3.719   3.397
 2034SOL     OW 6109   2.727   2.210   2.057
 2034SOL    HW1 6110   2.786   2.273   2.008
 2034SOL    HW2 6111   2.746   2.116   2.028
 2035SOL     OW 6112   3.581   2.447   3.693
 2035SOL    HW1 6113   3.555   2.536   3.657
 2035SOL    HW2 6114   3.579   2.379   3.620
 2036SOL     OW 6115   3.224   3.006   2.407
 2036SOL    HW1 6116   3.307   2.977   2.359
 2036SOL    HW2 6117   3.175   3.073   2.351
 2037SOL     OW 6118   2.412   2.058   2.747
 2037SOL    HW1 6119   2.407   2.053   2.847
 2037SOL    HW2 6120   2.414   2.154   2.718
 2038SOL     OW 6121   2.870   3.318   2.339
 2038SOL    HW1 6122   2.824   3.390   2.287
 2038SOL    HW2 6123   2.866   3.338   2.437
 2039SOL     OW 6124   2.213   3.663   2.715
 2039SOL    HW1 6125   2.263   3.577   2.721
 2039SOL    HW2 6126   2.278   3.740   2.712
 2040SOL     OW 6127   3.657   2.928   2.735
 2040SOL    HW1 6128   3.595   2.913   2.659
 2040SOL    HW2 6129   3.605   2.939   2.820
 2041SOL     OW 6130   3.089   3.412   3.368
 2041SOL    HW1 6131   3.095   3.335   3.432
 2041SOL    HW2 6132   3.037   3.386   3.288
 2042SOL     OW 6133   2.183   2.805   2.104
 2042SOL    HW1 6134   2.265   2.844   2.062
 2042SOL    HW2 6135   2.156   2.723   2.055
 2043SOL     OW 6136   3.320   2.597   2.590
 2043SOL    HW1 6137   3.315   2.532   2.665
 2043SOL    HW2 6138   3.400   2.656   2.603
 2044SOL     OW 6139   2.323   3.128   3.589
 2044SOL    HW1 6140   2.273   3.129   3.503
 2044SOL    HW2 6141   2.260   3.110   3.665
 2045SOL     OW 6142   2.973   3.638   2.099
 2045SOL    HW1 6143   2.913   3.576   2.149
 2045SOL    HW2 6144   3.004   3.594   2.014
 2046SOL     OW 6145   2.064   2.147   3.360
 2046SOL    HW1 6146   1.984   2.207   3.347
 2046SOL    HW2 6147   2.054   2.098   3.446
 2047SOL     OW 6148   3.494   3.239   1.943
 2047SOL    HW1 6149   3.462   3.333   1.933
 2047SOL    HW2 6150   3.418   3.176   1.931
 2048SOL     OW 6151   2.326   3.605   2.185
 2048SOL    HW1 6152   2.359   3.644   2.271
 2048SOL    HW2 6153   2.402   3.598   2.120
 2049SOL     OW 6154   3.262   1.969   2.288
 2049SOL    HW1 6155   3.238   1.932   2.198
 2049SOL    HW2 6156   3.361   1.985   2.292
 2050SOL     OW 6157   2.111   3.647   3.103
 2050SOL    HW1 6158   2.168   3.582   3.153
 2050SOL    HW2 6159   2.095   3.614   3.010
 2051SOL     OW 6160   2.802   3.560   2.766
 2051SOL    HW1 6161   2.882   3.503   2.787
 2051SOL    HW2 6162   2.753   3.520   2.689
 2052SOL     OW 6163   3.409   2.084   3.591
 2052SOL    HW1 6164   3.404   2.121   3.683
 2052SOL    HW2 6165   3.337   2.015   3.579
 2053SOL     OW 6166   2.476   1.984   1.979
 2053SOL    HW1 6167   2.574   1.962   1.986
 2053SOL    HW2 6168   2.445   1.967   1.886
 2054SOL     OW 6169   2.643   2.126   3.611
 2054SOL    HW1 6170   2.710   2.065   3.654
 2054SOL    HW2 6171   2.570   2.145   3.676
 2055SOL     OW 6172   2.750   3.376   3.057
 2055SOL    HW1 6173   2.727   3.351   2.963
 2055SOL    HW2 6174   2.811   3.307   3.096
 2056SOL     OW 6175   3.213   2.452   3.295
 2056SOL    HW1 6176   3.241   2.409   3.380
 2056SOL    HW2 6177   3.238   2.548   3.296
 2057SOL     OW 6178   2.665   3.264   2.786
 2057SOL    HW1 6179   2.755   3.278   2.744
 2057SOL    HW2 6180   2.594   3.266   2.715
 2058SOL     OW 6181   2.784   2.365   2.761
 2058SOL    HW1 6182   2.759   2.356   2.665
 2058SOL    HW2 6183   2.832   2.283   2.792
 2059SOL     OW 6184   3.296   3.050   1.903
 2059SOL    HW1 6185   3.328   2.974   1.960
 2059SOL    HW2 6186   3.204   3.077   1.933
 2060SOL     OW 6187   2.159   1.897   2.033
 2060SOL    HW1 6188   2.208   1.981   2.012
 2060SOL    HW2 6189   2.221   1.832   2.078
 2061SOL     OW 6190   2.797   2.098   2.342
 2061SOL    HW1 6191   2.749   2.139   2.264
 2061SOL    HW2 6192   2.896   2.096   2.323
 2062SOL     OW 6193   2.938   2.545   3.326
 2062SOL    HW1 6194   2.858   2.484   3.329
 2062SOL    HW2 6195   3.019   2.492   3.302
 2063SOL     OW 6196   3.089   3.432   2.655
 2063SOL    HW1 6197   3.110   3.506   2.590
 2063SOL    HW2 6198   3.157   3.432   2.728
 2064SOL     OW 6199   2.321   3.014   2.603
 2064SOL    HW1 6200   2.250   2.987   2.668
 2064SOL    HW2 6201   2.295   2.986   2.510
 2065SOL     OW 6202   3.133   3.659   2.453
 2065SOL    HW1 6203   3.177   3.723   2.389
 2065SOL    HW2 6204   3.083   3.711   2.523
 2066SOL     OW 6205   2.894   2.411   1.878
 2066SOL    HW1 6206   2.853   2.493   1.839
 2066SOL    HW2 6207   2.958   2.437   1.951
 2067SOL     OW 6208   1.940   2.418   3.248
 2067SOL    HW1 6209   2.032   2.417   3.207
 2067SOL    HW2 6210   1.934   2.492   3.315
 2068SOL     OW 6211   2.423   2.084   3.009
 2068SOL    HW1 6212   2.461   2.000   3.046
 2068SOL    HW2 6213   2.335   2.103   3.053
 2069SOL     OW 6214   2.728   2.316   2.504
 2069SOL    HW1 6215   2.696   2.388   2.442
 2069SOL    HW2 6216   2.752   2.235   2.451
 2070SOL     OW 6217   2.879   1.901   2.615
 2070SOL    HW1 6218   2.807   1.906   2.546
 2070SOL    HW2 6219   2.855   1.832   2.684
 2071SOL     OW 6220   3.291   3.035   2.729
 2071SOL    HW1 6221   3.236   2.951   2.722
 2071SOL    HW2 6222   3.317   3.064   2.637
 2072SOL     OW 6223   3.328   2.452   2.854
 2072SOL    HW1 6224   3.298   2.357   2.861
 2072SOL    HW2 6225   3.401   2.468   2.920
 2073SOL     OW 6226   3.719   2.695   2.239
 2073SOL    HW1 6227   3.761   2.631   2.303
 2073SOL    HW2 6228   3.681   2.644   2.161
 2074SOL     OW 6229   2.350   3.247   2.036
 2074SOL    HW1 6230   2.263   3.232   2.083
 2074SOL    HW2 6231   2.333   3.273   1.941
 2075SOL     OW 6232   3.526   3.142   2.519
 2075SOL    HW1 6233   3.625   3.150   2.533
 2075SOL    HW2 6234   3.481   3.226   2.550
 2076SOL     OW 6235   3.252   2.437   1.940
 2076SOL    HW1 6236   3.198   2.416   2.021
 2076SOL    HW2 6237   3.343   2.396   1.949
 2077SOL     OW 6238   3.616   3.085   3.450
 2077SOL    HW1 6239   3.707   3.046   3.437
 2077SOL    HW2 6240   3.624   3.181   3.474
 2078SOL     OW 6241   2.926   3.209   3.202
 2078SOL    HW1 6242   2.846   3.186   3.257
 2078SOL    HW2 6243   3.009   3.183   3.251
 2079SOL     OW 6244   3.454   3.491   3.487
 2079SOL    HW1 6245   3.481   3.525   3.397
 2079SOL    HW2 6246   3.533   3.453   3.533
 2080SOL     OW 6247   2.973   3.057   2.962
 2080SOL    HW1 6248   2.933   3.101   3.043
 2080SOL    HW2 6249   2.932   3.094   2.879
 2081SOL     OW 6250   3.500   2.961   2.941
 2081SOL    HW1 6251   3.505   3.042   3.000
 2081SOL    HW2 6252   3.414   2.963   2.890
 2082SOL     OW 6253   2.777   1.951   3.264
 2082SOL    HW1 6254   2.802   1.931   3.169
 2082SOL    HW2 6255   2.849   2.007   3.306
 2083SOL     OW 6256   2.842   2.978   3.581
 2083SOL    HW1 6257   2.743   2.984   3.591
 2083SOL    HW2 6258   2.865   2.898   3.525
 2084SOL     OW 6259   2.567   2.912   2.230
 2084SOL    HW1 6260   2.553   2.919   2.329
 2084SOL    HW2 6261   2.651   2.861   2.212
 2085SOL     OW 6262   2.272   2.675   3.113
 2085SOL    HW1 6263   2.358   2.687   3.163
 2085SOL    HW2 6264   2.230   2.588   3.140
 2086SOL     OW 6265   3.136   2.248   3.124
 2086SOL    HW1 6266   3.157   2.322   3.188
 2086SOL    HW2 6267   3.047   2.265   3.081
 2087SOL     OW 6268   1.926   3.426   3.193
 2087SOL    HW1 6269   1.880   3.508   3.159
 2087SOL    HW2 6270   2.024   3.445   3.202
 2088SOL     OW 6271   2.229   2.962   2.363
 2088SOL    HW1 6272   2.222   3.045   2.307
 2088SOL    HW2 6273   2.233   2.882   2.303
 2089SOL     OW 6274   2.428   2.399   2.727
 2089SOL    HW1 6275   2.440   2.465   2.653
 2089SOL    HW2 6276   2.474   2.433   2.810
 2090SOL     OW 6277   3.114   3.210   2.250
 2090SOL    HW1 6278   3.164   3.287   2.290
 2090SOL    HW2 6279   3.019   3.212   2.282
 2091SOL     OW 6280   3.134   3.307   3.004
 2091SOL    HW1 6281   3.181   3.320   3.091
 2091SOL    HW2 6282   3.068   3.233   3.013
 2092SOL     OW 6283   3.444   2.501   2.334
 2092SOL    HW1 6284   3.413   2.562   2.407
 2092SOL    HW2 6285   3.494   2.553   2.265
 2093SOL     OW 6286   2.216   3.372   3.191
 2093SOL    HW1 6287   2.195   3.328   3.104
 2093SOL    HW2 6288   2.313   3.398   3.194
 2094SOL     OW 6289   2.264   2.613   3.460
 2094SOL    HW1 6290   2.332   2.668   3.413
 2094SOL    HW2 6291   2.304   2.525   3.487
 2095SOL     OW 6292   3.449   2.641   3.532
 2095SOL    HW1 6293   3.357   2.679   3.527
 2095SOL    HW2 6294   3.509   2.688   3.467
 2096SOL     OW 6295   2.875   1.967   3.632
 2096SOL    HW1 6296   2.881   2.052   3.580
 2096SOL    HW2 6297   2.907   1.891   3.575
 2097SOL     OW 6298   2.366   1.912   3.602
 2097SOL    HW1 6299   2.324   1.855   3.532
 2097SOL    HW2 6300   2.300   1.981   3.634
 2098SOL     OW 6301   2.435   2.732   2.891
 2098SOL    HW1 6302   2.479   2.821   2.882
 2098SOL    HW2 6303   2.372   2.732   2.968
 2099SOL     OW 6304   3.222   2.724   2.907
 2099SOL    HW1 6305   3.147   2.724   2.841
 2099SOL    HW2 6306   3.259   2.632   2.916
 2100SOL     OW 6307   3.071   2.387   2.137
 2100SOL    HW1 6308   3.084   2.303   2.191
 2100SOL    HW2 6309   3.042   2.461   2.197
 2101SOL     OW 6310   2.169   2.075   3.093
 2101SOL    HW1 6311   2.146   2.112   3.183
 2101SOL    HW2 6312   2.139   1.980   3.087
 2102SOL     OW 6313   1.899   3.172   3.144
 2102SOL    HW1 6314   1.952   3.123   3.212
 2102SOL    HW2 6315   1.921   3.270   3.149
 2103SOL     OW 6316   2.594   2.496   2.926
 2103SOL    HW1 6317   2.653   2.470   2.850
 2103SOL    HW2 6318   2.566   2.592   2.915
 2104SOL     OW 6319   3.590   2.797   3.716
 2104SOL    HW1 6320   3.544   2.790   3.627
 2104SOL    HW2 6321   3.528   2.841   3.782
 2105SOL     OW 6322   2.169   1.925   2.480
 2105SOL    HW1 6323   2.158   2.019   2.513
 2105SOL    HW2 6324   2.164   1.862   2.557
 2106SOL     OW 6325   3.484   2.229   2.236
 2106SOL    HW1 6326   3.486   2.153   2.300
 2106SOL    HW2 6327   3.436   2.306   2.276
 2107SOL     OW 6328   2.885   2.628   2.828
 2107SOL    HW1 6329   2.900   2.649   2.924
 2107SOL    HW2 6330   2.855   2.533   2.819
 2108SOL     OW 6331   2.842   3.435   3.562
 2108SOL    HW1 6332   2.822   3.479   3.474
 2108SOL    HW2 6333   2.881   3.344   3.546
 2109SOL     OW 6334   3.721   3.380   3.467
 2109SOL    HW1 6335   3.735   3.407   3.372
 2109SOL    HW2 6336   3.804   3.402   3.520
 2110SOL     OW 6337   2.212   2.760   3.666
 2110SOL    HW1 6338   2.288   2.804   3.714
 2110SOL    HW2 6339   2.247   2.713   3.584
 2111SOL     OW 6340   3.402   2.136   1.987
 2111SOL    HW1 6341   3.341   2.061   2.010
 2111SOL    HW2 6342   3.424   2.188   2.070
 2112SOL     OW 6343   3.165   2.700   1.904
 2112SOL    HW1 6344   3.199   2.607   1.919
 2112SOL    HW2 6345   3.183   2.727   1.809
 2113SOL     OW 6346   2.930   3.195   2.711
 2113SOL    HW1 6347   2.937   3.111   2.656
 2113SOL    HW2 6348   2.992   3.264   2.675
 2114SOL     OW 6349   2.181   2.672   2.811
 2114SOL    HW1 6350   2.274   2.708   2.816
 2114SOL    HW2 6351   2.175   2.587   2.863
 2115SOL     OW 6352   2.201   2.371   2.868
 2115SOL    HW1 6353   2.149   2.288   2.851
 2115SOL    HW2 6354   2.278   2.376   2.804
 2116SOL     OW 6355   3.000   2.242   3.540
 2116SOL    HW1 6356   2.955   2.305   3.604
 2116SOL    HW2 6357   3.093   2.273   3.523
 2117SOL     OW 6358   3.022   2.069   3.339
 2117SOL    HW1 6359   3.022   2.133   3.416
 2117SOL    HW2 6360   3.050   2.117   3.256
 2118SOL     OW 6361   1.870   3.188   2.062
 2118SOL    HW1 6362   1.777   3.209   2.031
 2118SOL    HW2 6363   1.880   3.089   2.075
 2119SOL     OW 6364   1.950   3.663   2.789
 2119SOL    HW1 6365   1.908   3.577   2.762
 2119SOL    HW2 6366   2.044   3.666   2.755
 2120SOL     OW 6367   2.366   3.430   2.772
 2120SOL    HW1 6368   2.432   3.504   2.781
 2120SOL    HW2 6369   2.410   3.351   2.730
 2121SOL     OW 6370   2.864   2.658   3.100
 2121SOL    HW1 6371   2.905   2.626   3.186
 2121SOL    HW2 6372   2.768   2.631   3.097
 2122SOL     OW 6373   1.902   2.406   2.976
 2122SOL    HW1 6374   1.987   2.373   2.935
 2122SOL    HW2 6375   1.915   2.421   3.074
 2123SOL     OW 6376   2.051   2.382   3.584
 2123SOL    HW1 6377   2.110   2.342   3.514
 2123SOL    HW2 6378   1.993   2.453   3.543
 2124SOL     OW 6379   3.231   2.812   3.522
 2124SOL    HW1 6380   3.270   2.901   3.542
 2124SOL    HW2 6381   3.241   2.792   3.425
 2125SOL     OW 6382   2.677   2.434   2.187
 2125SOL    HW1 6383   2.684   2.345   2.141
 2125SOL    HW2 6384   2.583   2.468   2.179
 2126SOL     OW 6385   3.519   2.466   3.068
 2126SOL    HW1 6386   3.481   2.397   3.130
 2126SOL    HW2 6387   3.601   2.430   3.024
 2127SOL     OW 6388   2.114   3.426   3.606
 2127SOL    HW1 6389   2.084   3.483   3.682
 2127SOL    HW2 6390   2.107   3.329   3.632
 2128SOL     OW 6391   2.533   2.326   3.131
 2128SOL    HW1 6392   2.499   2.237   3.101
 2128SOL    HW2 6393   2.559   2.380   3.051
 2129SOL     OW 6394   2.792   3.540   3.327
 2129SOL    HW1 6395   2.768   3.522   3.232
 2129SOL    HW2 6396   2.822   3.634   3.337
 2130SOL     OW 6397   2.021   2.999   3.328
 2130SOL    HW1 6398   2.043   2.938   3.404
 2130SOL    HW2 6399   2.031   2.950   3.242
 2131SOL     OW 6400   3.209   2.921   3.096
 2131SOL    HW1 6401   3.233   2.858   3.022
 2131SOL    HW2 6402   3.119   2.961   3.078
 2132SOL     OW 6403   3.164   2.717   2.171
 2132SOL    HW1 6404   3.078   2.686   2.213
 2132SOL    HW2 6405   3.160   2.703   2.072
 2133SOL     OW 6406   3.621   3.609   3.016
 2133SOL    HW1 6407   3.682   3.639   2.943
 2133SOL    HW2 6408   3.583   3.520   2.994
 2134SOL     OW 6409   3.114   3.593   2.990
 2134SOL    HW1 6410   3.198   3.598   2.936
 2134SOL    HW2 6411   3.091   3.497   3.008
 2135SOL     OW 6412   1.945   3.120   2.884
 2135SOL    HW1 6413   1.940   3.119   2.984
 2135SOL    HW2 6414   1.862   3.079   2.846
 2136SOL     OW 6415   2.550   3.524   3.578
 2136SOL    HW1 6416   2.494   3.605   3.587
 2136SOL    HW2 6417   2.602   3.528   3.492
 2137SOL     OW 6418   3.588   1.997   2.385
 2137SOL    HW1 6419   3.661   1.980   2.318
 2137SOL    HW2 6420   3.557   1.910   2.423
 2138SOL     OW 6421   3.250   3.435   2.339
 2138SOL    HW1 6422   3.317   3.447   2.265
 2138SOL    HW2 6423   3.210   3.524   2.362
 2139SOL     OW 6424   1.992   3.656   3.713
 2139SOL    HW1 6425   1.951   3.582   3.766
 2139SOL    HW2 6426   2.056   3.707   3.771
 2140SOL     OW 6427   3.142   2.789   2.534
 2140SOL    HW1 6428   3.202   2.708   2.536
 2140SOL    HW2 6429   3.182   2.858   2.474
 2141SOL     OW 6430   2.692   3.135   3.284
 2141SOL    HW1 6431   2.687   3.168   3.379
 2141SOL    HW2 6432   2.606   3.154   3.238
 2142SOL     OW 6433   2.534   3.478   2.016
 2142SOL    HW1 6434   2.543   3.488   1.917
 2142SOL    HW2 6435   2.494   3.389   2.037
 2143SOL     OW 6436   3.512   3.582   3.256
 2143SOL    HW1 6437   3.565   3.592   3.172
 2143SOL    HW2 6438   3.485   3.672   3.290
 2144SOL     OW 6439   3.703   2.037   2.825
 2144SOL    HW1 6440   3.742   1.952   2.789
 2144SOL    HW2 6441   3.605   2.039   2.806
 2145SOL     OW 6442   2.125   2.188   2.582
 2145SOL    HW1 6443   2.046   2.239   2.548
 2145SOL    HW2 6444   2.116   2.173   2.680
 2146SOL     OW 6445   3.056   3.474   1.893
 2146SOL    HW1 6446   3.062   3.381   1.930
 2146SOL    HW2 6447   2.997   3.474   1.813
 2147SOL     OW 6448   2.684   2.864   3.234
 2147SOL    HW1 6449   2.724   2.863   3.142
 2147SOL    HW2 6450   2.694   2.956   3.274
 2148SOL     OW 6451   2.778   2.772   2.153
 2148SOL    HW1 6452   2.841   2.810   2.085
 2148SOL    HW2 6453   2.818   2.689   2.192
 2149SOL     OW 6454   3.366   3.469   1.906
 2149SOL    HW1 6455   3.274   3.506   1.913
 2149SOL    HW2 6456   3.404   3.489   1.816
 2150SOL     OW 6457   2.234   3.150   3.352
 2150SOL    HW1 6458   2.221   3.243   3.318
 2150SOL    HW2 6459   2.150   3.098   3.339
 2151SOL     OW 6460   3.476   3.154   3.151
 2151SOL    HW1 6461   3.536   3.157   3.231
 2151SOL    HW2 6462   3.401   3.218   3.164
 2152SOL     OW 6463   2.901   2.960   2.558
 2152SOL    HW1 6464   2.831   2.913   2.612
 2152SOL    HW2 6465   2.960   2.892   2.515
 2153SOL     OW 6466   2.876   2.098   2.833
 2153SOL    HW1 6467   2.868   2.062   2.740
 2153SOL    HW2 6468   2.874   2.022   2.898
 2154SOL     OW 6469   2.452   3.349   2.353
 2154SOL    HW1 6470   2.494   3.291   2.283
 2154SOL    HW2 6471   2.408   3.428   2.309
 2155SOL     OW 6472   3.571   2.247   3.243
 2155SOL    HW1 6473   3.644   2.316   3.247
 2155SOL    HW2 6474   3.599   2.172   3.184
 2156SOL     OW 6475   2.117   3.210   2.152
 2156SOL    HW1 6476   2.021   3.211   2.125
 2156SOL    HW2 6477   2.129   3.263   2.236
 2157SOL     OW 6478   1.967   2.875   3.588
 2157SOL    HW1 6479   1.890   2.842   3.642
 2157SOL    HW2 6480   2.052   2.845   3.630
 2158SOL     OW 6481   2.534   2.065   3.351
 2158SOL    HW1 6482   2.624   2.049   3.311
 2158SOL    HW2 6483   2.542   2.070   3.450
 2159SOL     OW 6484   1.937   2.207   1.895
 2159SOL    HW1 6485   1.845   2.179   1.866
 2159SOL    HW2 6486   1.968   2.284   1.839
 2160SOL     OW 6487   3.302   2.718   3.260
 2160SOL    HW1 6488   3.245   2.770   3.197
 2160SOL    HW2 6489   3.398   2.730   3.236
 2161SOL     OW 6490   1.934   2.028   2.180
 2161SOL    HW1 6491   1.917   2.111   2.126
 2161SOL    HW2 6492   2.024   1.991   2.158
 2162SOL     OW 6493   3.045   3.197   1.981
 2162SOL    HW1 6494   2.946   3.186   1.983
 2162SOL    HW2 6495   3.079   3.212   2.074
 2163SOL     OW 6496   2.475   2.704   3.293
 2163SOL    HW1 6497   2.531   2.785   3.276
 2163SOL    HW2 6498   2.534   2.624   3.296
 2164SOL     OW 6499   3.355   3.629   2.821
 2164SOL    HW1 6500   3.388   3.693   2.752
 2164SOL    HW2 6501   3.421   3.623   2.896
 2165SOL     OW 6502   2.578   2.427   3.570
 2165SOL    HW1 6503   2.597   2.492   3.644
 2165SOL    HW2 6504   2.638   2.347   3.579
 2166SOL     OW 6505   3.312   3.082   3.495
 2166SOL    HW1 6506   3.303   3.072   3.594
 2166SOL    HW2 6507   3.408   3.075   3.469
 2167SOL     OW 6508   2.252   3.603   3.422
 2167SOL    HW1 6509   2.161   3.644   3.420
 2167SOL    HW2 6510   2.245   3.509   3.454
 2168SOL     OW 6511   3.536   2.745   3.116
 2168SOL    HW1 6512   3.509   2.656   3.079
 2168SOL    HW2 6513   3.537   2.813   3.043
 2169SOL     OW 6514   3.087   2.187   2.311
 2169SOL    HW1 6515   3.152   2.113   2.300
 2169SOL    HW2 6516   3.107   2.237   2.395
 2170SOL     OW 6517   2.456   2.607   2.514
 2170SOL    HW1 6518   2.506   2.692   2.495
 2170SOL    HW2 6519   2.368   2.609   2.466
 2171SOL     OW 6520   3.639   2.204   3.504
 2171SOL    HW1 6521   3.622   2.235   3.410
 2171SOL    HW2 6522   3.555   2.167   3.542
 2172SOL     OW 6523   3.592   2.796   3.379
 2172SOL    HW1 6524   3.630   2.887   3.394
 2172SOL    HW2 6525   3.584   2.779   3.280
 2173SOL     OW 6526   2.721   3.236   1.878
 2173SOL    HW1 6527   2.675   3.251   1.966
 2173SOL    HW2 6528   2.765   3.321   1.848
 2174SOL     OW 6529   2.523   3.652   2.815
 2174SOL    HW1 6530   2.477   3.740   2.802
 2174SOL    HW2 6531   2.622   3.664   2.808
 2175SOL     OW 6532   2.721   2.818   2.723
 2175SOL    HW1 6533   2.775   2.749   2.771
 2175SOL    HW2 6534   2.689   2.887   2.789
 2176SOL     OW 6535   2.945   2.846   1.949
 2176SOL    HW1 6536   2.922   2.899   1.867
 2176SOL    HW2 6537   3.026   2.790   1.930
 2177SOL     OW 6538   3.723   3.431   2.713
 2177SOL    HW1 6539   3.652   3.419   2.643
 2177SOL    HW2 6540   3.724   3.352   2.773
 2178SOL     OW 6541   2.083   3.176   3.706
 2178SOL    HW1 6542   2.018   3.103   3.685
 2178SOL    HW2 6543   2.087   3.190   3.804
 2179SOL     OW 6544   1.941   3.102   2.515
 2179SOL    HW1 6545   1.940   3.055   2.603
 2179SOL    HW2 6546   2.023   3.074   2.464
 2180SOL     OW 6547   2.534   3.253   3.486
 2180SOL    HW1 6548   2.456   3.203   3.524
 2180SOL    HW2 6549   2.531   3.348   3.517
 2181SOL     OW 6550   3.686   2.054   3.089
 2181SOL    HW1 6551   3.682   1.964   3.133
 2181SOL    HW2 6552   3.689   2.043   2.990
 2182SOL     OW 6553   3.567   3.349   2.966
 2182SOL    HW1 6554   3.474   3.324   2.939
 2182SOL    HW2 6555   3.593   3.299   3.048
 2183SOL     OW 6556   2.179   2.409   3.142
 2183SOL    HW1 6557   2.217   2.350   3.214
 2183SOL    HW2 6558   2.219   2.383   3.054
 2184SOL     OW 6559   2.674   3.448   2.549
 2184SOL    HW1 6560   2.706   3.458   2.455
 2184SOL    HW2 6561   2.595   3.386   2.551
 2185SOL     OW 6562   3.286   2.076   2.974
 2185SOL    HW1 6563   3.338   2.011   3.029
 2185SOL    HW2 6564   3.237   2.139   3.035
 2186SOL     OW 6565   2.863   1.896   3.016
 2186SOL    HW1 6566   2.800   1.824   2.985
 2186SOL    HW2 6567   2.956   1.860   3.016
 2187SOL     OW 6568   2.632   3.192   2.163
 2187SOL    HW1 6569   2.586   3.105   2.180
 2187SOL    HW2 6570   2.723   3.189   2.204
 2188SOL     OW 6571   2.480   3.429   3.146
 2188SOL    HW1 6572   2.475   3.511   3.203
 2188SOL    HW2 6573   2.569   3.426   3.101
 2189SOL     OW 6574   3.214   1.914   2.030
 2189SOL    HW1 6575   3.249   1.873   1.946
 2189SOL    HW2 6576   3.124   1.876   2.050
 2190SOL     OW 6577   3.162   2.315   2.553
 2190SOL    HW1 6578   3.103   2.395   2.557
 2190SOL    HW2 6579   3.177   2.280   2.646
 2191SOL     OW 6580   3.455   2.083   2.744
 2191SOL    HW1 6581   3.371   2.082   2.798
 2191SOL    HW2 6582   3.457   2.166   2.688
 2192SOL     OW 6583   1.901   2.939   2.162
 2192SOL    HW1 6584   2.000   2.928   2.153
 2192SOL    HW2 6585   1.861   2.853   2.194
 2193SOL     OW 6586   2.737   3.508   2.199
 2193SOL    HW1 6587   2.660   3.473   2.145
 2193SOL    HW2 6588   2.705   3.579   2.261
 2194SOL     OW 6589   2.092   2.490   3.837
 2194SOL    HW1 6590   1.999   2.488   3.874
 2194SOL    HW2 6591   2.093   2.451   3.745
 2195SOL     OW 6592   1.881   2.230   4.371
 2195SOL    HW1 6593   1.799   2.273   4.410
 2195SOL    HW2 6594   1.853   2.157   4.308
 2196SOL     OW 6595   3.617   2.469   3.955
 2196SOL    HW1 6596   3.605   2.456   3.856
 2196SOL    HW2 6597   3.587   2.388   4.004
 2197SOL     OW 6598   2.547   2.874   4.389
 2197SOL    HW1 6599   2.616   2.858   4.459
 2197SOL    HW2 6600   2.474   2.931   4.427
 2198SOL     OW 6601   3.465   2.309   4.461
 2198SOL    HW1 6602   3.391   2.355   4.411
 2198SOL    HW2 6603   3.516   2.377   4.514
 2199SOL     OW 6604   2.093   3.575   4.207
 2199SOL    HW1 6605   2.127   3.652   4.261
 2199SOL    HW2 6606   2.137   3.575   4.117
 2200SOL     OW 6607   2.092   3.296   4.262
 2200SOL    HW1 6608   2.066   3.392   4.262
 2200SOL    HW2 6609   2.021   3.242   4.307
 2201SOL     OW 6610   2.468   2.826   3.847
 2201SOL    HW1 6611   2.475   2.910   3.793
 2201SOL    HW2 6612   2.514   2.839   3.935
 2202SOL     OW 6613   1.984   2.505   4.287
 2202SOL    HW1 6614   1.939   2.417   4.304
 2202SOL    HW2 6615   1.983   2.559   4.371
 2203SOL     OW 6616   3.704   3.629   4.083
 2203SOL    HW1 6617   3.758   3.600   4.163
 2203SOL    HW2 6618   3.734   3.719   4.054
 2204SOL     OW 6619   1.889   3.458   3.841
 2204SOL    HW1 6620   1.870   3.362   3.862
 2204SOL    HW2 6621   1.856   3.516   3.916
 2205SOL     OW 6622   3.551   2.784   4.336
 2205SOL    HW1 6623   3.646   2.755   4.344
 2205SOL    HW2 6624   3.543   2.849   4.261
 2206SOL     OW 6625   3.503   2.970   4.156
 2206SOL    HW1 6626   3.589   2.972   4.104
 2206SOL    HW2 6627   3.517   3.017   4.244
 2207SOL     OW 6628   2.475   3.227   4.450
 2207SOL    HW1 6629   2.426   3.140   4.459
 2207SOL    HW2 6630   2.452   3.270   4.363
 2208SOL     OW 6631   2.671   1.866   4.226
 2208SOL    HW1 6632   2.711   1.957   4.217
 2208SOL    HW2 6633   2.571   1.874   4.232
 2209SOL     OW 6634   3.387   2.861   3.914
 2209SOL    HW1 6635   3.324   2.785   3.927
 2209SOL    HW2 6636   3.435   2.879   4.000
 2210SOL     OW 6637   3.529   3.576   4.296
 2210SOL    HW1 6638   3.488   3.553   4.208
 2210SOL    HW2 6639   3.511   3.502   4.361
 2211SOL     OW 6640   2.460   2.591   3.994
 2211SOL    HW1 6641   2.484   2.660   3.926
 2211SOL    HW2 6642   2.382   2.624   4.048
 2212SOL     OW 6643   3.143   2.207   4.668
 2212SOL    HW1 6644   3.057   2.157   4.655
 2212SOL    HW2 6645   3.205   2.153   4.724
 2213SOL     OW 6646   3.438   3.524   4.031
 2213SOL    HW1 6647   3.527   3.570   4.034
 2213SOL    HW2 6648   3.417   3.500   3.936
 2214SOL     OW 6649   2.903   2.563   4.153
 2214SOL    HW1 6650   2.929   2.559   4.249
 2214SOL    HW2 6651   2.818   2.512   4.139
 2215SOL     OW 6652   1.938   2.673   4.513
 2215SOL    HW1 6653   2.037   2.661   4.522
 2215SOL    HW2 6654   1.914   2.768   4.534
 2216SOL     OW 6655   2.727   2.210   3.919
 2216SOL    HW1 6656   2.786   2.273   3.870
 2216SOL    HW2 6657   2.746   2.116   3.890
 2217SOL     OW 6658   3.224   3.006   4.269
 2217SOL    HW1 6659   3.307   2.977   4.221
 2217SOL    HW2 6660   3.175   3.073   4.213
 2218SOL     OW 6661   2.870   3.318   4.201
 2218SOL    HW1 6662   2.824   3.390   4.149
 2218SOL    HW2 6663   2.866   3.338   4.299
 2219SOL     OW 6664   2.213   3.663   4.577
 2219SOL    HW1 6665   2.263   3.577   4.583
 2219SOL    HW2 6666   2.278   3.740   4.574
 2220SOL     OW 6667   3.657   2.928   4.597
 2220SOL    HW1 6668   3.595   2.913   4.521
 2220SOL    HW2 6669   3.605   2.939   4.682
 2221SOL     OW 6670   2.183   2.805   3.966
 2221SOL    HW1 6671   2.265   2.844   3.924
 2221SOL    HW2 6672   2.156   2.723   3.917
 2222SOL     OW 6673   2.973   3.638   3.961
 2222SOL    HW1 6674   2.913   3.576   4.011
 2222SOL    HW2 6675   3.004   3.594   3.876
 2223SOL     OW 6676   3.494   3.239   3.805
 2223SOL    HW1 6677   3.462   3.333   3.795
 2223SOL    HW2 6678   3.418   3.176   3.793
 2224SOL     OW 6679   2.326   3.605   4.047
 2224SOL    HW1 6680   2.359   3.644   4.133
 2224SOL    HW2 6681   2.402   3.598   3.982
 2225SOL     OW 6682   3.262   1.969   4.150
 2225SOL    HW1 6683   3.238   1.932   4.060
 2225SOL    HW2 6684   3.361   1.985   4.154
 2226SOL     OW 6685   2.802   3.560   4.628
 2226SOL    HW1 6686   2.882   3.503   4.649
 2226SOL    HW2 6687   2.753   3.520   4.551
 2227SOL     OW 6688   2.244   2.562   4.204
 2227SOL    HW1 6689   2.289   2.472   4.201
 2227SOL    HW2 6690   2.150   2.551   4.237
 2228SOL     OW 6691   2.476   1.984   3.841
 2228SOL    HW1 6692   2.574   1.962   3.848
 2228SOL    HW2 6693   2.445   1.967   3.748
 2229SOL     OW 6694   2.401   1.926   4.236
 2229SOL    HW1 6695   2.320   1.927   4.294
 2229SOL    HW2 6696   2.404   2.009   4.181
 2230SOL     OW 6697   3.296   3.050   3.765
 2230SOL    HW1 6698   3.328   2.974   3.822
 2230SOL    HW2 6699   3.204   3.077   3.795
 2231SOL     OW 6700   2.159   1.897   3.895
 2231SOL    HW1 6701   2.208   1.981   3.874
 2231SOL    HW2 6702   2.221   1.832   3.940
 2232SOL     OW 6703   2.797   2.098   4.204
 2232SOL    HW1 6704   2.749   2.139   4.126
 2232SOL    HW2 6705   2.896   2.096   4.185
 2233SOL     OW 6706   2.321   3.014   4.465
 2233SOL    HW1 6707   2.250   2.987   4.530
 2233SOL    HW2 6708   2.295   2.986   4.372
 2234SOL     OW 6709   3.133   3.659   4.315
 2234SOL    HW1 6710   3.177   3.723   4.251
 2234SOL    HW2 6711   3.083   3.711   4.385
 2235SOL     OW 6712   2.894   2.411   3.740
 2235SOL    HW1 6713   2.853   2.493   3.701
 2235SOL    HW2 6714   2.958   2.437   3.813
 2236SOL     OW 6715   2.728   2.316   4.366
 2236SOL    HW1 6716   2.696   2.388   4.304
 2236SOL    HW2 6717   2.752   2.235   4.313
 2237SOL     OW 6718   3.719   2.695   4.101
 2237SOL    HW1 6719   3.761   2.631   4.165
 2237SOL    HW2 6720   3.681   2.644   4.023
 2238SOL     OW 6721   2.350   3.247   3.898
 2238SOL    HW1 6722   2.263   3.232   3.945
 2238SOL    HW2 6723   2.333   3.273   3.803
 2239SOL     OW 6724   3.526   3.142   4.381
 2239SOL    HW1 6725   3.625   3.150   4.395
 2239SOL    HW2 6726   3.481   3.226   4.412
 2240SOL     OW 6727   3.252   2.437   3.802
 2240SOL    HW1 6728   3.198   2.416   3.883
 2240SOL    HW2 6729   3.343   2.396   3.811
 2241SOL     OW 6730   2.389   2.118   4.052
 2241SOL    HW1 6731   2.416   2.059   3.977
 2241SOL    HW2 6732   2.389   2.213   4.021
 2242SOL     OW 6733   2.567   2.912   4.092
 2242SOL    HW1 6734   2.553   2.919   4.191
 2242SOL    HW2 6735   2.651   2.861   4.074
 2243SOL     OW 6736   2.229   2.962   4.225
 2243SOL    HW1 6737   2.222   3.045   4.169
 2243SOL    HW2 6738   2.233   2.882   4.165
 2244SOL     OW 6739   3.114   3.210   4.112
 2244SOL    HW1 6740   3.164   3.287   4.152
 2244SOL    HW2 6741   3.019   3.212   4.144
 2245SOL     OW 6742   3.444   2.501   4.196
 2245SOL    HW1 6743   3.413   2.562   4.269
 2245SOL    HW2 6744   3.494   2.553   4.127
 2246SOL     OW 6745   3.071   2.387   3.999
 2246SOL    HW1 6746   3.084   2.303   4.053
 2246SOL    HW2 6747   3.042   2.461   4.059
 2247SOL     OW 6748   2.169   1.925   4.342
 2247SOL    HW1 6749   2.158   2.019   4.375
 2247SOL    HW2 6750   2.164   1.862   4.419
 2248SOL     OW 6751   3.484   2.229   4.098
 2248SOL    HW1 6752   3.486   2.153   4.162
 2248SOL    HW2 6753   3.436   2.306   4.138
 2249SOL     OW 6754   3.402   2.136   3.849
 2249SOL    HW1 6755   3.341   2.061   3.872
 2249SOL    HW2 6756   3.424   2.188   3.932
 2250SOL     OW 6757   3.165   2.700   3.766
 2250SOL    HW1 6758   3.199   2.607   3.781
 2250SOL    HW2 6759   3.183   2.727   3.671
 2251SOL     OW 6760   1.870   3.188   3.924
 2251SOL    HW1 6761   1.777   3.209   3.893
 2251SOL    HW2 6762   1.880   3.089   3.937
 2252SOL     OW 6763   1.902   2.406   4.838
 2252SOL    HW1 6764   1.987   2.373   4.797
 2252SOL    HW2 6765   1.915   2.421   4.936
 2253SOL     OW 6766   2.677   2.434   4.049
 2253SOL    HW1 6767   2.684   2.345   4.003
 2253SOL    HW2 6768   2.583   2.468   4.041
 2254SOL     OW 6769   2.335   2.362   3.915
 2254SOL    HW1 6770   2.396   2.442   3.919
 2254SOL    HW2 6771   2.240   2.393   3.922
 2255SOL     OW 6772   3.164   2.717   4.033
 2255SOL    HW1 6773   3.078   2.686   4.075
 2255SOL    HW2 6774   3.160   2.703   3.934
 2256SOL     OW 6775   3.588   1.997   4.247
 2256SOL    HW1 6776   3.661   1.980   4.180
 2256SOL    HW2 6777   3.557   1.910   4.285
 2257SOL     OW 6778   3.250   3.435   4.201
 2257SOL    HW1 6779   3.317   3.447   4.127
 2257SOL    HW2 6780   3.210   3.524   4.224
 2258SOL     OW 6781   2.534   3.478   3.878
 2258SOL    HW1 6782   2.543   3.488   3.779
 2258SOL    HW2 6783   2.494   3.389   3.899
 2259SOL     OW 6784   3.703   2.037   4.687
 2259SOL    HW1 6785   3.742   1.952   4.651
 2259SOL    HW2 6786   3.605   2.039   4.668
 2260SOL     OW 6787   2.125   2.188   4.444
 2260SOL    HW1 6788   2.046   2.239   4.410
 2260SOL    HW2 6789   2.116   2.173   4.542
 2261SOL     OW 6790   3.056   3.474   3.755
 2261SOL    HW1 6791   3.062   3.381   3.792
 2261SOL    HW2 6792   2.997   3.474   3.675
 2262SOL     OW 6793   2.778   2.772   4.015
 2262SOL    HW1 6794   2.841   2.810   3.947
 2262SOL    HW2 6795   2.818   2.689   4.054
 2263SOL     OW 6796   3.366   3.469   3.768
 2263SOL    HW1 6797   3.274   3.506   3.775
 2263SOL    HW2 6798   3.404   3.489   3.678
 2264SOL     OW 6799   2.452   3.349   4.215
 2264SOL    HW1 6800   2.494   3.291   4.145
 2264SOL    HW2 6801   2.408   3.428   4.171
 2265SOL     OW 6802   2.117   3.210   4.014
 2265SOL    HW1 6803   2.021   3.211   3.987
 2265SOL    HW2 6804   2.129   3.263   4.098
 2266SOL     OW 6805   1.937   2.207   3.757
 2266SOL    HW1 6806   1.845   2.179   3.728
 2266SOL    HW2 6807   1.968   2.284   3.701
 2267SOL     OW 6808   1.934   2.028   4.042
 2267SOL    HW1 6809   1.917   2.111   3.988
 2267SOL    HW2 6810   2.024   1.991   4.020
 2268SOL     OW 6811   3.045   3.197   3.843
 2268SOL    HW1 6812   2.946   3.186   3.845
 2268SOL    HW2 6813   3.079   3.212   3.936
 2269SOL     OW 6814   3.087   2.187   4.173
 2269SOL    HW1 6815   3.152   2.113   4.162
 2269SOL    HW2 6816   3.107   2.237   4.257
 2270SOL     OW 6817   2.456   2.607   4.376
 2270SOL    HW1 6818   2.506   2.692   4.357
 2270SOL    HW2 6819   2.368   2.609   4.328
 2271SOL     OW 6820   2.721   3.236   3.740
 2271SOL    HW1 6821   2.675   3.251   3.828
 2271SOL    HW2 6822   2.765   3.321   3.710
 2272SOL     OW 6823   2.523   3.652   4.677
 2272SOL    HW1 6824   2.477   3.740   4.664
 2272SOL    HW2 6825   2.622   3.664   4.670
 2273SOL     OW 6826   2.721   2.818   4.585
 2273SOL    HW1 6827   2.775   2.749   4.633
 2273SOL    HW2 6828   2.689   2.887   4.651
 2274SOL     OW 6829   2.945   2.846   3.811
 2274SOL    HW1 6830   2.922   2.899   3.729
 2274SOL    HW2 6831   3.026   2.790   3.792
 2275SOL     OW 6832   1.941   3.102   4.377
 2275SOL    HW1 6833   1.940   3.055   4.465
 2275SOL    HW2 6834   2.023   3.074   4.326
 2276SOL     OW 6835   2.290   2.286   4.244
 2276SOL    HW1 6836   2.320   2.214   4.182
 2276SOL    HW2 6837   2.251   2.246   4.327
 2277SOL     OW 6838   2.674   3.448   4.411
 2277SOL    HW1 6839   2.706   3.458   4.317
 2277SOL    HW2 6840   2.595   3.386   4.413
 2278SOL     OW 6841   2.632   3.192   4.025
 2278SOL    HW1 6842   2.586   3.105   4.042
 2278SOL    HW2 6843   2.723   3.189   4.066
 2279SOL     OW 6844   3.214   1.914   3.892
 2279SOL    HW1 6845   3.249   1.873   3.808
 2279SOL    HW2 6846   3.124   1.876   3.912
 2280SOL     OW 6847   3.162   2.315   4.415
 2280SOL    HW1 6848   3.103   2.395   4.419
 2280SOL    HW2 6849   3.177   2.280   4.508
 2281SOL     OW 6850   1.901   2.939   4.024
 2281SOL    HW1 6851   2.000   2.928   4.015
 2281SOL    HW2 6852   1.861   2.853   4.056
 2282SOL     OW 6853   2.737   3.508   4.061
 2282SOL    HW1 6854   2.660   3.473   4.007
 2282SOL    HW2 6855   2.705   3.579   4.123
 2283SOL     OW 6856   2.092   4.352   0.113
 2283SOL    HW1 6857   1.999   4.350   0.150
 2283SOL    HW2 6858   2.093   4.313   0.021
 2284SOL     OW 6859   2.087   3.999   0.996
 2284SOL    HW1 6860   2.122   3.982   1.088
 2284SOL    HW2 6861   1.999   3.954   0.984
 2285SOL     OW 6862   1.881   4.092   0.647
 2285SOL    HW1 6863   1.799   4.135   0.686
 2285SOL    HW2 6864   1.853   4.019   0.584
 2286SOL     OW 6865   3.617   4.331   0.231
 2286SOL    HW1 6866   3.605   4.318   0.132
 2286SOL    HW2 6867   3.587   4.250   0.280
 2287SOL     OW 6868   2.712   4.522   1.823
 2287SOL    HW1 6869   2.708   4.598   1.888
 2287SOL    HW2 6870   2.734   4.558   1.732
 2288SOL     OW 6871   2.547   4.736   0.665
 2288SOL    HW1 6872   2.616   4.720   0.735
 2288SOL    HW2 6873   2.474   4.793   0.703
 2289SOL     OW 6874   2.300   4.116   1.499
 2289SOL    HW1 6875   2.382   4.060   1.508
 2289SOL    HW2 6876   2.219   4.058   1.503
 2290SOL     OW 6877   3.465   4.171   0.737
 2290SOL    HW1 6878   3.391   4.217   0.687
 2290SOL    HW2 6879   3.516   4.239   0.790
 2291SOL     OW 6880   3.456   3.838   1.480
 2291SOL    HW1 6881   3.438   3.905   1.408
 2291SOL    HW2 6882   3.453   3.884   1.569
 2292SOL     OW 6883   1.984   4.367   0.563
 2292SOL    HW1 6884   1.939   4.279   0.580
 2292SOL    HW2 6885   1.983   4.421   0.647
 2293SOL     OW 6886   1.975   4.461   1.597
 2293SOL    HW1 6887   2.063   4.448   1.642
 2293SOL    HW2 6888   1.962   4.558   1.575
 2294SOL     OW 6889   2.671   3.728   0.502
 2294SOL    HW1 6890   2.711   3.819   0.493
 2294SOL    HW2 6891   2.571   3.736   0.508
 2295SOL     OW 6892   2.179   3.975   1.801
 2295SOL    HW1 6893   2.250   4.046   1.807
 2295SOL    HW2 6894   2.091   4.014   1.829
 2296SOL     OW 6895   2.460   4.453   0.270
 2296SOL    HW1 6896   2.484   4.522   0.202
 2296SOL    HW2 6897   2.382   4.486   0.324
 2297SOL     OW 6898   3.143   4.069   0.944
 2297SOL    HW1 6899   3.057   4.019   0.931
 2297SOL    HW2 6900   3.205   4.015   1.000
 2298SOL     OW 6901   2.669   4.329   1.465
 2298SOL    HW1 6902   2.622   4.326   1.554
 2298SOL    HW2 6903   2.618   4.274   1.399
 2299SOL     OW 6904   3.256   4.193   1.674
 2299SOL    HW1 6905   3.236   4.236   1.762
 2299SOL    HW2 6906   3.334   4.131   1.683
 2300SOL     OW 6907   2.853   4.134   1.242
 2300SOL    HW1 6908   2.776   4.168   1.296
 2300SOL    HW2 6909   2.819   4.083   1.163
 2301SOL     OW 6910   2.903   4.425   0.429
 2301SOL    HW1 6911   2.929   4.421   0.525
 2301SOL    HW2 6912   2.818   4.374   0.415
 2302SOL     OW 6913   2.727   4.072   0.195
 2302SOL    HW1 6914   2.786   4.135   0.146
 2302SOL    HW2 6915   2.746   3.978   0.166
 2303SOL     OW 6916   3.581   4.309   1.831
 2303SOL    HW1 6917   3.555   4.398   1.795
 2303SOL    HW2 6918   3.579   4.241   1.758
 2304SOL     OW 6919   2.412   3.920   0.885
 2304SOL    HW1 6920   2.407   3.915   0.985
 2304SOL    HW2 6921   2.414   4.016   0.856
 2305SOL     OW 6922   3.320   4.459   0.728
 2305SOL    HW1 6923   3.315   4.394   0.803
 2305SOL    HW2 6924   3.400   4.518   0.741
 2306SOL     OW 6925   2.064   4.009   1.498
 2306SOL    HW1 6926   1.984   4.069   1.485
 2306SOL    HW2 6927   2.054   3.960   1.584
 2307SOL     OW 6928   3.262   3.831   0.426
 2307SOL    HW1 6929   3.238   3.794   0.336
 2307SOL    HW2 6930   3.361   3.847   0.430
 2308SOL     OW 6931   2.244   4.424   0.480
 2308SOL    HW1 6932   2.289   4.334   0.477
 2308SOL    HW2 6933   2.150   4.413   0.513
 2309SOL     OW 6934   3.409   3.946   1.729
 2309SOL    HW1 6935   3.404   3.983   1.821
 2309SOL    HW2 6936   3.337   3.877   1.717
 2310SOL     OW 6937   2.643   3.988   1.749
 2310SOL    HW1 6938   2.710   3.927   1.792
 2310SOL    HW2 6939   2.570   4.007   1.814
 2311SOL     OW 6940   3.213   4.314   1.433
 2311SOL    HW1 6941   3.241   4.271   1.518
 2311SOL    HW2 6942   3.238   4.410   1.434
 2312SOL     OW 6943   2.784   4.227   0.899
 2312SOL    HW1 6944   2.759   4.218   0.803
 2312SOL    HW2 6945   2.832   4.145   0.930
 2313SOL     OW 6946   2.401   3.788   0.512
 2313SOL    HW1 6947   2.320   3.789   0.570
 2313SOL    HW2 6948   2.404   3.871   0.457
 2314SOL     OW 6949   2.797   3.960   0.480
 2314SOL    HW1 6950   2.749   4.001   0.402
 2314SOL    HW2 6951   2.896   3.958   0.461
 2315SOL     OW 6952   2.938   4.407   1.464
 2315SOL    HW1 6953   2.858   4.346   1.467
 2315SOL    HW2 6954   3.019   4.354   1.440
 2316SOL     OW 6955   2.894   4.273   0.016
 2316SOL    HW1 6956   2.853   4.355  -0.023
 2316SOL    HW2 6957   2.958   4.299   0.089
 2317SOL     OW 6958   1.940   4.280   1.386
 2317SOL    HW1 6959   2.032   4.279   1.345
 2317SOL    HW2 6960   1.934   4.354   1.453
 2318SOL     OW 6961   2.423   3.946   1.147
 2318SOL    HW1 6962   2.461   3.862   1.184
 2318SOL    HW2 6963   2.335   3.965   1.191
 2319SOL     OW 6964   2.728   4.178   0.642
 2319SOL    HW1 6965   2.696   4.250   0.580
 2319SOL    HW2 6966   2.752   4.097   0.589
 2320SOL     OW 6967   2.879   3.763   0.753
 2320SOL    HW1 6968   2.807   3.768   0.684
 2320SOL    HW2 6969   2.855   3.694   0.822
 2321SOL     OW 6970   3.328   4.314   0.992
 2321SOL    HW1 6971   3.298   4.219   0.999
 2321SOL    HW2 6972   3.401   4.330   1.058
 2322SOL     OW 6973   3.252   4.299   0.078
 2322SOL    HW1 6974   3.198   4.278   0.159
 2322SOL    HW2 6975   3.343   4.258   0.087
 2323SOL     OW 6976   2.389   3.980   0.328
 2323SOL    HW1 6977   2.416   3.921   0.253
 2323SOL    HW2 6978   2.389   4.075   0.297
 2324SOL     OW 6979   2.777   3.813   1.402
 2324SOL    HW1 6980   2.802   3.793   1.307
 2324SOL    HW2 6981   2.849   3.869   1.444
 2325SOL     OW 6982   2.567   4.774   0.368
 2325SOL    HW1 6983   2.553   4.781   0.467
 2325SOL    HW2 6984   2.651   4.723   0.350
 2326SOL     OW 6985   2.272   4.537   1.251
 2326SOL    HW1 6986   2.358   4.549   1.301
 2326SOL    HW2 6987   2.230   4.450   1.278
 2327SOL     OW 6988   3.136   4.110   1.262
 2327SOL    HW1 6989   3.157   4.184   1.326
 2327SOL    HW2 6990   3.047   4.127   1.219
 2328SOL     OW 6991   2.428   4.261   0.865
 2328SOL    HW1 6992   2.440   4.327   0.791
 2328SOL    HW2 6993   2.474   4.295   0.948
 2329SOL     OW 6994   3.444   4.363   0.472
 2329SOL    HW1 6995   3.413   4.424   0.545
 2329SOL    HW2 6996   3.494   4.415   0.403
 2330SOL     OW 6997   3.449   4.503   1.670
 2330SOL    HW1 6998   3.357   4.541   1.665
 2330SOL    HW2 6999   3.509   4.550   1.605
 2331SOL     OW 7000   2.875   3.829   1.770
 2331SOL    HW1 7001   2.881   3.914   1.718
 2331SOL    HW2 7002   2.907   3.753   1.713
 2332SOL     OW 7003   2.366   3.774   1.740
 2332SOL    HW1 7004   2.324   3.717   1.670
 2332SOL    HW2 7005   2.300   3.843   1.772
 2333SOL     OW 7006   3.222   4.586   1.045
 2333SOL    HW1 7007   3.147   4.586   0.979
 2333SOL    HW2 7008   3.259   4.494   1.054
 2334SOL     OW 7009   3.071   4.249   0.275
 2334SOL    HW1 7010   3.084   4.165   0.329
 2334SOL    HW2 7011   3.042   4.323   0.335
 2335SOL     OW 7012   2.169   3.937   1.231
 2335SOL    HW1 7013   2.146   3.974   1.321
 2335SOL    HW2 7014   2.139   3.842   1.225
 2336SOL     OW 7015   2.594   4.358   1.064
 2336SOL    HW1 7016   2.653   4.332   0.988
 2336SOL    HW2 7017   2.566   4.454   1.053
 2337SOL     OW 7018   3.590   4.659   1.854
 2337SOL    HW1 7019   3.544   4.652   1.765
 2337SOL    HW2 7020   3.528   4.703   1.920
 2338SOL     OW 7021   2.169   3.787   0.618
 2338SOL    HW1 7022   2.158   3.881   0.651
 2338SOL    HW2 7023   2.164   3.724   0.695
 2339SOL     OW 7024   3.484   4.091   0.374
 2339SOL    HW1 7025   3.486   4.015   0.438
 2339SOL    HW2 7026   3.436   4.168   0.414
 2340SOL     OW 7027   3.402   3.998   0.125
 2340SOL    HW1 7028   3.341   3.923   0.148
 2340SOL    HW2 7029   3.424   4.050   0.208
 2341SOL     OW 7030   2.181   4.534   0.949
 2341SOL    HW1 7031   2.274   4.570   0.954
 2341SOL    HW2 7032   2.175   4.449   1.001
 2342SOL     OW 7033   2.201   4.233   1.006
 2342SOL    HW1 7034   2.149   4.150   0.989
 2342SOL    HW2 7035   2.278   4.238   0.942
 2343SOL     OW 7036   3.000   4.104   1.678
 2343SOL    HW1 7037   2.955   4.167   1.742
 2343SOL    HW2 7038   3.093   4.135   1.661
 2344SOL     OW 7039   3.022   3.931   1.477
 2344SOL    HW1 7040   3.022   3.995   1.554
 2344SOL    HW2 7041   3.050   3.979   1.394
 2345SOL     OW 7042   1.902   4.268   1.114
 2345SOL    HW1 7043   1.987   4.235   1.073
 2345SOL    HW2 7044   1.915   4.283   1.212
 2346SOL     OW 7045   2.051   4.244   1.722
 2346SOL    HW1 7046   2.110   4.204   1.652
 2346SOL    HW2 7047   1.993   4.315   1.681
 2347SOL     OW 7048   2.677   4.296   0.325
 2347SOL    HW1 7049   2.684   4.207   0.279
 2347SOL    HW2 7050   2.583   4.330   0.317
 2348SOL     OW 7051   3.519   4.328   1.206
 2348SOL    HW1 7052   3.481   4.259   1.268
 2348SOL    HW2 7053   3.601   4.292   1.162
 2349SOL     OW 7054   2.533   4.188   1.269
 2349SOL    HW1 7055   2.499   4.099   1.239
 2349SOL    HW2 7056   2.559   4.242   1.189
 2350SOL     OW 7057   2.335   4.224   0.191
 2350SOL    HW1 7058   2.396   4.304   0.195
 2350SOL    HW2 7059   2.240   4.255   0.198
 2351SOL     OW 7060   2.765   3.810   0.133
 2351SOL    HW1 7061   2.816   3.811   0.047
 2351SOL    HW2 7062   2.821   3.768   0.204
 2352SOL     OW 7063   3.588   3.859   0.523
 2352SOL    HW1 7064   3.661   3.842   0.456
 2352SOL    HW2 7065   3.557   3.772   0.561
 2353SOL     OW 7066   3.142   4.651   0.672
 2353SOL    HW1 7067   3.202   4.570   0.674
 2353SOL    HW2 7068   3.182   4.720   0.612
 2354SOL     OW 7069   3.703   3.899   0.963
 2354SOL    HW1 7070   3.742   3.814   0.927
 2354SOL    HW2 7071   3.605   3.901   0.944
 2355SOL     OW 7072   2.125   4.050   0.720
 2355SOL    HW1 7073   2.046   4.101   0.686
 2355SOL    HW2 7074   2.116   4.035   0.818
 2356SOL     OW 7075   2.901   4.822   0.696
 2356SOL    HW1 7076   2.831   4.775   0.750
 2356SOL    HW2 7077   2.960   4.754   0.653
 2357SOL     OW 7078   2.876   3.960   0.971
 2357SOL    HW1 7079   2.868   3.924   0.878
 2357SOL    HW2 7080   2.874   3.884   1.036
 2358SOL     OW 7081   3.571   4.109   1.381
 2358SOL    HW1 7082   3.644   4.178   1.385
 2358SOL    HW2 7083   3.599   4.034   1.322
 2359SOL     OW 7084   2.534   3.927   1.489
 2359SOL    HW1 7085   2.624   3.911   1.449
 2359SOL    HW2 7086   2.542   3.932   1.588
 2360SOL     OW 7087   1.937   4.069   0.033
 2360SOL    HW1 7088   1.845   4.041   0.004
 2360SOL    HW2 7089   1.968   4.146  -0.023
 2361SOL     OW 7090   1.934   3.890   0.318
 2361SOL    HW1 7091   1.917   3.973   0.264
 2361SOL    HW2 7092   2.024   3.853   0.296
 2362SOL     OW 7093   2.578   4.289   1.708
 2362SOL    HW1 7094   2.597   4.354   1.782
 2362SOL    HW2 7095   2.638   4.209   1.717
 2363SOL     OW 7096   3.087   4.049   0.449
 2363SOL    HW1 7097   3.152   3.975   0.438
 2363SOL    HW2 7098   3.107   4.099   0.533
 2364SOL     OW 7099   2.456   4.469   0.652
 2364SOL    HW1 7100   2.506   4.554   0.633
 2364SOL    HW2 7101   2.368   4.471   0.604
 2365SOL     OW 7102   3.639   4.066   1.642
 2365SOL    HW1 7103   3.622   4.097   1.548
 2365SOL    HW2 7104   3.555   4.029   1.680
 2366SOL     OW 7105   2.721   4.680   0.861
 2366SOL    HW1 7106   2.775   4.611   0.909
 2366SOL    HW2 7107   2.689   4.749   0.927
 2367SOL     OW 7108   2.945   4.708   0.087
 2367SOL    HW1 7109   2.922   4.761   0.005
 2367SOL    HW2 7110   3.026   4.652   0.068
 2368SOL     OW 7111   3.686   3.916   1.227
 2368SOL    HW1 7112   3.682   3.826   1.271
 2368SOL    HW2 7113   3.689   3.905   1.128
 2369SOL     OW 7114   2.290   4.148   0.520
 2369SOL    HW1 7115   2.320   4.076   0.458
 2369SOL    HW2 7116   2.251   4.108   0.603
 2370SOL     OW 7117   2.179   4.271   1.280
 2370SOL    HW1 7118   2.217   4.212   1.352
 2370SOL    HW2 7119   2.219   4.245   1.192
 2371SOL     OW 7120   3.286   3.938   1.112
 2371SOL    HW1 7121   3.338   3.873   1.167
 2371SOL    HW2 7122   3.237   4.001   1.173
 2372SOL     OW 7123   2.863   3.758   1.154
 2372SOL    HW1 7124   2.800   3.686   1.123
 2372SOL    HW2 7125   2.956   3.722   1.154
 2373SOL     OW 7126   3.214   3.776   0.168
 2373SOL    HW1 7127   3.249   3.735   0.084
 2373SOL    HW2 7128   3.124   3.738   0.188
 2374SOL     OW 7129   3.162   4.177   0.691
 2374SOL    HW1 7130   3.103   4.257   0.695
 2374SOL    HW2 7131   3.177   4.142   0.784
 2375SOL     OW 7132   3.455   3.945   0.882
 2375SOL    HW1 7133   3.371   3.944   0.936
 2375SOL    HW2 7134   3.457   4.028   0.826
 2376SOL     OW 7135   2.092   4.352   1.975
 2376SOL    HW1 7136   1.999   4.350   2.012
 2376SOL    HW2 7137   2.093   4.313   1.883
 2377SOL     OW 7138   2.087   3.999   2.858
 2377SOL    HW1 7139   2.122   3.982   2.950
 2377SOL    HW2 7140   1.999   3.954   2.846
 2378SOL     OW 7141   1.881   4.092   2.509
 2378SOL    HW1 7142   1.799   4.135   2.548
 2378SOL    HW2 7143   1.853   4.019   2.446
 2379SOL     OW 7144   3.617   4.331   2.093
 2379SOL    HW1 7145   3.605   4.318   1.994
 2379SOL    HW2 7146   3.587   4.250   2.142
 2380SOL     OW 7147   2.712   4.522   3.685
 2380SOL    HW1 7148   2.708   4.598   3.750
 2380SOL    HW2 7149   2.734   4.558   3.594
 2381SOL     OW 7150   2.547   4.736   2.527
 2381SOL    HW1 7151   2.616   4.720   2.597
 2381SOL    HW2 7152   2.474   4.793   2.565
 2382SOL     OW 7153   2.300   4.116   3.361
 2382SOL    HW1 7154   2.382   4.060   3.370
 2382SOL    HW2 7155   2.219   4.058   3.365
 2383SOL     OW 7156   3.465   4.171   2.599
 2383SOL    HW1 7157   3.391   4.217   2.549
 2383SOL    HW2 7158   3.516   4.239   2.652
 2384SOL     OW 7159   3.456   3.838   3.342
 2384SOL    HW1 7160   3.438   3.905   3.270
 2384SOL    HW2 7161   3.453   3.884   3.431
 2385SOL     OW 7162   1.984   4.367   2.425
 2385SOL    HW1 7163   1.939   4.279   2.442
 2385SOL    HW2 7164   1.983   4.421   2.509
 2386SOL     OW 7165   1.975   4.461   3.459
 2386SOL    HW1 7166   2.063   4.448   3.504
 2386SOL    HW2 7167   1.962   4.558   3.437
 2387SOL     OW 7168   2.671   3.728   2.364
 2387SOL    HW1 7169   2.711   3.819   2.355
 2387SOL    HW2 7170   2.571   3.736   2.370
 2388SOL     OW 7171   2.179   3.975   3.663
 2388SOL    HW1 7172   2.250   4.046   3.669
 2388SOL    HW2 7173   2.091   4.014   3.691
 2389SOL     OW 7174   2.460   4.453   2.132
 2389SOL    HW1 7175   2.484   4.522   2.064
 2389SOL    HW2 7176   2.382   4.486   2.186
 2390SOL     OW 7177   3.143   4.069   2.806
 2390SOL    HW1 7178   3.057   4.019   2.793
 2390SOL    HW2 7179   3.205   4.015   2.862
 2391SOL     OW 7180   2.669   4.329   3.327
 2391SOL    HW1 7181   2.622   4.326   3.416
 2391SOL    HW2 7182   2.618   4.274   3.261
 2392SOL     OW 7183   3.256   4.193   3.536
 2392SOL    HW1 7184   3.236   4.236   3.624
 2392SOL    HW2 7185   3.334   4.131   3.545
 2393SOL     OW 7186   2.853   4.134   3.104
 2393SOL    HW1 7187   2.776   4.168   3.158
 2393SOL    HW2 7188   2.819   4.083   3.025
 2394SOL     OW 7189   2.903   4.425   2.291
 2394SOL    HW1 7190   2.929   4.421   2.387
 2394SOL    HW2 7191   2.818   4.374   2.277
 2395SOL     OW 7192   2.727   4.072   2.057
 2395SOL    HW1 7193   2.786   4.135   2.008
 2395SOL    HW2 7194   2.746   3.978   2.028
 2396SOL     OW 7195   3.581   4.309   3.693
 2396SOL    HW1 7196   3.555   4.398   3.657
 2396SOL    HW2 7197   3.579   4.241   3.620
 2397SOL     OW 7198   2.412   3.920   2.747
 2397SOL    HW1 7199   2.407   3.915   2.847
 2397SOL    HW2 7200   2.414   4.016   2.718
 2398SOL     OW 7201   3.320   4.459   2.590
 2398SOL    HW1 7202   3.315   4.394   2.665
 2398SOL    HW2 7203   3.400   4.518   2.603
 2399SOL     OW 7204   2.064   4.009   3.360
 2399SOL    HW1 7205   1.984   4.069   3.347
 2399SOL    HW2 7206   2.054   3.960   3.446
 2400SOL     OW 7207   3.262   3.831   2.288
 2400SOL    HW1 7208   3.238   3.794   2.198
 2400SOL    HW2 7209   3.361   3.847   2.292
 2401SOL     OW 7210   2.244   4.424   2.342
 2401SOL    HW1 7211   2.289   4.334   2.339
 2401SOL    HW2 7212   2.150   4.413   2.375
 2402SOL     OW 7213   3.409   3.946   3.591
 2402SOL    HW1 7214   3.404   3.983   3.683
 2402SOL    HW2 7215   3.337   3.877   3.579
 2403SOL     OW 7216   2.476   3.846   1.979
 2403SOL    HW1 7217   2.574   3.824   1.986
 2403SOL    HW2 7218   2.445   3.829   1.886
 2404SOL     OW 7219   2.643   3.988   3.611
 2404SOL    HW1 7220   2.710   3.927   3.654
 2404SOL    HW2 7221   2.570   4.007   3.676
 2405SOL     OW 7222   3.213   4.314   3.295
 2405SOL    HW1 7223   3.241   4.271   3.380
 2405SOL    HW2 7224   3.238   4.410   3.296
 2406SOL     OW 7225   2.784   4.227   2.761
 2406SOL    HW1 7226   2.759   4.218   2.665
 2406SOL    HW2 7227   2.832   4.145   2.792
 2407SOL     OW 7228   2.401   3.788   2.374
 2407SOL    HW1 7229   2.320   3.789   2.432
 2407SOL    HW2 7230   2.404   3.871   2.319
 2408SOL     OW 7231   2.159   3.759   2.033
 2408SOL    HW1 7232   2.208   3.843   2.012
 2408SOL    HW2 7233   2.221   3.694   2.078
 2409SOL     OW 7234   2.797   3.960   2.342
 2409SOL    HW1 7235   2.749   4.001   2.264
 2409SOL    HW2 7236   2.896   3.958   2.323
 2410SOL     OW 7237   2.938   4.407   3.326
 2410SOL    HW1 7238   2.858   4.346   3.329
 2410SOL    HW2 7239   3.019   4.354   3.302
 2411SOL     OW 7240   2.894   4.273   1.878
 2411SOL    HW1 7241   2.853   4.355   1.839
 2411SOL    HW2 7242   2.958   4.299   1.951
 2412SOL     OW 7243   1.940   4.280   3.248
 2412SOL    HW1 7244   2.032   4.279   3.207
 2412SOL    HW2 7245   1.934   4.354   3.315
 2413SOL     OW 7246   2.423   3.946   3.009
 2413SOL    HW1 7247   2.461   3.862   3.046
 2413SOL    HW2 7248   2.335   3.965   3.053
 2414SOL     OW 7249   2.728   4.178   2.504
 2414SOL    HW1 7250   2.696   4.250   2.442
 2414SOL    HW2 7251   2.752   4.097   2.451
 2415SOL     OW 7252   2.879   3.763   2.615
 2415SOL    HW1 7253   2.807   3.768   2.546
 2415SOL    HW2 7254   2.855   3.694   2.684
 2416SOL     OW 7255   3.328   4.314   2.854
 2416SOL    HW1 7256   3.298   4.219   2.861
 2416SOL    HW2 7257   3.401   4.330   2.920
 2417SOL     OW 7258   3.252   4.299   1.940
 2417SOL    HW1 7259   3.198   4.278   2.021
 2417SOL    HW2 7260   3.343   4.258   1.949
 2418SOL     OW 7261   2.389   3.980   2.190
 2418SOL    HW1 7262   2.416   3.921   2.115
 2418SOL    HW2 7263   2.389   4.075   2.159
 2419SOL     OW 7264   2.777   3.813   3.264
 2419SOL    HW1 7265   2.802   3.793   3.169
 2419SOL    HW2 7266   2.849   3.869   3.306
 2420SOL     OW 7267   2.567   4.774   2.230
 2420SOL    HW1 7268   2.553   4.781   2.329
 2420SOL    HW2 7269   2.651   4.723   2.212
 2421SOL     OW 7270   2.272   4.537   3.113
 2421SOL    HW1 7271   2.358   4.549   3.163
 2421SOL    HW2 7272   2.230   4.450   3.140
 2422SOL     OW 7273   3.136   4.110   3.124
 2422SOL    HW1 7274   3.157   4.184   3.188
 2422SOL    HW2 7275   3.047   4.127   3.081
 2423SOL     OW 7276   2.428   4.261   2.727
 2423SOL    HW1 7277   2.440   4.327   2.653
 2423SOL    HW2 7278   2.474   4.295   2.810
 2424SOL     OW 7279   3.444   4.363   2.334
 2424SOL    HW1 7280   3.413   4.424   2.407
 2424SOL    HW2 7281   3.494   4.415   2.265
 2425SOL     OW 7282   3.449   4.503   3.532
 2425SOL    HW1 7283   3.357   4.541   3.527
 2425SOL    HW2 7284   3.509   4.550   3.467
 2426SOL     OW 7285   2.875   3.829   3.632
 2426SOL    HW1 7286   2.881   3.914   3.580
 2426SOL    HW2 7287   2.907   3.753   3.575
 2427SOL     OW 7288   2.366   3.774   3.602
 2427SOL    HW1 7289   2.324   3.717   3.532
 2427SOL    HW2 7290   2.300   3.843   3.634
 2428SOL     OW 7291   3.222   4.586   2.907
 2428SOL    HW1 7292   3.147   4.586   2.841
 2428SOL    HW2 7293   3.259   4.494   2.916
 2429SOL     OW 7294   3.071   4.249   2.137
 2429SOL    HW1 7295   3.084   4.165   2.191
 2429SOL    HW2 7296   3.042   4.323   2.197
 2430SOL     OW 7297   2.169   3.937   3.093
 2430SOL    HW1 7298   2.146   3.974   3.183
 2430SOL    HW2 7299   2.139   3.842   3.087
 2431SOL     OW 7300   2.594   4.358   2.926
 2431SOL    HW1 7301   2.653   4.332   2.850
 2431SOL    HW2 7302   2.566   4.454   2.915
 2432SOL     OW 7303   3.590   4.659   3.716
 2432SOL    HW1 7304   3.544   4.652   3.627
 2432SOL    HW2 7305   3.528   4.703   3.782
 2433SOL     OW 7306   2.169   3.787   2.480
 2433SOL    HW1 7307   2.158   3.881   2.513
 2433SOL    HW2 7308   2.164   3.724   2.557
 2434SOL     OW 7309   3.484   4.091   2.236
 2434SOL    HW1 7310   3.486   4.015   2.300
 2434SOL    HW2 7311   3.436   4.168   2.276
 2435SOL     OW 7312   3.402   3.998   1.987
 2435SOL    HW1 7313   3.341   3.923   2.010
 2435SOL    HW2 7314   3.424   4.050   2.070
 2436SOL     OW 7315   2.181   4.534   2.811
 2436SOL    HW1 7316   2.274   4.570   2.816
 2436SOL    HW2 7317   2.175   4.449   2.863
 2437SOL     OW 7318   2.201   4.233   2.868
 2437SOL    HW1 7319   2.149   4.150   2.851
 2437SOL    HW2 7320   2.278   4.238   2.804
 2438SOL     OW 7321   3.000   4.104   3.540
 2438SOL    HW1 7322   2.955   4.167   3.604
 2438SOL    HW2 7323   3.093   4.135   3.523
 2439SOL     OW 7324   3.022   3.931   3.339
 2439SOL    HW1 7325   3.022   3.995   3.416
 2439SOL    HW2 7326   3.050   3.979   3.256
 2440SOL     OW 7327   1.902   4.268   2.976
 2440SOL    HW1 7328   1.987   4.235   2.935
 2440SOL    HW2 7329   1.915   4.283   3.074
 2441SOL     OW 7330   2.051   4.244   3.584
 2441SOL    HW1 7331   2.110   4.204   3.514
 2441SOL    HW2 7332   1.993   4.315   3.543
 2442SOL     OW 7333   2.677   4.296   2.187
 2442SOL    HW1 7334   2.684   4.207   2.141
 2442SOL    HW2 7335   2.583   4.330   2.179
 2443SOL     OW 7336   3.519   4.328   3.068
 2443SOL    HW1 7337   3.481   4.259   3.130
 2443SOL    HW2 7338   3.601   4.292   3.024
 2444SOL     OW 7339   2.533   4.188   3.131
 2444SOL    HW1 7340   2.499   4.099   3.101
 2444SOL    HW2 7341   2.559   4.242   3.051
 2445SOL     OW 7342   2.335   4.224   2.053
 2445SOL    HW1 7343   2.396   4.304   2.057
 2445SOL    HW2 7344   2.240   4.255   2.060
 2446SOL     OW 7345   3.588   3.859   2.385
 2446SOL    HW1 7346   3.661   3.842   2.318
 2446SOL    HW2 7347   3.557   3.772   2.423
 2447SOL     OW 7348   3.142   4.651   2.534
 2447SOL    HW1 7349   3.202   4.570   2.536
 2447SOL    HW2 7350   3.182   4.720   2.474
 2448SOL     OW 7351   3.703   3.899   2.825
 2448SOL    HW1 7352   3.742   3.814   2.789
 2448SOL    HW2 7353   3.605   3.901   2.806
 2449SOL     OW 7354   2.125   4.050   2.582
 2449SOL    HW1 7355   2.046   4.101   2.548
 2449SOL    HW2 7356   2.116   4.035   2.680
 2450SOL     OW 7357   2.778   4.634   2.153
 2450SOL    HW1 7358   2.841   4.672   2.085
 2450SOL    HW2 7359   2.818   4.551   2.192
 2451SOL     OW 7360   2.901   4.822   2.558
 2451SOL    HW1 7361   2.831   4.775   2.612
 2451SOL    HW2 7362   2.960   4.754   2.515
 2452SOL     OW 7363   2.876   3.960   2.833
 2452SOL    HW1 7364   2.868   3.924   2.740
 2452SOL    HW2 7365   2.874   3.884   2.898
 2453SOL     OW 7366   3.571   4.109   3.243
 2453SOL    HW1 7367   3.644   4.178   3.247
 2453SOL    HW2 7368   3.599   4.034   3.184
 2454SOL     OW 7369   2.534   3.927   3.351
 2454SOL    HW1 7370   2.624   3.911   3.311
 2454SOL    HW2 7371   2.542   3.932   3.450
 2455SOL     OW 7372   1.937   4.069   1.895
 2455SOL    HW1 7373   1.845   4.041   1.866
 2455SOL    HW2 7374   1.968   4.146   1.839
 2456SOL     OW 7375   1.934   3.890   2.180
 2456SOL    HW1 7376   1.917   3.973   2.126
 2456SOL    HW2 7377   2.024   3.853   2.158
 2457SOL     OW 7378   2.578   4.289   3.570
 2457SOL    HW1 7379   2.597   4.354   3.644
 2457SOL    HW2 7380   2.638   4.209   3.579
 2458SOL     OW 7381   3.087   4.049   2.311
 2458SOL    HW1 7382   3.152   3.975   2.300
 2458SOL    HW2 7383   3.107   4.099   2.395
 2459SOL     OW 7384   2.456   4.469   2.514
 2459SOL    HW1 7385   2.506   4.554   2.495
 2459SOL    HW2 7386   2.368   4.471   2.466
 2460SOL     OW 7387   3.639   4.066   3.504
 2460SOL    HW1 7388   3.622   4.097   3.410
 2460SOL    HW2 7389   3.555   4.029   3.542
 2461SOL     OW 7390   2.721   4.680   2.723
 2461SOL    HW1 7391   2.775   4.611   2.771
 2461SOL    HW2 7392   2.689   4.749   2.789
 2462SOL     OW 7393   2.945   4.708   1.949
 2462SOL    HW1 7394   2.922   4.761   1.867
 2462SOL    HW2 7395   3.026   4.652   1.930
 2463SOL     OW 7396   3.686   3.916   3.089
 2463SOL    HW1 7397   3.682   3.826   3.133
 2463SOL    HW2 7398   3.689   3.905   2.990
 2464SOL     OW 7399   2.290   4.148   2.382
 2464SOL    HW1 7400   2.320   4.076   2.320
 2464SOL    HW2 7401   2.251   4.108   2.465
 2465SOL     OW 7402   2.179   4.271   3.142
 2465SOL    HW1 7403   2.217   4.212   3.214
 2465SOL    HW2 7404   2.219   4.245   3.054
 2466SOL     OW 7405   3.286   3.938   2.974
 2466SOL    HW1 7406   3.338   3.873   3.029
 2466SOL    HW2 7407   3.237   4.001   3.035
 2467SOL     OW 7408   2.863   3.758   3.016
 2467SOL    HW1 7409   2.800   3.686   2.985
 2467SOL    HW2 7410   2.956   3.722   3.016
 2468SOL     OW 7411   3.214   3.776   2.030
 2468SOL    HW1 7412   3.249   3.735   1.946
 2468SOL    HW2 7413   3.124   3.738   2.050
 2469SOL     OW 7414   3.162   4.177   2.553
 2469SOL    HW1 7415   3.103   4.257   2.557
 2469SOL    HW2 7416   3.177   4.142   2.646
 2470SOL     OW 7417   3.455   3.945   2.744
 2470SOL    HW1 7418   3.371   3.944   2.798
 2470SOL    HW2 7419   3.457   4.028   2.688
 2471SOL     OW 7420   2.092   4.352   3.837
 2471SOL    HW1 7421   1.999   4.350   3.874
 2471SOL    HW2 7422   2.093   4.313   3.745
 2472SOL     OW 7423   1.881   4.092   4.371
 2472SOL    HW1 7424   1.799   4.135   4.410
 2472SOL    HW2 7425   1.853   4.019   4.308
 2473SOL     OW 7426   3.617   4.331   3.955
 2473SOL    HW1 7427   3.605   4.318   3.856
 2473SOL    HW2 7428   3.587   4.250   4.004
 2474SOL     OW 7429   2.547   4.736   4.389
 2474SOL    HW1 7430   2.616   4.720   4.459
 2474SOL    HW2 7431   2.474   4.793   4.427
 2475SOL     OW 7432   3.465   4.171   4.461
 2475SOL    HW1 7433   3.391   4.217   4.411
 2475SOL    HW2 7434   3.516   4.239   4.514
 2476SOL     OW 7435   1.984   4.367   4.287
 2476SOL    HW1 7436   1.939   4.279   4.304
 2476SOL    HW2 7437   1.983   4.421   4.371
 2477SOL     OW 7438   2.671   3.728   4.226
 2477SOL    HW1 7439   2.711   3.819   4.217
 2477SOL    HW2 7440   2.571   3.736   4.232
 2478SOL     OW 7441   2.460   4.453   3.994
 2478SOL    HW1 7442   2.484   4.522   3.926
 2478SOL    HW2 7443   2.382   4.486   4.048
 2479SOL     OW 7444   3.143   4.069   4.668
 2479SOL    HW1 7445   3.057   4.019   4.655
 2479SOL    HW2 7446   3.205   4.015   4.724
 2480SOL     OW 7447   2.903   4.425   4.153
 2480SOL    HW1 7448   2.929   4.421   4.249
 2480SOL    HW2 7449   2.818   4.374   4.139
 2481SOL     OW 7450   2.727   4.072   3.919
 2481SOL    HW1 7451   2.786   4.135   3.870
 2481SOL    HW2 7452   2.746   3.978   3.890
 2482SOL     OW 7453   3.262   3.831   4.150
 2482SOL    HW1 7454   3.238   3.794   4.060
 2482SOL    HW2 7455   3.361   3.847   4.154
 2483SOL     OW 7456   2.244   4.424   4.204
 2483SOL    HW1 7457   2.289   4.334   4.201
 2483SOL    HW2 7458   2.150   4.413   4.237
 2484SOL     OW 7459   2.476   3.846   3.841
 2484SOL    HW1 7460   2.574   3.824   3.848
 2484SOL    HW2 7461   2.445   3.829   3.748
 2485SOL     OW 7462   2.401   3.788   4.236
 2485SOL    HW1 7463   2.320   3.789   4.294
 2485SOL    HW2 7464   2.404   3.871   4.181
 2486SOL     OW 7465   2.159   3.759   3.895
 2486SOL    HW1 7466   2.208   3.843   3.874
 2486SOL    HW2 7467   2.221   3.694   3.940
 2487SOL     OW 7468   2.797   3.960   4.204
 2487SOL    HW1 7469   2.749   4.001   4.126
 2487SOL    HW2 7470   2.896   3.958   4.185
 2488SOL     OW 7471   2.894   4.273   3.740
 2488SOL    HW1 7472   2.853   4.355   3.701
 2488SOL    HW2 7473   2.958   4.299   3.813
 2489SOL     OW 7474   2.728   4.178   4.366
 2489SOL    HW1 7475   2.696   4.250   4.304
 2489SOL    HW2 7476   2.752   4.097   4.313
 2490SOL     OW 7477   3.252   4.299   3.802
 2490SOL    HW1 7478   3.198   4.278   3.883
 2490SOL    HW2 7479   3.343   4.258   3.811
 2491SOL     OW 7480   2.389   3.980   4.052
 2491SOL    HW1 7481   2.416   3.921   3.977
 2491SOL    HW2 7482   2.389   4.075   4.021
 2492SOL     OW 7483   2.567   4.774   4.092
 2492SOL    HW1 7484   2.553   4.781   4.191
 2492SOL    HW2 7485   2.651   4.723   4.074
 2493SOL     OW 7486   3.444   4.363   4.196
 2493SOL    HW1 7487   3.413   4.424   4.269
 2493SOL    HW2 7488   3.494   4.415   4.127
 2494SOL     OW 7489   3.071   4.249   3.999
 2494SOL    HW1 7490   3.084   4.165   4.053
 2494SOL    HW2 7491   3.042   4.323   4.059
 2495SOL     OW 7492   2.169   3.787   4.342
 2495SOL    HW1 7493   2.158   3.881   4.375
 2495SOL    HW2 7494   2.164   3.724   4.419
 2496SOL     OW 7495   3.484   4.091   4.098
 2496SOL    HW1 7496   3.486   4.015   4.162
 2496SOL    HW2 7497   3.436   4.168   4.138
 2497SOL     OW 7498   3.402   3.998   3.849
 2497SOL    HW1 7499   3.341   3.923   3.872
 2497SOL    HW2 7500   3.424   4.050   3.932
 2498SOL     OW 7501   1.902   4.268   4.838
 2498SOL    HW1 7502   1.987   4.235   4.797
 2498SOL    HW2 7503   1.915   4.283   4.936
 2499SOL     OW 7504   2.677   4.296   4.049
 2499SOL    HW1 7505   2.684   4.207   4.003
 2499SOL    HW2 7506   2.583   4.330   4.041
 2500SOL     OW 7507   2.335   4.224   3.915
 2500SOL    HW1 7508   2.396   4.304   3.919
 2500SOL    HW2 7509   2.240   4.255   3.922
 2501SOL     OW 7510   3.588   3.859   4.247
 2501SOL    HW1 7511   3.661   3.842   4.180
 2501SOL    HW2 7512   3.557   3.772   4.285
 2502SOL     OW 7513   3.142   4.651   4.396
 2502SOL    HW1 7514   3.202   4.570   4.398
 2502SOL    HW2 7515   3.182   4.720   4.336
 2503SOL     OW 7516   3.703   3.899   4.687
 2503SOL    HW1 7517   3.742   3.814   4.651
 2503SOL    HW2 7518   3.605   3.901   4.668
 2504SOL     OW 7519   2.125   4.050   4.444
 2504SOL    HW1 7520   2.046   4.101   4.410
 2504SOL    HW2 7521   2.116   4.035   4.542
 2505SOL     OW 7522   2.778   4.634   4.015
 2505SOL    HW1 7523   2.841   4.672   3.947
 2505SOL    HW2 7524   2.818   4.551   4.054
 2506SOL     OW 7525   1.937   4.069   3.757
 2506SOL    HW1 7526   1.845   4.041   3.728
 2506SOL    HW2 7527   1.968   4.146   3.701
 2507SOL     OW 7528   1.934   3.890   4.042
 2507SOL    HW1 7529   1.917   3.973   3.988
 2507SOL    HW2 7530   2.024   3.853   4.020
 2508SOL     OW 7531   3.087   4.049   4.173
 2508SOL    HW1 7532   3.152   3.975   4.162
 2508SOL    HW2 7533   3.107   4.099   4.257
 2509SOL     OW 7534   2.456   4.469   4.376
 2509SOL    HW1 7535   2.506   4.554   4.357
 2509SOL    HW2 7536   2.368   4.471   4.328
 2510SOL     OW 7537   2.945   4.708   3.811
 2510SOL    HW1 7538   2.922   4.761   3.729
 2510SOL    HW2 7539   3.026   4.652   3.792
 2511SOL     OW 7540   2.290   4.148   4.244
 2511SOL    HW1 7541   2.320   4.076   4.182
 2511SOL    HW2 7542   2.251   4.108   4.327
 2512SOL     OW 7543   3.214   3.776   3.892
 2512SOL    HW1 7544   3.249   3.735   3.808
 2512SOL    HW2 7545   3.124   3.738   3.912
 2513SOL     OW 7546   3.162   4.177   4.415
 2513SOL    HW1 7547   3.103   4.257   4.419
 2513SOL    HW2 7548   3.177   4.142   4.508
 2514SOL     OW 7549   3.954   0.628   0.113
 2514SOL    HW1 7550   3.861   0.626   0.150
 2514SOL    HW2 7551   3.955   0.589   0.021
 2515SOL     OW 7552   3.949   0.275   0.996
 2515SOL    HW1 7553   3.984   0.258   1.088
 2515SOL    HW2 7554   3.861   0.230   0.984
 2516SOL     OW 7555   3.743   0.368   0.647
 2516SOL    HW1 7556   3.661   0.411   0.686
 2516SOL    HW2 7557   3.715   0.295   0.584
 2517SOL     OW 7558   4.293   1.275   1.165
 2517SOL    HW1 7559   4.200   1.268   1.128
 2517SOL    HW2 7560   4.304   1.364   1.209
 2518SOL     OW 7561   4.574   0.798   1.823
 2518SOL    HW1 7562   4.570   0.874   1.888
 2518SOL    HW2 7563   4.596   0.834   1.732
 2519SOL     OW 7564   4.409   1.012   0.665
 2519SOL    HW1 7565   4.478   0.996   0.735
 2519SOL    HW2 7566   4.336   1.069   0.703
 2520SOL     OW 7567   4.410   1.161   1.803
 2520SOL    HW1 7568   4.470   1.240   1.817
 2520SOL    HW2 7569   4.324   1.192   1.762
 2521SOL     OW 7570   4.059   1.435   1.061
 2521SOL    HW1 7571   3.981   1.404   1.008
 2521SOL    HW2 7572   4.117   1.493   1.004
 2522SOL     OW 7573   4.162   0.392   1.499
 2522SOL    HW1 7574   4.244   0.336   1.508
 2522SOL    HW2 7575   4.081   0.334   1.503
 2523SOL     OW 7576   3.955   1.713   0.483
 2523SOL    HW1 7577   3.989   1.790   0.537
 2523SOL    HW2 7578   3.999   1.713   0.393
 2524SOL     OW 7579   3.954   1.434   0.538
 2524SOL    HW1 7580   3.928   1.530   0.538
 2524SOL    HW2 7581   3.883   1.380   0.583
 2525SOL     OW 7582   3.964   1.091   0.886
 2525SOL    HW1 7583   3.978   1.007   0.938
 2525SOL    HW2 7584   3.909   1.155   0.941
 2526SOL     OW 7585   4.344   1.786   1.439
 2526SOL    HW1 7586   4.252   1.769   1.474
 2526SOL    HW2 7587   4.372   1.878   1.465
 2527SOL     OW 7588   4.330   0.964   0.123
 2527SOL    HW1 7589   4.337   1.048   0.069
 2527SOL    HW2 7590   4.376   0.977   0.211
 2528SOL     OW 7591   3.846   0.643   0.563
 2528SOL    HW1 7592   3.801   0.555   0.580
 2528SOL    HW2 7593   3.845   0.697   0.647
 2529SOL     OW 7594   3.751   1.596   0.117
 2529SOL    HW1 7595   3.732   1.500   0.138
 2529SOL    HW2 7596   3.718   1.654   0.192
 2530SOL     OW 7597   3.837   0.737   1.597
 2530SOL    HW1 7598   3.925   0.724   1.642
 2530SOL    HW2 7599   3.824   0.834   1.575
 2531SOL     OW 7600   4.337   1.365   0.726
 2531SOL    HW1 7601   4.288   1.278   0.735
 2531SOL    HW2 7602   4.314   1.408   0.639
 2532SOL     OW 7603   4.533   0.004   0.502
 2532SOL    HW1 7604   4.573   0.095   0.493
 2532SOL    HW2 7605   4.433   0.012   0.508
 2533SOL     OW 7606   3.921   0.976   1.264
 2533SOL    HW1 7607   4.010   0.931   1.250
 2533SOL    HW2 7608   3.848   0.911   1.245
 2534SOL     OW 7609   4.041   0.251   1.801
 2534SOL    HW1 7610   4.112   0.322   1.807
 2534SOL    HW2 7611   3.953   0.290   1.829
 2535SOL     OW 7612   4.322   0.729   0.270
 2535SOL    HW1 7613   4.346   0.798   0.202
 2535SOL    HW2 7614   4.244   0.762   0.324
 2536SOL     OW 7615   3.800   0.811   0.789
 2536SOL    HW1 7616   3.899   0.799   0.798
 2536SOL    HW2 7617   3.776   0.906   0.810
 2537SOL     OW 7618   3.854   1.821   1.571
 2537SOL    HW1 7619   3.844   1.806   1.670
 2537SOL    HW2 7620   3.768   1.857   1.535
 2538SOL     OW 7621   4.274   0.196   0.885
 2538SOL    HW1 7622   4.269   0.191   0.985
 2538SOL    HW2 7623   4.276   0.292   0.856
 2539SOL     OW 7624   4.075   1.801   0.853
 2539SOL    HW1 7625   4.125   1.715   0.859
 2539SOL    HW2 7626   4.140   1.878   0.850
 2540SOL     OW 7627   4.045   0.943   0.242
 2540SOL    HW1 7628   4.127   0.982   0.200
 2540SOL    HW2 7629   4.018   0.861   0.193
 2541SOL     OW 7630   4.185   1.266   1.727
 2541SOL    HW1 7631   4.135   1.267   1.641
 2541SOL    HW2 7632   4.122   1.248   1.803
 2542SOL     OW 7633   3.926   0.285   1.498
 2542SOL    HW1 7634   3.846   0.345   1.485
 2542SOL    HW2 7635   3.916   0.236   1.584
 2543SOL     OW 7636   4.188   1.743   0.323
 2543SOL    HW1 7637   4.221   1.782   0.409
 2543SOL    HW2 7638   4.264   1.736   0.258
 2544SOL     OW 7639   3.973   1.785   1.241
 2544SOL    HW1 7640   4.030   1.720   1.291
 2544SOL    HW2 7641   3.957   1.752   1.148
 2545SOL     OW 7642   4.106   0.700   0.480
 2545SOL    HW1 7643   4.151   0.610   0.477
 2545SOL    HW2 7644   4.012   0.689   0.513
 2546SOL     OW 7645   4.338   0.122   0.117
 2546SOL    HW1 7646   4.436   0.100   0.124
 2546SOL    HW2 7647   4.307   0.105   0.024
 2547SOL     OW 7648   4.527   1.402   0.924
 2547SOL    HW1 7649   4.617   1.416   0.882
 2547SOL    HW2 7650   4.456   1.404   0.853
 2548SOL     OW 7651   4.646   0.503   0.899
 2548SOL    HW1 7652   4.621   0.494   0.803
 2548SOL    HW2 7653   4.694   0.421   0.930
 2549SOL     OW 7654   4.263   0.064   0.512
 2549SOL    HW1 7655   4.182   0.065   0.570
 2549SOL    HW2 7656   4.266   0.147   0.457
 2550SOL     OW 7657   4.021   0.035   0.171
 2550SOL    HW1 7658   4.070   0.119   0.150
 2550SOL    HW2 7659   4.083  -0.030   0.216
 2551SOL     OW 7660   4.183   1.152   0.741
 2551SOL    HW1 7661   4.112   1.125   0.806
 2551SOL    HW2 7662   4.157   1.124   0.648
 2552SOL     OW 7663   3.802   0.556   1.386
 2552SOL    HW1 7664   3.894   0.555   1.345
 2552SOL    HW2 7665   3.796   0.630   1.453
 2553SOL     OW 7666   4.285   0.222   1.147
 2553SOL    HW1 7667   4.323   0.138   1.184
 2553SOL    HW2 7668   4.197   0.241   1.191
 2554SOL     OW 7669   4.212   1.385   0.174
 2554SOL    HW1 7670   4.125   1.370   0.221
 2554SOL    HW2 7671   4.195   1.411   0.079
 2555SOL     OW 7672   4.251   0.256   0.328
 2555SOL    HW1 7673   4.278   0.197   0.253
 2555SOL    HW2 7674   4.251   0.351   0.297
 2556SOL     OW 7675   4.134   0.813   1.251
 2556SOL    HW1 7676   4.220   0.825   1.301
 2556SOL    HW2 7677   4.092   0.726   1.278
 2557SOL     OW 7678   3.788   1.564   1.331
 2557SOL    HW1 7679   3.742   1.646   1.297
 2557SOL    HW2 7680   3.886   1.583   1.340
 2558SOL     OW 7681   4.091   1.100   0.501
 2558SOL    HW1 7682   4.084   1.183   0.445
 2558SOL    HW2 7683   4.095   1.020   0.441
 2559SOL     OW 7684   4.290   0.537   0.865
 2559SOL    HW1 7685   4.302   0.603   0.791
 2559SOL    HW2 7686   4.336   0.571   0.948
 2560SOL     OW 7687   4.078   1.510   1.329
 2560SOL    HW1 7688   4.057   1.466   1.242
 2560SOL    HW2 7689   4.175   1.536   1.332
 2561SOL     OW 7690   4.126   0.751   1.598
 2561SOL    HW1 7691   4.194   0.806   1.551
 2561SOL    HW2 7692   4.166   0.663   1.625
 2562SOL     OW 7693   4.228   0.050   1.740
 2562SOL    HW1 7694   4.186  -0.007   1.670
 2562SOL    HW2 7695   4.162   0.119   1.772
 2563SOL     OW 7696   4.297   0.870   1.029
 2563SOL    HW1 7697   4.341   0.959   1.020
 2563SOL    HW2 7698   4.234   0.870   1.106
 2564SOL     OW 7699   4.031   0.213   1.231
 2564SOL    HW1 7700   4.008   0.250   1.321
 2564SOL    HW2 7701   4.001   0.118   1.225
 2565SOL     OW 7702   3.761   1.310   1.282
 2565SOL    HW1 7703   3.814   1.261   1.350
 2565SOL    HW2 7704   3.783   1.408   1.287
 2566SOL     OW 7705   4.031   0.063   0.618
 2566SOL    HW1 7706   4.020   0.157   0.651
 2566SOL    HW2 7707   4.026   0.000   0.695
 2567SOL     OW 7708   4.074   0.898   1.804
 2567SOL    HW1 7709   4.150   0.942   1.852
 2567SOL    HW2 7710   4.109   0.851   1.722
 2568SOL     OW 7711   4.792   1.333   0.849
 2568SOL    HW1 7712   4.799   1.249   0.794
 2568SOL    HW2 7713   4.854   1.402   0.813
 2569SOL     OW 7714   4.043   0.810   0.949
 2569SOL    HW1 7715   4.136   0.846   0.954
 2569SOL    HW2 7716   4.037   0.725   1.001
 2570SOL     OW 7717   4.063   0.509   1.006
 2570SOL    HW1 7718   4.011   0.426   0.989
 2570SOL    HW2 7719   4.140   0.514   0.942
 2571SOL     OW 7720   3.732   1.326   0.200
 2571SOL    HW1 7721   3.639   1.347   0.169
 2571SOL    HW2 7722   3.742   1.227   0.213
 2572SOL     OW 7723   3.812   1.801   0.927
 2572SOL    HW1 7724   3.770   1.715   0.900
 2572SOL    HW2 7725   3.906   1.804   0.893
 2573SOL     OW 7726   4.228   1.568   0.910
 2573SOL    HW1 7727   4.294   1.642   0.919
 2573SOL    HW2 7728   4.272   1.489   0.868
 2574SOL     OW 7729   3.764   0.544   1.114
 2574SOL    HW1 7730   3.849   0.511   1.073
 2574SOL    HW2 7731   3.777   0.559   1.212
 2575SOL     OW 7732   3.913   0.520   1.722
 2575SOL    HW1 7733   3.972   0.480   1.652
 2575SOL    HW2 7734   3.855   0.591   1.681
 2576SOL     OW 7735   3.976   1.564   1.744
 2576SOL    HW1 7736   3.946   1.621   1.820
 2576SOL    HW2 7737   3.969   1.467   1.770
 2577SOL     OW 7738   4.395   0.464   1.269
 2577SOL    HW1 7739   4.361   0.375   1.239
 2577SOL    HW2 7740   4.421   0.518   1.189
 2578SOL     OW 7741   4.197   0.500   0.191
 2578SOL    HW1 7742   4.258   0.580   0.195
 2578SOL    HW2 7743   4.102   0.531   0.198
 2579SOL     OW 7744   3.883   1.137   1.466
 2579SOL    HW1 7745   3.905   1.076   1.542
 2579SOL    HW2 7746   3.893   1.088   1.380
 2580SOL     OW 7747   3.807   1.258   1.022
 2580SOL    HW1 7748   3.802   1.257   1.122
 2580SOL    HW2 7749   3.724   1.217   0.984
 2581SOL     OW 7750   4.412   1.662   1.716
 2581SOL    HW1 7751   4.356   1.743   1.725
 2581SOL    HW2 7752   4.464   1.666   1.630
 2582SOL     OW 7753   3.854   1.794   1.851
 2582SOL    HW1 7754   3.813   1.720   1.904
 2582SOL    HW2 7755   3.918   1.845   1.909
 2583SOL     OW 7756   3.987   0.326   0.720
 2583SOL    HW1 7757   3.908   0.377   0.686
 2583SOL    HW2 7758   3.978   0.311   0.818
 2584SOL     OW 7759   4.096   1.288   1.490
 2584SOL    HW1 7760   4.083   1.381   1.456
 2584SOL    HW2 7761   4.012   1.236   1.477
 2585SOL     OW 7762   4.763   1.098   0.696
 2585SOL    HW1 7763   4.693   1.051   0.750
 2585SOL    HW2 7764   4.822   1.030   0.653
 2586SOL     OW 7765   4.314   1.487   0.491
 2586SOL    HW1 7766   4.356   1.429   0.421
 2586SOL    HW2 7767   4.270   1.566   0.447
 2587SOL     OW 7768   3.979   1.348   0.290
 2587SOL    HW1 7769   3.883   1.349   0.263
 2587SOL    HW2 7770   3.991   1.401   0.374
 2588SOL     OW 7771   3.829   1.013   1.726
 2588SOL    HW1 7772   3.752   0.980   1.780
 2588SOL    HW2 7773   3.914   0.983   1.768
 2589SOL     OW 7774   4.396   0.203   1.489
 2589SOL    HW1 7775   4.486   0.187   1.449
 2589SOL    HW2 7776   4.404   0.208   1.588
 2590SOL     OW 7777   3.799   0.345   0.033
 2590SOL    HW1 7778   3.707   0.317   0.004
 2590SOL    HW2 7779   3.830   0.422  -0.023
 2591SOL     OW 7780   3.796   0.166   0.318
 2591SOL    HW1 7781   3.779   0.249   0.264
 2591SOL    HW2 7782   3.886   0.129   0.296
 2592SOL     OW 7783   4.337   0.842   1.431
 2592SOL    HW1 7784   4.393   0.923   1.414
 2592SOL    HW2 7785   4.396   0.762   1.434
 2593SOL     OW 7786   4.440   0.565   1.708
 2593SOL    HW1 7787   4.459   0.630   1.782
 2593SOL    HW2 7788   4.500   0.485   1.717
 2594SOL     OW 7789   4.114   1.741   1.560
 2594SOL    HW1 7790   4.023   1.782   1.558
 2594SOL    HW2 7791   4.107   1.647   1.592
 2595SOL     OW 7792   4.318   0.745   0.652
 2595SOL    HW1 7793   4.368   0.830   0.633
 2595SOL    HW2 7794   4.230   0.747   0.604
 2596SOL     OW 7795   3.945   1.314   1.844
 2596SOL    HW1 7796   3.880   1.241   1.823
 2596SOL    HW2 7797   3.949   1.328   1.942
 2597SOL     OW 7798   3.803   1.240   0.653
 2597SOL    HW1 7799   3.802   1.193   0.741
 2597SOL    HW2 7800   3.885   1.212   0.602
 2598SOL     OW 7801   4.396   1.391   1.624
 2598SOL    HW1 7802   4.318   1.341   1.662
 2598SOL    HW2 7803   4.393   1.486   1.655
 2599SOL     OW 7804   4.152   0.424   0.520
 2599SOL    HW1 7805   4.182   0.352   0.458
 2599SOL    HW2 7806   4.113   0.384   0.603
 2600SOL     OW 7807   4.041   0.547   1.280
 2600SOL    HW1 7808   4.079   0.488   1.352
 2600SOL    HW2 7809   4.081   0.521   1.192
 2601SOL     OW 7810   4.536   1.586   0.687
 2601SOL    HW1 7811   4.568   1.596   0.593
 2601SOL    HW2 7812   4.457   1.524   0.689
 2602SOL     OW 7813   4.342   1.567   1.284
 2602SOL    HW1 7814   4.337   1.649   1.341
 2602SOL    HW2 7815   4.431   1.564   1.239
 2603SOL     OW 7816   3.763   1.077   0.300
 2603SOL    HW1 7817   3.862   1.066   0.291
 2603SOL    HW2 7818   3.723   0.991   0.332
 2604SOL     OW 7819   3.954   0.628   1.975
 2604SOL    HW1 7820   3.861   0.626   2.012
 2604SOL    HW2 7821   3.955   0.589   1.883
 2605SOL     OW 7822   3.949   0.275   2.858
 2605SOL    HW1 7823   3.984   0.258   2.950
 2605SOL    HW2 7824   3.861   0.230   2.846
 2606SOL     OW 7825   3.743   0.368   2.509
 2606SOL    HW1 7826   3.661   0.411   2.548
 2606SOL    HW2 7827   3.715   0.295   2.446
 2607SOL     OW 7828   4.293   1.275   3.027
 2607SOL    HW1 7829   4.200   1.268   2.990
 2607SOL    HW2 7830   4.304   1.364   3.071
 2608SOL     OW 7831   4.574   0.798   3.685
 2608SOL    HW1 7832   4.570   0.874   3.750
 2608SOL    HW2 7833   4.596   0.834   3.594
 2609SOL     OW 7834   4.409   1.012   2.527
 2609SOL    HW1 7835   4.478   0.996   2.597
 2609SOL    HW2 7836   4.336   1.069   2.565
 2610SOL     OW 7837   4.410   1.161   3.665
 2610SOL    HW1 7838   4.470   1.240   3.679
 2610SOL    HW2 7839   4.324   1.192   3.624
 2611SOL     OW 7840   4.059   1.435   2.923
 2611SOL    HW1 7841   3.981   1.404   2.870
 2611SOL    HW2 7842   4.117   1.493   2.866
 2612SOL     OW 7843   4.162   0.392   3.361
 2612SOL    HW1 7844   4.244   0.336   3.370
 2612SOL    HW2 7845   4.081   0.334   3.365
 2613SOL     OW 7846   3.955   1.713   2.345
 2613SOL    HW1 7847   3.989   1.790   2.399
 2613SOL    HW2 7848   3.999   1.713   2.255
 2614SOL     OW 7849   3.954   1.434   2.400
 2614SOL    HW1 7850   3.928   1.530   2.400
 2614SOL    HW2 7851   3.883   1.380   2.445
 2615SOL     OW 7852   3.964   1.091   2.748
 2615SOL    HW1 7853   3.978   1.007   2.800
 2615SOL    HW2 7854   3.909   1.155   2.803
 2616SOL     OW 7855   4.344   1.786   3.301
 2616SOL    HW1 7856   4.252   1.769   3.336
 2616SOL    HW2 7857   4.372   1.878   3.327
 2617SOL     OW 7858   4.330   0.964   1.985
 2617SOL    HW1 7859   4.337   1.048   1.931
 2617SOL    HW2 7860   4.376   0.977   2.073
 2618SOL     OW 7861   3.846   0.643   2.425
 2618SOL    HW1 7862   3.801   0.555   2.442
 2618SOL    HW2 7863   3.845   0.697   2.509
 2619SOL     OW 7864   3.751   1.596   1.979
 2619SOL    HW1 7865   3.732   1.500   2.000
 2619SOL    HW2 7866   3.718   1.654   2.054
 2620SOL     OW 7867   3.837   0.737   3.459
 2620SOL    HW1 7868   3.925   0.724   3.504
 2620SOL    HW2 7869   3.824   0.834   3.437
 2621SOL     OW 7870   4.337   1.365   2.588
 2621SOL    HW1 7871   4.288   1.278   2.597
 2621SOL    HW2 7872   4.314   1.408   2.501
 2622SOL     OW 7873   4.533   0.004   2.364
 2622SOL    HW1 7874   4.573   0.095   2.355
 2622SOL    HW2 7875   4.433   0.012   2.370
 2623SOL     OW 7876   3.921   0.976   3.126
 2623SOL    HW1 7877   4.010   0.931   3.112
 2623SOL    HW2 7878   3.848   0.911   3.107
 2624SOL     OW 7879   4.041   0.251   3.663
 2624SOL    HW1 7880   4.112   0.322   3.669
 2624SOL    HW2 7881   3.953   0.290   3.691
 2625SOL     OW 7882   4.322   0.729   2.132
 2625SOL    HW1 7883   4.346   0.798   2.064
 2625SOL    HW2 7884   4.244   0.762   2.186
 2626SOL     OW 7885   3.800   0.811   2.651
 2626SOL    HW1 7886   3.899   0.799   2.660
 2626SOL    HW2 7887   3.776   0.906   2.672
 2627SOL     OW 7888   3.854   1.821   3.433
 2627SOL    HW1 7889   3.844   1.806   3.532
 2627SOL    HW2 7890   3.768   1.857   3.397
 2628SOL     OW 7891   4.274   0.196   2.747
 2628SOL    HW1 7892   4.269   0.191   2.847
 2628SOL    HW2 7893   4.276   0.292   2.718
 2629SOL     OW 7894   4.075   1.801   2.715
 2629SOL    HW1 7895   4.125   1.715   2.721
 2629SOL    HW2 7896   4.140   1.878   2.712
 2630SOL     OW 7897   4.045   0.943   2.104
 2630SOL    HW1 7898   4.127   0.982   2.062
 2630SOL    HW2 7899   4.018   0.861   2.055
 2631SOL     OW 7900   4.185   1.266   3.589
 2631SOL    HW1 7901   4.135   1.267   3.503
 2631SOL    HW2 7902   4.122   1.248   3.665
 2632SOL     OW 7903   3.926   0.285   3.360
 2632SOL    HW1 7904   3.846   0.345   3.347
 2632SOL    HW2 7905   3.916   0.236   3.446
 2633SOL     OW 7906   4.188   1.743   2.185
 2633SOL    HW1 7907   4.221   1.782   2.271
 2633SOL    HW2 7908   4.264   1.736   2.120
 2634SOL     OW 7909   3.973   1.785   3.103
 2634SOL    HW1 7910   4.030   1.720   3.153
 2634SOL    HW2 7911   3.957   1.752   3.010
 2635SOL     OW 7912   4.106   0.700   2.342
 2635SOL    HW1 7913   4.151   0.610   2.339
 2635SOL    HW2 7914   4.012   0.689   2.375
 2636SOL     OW 7915   4.338   0.122   1.979
 2636SOL    HW1 7916   4.436   0.100   1.986
 2636SOL    HW2 7917   4.307   0.105   1.886
 2637SOL     OW 7918   4.527   1.402   2.786
 2637SOL    HW1 7919   4.617   1.416   2.744
 2637SOL    HW2 7920   4.456   1.404   2.715
 2638SOL     OW 7921   4.646   0.503   2.761
 2638SOL    HW1 7922   4.621   0.494   2.665
 2638SOL    HW2 7923   4.694   0.421   2.792
 2639SOL     OW 7924   4.263   0.064   2.374
 2639SOL    HW1 7925   4.182   0.065   2.432
 2639SOL    HW2 7926   4.266   0.147   2.319
 2640SOL     OW 7927   4.021   0.035   2.033
 2640SOL    HW1 7928   4.070   0.119   2.012
 2640SOL    HW2 7929   4.083  -0.030   2.078
 2641SOL     OW 7930   4.183   1.152   2.603
 2641SOL    HW1 7931   4.112   1.125   2.668
 2641SOL    HW2 7932   4.157   1.124   2.510
 2642SOL     OW 7933   3.802   0.556   3.248
 2642SOL    HW1 7934   3.894   0.555   3.207
 2642SOL    HW2 7935   3.796   0.630   3.315
 2643SOL     OW 7936   4.285   0.222   3.009
 2643SOL    HW1 7937   4.323   0.138   3.046
 2643SOL    HW2 7938   4.197   0.241   3.053
 2644SOL     OW 7939   4.212   1.385   2.036
 2644SOL    HW1 7940   4.125   1.370   2.083
 2644SOL    HW2 7941   4.195   1.411   1.941
 2645SOL     OW 7942   4.251   0.256   2.190
 2645SOL    HW1 7943   4.278   0.197   2.115
 2645SOL    HW2 7944   4.251   0.351   2.159
 2646SOL     OW 7945   4.134   0.813   3.113
 2646SOL    HW1 7946   4.220   0.825   3.163
 2646SOL    HW2 7947   4.092   0.726   3.140
 2647SOL     OW 7948   3.788   1.564   3.193
 2647SOL    HW1 7949   3.742   1.646   3.159
 2647SOL    HW2 7950   3.886   1.583   3.202
 2648SOL     OW 7951   4.091   1.100   2.363
 2648SOL    HW1 7952   4.084   1.183   2.307
 2648SOL    HW2 7953   4.095   1.020   2.303
 2649SOL     OW 7954   4.290   0.537   2.727
 2649SOL    HW1 7955   4.302   0.603   2.653
 2649SOL    HW2 7956   4.336   0.571   2.810
 2650SOL     OW 7957   4.078   1.510   3.191
 2650SOL    HW1 7958   4.057   1.466   3.104
 2650SOL    HW2 7959   4.175   1.536   3.194
 2651SOL     OW 7960   4.126   0.751   3.460
 2651SOL    HW1 7961   4.194   0.806   3.413
 2651SOL    HW2 7962   4.166   0.663   3.487
 2652SOL     OW 7963   4.228   0.050   3.602
 2652SOL    HW1 7964   4.186  -0.007   3.532
 2652SOL    HW2 7965   4.162   0.119   3.634
 2653SOL     OW 7966   4.297   0.870   2.891
 2653SOL    HW1 7967   4.341   0.959   2.882
 2653SOL    HW2 7968   4.234   0.870   2.968
 2654SOL     OW 7969   4.031   0.213   3.093
 2654SOL    HW1 7970   4.008   0.250   3.183
 2654SOL    HW2 7971   4.001   0.118   3.087
 2655SOL     OW 7972   3.761   1.310   3.144
 2655SOL    HW1 7973   3.814   1.261   3.212
 2655SOL    HW2 7974   3.783   1.408   3.149
 2656SOL     OW 7975   4.031   0.063   2.480
 2656SOL    HW1 7976   4.020   0.157   2.513
 2656SOL    HW2 7977   4.026   0.000   2.557
 2657SOL     OW 7978   4.074   0.898   3.666
 2657SOL    HW1 7979   4.150   0.942   3.714
 2657SOL    HW2 7980   4.109   0.851   3.584
 2658SOL     OW 7981   4.792   1.333   2.711
 2658SOL    HW1 7982   4.799   1.249   2.656
 2658SOL    HW2 7983   4.854   1.402   2.675
 2659SOL     OW 7984   4.043   0.810   2.811
 2659SOL    HW1 7985   4.136   0.846   2.816
 2659SOL    HW2 7986   4.037   0.725   2.863
 2660SOL     OW 7987   4.063   0.509   2.868
 2660SOL    HW1 7988   4.011   0.426   2.851
 2660SOL    HW2 7989   4.140   0.514   2.804
 2661SOL     OW 7990   3.732   1.326   2.062
 2661SOL    HW1 7991   3.639   1.347   2.031
 2661SOL    HW2 7992   3.742   1.227   2.075
 2662SOL     OW 7993   3.812   1.801   2.789
 2662SOL    HW1 7994   3.770   1.715   2.762
 2662SOL    HW2 7995   3.906   1.804   2.755
 2663SOL     OW 7996   4.228   1.568   2.772
 2663SOL    HW1 7997   4.294   1.642   2.781
 2663SOL    HW2 7998   4.272   1.489   2.730
 2664SOL     OW 7999   3.764   0.544   2.976
 2664SOL    HW1 8000   3.849   0.511   2.935
 2664SOL    HW2 8001   3.777   0.559   3.074
 2665SOL     OW 8002   3.913   0.520   3.584
 2665SOL    HW1 8003   3.972   0.480   3.514
 2665SOL    HW2 8004   3.855   0.591   3.543
 2666SOL     OW 8005   4.539   0.572   2.187
 2666SOL    HW1 8006   4.546   0.483   2.141
 2666SOL    HW2 8007   4.445   0.606   2.179
 2667SOL     OW 8008   3.976   1.564   3.606
 2667SOL    HW1 8009   3.946   1.621   3.682
 2667SOL    HW2 8010   3.969   1.467   3.632
 2668SOL     OW 8011   4.395   0.464   3.131
 2668SOL    HW1 8012   4.361   0.375   3.101
 2668SOL    HW2 8013   4.421   0.518   3.051
 2669SOL     OW 8014   4.197   0.500   2.053
 2669SOL    HW1 8015   4.258   0.580   2.057
 2669SOL    HW2 8016   4.102   0.531   2.060
 2670SOL     OW 8017   3.883   1.137   3.328
 2670SOL    HW1 8018   3.905   1.076   3.404
 2670SOL    HW2 8019   3.893   1.088   3.242
 2671SOL     OW 8020   3.807   1.258   2.884
 2671SOL    HW1 8021   3.802   1.257   2.984
 2671SOL    HW2 8022   3.724   1.217   2.846
 2672SOL     OW 8023   4.412   1.662   3.578
 2672SOL    HW1 8024   4.356   1.743   3.587
 2672SOL    HW2 8025   4.464   1.666   3.492
 2673SOL     OW 8026   3.854   1.794   3.713
 2673SOL    HW1 8027   3.813   1.720   3.766
 2673SOL    HW2 8028   3.918   1.845   3.771
 2674SOL     OW 8029   3.987   0.326   2.582
 2674SOL    HW1 8030   3.908   0.377   2.548
 2674SOL    HW2 8031   3.978   0.311   2.680
 2675SOL     OW 8032   4.096   1.288   3.352
 2675SOL    HW1 8033   4.083   1.381   3.318
 2675SOL    HW2 8034   4.012   1.236   3.339
 2676SOL     OW 8035   4.763   1.098   2.558
 2676SOL    HW1 8036   4.693   1.051   2.612
 2676SOL    HW2 8037   4.822   1.030   2.515
 2677SOL     OW 8038   4.314   1.487   2.353
 2677SOL    HW1 8039   4.356   1.429   2.283
 2677SOL    HW2 8040   4.270   1.566   2.309
 2678SOL     OW 8041   3.979   1.348   2.152
 2678SOL    HW1 8042   3.883   1.349   2.125
 2678SOL    HW2 8043   3.991   1.401   2.236
 2679SOL     OW 8044   3.829   1.013   3.588
 2679SOL    HW1 8045   3.752   0.980   3.642
 2679SOL    HW2 8046   3.914   0.983   3.630
 2680SOL     OW 8047   4.396   0.203   3.351
 2680SOL    HW1 8048   4.486   0.187   3.311
 2680SOL    HW2 8049   4.404   0.208   3.450
 2681SOL     OW 8050   3.799   0.345   1.895
 2681SOL    HW1 8051   3.707   0.317   1.866
 2681SOL    HW2 8052   3.830   0.422   1.839
 2682SOL     OW 8053   3.796   0.166   2.180
 2682SOL    HW1 8054   3.779   0.249   2.126
 2682SOL    HW2 8055   3.886   0.129   2.158
 2683SOL     OW 8056   4.337   0.842   3.293
 2683SOL    HW1 8057   4.393   0.923   3.276
 2683SOL    HW2 8058   4.396   0.762   3.296
 2684SOL     OW 8059   4.440   0.565   3.570
 2684SOL    HW1 8060   4.459   0.630   3.644
 2684SOL    HW2 8061   4.500   0.485   3.579
 2685SOL     OW 8062   4.114   1.741   3.422
 2685SOL    HW1 8063   4.023   1.782   3.420
 2685SOL    HW2 8064   4.107   1.647   3.454
 2686SOL     OW 8065   4.318   0.745   2.514
 2686SOL    HW1 8066   4.368   0.830   2.495
 2686SOL    HW2 8067   4.230   0.747   2.466
 2687SOL     OW 8068   3.945   1.314   3.706
 2687SOL    HW1 8069   3.880   1.241   3.685
 2687SOL    HW2 8070   3.949   1.328   3.804
 2688SOL     OW 8071   3.803   1.240   2.515
 2688SOL    HW1 8072   3.802   1.193   2.603
 2688SOL    HW2 8073   3.885   1.212   2.464
 2689SOL     OW 8074   4.396   1.391   3.486
 2689SOL    HW1 8075   4.318   1.341   3.524
 2689SOL    HW2 8076   4.393   1.486   3.517
 2690SOL     OW 8077   4.152   0.424   2.382
 2690SOL    HW1 8078   4.182   0.352   2.320
 2690SOL    HW2 8079   4.113   0.384   2.465
 2691SOL     OW 8080   4.041   0.547   3.142
 2691SOL    HW1 8081   4.079   0.488   3.214
 2691SOL    HW2 8082   4.081   0.521   3.054
 2692SOL     OW 8083   4.536   1.586   2.549
 2692SOL    HW1 8084   4.568   1.596   2.455
 2692SOL    HW2 8085   4.457   1.524   2.551
 2693SOL     OW 8086   4.342   1.567   3.146
 2693SOL    HW1 8087   4.337   1.649   3.203
 2693SOL    HW2 8088   4.431   1.564   3.101
 2694SOL     OW 8089   3.763   1.077   2.162
 2694SOL    HW1 8090   3.862   1.066   2.153
 2694SOL    HW2 8091   3.723   0.991   2.194
 2695SOL     OW 8092   3.954   0.628   3.837
 2695SOL    HW1 8093   3.861   0.626   3.874
 2695SOL    HW2 8094   3.955   0.589   3.745
 2696SOL     OW 8095   3.743   0.368   4.371
 2696SOL    HW1 8096   3.661   0.411   4.410
 2696SOL    HW2 8097   3.715   0.295   4.308
 2697SOL     OW 8098   4.409   1.012   4.389
 2697SOL    HW1 8099   4.478   0.996   4.459
 2697SOL    HW2 8100   4.336   1.069   4.427
 2698SOL     OW 8101   3.955   1.713   4.207
 2698SOL    HW1 8102   3.989   1.790   4.261
 2698SOL    HW2 8103   3.999   1.713   4.117
 2699SOL     OW 8104   3.954   1.434   4.262
 2699SOL    HW1 8105   3.928   1.530   4.262
 2699SOL    HW2 8106   3.883   1.380   4.307
 2700SOL     OW 8107   4.330   0.964   3.847
 2700SOL    HW1 8108   4.337   1.048   3.793
 2700SOL    HW2 8109   4.376   0.977   3.935
 2701SOL     OW 8110   3.846   0.643   4.287
 2701SOL    HW1 8111   3.801   0.555   4.304
 2701SOL    HW2 8112   3.845   0.697   4.371
 2702SOL     OW 8113   3.751   1.596   3.841
 2702SOL    HW1 8114   3.732   1.500   3.862
 2702SOL    HW2 8115   3.718   1.654   3.916
 2703SOL     OW 8116   4.337   1.365   4.450
 2703SOL    HW1 8117   4.288   1.278   4.459
 2703SOL    HW2 8118   4.314   1.408   4.363
 2704SOL     OW 8119   4.533   0.004   4.226
 2704SOL    HW1 8120   4.573   0.095   4.217
 2704SOL    HW2 8121   4.433   0.012   4.232
 2705SOL     OW 8122   4.322   0.729   3.994
 2705SOL    HW1 8123   4.346   0.798   3.926
 2705SOL    HW2 8124   4.244   0.762   4.048
 2706SOL     OW 8125   3.800   0.811   4.513
 2706SOL    HW1 8126   3.899   0.799   4.522
 2706SOL    HW2 8127   3.776   0.906   4.534
 2707SOL     OW 8128   4.075   1.801   4.577
 2707SOL    HW1 8129   4.125   1.715   4.583
 2707SOL    HW2 8130   4.140   1.878   4.574
 2708SOL     OW 8131   4.045   0.943   3.966
 2708SOL    HW1 8132   4.127   0.982   3.924
 2708SOL    HW2 8133   4.018   0.861   3.917
 2709SOL     OW 8134   4.188   1.743   4.047
 2709SOL    HW1 8135   4.221   1.782   4.133
 2709SOL    HW2 8136   4.264   1.736   3.982
 2710SOL     OW 8137   4.106   0.700   4.204
 2710SOL    HW1 8138   4.151   0.610   4.201
 2710SOL    HW2 8139   4.012   0.689   4.237
 2711SOL     OW 8140   4.338   0.122   3.841
 2711SOL    HW1 8141   4.436   0.100   3.848
 2711SOL    HW2 8142   4.307   0.105   3.748
 2712SOL     OW 8143   4.263   0.064   4.236
 2712SOL    HW1 8144   4.182   0.065   4.294
 2712SOL    HW2 8145   4.266   0.147   4.181
 2713SOL     OW 8146   4.021   0.035   3.895
 2713SOL    HW1 8147   4.070   0.119   3.874
 2713SOL    HW2 8148   4.083  -0.030   3.940
 2714SOL     OW 8149   4.183   1.152   4.465
 2714SOL    HW1 8150   4.112   1.125   4.530
 2714SOL    HW2 8151   4.157   1.124   4.372
 2715SOL     OW 8152   4.212   1.385   3.898
 2715SOL    HW1 8153   4.125   1.370   3.945
 2715SOL    HW2 8154   4.195   1.411   3.803
 2716SOL     OW 8155   4.251   0.256   4.052
 2716SOL    HW1 8156   4.278   0.197   3.977
 2716SOL    HW2 8157   4.251   0.351   4.021
 2717SOL     OW 8158   4.091   1.100   4.225
 2717SOL    HW1 8159   4.084   1.183   4.169
 2717SOL    HW2 8160   4.095   1.020   4.165
 2718SOL     OW 8161   4.031   0.063   4.342
 2718SOL    HW1 8162   4.020   0.157   4.375
 2718SOL    HW2 8163   4.026   0.000   4.419
 2719SOL     OW 8164   4.792   1.333   4.573
 2719SOL    HW1 8165   4.799   1.249   4.518
 2719SOL    HW2 8166   4.854   1.402   4.537
 2720SOL     OW 8167   3.732   1.326   3.924
 2720SOL    HW1 8168   3.639   1.347   3.893
 2720SOL    HW2 8169   3.742   1.227   3.937
 2721SOL     OW 8170   3.764   0.544   4.838
 2721SOL    HW1 8171   3.849   0.511   4.797
 2721SOL    HW2 8172   3.777   0.559   4.936
 2722SOL     OW 8173   4.539   0.572   4.049
 2722SOL    HW1 8174   4.546   0.483   4.003
 2722SOL    HW2 8175   4.445   0.606   4.041
 2723SOL     OW 8176   4.197   0.500   3.915
 2723SOL    HW1 8177   4.258   0.580   3.919
 2723SOL    HW2 8178   4.102   0.531   3.922
 2724SOL     OW 8179   3.987   0.326   4.444
 2724SOL    HW1 8180   3.908   0.377   4.410
 2724SOL    HW2 8181   3.978   0.311   4.542
 2725SOL     OW 8182   4.763   1.098   4.420
 2725SOL    HW1 8183   4.693   1.051   4.474
 2725SOL    HW2 8184   4.822   1.030   4.377
 2726SOL     OW 8185   4.314   1.487   4.215
 2726SOL    HW1 8186   4.356   1.429   4.145
 2726SOL    HW2 8187   4.270   1.566   4.171
 2727SOL     OW 8188   3.979   1.348   4.014
 2727SOL    HW1 8189   3.883   1.349   3.987
 2727SOL    HW2 8190   3.991   1.401   4.098
 2728SOL     OW 8191   3.799   0.345   3.757
 2728SOL    HW1 8192   3.707   0.317   3.728
 2728SOL    HW2 8193   3.830   0.422   3.701
 2729SOL     OW 8194   3.796   0.166   4.042
 2729SOL    HW1 8195   3.779   0.249   3.988
 2729SOL    HW2 8196   3.886   0.129   4.020
 2730SOL     OW 8197   4.318   0.745   4.376
 2730SOL    HW1 8198   4.368   0.830   4.357
 2730SOL    HW2 8199   4.230   0.747   4.328
 2731SOL     OW 8200   4.385   1.790   4.677
 2731SOL    HW1 8201   4.339   1.878   4.664
 2731SOL    HW2 8202   4.484   1.802   4.670
 2732SOL     OW 8203   3.803   1.240   4.377
 2732SOL    HW1 8204   3.802   1.193   4.465
 2732SOL    HW2 8205   3.885   1.212   4.326
 2733SOL     OW 8206   4.152   0.424   4.244
 2733SOL    HW1 8207   4.182   0.352   4.182
 2733SOL    HW2 8208   4.113   0.384   4.327
 2734SOL     OW 8209   4.536   1.586   4.411
 2734SOL    HW1 8210   4.568   1.596   4.317
 2734SOL    HW2 8211   4.457   1.524   4.413
 2735SOL     OW 8212   3.763   1.077   4.024
 2735SOL    HW1 8213   3.862   1.066   4.015
 2735SOL    HW2 8214   3.723   0.991   4.056
 2736SOL     OW 8215   3.954   2.490   0.113
 2736SOL    HW1 8216   3.861   2.488   0.150
 2736SOL    HW2 8217   3.955   2.451   0.021
 2737SOL     OW 8218   3.949   2.137   0.996
 2737SOL    HW1 8219   3.984   2.120   1.088
 2737SOL    HW2 8220   3.861   2.092   0.984
 2738SOL     OW 8221   3.743   2.230   0.647
 2738SOL    HW1 8222   3.661   2.273   0.686
 2738SOL    HW2 8223   3.715   2.157   0.584
 2739SOL     OW 8224   4.293   3.137   1.165
 2739SOL    HW1 8225   4.200   3.130   1.128
 2739SOL    HW2 8226   4.304   3.226   1.209
 2740SOL     OW 8227   4.574   2.660   1.823
 2740SOL    HW1 8228   4.570   2.736   1.888
 2740SOL    HW2 8229   4.596   2.696   1.732
 2741SOL     OW 8230   4.409   2.874   0.665
 2741SOL    HW1 8231   4.478   2.858   0.735
 2741SOL    HW2 8232   4.336   2.931   0.703
 2742SOL     OW 8233   4.410   3.023   1.803
 2742SOL    HW1 8234   4.470   3.102   1.817
 2742SOL    HW2 8235   4.324   3.054   1.762
 2743SOL     OW 8236   4.059   3.297   1.061
 2743SOL    HW1 8237   3.981   3.266   1.008
 2743SOL    HW2 8238   4.117   3.355   1.004
 2744SOL     OW 8239   4.162   2.254   1.499
 2744SOL    HW1 8240   4.244   2.198   1.508
 2744SOL    HW2 8241   4.081   2.196   1.503
 2745SOL     OW 8242   3.955   3.575   0.483
 2745SOL    HW1 8243   3.989   3.652   0.537
 2745SOL    HW2 8244   3.999   3.575   0.393
 2746SOL     OW 8245   3.954   3.296   0.538
 2746SOL    HW1 8246   3.928   3.392   0.538
 2746SOL    HW2 8247   3.883   3.242   0.583
 2747SOL     OW 8248   3.964   2.953   0.886
 2747SOL    HW1 8249   3.978   2.869   0.938
 2747SOL    HW2 8250   3.909   3.017   0.941
 2748SOL     OW 8251   4.344   3.648   1.439
 2748SOL    HW1 8252   4.252   3.631   1.474
 2748SOL    HW2 8253   4.372   3.740   1.465
 2749SOL     OW 8254   4.330   2.826   0.123
 2749SOL    HW1 8255   4.337   2.910   0.069
 2749SOL    HW2 8256   4.376   2.839   0.211
 2750SOL     OW 8257   3.846   2.505   0.563
 2750SOL    HW1 8258   3.801   2.417   0.580
 2750SOL    HW2 8259   3.845   2.559   0.647
 2751SOL     OW 8260   3.751   3.458   0.117
 2751SOL    HW1 8261   3.732   3.362   0.138
 2751SOL    HW2 8262   3.718   3.516   0.192
 2752SOL     OW 8263   3.837   2.599   1.597
 2752SOL    HW1 8264   3.925   2.586   1.642
 2752SOL    HW2 8265   3.824   2.696   1.575
 2753SOL     OW 8266   4.337   3.227   0.726
 2753SOL    HW1 8267   4.288   3.140   0.735
 2753SOL    HW2 8268   4.314   3.270   0.639
 2754SOL     OW 8269   4.533   1.866   0.502
 2754SOL    HW1 8270   4.573   1.957   0.493
 2754SOL    HW2 8271   4.433   1.874   0.508
 2755SOL     OW 8272   3.921   2.838   1.264
 2755SOL    HW1 8273   4.010   2.793   1.250
 2755SOL    HW2 8274   3.848   2.773   1.245
 2756SOL     OW 8275   4.041   2.113   1.801
 2756SOL    HW1 8276   4.112   2.184   1.807
 2756SOL    HW2 8277   3.953   2.152   1.829
 2757SOL     OW 8278   4.322   2.591   0.270
 2757SOL    HW1 8279   4.346   2.660   0.202
 2757SOL    HW2 8280   4.244   2.624   0.324
 2758SOL     OW 8281   3.800   2.673   0.789
 2758SOL    HW1 8282   3.899   2.661   0.798
 2758SOL    HW2 8283   3.776   2.768   0.810
 2759SOL     OW 8284   3.854   3.683   1.571
 2759SOL    HW1 8285   3.844   3.668   1.670
 2759SOL    HW2 8286   3.768   3.719   1.535
 2760SOL     OW 8287   4.274   2.058   0.885
 2760SOL    HW1 8288   4.269   2.053   0.985
 2760SOL    HW2 8289   4.276   2.154   0.856
 2761SOL     OW 8290   4.075   3.663   0.853
 2761SOL    HW1 8291   4.125   3.577   0.859
 2761SOL    HW2 8292   4.140   3.740   0.850
 2762SOL     OW 8293   4.045   2.805   0.242
 2762SOL    HW1 8294   4.127   2.844   0.200
 2762SOL    HW2 8295   4.018   2.723   0.193
 2763SOL     OW 8296   4.185   3.128   1.727
 2763SOL    HW1 8297   4.135   3.129   1.641
 2763SOL    HW2 8298   4.122   3.110   1.803
 2764SOL     OW 8299   3.926   2.147   1.498
 2764SOL    HW1 8300   3.846   2.207   1.485
 2764SOL    HW2 8301   3.916   2.098   1.584
 2765SOL     OW 8302   4.188   3.605   0.323
 2765SOL    HW1 8303   4.221   3.644   0.409
 2765SOL    HW2 8304   4.264   3.598   0.258
 2766SOL     OW 8305   3.973   3.647   1.241
 2766SOL    HW1 8306   4.030   3.582   1.291
 2766SOL    HW2 8307   3.957   3.614   1.148
 2767SOL     OW 8308   4.106   2.562   0.480
 2767SOL    HW1 8309   4.151   2.472   0.477
 2767SOL    HW2 8310   4.012   2.551   0.513
 2768SOL     OW 8311   4.527   3.264   0.924
 2768SOL    HW1 8312   4.617   3.278   0.882
 2768SOL    HW2 8313   4.456   3.266   0.853
 2769SOL     OW 8314   4.646   2.365   0.899
 2769SOL    HW1 8315   4.621   2.356   0.803
 2769SOL    HW2 8316   4.694   2.283   0.930
 2770SOL     OW 8317   4.263   1.926   0.512
 2770SOL    HW1 8318   4.182   1.927   0.570
 2770SOL    HW2 8319   4.266   2.009   0.457
 2771SOL     OW 8320   4.183   3.014   0.741
 2771SOL    HW1 8321   4.112   2.987   0.806
 2771SOL    HW2 8322   4.157   2.986   0.648
 2772SOL     OW 8323   3.802   2.418   1.386
 2772SOL    HW1 8324   3.894   2.417   1.345
 2772SOL    HW2 8325   3.796   2.492   1.453
 2773SOL     OW 8326   4.285   2.084   1.147
 2773SOL    HW1 8327   4.323   2.000   1.184
 2773SOL    HW2 8328   4.197   2.103   1.191
 2774SOL     OW 8329   4.212   3.247   0.174
 2774SOL    HW1 8330   4.125   3.232   0.221
 2774SOL    HW2 8331   4.195   3.273   0.079
 2775SOL     OW 8332   4.251   2.118   0.328
 2775SOL    HW1 8333   4.278   2.059   0.253
 2775SOL    HW2 8334   4.251   2.213   0.297
 2776SOL     OW 8335   4.134   2.675   1.251
 2776SOL    HW1 8336   4.220   2.687   1.301
 2776SOL    HW2 8337   4.092   2.588   1.278
 2777SOL     OW 8338   3.788   3.426   1.331
 2777SOL    HW1 8339   3.742   3.508   1.297
 2777SOL    HW2 8340   3.886   3.445   1.340
 2778SOL     OW 8341   4.091   2.962   0.501
 2778SOL    HW1 8342   4.084   3.045   0.445
 2778SOL    HW2 8343   4.095   2.882   0.441
 2779SOL     OW 8344   4.290   2.399   0.865
 2779SOL    HW1 8345   4.302   2.465   0.791
 2779SOL    HW2 8346   4.336   2.433   0.948
 2780SOL     OW 8347   4.078   3.372   1.329
 2780SOL    HW1 8348   4.057   3.328   1.242
 2780SOL    HW2 8349   4.175   3.398   1.332
 2781SOL     OW 8350   4.126   2.613   1.598
 2781SOL    HW1 8351   4.194   2.668   1.551
 2781SOL    HW2 8352   4.166   2.525   1.625
 2782SOL     OW 8353   4.228   1.912   1.740
 2782SOL    HW1 8354   4.186   1.855   1.670
 2782SOL    HW2 8355   4.162   1.981   1.772
 2783SOL     OW 8356   4.297   2.732   1.029
 2783SOL    HW1 8357   4.341   2.821   1.020
 2783SOL    HW2 8358   4.234   2.732   1.106
 2784SOL     OW 8359   4.031   2.075   1.231
 2784SOL    HW1 8360   4.008   2.112   1.321
 2784SOL    HW2 8361   4.001   1.980   1.225
 2785SOL     OW 8362   3.761   3.172   1.282
 2785SOL    HW1 8363   3.814   3.123   1.350
 2785SOL    HW2 8364   3.783   3.270   1.287
 2786SOL     OW 8365   4.031   1.925   0.618
 2786SOL    HW1 8366   4.020   2.019   0.651
 2786SOL    HW2 8367   4.026   1.862   0.695
 2787SOL     OW 8368   4.074   2.760   1.804
 2787SOL    HW1 8369   4.150   2.804   1.852
 2787SOL    HW2 8370   4.109   2.713   1.722
 2788SOL     OW 8371   4.792   3.195   0.849
 2788SOL    HW1 8372   4.799   3.111   0.794
 2788SOL    HW2 8373   4.854   3.264   0.813
 2789SOL     OW 8374   4.043   2.672   0.949
 2789SOL    HW1 8375   4.136   2.708   0.954
 2789SOL    HW2 8376   4.037   2.587   1.001
 2790SOL     OW 8377   4.063   2.371   1.006
 2790SOL    HW1 8378   4.011   2.288   0.989
 2790SOL    HW2 8379   4.140   2.376   0.942
 2791SOL     OW 8380   3.732   3.188   0.200
 2791SOL    HW1 8381   3.639   3.209   0.169
 2791SOL    HW2 8382   3.742   3.089   0.213
 2792SOL     OW 8383   3.812   3.663   0.927
 2792SOL    HW1 8384   3.770   3.577   0.900
 2792SOL    HW2 8385   3.906   3.666   0.893
 2793SOL     OW 8386   4.228   3.430   0.910
 2793SOL    HW1 8387   4.294   3.504   0.919
 2793SOL    HW2 8388   4.272   3.351   0.868
 2794SOL     OW 8389   3.764   2.406   1.114
 2794SOL    HW1 8390   3.849   2.373   1.073
 2794SOL    HW2 8391   3.777   2.421   1.212
 2795SOL     OW 8392   3.913   2.382   1.722
 2795SOL    HW1 8393   3.972   2.342   1.652
 2795SOL    HW2 8394   3.855   2.453   1.681
 2796SOL     OW 8395   3.976   3.426   1.744
 2796SOL    HW1 8396   3.946   3.483   1.820
 2796SOL    HW2 8397   3.969   3.329   1.770
 2797SOL     OW 8398   4.395   2.326   1.269
 2797SOL    HW1 8399   4.361   2.237   1.239
 2797SOL    HW2 8400   4.421   2.380   1.189
 2798SOL     OW 8401   4.197   2.362   0.191
 2798SOL    HW1 8402   4.258   2.442   0.195
 2798SOL    HW2 8403   4.102   2.393   0.198
 2799SOL     OW 8404   3.883   2.999   1.466
 2799SOL    HW1 8405   3.905   2.938   1.542
 2799SOL    HW2 8406   3.893   2.950   1.380
 2800SOL     OW 8407   3.807   3.120   1.022
 2800SOL    HW1 8408   3.802   3.119   1.122
 2800SOL    HW2 8409   3.724   3.079   0.984
 2801SOL     OW 8410   4.412   3.524   1.716
 2801SOL    HW1 8411   4.356   3.605   1.725
 2801SOL    HW2 8412   4.464   3.528   1.630
 2802SOL     OW 8413   3.854   3.656   1.851
 2802SOL    HW1 8414   3.813   3.582   1.904
 2802SOL    HW2 8415   3.918   3.707   1.909
 2803SOL     OW 8416   3.987   2.188   0.720
 2803SOL    HW1 8417   3.908   2.239   0.686
 2803SOL    HW2 8418   3.978   2.173   0.818
 2804SOL     OW 8419   4.096   3.150   1.490
 2804SOL    HW1 8420   4.083   3.243   1.456
 2804SOL    HW2 8421   4.012   3.098   1.477
 2805SOL     OW 8422   4.763   2.960   0.696
 2805SOL    HW1 8423   4.693   2.913   0.750
 2805SOL    HW2 8424   4.822   2.892   0.653
 2806SOL     OW 8425   4.314   3.349   0.491
 2806SOL    HW1 8426   4.356   3.291   0.421
 2806SOL    HW2 8427   4.270   3.428   0.447
 2807SOL     OW 8428   3.979   3.210   0.290
 2807SOL    HW1 8429   3.883   3.211   0.263
 2807SOL    HW2 8430   3.991   3.263   0.374
 2808SOL     OW 8431   3.829   2.875   1.726
 2808SOL    HW1 8432   3.752   2.842   1.780
 2808SOL    HW2 8433   3.914   2.845   1.768
 2809SOL     OW 8434   4.396   2.065   1.489
 2809SOL    HW1 8435   4.486   2.049   1.449
 2809SOL    HW2 8436   4.404   2.070   1.588
 2810SOL     OW 8437   3.799   2.207   0.033
 2810SOL    HW1 8438   3.707   2.179   0.004
 2810SOL    HW2 8439   3.830   2.284  -0.023
 2811SOL     OW 8440   3.796   2.028   0.318
 2811SOL    HW1 8441   3.779   2.111   0.264
 2811SOL    HW2 8442   3.886   1.991   0.296
 2812SOL     OW 8443   4.337   2.704   1.431
 2812SOL    HW1 8444   4.393   2.785   1.414
 2812SOL    HW2 8445   4.396   2.624   1.434
 2813SOL     OW 8446   4.440   2.427   1.708
 2813SOL    HW1 8447   4.459   2.492   1.782
 2813SOL    HW2 8448   4.500   2.347   1.717
 2814SOL     OW 8449   4.114   3.603   1.560
 2814SOL    HW1 8450   4.023   3.644   1.558
 2814SOL    HW2 8451   4.107   3.509   1.592
 2815SOL     OW 8452   4.318   2.607   0.652
 2815SOL    HW1 8453   4.368   2.692   0.633
 2815SOL    HW2 8454   4.230   2.609   0.604
 2816SOL     OW 8455   3.945   3.176   1.844
 2816SOL    HW1 8456   3.880   3.103   1.823
 2816SOL    HW2 8457   3.949   3.190   1.942
 2817SOL     OW 8458   3.803   3.102   0.653
 2817SOL    HW1 8459   3.802   3.055   0.741
 2817SOL    HW2 8460   3.885   3.074   0.602
 2818SOL     OW 8461   4.396   3.253   1.624
 2818SOL    HW1 8462   4.318   3.203   1.662
 2818SOL    HW2 8463   4.393   3.348   1.655
 2819SOL     OW 8464   4.152   2.286   0.520
 2819SOL    HW1 8465   4.182   2.214   0.458
 2819SOL    HW2 8466   4.113   2.246   0.603
 2820SOL     OW 8467   4.041   2.409   1.280
 2820SOL    HW1 8468   4.079   2.350   1.352
 2820SOL    HW2 8469   4.081   2.383   1.192
 2821SOL     OW 8470   4.536   3.448   0.687
 2821SOL    HW1 8471   4.568   3.458   0.593
 2821SOL    HW2 8472   4.457   3.386   0.689
 2822SOL     OW 8473   4.342   3.429   1.284
 2822SOL    HW1 8474   4.337   3.511   1.341
 2822SOL    HW2 8475   4.431   3.426   1.239
 2823SOL     OW 8476   3.763   2.939   0.300
 2823SOL    HW1 8477   3.862   2.928   0.291
 2823SOL    HW2 8478   3.723   2.853   0.332
 2824SOL     OW 8479   3.954   2.490   1.975
 2824SOL    HW1 8480   3.861   2.488   2.012
 2824SOL    HW2 8481   3.955   2.451   1.883
 2825SOL     OW 8482   3.949   2.137   2.858
 2825SOL    HW1 8483   3.984   2.120   2.950
 2825SOL    HW2 8484   3.861   2.092   2.846
 2826SOL     OW 8485   3.743   2.230   2.509
 2826SOL    HW1 8486   3.661   2.273   2.548
 2826SOL    HW2 8487   3.715   2.157   2.446
 2827SOL     OW 8488   4.293   3.137   3.027
 2827SOL    HW1 8489   4.200   3.130   2.990
 2827SOL    HW2 8490   4.304   3.226   3.071
 2828SOL     OW 8491   4.574   2.660   3.685
 2828SOL    HW1 8492   4.570   2.736   3.750
 2828SOL    HW2 8493   4.596   2.696   3.594
 2829SOL     OW 8494   4.409   2.874   2.527
 2829SOL    HW1 8495   4.478   2.858   2.597
 2829SOL    HW2 8496   4.336   2.931   2.565
 2830SOL     OW 8497   4.410   3.023   3.665
 2830SOL    HW1 8498   4.470   3.102   3.679
 2830SOL    HW2 8499   4.324   3.054   3.624
 2831SOL     OW 8500   4.059   3.297   2.923
 2831SOL    HW1 8501   3.981   3.266   2.870
 2831SOL    HW2 8502   4.117   3.355   2.866
 2832SOL     OW 8503   4.162   2.254   3.361
 2832SOL    HW1 8504   4.244   2.198   3.370
 2832SOL    HW2 8505   4.081   2.196   3.365
 2833SOL     OW 8506   3.955   3.575   2.345
 2833SOL    HW1 8507   3.989   3.652   2.399
 2833SOL    HW2 8508   3.999   3.575   2.255
 2834SOL     OW 8509   3.954   3.296   2.400
 2834SOL    HW1 8510   3.928   3.392   2.400
 2834SOL    HW2 8511   3.883   3.242   2.445
 2835SOL     OW 8512   3.964   2.953   2.748
 2835SOL    HW1 8513   3.978   2.869   2.800
 2835SOL    HW2 8514   3.909   3.017   2.803
 2836SOL     OW 8515   4.344   3.648   3.301
 2836SOL    HW1 8516   4.252   3.631   3.336
 2836SOL    HW2 8517   4.372   3.740   3.327
 2837SOL     OW 8518   4.330   2.826   1.985
 2837SOL    HW1 8519   4.337   2.910   1.931
 2837SOL    HW2 8520   4.376   2.839   2.073
 2838SOL     OW 8521   3.846   2.505   2.425
 2838SOL    HW1 8522   3.801   2.417   2.442
 2838SOL    HW2 8523   3.845   2.559   2.509
 2839SOL     OW 8524   3.751   3.458   1.979
 2839SOL    HW1 8525   3.732   3.362   2.000
 2839SOL    HW2 8526   3.718   3.516   2.054
 2840SOL     OW 8527   3.837   2.599   3.459
 2840SOL    HW1 8528   3.925   2.586   3.504
 2840SOL    HW2 8529   3.824   2.696   3.437
 2841SOL     OW 8530   4.337   3.227   2.588
 2841SOL    HW1 8531   4.288   3.140   2.597
 2841SOL    HW2 8532   4.314   3.270   2.501
 2842SOL     OW 8533   4.533   1.866   2.364
 2842SOL    HW1 8534   4.573   1.957   2.355
 2842SOL    HW2 8535   4.433   1.874   2.370
 2843SOL     OW 8536   3.921   2.838   3.126
 2843SOL    HW1 8537   4.010   2.793   3.112
 2843SOL    HW2 8538   3.848   2.773   3.107
 2844SOL     OW 8539   4.041   2.113   3.663
 2844SOL    HW1 8540   4.112   2.184   3.669
 2844SOL    HW2 8541   3.953   2.152   3.691
 2845SOL     OW 8542   4.322   2.591   2.132
 2845SOL    HW1 8543   4.346   2.660   2.064
 2845SOL    HW2 8544   4.244   2.624   2.186
 2846SOL     OW 8545   3.800   2.673   2.651
 2846SOL    HW1 8546   3.899   2.661   2.660
 2846SOL    HW2 8547   3.776   2.768   2.672
 2847SOL     OW 8548   3.854   3.683   3.433
 2847SOL    HW1 8549   3.844   3.668   3.532
 2847SOL    HW2 8550   3.768   3.719   3.397
 2848SOL     OW 8551   4.274   2.058   2.747
 2848SOL    HW1 8552   4.269   2.053   2.847
 2848SOL    HW2 8553   4.276   2.154   2.718
 2849SOL     OW 8554   4.075   3.663   2.715
 2849SOL    HW1 8555   4.125   3.577   2.721
 2849SOL    HW2 8556   4.140   3.740   2.712
 2850SOL     OW 8557   4.045   2.805   2.104
 2850SOL    HW1 8558   4.127   2.844   2.062
 2850SOL    HW2 8559   4.018   2.723   2.055
 2851SOL     OW 8560   4.185   3.128   3.589
 2851SOL    HW1 8561   4.135   3.129   3.503
 2851SOL    HW2 8562   4.122   3.110   3.665
 2852SOL     OW 8563   3.926   2.147   3.360
 2852SOL    HW1 8564   3.846   2.207   3.347
 2852SOL    HW2 8565   3.916   2.098   3.446
 2853SOL     OW 8566   4.188   3.605   2.185
 2853SOL    HW1 8567   4.221   3.644   2.271
 2853SOL    HW2 8568   4.264   3.598   2.120
 2854SOL     OW 8569   3.973   3.647   3.103
 2854SOL    HW1 8570   4.030   3.582   3.153
 2854SOL    HW2 8571   3.957   3.614   3.010
 2855SOL     OW 8572   4.106   2.562   2.342
 2855SOL    HW1 8573   4.151   2.472   2.339
 2855SOL    HW2 8574   4.012   2.551   2.375
 2856SOL     OW 8575   4.338   1.984   1.979
 2856SOL    HW1 8576   4.436   1.962   1.986
 2856SOL    HW2 8577   4.307   1.967   1.886
 2857SOL     OW 8578   4.527   3.264   2.786
 2857SOL    HW1 8579   4.617   3.278   2.744
 2857SOL    HW2 8580   4.456   3.266   2.715
 2858SOL     OW 8581   4.646   2.365   2.761
 2858SOL    HW1 8582   4.621   2.356   2.665
 2858SOL    HW2 8583   4.694   2.283   2.792
 2859SOL     OW 8584   4.263   1.926   2.374
 2859SOL    HW1 8585   4.182   1.927   2.432
 2859SOL    HW2 8586   4.266   2.009   2.319
 2860SOL     OW 8587   4.021   1.897   2.033
 2860SOL    HW1 8588   4.070   1.981   2.012
 2860SOL    HW2 8589   4.083   1.832   2.078
 2861SOL     OW 8590   4.183   3.014   2.603
 2861SOL    HW1 8591   4.112   2.987   2.668
 2861SOL    HW2 8592   4.157   2.986   2.510
 2862SOL     OW 8593   3.802   2.418   3.248
 2862SOL    HW1 8594   3.894   2.417   3.207
 2862SOL    HW2 8595   3.796   2.492   3.315
 2863SOL     OW 8596   4.285   2.084   3.009
 2863SOL    HW1 8597   4.323   2.000   3.046
 2863SOL    HW2 8598   4.197   2.103   3.053
 2864SOL     OW 8599   4.212   3.247   2.036
 2864SOL    HW1 8600   4.125   3.232   2.083
 2864SOL    HW2 8601   4.195   3.273   1.941
 2865SOL     OW 8602   4.251   2.118   2.190
 2865SOL    HW1 8603   4.278   2.059   2.115
 2865SOL    HW2 8604   4.251   2.213   2.159
 2866SOL     OW 8605   4.134   2.675   3.113
 2866SOL    HW1 8606   4.220   2.687   3.163
 2866SOL    HW2 8607   4.092   2.588   3.140
 2867SOL     OW 8608   3.788   3.426   3.193
 2867SOL    HW1 8609   3.742   3.508   3.159
 2867SOL    HW2 8610   3.886   3.445   3.202
 2868SOL     OW 8611   4.091   2.962   2.363
 2868SOL    HW1 8612   4.084   3.045   2.307
 2868SOL    HW2 8613   4.095   2.882   2.303
 2869SOL     OW 8614   4.290   2.399   2.727
 2869SOL    HW1 8615   4.302   2.465   2.653
 2869SOL    HW2 8616   4.336   2.433   2.810
 2870SOL     OW 8617   4.078   3.372   3.191
 2870SOL    HW1 8618   4.057   3.328   3.104
 2870SOL    HW2 8619   4.175   3.398   3.194
 2871SOL     OW 8620   4.126   2.613   3.460
 2871SOL    HW1 8621   4.194   2.668   3.413
 2871SOL    HW2 8622   4.166   2.525   3.487
 2872SOL     OW 8623   4.228   1.912   3.602
 2872SOL    HW1 8624   4.186   1.855   3.532
 2872SOL    HW2 8625   4.162   1.981   3.634
 2873SOL     OW 8626   4.297   2.732   2.891
 2873SOL    HW1 8627   4.341   2.821   2.882
 2873SOL    HW2 8628   4.234   2.732   2.968
 2874SOL     OW 8629   4.031   2.075   3.093
 2874SOL    HW1 8630   4.008   2.112   3.183
 2874SOL    HW2 8631   4.001   1.980   3.087
 2875SOL     OW 8632   3.761   3.172   3.144
 2875SOL    HW1 8633   3.814   3.123   3.212
 2875SOL    HW2 8634   3.783   3.270   3.149
 2876SOL     OW 8635   4.031   1.925   2.480
 2876SOL    HW1 8636   4.020   2.019   2.513
 2876SOL    HW2 8637   4.026   1.862   2.557
 2877SOL     OW 8638   4.074   2.760   3.666
 2877SOL    HW1 8639   4.150   2.804   3.714
 2877SOL    HW2 8640   4.109   2.713   3.584
 2878SOL     OW 8641   4.792   3.195   2.711
 2878SOL    HW1 8642   4.799   3.111   2.656
 2878SOL    HW2 8643   4.854   3.264   2.675
 2879SOL     OW 8644   4.043   2.672   2.811
 2879SOL    HW1 8645   4.136   2.708   2.816
 2879SOL    HW2 8646   4.037   2.587   2.863
 2880SOL     OW 8647   4.063   2.371   2.868
 2880SOL    HW1 8648   4.011   2.288   2.851
 2880SOL    HW2 8649   4.140   2.376   2.804
 2881SOL     OW 8650   3.732   3.188   2.062
 2881SOL    HW1 8651   3.639   3.209   2.031
 2881SOL    HW2 8652   3.742   3.089   2.075
 2882SOL     OW 8653   3.812   3.663   2.789
 2882SOL    HW1 8654   3.770   3.577   2.762
 2882SOL    HW2 8655   3.906   3.666   2.755
 2883SOL     OW 8656   4.228   3.430   2.772
 2883SOL    HW1 8657   4.294   3.504   2.781
 2883SOL    HW2 8658   4.272   3.351   2.730
 2884SOL     OW 8659   3.764   2.406   2.976
 2884SOL    HW1 8660   3.849   2.373   2.935
 2884SOL    HW2 8661   3.777   2.421   3.074
 2885SOL     OW 8662   3.913   2.382   3.584
 2885SOL    HW1 8663   3.972   2.342   3.514
 2885SOL    HW2 8664   3.855   2.453   3.543
 2886SOL     OW 8665   4.539   2.434   2.187
 2886SOL    HW1 8666   4.546   2.345   2.141
 2886SOL    HW2 8667   4.445   2.468   2.179
 2887SOL     OW 8668   3.976   3.426   3.606
 2887SOL    HW1 8669   3.946   3.483   3.682
 2887SOL    HW2 8670   3.969   3.329   3.632
 2888SOL     OW 8671   4.395   2.326   3.131
 2888SOL    HW1 8672   4.361   2.237   3.101
 2888SOL    HW2 8673   4.421   2.380   3.051
 2889SOL     OW 8674   4.197   2.362   2.053
 2889SOL    HW1 8675   4.258   2.442   2.057
 2889SOL    HW2 8676   4.102   2.393   2.060
 2890SOL     OW 8677   3.883   2.999   3.328
 2890SOL    HW1 8678   3.905   2.938   3.404
 2890SOL    HW2 8679   3.893   2.950   3.242
 2891SOL     OW 8680   3.807   3.120   2.884
 2891SOL    HW1 8681   3.802   3.119   2.984
 2891SOL    HW2 8682   3.724   3.079   2.846
 2892SOL     OW 8683   4.412   3.524   3.578
 2892SOL    HW1 8684   4.356   3.605   3.587
 2892SOL    HW2 8685   4.464   3.528   3.492
 2893SOL     OW 8686   3.854   3.656   3.713
 2893SOL    HW1 8687   3.813   3.582   3.766
 2893SOL    HW2 8688   3.918   3.707   3.771
 2894SOL     OW 8689   3.987   2.188   2.582
 2894SOL    HW1 8690   3.908   2.239   2.548
 2894SOL    HW2 8691   3.978   2.173   2.680
 2895SOL     OW 8692   4.096   3.150   3.352
 2895SOL    HW1 8693   4.083   3.243   3.318
 2895SOL    HW2 8694   4.012   3.098   3.339
 2896SOL     OW 8695   4.763   2.960   2.558
 2896SOL    HW1 8696   4.693   2.913   2.612
 2896SOL    HW2 8697   4.822   2.892   2.515
 2897SOL     OW 8698   4.314   3.349   2.353
 2897SOL    HW1 8699   4.356   3.291   2.283
 2897SOL    HW2 8700   4.270   3.428   2.309
 2898SOL     OW 8701   3.979   3.210   2.152
 2898SOL    HW1 8702   3.883   3.211   2.125
 2898SOL    HW2 8703   3.991   3.263   2.236
 2899SOL     OW 8704   3.829   2.875   3.588
 2899SOL    HW1 8705   3.752   2.842   3.642
 2899SOL    HW2 8706   3.914   2.845   3.630
 2900SOL     OW 8707   4.396   2.065   3.351
 2900SOL    HW1 8708   4.486   2.049   3.311
 2900SOL    HW2 8709   4.404   2.070   3.450
 2901SOL     OW 8710   3.799   2.207   1.895
 2901SOL    HW1 8711   3.707   2.179   1.866
 2901SOL    HW2 8712   3.830   2.284   1.839
 2902SOL     OW 8713   3.796   2.028   2.180
 2902SOL    HW1 8714   3.779   2.111   2.126
 2902SOL    HW2 8715   3.886   1.991   2.158
 2903SOL     OW 8716   4.337   2.704   3.293
 2903SOL    HW1 8717   4.393   2.785   3.276
 2903SOL    HW2 8718   4.396   2.624   3.296
 2904SOL     OW 8719   4.440   2.427   3.570
 2904SOL    HW1 8720   4.459   2.492   3.644
 2904SOL    HW2 8721   4.500   2.347   3.579
 2905SOL     OW 8722   4.114   3.603   3.422
 2905SOL    HW1 8723   4.023   3.644   3.420
 2905SOL    HW2 8724   4.107   3.509   3.454
 2906SOL     OW 8725   4.318   2.607   2.514
 2906SOL    HW1 8726   4.368   2.692   2.495
 2906SOL    HW2 8727   4.230   2.609   2.466
 2907SOL     OW 8728   3.945   3.176   3.706
 2907SOL    HW1 8729   3.880   3.103   3.685
 2907SOL    HW2 8730   3.949   3.190   3.804
 2908SOL     OW 8731   3.803   3.102   2.515
 2908SOL    HW1 8732   3.802   3.055   2.603
 2908SOL    HW2 8733   3.885   3.074   2.464
 2909SOL     OW 8734   4.396   3.253   3.486
 2909SOL    HW1 8735   4.318   3.203   3.524
 2909SOL    HW2 8736   4.393   3.348   3.517
 2910SOL     OW 8737   4.152   2.286   2.382
 2910SOL    HW1 8738   4.182   2.214   2.320
 2910SOL    HW2 8739   4.113   2.246   2.465
 2911SOL     OW 8740   4.041   2.409   3.142
 2911SOL    HW1 8741   4.079   2.350   3.214
 2911SOL    HW2 8742   4.081   2.383   3.054
 2912SOL     OW 8743   4.536   3.448   2.549
 2912SOL    HW1 8744   4.568   3.458   2.455
 2912SOL    HW2 8745   4.457   3.386   2.551
 2913SOL     OW 8746   4.342   3.429   3.146
 2913SOL    HW1 8747   4.337   3.511   3.203
 2913SOL    HW2 8748   4.431   3.426   3.101
 2914SOL     OW 8749   3.763   2.939   2.162
 2914SOL    HW1 8750   3.862   2.928   2.153
 2914SOL    HW2 8751   3.723   2.853   2.194
 2915SOL     OW 8752   3.954   2.490   3.837
 2915SOL    HW1 8753   3.861   2.488   3.874
 2915SOL    HW2 8754   3.955   2.451   3.745
 2916SOL     OW 8755   3.743   2.230   4.371
 2916SOL    HW1 8756   3.661   2.273   4.410
 2916SOL    HW2 8757   3.715   2.157   4.308
 2917SOL     OW 8758   4.409   2.874   4.389
 2917SOL    HW1 8759   4.478   2.858   4.459
 2917SOL    HW2 8760   4.336   2.931   4.427
 2918SOL     OW 8761   3.955   3.575   4.207
 2918SOL    HW1 8762   3.989   3.652   4.261
 2918SOL    HW2 8763   3.999   3.575   4.117
 2919SOL     OW 8764   3.954   3.296   4.262
 2919SOL    HW1 8765   3.928   3.392   4.262
 2919SOL    HW2 8766   3.883   3.242   4.307
 2920SOL     OW 8767   4.330   2.826   3.847
 2920SOL    HW1 8768   4.337   2.910   3.793
 2920SOL    HW2 8769   4.376   2.839   3.935
 2921SOL     OW 8770   3.846   2.505   4.287
 2921SOL    HW1 8771   3.801   2.417   4.304
 2921SOL    HW2 8772   3.845   2.559   4.371
 2922SOL     OW 8773   3.751   3.458   3.841
 2922SOL    HW1 8774   3.732   3.362   3.862
 2922SOL    HW2 8775   3.718   3.516   3.916
 2923SOL     OW 8776   4.337   3.227   4.450
 2923SOL    HW1 8777   4.288   3.140   4.459
 2923SOL    HW2 8778   4.314   3.270   4.363
 2924SOL     OW 8779   4.533   1.866   4.226
 2924SOL    HW1 8780   4.573   1.957   4.217
 2924SOL    HW2 8781   4.433   1.874   4.232
 2925SOL     OW 8782   4.322   2.591   3.994
 2925SOL    HW1 8783   4.346   2.660   3.926
 2925SOL    HW2 8784   4.244   2.624   4.048
 2926SOL     OW 8785   3.800   2.673   4.513
 2926SOL    HW1 8786   3.899   2.661   4.522
 2926SOL    HW2 8787   3.776   2.768   4.534
 2927SOL     OW 8788   4.075   3.663   4.577
 2927SOL    HW1 8789   4.125   3.577   4.583
 2927SOL    HW2 8790   4.140   3.740   4.574
 2928SOL     OW 8791   4.045   2.805   3.966
 2928SOL    HW1 8792   4.127   2.844   3.924
 2928SOL    HW2 8793   4.018   2.723   3.917
 2929SOL     OW 8794   4.188   3.605   4.047
 2929SOL    HW1 8795   4.221   3.644   4.133
 2929SOL    HW2 8796   4.264   3.598   3.982
 2930SOL     OW 8797   4.106   2.562   4.204
 2930SOL    HW1 8798   4.151   2.472   4.201
 2930SOL    HW2 8799   4.012   2.551   4.237
 2931SOL     OW 8800   4.338   1.984   3.841
 2931SOL    HW1 8801   4.436   1.962   3.848
 2931SOL    HW2 8802   4.307   1.967   3.748
 2932SOL     OW 8803   4.263   1.926   4.236
 2932SOL    HW1 8804   4.182   1.927   4.294
 2932SOL    HW2 8805   4.266   2.009   4.181
 2933SOL     OW 8806   4.021   1.897   3.895
 2933SOL    HW1 8807   4.070   1.981   3.874
 2933SOL    HW2 8808   4.083   1.832   3.940
 2934SOL     OW 8809   4.183   3.014   4.465
 2934SOL    HW1 8810   4.112   2.987   4.530
 2934SOL    HW2 8811   4.157   2.986   4.372
 2935SOL     OW 8812   4.212   3.247   3.898
 2935SOL    HW1 8813   4.125   3.232   3.945
 2935SOL    HW2 8814   4.195   3.273   3.803
 2936SOL     OW 8815   4.251   2.118   4.052
 2936SOL    HW1 8816   4.278   2.059   3.977
 2936SOL    HW2 8817   4.251   2.213   4.021
 2937SOL     OW 8818   4.091   2.962   4.225
 2937SOL    HW1 8819   4.084   3.045   4.169
 2937SOL    HW2 8820   4.095   2.882   4.165
 2938SOL     OW 8821   4.031   1.925   4.342
 2938SOL    HW1 8822   4.020   2.019   4.375
 2938SOL    HW2 8823   4.026   1.862   4.419
 2939SOL     OW 8824   4.792   3.195   4.573
 2939SOL    HW1 8825   4.799   3.111   4.518
 2939SOL    HW2 8826   4.854   3.264   4.537
 2940SOL     OW 8827   3.732   3.188   3.924
 2940SOL    HW1 8828   3.639   3.209   3.893
 2940SOL    HW2 8829   3.742   3.089   3.937
 2941SOL     OW 8830   3.764   2.406   4.838
 2941SOL    HW1 8831   3.849   2.373   4.797
 2941SOL    HW2 8832   3.777   2.421   4.936
 2942SOL     OW 8833   4.539   2.434   4.049
 2942SOL    HW1 8834   4.546   2.345   4.003
 2942SOL    HW2 8835   4.445   2.468   4.041
 2943SOL     OW 8836   4.197   2.362   3.915
 2943SOL    HW1 8837   4.258   2.442   3.919
 2943SOL    HW2 8838   4.102   2.393   3.922
 2944SOL     OW 8839   3.987   2.188   4.444
 2944SOL    HW1 8840   3.908   2.239   4.410
 2944SOL    HW2 8841   3.978   2.173   4.542
 2945SOL     OW 8842   4.763   2.960   4.420
 2945SOL    HW1 8843   4.693   2.913   4.474
 2945SOL    HW2 8844   4.822   2.892   4.377
 2946SOL     OW 8845   4.314   3.349   4.215
 2946SOL    HW1 8846   4.356   3.291   4.145
 2946SOL    HW2 8847   4.270   3.428   4.171
 2947SOL     OW 8848   3.979   3.210   4.014
 2947SOL    HW1 8849   3.883   3.211   3.987
 2947SOL    HW2 8850   3.991   3.263   4.098
 2948SOL     OW 8851   3.799   2.207   3.757
 2948SOL    HW1 8852   3.707   2.179   3.728
 2948SOL    HW2 8853   3.830   2.284   3.701
 2949SOL     OW 8854   3.796   2.028   4.042
 2949SOL    HW1 8855   3.779   2.111   3.988
 2949SOL    HW2 8856   3.886   1.991   4.020
 2950SOL     OW 8857   4.318   2.607   4.376
 2950SOL    HW1 8858   4.368   2.692   4.357
 2950SOL    HW2 8859   4.230   2.609   4.328
 2951SOL     OW 8860   4.385   3.652   4.677
 2951SOL    HW1 8861   4.339   3.740   4.664
 2951SOL    HW2 8862   4.484   3.664   4.670
 2952SOL     OW 8863   3.803   3.102   4.377
 2952SOL    HW1 8864   3.802   3.055   4.465
 2952SOL    HW2 8865   3.885   3.074   4.326
 2953SOL     OW 8866   4.152   2.286   4.244
 2953SOL    HW1 8867   4.182   2.214   4.182
 2953SOL    HW2 8868   4.113   2.246   4.327
 2954SOL     OW 8869   4.536   3.448   4.411
 2954SOL    HW1 8870   4.568   3.458   4.317
 2954SOL    HW2 8871   4.457   3.386   4.413
 2955SOL     OW 8872   3.763   2.939   4.024
 2955SOL    HW1 8873   3.862   2.928   4.015
 2955SOL    HW2 8874   3.723   2.853   4.056
 2956SOL     OW 8875   3.954   4.352   0.113
 2956SOL    HW1 8876   3.861   4.350   0.150
 2956SOL    HW2 8877   3.955   4.313   0.021
 2957SOL     OW 8878   3.949   3.999   0.996
 2957SOL    HW1 8879   3.984   3.982   1.088
 2957SOL    HW2 8880   3.861   3.954   0.984
 2958SOL     OW 8881   3.743   4.092   0.647
 2958SOL    HW1 8882   3.661   4.135   0.686
 2958SOL    HW2 8883   3.715   4.019   0.584
 2959SOL     OW 8884   4.574   4.522   1.823
 2959SOL    HW1 8885   4.570   4.598   1.888
 2959SOL    HW2 8886   4.596   4.558   1.732
 2960SOL     OW 8887   4.409   4.736   0.665
 2960SOL    HW1 8888   4.478   4.720   0.735
 2960SOL    HW2 8889   4.336   4.793   0.703
 2961SOL     OW 8890   4.162   4.116   1.499
 2961SOL    HW1 8891   4.244   4.060   1.508
 2961SOL    HW2 8892   4.081   4.058   1.503
 2962SOL     OW 8893   3.846   4.367   0.563
 2962SOL    HW1 8894   3.801   4.279   0.580
 2962SOL    HW2 8895   3.845   4.421   0.647
 2963SOL     OW 8896   3.837   4.461   1.597
 2963SOL    HW1 8897   3.925   4.448   1.642
 2963SOL    HW2 8898   3.824   4.558   1.575
 2964SOL     OW 8899   4.533   3.728   0.502
 2964SOL    HW1 8900   4.573   3.819   0.493
 2964SOL    HW2 8901   4.433   3.736   0.508
 2965SOL     OW 8902   4.041   3.975   1.801
 2965SOL    HW1 8903   4.112   4.046   1.807
 2965SOL    HW2 8904   3.953   4.014   1.829
 2966SOL     OW 8905   4.322   4.453   0.270
 2966SOL    HW1 8906   4.346   4.522   0.202
 2966SOL    HW2 8907   4.244   4.486   0.324
 2967SOL     OW 8908   4.274   3.920   0.885
 2967SOL    HW1 8909   4.269   3.915   0.985
 2967SOL    HW2 8910   4.276   4.016   0.856
 2968SOL     OW 8911   3.926   4.009   1.498
 2968SOL    HW1 8912   3.846   4.069   1.485
 2968SOL    HW2 8913   3.916   3.960   1.584
 2969SOL     OW 8914   4.106   4.424   0.480
 2969SOL    HW1 8915   4.151   4.334   0.477
 2969SOL    HW2 8916   4.012   4.413   0.513
 2970SOL     OW 8917   4.646   4.227   0.899
 2970SOL    HW1 8918   4.621   4.218   0.803
 2970SOL    HW2 8919   4.694   4.145   0.930
 2971SOL     OW 8920   4.263   3.788   0.512
 2971SOL    HW1 8921   4.182   3.789   0.570
 2971SOL    HW2 8922   4.266   3.871   0.457
 2972SOL     OW 8923   3.802   4.280   1.386
 2972SOL    HW1 8924   3.894   4.279   1.345
 2972SOL    HW2 8925   3.796   4.354   1.453
 2973SOL     OW 8926   4.285   3.946   1.147
 2973SOL    HW1 8927   4.323   3.862   1.184
 2973SOL    HW2 8928   4.197   3.965   1.191
 2974SOL     OW 8929   4.251   3.980   0.328
 2974SOL    HW1 8930   4.278   3.921   0.253
 2974SOL    HW2 8931   4.251   4.075   0.297
 2975SOL     OW 8932   4.134   4.537   1.251
 2975SOL    HW1 8933   4.220   4.549   1.301
 2975SOL    HW2 8934   4.092   4.450   1.278
 2976SOL     OW 8935   4.290   4.261   0.865
 2976SOL    HW1 8936   4.302   4.327   0.791
 2976SOL    HW2 8937   4.336   4.295   0.948
 2977SOL     OW 8938   4.228   3.774   1.740
 2977SOL    HW1 8939   4.186   3.717   1.670
 2977SOL    HW2 8940   4.162   3.843   1.772
 2978SOL     OW 8941   4.031   3.937   1.231
 2978SOL    HW1 8942   4.008   3.974   1.321
 2978SOL    HW2 8943   4.001   3.842   1.225
 2979SOL     OW 8944   4.031   3.787   0.618
 2979SOL    HW1 8945   4.020   3.881   0.651
 2979SOL    HW2 8946   4.026   3.724   0.695
 2980SOL     OW 8947   4.043   4.534   0.949
 2980SOL    HW1 8948   4.136   4.570   0.954
 2980SOL    HW2 8949   4.037   4.449   1.001
 2981SOL     OW 8950   4.063   4.233   1.006
 2981SOL    HW1 8951   4.011   4.150   0.989
 2981SOL    HW2 8952   4.140   4.238   0.942
 2982SOL     OW 8953   4.726   4.520   1.238
 2982SOL    HW1 8954   4.767   4.488   1.324
 2982SOL    HW2 8955   4.630   4.493   1.235
 2983SOL     OW 8956   3.764   4.268   1.114
 2983SOL    HW1 8957   3.849   4.235   1.073
 2983SOL    HW2 8958   3.777   4.283   1.212
 2984SOL     OW 8959   3.913   4.244   1.722
 2984SOL    HW1 8960   3.972   4.204   1.652
 2984SOL    HW2 8961   3.855   4.315   1.681
 2985SOL     OW 8962   4.395   4.188   1.269
 2985SOL    HW1 8963   4.361   4.099   1.239
 2985SOL    HW2 8964   4.421   4.242   1.189
 2986SOL     OW 8965   4.197   4.224   0.191
 2986SOL    HW1 8966   4.258   4.304   0.195
 2986SOL    HW2 8967   4.102   4.255   0.198
 2987SOL     OW 8968   3.987   4.050   0.720
 2987SOL    HW1 8969   3.908   4.101   0.686
 2987SOL    HW2 8970   3.978   4.035   0.818
 2988SOL     OW 8971   4.396   3.927   1.489
 2988SOL    HW1 8972   4.486   3.911   1.449
 2988SOL    HW2 8973   4.404   3.932   1.588
 2989SOL     OW 8974   3.799   4.069   0.033
 2989SOL    HW1 8975   3.707   4.041   0.004
 2989SOL    HW2 8976   3.830   4.146  -0.023
 2990SOL     OW 8977   3.796   3.890   0.318
 2990SOL    HW1 8978   3.779   3.973   0.264
 2990SOL    HW2 8979   3.886   3.853   0.296
 2991SOL     OW 8980   4.440   4.289   1.708
 2991SOL    HW1 8981   4.459   4.354   1.782
 2991SOL    HW2 8982   4.500   4.209   1.717
 2992SOL     OW 8983   4.318   4.469   0.652
 2992SOL    HW1 8984   4.368   4.554   0.633
 2992SOL    HW2 8985   4.230   4.471   0.604
 2993SOL     OW 8986   4.152   4.148   0.520
 2993SOL    HW1 8987   4.182   4.076   0.458
 2993SOL    HW2 8988   4.113   4.108   0.603
 2994SOL     OW 8989   4.041   4.271   1.280
 2994SOL    HW1 8990   4.079   4.212   1.352
 2994SOL    HW2 8991   4.081   4.245   1.192
 2995SOL     OW 8992   3.954   4.352   1.975
 2995SOL    HW1 8993   3.861   4.350   2.012
 2995SOL    HW2 8994   3.955   4.313   1.883
 2996SOL     OW 8995   3.949   3.999   2.858
 2996SOL    HW1 8996   3.984   3.982   2.950
 2996SOL    HW2 8997   3.861   3.954   2.846
 2997SOL     OW 8998   3.743   4.092   2.509
 2997SOL    HW1 8999   3.661   4.135   2.548
 2997SOL    HW2 9000   3.715   4.019   2.446
 2998SOL     OW 9001   4.574   4.522   3.685
 2998SOL    HW1 9002   4.570   4.598   3.750
 2998SOL    HW2 9003   4.596   4.558   3.594
 2999SOL     OW 9004   4.409   4.736   2.527
 2999SOL    HW1 9005   4.478   4.720   2.597
 2999SOL    HW2 9006   4.336   4.793   2.565
 3000SOL     OW 9007   4.162   4.116   3.361
 3000SOL    HW1 9008   4.244   4.060   3.370
 3000SOL    HW2 9009   4.081   4.058   3.365
 3001SOL     OW 9010   3.846   4.367   2.425
 3001SOL    HW1 9011   3.801   4.279   2.442
 3001SOL    HW2 9012   3.845   4.421   2.509
 3002SOL     OW 9013   3.837   4.461   3.459
 3002SOL    HW1 9014   3.925   4.448   3.504
 3002SOL    HW2 9015   3.824   4.558   3.437
 3003SOL     OW 9016   4.533   3.728   2.364
 3003SOL    HW1 9017   4.573   3.819   2.355
 3003SOL    HW2 9018   4.433   3.736   2.370
 3004SOL     OW 9019   4.041   3.975   3.663
 3004SOL    HW1 9020   4.112   4.046   3.669
 3004SOL    HW2 9021   3.953   4.014   3.691
 3005SOL     OW 9022   4.322   4.453   2.132
 3005SOL    HW1 9023   4.346   4.522   2.064
 3005SOL    HW2 9024   4.244   4.486   2.186
 3006SOL     OW 9025   4.274   3.920   2.747
 3006SOL    HW1 9026   4.269   3.915   2.847
 3006SOL    HW2 9027   4.276   4.016   2.718
 3007SOL     OW 9028   3.926   4.009   3.360
 3007SOL    HW1 9029   3.846   4.069   3.347
 3007SOL    HW2 9030   3.916   3.960   3.446
 3008SOL     OW 9031   4.106   4.424   2.342
 3008SOL    HW1 9032   4.151   4.334   2.339
 3008SOL    HW2 9033   4.012   4.413   2.375
 3009SOL     OW 9034   4.338   3.846   1.979
 3009SOL    HW1 9035   4.436   3.824   1.986
 3009SOL    HW2 9036   4.307   3.829   1.886
 3010SOL     OW 9037   4.646   4.227   2.761
 3010SOL    HW1 9038   4.621   4.218   2.665
 3010SOL    HW2 9039   4.694   4.145   2.792
 3011SOL     OW 9040   4.263   3.788   2.374
 3011SOL    HW1 9041   4.182   3.789   2.432
 3011SOL    HW2 9042   4.266   3.871   2.319
 3012SOL     OW 9043   4.021   3.759   2.033
 3012SOL    HW1 9044   4.070   3.843   2.012
 3012SOL    HW2 9045   4.083   3.694   2.078
 3013SOL     OW 9046   3.802   4.280   3.248
 3013SOL    HW1 9047   3.894   4.279   3.207
 3013SOL    HW2 9048   3.796   4.354   3.315
 3014SOL     OW 9049   4.285   3.946   3.009
 3014SOL    HW1 9050   4.323   3.862   3.046
 3014SOL    HW2 9051   4.197   3.965   3.053
 3015SOL     OW 9052   4.251   3.980   2.190
 3015SOL    HW1 9053   4.278   3.921   2.115
 3015SOL    HW2 9054   4.251   4.075   2.159
 3016SOL     OW 9055   4.134   4.537   3.113
 3016SOL    HW1 9056   4.220   4.549   3.163
 3016SOL    HW2 9057   4.092   4.450   3.140
 3017SOL     OW 9058   4.290   4.261   2.727
 3017SOL    HW1 9059   4.302   4.327   2.653
 3017SOL    HW2 9060   4.336   4.295   2.810
 3018SOL     OW 9061   4.228   3.774   3.602
 3018SOL    HW1 9062   4.186   3.717   3.532
 3018SOL    HW2 9063   4.162   3.843   3.634
 3019SOL     OW 9064   4.031   3.937   3.093
 3019SOL    HW1 9065   4.008   3.974   3.183
 3019SOL    HW2 9066   4.001   3.842   3.087
 3020SOL     OW 9067   4.031   3.787   2.480
 3020SOL    HW1 9068   4.020   3.881   2.513
 3020SOL    HW2 9069   4.026   3.724   2.557
 3021SOL     OW 9070   4.043   4.534   2.811
 3021SOL    HW1 9071   4.136   4.570   2.816
 3021SOL    HW2 9072   4.037   4.449   2.863
 3022SOL     OW 9073   4.063   4.233   2.868
 3022SOL    HW1 9074   4.011   4.150   2.851
 3022SOL    HW2 9075   4.140   4.238   2.804
 3023SOL     OW 9076   4.726   4.520   3.100
 3023SOL    HW1 9077   4.767   4.488   3.186
 3023SOL    HW2 9078   4.630   4.493   3.097
 3024SOL     OW 9079   3.764   4.268   2.976
 3024SOL    HW1 9080   3.849   4.235   2.935
 3024SOL    HW2 9081   3.777   4.283   3.074
 3025SOL     OW 9082   3.913   4.244   3.584
 3025SOL    HW1 9083   3.972   4.204   3.514
 3025SOL    HW2 9084   3.855   4.315   3.543
 3026SOL     OW 9085   4.539   4.296   2.187
 3026SOL    HW1 9086   4.546   4.207   2.141
 3026SOL    HW2 9087   4.445   4.330   2.179
 3027SOL     OW 9088   4.395   4.188   3.131
 3027SOL    HW1 9089   4.361   4.099   3.101
 3027SOL    HW2 9090   4.421   4.242   3.051
 3028SOL     OW 9091   4.197   4.224   2.053
 3028SOL    HW1 9092   4.258   4.304   2.057
 3028SOL    HW2 9093   4.102   4.255   2.060
 3029SOL     OW 9094   3.987   4.050   2.582
 3029SOL    HW1 9095   3.908   4.101   2.548
 3029SOL    HW2 9096   3.978   4.035   2.680
 3030SOL     OW 9097   4.396   3.927   3.351
 3030SOL    HW1 9098   4.486   3.911   3.311
 3030SOL    HW2 9099   4.404   3.932   3.450
 3031SOL     OW 9100   3.799   4.069   1.895
 3031SOL    HW1 9101   3.707   4.041   1.866
 3031SOL    HW2 9102   3.830   4.146   1.839
 3032SOL     OW 9103   3.796   3.890   2.180
 3032SOL    HW1 9104   3.779   3.973   2.126
 3032SOL    HW2 9105   3.886   3.853   2.158
 3033SOL     OW 9106   4.440   4.289   3.570
 3033SOL    HW1 9107   4.459   4.354   3.644
 3033SOL    HW2 9108   4.500   4.209   3.579
 3034SOL     OW 9109   4.318   4.469   2.514
 3034SOL    HW1 9110   4.368   4.554   2.495
 3034SOL    HW2 9111   4.230   4.471   2.466
 3035SOL     OW 9112   4.152   4.148   2.382
 3035SOL    HW1 9113   4.182   4.076   2.320
 3035SOL    HW2 9114   4.113   4.108   2.465
 3036SOL     OW 9115   4.041   4.271   3.142
 3036SOL    HW1 9116   4.079   4.212   3.214
 3036SOL    HW2 9117   4.081   4.245   3.054
 3037SOL     OW 9118   3.954   4.352   3.837
 3037SOL    HW1 9119   3.861   4.350   3.874
 3037SOL    HW2 9120   3.955   4.313   3.745
 3038SOL     OW 9121   3.743   4.092   4.371
 3038SOL    HW1 9122   3.661   4.135   4.410
 3038SOL    HW2 9123   3.715   4.019   4.308
 3039SOL     OW 9124   4.409   4.736   4.389
 3039SOL    HW1 9125   4.478   4.720   4.459
 3039SOL    HW2 9126   4.336   4.793   4.427
 3040SOL     OW 9127   3.846   4.367   4.287
 3040SOL    HW1 9128   3.801   4.279   4.304
 3040SOL    HW2 9129   3.845   4.421   4.371
 3041SOL     OW 9130   4.533   3.728   4.226
 3041SOL    HW1 9131   4.573   3.819   4.217
 3041SOL    HW2 9132   4.433   3.736   4.232
 3042SOL     OW 9133   4.322   4.453   3.994
 3042SOL    HW1 9134   4.346   4.522   3.926
 3042SOL    HW2 9135   4.244   4.486   4.048
 3043SOL     OW 9136   4.106   4.424   4.204
 3043SOL    HW1 9137   4.151   4.334   4.201
 3043SOL    HW2 9138   4.012   4.413   4.237
 3044SOL     OW 9139   4.338   3.846   3.841
 3044SOL    HW1 9140   4.436   3.824   3.848
 3044SOL    HW2 9141   4.307   3.829   3.748
 3045SOL     OW 9142   4.263   3.788   4.236
 3045SOL    HW1 9143   4.182   3.789   4.294
 3045SOL    HW2 9144   4.266   3.871   4.181
 3046SOL     OW 9145   4.021   3.759   3.895
 3046SOL    HW1 9146   4.070   3.843   3.874
 3046SOL    HW2 9147   4.083   3.694   3.940
 3047SOL     OW 9148   4.251   3.980   4.052
 3047SOL    HW1 9149   4.278   3.921   3.977
 3047SOL    HW2 9150   4.251   4.075   4.021
 3048SOL     OW 9151   4.031   3.787   4.342
 3048SOL    HW1 9152   4.020   3.881   4.375
 3048SOL    HW2 9153   4.026   3.724   4.419
 3049SOL     OW 9154   3.764   4.268   4.838
 3049SOL    HW1 9155   3.849   4.235   4.797
 3049SOL    HW2 9156   3.777   4.283   4.936
 3050SOL     OW 9157   4.539   4.296   4.049
 3050SOL    HW1 9158   4.546   4.207   4.003
 3050SOL    HW2 9159   4.445   4.330   4.041
 3051SOL     OW 9160   4.197   4.224   3.915
 3051SOL    HW1 9161   4.258   4.304   3.919
 3051SOL    HW2 9162   4.102   4.255   3.922
 3052SOL     OW 9163   3.987   4.050   4.444
 3052SOL    HW1 9164   3.908   4.101   4.410
 3052SOL    HW2 9165   3.978   4.035   4.542
 3053SOL     OW 9166   3.799   4.069   3.757
 3053SOL    HW1 9167   3.707   4.041   3.728
 3053SOL    HW2 9168   3.830   4.146   3.701
 3054SOL     OW 9169   3.796   3.890   4.042
 3054SOL    HW1 9170   3.779   3.973   3.988
 3054SOL    HW2 9171   3.886   3.853   4.020
 3055SOL     OW 9172   4.318   4.469   4.376
 3055SOL    HW1 9173   4.368   4.554   4.357
 3055SOL    HW2 9174   4.230   4.471   4.328
 3056SOL     OW 9175   4.152   4.148   4.244
 3056SOL    HW1 9176   4.182   4.076   4.182
 3056SOL    HW2 9177   4.113   4.108   4.327
   4.53782   4.53782   4.53782
