mobley_1963873_GMX.gro created by acpype (v: 2023.10.27) on Wed May 20 23:59:28 2026
 2412
    1MOL     C1    1   2.294   2.340   2.272
    1MOL     C2    2   2.181   2.430   2.229
    1MOL     C3    3   2.349   2.100   2.307
    1MOL     N1    4   2.258   2.207   2.272
    1MOL     O1    5   2.405   2.385   2.302
    1MOL     H1    6   2.205   2.534   2.254
    1MOL     H2    7   2.167   2.421   2.121
    1MOL     H3    8   2.089   2.402   2.280
    1MOL     H4    9   2.348   2.088   2.416
    1MOL     H5   10   2.450   2.127   2.274
    1MOL     H6   11   2.317   2.008   2.259
    1MOL     H7   12   2.163   2.182   2.246
   14SOL     OW   13   1.460   1.505   1.339
   14SOL    HW1   14   1.484   1.599   1.365
   14SOL    HW2   15   1.444   1.451   1.421
   18SOL     OW   16   1.127   1.341   1.690
   18SOL    HW1   17   1.174   1.341   1.778
   18SOL    HW2   18   1.079   1.254   1.679
   31SOL     OW   19   1.293   1.228   1.423
   31SOL    HW1   20   1.330   1.155   1.365
   31SOL    HW2   21   1.345   1.233   1.508
   35SOL     OW   22   1.187   1.792   1.616
   35SOL    HW1   23   1.211   1.852   1.540
   35SOL    HW2   24   1.194   1.697   1.586
   37SOL     OW   25   1.466   1.417   0.953
   37SOL    HW1   26   1.407   1.423   1.033
   37SOL    HW2   27   1.451   1.329   0.907
   56SOL     OW   28   1.227   1.550   1.506
   56SOL    HW1   29   1.233   1.473   1.570
   56SOL    HW2   30   1.175   1.524   1.426
   95SOL     OW   31   1.754   1.223   1.588
   95SOL    HW1   32   1.845   1.184   1.575
   95SOL    HW2   33   1.762   1.319   1.612
   96SOL     OW   34   1.064   1.347   1.340
   96SOL    HW1   35   0.984   1.324   1.395
   96SOL    HW2   36   1.147   1.321   1.389
   97SOL     OW   37   1.592   1.629   1.625
   97SOL    HW1   38   1.619   1.663   1.535
   97SOL    HW2   39   1.671   1.591   1.671
   99SOL     OW   40   1.638   1.099   1.079
   99SOL    HW1   41   1.643   1.180   1.138
   99SOL    HW2   42   1.552   1.101   1.028
  109SOL     OW   43   1.272   1.445   1.142
  109SOL    HW1   44   1.319   1.458   1.229
  109SOL    HW2   45   1.206   1.371   1.151
  113SOL     OW   46   1.587   0.779   1.670
  113SOL    HW1   47   1.495   0.817   1.665
  113SOL    HW2   48   1.647   0.826   1.605
  122SOL     OW   49   1.728   0.935   1.854
  122SOL    HW1   50   1.682   0.928   1.765
  122SOL    HW2   51   1.666   0.979   1.920
  126SOL     OW   52   0.980   1.573   1.700
  126SOL    HW1   53   0.960   1.617   1.612
  126SOL    HW2   54   1.019   1.482   1.684
  127SOL     OW   55   1.859   1.518   1.605
  127SOL    HW1   56   1.873   1.545   1.510
  127SOL    HW2   57   1.942   1.540   1.658
  142SOL     OW   58   1.369   0.950   1.660
  142SOL    HW1   59   1.408   1.039   1.680
  142SOL    HW2   60   1.379   0.930   1.563
  147SOL     OW   61   0.930   1.678   1.465
  147SOL    HW1   62   0.906   1.660   1.370
  147SOL    HW2   63   0.960   1.772   1.475
  152SOL     OW   64   1.759   1.747   1.154
  152SOL    HW1   65   1.820   1.777   1.081
  152SOL    HW2   66   1.721   1.658   1.132
  153SOL     OW   67   1.252   1.731   1.128
  153SOL    HW1   68   1.336   1.736   1.074
  153SOL    HW2   69   1.229   1.635   1.146
  155SOL     OW   70   0.688   1.662   1.716
  155SOL    HW1   71   0.632   1.743   1.725
  155SOL    HW2   72   0.740   1.666   1.630
  163SOL     OW   73   1.650   1.720   1.394
  163SOL    HW1   74   1.703   1.730   1.310
  163SOL    HW2   75   1.623   1.810   1.428
  171SOL     OW   76   1.614   1.292   1.289
  171SOL    HW1   77   1.674   1.295   1.369
  171SOL    HW2   78   1.539   1.356   1.302
  184SOL     OW   79   1.493   1.767   0.959
  184SOL    HW1   80   1.526   1.831   0.890
  184SOL    HW2   81   1.559   1.761   1.034
  186SOL     OW   82   1.450   1.220   1.633
  186SOL    HW1   83   1.441   1.210   1.732
  186SOL    HW2   84   1.546   1.213   1.607
  192SOL     OW   85   1.730   0.934   1.517
  192SOL    HW1   86   1.768   1.025   1.532
  192SOL    HW2   87   1.722   0.917   1.418
  197SOL     OW   88   1.861   1.569   0.851
  197SOL    HW1   89   1.790   1.557   0.781
  197SOL    HW2   90   1.862   1.490   0.911
  203SOL     OW   91   1.705   1.487   1.104
  203SOL    HW1   92   1.612   1.462   1.077
  203SOL    HW2   93   1.731   1.437   1.186
  219SOL     OW   94   1.555   1.511   2.565
  219SOL    HW1   95   1.498   1.495   2.646
  219SOL    HW2   96   1.496   1.521   2.485
  221SOL     OW   97   1.755   0.607   2.093
  221SOL    HW1   98   1.743   0.594   1.994
  221SOL    HW2   99   1.725   0.526   2.142
  227SOL     OW  100   1.460   1.505   3.201
  227SOL    HW1  101   1.484   1.599   3.227
  227SOL    HW2  102   1.444   1.451   3.283
  238SOL     OW  103   1.842   1.767   2.221
  238SOL    HW1  104   1.896   1.738   2.301
  238SOL    HW2  105   1.872   1.857   2.192
  240SOL     OW  106   1.689   0.922   2.474
  240SOL    HW1  107   1.784   0.893   2.482
  240SOL    HW2  108   1.681   0.987   2.399
  241SOL     OW  109   1.641   1.108   2.294
  241SOL    HW1  110   1.727   1.110   2.242
  241SOL    HW2  111   1.655   1.155   2.382
  244SOL     OW  112   1.293   1.228   3.285
  244SOL    HW1  113   1.330   1.155   3.227
  244SOL    HW2  114   1.345   1.233   3.370
  247SOL     OW  115   1.525   0.999   2.052
  247SOL    HW1  116   1.462   0.923   2.065
  247SOL    HW2  117   1.573   1.017   2.138
  248SOL     OW  118   1.187   1.792   3.478
  248SOL    HW1  119   1.211   1.852   3.402
  248SOL    HW2  120   1.194   1.697   3.448
  250SOL     OW  121   1.466   1.417   2.815
  250SOL    HW1  122   1.407   1.423   2.895
  250SOL    HW2  123   1.451   1.329   2.769
  251SOL     OW  124   1.667   1.714   2.434
  251SOL    HW1  125   1.626   1.691   2.346
  251SOL    HW2  126   1.649   1.640   2.499
  254SOL     OW  127   1.576   1.662   2.169
  254SOL    HW1  128   1.665   1.708   2.172
  254SOL    HW2  129   1.555   1.638   2.074
  264SOL     OW  130   1.362   1.144   2.407
  264SOL    HW1  131   1.445   1.115   2.359
  264SOL    HW2  132   1.313   1.211   2.351
  266SOL     OW  133   1.008   1.456   2.339
  266SOL    HW1  134   0.962   1.528   2.287
  266SOL    HW2  135   1.004   1.476   2.437
  268SOL     OW  136   1.795   1.066   2.735
  268SOL    HW1  137   1.733   1.051   2.659
  268SOL    HW2  138   1.743   1.077   2.820
  269SOL     OW  139   1.227   1.550   3.368
  269SOL    HW1  140   1.233   1.473   3.432
  269SOL    HW2  141   1.175   1.524   3.288
  271SOL     OW  142   1.458   0.735   2.590
  271SOL    HW1  143   1.453   0.670   2.665
  271SOL    HW2  144   1.538   0.794   2.603
  273SOL     OW  145   1.111   1.776   2.099
  273SOL    HW1  146   1.051   1.714   2.149
  273SOL    HW2  147   1.142   1.732   2.014
  275SOL     OW  148   1.632   1.377   1.943
  275SOL    HW1  149   1.600   1.471   1.933
  275SOL    HW2  150   1.556   1.314   1.931
  279SOL     OW  151   0.940   1.698   2.766
  279SOL    HW1  152   1.020   1.641   2.787
  279SOL    HW2  153   0.891   1.658   2.689
  284SOL     OW  154   0.888   1.514   3.057
  284SOL    HW1  155   0.865   1.489   2.963
  284SOL    HW2  156   0.949   1.445   3.096
  286SOL     OW  157   0.803   1.402   2.786
  286SOL    HW1  158   0.893   1.416   2.744
  286SOL    HW2  159   0.732   1.404   2.715
  289SOL     OW  160   1.434   1.188   1.903
  289SOL    HW1  161   1.466   1.112   1.960
  289SOL    HW2  162   1.342   1.215   1.933
  293SOL     OW  163   1.227   1.570   2.655
  293SOL    HW1  164   1.248   1.644   2.590
  293SOL    HW2  165   1.295   1.570   2.728
  295SOL     OW  166   1.271   1.797   2.453
  295SOL    HW1  167   1.315   1.861   2.389
  295SOL    HW2  168   1.221   1.849   2.523
  301SOL     OW  169   1.429   1.173   2.729
  301SOL    HW1  170   1.374   1.089   2.722
  301SOL    HW2  171   1.455   1.202   2.637
  303SOL     OW  172   1.857   0.833   2.239
  303SOL    HW1  173   1.899   0.769   2.303
  303SOL    HW2  174   1.819   0.782   2.161
  305SOL     OW  175   1.664   1.280   2.519
  305SOL    HW1  176   1.763   1.288   2.533
  305SOL    HW2  177   1.619   1.364   2.550
  308SOL     OW  178   1.754   1.223   3.450
  308SOL    HW1  179   1.845   1.184   3.437
  308SOL    HW2  180   1.762   1.319   3.474
  309SOL     OW  181   1.064   1.347   3.202
  309SOL    HW1  182   0.984   1.324   3.257
  309SOL    HW2  183   1.147   1.321   3.251
  310SOL     OW  184   1.592   1.629   3.487
  310SOL    HW1  185   1.619   1.663   3.397
  310SOL    HW2  186   1.671   1.591   3.533
  311SOL     OW  187   1.111   1.195   2.962
  311SOL    HW1  188   1.071   1.239   3.043
  311SOL    HW2  189   1.070   1.232   2.879
  312SOL     OW  190   1.638   1.099   2.941
  312SOL    HW1  191   1.643   1.180   3.000
  312SOL    HW2  192   1.552   1.101   2.890
  321SOL     OW  193   1.252   1.348   2.250
  321SOL    HW1  194   1.302   1.425   2.290
  321SOL    HW2  195   1.157   1.350   2.282
  322SOL     OW  196   1.272   1.445   3.004
  322SOL    HW1  197   1.319   1.458   3.091
  322SOL    HW2  198   1.206   1.371   3.013
  323SOL     OW  199   1.582   0.639   2.334
  323SOL    HW1  200   1.551   0.700   2.407
  323SOL    HW2  201   1.632   0.691   2.265
  330SOL     OW  202   1.360   0.862   2.907
  330SOL    HW1  203   1.285   0.862   2.841
  330SOL    HW2  204   1.397   0.770   2.916
  340SOL     OW  205   1.859   1.518   3.467
  340SOL    HW1  206   1.873   1.545   3.372
  340SOL    HW2  207   1.942   1.540   3.520
  343SOL     OW  208   1.303   0.838   1.904
  343SOL    HW1  209   1.337   0.745   1.919
  343SOL    HW2  210   1.321   0.865   1.809
  344SOL     OW  211   1.068   1.333   2.711
  344SOL    HW1  212   1.075   1.249   2.656
  344SOL    HW2  213   1.130   1.402   2.675
  363SOL     OW  214   1.347   1.059   3.096
  363SOL    HW1  215   1.371   0.996   3.022
  363SOL    HW2  216   1.257   1.099   3.078
  364SOL     OW  217   1.302   0.855   2.171
  364SOL    HW1  218   1.216   0.824   2.213
  364SOL    HW2  219   1.298   0.841   2.072
  365SOL     OW  220   1.759   1.747   3.016
  365SOL    HW1  221   1.820   1.777   2.943
  365SOL    HW2  222   1.721   1.658   2.994
  366SOL     OW  223   1.252   1.731   2.990
  366SOL    HW1  224   1.336   1.736   2.936
  366SOL    HW2  225   1.229   1.635   3.008
  370SOL     OW  226   1.388   1.573   2.339
  370SOL    HW1  227   1.455   1.585   2.265
  370SOL    HW2  228   1.348   1.662   2.362
  372SOL     OW  229   1.280   0.927   2.534
  372SOL    HW1  230   1.340   0.846   2.536
  372SOL    HW2  231   1.320   0.996   2.474
  374SOL     OW  232   0.672   1.616   2.016
  374SOL    HW1  233   0.681   1.626   1.917
  374SOL    HW2  234   0.632   1.527   2.037
  375SOL     OW  235   1.650   1.720   3.256
  375SOL    HW1  236   1.703   1.730   3.172
  375SOL    HW2  237   1.623   1.810   3.290
  378SOL     OW  238   1.194   1.612   1.893
  378SOL    HW1  239   1.200   1.519   1.930
  378SOL    HW2  240   1.135   1.612   1.813
  381SOL     OW  241   1.504   1.607   1.906
  381SOL    HW1  242   1.412   1.644   1.913
  381SOL    HW2  243   1.542   1.627   1.816
  383SOL     OW  244   1.614   1.292   3.151
  383SOL    HW1  245   1.674   1.295   3.231
  383SOL    HW2  246   1.539   1.356   3.164
  384SOL     OW  247   1.039   1.098   2.558
  384SOL    HW1  248   0.969   1.051   2.612
  384SOL    HW2  249   1.098   1.030   2.515
  394SOL     OW  250   1.183   1.335   1.981
  394SOL    HW1  251   1.084   1.324   1.983
  394SOL    HW2  252   1.217   1.350   2.074
  396SOL     OW  253   1.493   1.767   2.821
  396SOL    HW1  254   1.526   1.831   2.752
  396SOL    HW2  255   1.559   1.761   2.896
  400SOL     OW  256   1.674   0.883   3.116
  400SOL    HW1  257   1.647   0.794   3.079
  400SOL    HW2  258   1.675   0.951   3.043
  405SOL     OW  259   0.859   1.374   1.878
  405SOL    HW1  260   0.813   1.389   1.966
  405SOL    HW2  261   0.903   1.459   1.848
  406SOL     OW  262   0.661   1.790   2.815
  406SOL    HW1  263   0.615   1.878   2.802
  406SOL    HW2  264   0.760   1.802   2.808
  408SOL     OW  265   1.083   0.984   1.949
  408SOL    HW1  266   1.060   1.037   1.867
  408SOL    HW2  267   1.164   0.928   1.930
  409SOL     OW  268   1.861   1.569   2.713
  409SOL    HW1  269   1.790   1.557   2.643
  409SOL    HW2  270   1.862   1.490   2.773
  415SOL     OW  271   1.705   1.487   2.966
  415SOL    HW1  272   1.612   1.462   2.939
  415SOL    HW2  273   1.731   1.437   3.048
  417SOL     OW  274   0.812   1.586   2.549
  417SOL    HW1  275   0.844   1.596   2.455
  417SOL    HW2  276   0.733   1.524   2.551
  420SOL     OW  277   0.770   1.330   2.163
  420SOL    HW1  278   0.724   1.243   2.180
  420SOL    HW2  279   0.861   1.327   2.204
  426SOL     OW  280   0.875   1.646   2.199
  426SOL    HW1  281   0.798   1.611   2.145
  426SOL    HW2  282   0.843   1.717   2.261
  524SOL     OW  283   0.850   2.660   1.823
  524SOL    HW1  284   0.846   2.736   1.888
  524SOL    HW2  285   0.872   2.696   1.732
  528SOL     OW  286   1.460   3.367   1.339
  528SOL    HW1  287   1.484   3.461   1.365
  528SOL    HW2  288   1.444   3.313   1.421
  530SOL     OW  289   1.603   2.309   0.737
  530SOL    HW1  290   1.529   2.355   0.687
  530SOL    HW2  291   1.654   2.377   0.790
  532SOL     OW  292   1.127   3.203   1.690
  532SOL    HW1  293   1.174   3.203   1.778
  532SOL    HW2  294   1.079   3.116   1.679
  537SOL     OW  295   1.594   1.976   1.480
  537SOL    HW1  296   1.576   2.043   1.408
  537SOL    HW2  297   1.591   2.022   1.569
  545SOL     OW  298   1.293   3.090   1.423
  545SOL    HW1  299   1.330   3.017   1.365
  545SOL    HW2  300   1.345   3.095   1.508
  554SOL     OW  301   1.281   2.207   0.944
  554SOL    HW1  302   1.195   2.157   0.931
  554SOL    HW2  303   1.343   2.153   1.000
  556SOL     OW  304   0.807   2.467   1.465
  556SOL    HW1  305   0.760   2.464   1.554
  556SOL    HW2  306   0.756   2.412   1.399
  557SOL     OW  307   1.394   2.331   1.674
  557SOL    HW1  308   1.374   2.374   1.762
  557SOL    HW2  309   1.472   2.269   1.683
  558SOL     OW  310   0.973   2.752   1.572
  558SOL    HW1  311   1.019   2.668   1.543
  558SOL    HW2  312   0.917   2.786   1.497
  559SOL     OW  313   0.991   2.272   1.242
  559SOL    HW1  314   0.914   2.306   1.296
  559SOL    HW2  315   0.957   2.221   1.163
  564SOL     OW  316   1.719   2.447   1.831
  564SOL    HW1  317   1.693   2.536   1.795
  564SOL    HW2  318   1.717   2.379   1.758
  569SOL     OW  319   1.795   2.928   0.873
  569SOL    HW1  320   1.733   2.913   0.797
  569SOL    HW2  321   1.743   2.939   0.958
  570SOL     OW  322   1.227   3.412   1.506
  570SOL    HW1  323   1.233   3.335   1.570
  570SOL    HW2  324   1.175   3.386   1.426
  572SOL     OW  325   1.458   2.597   0.728
  572SOL    HW1  326   1.453   2.532   0.803
  572SOL    HW2  327   1.538   2.656   0.741
  582SOL     OW  328   1.547   2.084   1.729
  582SOL    HW1  329   1.542   2.121   1.821
  582SOL    HW2  330   1.475   2.015   1.717
  583SOL     OW  331   0.781   2.126   1.749
  583SOL    HW1  332   0.848   2.065   1.792
  583SOL    HW2  333   0.708   2.145   1.814
  585SOL     OW  334   1.351   2.452   1.433
  585SOL    HW1  335   1.379   2.409   1.518
  585SOL    HW2  336   1.376   2.548   1.434
  591SOL     OW  337   1.076   2.545   1.464
  591SOL    HW1  338   0.996   2.484   1.467
  591SOL    HW2  339   1.157   2.492   1.440
  601SOL     OW  340   1.466   2.452   0.992
  601SOL    HW1  341   1.436   2.357   0.999
  601SOL    HW2  342   1.539   2.468   1.058
  607SOL     OW  343   1.754   3.085   1.588
  607SOL    HW1  344   1.845   3.046   1.575
  607SOL    HW2  345   1.762   3.181   1.612
  608SOL     OW  346   1.064   3.209   1.340
  608SOL    HW1  347   0.984   3.186   1.395
  608SOL    HW2  348   1.147   3.183   1.389
  609SOL     OW  349   1.592   3.491   1.625
  609SOL    HW1  350   1.619   3.525   1.535
  609SOL    HW2  351   1.671   3.453   1.671
  611SOL     OW  352   1.638   2.961   1.079
  611SOL    HW1  353   1.643   3.042   1.138
  611SOL    HW2  354   1.552   2.963   1.028
  612SOL     OW  355   0.915   1.951   1.402
  612SOL    HW1  356   0.940   1.931   1.307
  612SOL    HW2  357   0.987   2.007   1.444
  613SOL     OW  358   0.980   2.978   1.719
  613SOL    HW1  359   0.881   2.984   1.729
  613SOL    HW2  360   1.003   2.898   1.663
  616SOL     OW  361   1.274   2.248   1.262
  616SOL    HW1  362   1.295   2.322   1.326
  616SOL    HW2  363   1.185   2.265   1.219
  625SOL     OW  364   1.587   2.641   1.670
  625SOL    HW1  365   1.495   2.679   1.665
  625SOL    HW2  366   1.647   2.688   1.605
  626SOL     OW  367   1.013   1.967   1.770
  626SOL    HW1  368   1.019   2.052   1.718
  626SOL    HW2  369   1.045   1.891   1.713
  629SOL     OW  370   1.360   2.724   1.045
  629SOL    HW1  371   1.285   2.724   0.979
  629SOL    HW2  372   1.397   2.632   1.054
  634SOL     OW  373   1.728   2.797   1.854
  634SOL    HW1  374   1.682   2.790   1.765
  634SOL    HW2  375   1.666   2.841   1.920
  639SOL     OW  376   1.859   3.380   1.605
  639SOL    HW1  377   1.873   3.407   1.510
  639SOL    HW2  378   1.942   3.402   1.658
  646SOL     OW  379   1.138   2.242   1.678
  646SOL    HW1  380   1.093   2.305   1.742
  646SOL    HW2  381   1.231   2.273   1.661
  647SOL     OW  382   1.160   2.069   1.477
  647SOL    HW1  383   1.160   2.133   1.554
  647SOL    HW2  384   1.188   2.117   1.394
  651SOL     OW  385   1.002   2.658   1.238
  651SOL    HW1  386   1.043   2.626   1.324
  651SOL    HW2  387   0.906   2.631   1.235
  654SOL     OW  388   1.369   2.812   1.660
  654SOL    HW1  389   1.408   2.901   1.680
  654SOL    HW2  390   1.379   2.792   1.563
  656SOL     OW  391   1.657   2.466   1.206
  656SOL    HW1  392   1.619   2.397   1.268
  656SOL    HW2  393   1.739   2.430   1.162
  662SOL     OW  394   1.347   2.921   1.234
  662SOL    HW1  395   1.371   2.858   1.160
  662SOL    HW2  396   1.257   2.961   1.216
  675SOL     OW  397   1.650   3.582   1.394
  675SOL    HW1  398   1.703   3.592   1.310
  675SOL    HW2  399   1.623   3.672   1.428
  676SOL     OW  400   1.841   2.037   0.963
  676SOL    HW1  401   1.880   1.952   0.927
  676SOL    HW2  402   1.743   2.039   0.944
  683SOL     OW  403   1.614   3.154   1.289
  683SOL    HW1  404   1.674   3.157   1.369
  683SOL    HW2  405   1.539   3.218   1.302
  687SOL     OW  406   1.709   2.247   1.381
  687SOL    HW1  407   1.782   2.316   1.385
  687SOL    HW2  408   1.737   2.172   1.322
  690SOL     OW  409   0.672   2.065   1.489
  690SOL    HW1  410   0.762   2.049   1.449
  690SOL    HW2  411   0.680   2.070   1.588
  692SOL     OW  412   1.440   2.718   1.398
  692SOL    HW1  413   1.383   2.770   1.335
  692SOL    HW2  414   1.536   2.730   1.374
  697SOL     OW  415   0.716   2.427   1.708
  697SOL    HW1  416   0.735   2.492   1.782
  697SOL    HW2  417   0.776   2.347   1.717
  698SOL     OW  418   1.450   3.082   1.633
  698SOL    HW1  419   1.441   3.072   1.732
  698SOL    HW2  420   1.546   3.075   1.607
  700SOL     OW  421   1.674   2.745   1.254
  700SOL    HW1  422   1.647   2.656   1.217
  700SOL    HW2  423   1.675   2.813   1.181
  703SOL     OW  424   1.777   2.204   1.642
  703SOL    HW1  425   1.760   2.235   1.548
  703SOL    HW2  426   1.693   2.167   1.680
  704SOL     OW  427   1.730   2.796   1.517
  704SOL    HW1  428   1.768   2.887   1.532
  704SOL    HW2  429   1.722   2.779   1.418
  713SOL     OW  430   1.824   2.054   1.227
  713SOL    HW1  431   1.820   1.964   1.271
  713SOL    HW2  432   1.827   2.043   1.128
  715SOL     OW  433   1.705   3.349   1.104
  715SOL    HW1  434   1.612   3.324   1.077
  715SOL    HW2  435   1.731   3.299   1.186
  718SOL     OW  436   1.424   2.076   1.112
  718SOL    HW1  437   1.476   2.011   1.167
  718SOL    HW2  438   1.375   2.139   1.173
  719SOL     OW  439   1.001   1.896   1.154
  719SOL    HW1  440   0.938   1.824   1.123
  719SOL    HW2  441   1.094   1.860   1.154
  724SOL     OW  442   1.593   2.083   0.882
  724SOL    HW1  443   1.509   2.082   0.936
  724SOL    HW2  444   1.595   2.166   0.826
  731SOL     OW  445   1.555   3.373   2.565
  731SOL    HW1  446   1.498   3.357   2.646
  731SOL    HW2  447   1.496   3.383   2.485
  732SOL     OW  448   1.135   2.565   2.579
  732SOL    HW1  449   1.192   2.643   2.554
  732SOL    HW2  450   1.075   2.591   2.655
  733SOL     OW  451   1.755   2.469   2.093
  733SOL    HW1  452   1.743   2.456   1.994
  733SOL    HW2  453   1.725   2.388   2.142
  734SOL     OW  454   0.768   3.006   2.885
  734SOL    HW1  455   0.690   3.023   2.945
  734SOL    HW2  456   0.802   3.093   2.849
  736SOL     OW  457   0.685   2.874   2.527
  736SOL    HW1  458   0.754   2.858   2.597
  736SOL    HW2  459   0.612   2.931   2.565
  739SOL     OW  460   1.460   3.367   3.201
  739SOL    HW1  461   1.484   3.461   3.227
  739SOL    HW2  462   1.444   3.313   3.283
  741SOL     OW  463   1.603   2.309   2.599
  741SOL    HW1  464   1.529   2.355   2.549
  741SOL    HW2  465   1.654   2.377   2.652
  747SOL     OW  466   0.606   2.826   1.985
  747SOL    HW1  467   0.613   2.910   1.931
  747SOL    HW2  468   0.652   2.839   2.073
  748SOL     OW  469   1.594   1.976   3.342
  748SOL    HW1  470   1.576   2.043   3.270
  748SOL    HW2  471   1.591   2.022   3.431
  750SOL     OW  472   1.842   3.629   2.221
  750SOL    HW1  473   1.896   3.600   2.301
  750SOL    HW2  474   1.872   3.719   2.192
  752SOL     OW  475   1.689   2.784   2.474
  752SOL    HW1  476   1.784   2.755   2.482
  752SOL    HW2  477   1.681   2.849   2.399
  753SOL     OW  478   1.641   2.970   2.294
  753SOL    HW1  479   1.727   2.972   2.242
  753SOL    HW2  480   1.655   3.017   2.382
  756SOL     OW  481   1.293   3.090   3.285
  756SOL    HW1  482   1.330   3.017   3.227
  756SOL    HW2  483   1.345   3.095   3.370
  757SOL     OW  484   0.809   1.866   2.364
  757SOL    HW1  485   0.849   1.957   2.355
  757SOL    HW2  486   0.709   1.874   2.370
  759SOL     OW  487   1.525   2.861   2.052
  759SOL    HW1  488   1.462   2.785   2.065
  759SOL    HW2  489   1.573   2.879   2.138
  762SOL     OW  490   1.466   3.279   2.815
  762SOL    HW1  491   1.407   3.285   2.895
  762SOL    HW2  492   1.451   3.191   2.769
  763SOL     OW  493   1.667   3.576   2.434
  763SOL    HW1  494   1.626   3.553   2.346
  763SOL    HW2  495   1.649   3.502   2.499
  764SOL     OW  496   0.598   2.591   2.132
  764SOL    HW1  497   0.622   2.660   2.064
  764SOL    HW2  498   0.520   2.624   2.186
  765SOL     OW  499   1.281   2.207   2.806
  765SOL    HW1  500   1.195   2.157   2.793
  765SOL    HW2  501   1.343   2.153   2.862
  766SOL     OW  502   1.576   3.524   2.169
  766SOL    HW1  503   1.665   3.570   2.172
  766SOL    HW2  504   1.555   3.500   2.074
  768SOL     OW  505   1.394   2.331   3.536
  768SOL    HW1  506   1.374   2.374   3.624
  768SOL    HW2  507   1.472   2.269   3.545
  770SOL     OW  508   0.991   2.272   3.104
  770SOL    HW1  509   0.914   2.306   3.158
  770SOL    HW2  510   0.957   2.221   3.025
  771SOL     OW  511   1.041   2.563   2.291
  771SOL    HW1  512   1.067   2.559   2.387
  771SOL    HW2  513   0.956   2.512   2.277
  774SOL     OW  514   0.865   2.210   2.057
  774SOL    HW1  515   0.924   2.273   2.008
  774SOL    HW2  516   0.884   2.116   2.028
  775SOL     OW  517   1.719   2.447   3.693
  775SOL    HW1  518   1.693   2.536   3.657
  775SOL    HW2  519   1.717   2.379   3.620
  776SOL     OW  520   1.362   3.006   2.407
  776SOL    HW1  521   1.445   2.977   2.359
  776SOL    HW2  522   1.313   3.073   2.351
  777SOL     OW  523   0.550   2.058   2.747
  777SOL    HW1  524   0.545   2.053   2.847
  777SOL    HW2  525   0.552   2.154   2.718
  778SOL     OW  526   1.008   3.318   2.339
  778SOL    HW1  527   0.962   3.390   2.287
  778SOL    HW2  528   1.004   3.338   2.437
  780SOL     OW  529   1.795   2.928   2.735
  780SOL    HW1  530   1.733   2.913   2.659
  780SOL    HW2  531   1.743   2.939   2.820
  783SOL     OW  532   1.458   2.597   2.590
  783SOL    HW1  533   1.453   2.532   2.665
  783SOL    HW2  534   1.538   2.656   2.603
  787SOL     OW  535   1.632   3.239   1.943
  787SOL    HW1  536   1.600   3.333   1.933
  787SOL    HW2  537   1.556   3.176   1.931
  789SOL     OW  538   1.400   1.969   2.288
  789SOL    HW1  539   1.376   1.932   2.198
  789SOL    HW2  540   1.499   1.985   2.292
  793SOL     OW  541   1.547   2.084   3.591
  793SOL    HW1  542   1.542   2.121   3.683
  793SOL    HW2  543   1.475   2.015   3.579
  794SOL     OW  544   0.614   1.984   1.979
  794SOL    HW1  545   0.712   1.962   1.986
  794SOL    HW2  546   0.583   1.967   1.886
  797SOL     OW  547   1.351   2.452   3.295
  797SOL    HW1  548   1.379   2.409   3.380
  797SOL    HW2  549   1.376   2.548   3.296
  799SOL     OW  550   0.922   2.365   2.761
  799SOL    HW1  551   0.897   2.356   2.665
  799SOL    HW2  552   0.970   2.283   2.792
  800SOL     OW  553   0.539   1.926   2.374
  800SOL    HW1  554   0.458   1.927   2.432
  800SOL    HW2  555   0.542   2.009   2.319
  801SOL     OW  556   1.434   3.050   1.903
  801SOL    HW1  557   1.466   2.974   1.960
  801SOL    HW2  558   1.342   3.077   1.933
  803SOL     OW  559   0.935   2.098   2.342
  803SOL    HW1  560   0.887   2.139   2.264
  803SOL    HW2  561   1.034   2.096   2.323
  804SOL     OW  562   1.076   2.545   3.326
  804SOL    HW1  563   0.996   2.484   3.329
  804SOL    HW2  564   1.157   2.492   3.302
  805SOL     OW  565   1.227   3.432   2.655
  805SOL    HW1  566   1.248   3.506   2.590
  805SOL    HW2  567   1.295   3.432   2.728
  807SOL     OW  568   1.271   3.659   2.453
  807SOL    HW1  569   1.315   3.723   2.389
  807SOL    HW2  570   1.221   3.711   2.523
  808SOL     OW  571   1.032   2.411   1.878
  808SOL    HW1  572   0.991   2.493   1.839
  808SOL    HW2  573   1.096   2.437   1.951
  811SOL     OW  574   0.866   2.316   2.504
  811SOL    HW1  575   0.834   2.388   2.442
  811SOL    HW2  576   0.890   2.235   2.451
  812SOL     OW  577   1.017   1.901   2.615
  812SOL    HW1  578   0.945   1.906   2.546
  812SOL    HW2  579   0.993   1.832   2.684
  813SOL     OW  580   1.429   3.035   2.729
  813SOL    HW1  581   1.374   2.951   2.722
  813SOL    HW2  582   1.455   3.064   2.637
  814SOL     OW  583   1.466   2.452   2.854
  814SOL    HW1  584   1.436   2.357   2.861
  814SOL    HW2  585   1.539   2.468   2.920
  815SOL     OW  586   1.857   2.695   2.239
  815SOL    HW1  587   1.899   2.631   2.303
  815SOL    HW2  588   1.819   2.644   2.161
  817SOL     OW  589   1.664   3.142   2.519
  817SOL    HW1  590   1.763   3.150   2.533
  817SOL    HW2  591   1.619   3.226   2.550
  818SOL     OW  592   1.390   2.437   1.940
  818SOL    HW1  593   1.336   2.416   2.021
  818SOL    HW2  594   1.481   2.396   1.949
  819SOL     OW  595   0.527   2.118   2.190
  819SOL    HW1  596   0.554   2.059   2.115
  819SOL    HW2  597   0.527   2.213   2.159
  820SOL     OW  598   1.754   3.085   3.450
  820SOL    HW1  599   1.845   3.046   3.437
  820SOL    HW2  600   1.762   3.181   3.474
  821SOL     OW  601   1.064   3.209   3.202
  821SOL    HW1  602   0.984   3.186   3.257
  821SOL    HW2  603   1.147   3.183   3.251
  823SOL     OW  604   1.111   3.057   2.962
  823SOL    HW1  605   1.071   3.101   3.043
  823SOL    HW2  606   1.070   3.094   2.879
  824SOL     OW  607   1.638   2.961   2.941
  824SOL    HW1  608   1.643   3.042   3.000
  824SOL    HW2  609   1.552   2.963   2.890
  825SOL     OW  610   0.915   1.951   3.264
  825SOL    HW1  611   0.940   1.931   3.169
  825SOL    HW2  612   0.987   2.007   3.306
  827SOL     OW  613   0.705   2.912   2.230
  827SOL    HW1  614   0.691   2.919   2.329
  827SOL    HW2  615   0.789   2.861   2.212
  829SOL     OW  616   1.274   2.248   3.124
  829SOL    HW1  617   1.295   2.322   3.188
  829SOL    HW2  618   1.185   2.265   3.081
  832SOL     OW  619   0.566   2.399   2.727
  832SOL    HW1  620   0.578   2.465   2.653
  832SOL    HW2  621   0.612   2.433   2.810
  833SOL     OW  622   1.252   3.210   2.250
  833SOL    HW1  623   1.302   3.287   2.290
  833SOL    HW2  624   1.157   3.212   2.282
  834SOL     OW  625   1.272   3.307   3.004
  834SOL    HW1  626   1.319   3.320   3.091
  834SOL    HW2  627   1.206   3.233   3.013
  835SOL     OW  628   1.582   2.501   2.334
  835SOL    HW1  629   1.551   2.562   2.407
  835SOL    HW2  630   1.632   2.553   2.265
  838SOL     OW  631   1.587   2.641   3.532
  838SOL    HW1  632   1.495   2.679   3.527
  838SOL    HW2  633   1.647   2.688   3.467
  842SOL     OW  634   1.360   2.724   2.907
  842SOL    HW1  635   1.285   2.724   2.841
  842SOL    HW2  636   1.397   2.632   2.916
  843SOL     OW  637   1.209   2.387   2.137
  843SOL    HW1  638   1.222   2.303   2.191
  843SOL    HW2  639   1.180   2.461   2.197
  846SOL     OW  640   0.732   2.496   2.926
  846SOL    HW1  641   0.791   2.470   2.850
  846SOL    HW2  642   0.704   2.592   2.915
  847SOL     OW  643   1.728   2.797   3.716
  847SOL    HW1  644   1.682   2.790   3.627
  847SOL    HW2  645   1.666   2.841   3.782
  849SOL     OW  646   1.622   2.229   2.236
  849SOL    HW1  647   1.624   2.153   2.300
  849SOL    HW2  648   1.574   2.306   2.276
  850SOL     OW  649   1.023   2.628   2.828
  850SOL    HW1  650   1.038   2.649   2.924
  850SOL    HW2  651   0.993   2.533   2.819
  852SOL     OW  652   1.859   3.380   3.467
  852SOL    HW1  653   1.873   3.407   3.372
  852SOL    HW2  654   1.942   3.402   3.520
  854SOL     OW  655   1.540   2.136   1.987
  854SOL    HW1  656   1.479   2.061   2.010
  854SOL    HW2  657   1.562   2.188   2.070
  855SOL     OW  658   1.303   2.700   1.904
  855SOL    HW1  659   1.337   2.607   1.919
  855SOL    HW2  660   1.321   2.727   1.809
  856SOL     OW  661   1.068   3.195   2.711
  856SOL    HW1  662   1.075   3.111   2.656
  856SOL    HW2  663   1.130   3.264   2.675
  859SOL     OW  664   1.138   2.242   3.540
  859SOL    HW1  665   1.093   2.305   3.604
  859SOL    HW2  666   1.231   2.273   3.523
  860SOL     OW  667   1.160   2.069   3.339
  860SOL    HW1  668   1.160   2.133   3.416
  860SOL    HW2  669   1.188   2.117   3.256
  864SOL     OW  670   1.002   2.658   3.100
  864SOL    HW1  671   1.043   2.626   3.186
  864SOL    HW2  672   0.906   2.631   3.097
  867SOL     OW  673   1.369   2.812   3.522
  867SOL    HW1  674   1.408   2.901   3.542
  867SOL    HW2  675   1.379   2.792   3.425
  868SOL     OW  676   0.815   2.434   2.187
  868SOL    HW1  677   0.822   2.345   2.141
  868SOL    HW2  678   0.721   2.468   2.179
  869SOL     OW  679   1.657   2.466   3.068
  869SOL    HW1  680   1.619   2.397   3.130
  869SOL    HW2  681   1.739   2.430   3.024
  875SOL     OW  682   1.347   2.921   3.096
  875SOL    HW1  683   1.371   2.858   3.022
  875SOL    HW2  684   1.257   2.961   3.078
  876SOL     OW  685   1.302   2.717   2.171
  876SOL    HW1  686   1.216   2.686   2.213
  876SOL    HW2  687   1.298   2.703   2.072
  877SOL     OW  688   1.759   3.609   3.016
  877SOL    HW1  689   1.820   3.639   2.943
  877SOL    HW2  690   1.721   3.520   2.994
  881SOL     OW  691   1.726   1.997   2.385
  881SOL    HW1  692   1.799   1.980   2.318
  881SOL    HW2  693   1.695   1.910   2.423
  882SOL     OW  694   1.388   3.435   2.339
  882SOL    HW1  695   1.455   3.447   2.265
  882SOL    HW2  696   1.348   3.524   2.362
  884SOL     OW  697   1.280   2.789   2.534
  884SOL    HW1  698   1.340   2.708   2.536
  884SOL    HW2  699   1.320   2.858   2.474
  887SOL     OW  700   1.650   3.582   3.256
  887SOL    HW1  701   1.703   3.592   3.172
  887SOL    HW2  702   1.623   3.672   3.290
  888SOL     OW  703   1.841   2.037   2.825
  888SOL    HW1  704   1.880   1.952   2.789
  888SOL    HW2  705   1.743   2.039   2.806
  890SOL     OW  706   1.194   3.474   1.893
  890SOL    HW1  707   1.200   3.381   1.930
  890SOL    HW2  708   1.135   3.474   1.813
  892SOL     OW  709   0.916   2.772   2.153
  892SOL    HW1  710   0.979   2.810   2.085
  892SOL    HW2  711   0.956   2.689   2.192
  893SOL     OW  712   1.504   3.469   1.906
  893SOL    HW1  713   1.412   3.506   1.913
  893SOL    HW2  714   1.542   3.489   1.816
  895SOL     OW  715   1.614   3.154   3.151
  895SOL    HW1  716   1.674   3.157   3.231
  895SOL    HW2  717   1.539   3.218   3.164
  896SOL     OW  718   1.039   2.960   2.558
  896SOL    HW1  719   0.969   2.913   2.612
  896SOL    HW2  720   1.098   2.892   2.515
  897SOL     OW  721   1.014   2.098   2.833
  897SOL    HW1  722   1.006   2.062   2.740
  897SOL    HW2  723   1.012   2.022   2.898
  899SOL     OW  724   1.709   2.247   3.243
  899SOL    HW1  725   1.782   2.316   3.247
  899SOL    HW2  726   1.737   2.172   3.184
  904SOL     OW  727   1.440   2.718   3.260
  904SOL    HW1  728   1.383   2.770   3.197
  904SOL    HW2  729   1.536   2.730   3.236
  906SOL     OW  730   1.183   3.197   1.981
  906SOL    HW1  731   1.084   3.186   1.983
  906SOL    HW2  732   1.217   3.212   2.074
  908SOL     OW  733   1.493   3.629   2.821
  908SOL    HW1  734   1.526   3.693   2.752
  908SOL    HW2  735   1.559   3.623   2.896
  910SOL     OW  736   1.450   3.082   3.495
  910SOL    HW1  737   1.441   3.072   3.594
  910SOL    HW2  738   1.546   3.075   3.469
  912SOL     OW  739   1.674   2.745   3.116
  912SOL    HW1  740   1.647   2.656   3.079
  912SOL    HW2  741   1.675   2.813   3.043
  913SOL     OW  742   1.225   2.187   2.311
  913SOL    HW1  743   1.290   2.113   2.300
  913SOL    HW2  744   1.245   2.237   2.395
  914SOL     OW  745   0.594   2.607   2.514
  914SOL    HW1  746   0.644   2.692   2.495
  914SOL    HW2  747   0.506   2.609   2.466
  915SOL     OW  748   1.777   2.204   3.504
  915SOL    HW1  749   1.760   2.235   3.410
  915SOL    HW2  750   1.693   2.167   3.542
  916SOL     OW  751   1.730   2.796   3.379
  916SOL    HW1  752   1.768   2.887   3.394
  916SOL    HW2  753   1.722   2.779   3.280
  917SOL     OW  754   0.859   3.236   1.878
  917SOL    HW1  755   0.813   3.251   1.966
  917SOL    HW2  756   0.903   3.321   1.848
  919SOL     OW  757   0.859   2.818   2.723
  919SOL    HW1  758   0.913   2.749   2.771
  919SOL    HW2  759   0.827   2.887   2.789
  920SOL     OW  760   1.083   2.846   1.949
  920SOL    HW1  761   1.060   2.899   1.867
  920SOL    HW2  762   1.164   2.790   1.930
  921SOL     OW  763   1.861   3.431   2.713
  921SOL    HW1  764   1.790   3.419   2.643
  921SOL    HW2  765   1.862   3.352   2.773
  925SOL     OW  766   1.824   2.054   3.089
  925SOL    HW1  767   1.820   1.964   3.133
  925SOL    HW2  768   1.827   2.043   2.990
  927SOL     OW  769   1.705   3.349   2.966
  927SOL    HW1  770   1.612   3.324   2.939
  927SOL    HW2  771   1.731   3.299   3.048
  930SOL     OW  772   1.424   2.076   2.974
  930SOL    HW1  773   1.476   2.011   3.029
  930SOL    HW2  774   1.375   2.139   3.035
  931SOL     OW  775   1.001   1.896   3.016
  931SOL    HW1  776   0.938   1.824   2.985
  931SOL    HW2  777   1.094   1.860   3.016
  932SOL     OW  778   0.770   3.192   2.163
  932SOL    HW1  779   0.724   3.105   2.180
  932SOL    HW2  780   0.861   3.189   2.204
  934SOL     OW  781   1.352   1.914   2.030
  934SOL    HW1  782   1.387   1.873   1.946
  934SOL    HW2  783   1.262   1.876   2.050
  935SOL     OW  784   1.300   2.315   2.553
  935SOL    HW1  785   1.241   2.395   2.557
  935SOL    HW2  786   1.315   2.280   2.646
  936SOL     OW  787   1.593   2.083   2.744
  936SOL    HW1  788   1.509   2.082   2.798
  936SOL    HW2  789   1.595   2.166   2.688
  941SOL     OW  790   1.755   2.469   3.955
  941SOL    HW1  791   1.743   2.456   3.856
  941SOL    HW2  792   1.725   2.388   4.004
  985SOL     OW  793   1.390   2.437   3.802
  985SOL    HW1  794   1.336   2.416   3.883
  985SOL    HW2  795   1.481   2.396   3.811
  994SOL     OW  796   1.540   2.136   3.849
  994SOL    HW1  797   1.479   2.061   3.872
  994SOL    HW2  798   1.562   2.188   3.932
 1147SOL     OW  799   1.400   3.831   2.288
 1147SOL    HW1  800   1.376   3.794   2.198
 1147SOL    HW2  801   1.499   3.847   2.292
 1193SOL     OW  802   1.726   3.859   2.385
 1193SOL    HW1  803   1.799   3.842   2.318
 1193SOL    HW2  804   1.695   3.772   2.423
 1195SOL     OW  805   1.841   3.899   2.825
 1195SOL    HW1  806   1.880   3.814   2.789
 1195SOL    HW2  807   1.743   3.901   2.806
 1215SOL     OW  808   1.352   3.776   2.030
 1215SOL    HW1  809   1.387   3.735   1.946
 1215SOL    HW2  810   1.262   3.738   2.050
 1265SOL     OW  811   2.431   1.275   1.165
 1265SOL    HW1  812   2.338   1.268   1.128
 1265SOL    HW2  813   2.442   1.364   1.209
 1269SOL     OW  814   2.630   1.144   1.023
 1269SOL    HW1  815   2.552   1.161   1.083
 1269SOL    HW2  816   2.664   1.231   0.987
 1270SOL     OW  817   2.712   0.798   1.823
 1270SOL    HW1  818   2.708   0.874   1.888
 1270SOL    HW2  819   2.734   0.834   1.732
 1272SOL     OW  820   2.548   1.161   1.803
 1272SOL    HW1  821   2.608   1.240   1.817
 1272SOL    HW2  822   2.462   1.192   1.762
 1273SOL     OW  823   2.197   1.435   1.061
 1273SOL    HW1  824   2.119   1.404   1.008
 1273SOL    HW2  825   2.255   1.493   1.004
 1274SOL     OW  826   3.322   1.505   1.339
 1274SOL    HW1  827   3.346   1.599   1.365
 1274SOL    HW2  828   3.306   1.451   1.421
 1278SOL     OW  829   2.989   1.341   1.690
 1278SOL    HW1  830   3.036   1.341   1.778
 1278SOL    HW2  831   2.941   1.254   1.679
 1281SOL     OW  832   2.482   1.786   1.439
 1281SOL    HW1  833   2.390   1.769   1.474
 1281SOL    HW2  834   2.510   1.878   1.465
 1289SOL     OW  835   1.975   0.737   1.597
 1289SOL    HW1  836   2.063   0.724   1.642
 1289SOL    HW2  837   1.962   0.834   1.575
 1291SOL     OW  838   3.155   1.228   1.423
 1291SOL    HW1  839   3.192   1.155   1.365
 1291SOL    HW2  840   3.207   1.233   1.508
 1293SOL     OW  841   2.059   0.976   1.264
 1293SOL    HW1  842   2.148   0.931   1.250
 1293SOL    HW2  843   1.986   0.911   1.245
 1295SOL     OW  844   3.049   1.792   1.616
 1295SOL    HW1  845   3.073   1.852   1.540
 1295SOL    HW2  846   3.056   1.697   1.586
 1304SOL     OW  847   2.835   0.890   1.572
 1304SOL    HW1  848   2.881   0.806   1.543
 1304SOL    HW2  849   2.779   0.924   1.497
 1308SOL     OW  850   1.992   1.821   1.571
 1308SOL    HW1  851   1.982   1.806   1.670
 1308SOL    HW2  852   1.906   1.857   1.535
 1314SOL     OW  853   2.213   1.801   0.853
 1314SOL    HW1  854   2.263   1.715   0.859
 1314SOL    HW2  855   2.278   1.878   0.850
 1316SOL     OW  856   3.089   1.550   1.506
 1316SOL    HW1  857   3.095   1.473   1.570
 1316SOL    HW2  858   3.037   1.524   1.426
 1319SOL     OW  859   2.323   1.266   1.727
 1319SOL    HW1  860   2.273   1.267   1.641
 1319SOL    HW2  861   2.260   1.248   1.803
 1325SOL     OW  862   2.111   1.785   1.241
 1325SOL    HW1  863   2.168   1.720   1.291
 1325SOL    HW2  864   2.095   1.752   1.148
 1326SOL     OW  865   2.802   1.698   0.904
 1326SOL    HW1  866   2.882   1.641   0.925
 1326SOL    HW2  867   2.753   1.658   0.827
 1331SOL     OW  868   2.750   1.514   1.195
 1331SOL    HW1  869   2.727   1.489   1.101
 1331SOL    HW2  870   2.811   1.445   1.234
 1333SOL     OW  871   2.665   1.402   0.924
 1333SOL    HW1  872   2.755   1.416   0.882
 1333SOL    HW2  873   2.594   1.404   0.853
 1356SOL     OW  874   2.926   1.347   1.340
 1356SOL    HW1  875   2.846   1.324   1.395
 1356SOL    HW2  876   3.009   1.321   1.389
 1357SOL     OW  877   3.454   1.629   1.625
 1357SOL    HW1  878   3.481   1.663   1.535
 1357SOL    HW2  879   3.533   1.591   1.671
 1358SOL     OW  880   2.973   1.195   1.100
 1358SOL    HW1  881   2.933   1.239   1.181
 1358SOL    HW2  882   2.932   1.232   1.017
 1361SOL     OW  883   2.842   1.116   1.719
 1361SOL    HW1  884   2.743   1.122   1.729
 1361SOL    HW2  885   2.865   1.036   1.663
 1363SOL     OW  886   2.272   0.813   1.251
 1363SOL    HW1  887   2.358   0.825   1.301
 1363SOL    HW2  888   2.230   0.726   1.278
 1365SOL     OW  889   1.926   1.564   1.331
 1365SOL    HW1  890   1.880   1.646   1.297
 1365SOL    HW2  891   2.024   1.583   1.340
 1369SOL     OW  892   3.134   1.445   1.142
 1369SOL    HW1  893   3.181   1.458   1.229
 1369SOL    HW2  894   3.068   1.371   1.151
 1371SOL     OW  895   2.216   1.510   1.329
 1371SOL    HW1  896   2.195   1.466   1.242
 1371SOL    HW2  897   2.313   1.536   1.332
 1372SOL     OW  898   2.264   0.751   1.598
 1372SOL    HW1  899   2.332   0.806   1.551
 1372SOL    HW2  900   2.304   0.663   1.625
 1380SOL     OW  901   1.899   1.310   1.282
 1380SOL    HW1  902   1.952   1.261   1.350
 1380SOL    HW2  903   1.921   1.408   1.287
 1386SOL     OW  904   2.842   1.573   1.700
 1386SOL    HW1  905   2.822   1.617   1.612
 1386SOL    HW2  906   2.881   1.482   1.684
 1387SOL     OW  907   3.721   1.518   1.605
 1387SOL    HW1  908   3.735   1.545   1.510
 1387SOL    HW2  909   3.804   1.540   1.658
 1388SOL     OW  910   2.212   0.898   1.804
 1388SOL    HW1  911   2.288   0.942   1.852
 1388SOL    HW2  912   2.247   0.851   1.722
 1397SOL     OW  913   1.950   1.801   0.927
 1397SOL    HW1  914   1.908   1.715   0.900
 1397SOL    HW2  915   2.044   1.804   0.893
 1398SOL     OW  916   2.366   1.568   0.910
 1398SOL    HW1  917   2.432   1.642   0.919
 1398SOL    HW2  918   2.410   1.489   0.868
 1402SOL     OW  919   3.231   0.950   1.660
 1402SOL    HW1  920   3.270   1.039   1.680
 1402SOL    HW2  921   3.241   0.930   1.563
 1405SOL     OW  922   2.114   1.564   1.744
 1405SOL    HW1  923   2.084   1.621   1.820
 1405SOL    HW2  924   2.107   1.467   1.770
 1407SOL     OW  925   2.792   1.678   1.465
 1407SOL    HW1  926   2.768   1.660   1.370
 1407SOL    HW2  927   2.822   1.772   1.475
 1409SOL     OW  928   2.021   1.137   1.466
 1409SOL    HW1  929   2.043   1.076   1.542
 1409SOL    HW2  930   2.031   1.088   1.380
 1413SOL     OW  931   3.114   1.731   1.128
 1413SOL    HW1  932   3.198   1.736   1.074
 1413SOL    HW2  933   3.091   1.635   1.146
 1414SOL     OW  934   1.945   1.258   1.022
 1414SOL    HW1  935   1.940   1.257   1.122
 1414SOL    HW2  936   1.862   1.217   0.984
 1415SOL     OW  937   2.550   1.662   1.716
 1415SOL    HW1  938   2.494   1.743   1.725
 1415SOL    HW2  939   2.602   1.666   1.630
 1419SOL     OW  940   1.992   1.794   1.851
 1419SOL    HW1  941   1.951   1.720   1.904
 1419SOL    HW2  942   2.056   1.845   1.909
 1421SOL     OW  943   2.692   1.273   1.422
 1421SOL    HW1  944   2.687   1.306   1.517
 1421SOL    HW2  945   2.606   1.292   1.376
 1423SOL     OW  946   3.512   1.720   1.394
 1423SOL    HW1  947   3.565   1.730   1.310
 1423SOL    HW2  948   3.485   1.810   1.428
 1427SOL     OW  949   2.684   1.002   1.372
 1427SOL    HW1  950   2.724   1.001   1.280
 1427SOL    HW2  951   2.694   1.094   1.412
 1430SOL     OW  952   2.234   1.288   1.490
 1430SOL    HW1  953   2.221   1.381   1.456
 1430SOL    HW2  954   2.150   1.236   1.477
 1437SOL     OW  955   1.967   1.013   1.726
 1437SOL    HW1  956   1.890   0.980   1.780
 1437SOL    HW2  957   2.052   0.983   1.768
 1443SOL     OW  958   2.475   0.842   1.431
 1443SOL    HW1  959   2.531   0.923   1.414
 1443SOL    HW2  960   2.534   0.762   1.434
 1444SOL     OW  961   3.355   1.767   0.959
 1444SOL    HW1  962   3.388   1.831   0.890
 1444SOL    HW2  963   3.421   1.761   1.034
 1446SOL     OW  964   3.312   1.220   1.633
 1446SOL    HW1  965   3.303   1.210   1.732
 1446SOL    HW2  966   3.408   1.213   1.607
 1447SOL     OW  967   2.252   1.741   1.560
 1447SOL    HW1  968   2.161   1.782   1.558
 1447SOL    HW2  969   2.245   1.647   1.592
 1454SOL     OW  970   2.523   1.790   0.953
 1454SOL    HW1  971   2.477   1.878   0.940
 1454SOL    HW2  972   2.622   1.802   0.946
 1458SOL     OW  973   2.083   1.314   1.844
 1458SOL    HW1  974   2.018   1.241   1.823
 1458SOL    HW2  975   2.087   1.328   1.942
 1460SOL     OW  976   2.534   1.391   1.624
 1460SOL    HW1  977   2.456   1.341   1.662
 1460SOL    HW2  978   2.531   1.486   1.655
 1465SOL     OW  979   2.674   1.586   0.687
 1465SOL    HW1  980   2.706   1.596   0.593
 1465SOL    HW2  981   2.595   1.524   0.689
 1469SOL     OW  982   2.480   1.567   1.284
 1469SOL    HW1  983   2.475   1.649   1.341
 1469SOL    HW2  984   2.569   1.564   1.239
 1475SOL     OW  985   2.092   0.628   1.975
 1475SOL    HW1  986   1.999   0.626   2.012
 1475SOL    HW2  987   2.093   0.589   1.883
 1478SOL     OW  988   2.431   1.275   3.027
 1478SOL    HW1  989   2.338   1.268   2.990
 1478SOL    HW2  990   2.442   1.364   3.071
 1479SOL     OW  991   3.417   1.511   2.565
 1479SOL    HW1  992   3.360   1.495   2.646
 1479SOL    HW2  993   3.358   1.521   2.485
 1480SOL     OW  994   2.997   0.703   2.579
 1480SOL    HW1  995   3.054   0.781   2.554
 1480SOL    HW2  996   2.937   0.729   2.655
 1482SOL     OW  997   2.630   1.144   2.885
 1482SOL    HW1  998   2.552   1.161   2.945
 1482SOL    HW2  999   2.664   1.231   2.849
 1484SOL     OW 1000   2.547   1.012   2.527
 1484SOL    HW1 1001   2.616   0.996   2.597
 1484SOL    HW2 1002   2.474   1.069   2.565
 1486SOL     OW 1003   2.197   1.435   2.923
 1486SOL    HW1 1004   2.119   1.404   2.870
 1486SOL    HW2 1005   2.255   1.493   2.866
 1487SOL     OW 1006   3.322   1.505   3.201
 1487SOL    HW1 1007   3.346   1.599   3.227
 1487SOL    HW2 1008   3.306   1.451   3.283
 1490SOL     OW 1009   2.093   1.713   2.345
 1490SOL    HW1 1010   2.127   1.790   2.399
 1490SOL    HW2 1011   2.137   1.713   2.255
 1491SOL     OW 1012   2.989   1.341   3.552
 1491SOL    HW1 1013   3.036   1.341   3.640
 1491SOL    HW2 1014   2.941   1.254   3.541
 1492SOL     OW 1015   2.092   1.434   2.400
 1492SOL    HW1 1016   2.066   1.530   2.400
 1492SOL    HW2 1017   2.021   1.380   2.445
 1493SOL     OW 1018   2.102   1.091   2.748
 1493SOL    HW1 1019   2.116   1.007   2.800
 1493SOL    HW2 1020   2.047   1.155   2.803
 1494SOL     OW 1021   2.482   1.786   3.301
 1494SOL    HW1 1022   2.390   1.769   3.336
 1494SOL    HW2 1023   2.510   1.878   3.327
 1495SOL     OW 1024   2.468   0.964   1.985
 1495SOL    HW1 1025   2.475   1.048   1.931
 1495SOL    HW2 1026   2.514   0.977   2.073
 1497SOL     OW 1027   1.984   0.643   2.425
 1497SOL    HW1 1028   1.939   0.555   2.442
 1497SOL    HW2 1029   1.983   0.697   2.509
 1498SOL     OW 1030   3.704   1.767   2.221
 1498SOL    HW1 1031   3.758   1.738   2.301
 1498SOL    HW2 1032   3.734   1.857   2.192
 1499SOL     OW 1033   1.889   1.596   1.979
 1499SOL    HW1 1034   1.870   1.500   2.000
 1499SOL    HW2 1035   1.856   1.654   2.054
 1501SOL     OW 1036   3.503   1.108   2.294
 1501SOL    HW1 1037   3.589   1.110   2.242
 1501SOL    HW2 1038   3.517   1.155   2.382
 1503SOL     OW 1039   2.475   1.365   2.588
 1503SOL    HW1 1040   2.426   1.278   2.597
 1503SOL    HW2 1041   2.452   1.408   2.501
 1504SOL     OW 1042   3.155   1.228   3.285
 1504SOL    HW1 1043   3.192   1.155   3.227
 1504SOL    HW2 1044   3.207   1.233   3.370
 1506SOL     OW 1045   2.059   0.976   3.126
 1506SOL    HW1 1046   2.148   0.931   3.112
 1506SOL    HW2 1047   1.986   0.911   3.107
 1507SOL     OW 1048   3.387   0.999   2.052
 1507SOL    HW1 1049   3.324   0.923   2.065
 1507SOL    HW2 1050   3.435   1.017   2.138
 1508SOL     OW 1051   3.049   1.792   3.478
 1508SOL    HW1 1052   3.073   1.852   3.402
 1508SOL    HW2 1053   3.056   1.697   3.448
 1510SOL     OW 1054   3.328   1.417   2.815
 1510SOL    HW1 1055   3.269   1.423   2.895
 1510SOL    HW2 1056   3.313   1.329   2.769
 1511SOL     OW 1057   3.529   1.714   2.434
 1511SOL    HW1 1058   3.488   1.691   2.346
 1511SOL    HW2 1059   3.511   1.640   2.499
 1512SOL     OW 1060   2.460   0.729   2.132
 1512SOL    HW1 1061   2.484   0.798   2.064
 1512SOL    HW2 1062   2.382   0.762   2.186
 1514SOL     OW 1063   3.438   1.662   2.169
 1514SOL    HW1 1064   3.527   1.708   2.172
 1514SOL    HW2 1065   3.417   1.638   2.074
 1519SOL     OW 1066   2.903   0.701   2.291
 1519SOL    HW1 1067   2.929   0.697   2.387
 1519SOL    HW2 1068   2.818   0.650   2.277
 1520SOL     OW 1069   1.938   0.811   2.651
 1520SOL    HW1 1070   2.037   0.799   2.660
 1520SOL    HW2 1071   1.914   0.906   2.672
 1521SOL     OW 1072   1.992   1.821   3.433
 1521SOL    HW1 1073   1.982   1.806   3.532
 1521SOL    HW2 1074   1.906   1.857   3.397
 1524SOL     OW 1075   3.224   1.144   2.407
 1524SOL    HW1 1076   3.307   1.115   2.359
 1524SOL    HW2 1077   3.175   1.211   2.351
 1526SOL     OW 1078   2.870   1.456   2.339
 1526SOL    HW1 1079   2.824   1.528   2.287
 1526SOL    HW2 1080   2.866   1.476   2.437
 1527SOL     OW 1081   2.213   1.801   2.715
 1527SOL    HW1 1082   2.263   1.715   2.721
 1527SOL    HW2 1083   2.278   1.878   2.712
 1529SOL     OW 1084   3.089   1.550   3.368
 1529SOL    HW1 1085   3.095   1.473   3.432
 1529SOL    HW2 1086   3.037   1.524   3.288
 1530SOL     OW 1087   2.183   0.943   2.104
 1530SOL    HW1 1088   2.265   0.982   2.062
 1530SOL    HW2 1089   2.156   0.861   2.055
 1532SOL     OW 1090   2.323   1.266   3.589
 1532SOL    HW1 1091   2.273   1.267   3.503
 1532SOL    HW2 1092   2.260   1.248   3.665
 1533SOL     OW 1093   2.973   1.776   2.099
 1533SOL    HW1 1094   2.913   1.714   2.149
 1533SOL    HW2 1095   3.004   1.732   2.014
 1535SOL     OW 1096   3.494   1.377   1.943
 1535SOL    HW1 1097   3.462   1.471   1.933
 1535SOL    HW2 1098   3.418   1.314   1.931
 1536SOL     OW 1099   2.326   1.743   2.185
 1536SOL    HW1 1100   2.359   1.782   2.271
 1536SOL    HW2 1101   2.402   1.736   2.120
 1538SOL     OW 1102   2.111   1.785   3.103
 1538SOL    HW1 1103   2.168   1.720   3.153
 1538SOL    HW2 1104   2.095   1.752   3.010
 1539SOL     OW 1105   2.802   1.698   2.766
 1539SOL    HW1 1106   2.882   1.641   2.787
 1539SOL    HW2 1107   2.753   1.658   2.689
 1540SOL     OW 1108   2.244   0.700   2.342
 1540SOL    HW1 1109   2.289   0.610   2.339
 1540SOL    HW2 1110   2.150   0.689   2.375
 1544SOL     OW 1111   2.750   1.514   3.057
 1544SOL    HW1 1112   2.727   1.489   2.963
 1544SOL    HW2 1113   2.811   1.445   3.096
 1546SOL     OW 1114   2.665   1.402   2.786
 1546SOL    HW1 1115   2.755   1.416   2.744
 1546SOL    HW2 1116   2.594   1.404   2.715
 1549SOL     OW 1117   3.296   1.188   1.903
 1549SOL    HW1 1118   3.328   1.112   1.960
 1549SOL    HW2 1119   3.204   1.215   1.933
 1553SOL     OW 1120   3.089   1.570   2.655
 1553SOL    HW1 1121   3.110   1.644   2.590
 1553SOL    HW2 1122   3.157   1.570   2.728
 1554SOL     OW 1123   2.321   1.152   2.603
 1554SOL    HW1 1124   2.250   1.125   2.668
 1554SOL    HW2 1125   2.295   1.124   2.510
 1555SOL     OW 1126   3.133   1.797   2.453
 1555SOL    HW1 1127   3.177   1.861   2.389
 1555SOL    HW2 1128   3.083   1.849   2.523
 1561SOL     OW 1129   3.291   1.173   2.729
 1561SOL    HW1 1130   3.236   1.089   2.722
 1561SOL    HW2 1131   3.317   1.202   2.637
 1564SOL     OW 1132   2.350   1.385   2.036
 1564SOL    HW1 1133   2.263   1.370   2.083
 1564SOL    HW2 1134   2.333   1.411   1.941
 1565SOL     OW 1135   3.526   1.280   2.519
 1565SOL    HW1 1136   3.625   1.288   2.533
 1565SOL    HW2 1137   3.481   1.364   2.550
 1569SOL     OW 1138   2.926   1.347   3.202
 1569SOL    HW1 1139   2.846   1.324   3.257
 1569SOL    HW2 1140   3.009   1.321   3.251
 1571SOL     OW 1141   2.973   1.195   2.962
 1571SOL    HW1 1142   2.933   1.239   3.043
 1571SOL    HW2 1143   2.932   1.232   2.879
 1575SOL     OW 1144   2.567   1.050   2.230
 1575SOL    HW1 1145   2.553   1.057   2.329
 1575SOL    HW2 1146   2.651   0.999   2.212
 1576SOL     OW 1147   2.272   0.813   3.113
 1576SOL    HW1 1148   2.358   0.825   3.163
 1576SOL    HW2 1149   2.230   0.726   3.140
 1578SOL     OW 1150   1.926   1.564   3.193
 1578SOL    HW1 1151   1.880   1.646   3.159
 1578SOL    HW2 1152   2.024   1.583   3.202
 1579SOL     OW 1153   2.229   1.100   2.363
 1579SOL    HW1 1154   2.222   1.183   2.307
 1579SOL    HW2 1155   2.233   1.020   2.303
 1580SOL     OW 1156   2.428   0.537   2.727
 1580SOL    HW1 1157   2.440   0.603   2.653
 1580SOL    HW2 1158   2.474   0.571   2.810
 1581SOL     OW 1159   3.114   1.348   2.250
 1581SOL    HW1 1160   3.164   1.425   2.290
 1581SOL    HW2 1161   3.019   1.350   2.282
 1582SOL     OW 1162   3.134   1.445   3.004
 1582SOL    HW1 1163   3.181   1.458   3.091
 1582SOL    HW2 1164   3.068   1.371   3.013
 1584SOL     OW 1165   2.216   1.510   3.191
 1584SOL    HW1 1166   2.195   1.466   3.104
 1584SOL    HW2 1167   2.313   1.536   3.194
 1589SOL     OW 1168   2.435   0.870   2.891
 1589SOL    HW1 1169   2.479   0.959   2.882
 1589SOL    HW2 1170   2.372   0.870   2.968
 1593SOL     OW 1171   1.899   1.310   3.144
 1593SOL    HW1 1172   1.952   1.261   3.212
 1593SOL    HW2 1173   1.921   1.408   3.149
 1594SOL     OW 1174   2.594   0.634   2.926
 1594SOL    HW1 1175   2.653   0.608   2.850
 1594SOL    HW2 1176   2.566   0.730   2.915
 1598SOL     OW 1177   2.885   0.766   2.828
 1598SOL    HW1 1178   2.900   0.787   2.924
 1598SOL    HW2 1179   2.855   0.671   2.819
 1599SOL     OW 1180   2.842   1.573   3.562
 1599SOL    HW1 1181   2.822   1.617   3.474
 1599SOL    HW2 1182   2.881   1.482   3.546
 1603SOL     OW 1183   3.165   0.838   1.904
 1603SOL    HW1 1184   3.199   0.745   1.919
 1603SOL    HW2 1185   3.183   0.865   1.809
 1604SOL     OW 1186   2.930   1.333   2.711
 1604SOL    HW1 1187   2.937   1.249   2.656
 1604SOL    HW2 1188   2.992   1.402   2.675
 1605SOL     OW 1189   2.181   0.810   2.811
 1605SOL    HW1 1190   2.274   0.846   2.816
 1605SOL    HW2 1191   2.175   0.725   2.863
 1609SOL     OW 1192   1.870   1.326   2.062
 1609SOL    HW1 1193   1.777   1.347   2.031
 1609SOL    HW2 1194   1.880   1.227   2.075
 1610SOL     OW 1195   1.950   1.801   2.789
 1610SOL    HW1 1196   1.908   1.715   2.762
 1610SOL    HW2 1197   2.044   1.804   2.755
 1611SOL     OW 1198   2.366   1.568   2.772
 1611SOL    HW1 1199   2.432   1.642   2.781
 1611SOL    HW2 1200   2.410   1.489   2.730
 1612SOL     OW 1201   2.864   0.796   3.100
 1612SOL    HW1 1202   2.905   0.764   3.186
 1612SOL    HW2 1203   2.768   0.769   3.097
 1616SOL     OW 1204   2.677   0.572   2.187
 1616SOL    HW1 1205   2.684   0.483   2.141
 1616SOL    HW2 1206   2.583   0.606   2.179
 1618SOL     OW 1207   2.114   1.564   3.606
 1618SOL    HW1 1208   2.084   1.621   3.682
 1618SOL    HW2 1209   2.107   1.467   3.632
 1620SOL     OW 1210   2.792   1.678   3.327
 1620SOL    HW1 1211   2.768   1.660   3.232
 1620SOL    HW2 1212   2.822   1.772   3.337
 1621SOL     OW 1213   2.335   0.500   2.053
 1621SOL    HW1 1214   2.396   0.580   2.057
 1621SOL    HW2 1215   2.240   0.531   2.060
 1622SOL     OW 1216   2.021   1.137   3.328
 1622SOL    HW1 1217   2.043   1.076   3.404
 1622SOL    HW2 1218   2.031   1.088   3.242
 1623SOL     OW 1219   3.209   1.059   3.096
 1623SOL    HW1 1220   3.233   0.996   3.022
 1623SOL    HW2 1221   3.119   1.099   3.078
 1624SOL     OW 1222   3.164   0.855   2.171
 1624SOL    HW1 1223   3.078   0.824   2.213
 1624SOL    HW2 1224   3.160   0.841   2.072
 1625SOL     OW 1225   3.621   1.747   3.016
 1625SOL    HW1 1226   3.682   1.777   2.943
 1625SOL    HW2 1227   3.583   1.658   2.994
 1626SOL     OW 1228   3.114   1.731   2.990
 1626SOL    HW1 1229   3.198   1.736   2.936
 1626SOL    HW2 1230   3.091   1.635   3.008
 1627SOL     OW 1231   1.945   1.258   2.884
 1627SOL    HW1 1232   1.940   1.257   2.984
 1627SOL    HW2 1233   1.862   1.217   2.846
 1628SOL     OW 1234   2.550   1.662   3.578
 1628SOL    HW1 1235   2.494   1.743   3.587
 1628SOL    HW2 1236   2.602   1.666   3.492
 1630SOL     OW 1237   3.250   1.573   2.339
 1630SOL    HW1 1238   3.317   1.585   2.265
 1630SOL    HW2 1239   3.210   1.662   2.362
 1631SOL     OW 1240   1.992   1.794   3.713
 1631SOL    HW1 1241   1.951   1.720   3.766
 1631SOL    HW2 1242   2.056   1.845   3.771
 1632SOL     OW 1243   3.142   0.927   2.534
 1632SOL    HW1 1244   3.202   0.846   2.536
 1632SOL    HW2 1245   3.182   0.996   2.474
 1633SOL     OW 1246   2.692   1.273   3.284
 1633SOL    HW1 1247   2.687   1.306   3.379
 1633SOL    HW2 1248   2.606   1.292   3.238
 1634SOL     OW 1249   2.534   1.616   2.016
 1634SOL    HW1 1250   2.543   1.626   1.917
 1634SOL    HW2 1251   2.494   1.527   2.037
 1635SOL     OW 1252   3.512   1.720   3.256
 1635SOL    HW1 1253   3.565   1.730   3.172
 1635SOL    HW2 1254   3.485   1.810   3.290
 1638SOL     OW 1255   3.056   1.612   1.893
 1638SOL    HW1 1256   3.062   1.519   1.930
 1638SOL    HW2 1257   2.997   1.612   1.813
 1639SOL     OW 1258   2.684   1.002   3.234
 1639SOL    HW1 1259   2.724   1.001   3.142
 1639SOL    HW2 1260   2.694   1.094   3.274
 1640SOL     OW 1261   2.778   0.910   2.153
 1640SOL    HW1 1262   2.841   0.948   2.085
 1640SOL    HW2 1263   2.818   0.827   2.192
 1641SOL     OW 1264   3.366   1.607   1.906
 1641SOL    HW1 1265   3.274   1.644   1.913
 1641SOL    HW2 1266   3.404   1.627   1.816
 1642SOL     OW 1267   2.234   1.288   3.352
 1642SOL    HW1 1268   2.221   1.381   3.318
 1642SOL    HW2 1269   2.150   1.236   3.339
 1643SOL     OW 1270   3.476   1.292   3.151
 1643SOL    HW1 1271   3.536   1.295   3.231
 1643SOL    HW2 1272   3.401   1.356   3.164
 1644SOL     OW 1273   2.901   1.098   2.558
 1644SOL    HW1 1274   2.831   1.051   2.612
 1644SOL    HW2 1275   2.960   1.030   2.515
 1646SOL     OW 1276   2.452   1.487   2.353
 1646SOL    HW1 1277   2.494   1.429   2.283
 1646SOL    HW2 1278   2.408   1.566   2.309
 1648SOL     OW 1279   2.117   1.348   2.152
 1648SOL    HW1 1280   2.021   1.349   2.125
 1648SOL    HW2 1281   2.129   1.401   2.236
 1654SOL     OW 1282   3.045   1.335   1.981
 1654SOL    HW1 1283   2.946   1.324   1.983
 1654SOL    HW2 1284   3.079   1.350   2.074
 1655SOL     OW 1285   2.475   0.842   3.293
 1655SOL    HW1 1286   2.531   0.923   3.276
 1655SOL    HW2 1287   2.534   0.762   3.296
 1656SOL     OW 1288   3.355   1.767   2.821
 1656SOL    HW1 1289   3.388   1.831   2.752
 1656SOL    HW2 1290   3.421   1.761   2.896
 1659SOL     OW 1291   2.252   1.741   3.422
 1659SOL    HW1 1292   2.161   1.782   3.420
 1659SOL    HW2 1293   2.245   1.647   3.454
 1662SOL     OW 1294   2.456   0.745   2.514
 1662SOL    HW1 1295   2.506   0.830   2.495
 1662SOL    HW2 1296   2.368   0.747   2.466
 1665SOL     OW 1297   2.721   1.374   1.878
 1665SOL    HW1 1298   2.675   1.389   1.966
 1665SOL    HW2 1299   2.765   1.459   1.848
 1666SOL     OW 1300   2.523   1.790   2.815
 1666SOL    HW1 1301   2.477   1.878   2.802
 1666SOL    HW2 1302   2.622   1.802   2.808
 1667SOL     OW 1303   2.721   0.956   2.723
 1667SOL    HW1 1304   2.775   0.887   2.771
 1667SOL    HW2 1305   2.689   1.025   2.789
 1668SOL     OW 1306   2.945   0.984   1.949
 1668SOL    HW1 1307   2.922   1.037   1.867
 1668SOL    HW2 1308   3.026   0.928   1.930
 1669SOL     OW 1309   3.723   1.569   2.713
 1669SOL    HW1 1310   3.652   1.557   2.643
 1669SOL    HW2 1311   3.724   1.490   2.773
 1670SOL     OW 1312   2.083   1.314   3.706
 1670SOL    HW1 1313   2.018   1.241   3.685
 1670SOL    HW2 1314   2.087   1.328   3.804
 1671SOL     OW 1315   1.941   1.240   2.515
 1671SOL    HW1 1316   1.940   1.193   2.603
 1671SOL    HW2 1317   2.023   1.212   2.464
 1672SOL     OW 1318   2.534   1.391   3.486
 1672SOL    HW1 1319   2.456   1.341   3.524
 1672SOL    HW2 1320   2.531   1.486   3.517
 1675SOL     OW 1321   3.567   1.487   2.966
 1675SOL    HW1 1322   3.474   1.462   2.939
 1675SOL    HW2 1323   3.593   1.437   3.048
 1677SOL     OW 1324   2.674   1.586   2.549
 1677SOL    HW1 1325   2.706   1.596   2.455
 1677SOL    HW2 1326   2.595   1.524   2.551
 1680SOL     OW 1327   2.632   1.330   2.163
 1680SOL    HW1 1328   2.586   1.243   2.180
 1680SOL    HW2 1329   2.723   1.327   2.204
 1681SOL     OW 1330   2.480   1.567   3.146
 1681SOL    HW1 1331   2.475   1.649   3.203
 1681SOL    HW2 1332   2.569   1.564   3.101
 1685SOL     OW 1333   1.901   1.077   2.162
 1685SOL    HW1 1334   2.000   1.066   2.153
 1685SOL    HW2 1335   1.861   0.991   2.194
 1686SOL     OW 1336   2.737   1.646   2.199
 1686SOL    HW1 1337   2.660   1.611   2.145
 1686SOL    HW2 1338   2.705   1.717   2.261
 1697SOL     OW 1339   1.889   1.596   3.841
 1697SOL    HW1 1340   1.870   1.500   3.862
 1697SOL    HW2 1341   1.856   1.654   3.916
 1751SOL     OW 1342   2.534   1.616   3.878
 1751SOL    HW1 1343   2.543   1.626   3.779
 1751SOL    HW2 1344   2.494   1.527   3.899
 1764SOL     OW 1345   2.721   1.374   3.740
 1764SOL    HW1 1346   2.675   1.389   3.828
 1764SOL    HW2 1347   2.765   1.459   3.710
 1777SOL     OW 1348   2.087   2.137   0.996
 1777SOL    HW1 1349   2.122   2.120   1.088
 1777SOL    HW2 1350   1.999   2.092   0.984
 1778SOL     OW 1351   1.881   2.230   0.647
 1778SOL    HW1 1352   1.799   2.273   0.686
 1778SOL    HW2 1353   1.853   2.157   0.584
 1779SOL     OW 1354   2.431   3.137   1.165
 1779SOL    HW1 1355   2.338   3.130   1.128
 1779SOL    HW2 1356   2.442   3.226   1.209
 1781SOL     OW 1357   2.997   2.565   0.717
 1781SOL    HW1 1358   3.054   2.643   0.692
 1781SOL    HW2 1359   2.937   2.591   0.793
 1783SOL     OW 1360   2.630   3.006   1.023
 1783SOL    HW1 1361   2.552   3.023   1.083
 1783SOL    HW2 1362   2.664   3.093   0.987
 1784SOL     OW 1363   2.712   2.660   1.823
 1784SOL    HW1 1364   2.708   2.736   1.888
 1784SOL    HW2 1365   2.734   2.696   1.732
 1785SOL     OW 1366   2.547   2.874   0.665
 1785SOL    HW1 1367   2.616   2.858   0.735
 1785SOL    HW2 1368   2.474   2.931   0.703
 1786SOL     OW 1369   2.548   3.023   1.803
 1786SOL    HW1 1370   2.608   3.102   1.817
 1786SOL    HW2 1371   2.462   3.054   1.762
 1787SOL     OW 1372   2.197   3.297   1.061
 1787SOL    HW1 1373   2.119   3.266   1.008
 1787SOL    HW2 1374   2.255   3.355   1.004
 1788SOL     OW 1375   3.322   3.367   1.339
 1788SOL    HW1 1376   3.346   3.461   1.365
 1788SOL    HW2 1377   3.306   3.313   1.421
 1789SOL     OW 1378   2.300   2.254   1.499
 1789SOL    HW1 1379   2.382   2.198   1.508
 1789SOL    HW2 1380   2.219   2.196   1.503
 1792SOL     OW 1381   2.989   3.203   1.690
 1792SOL    HW1 1382   3.036   3.203   1.778
 1792SOL    HW2 1383   2.941   3.116   1.679
 1794SOL     OW 1384   2.102   2.953   0.886
 1794SOL    HW1 1385   2.116   2.869   0.938
 1794SOL    HW2 1386   2.047   3.017   0.941
 1795SOL     OW 1387   2.482   3.648   1.439
 1795SOL    HW1 1388   2.390   3.631   1.474
 1795SOL    HW2 1389   2.510   3.740   1.465
 1797SOL     OW 1390   3.456   1.976   1.480
 1797SOL    HW1 1391   3.438   2.043   1.408
 1797SOL    HW2 1392   3.453   2.022   1.569
 1798SOL     OW 1393   1.984   2.505   0.563
 1798SOL    HW1 1394   1.939   2.417   0.580
 1798SOL    HW2 1395   1.983   2.559   0.647
 1803SOL     OW 1396   1.975   2.599   1.597
 1803SOL    HW1 1397   2.063   2.586   1.642
 1803SOL    HW2 1398   1.962   2.696   1.575
 1805SOL     OW 1399   3.155   3.090   1.423
 1805SOL    HW1 1400   3.192   3.017   1.365
 1805SOL    HW2 1401   3.207   3.095   1.508
 1807SOL     OW 1402   2.059   2.838   1.264
 1807SOL    HW1 1403   2.148   2.793   1.250
 1807SOL    HW2 1404   1.986   2.773   1.245
 1809SOL     OW 1405   3.049   3.654   1.616
 1809SOL    HW1 1406   3.073   3.714   1.540
 1809SOL    HW2 1407   3.056   3.559   1.586
 1810SOL     OW 1408   2.179   2.113   1.801
 1810SOL    HW1 1409   2.250   2.184   1.807
 1810SOL    HW2 1410   2.091   2.152   1.829
 1814SOL     OW 1411   3.143   2.207   0.944
 1814SOL    HW1 1412   3.057   2.157   0.931
 1814SOL    HW2 1413   3.205   2.153   1.000
 1816SOL     OW 1414   2.669   2.467   1.465
 1816SOL    HW1 1415   2.622   2.464   1.554
 1816SOL    HW2 1416   2.618   2.412   1.399
 1817SOL     OW 1417   3.256   2.331   1.674
 1817SOL    HW1 1418   3.236   2.374   1.762
 1817SOL    HW2 1419   3.334   2.269   1.683
 1818SOL     OW 1420   2.835   2.752   1.572
 1818SOL    HW1 1421   2.881   2.668   1.543
 1818SOL    HW2 1422   2.779   2.786   1.497
 1819SOL     OW 1423   2.853   2.272   1.242
 1819SOL    HW1 1424   2.776   2.306   1.296
 1819SOL    HW2 1425   2.819   2.221   1.163
 1821SOL     OW 1426   1.938   2.673   0.789
 1821SOL    HW1 1427   2.037   2.661   0.798
 1821SOL    HW2 1428   1.914   2.768   0.810
 1822SOL     OW 1429   1.992   3.683   1.571
 1822SOL    HW1 1430   1.982   3.668   1.670
 1822SOL    HW2 1431   1.906   3.719   1.535
 1824SOL     OW 1432   3.581   2.447   1.831
 1824SOL    HW1 1433   3.555   2.536   1.795
 1824SOL    HW2 1434   3.579   2.379   1.758
 1826SOL     OW 1435   2.412   2.058   0.885
 1826SOL    HW1 1436   2.407   2.053   0.985
 1826SOL    HW2 1437   2.414   2.154   0.856
 1830SOL     OW 1438   3.089   3.412   1.506
 1830SOL    HW1 1439   3.095   3.335   1.570
 1830SOL    HW2 1440   3.037   3.386   1.426
 1833SOL     OW 1441   2.323   3.128   1.727
 1833SOL    HW1 1442   2.273   3.129   1.641
 1833SOL    HW2 1443   2.260   3.110   1.803
 1835SOL     OW 1444   2.064   2.147   1.498
 1835SOL    HW1 1445   1.984   2.207   1.485
 1835SOL    HW2 1446   2.054   2.098   1.584
 1839SOL     OW 1447   2.111   3.647   1.241
 1839SOL    HW1 1448   2.168   3.582   1.291
 1839SOL    HW2 1449   2.095   3.614   1.148
 1842SOL     OW 1450   3.409   2.084   1.729
 1842SOL    HW1 1451   3.404   2.121   1.821
 1842SOL    HW2 1452   3.337   2.015   1.717
 1843SOL     OW 1453   2.643   2.126   1.749
 1843SOL    HW1 1454   2.710   2.065   1.792
 1843SOL    HW2 1455   2.570   2.145   1.814
 1844SOL     OW 1456   2.750   3.376   1.195
 1844SOL    HW1 1457   2.727   3.351   1.101
 1844SOL    HW2 1458   2.811   3.307   1.234
 1845SOL     OW 1459   3.213   2.452   1.433
 1845SOL    HW1 1460   3.241   2.409   1.518
 1845SOL    HW2 1461   3.238   2.548   1.434
 1846SOL     OW 1462   2.665   3.264   0.924
 1846SOL    HW1 1463   2.755   3.278   0.882
 1846SOL    HW2 1464   2.594   3.266   0.853
 1847SOL     OW 1465   2.784   2.365   0.899
 1847SOL    HW1 1466   2.759   2.356   0.803
 1847SOL    HW2 1467   2.832   2.283   0.930
 1848SOL     OW 1468   2.401   1.926   0.512
 1848SOL    HW1 1469   2.320   1.927   0.570
 1848SOL    HW2 1470   2.404   2.009   0.457
 1851SOL     OW 1471   2.938   2.545   1.464
 1851SOL    HW1 1472   2.858   2.484   1.467
 1851SOL    HW2 1473   3.019   2.492   1.440
 1853SOL     OW 1474   2.321   3.014   0.741
 1853SOL    HW1 1475   2.250   2.987   0.806
 1853SOL    HW2 1476   2.295   2.986   0.648
 1856SOL     OW 1477   1.940   2.418   1.386
 1856SOL    HW1 1478   2.032   2.417   1.345
 1856SOL    HW2 1479   1.934   2.492   1.453
 1857SOL     OW 1480   2.423   2.084   1.147
 1857SOL    HW1 1481   2.461   2.000   1.184
 1857SOL    HW2 1482   2.335   2.103   1.191
 1858SOL     OW 1483   2.728   2.316   0.642
 1858SOL    HW1 1484   2.696   2.388   0.580
 1858SOL    HW2 1485   2.752   2.235   0.589
 1859SOL     OW 1486   2.879   1.901   0.753
 1859SOL    HW1 1487   2.807   1.906   0.684
 1859SOL    HW2 1488   2.855   1.832   0.822
 1861SOL     OW 1489   3.328   2.452   0.992
 1861SOL    HW1 1490   3.298   2.357   0.999
 1861SOL    HW2 1491   3.401   2.468   1.058
 1867SOL     OW 1492   3.616   3.085   1.588
 1867SOL    HW1 1493   3.707   3.046   1.575
 1867SOL    HW2 1494   3.624   3.181   1.612
 1868SOL     OW 1495   2.926   3.209   1.340
 1868SOL    HW1 1496   2.846   3.186   1.395
 1868SOL    HW2 1497   3.009   3.183   1.389
 1870SOL     OW 1498   2.973   3.057   1.100
 1870SOL    HW1 1499   2.933   3.101   1.181
 1870SOL    HW2 1500   2.932   3.094   1.017
 1872SOL     OW 1501   2.777   1.951   1.402
 1872SOL    HW1 1502   2.802   1.931   1.307
 1872SOL    HW2 1503   2.849   2.007   1.444
 1873SOL     OW 1504   2.842   2.978   1.719
 1873SOL    HW1 1505   2.743   2.984   1.729
 1873SOL    HW2 1506   2.865   2.898   1.663
 1875SOL     OW 1507   2.272   2.675   1.251
 1875SOL    HW1 1508   2.358   2.687   1.301
 1875SOL    HW2 1509   2.230   2.588   1.278
 1876SOL     OW 1510   3.136   2.248   1.262
 1876SOL    HW1 1511   3.157   2.322   1.326
 1876SOL    HW2 1512   3.047   2.265   1.219
 1877SOL     OW 1513   1.926   3.426   1.331
 1877SOL    HW1 1514   1.880   3.508   1.297
 1877SOL    HW2 1515   2.024   3.445   1.340
 1879SOL     OW 1516   2.428   2.399   0.865
 1879SOL    HW1 1517   2.440   2.465   0.791
 1879SOL    HW2 1518   2.474   2.433   0.948
 1881SOL     OW 1519   3.134   3.307   1.142
 1881SOL    HW1 1520   3.181   3.320   1.229
 1881SOL    HW2 1521   3.068   3.233   1.151
 1883SOL     OW 1522   2.216   3.372   1.329
 1883SOL    HW1 1523   2.195   3.328   1.242
 1883SOL    HW2 1524   2.313   3.398   1.332
 1884SOL     OW 1525   2.264   2.613   1.598
 1884SOL    HW1 1526   2.332   2.668   1.551
 1884SOL    HW2 1527   2.304   2.525   1.625
 1885SOL     OW 1528   3.449   2.641   1.670
 1885SOL    HW1 1529   3.357   2.679   1.665
 1885SOL    HW2 1530   3.509   2.688   1.605
 1886SOL     OW 1531   2.875   1.967   1.770
 1886SOL    HW1 1532   2.881   2.052   1.718
 1886SOL    HW2 1533   2.907   1.891   1.713
 1887SOL     OW 1534   2.366   1.912   1.740
 1887SOL    HW1 1535   2.324   1.855   1.670
 1887SOL    HW2 1536   2.300   1.981   1.772
 1888SOL     OW 1537   2.435   2.732   1.029
 1888SOL    HW1 1538   2.479   2.821   1.020
 1888SOL    HW2 1539   2.372   2.732   1.106
 1889SOL     OW 1540   3.222   2.724   1.045
 1889SOL    HW1 1541   3.147   2.724   0.979
 1889SOL    HW2 1542   3.259   2.632   1.054
 1891SOL     OW 1543   2.169   2.075   1.231
 1891SOL    HW1 1544   2.146   2.112   1.321
 1891SOL    HW2 1545   2.139   1.980   1.225
 1892SOL     OW 1546   1.899   3.172   1.282
 1892SOL    HW1 1547   1.952   3.123   1.350
 1892SOL    HW2 1548   1.921   3.270   1.287
 1893SOL     OW 1549   2.594   2.496   1.064
 1893SOL    HW1 1550   2.653   2.470   0.988
 1893SOL    HW2 1551   2.566   2.592   1.053
 1894SOL     OW 1552   3.590   2.797   1.854
 1894SOL    HW1 1553   3.544   2.790   1.765
 1894SOL    HW2 1554   3.528   2.841   1.920
 1895SOL     OW 1555   2.169   1.925   0.618
 1895SOL    HW1 1556   2.158   2.019   0.651
 1895SOL    HW2 1557   2.164   1.862   0.695
 1897SOL     OW 1558   2.885   2.628   0.966
 1897SOL    HW1 1559   2.900   2.649   1.062
 1897SOL    HW2 1560   2.855   2.533   0.957
 1898SOL     OW 1561   2.842   3.435   1.700
 1898SOL    HW1 1562   2.822   3.479   1.612
 1898SOL    HW2 1563   2.881   3.344   1.684
 1900SOL     OW 1564   2.212   2.760   1.804
 1900SOL    HW1 1565   2.288   2.804   1.852
 1900SOL    HW2 1566   2.247   2.713   1.722
 1904SOL     OW 1567   2.181   2.672   0.949
 1904SOL    HW1 1568   2.274   2.708   0.954
 1904SOL    HW2 1569   2.175   2.587   1.001
 1905SOL     OW 1570   2.201   2.371   1.006
 1905SOL    HW1 1571   2.149   2.288   0.989
 1905SOL    HW2 1572   2.278   2.376   0.942
 1906SOL     OW 1573   3.000   2.242   1.678
 1906SOL    HW1 1574   2.955   2.305   1.742
 1906SOL    HW2 1575   3.093   2.273   1.661
 1907SOL     OW 1576   3.022   2.069   1.477
 1907SOL    HW1 1577   3.022   2.133   1.554
 1907SOL    HW2 1578   3.050   2.117   1.394
 1910SOL     OW 1579   2.366   3.430   0.910
 1910SOL    HW1 1580   2.432   3.504   0.919
 1910SOL    HW2 1581   2.410   3.351   0.868
 1911SOL     OW 1582   2.864   2.658   1.238
 1911SOL    HW1 1583   2.905   2.626   1.324
 1911SOL    HW2 1584   2.768   2.631   1.235
 1912SOL     OW 1585   1.902   2.406   1.114
 1912SOL    HW1 1586   1.987   2.373   1.073
 1912SOL    HW2 1587   1.915   2.421   1.212
 1913SOL     OW 1588   2.051   2.382   1.722
 1913SOL    HW1 1589   2.110   2.342   1.652
 1913SOL    HW2 1590   1.993   2.453   1.681
 1914SOL     OW 1591   3.231   2.812   1.660
 1914SOL    HW1 1592   3.270   2.901   1.680
 1914SOL    HW2 1593   3.241   2.792   1.563
 1916SOL     OW 1594   3.519   2.466   1.206
 1916SOL    HW1 1595   3.481   2.397   1.268
 1916SOL    HW2 1596   3.601   2.430   1.162
 1917SOL     OW 1597   2.114   3.426   1.744
 1917SOL    HW1 1598   2.084   3.483   1.820
 1917SOL    HW2 1599   2.107   3.329   1.770
 1918SOL     OW 1600   2.533   2.326   1.269
 1918SOL    HW1 1601   2.499   2.237   1.239
 1918SOL    HW2 1602   2.559   2.380   1.189
 1919SOL     OW 1603   2.792   3.540   1.465
 1919SOL    HW1 1604   2.768   3.522   1.370
 1919SOL    HW2 1605   2.822   3.634   1.475
 1921SOL     OW 1606   2.021   2.999   1.466
 1921SOL    HW1 1607   2.043   2.938   1.542
 1921SOL    HW2 1608   2.031   2.950   1.380
 1922SOL     OW 1609   3.209   2.921   1.234
 1922SOL    HW1 1610   3.233   2.858   1.160
 1922SOL    HW2 1611   3.119   2.961   1.216
 1926SOL     OW 1612   1.945   3.120   1.022
 1926SOL    HW1 1613   1.940   3.119   1.122
 1926SOL    HW2 1614   1.862   3.079   0.984
 1927SOL     OW 1615   2.550   3.524   1.716
 1927SOL    HW1 1616   2.494   3.605   1.725
 1927SOL    HW2 1617   2.602   3.528   1.630
 1931SOL     OW 1618   1.992   3.656   1.851
 1931SOL    HW1 1619   1.951   3.582   1.904
 1931SOL    HW2 1620   2.056   3.707   1.909
 1933SOL     OW 1621   2.692   3.135   1.422
 1933SOL    HW1 1622   2.687   3.168   1.517
 1933SOL    HW2 1623   2.606   3.154   1.376
 1937SOL     OW 1624   2.125   2.188   0.720
 1937SOL    HW1 1625   2.046   2.239   0.686
 1937SOL    HW2 1626   2.116   2.173   0.818
 1939SOL     OW 1627   2.684   2.864   1.372
 1939SOL    HW1 1628   2.724   2.863   1.280
 1939SOL    HW2 1629   2.694   2.956   1.412
 1942SOL     OW 1630   2.234   3.150   1.490
 1942SOL    HW1 1631   2.221   3.243   1.456
 1942SOL    HW2 1632   2.150   3.098   1.477
 1943SOL     OW 1633   3.476   3.154   1.289
 1943SOL    HW1 1634   3.536   3.157   1.369
 1943SOL    HW2 1635   3.401   3.218   1.302
 1945SOL     OW 1636   2.876   2.098   0.971
 1945SOL    HW1 1637   2.868   2.062   0.878
 1945SOL    HW2 1638   2.874   2.022   1.036
 1947SOL     OW 1639   3.571   2.247   1.381
 1947SOL    HW1 1640   3.644   2.316   1.385
 1947SOL    HW2 1641   3.599   2.172   1.322
 1949SOL     OW 1642   1.967   2.875   1.726
 1949SOL    HW1 1643   1.890   2.842   1.780
 1949SOL    HW2 1644   2.052   2.845   1.768
 1950SOL     OW 1645   2.534   2.065   1.489
 1950SOL    HW1 1646   2.624   2.049   1.449
 1950SOL    HW2 1647   2.542   2.070   1.588
 1952SOL     OW 1648   3.302   2.718   1.398
 1952SOL    HW1 1649   3.245   2.770   1.335
 1952SOL    HW2 1650   3.398   2.730   1.374
 1955SOL     OW 1651   2.475   2.704   1.431
 1955SOL    HW1 1652   2.531   2.785   1.414
 1955SOL    HW2 1653   2.534   2.624   1.434
 1957SOL     OW 1654   2.578   2.427   1.708
 1957SOL    HW1 1655   2.597   2.492   1.782
 1957SOL    HW2 1656   2.638   2.347   1.717
 1958SOL     OW 1657   3.312   3.082   1.633
 1958SOL    HW1 1658   3.303   3.072   1.732
 1958SOL    HW2 1659   3.408   3.075   1.607
 1959SOL     OW 1660   2.252   3.603   1.560
 1959SOL    HW1 1661   2.161   3.644   1.558
 1959SOL    HW2 1662   2.245   3.509   1.592
 1960SOL     OW 1663   3.536   2.745   1.254
 1960SOL    HW1 1664   3.509   2.656   1.217
 1960SOL    HW2 1665   3.537   2.813   1.181
 1962SOL     OW 1666   2.456   2.607   0.652
 1962SOL    HW1 1667   2.506   2.692   0.633
 1962SOL    HW2 1668   2.368   2.609   0.604
 1963SOL     OW 1669   3.639   2.204   1.642
 1963SOL    HW1 1670   3.622   2.235   1.548
 1963SOL    HW2 1671   3.555   2.167   1.680
 1964SOL     OW 1672   3.592   2.796   1.517
 1964SOL    HW1 1673   3.630   2.887   1.532
 1964SOL    HW2 1674   3.584   2.779   1.418
 1967SOL     OW 1675   2.721   2.818   0.861
 1967SOL    HW1 1676   2.775   2.749   0.909
 1967SOL    HW2 1677   2.689   2.887   0.927
 1970SOL     OW 1678   2.083   3.176   1.844
 1970SOL    HW1 1679   2.018   3.103   1.823
 1970SOL    HW2 1680   2.087   3.190   1.942
 1972SOL     OW 1681   2.534   3.253   1.624
 1972SOL    HW1 1682   2.456   3.203   1.662
 1972SOL    HW2 1683   2.531   3.348   1.655
 1973SOL     OW 1684   3.686   2.054   1.227
 1973SOL    HW1 1685   3.682   1.964   1.271
 1973SOL    HW2 1686   3.689   2.043   1.128
 1974SOL     OW 1687   2.290   2.286   0.520
 1974SOL    HW1 1688   2.320   2.214   0.458
 1974SOL    HW2 1689   2.251   2.246   0.603
 1976SOL     OW 1690   2.179   2.409   1.280
 1976SOL    HW1 1691   2.217   2.350   1.352
 1976SOL    HW2 1692   2.219   2.383   1.192
 1978SOL     OW 1693   3.286   2.076   1.112
 1978SOL    HW1 1694   3.338   2.011   1.167
 1978SOL    HW2 1695   3.237   2.139   1.173
 1979SOL     OW 1696   2.863   1.896   1.154
 1979SOL    HW1 1697   2.800   1.824   1.123
 1979SOL    HW2 1698   2.956   1.860   1.154
 1981SOL     OW 1699   2.480   3.429   1.284
 1981SOL    HW1 1700   2.475   3.511   1.341
 1981SOL    HW2 1701   2.569   3.426   1.239
 1987SOL     OW 1702   2.092   2.490   1.975
 1987SOL    HW1 1703   1.999   2.488   2.012
 1987SOL    HW2 1704   2.093   2.451   1.883
 1988SOL     OW 1705   2.087   2.137   2.858
 1988SOL    HW1 1706   2.122   2.120   2.950
 1988SOL    HW2 1707   1.999   2.092   2.846
 1989SOL     OW 1708   1.881   2.230   2.509
 1989SOL    HW1 1709   1.799   2.273   2.548
 1989SOL    HW2 1710   1.853   2.157   2.446
 1990SOL     OW 1711   2.431   3.137   3.027
 1990SOL    HW1 1712   2.338   3.130   2.990
 1990SOL    HW2 1713   2.442   3.226   3.071
 1991SOL     OW 1714   3.417   3.373   2.565
 1991SOL    HW1 1715   3.360   3.357   2.646
 1991SOL    HW2 1716   3.358   3.383   2.485
 1992SOL     OW 1717   2.997   2.565   2.579
 1992SOL    HW1 1718   3.054   2.643   2.554
 1992SOL    HW2 1719   2.937   2.591   2.655
 1993SOL     OW 1720   3.617   2.469   2.093
 1993SOL    HW1 1721   3.605   2.456   1.994
 1993SOL    HW2 1722   3.587   2.388   2.142
 1994SOL     OW 1723   2.630   3.006   2.885
 1994SOL    HW1 1724   2.552   3.023   2.945
 1994SOL    HW2 1725   2.664   3.093   2.849
 1995SOL     OW 1726   2.712   2.660   3.685
 1995SOL    HW1 1727   2.708   2.736   3.750
 1995SOL    HW2 1728   2.734   2.696   3.594
 1996SOL     OW 1729   2.547   2.874   2.527
 1996SOL    HW1 1730   2.616   2.858   2.597
 1996SOL    HW2 1731   2.474   2.931   2.565
 1997SOL     OW 1732   2.548   3.023   3.665
 1997SOL    HW1 1733   2.608   3.102   3.679
 1997SOL    HW2 1734   2.462   3.054   3.624
 1998SOL     OW 1735   2.197   3.297   2.923
 1998SOL    HW1 1736   2.119   3.266   2.870
 1998SOL    HW2 1737   2.255   3.355   2.866
 1999SOL     OW 1738   3.322   3.367   3.201
 1999SOL    HW1 1739   3.346   3.461   3.227
 1999SOL    HW2 1740   3.306   3.313   3.283
 2000SOL     OW 1741   2.300   2.254   3.361
 2000SOL    HW1 1742   2.382   2.198   3.370
 2000SOL    HW2 1743   2.219   2.196   3.365
 2001SOL     OW 1744   3.465   2.309   2.599
 2001SOL    HW1 1745   3.391   2.355   2.549
 2001SOL    HW2 1746   3.516   2.377   2.652
 2002SOL     OW 1747   2.093   3.575   2.345
 2002SOL    HW1 1748   2.127   3.652   2.399
 2002SOL    HW2 1749   2.137   3.575   2.255
 2003SOL     OW 1750   2.989   3.203   3.552
 2003SOL    HW1 1751   3.036   3.203   3.640
 2003SOL    HW2 1752   2.941   3.116   3.541
 2004SOL     OW 1753   2.092   3.296   2.400
 2004SOL    HW1 1754   2.066   3.392   2.400
 2004SOL    HW2 1755   2.021   3.242   2.445
 2005SOL     OW 1756   2.102   2.953   2.748
 2005SOL    HW1 1757   2.116   2.869   2.800
 2005SOL    HW2 1758   2.047   3.017   2.803
 2006SOL     OW 1759   2.482   3.648   3.301
 2006SOL    HW1 1760   2.390   3.631   3.336
 2006SOL    HW2 1761   2.510   3.740   3.327
 2007SOL     OW 1762   2.468   2.826   1.985
 2007SOL    HW1 1763   2.475   2.910   1.931
 2007SOL    HW2 1764   2.514   2.839   2.073
 2008SOL     OW 1765   3.456   1.976   3.342
 2008SOL    HW1 1766   3.438   2.043   3.270
 2008SOL    HW2 1767   3.453   2.022   3.431
 2009SOL     OW 1768   1.984   2.505   2.425
 2009SOL    HW1 1769   1.939   2.417   2.442
 2009SOL    HW2 1770   1.983   2.559   2.509
 2011SOL     OW 1771   1.889   3.458   1.979
 2011SOL    HW1 1772   1.870   3.362   2.000
 2011SOL    HW2 1773   1.856   3.516   2.054
 2012SOL     OW 1774   3.551   2.784   2.474
 2012SOL    HW1 1775   3.646   2.755   2.482
 2012SOL    HW2 1776   3.543   2.849   2.399
 2013SOL     OW 1777   3.503   2.970   2.294
 2013SOL    HW1 1778   3.589   2.972   2.242
 2013SOL    HW2 1779   3.517   3.017   2.382
 2014SOL     OW 1780   1.975   2.599   3.459
 2014SOL    HW1 1781   2.063   2.586   3.504
 2014SOL    HW2 1782   1.962   2.696   3.437
 2015SOL     OW 1783   2.475   3.227   2.588
 2015SOL    HW1 1784   2.426   3.140   2.597
 2015SOL    HW2 1785   2.452   3.270   2.501
 2016SOL     OW 1786   3.155   3.090   3.285
 2016SOL    HW1 1787   3.192   3.017   3.227
 2016SOL    HW2 1788   3.207   3.095   3.370
 2017SOL     OW 1789   2.671   1.866   2.364
 2017SOL    HW1 1790   2.711   1.957   2.355
 2017SOL    HW2 1791   2.571   1.874   2.370
 2018SOL     OW 1792   2.059   2.838   3.126
 2018SOL    HW1 1793   2.148   2.793   3.112
 2018SOL    HW2 1794   1.986   2.773   3.107
 2019SOL     OW 1795   3.387   2.861   2.052
 2019SOL    HW1 1796   3.324   2.785   2.065
 2019SOL    HW2 1797   3.435   2.879   2.138
 2021SOL     OW 1798   2.179   2.113   3.663
 2021SOL    HW1 1799   2.250   2.184   3.669
 2021SOL    HW2 1800   2.091   2.152   3.691
 2022SOL     OW 1801   3.328   3.279   2.815
 2022SOL    HW1 1802   3.269   3.285   2.895
 2022SOL    HW2 1803   3.313   3.191   2.769
 2024SOL     OW 1804   2.460   2.591   2.132
 2024SOL    HW1 1805   2.484   2.660   2.064
 2024SOL    HW2 1806   2.382   2.624   2.186
 2025SOL     OW 1807   3.143   2.207   2.806
 2025SOL    HW1 1808   3.057   2.157   2.793
 2025SOL    HW2 1809   3.205   2.153   2.862
 2026SOL     OW 1810   3.438   3.524   2.169
 2026SOL    HW1 1811   3.527   3.570   2.172
 2026SOL    HW2 1812   3.417   3.500   2.074
 2027SOL     OW 1813   2.669   2.467   3.327
 2027SOL    HW1 1814   2.622   2.464   3.416
 2027SOL    HW2 1815   2.618   2.412   3.261
 2028SOL     OW 1816   3.256   2.331   3.536
 2028SOL    HW1 1817   3.236   2.374   3.624
 2028SOL    HW2 1818   3.334   2.269   3.545
 2029SOL     OW 1819   2.835   2.752   3.434
 2029SOL    HW1 1820   2.881   2.668   3.405
 2029SOL    HW2 1821   2.779   2.786   3.359
 2030SOL     OW 1822   2.853   2.272   3.104
 2030SOL    HW1 1823   2.776   2.306   3.158
 2030SOL    HW2 1824   2.819   2.221   3.025
 2031SOL     OW 1825   2.903   2.563   2.291
 2031SOL    HW1 1826   2.929   2.559   2.387
 2031SOL    HW2 1827   2.818   2.512   2.277
 2032SOL     OW 1828   1.938   2.673   2.651
 2032SOL    HW1 1829   2.037   2.661   2.660
 2032SOL    HW2 1830   1.914   2.768   2.672
 2034SOL     OW 1831   2.727   2.210   2.057
 2034SOL    HW1 1832   2.786   2.273   2.008
 2034SOL    HW2 1833   2.746   2.116   2.028
 2036SOL     OW 1834   3.224   3.006   2.407
 2036SOL    HW1 1835   3.307   2.977   2.359
 2036SOL    HW2 1836   3.175   3.073   2.351
 2037SOL     OW 1837   2.412   2.058   2.747
 2037SOL    HW1 1838   2.407   2.053   2.847
 2037SOL    HW2 1839   2.414   2.154   2.718
 2038SOL     OW 1840   2.870   3.318   2.339
 2038SOL    HW1 1841   2.824   3.390   2.287
 2038SOL    HW2 1842   2.866   3.338   2.437
 2039SOL     OW 1843   2.213   3.663   2.715
 2039SOL    HW1 1844   2.263   3.577   2.721
 2039SOL    HW2 1845   2.278   3.740   2.712
 2040SOL     OW 1846   3.657   2.928   2.735
 2040SOL    HW1 1847   3.595   2.913   2.659
 2040SOL    HW2 1848   3.605   2.939   2.820
 2041SOL     OW 1849   3.089   3.412   3.368
 2041SOL    HW1 1850   3.095   3.335   3.432
 2041SOL    HW2 1851   3.037   3.386   3.288
 2042SOL     OW 1852   2.183   2.805   2.104
 2042SOL    HW1 1853   2.265   2.844   2.062
 2042SOL    HW2 1854   2.156   2.723   2.055
 2043SOL     OW 1855   3.320   2.597   2.590
 2043SOL    HW1 1856   3.315   2.532   2.665
 2043SOL    HW2 1857   3.400   2.656   2.603
 2044SOL     OW 1858   2.323   3.128   3.589
 2044SOL    HW1 1859   2.273   3.129   3.503
 2044SOL    HW2 1860   2.260   3.110   3.665
 2045SOL     OW 1861   2.973   3.638   2.099
 2045SOL    HW1 1862   2.913   3.576   2.149
 2045SOL    HW2 1863   3.004   3.594   2.014
 2046SOL     OW 1864   2.064   2.147   3.360
 2046SOL    HW1 1865   1.984   2.207   3.347
 2046SOL    HW2 1866   2.054   2.098   3.446
 2047SOL     OW 1867   3.494   3.239   1.943
 2047SOL    HW1 1868   3.462   3.333   1.933
 2047SOL    HW2 1869   3.418   3.176   1.931
 2048SOL     OW 1870   2.326   3.605   2.185
 2048SOL    HW1 1871   2.359   3.644   2.271
 2048SOL    HW2 1872   2.402   3.598   2.120
 2049SOL     OW 1873   3.262   1.969   2.288
 2049SOL    HW1 1874   3.238   1.932   2.198
 2049SOL    HW2 1875   3.361   1.985   2.292
 2050SOL     OW 1876   2.111   3.647   3.103
 2050SOL    HW1 1877   2.168   3.582   3.153
 2050SOL    HW2 1878   2.095   3.614   3.010
 2051SOL     OW 1879   2.802   3.560   2.766
 2051SOL    HW1 1880   2.882   3.503   2.787
 2051SOL    HW2 1881   2.753   3.520   2.689
 2052SOL     OW 1882   3.409   2.084   3.591
 2052SOL    HW1 1883   3.404   2.121   3.683
 2052SOL    HW2 1884   3.337   2.015   3.579
 2053SOL     OW 1885   2.476   1.984   1.979
 2053SOL    HW1 1886   2.574   1.962   1.986
 2053SOL    HW2 1887   2.445   1.967   1.886
 2054SOL     OW 1888   2.643   2.126   3.611
 2054SOL    HW1 1889   2.710   2.065   3.654
 2054SOL    HW2 1890   2.570   2.145   3.676
 2055SOL     OW 1891   2.750   3.376   3.057
 2055SOL    HW1 1892   2.727   3.351   2.963
 2055SOL    HW2 1893   2.811   3.307   3.096
 2056SOL     OW 1894   3.213   2.452   3.295
 2056SOL    HW1 1895   3.241   2.409   3.380
 2056SOL    HW2 1896   3.238   2.548   3.296
 2057SOL     OW 1897   2.665   3.264   2.786
 2057SOL    HW1 1898   2.755   3.278   2.744
 2057SOL    HW2 1899   2.594   3.266   2.715
 2058SOL     OW 1900   2.784   2.365   2.761
 2058SOL    HW1 1901   2.759   2.356   2.665
 2058SOL    HW2 1902   2.832   2.283   2.792
 2059SOL     OW 1903   3.296   3.050   1.903
 2059SOL    HW1 1904   3.328   2.974   1.960
 2059SOL    HW2 1905   3.204   3.077   1.933
 2060SOL     OW 1906   2.159   1.897   2.033
 2060SOL    HW1 1907   2.208   1.981   2.012
 2060SOL    HW2 1908   2.221   1.832   2.078
 2061SOL     OW 1909   2.797   2.098   2.342
 2061SOL    HW1 1910   2.749   2.139   2.264
 2061SOL    HW2 1911   2.896   2.096   2.323
 2062SOL     OW 1912   2.938   2.545   3.326
 2062SOL    HW1 1913   2.858   2.484   3.329
 2062SOL    HW2 1914   3.019   2.492   3.302
 2063SOL     OW 1915   3.089   3.432   2.655
 2063SOL    HW1 1916   3.110   3.506   2.590
 2063SOL    HW2 1917   3.157   3.432   2.728
 2064SOL     OW 1918   2.321   3.014   2.603
 2064SOL    HW1 1919   2.250   2.987   2.668
 2064SOL    HW2 1920   2.295   2.986   2.510
 2065SOL     OW 1921   3.133   3.659   2.453
 2065SOL    HW1 1922   3.177   3.723   2.389
 2065SOL    HW2 1923   3.083   3.711   2.523
 2066SOL     OW 1924   2.894   2.411   1.878
 2066SOL    HW1 1925   2.853   2.493   1.839
 2066SOL    HW2 1926   2.958   2.437   1.951
 2067SOL     OW 1927   1.940   2.418   3.248
 2067SOL    HW1 1928   2.032   2.417   3.207
 2067SOL    HW2 1929   1.934   2.492   3.315
 2068SOL     OW 1930   2.423   2.084   3.009
 2068SOL    HW1 1931   2.461   2.000   3.046
 2068SOL    HW2 1932   2.335   2.103   3.053
 2069SOL     OW 1933   2.728   2.316   2.504
 2069SOL    HW1 1934   2.696   2.388   2.442
 2069SOL    HW2 1935   2.752   2.235   2.451
 2070SOL     OW 1936   2.879   1.901   2.615
 2070SOL    HW1 1937   2.807   1.906   2.546
 2070SOL    HW2 1938   2.855   1.832   2.684
 2071SOL     OW 1939   3.291   3.035   2.729
 2071SOL    HW1 1940   3.236   2.951   2.722
 2071SOL    HW2 1941   3.317   3.064   2.637
 2072SOL     OW 1942   3.328   2.452   2.854
 2072SOL    HW1 1943   3.298   2.357   2.861
 2072SOL    HW2 1944   3.401   2.468   2.920
 2073SOL     OW 1945   3.719   2.695   2.239
 2073SOL    HW1 1946   3.761   2.631   2.303
 2073SOL    HW2 1947   3.681   2.644   2.161
 2074SOL     OW 1948   2.350   3.247   2.036
 2074SOL    HW1 1949   2.263   3.232   2.083
 2074SOL    HW2 1950   2.333   3.273   1.941
 2075SOL     OW 1951   3.526   3.142   2.519
 2075SOL    HW1 1952   3.625   3.150   2.533
 2075SOL    HW2 1953   3.481   3.226   2.550
 2076SOL     OW 1954   3.252   2.437   1.940
 2076SOL    HW1 1955   3.198   2.416   2.021
 2076SOL    HW2 1956   3.343   2.396   1.949
 2078SOL     OW 1957   2.926   3.209   3.202
 2078SOL    HW1 1958   2.846   3.186   3.257
 2078SOL    HW2 1959   3.009   3.183   3.251
 2080SOL     OW 1960   2.973   3.057   2.962
 2080SOL    HW1 1961   2.933   3.101   3.043
 2080SOL    HW2 1962   2.932   3.094   2.879
 2081SOL     OW 1963   3.500   2.961   2.941
 2081SOL    HW1 1964   3.505   3.042   3.000
 2081SOL    HW2 1965   3.414   2.963   2.890
 2082SOL     OW 1966   2.777   1.951   3.264
 2082SOL    HW1 1967   2.802   1.931   3.169
 2082SOL    HW2 1968   2.849   2.007   3.306
 2083SOL     OW 1969   2.842   2.978   3.581
 2083SOL    HW1 1970   2.743   2.984   3.591
 2083SOL    HW2 1971   2.865   2.898   3.525
 2084SOL     OW 1972   2.567   2.912   2.230
 2084SOL    HW1 1973   2.553   2.919   2.329
 2084SOL    HW2 1974   2.651   2.861   2.212
 2085SOL     OW 1975   2.272   2.675   3.113
 2085SOL    HW1 1976   2.358   2.687   3.163
 2085SOL    HW2 1977   2.230   2.588   3.140
 2086SOL     OW 1978   3.136   2.248   3.124
 2086SOL    HW1 1979   3.157   2.322   3.188
 2086SOL    HW2 1980   3.047   2.265   3.081
 2087SOL     OW 1981   1.926   3.426   3.193
 2087SOL    HW1 1982   1.880   3.508   3.159
 2087SOL    HW2 1983   2.024   3.445   3.202
 2088SOL     OW 1984   2.229   2.962   2.363
 2088SOL    HW1 1985   2.222   3.045   2.307
 2088SOL    HW2 1986   2.233   2.882   2.303
 2089SOL     OW 1987   2.428   2.399   2.727
 2089SOL    HW1 1988   2.440   2.465   2.653
 2089SOL    HW2 1989   2.474   2.433   2.810
 2090SOL     OW 1990   3.114   3.210   2.250
 2090SOL    HW1 1991   3.164   3.287   2.290
 2090SOL    HW2 1992   3.019   3.212   2.282
 2091SOL     OW 1993   3.134   3.307   3.004
 2091SOL    HW1 1994   3.181   3.320   3.091
 2091SOL    HW2 1995   3.068   3.233   3.013
 2092SOL     OW 1996   3.444   2.501   2.334
 2092SOL    HW1 1997   3.413   2.562   2.407
 2092SOL    HW2 1998   3.494   2.553   2.265
 2093SOL     OW 1999   2.216   3.372   3.191
 2093SOL    HW1 2000   2.195   3.328   3.104
 2093SOL    HW2 2001   2.313   3.398   3.194
 2094SOL     OW 2002   2.264   2.613   3.460
 2094SOL    HW1 2003   2.332   2.668   3.413
 2094SOL    HW2 2004   2.304   2.525   3.487
 2095SOL     OW 2005   3.449   2.641   3.532
 2095SOL    HW1 2006   3.357   2.679   3.527
 2095SOL    HW2 2007   3.509   2.688   3.467
 2096SOL     OW 2008   2.875   1.967   3.632
 2096SOL    HW1 2009   2.881   2.052   3.580
 2096SOL    HW2 2010   2.907   1.891   3.575
 2097SOL     OW 2011   2.366   1.912   3.602
 2097SOL    HW1 2012   2.324   1.855   3.532
 2097SOL    HW2 2013   2.300   1.981   3.634
 2098SOL     OW 2014   2.435   2.732   2.891
 2098SOL    HW1 2015   2.479   2.821   2.882
 2098SOL    HW2 2016   2.372   2.732   2.968
 2099SOL     OW 2017   3.222   2.724   2.907
 2099SOL    HW1 2018   3.147   2.724   2.841
 2099SOL    HW2 2019   3.259   2.632   2.916
 2100SOL     OW 2020   3.071   2.387   2.137
 2100SOL    HW1 2021   3.084   2.303   2.191
 2100SOL    HW2 2022   3.042   2.461   2.197
 2101SOL     OW 2023   2.169   2.075   3.093
 2101SOL    HW1 2024   2.146   2.112   3.183
 2101SOL    HW2 2025   2.139   1.980   3.087
 2102SOL     OW 2026   1.899   3.172   3.144
 2102SOL    HW1 2027   1.952   3.123   3.212
 2102SOL    HW2 2028   1.921   3.270   3.149
 2103SOL     OW 2029   2.594   2.496   2.926
 2103SOL    HW1 2030   2.653   2.470   2.850
 2103SOL    HW2 2031   2.566   2.592   2.915
 2105SOL     OW 2032   2.169   1.925   2.480
 2105SOL    HW1 2033   2.158   2.019   2.513
 2105SOL    HW2 2034   2.164   1.862   2.557
 2106SOL     OW 2035   3.484   2.229   2.236
 2106SOL    HW1 2036   3.486   2.153   2.300
 2106SOL    HW2 2037   3.436   2.306   2.276
 2107SOL     OW 2038   2.885   2.628   2.828
 2107SOL    HW1 2039   2.900   2.649   2.924
 2107SOL    HW2 2040   2.855   2.533   2.819
 2110SOL     OW 2041   2.212   2.760   3.666
 2110SOL    HW1 2042   2.288   2.804   3.714
 2110SOL    HW2 2043   2.247   2.713   3.584
 2111SOL     OW 2044   3.402   2.136   1.987
 2111SOL    HW1 2045   3.341   2.061   2.010
 2111SOL    HW2 2046   3.424   2.188   2.070
 2112SOL     OW 2047   3.165   2.700   1.904
 2112SOL    HW1 2048   3.199   2.607   1.919
 2112SOL    HW2 2049   3.183   2.727   1.809
 2113SOL     OW 2050   2.930   3.195   2.711
 2113SOL    HW1 2051   2.937   3.111   2.656
 2113SOL    HW2 2052   2.992   3.264   2.675
 2114SOL     OW 2053   2.181   2.672   2.811
 2114SOL    HW1 2054   2.274   2.708   2.816
 2114SOL    HW2 2055   2.175   2.587   2.863
 2115SOL     OW 2056   2.201   2.371   2.868
 2115SOL    HW1 2057   2.149   2.288   2.851
 2115SOL    HW2 2058   2.278   2.376   2.804
 2116SOL     OW 2059   3.000   2.242   3.540
 2116SOL    HW1 2060   2.955   2.305   3.604
 2116SOL    HW2 2061   3.093   2.273   3.523
 2117SOL     OW 2062   3.022   2.069   3.339
 2117SOL    HW1 2063   3.022   2.133   3.416
 2117SOL    HW2 2064   3.050   2.117   3.256
 2118SOL     OW 2065   1.870   3.188   2.062
 2118SOL    HW1 2066   1.777   3.209   2.031
 2118SOL    HW2 2067   1.880   3.089   2.075
 2119SOL     OW 2068   1.950   3.663   2.789
 2119SOL    HW1 2069   1.908   3.577   2.762
 2119SOL    HW2 2070   2.044   3.666   2.755
 2120SOL     OW 2071   2.366   3.430   2.772
 2120SOL    HW1 2072   2.432   3.504   2.781
 2120SOL    HW2 2073   2.410   3.351   2.730
 2121SOL     OW 2074   2.864   2.658   3.100
 2121SOL    HW1 2075   2.905   2.626   3.186
 2121SOL    HW2 2076   2.768   2.631   3.097
 2122SOL     OW 2077   1.902   2.406   2.976
 2122SOL    HW1 2078   1.987   2.373   2.935
 2122SOL    HW2 2079   1.915   2.421   3.074
 2123SOL     OW 2080   2.051   2.382   3.584
 2123SOL    HW1 2081   2.110   2.342   3.514
 2123SOL    HW2 2082   1.993   2.453   3.543
 2124SOL     OW 2083   3.231   2.812   3.522
 2124SOL    HW1 2084   3.270   2.901   3.542
 2124SOL    HW2 2085   3.241   2.792   3.425
 2125SOL     OW 2086   2.677   2.434   2.187
 2125SOL    HW1 2087   2.684   2.345   2.141
 2125SOL    HW2 2088   2.583   2.468   2.179
 2126SOL     OW 2089   3.519   2.466   3.068
 2126SOL    HW1 2090   3.481   2.397   3.130
 2126SOL    HW2 2091   3.601   2.430   3.024
 2127SOL     OW 2092   2.114   3.426   3.606
 2127SOL    HW1 2093   2.084   3.483   3.682
 2127SOL    HW2 2094   2.107   3.329   3.632
 2128SOL     OW 2095   2.533   2.326   3.131
 2128SOL    HW1 2096   2.499   2.237   3.101
 2128SOL    HW2 2097   2.559   2.380   3.051
 2129SOL     OW 2098   2.792   3.540   3.327
 2129SOL    HW1 2099   2.768   3.522   3.232
 2129SOL    HW2 2100   2.822   3.634   3.337
 2130SOL     OW 2101   2.021   2.999   3.328
 2130SOL    HW1 2102   2.043   2.938   3.404
 2130SOL    HW2 2103   2.031   2.950   3.242
 2131SOL     OW 2104   3.209   2.921   3.096
 2131SOL    HW1 2105   3.233   2.858   3.022
 2131SOL    HW2 2106   3.119   2.961   3.078
 2132SOL     OW 2107   3.164   2.717   2.171
 2132SOL    HW1 2108   3.078   2.686   2.213
 2132SOL    HW2 2109   3.160   2.703   2.072
 2134SOL     OW 2110   3.114   3.593   2.990
 2134SOL    HW1 2111   3.198   3.598   2.936
 2134SOL    HW2 2112   3.091   3.497   3.008
 2135SOL     OW 2113   1.945   3.120   2.884
 2135SOL    HW1 2114   1.940   3.119   2.984
 2135SOL    HW2 2115   1.862   3.079   2.846
 2137SOL     OW 2116   3.588   1.997   2.385
 2137SOL    HW1 2117   3.661   1.980   2.318
 2137SOL    HW2 2118   3.557   1.910   2.423
 2138SOL     OW 2119   3.250   3.435   2.339
 2138SOL    HW1 2120   3.317   3.447   2.265
 2138SOL    HW2 2121   3.210   3.524   2.362
 2140SOL     OW 2122   3.142   2.789   2.534
 2140SOL    HW1 2123   3.202   2.708   2.536
 2140SOL    HW2 2124   3.182   2.858   2.474
 2141SOL     OW 2125   2.692   3.135   3.284
 2141SOL    HW1 2126   2.687   3.168   3.379
 2141SOL    HW2 2127   2.606   3.154   3.238
 2142SOL     OW 2128   2.534   3.478   2.016
 2142SOL    HW1 2129   2.543   3.488   1.917
 2142SOL    HW2 2130   2.494   3.389   2.037
 2144SOL     OW 2131   3.703   2.037   2.825
 2144SOL    HW1 2132   3.742   1.952   2.789
 2144SOL    HW2 2133   3.605   2.039   2.806
 2145SOL     OW 2134   2.125   2.188   2.582
 2145SOL    HW1 2135   2.046   2.239   2.548
 2145SOL    HW2 2136   2.116   2.173   2.680
 2146SOL     OW 2137   3.056   3.474   1.893
 2146SOL    HW1 2138   3.062   3.381   1.930
 2146SOL    HW2 2139   2.997   3.474   1.813
 2147SOL     OW 2140   2.684   2.864   3.234
 2147SOL    HW1 2141   2.724   2.863   3.142
 2147SOL    HW2 2142   2.694   2.956   3.274
 2148SOL     OW 2143   2.778   2.772   2.153
 2148SOL    HW1 2144   2.841   2.810   2.085
 2148SOL    HW2 2145   2.818   2.689   2.192
 2149SOL     OW 2146   3.366   3.469   1.906
 2149SOL    HW1 2147   3.274   3.506   1.913
 2149SOL    HW2 2148   3.404   3.489   1.816
 2150SOL     OW 2149   2.234   3.150   3.352
 2150SOL    HW1 2150   2.221   3.243   3.318
 2150SOL    HW2 2151   2.150   3.098   3.339
 2151SOL     OW 2152   3.476   3.154   3.151
 2151SOL    HW1 2153   3.536   3.157   3.231
 2151SOL    HW2 2154   3.401   3.218   3.164
 2152SOL     OW 2155   2.901   2.960   2.558
 2152SOL    HW1 2156   2.831   2.913   2.612
 2152SOL    HW2 2157   2.960   2.892   2.515
 2153SOL     OW 2158   2.876   2.098   2.833
 2153SOL    HW1 2159   2.868   2.062   2.740
 2153SOL    HW2 2160   2.874   2.022   2.898
 2154SOL     OW 2161   2.452   3.349   2.353
 2154SOL    HW1 2162   2.494   3.291   2.283
 2154SOL    HW2 2163   2.408   3.428   2.309
 2155SOL     OW 2164   3.571   2.247   3.243
 2155SOL    HW1 2165   3.644   2.316   3.247
 2155SOL    HW2 2166   3.599   2.172   3.184
 2156SOL     OW 2167   2.117   3.210   2.152
 2156SOL    HW1 2168   2.021   3.211   2.125
 2156SOL    HW2 2169   2.129   3.263   2.236
 2157SOL     OW 2170   1.967   2.875   3.588
 2157SOL    HW1 2171   1.890   2.842   3.642
 2157SOL    HW2 2172   2.052   2.845   3.630
 2158SOL     OW 2173   2.534   2.065   3.351
 2158SOL    HW1 2174   2.624   2.049   3.311
 2158SOL    HW2 2175   2.542   2.070   3.450
 2159SOL     OW 2176   1.937   2.207   1.895
 2159SOL    HW1 2177   1.845   2.179   1.866
 2159SOL    HW2 2178   1.968   2.284   1.839
 2160SOL     OW 2179   3.302   2.718   3.260
 2160SOL    HW1 2180   3.245   2.770   3.197
 2160SOL    HW2 2181   3.398   2.730   3.236
 2161SOL     OW 2182   1.934   2.028   2.180
 2161SOL    HW1 2183   1.917   2.111   2.126
 2161SOL    HW2 2184   2.024   1.991   2.158
 2162SOL     OW 2185   3.045   3.197   1.981
 2162SOL    HW1 2186   2.946   3.186   1.983
 2162SOL    HW2 2187   3.079   3.212   2.074
 2163SOL     OW 2188   2.475   2.704   3.293
 2163SOL    HW1 2189   2.531   2.785   3.276
 2163SOL    HW2 2190   2.534   2.624   3.296
 2165SOL     OW 2191   2.578   2.427   3.570
 2165SOL    HW1 2192   2.597   2.492   3.644
 2165SOL    HW2 2193   2.638   2.347   3.579
 2167SOL     OW 2194   2.252   3.603   3.422
 2167SOL    HW1 2195   2.161   3.644   3.420
 2167SOL    HW2 2196   2.245   3.509   3.454
 2168SOL     OW 2197   3.536   2.745   3.116
 2168SOL    HW1 2198   3.509   2.656   3.079
 2168SOL    HW2 2199   3.537   2.813   3.043
 2169SOL     OW 2200   3.087   2.187   2.311
 2169SOL    HW1 2201   3.152   2.113   2.300
 2169SOL    HW2 2202   3.107   2.237   2.395
 2170SOL     OW 2203   2.456   2.607   2.514
 2170SOL    HW1 2204   2.506   2.692   2.495
 2170SOL    HW2 2205   2.368   2.609   2.466
 2173SOL     OW 2206   2.721   3.236   1.878
 2173SOL    HW1 2207   2.675   3.251   1.966
 2173SOL    HW2 2208   2.765   3.321   1.848
 2174SOL     OW 2209   2.523   3.652   2.815
 2174SOL    HW1 2210   2.477   3.740   2.802
 2174SOL    HW2 2211   2.622   3.664   2.808
 2175SOL     OW 2212   2.721   2.818   2.723
 2175SOL    HW1 2213   2.775   2.749   2.771
 2175SOL    HW2 2214   2.689   2.887   2.789
 2176SOL     OW 2215   2.945   2.846   1.949
 2176SOL    HW1 2216   2.922   2.899   1.867
 2176SOL    HW2 2217   3.026   2.790   1.930
 2178SOL     OW 2218   2.083   3.176   3.706
 2178SOL    HW1 2219   2.018   3.103   3.685
 2178SOL    HW2 2220   2.087   3.190   3.804
 2179SOL     OW 2221   1.941   3.102   2.515
 2179SOL    HW1 2222   1.940   3.055   2.603
 2179SOL    HW2 2223   2.023   3.074   2.464
 2180SOL     OW 2224   2.534   3.253   3.486
 2180SOL    HW1 2225   2.456   3.203   3.524
 2180SOL    HW2 2226   2.531   3.348   3.517
 2181SOL     OW 2227   3.686   2.054   3.089
 2181SOL    HW1 2228   3.682   1.964   3.133
 2181SOL    HW2 2229   3.689   2.043   2.990
 2183SOL     OW 2230   2.179   2.409   3.142
 2183SOL    HW1 2231   2.217   2.350   3.214
 2183SOL    HW2 2232   2.219   2.383   3.054
 2184SOL     OW 2233   2.674   3.448   2.549
 2184SOL    HW1 2234   2.706   3.458   2.455
 2184SOL    HW2 2235   2.595   3.386   2.551
 2185SOL     OW 2236   3.286   2.076   2.974
 2185SOL    HW1 2237   3.338   2.011   3.029
 2185SOL    HW2 2238   3.237   2.139   3.035
 2186SOL     OW 2239   2.863   1.896   3.016
 2186SOL    HW1 2240   2.800   1.824   2.985
 2186SOL    HW2 2241   2.956   1.860   3.016
 2187SOL     OW 2242   2.632   3.192   2.163
 2187SOL    HW1 2243   2.586   3.105   2.180
 2187SOL    HW2 2244   2.723   3.189   2.204
 2188SOL     OW 2245   2.480   3.429   3.146
 2188SOL    HW1 2246   2.475   3.511   3.203
 2188SOL    HW2 2247   2.569   3.426   3.101
 2189SOL     OW 2248   3.214   1.914   2.030
 2189SOL    HW1 2249   3.249   1.873   1.946
 2189SOL    HW2 2250   3.124   1.876   2.050
 2190SOL     OW 2251   3.162   2.315   2.553
 2190SOL    HW1 2252   3.103   2.395   2.557
 2190SOL    HW2 2253   3.177   2.280   2.646
 2191SOL     OW 2254   3.455   2.083   2.744
 2191SOL    HW1 2255   3.371   2.082   2.798
 2191SOL    HW2 2256   3.457   2.166   2.688
 2192SOL     OW 2257   1.901   2.939   2.162
 2192SOL    HW1 2258   2.000   2.928   2.153
 2192SOL    HW2 2259   1.861   2.853   2.194
 2193SOL     OW 2260   2.737   3.508   2.199
 2193SOL    HW1 2261   2.660   3.473   2.145
 2193SOL    HW2 2262   2.705   3.579   2.261
 2194SOL     OW 2263   2.092   2.490   3.837
 2194SOL    HW1 2264   1.999   2.488   3.874
 2194SOL    HW2 2265   2.093   2.451   3.745
 2201SOL     OW 2266   2.468   2.826   3.847
 2201SOL    HW1 2267   2.475   2.910   3.793
 2201SOL    HW2 2268   2.514   2.839   3.935
 2211SOL     OW 2269   2.460   2.591   3.994
 2211SOL    HW1 2270   2.484   2.660   3.926
 2211SOL    HW2 2271   2.382   2.624   4.048
 2216SOL     OW 2272   2.727   2.210   3.919
 2216SOL    HW1 2273   2.786   2.273   3.870
 2216SOL    HW2 2274   2.746   2.116   3.890
 2221SOL     OW 2275   2.183   2.805   3.966
 2221SOL    HW1 2276   2.265   2.844   3.924
 2221SOL    HW2 2277   2.156   2.723   3.917
 2228SOL     OW 2278   2.476   1.984   3.841
 2228SOL    HW1 2279   2.574   1.962   3.848
 2228SOL    HW2 2280   2.445   1.967   3.748
 2231SOL     OW 2281   2.159   1.897   3.895
 2231SOL    HW1 2282   2.208   1.981   3.874
 2231SOL    HW2 2283   2.221   1.832   3.940
 2235SOL     OW 2284   2.894   2.411   3.740
 2235SOL    HW1 2285   2.853   2.493   3.701
 2235SOL    HW2 2286   2.958   2.437   3.813
 2241SOL     OW 2287   2.389   2.118   4.052
 2241SOL    HW1 2288   2.416   2.059   3.977
 2241SOL    HW2 2289   2.389   2.213   4.021
 2250SOL     OW 2290   3.165   2.700   3.766
 2250SOL    HW1 2291   3.199   2.607   3.781
 2250SOL    HW2 2292   3.183   2.727   3.671
 2254SOL     OW 2293   2.335   2.362   3.915
 2254SOL    HW1 2294   2.396   2.442   3.919
 2254SOL    HW2 2295   2.240   2.393   3.922
 2266SOL     OW 2296   1.937   2.207   3.757
 2266SOL    HW1 2297   1.845   2.179   3.728
 2266SOL    HW2 2298   1.968   2.284   3.701
 2274SOL     OW 2299   2.945   2.846   3.811
 2274SOL    HW1 2300   2.922   2.899   3.729
 2274SOL    HW2 2301   3.026   2.790   3.792
 2295SOL     OW 2302   2.179   3.975   1.801
 2295SOL    HW1 2303   2.250   4.046   1.807
 2295SOL    HW2 2304   2.091   4.014   1.829
 2331SOL     OW 2305   2.875   3.829   1.770
 2331SOL    HW1 2306   2.881   3.914   1.718
 2331SOL    HW2 2307   2.907   3.753   1.713
 2332SOL     OW 2308   2.366   3.774   1.740
 2332SOL    HW1 2309   2.324   3.717   1.670
 2332SOL    HW2 2310   2.300   3.843   1.772
 2387SOL     OW 2311   2.671   3.728   2.364
 2387SOL    HW1 2312   2.711   3.819   2.355
 2387SOL    HW2 2313   2.571   3.736   2.370
 2397SOL     OW 2314   2.412   3.920   2.747
 2397SOL    HW1 2315   2.407   3.915   2.847
 2397SOL    HW2 2316   2.414   4.016   2.718
 2403SOL     OW 2317   2.476   3.846   1.979
 2403SOL    HW1 2318   2.574   3.824   1.986
 2403SOL    HW2 2319   2.445   3.829   1.886
 2407SOL     OW 2320   2.401   3.788   2.374
 2407SOL    HW1 2321   2.320   3.789   2.432
 2407SOL    HW2 2322   2.404   3.871   2.319
 2408SOL     OW 2323   2.159   3.759   2.033
 2408SOL    HW1 2324   2.208   3.843   2.012
 2408SOL    HW2 2325   2.221   3.694   2.078
 2409SOL     OW 2326   2.797   3.960   2.342
 2409SOL    HW1 2327   2.749   4.001   2.264
 2409SOL    HW2 2328   2.896   3.958   2.323
 2415SOL     OW 2329   2.879   3.763   2.615
 2415SOL    HW1 2330   2.807   3.768   2.546
 2415SOL    HW2 2331   2.855   3.694   2.684
 2418SOL     OW 2332   2.389   3.980   2.190
 2418SOL    HW1 2333   2.416   3.921   2.115
 2418SOL    HW2 2334   2.389   4.075   2.159
 2433SOL     OW 2335   2.169   3.787   2.480
 2433SOL    HW1 2336   2.158   3.881   2.513
 2433SOL    HW2 2337   2.164   3.724   2.557
 2456SOL     OW 2338   1.934   3.890   2.180
 2456SOL    HW1 2339   1.917   3.973   2.126
 2456SOL    HW2 2340   2.024   3.853   2.158
 2467SOL     OW 2341   2.863   3.758   3.016
 2467SOL    HW1 2342   2.800   3.686   2.985
 2467SOL    HW2 2343   2.956   3.722   3.016
 2468SOL     OW 2344   3.214   3.776   2.030
 2468SOL    HW1 2345   3.249   3.735   1.946
 2468SOL    HW2 2346   3.124   3.738   2.050
 2537SOL     OW 2347   3.854   1.821   1.571
 2537SOL    HW1 2348   3.844   1.806   1.670
 2537SOL    HW2 2349   3.768   1.857   1.535
 2582SOL     OW 2350   3.854   1.794   1.851
 2582SOL    HW1 2351   3.813   1.720   1.904
 2582SOL    HW2 2352   3.918   1.845   1.909
 2613SOL     OW 2353   3.955   1.713   2.345
 2613SOL    HW1 2354   3.989   1.790   2.399
 2613SOL    HW2 2355   3.999   1.713   2.255
 2619SOL     OW 2356   3.751   1.596   1.979
 2619SOL    HW1 2357   3.732   1.500   2.000
 2619SOL    HW2 2358   3.718   1.654   2.054
 2661SOL     OW 2359   3.732   1.326   2.062
 2661SOL    HW1 2360   3.639   1.347   2.031
 2661SOL    HW2 2361   3.742   1.227   2.075
 2662SOL     OW 2362   3.812   1.801   2.789
 2662SOL    HW1 2363   3.770   1.715   2.762
 2662SOL    HW2 2364   3.906   1.804   2.755
 2752SOL     OW 2365   3.837   2.599   1.597
 2752SOL    HW1 2366   3.925   2.586   1.642
 2752SOL    HW2 2367   3.824   2.696   1.575
 2772SOL     OW 2368   3.802   2.418   1.386
 2772SOL    HW1 2369   3.894   2.417   1.345
 2772SOL    HW2 2370   3.796   2.492   1.453
 2795SOL     OW 2371   3.913   2.382   1.722
 2795SOL    HW1 2372   3.972   2.342   1.652
 2795SOL    HW2 2373   3.855   2.453   1.681
 2808SOL     OW 2374   3.829   2.875   1.726
 2808SOL    HW1 2375   3.752   2.842   1.780
 2808SOL    HW2 2376   3.914   2.845   1.768
 2824SOL     OW 2377   3.954   2.490   1.975
 2824SOL    HW1 2378   3.861   2.488   2.012
 2824SOL    HW2 2379   3.955   2.451   1.883
 2825SOL     OW 2380   3.949   2.137   2.858
 2825SOL    HW1 2381   3.984   2.120   2.950
 2825SOL    HW2 2382   3.861   2.092   2.846
 2826SOL     OW 2383   3.743   2.230   2.509
 2826SOL    HW1 2384   3.661   2.273   2.548
 2826SOL    HW2 2385   3.715   2.157   2.446
 2838SOL     OW 2386   3.846   2.505   2.425
 2838SOL    HW1 2387   3.801   2.417   2.442
 2838SOL    HW2 2388   3.845   2.559   2.509
 2846SOL     OW 2389   3.800   2.673   2.651
 2846SOL    HW1 2390   3.899   2.661   2.660
 2846SOL    HW2 2391   3.776   2.768   2.672
 2881SOL     OW 2392   3.732   3.188   2.062
 2881SOL    HW1 2393   3.639   3.209   2.031
 2881SOL    HW2 2394   3.742   3.089   2.075
 2884SOL     OW 2395   3.764   2.406   2.976
 2884SOL    HW1 2396   3.849   2.373   2.935
 2884SOL    HW2 2397   3.777   2.421   3.074
 2894SOL     OW 2398   3.987   2.188   2.582
 2894SOL    HW1 2399   3.908   2.239   2.548
 2894SOL    HW2 2400   3.978   2.173   2.680
 2901SOL     OW 2401   3.799   2.207   1.895
 2901SOL    HW1 2402   3.707   2.179   1.866
 2901SOL    HW2 2403   3.830   2.284   1.839
 2902SOL     OW 2404   3.796   2.028   2.180
 2902SOL    HW1 2405   3.779   2.111   2.126
 2902SOL    HW2 2406   3.886   1.991   2.158
 2908SOL     OW 2407   3.803   3.102   2.515
 2908SOL    HW1 2408   3.802   3.055   2.603
 2908SOL    HW2 2409   3.885   3.074   2.464
 2914SOL     OW 2410   3.763   2.939   2.162
 2914SOL    HW1 2411   3.862   2.928   2.153
 2914SOL    HW2 2412   3.723   2.853   2.194
   4.53782   4.53782   4.53782
