; mobley_1963873_GMX.top created by acpype (v: 2023.10.27) on Wed May 20 23:59:28 2026

[ defaults ]
; nbfunc        comb-rule       gen-pairs       fudgeLJ fudgeQQ
1               2               yes             0.5     0.8333333333

; Include mobley_1963873_GMX.itp topology
#include "mobley_1963873_GMX.itp"

; Ligand position restraints
#ifdef POSRES_LIG
#include "posre_mobley_1963873.itp"
#endif


#include "/home/carla/github/Solvation-openMM/DADES/common/SOL.TIP3P.itp"

[ system ]
mobley_1963873 in water

[ molecules ]
; Compound        nmols
 mobley_1963873   1     
SOL 800
