mobley_197466_GMX.gro created by acpype (v: 2023.10.27) on Wed May 20 23:52:05 2026
   14
    1MOL     C1    1   2.358   2.262   2.318
    1MOL     C2    2   2.123   2.361   2.292
    1MOL     C3    3   2.195   2.385   2.163
    1MOL     C4    4   2.227   2.265   2.246
    1MOL     C5    5   2.423   2.127   2.330
    1MOL     O1    6   2.406   2.365   2.364
    1MOL     H1    7   2.147   2.425   2.376
    1MOL     H2    8   2.018   2.332   2.287
    1MOL     H3    9   2.139   2.372   2.071
    1MOL     H4   10   2.268   2.465   2.160
    1MOL     H5   11   2.195   2.169   2.210
    1MOL     H6   12   2.357   2.059   2.384
    1MOL     H7   13   2.444   2.088   2.230
    1MOL     H8   14   2.517   2.137   2.384
   4.54446   4.54446   4.54446
