mobley_352111_GMX.gro created by acpype (v: 2023.10.27) on Wed May 20 23:52:54 2026
11279
    1MOL     C1    1   2.631   2.604   2.474
    1MOL     C2    2   2.227   2.260   2.382
    1MOL     C3    3   2.689   2.583   2.611
    1MOL     C4    4   2.270   2.119   2.409
    1MOL     C5    5   2.443   2.553   2.340
    1MOL     C6    6   2.311   2.478   2.347
    1MOL     O1    7   2.685   2.669   2.386
    1MOL     O2    8   2.111   2.295   2.369
    1MOL     O3    9   2.510   2.541   2.466
    1MOL     O4   10   2.337   2.341   2.373
    1MOL     H1   11   2.705   2.476   2.628
    1MOL     H2   12   2.622   2.625   2.686
    1MOL     H3   13   2.785   2.634   2.617
    1MOL     H4   14   2.323   2.114   2.505
    1MOL     H5   15   2.333   2.083   2.328
    1MOL     H6   16   2.181   2.055   2.416
    1MOL     H7   17   2.427   2.659   2.320
    1MOL     H8   18   2.507   2.510   2.263
    1MOL     H9   19   2.257   2.485   2.252
    1MOL    H10   20   2.249   2.517   2.428
    2SOL     OW   21   0.230   0.628   0.113
    2SOL    HW1   22   0.137   0.626   0.150
    2SOL    HW2   23   0.231   0.589   0.021
    3SOL     OW   24   0.225   0.275   0.996
    3SOL    HW1   25   0.260   0.258   1.088
    3SOL    HW2   26   0.137   0.230   0.984
    4SOL     OW   27   0.019   0.368   0.647
    4SOL    HW1   28  -0.063   0.411   0.686
    4SOL    HW2   29  -0.009   0.295   0.584
    5SOL     OW   30   0.569   1.275   1.165
    5SOL    HW1   31   0.476   1.268   1.128
    5SOL    HW2   32   0.580   1.364   1.209
    6SOL     OW   33   1.555   1.511   0.703
    6SOL    HW1   34   1.498   1.495   0.784
    6SOL    HW2   35   1.496   1.521   0.623
    7SOL     OW   36   1.135   0.703   0.717
    7SOL    HW1   37   1.192   0.781   0.692
    7SOL    HW2   38   1.075   0.729   0.793
    8SOL     OW   39   1.755   0.607   0.231
    8SOL    HW1   40   1.743   0.594   0.132
    8SOL    HW2   41   1.725   0.526   0.280
    9SOL     OW   42   0.768   1.144   1.023
    9SOL    HW1   43   0.690   1.161   1.083
    9SOL    HW2   44   0.802   1.231   0.987
   10SOL     OW   45   0.850   0.798   1.823
   10SOL    HW1   46   0.846   0.874   1.888
   10SOL    HW2   47   0.872   0.834   1.732
   11SOL     OW   48   0.685   1.012   0.665
   11SOL    HW1   49   0.754   0.996   0.735
   11SOL    HW2   50   0.612   1.069   0.703
   12SOL     OW   51   0.686   1.161   1.803
   12SOL    HW1   52   0.746   1.240   1.817
   12SOL    HW2   53   0.600   1.192   1.762
   13SOL     OW   54   0.335   1.435   1.061
   13SOL    HW1   55   0.257   1.404   1.008
   13SOL    HW2   56   0.393   1.493   1.004
   14SOL     OW   57   1.460   1.505   1.339
   14SOL    HW1   58   1.484   1.599   1.365
   14SOL    HW2   59   1.444   1.451   1.421
   15SOL     OW   60   0.438   0.392   1.499
   15SOL    HW1   61   0.520   0.336   1.508
   15SOL    HW2   62   0.357   0.334   1.503
   16SOL     OW   63   1.603   0.447   0.737
   16SOL    HW1   64   1.529   0.493   0.687
   16SOL    HW2   65   1.654   0.515   0.790
   17SOL     OW   66   0.231   1.713   0.483
   17SOL    HW1   67   0.265   1.790   0.537
   17SOL    HW2   68   0.275   1.713   0.393
   18SOL     OW   69   1.127   1.341   1.690
   18SOL    HW1   70   1.174   1.341   1.778
   18SOL    HW2   71   1.079   1.254   1.679
   19SOL     OW   72   0.230   1.434   0.538
   19SOL    HW1   73   0.204   1.530   0.538
   19SOL    HW2   74   0.159   1.380   0.583
   20SOL     OW   75   0.240   1.091   0.886
   20SOL    HW1   76   0.254   1.007   0.938
   20SOL    HW2   77   0.185   1.155   0.941
   21SOL     OW   78   0.620   1.786   1.439
   21SOL    HW1   79   0.528   1.769   1.474
   21SOL    HW2   80   0.648   1.878   1.465
   22SOL     OW   81   0.606   0.964   0.123
   22SOL    HW1   82   0.613   1.048   0.069
   22SOL    HW2   83   0.652   0.977   0.211
   23SOL     OW   84   1.594   0.114   1.480
   23SOL    HW1   85   1.576   0.181   1.408
   23SOL    HW2   86   1.591   0.160   1.569
   24SOL     OW   87   0.122   0.643   0.563
   24SOL    HW1   88   0.077   0.555   0.580
   24SOL    HW2   89   0.121   0.697   0.647
   25SOL     OW   90   1.842   1.767   0.359
   25SOL    HW1   91   1.896   1.738   0.439
   25SOL    HW2   92   1.872   1.857   0.330
   26SOL     OW   93   0.027   1.596   0.117
   26SOL    HW1   94   0.008   1.500   0.138
   26SOL    HW2   95  -0.006   1.654   0.192
   27SOL     OW   96   1.689   0.922   0.612
   27SOL    HW1   97   1.784   0.893   0.620
   27SOL    HW2   98   1.681   0.987   0.537
   28SOL     OW   99   1.641   1.108   0.432
   28SOL    HW1  100   1.727   1.110   0.380
   28SOL    HW2  101   1.655   1.155   0.520
   29SOL     OW  102   0.113   0.737   1.597
   29SOL    HW1  103   0.201   0.724   1.642
   29SOL    HW2  104   0.100   0.834   1.575
   30SOL     OW  105   0.613   1.365   0.726
   30SOL    HW1  106   0.564   1.278   0.735
   30SOL    HW2  107   0.590   1.408   0.639
   31SOL     OW  108   1.293   1.228   1.423
   31SOL    HW1  109   1.330   1.155   1.365
   31SOL    HW2  110   1.345   1.233   1.508
   32SOL     OW  111   0.809   0.004   0.502
   32SOL    HW1  112   0.849   0.095   0.493
   32SOL    HW2  113   0.709   0.012   0.508
   33SOL     OW  114   0.197   0.976   1.264
   33SOL    HW1  115   0.286   0.931   1.250
   33SOL    HW2  116   0.124   0.911   1.245
   34SOL     OW  117   1.525   0.999   0.190
   34SOL    HW1  118   1.462   0.923   0.203
   34SOL    HW2  119   1.573   1.017   0.276
   35SOL     OW  120   1.187   1.792   1.616
   35SOL    HW1  121   1.211   1.852   1.540
   35SOL    HW2  122   1.194   1.697   1.586
   36SOL     OW  123   0.317   0.251   1.801
   36SOL    HW1  124   0.388   0.322   1.807
   36SOL    HW2  125   0.229   0.290   1.829
   37SOL     OW  126   1.466   1.417   0.953
   37SOL    HW1  127   1.407   1.423   1.033
   37SOL    HW2  128   1.451   1.329   0.907
   38SOL     OW  129   1.667   1.714   0.572
   38SOL    HW1  130   1.626   1.691   0.484
   38SOL    HW2  131   1.649   1.640   0.637
   39SOL     OW  132   0.598   0.729   0.270
   39SOL    HW1  133   0.622   0.798   0.202
   39SOL    HW2  134   0.520   0.762   0.324
   40SOL     OW  135   1.281   0.345   0.944
   40SOL    HW1  136   1.195   0.295   0.931
   40SOL    HW2  137   1.343   0.291   1.000
   41SOL     OW  138   1.576   1.662   0.307
   41SOL    HW1  139   1.665   1.708   0.310
   41SOL    HW2  140   1.555   1.638   0.212
   42SOL     OW  141   0.807   0.605   1.465
   42SOL    HW1  142   0.760   0.602   1.554
   42SOL    HW2  143   0.756   0.550   1.399
   43SOL     OW  144   1.394   0.469   1.674
   43SOL    HW1  145   1.374   0.512   1.762
   43SOL    HW2  146   1.472   0.407   1.683
   44SOL     OW  147   0.973   0.890   1.572
   44SOL    HW1  148   1.019   0.806   1.543
   44SOL    HW2  149   0.917   0.924   1.497
   45SOL     OW  150   0.991   0.410   1.242
   45SOL    HW1  151   0.914   0.444   1.296
   45SOL    HW2  152   0.957   0.359   1.163
   46SOL     OW  153   1.041   0.701   0.429
   46SOL    HW1  154   1.067   0.697   0.525
   46SOL    HW2  155   0.956   0.650   0.415
   47SOL     OW  156   0.076   0.811   0.789
   47SOL    HW1  157   0.175   0.799   0.798
   47SOL    HW2  158   0.052   0.906   0.810
   48SOL     OW  159   0.130   1.821   1.571
   48SOL    HW1  160   0.120   1.806   1.670
   48SOL    HW2  161   0.044   1.857   1.535
   49SOL     OW  162   0.865   0.348   0.195
   49SOL    HW1  163   0.924   0.411   0.146
   49SOL    HW2  164   0.884   0.254   0.166
   50SOL     OW  165   1.719   0.585   1.831
   50SOL    HW1  166   1.693   0.674   1.795
   50SOL    HW2  167   1.717   0.517   1.758
   51SOL     OW  168   1.362   1.144   0.545
   51SOL    HW1  169   1.445   1.115   0.497
   51SOL    HW2  170   1.313   1.211   0.489
   52SOL     OW  171   0.550   0.196   0.885
   52SOL    HW1  172   0.545   0.191   0.985
   52SOL    HW2  173   0.552   0.292   0.856
   53SOL     OW  174   1.008   1.456   0.477
   53SOL    HW1  175   0.962   1.528   0.425
   53SOL    HW2  176   1.004   1.476   0.575
   54SOL     OW  177   0.351   1.801   0.853
   54SOL    HW1  178   0.401   1.715   0.859
   54SOL    HW2  179   0.416   1.878   0.850
   55SOL     OW  180   1.795   1.066   0.873
   55SOL    HW1  181   1.733   1.051   0.797
   55SOL    HW2  182   1.743   1.077   0.958
   56SOL     OW  183   1.227   1.550   1.506
   56SOL    HW1  184   1.233   1.473   1.570
   56SOL    HW2  185   1.175   1.524   1.426
   57SOL     OW  186   0.321   0.943   0.242
   57SOL    HW1  187   0.403   0.982   0.200
   57SOL    HW2  188   0.294   0.861   0.193
   58SOL     OW  189   1.458   0.735   0.728
   58SOL    HW1  190   1.453   0.670   0.803
   58SOL    HW2  191   1.538   0.794   0.741
   59SOL     OW  192   0.461   1.266   1.727
   59SOL    HW1  193   0.411   1.267   1.641
   59SOL    HW2  194   0.398   1.248   1.803
   60SOL     OW  195   1.111   1.776   0.237
   60SOL    HW1  196   1.051   1.714   0.287
   60SOL    HW2  197   1.142   1.732   0.152
   61SOL     OW  198   0.202   0.285   1.498
   61SOL    HW1  199   0.122   0.345   1.485
   61SOL    HW2  200   0.192   0.236   1.584
   62SOL     OW  201   1.632   1.377   0.081
   62SOL    HW1  202   1.600   1.471   0.071
   62SOL    HW2  203   1.556   1.314   0.069
   63SOL     OW  204   0.464   1.743   0.323
   63SOL    HW1  205   0.497   1.782   0.409
   63SOL    HW2  206   0.540   1.736   0.258
   64SOL     OW  207   1.400   0.107   0.426
   64SOL    HW1  208   1.376   0.070   0.336
   64SOL    HW2  209   1.499   0.123   0.430
   65SOL     OW  210   0.249   1.785   1.241
   65SOL    HW1  211   0.306   1.720   1.291
   65SOL    HW2  212   0.233   1.752   1.148
   66SOL     OW  213   0.940   1.698   0.904
   66SOL    HW1  214   1.020   1.641   0.925
   66SOL    HW2  215   0.891   1.658   0.827
   67SOL     OW  216   0.382   0.700   0.480
   67SOL    HW1  217   0.427   0.610   0.477
   67SOL    HW2  218   0.288   0.689   0.513
   68SOL     OW  219   1.547   0.222   1.729
   68SOL    HW1  220   1.542   0.259   1.821
   68SOL    HW2  221   1.475   0.153   1.717
   69SOL     OW  222   0.614   0.122   0.117
   69SOL    HW1  223   0.712   0.100   0.124
   69SOL    HW2  224   0.583   0.105   0.024
   70SOL     OW  225   0.781   0.264   1.749
   70SOL    HW1  226   0.848   0.203   1.792
   70SOL    HW2  227   0.708   0.283   1.814
   71SOL     OW  228   0.888   1.514   1.195
   71SOL    HW1  229   0.865   1.489   1.101
   71SOL    HW2  230   0.949   1.445   1.234
   72SOL     OW  231   1.351   0.590   1.433
   72SOL    HW1  232   1.379   0.547   1.518
   72SOL    HW2  233   1.376   0.686   1.434
   73SOL     OW  234   0.803   1.402   0.924
   73SOL    HW1  235   0.893   1.416   0.882
   73SOL    HW2  236   0.732   1.404   0.853
   74SOL     OW  237   0.922   0.503   0.899
   74SOL    HW1  238   0.897   0.494   0.803
   74SOL    HW2  239   0.970   0.421   0.930
   75SOL     OW  240   0.539   0.064   0.512
   75SOL    HW1  241   0.458   0.065   0.570
   75SOL    HW2  242   0.542   0.147   0.457
   76SOL     OW  243   1.434   1.188   0.041
   76SOL    HW1  244   1.466   1.112   0.098
   76SOL    HW2  245   1.342   1.215   0.071
   77SOL     OW  246   0.297   0.035   0.171
   77SOL    HW1  247   0.346   0.119   0.150
   77SOL    HW2  248   0.359  -0.030   0.216
   78SOL     OW  249   0.935   0.236   0.480
   78SOL    HW1  250   0.887   0.277   0.402
   78SOL    HW2  251   1.034   0.234   0.461
   79SOL     OW  252   1.076   0.683   1.464
   79SOL    HW1  253   0.996   0.622   1.467
   79SOL    HW2  254   1.157   0.630   1.440
   80SOL     OW  255   1.227   1.570   0.793
   80SOL    HW1  256   1.248   1.644   0.728
   80SOL    HW2  257   1.295   1.570   0.866
   81SOL     OW  258   0.459   1.152   0.741
   81SOL    HW1  259   0.388   1.125   0.806
   81SOL    HW2  260   0.433   1.124   0.648
   82SOL     OW  261   1.271   1.797   0.591
   82SOL    HW1  262   1.315   1.861   0.527
   82SOL    HW2  263   1.221   1.849   0.661
   83SOL     OW  264   1.032   0.549   0.016
   83SOL    HW1  265   0.991   0.631  -0.023
   83SOL    HW2  266   1.096   0.575   0.089
   84SOL     OW  267   0.078   0.556   1.386
   84SOL    HW1  268   0.170   0.555   1.345
   84SOL    HW2  269   0.072   0.630   1.453
   85SOL     OW  270   0.561   0.222   1.147
   85SOL    HW1  271   0.599   0.138   1.184
   85SOL    HW2  272   0.473   0.241   1.191
   86SOL     OW  273   0.866   0.454   0.642
   86SOL    HW1  274   0.834   0.526   0.580
   86SOL    HW2  275   0.890   0.373   0.589
   87SOL     OW  276   1.017   0.039   0.753
   87SOL    HW1  277   0.945   0.044   0.684
   87SOL    HW2  278   0.993  -0.030   0.822
   88SOL     OW  279   1.429   1.173   0.867
   88SOL    HW1  280   1.374   1.089   0.860
   88SOL    HW2  281   1.455   1.202   0.775
   89SOL     OW  282   1.466   0.590   0.992
   89SOL    HW1  283   1.436   0.495   0.999
   89SOL    HW2  284   1.539   0.606   1.058
   90SOL     OW  285   1.857   0.833   0.377
   90SOL    HW1  286   1.899   0.769   0.441
   90SOL    HW2  287   1.819   0.782   0.299
   91SOL     OW  288   0.488   1.385   0.174
   91SOL    HW1  289   0.401   1.370   0.221
   91SOL    HW2  290   0.471   1.411   0.079
   92SOL     OW  291   1.664   1.280   0.657
   92SOL    HW1  292   1.763   1.288   0.671
   92SOL    HW2  293   1.619   1.364   0.688
   93SOL     OW  294   1.390   0.575   0.078
   93SOL    HW1  295   1.336   0.554   0.159
   93SOL    HW2  296   1.481   0.534   0.087
   94SOL     OW  297   0.527   0.256   0.328
   94SOL    HW1  298   0.554   0.197   0.253
   94SOL    HW2  299   0.527   0.351   0.297
   95SOL     OW  300   1.754   1.223   1.588
   95SOL    HW1  301   1.845   1.184   1.575
   95SOL    HW2  302   1.762   1.319   1.612
   96SOL     OW  303   1.064   1.347   1.340
   96SOL    HW1  304   0.984   1.324   1.395
   96SOL    HW2  305   1.147   1.321   1.389
   97SOL     OW  306   1.592   1.629   1.625
   97SOL    HW1  307   1.619   1.663   1.535
   97SOL    HW2  308   1.671   1.591   1.671
   98SOL     OW  309   1.111   1.195   1.100
   98SOL    HW1  310   1.071   1.239   1.181
   98SOL    HW2  311   1.070   1.232   1.017
   99SOL     OW  312   1.638   1.099   1.079
   99SOL    HW1  313   1.643   1.180   1.138
   99SOL    HW2  314   1.552   1.101   1.028
  100SOL     OW  315   0.915   0.089   1.402
  100SOL    HW1  316   0.940   0.069   1.307
  100SOL    HW2  317   0.987   0.145   1.444
  101SOL     OW  318   0.980   1.116   1.719
  101SOL    HW1  319   0.881   1.122   1.729
  101SOL    HW2  320   1.003   1.036   1.663
  102SOL     OW  321   0.705   1.050   0.368
  102SOL    HW1  322   0.691   1.057   0.467
  102SOL    HW2  323   0.789   0.999   0.350
  103SOL     OW  324   0.410   0.813   1.251
  103SOL    HW1  325   0.496   0.825   1.301
  103SOL    HW2  326   0.368   0.726   1.278
  104SOL     OW  327   1.274   0.386   1.262
  104SOL    HW1  328   1.295   0.460   1.326
  104SOL    HW2  329   1.185   0.403   1.219
  105SOL     OW  330   0.064   1.564   1.331
  105SOL    HW1  331   0.018   1.646   1.297
  105SOL    HW2  332   0.162   1.583   1.340
  106SOL     OW  333   0.367   1.100   0.501
  106SOL    HW1  334   0.360   1.183   0.445
  106SOL    HW2  335   0.371   1.020   0.441
  107SOL     OW  336   0.566   0.537   0.865
  107SOL    HW1  337   0.578   0.603   0.791
  107SOL    HW2  338   0.612   0.571   0.948
  108SOL     OW  339   1.252   1.348   0.388
  108SOL    HW1  340   1.302   1.425   0.428
  108SOL    HW2  341   1.157   1.350   0.420
  109SOL     OW  342   1.272   1.445   1.142
  109SOL    HW1  343   1.319   1.458   1.229
  109SOL    HW2  344   1.206   1.371   1.151
  110SOL     OW  345   1.582   0.639   0.472
  110SOL    HW1  346   1.551   0.700   0.545
  110SOL    HW2  347   1.632   0.691   0.403
  111SOL     OW  348   0.354   1.510   1.329
  111SOL    HW1  349   0.333   1.466   1.242
  111SOL    HW2  350   0.451   1.536   1.332
  112SOL     OW  351   0.402   0.751   1.598
  112SOL    HW1  352   0.470   0.806   1.551
  112SOL    HW2  353   0.442   0.663   1.625
  113SOL     OW  354   1.587   0.779   1.670
  113SOL    HW1  355   1.495   0.817   1.665
  113SOL    HW2  356   1.647   0.826   1.605
  114SOL     OW  357   1.013   0.105   1.770
  114SOL    HW1  358   1.019   0.190   1.718
  114SOL    HW2  359   1.045   0.029   1.713
  115SOL     OW  360   0.504   0.050   1.740
  115SOL    HW1  361   0.462  -0.007   1.670
  115SOL    HW2  362   0.438   0.119   1.772
  116SOL     OW  363   0.573   0.870   1.029
  116SOL    HW1  364   0.617   0.959   1.020
  116SOL    HW2  365   0.510   0.870   1.106
  117SOL     OW  366   1.360   0.862   1.045
  117SOL    HW1  367   1.285   0.862   0.979
  117SOL    HW2  368   1.397   0.770   1.054
  118SOL     OW  369   1.209   0.525   0.275
  118SOL    HW1  370   1.222   0.441   0.329
  118SOL    HW2  371   1.180   0.599   0.335
  119SOL     OW  372   0.307   0.213   1.231
  119SOL    HW1  373   0.284   0.250   1.321
  119SOL    HW2  374   0.277   0.118   1.225
  120SOL     OW  375   0.037   1.310   1.282
  120SOL    HW1  376   0.090   1.261   1.350
  120SOL    HW2  377   0.059   1.408   1.287
  121SOL     OW  378   0.732   0.634   1.064
  121SOL    HW1  379   0.791   0.608   0.988
  121SOL    HW2  380   0.704   0.730   1.053
  122SOL     OW  381   1.728   0.935   1.854
  122SOL    HW1  382   1.682   0.928   1.765
  122SOL    HW2  383   1.666   0.979   1.920
  123SOL     OW  384   0.307   0.063   0.618
  123SOL    HW1  385   0.296   0.157   0.651
  123SOL    HW2  386   0.302   0.000   0.695
  124SOL     OW  387   1.622   0.367   0.374
  124SOL    HW1  388   1.624   0.291   0.438
  124SOL    HW2  389   1.574   0.444   0.414
  125SOL     OW  390   1.023   0.766   0.966
  125SOL    HW1  391   1.038   0.787   1.062
  125SOL    HW2  392   0.993   0.671   0.957
  126SOL     OW  393   0.980   1.573   1.700
  126SOL    HW1  394   0.960   1.617   1.612
  126SOL    HW2  395   1.019   1.482   1.684
  127SOL     OW  396   1.859   1.518   1.605
  127SOL    HW1  397   1.873   1.545   1.510
  127SOL    HW2  398   1.942   1.540   1.658
  128SOL     OW  399   0.350   0.898   1.804
  128SOL    HW1  400   0.426   0.942   1.852
  128SOL    HW2  401   0.385   0.851   1.722
  129SOL     OW  402   1.540   0.274   0.125
  129SOL    HW1  403   1.479   0.199   0.148
  129SOL    HW2  404   1.562   0.326   0.208
  130SOL     OW  405   1.303   0.838   0.042
  130SOL    HW1  406   1.337   0.745   0.057
  130SOL    HW2  407   1.321   0.865  -0.053
  131SOL     OW  408   1.068   1.333   0.849
  131SOL    HW1  409   1.075   1.249   0.794
  131SOL    HW2  410   1.130   1.402   0.813
  132SOL     OW  411   0.319   0.810   0.949
  132SOL    HW1  412   0.412   0.846   0.954
  132SOL    HW2  413   0.313   0.725   1.001
  133SOL     OW  414   0.339   0.509   1.006
  133SOL    HW1  415   0.287   0.426   0.989
  133SOL    HW2  416   0.416   0.514   0.942
  134SOL     OW  417   1.138   0.380   1.678
  134SOL    HW1  418   1.093   0.443   1.742
  134SOL    HW2  419   1.231   0.411   1.661
  135SOL     OW  420   1.160   0.207   1.477
  135SOL    HW1  421   1.160   0.271   1.554
  135SOL    HW2  422   1.188   0.255   1.394
  136SOL     OW  423   0.008   1.326   0.200
  136SOL    HW1  424  -0.085   1.347   0.169
  136SOL    HW2  425   0.018   1.227   0.213
  137SOL     OW  426   0.088   1.801   0.927
  137SOL    HW1  427   0.046   1.715   0.900
  137SOL    HW2  428   0.182   1.804   0.893
  138SOL     OW  429   0.504   1.568   0.910
  138SOL    HW1  430   0.570   1.642   0.919
  138SOL    HW2  431   0.548   1.489   0.868
  139SOL     OW  432   1.002   0.796   1.238
  139SOL    HW1  433   1.043   0.764   1.324
  139SOL    HW2  434   0.906   0.769   1.235
  140SOL     OW  435   0.040   0.544   1.114
  140SOL    HW1  436   0.125   0.511   1.073
  140SOL    HW2  437   0.053   0.559   1.212
  141SOL     OW  438   0.189   0.520   1.722
  141SOL    HW1  439   0.248   0.480   1.652
  141SOL    HW2  440   0.131   0.591   1.681
  142SOL     OW  441   1.369   0.950   1.660
  142SOL    HW1  442   1.408   1.039   1.680
  142SOL    HW2  443   1.379   0.930   1.563
  143SOL     OW  444   0.815   0.572   0.325
  143SOL    HW1  445   0.822   0.483   0.279
  143SOL    HW2  446   0.721   0.606   0.317
  144SOL     OW  447   1.657   0.604   1.206
  144SOL    HW1  448   1.619   0.535   1.268
  144SOL    HW2  449   1.739   0.568   1.162
  145SOL     OW  450   0.252   1.564   1.744
  145SOL    HW1  451   0.222   1.621   1.820
  145SOL    HW2  452   0.245   1.467   1.770
  146SOL     OW  453   0.671   0.464   1.269
  146SOL    HW1  454   0.637   0.375   1.239
  146SOL    HW2  455   0.697   0.518   1.189
  147SOL     OW  456   0.930   1.678   1.465
  147SOL    HW1  457   0.906   1.660   1.370
  147SOL    HW2  458   0.960   1.772   1.475
  148SOL     OW  459   0.473   0.500   0.191
  148SOL    HW1  460   0.534   0.580   0.195
  148SOL    HW2  461   0.378   0.531   0.198
  149SOL     OW  462   0.159   1.137   1.466
  149SOL    HW1  463   0.181   1.076   1.542
  149SOL    HW2  464   0.169   1.088   1.380
  150SOL     OW  465   1.347   1.059   1.234
  150SOL    HW1  466   1.371   0.996   1.160
  150SOL    HW2  467   1.257   1.099   1.216
  151SOL     OW  468   1.302   0.855   0.309
  151SOL    HW1  469   1.216   0.824   0.351
  151SOL    HW2  470   1.298   0.841   0.210
  152SOL     OW  471   1.759   1.747   1.154
  152SOL    HW1  472   1.820   1.777   1.081
  152SOL    HW2  473   1.721   1.658   1.132
  153SOL     OW  474   1.252   1.731   1.128
  153SOL    HW1  475   1.336   1.736   1.074
  153SOL    HW2  476   1.229   1.635   1.146
  154SOL     OW  477   0.083   1.258   1.022
  154SOL    HW1  478   0.078   1.257   1.122
  154SOL    HW2  479   0.000   1.217   0.984
  155SOL     OW  480   0.688   1.662   1.716
  155SOL    HW1  481   0.632   1.743   1.725
  155SOL    HW2  482   0.740   1.666   1.630
  156SOL     OW  483   0.903   0.086   0.133
  156SOL    HW1  484   0.954   0.087   0.047
  156SOL    HW2  485   0.959   0.044   0.204
  157SOL     OW  486   1.726   0.135   0.523
  157SOL    HW1  487   1.799   0.118   0.456
  157SOL    HW2  488   1.695   0.048   0.561
  158SOL     OW  489   1.388   1.573   0.477
  158SOL    HW1  490   1.455   1.585   0.403
  158SOL    HW2  491   1.348   1.662   0.500
  159SOL     OW  492   0.130   1.794   1.851
  159SOL    HW1  493   0.089   1.720   1.904
  159SOL    HW2  494   0.194   1.845   1.909
  160SOL     OW  495   1.280   0.927   0.672
  160SOL    HW1  496   1.340   0.846   0.674
  160SOL    HW2  497   1.320   0.996   0.612
  161SOL     OW  498   0.830   1.273   1.422
  161SOL    HW1  499   0.825   1.306   1.517
  161SOL    HW2  500   0.744   1.292   1.376
  162SOL     OW  501   0.672   1.616   0.154
  162SOL    HW1  502   0.681   1.626   0.055
  162SOL    HW2  503   0.632   1.527   0.175
  163SOL     OW  504   1.650   1.720   1.394
  163SOL    HW1  505   1.703   1.730   1.310
  163SOL    HW2  506   1.623   1.810   1.428
  164SOL     OW  507   1.841   0.175   0.963
  164SOL    HW1  508   1.880   0.090   0.927
  164SOL    HW2  509   1.743   0.177   0.944
  165SOL     OW  510   0.263   0.326   0.720
  165SOL    HW1  511   0.184   0.377   0.686
  165SOL    HW2  512   0.254   0.311   0.818
  166SOL     OW  513   1.194   1.612   0.031
  166SOL    HW1  514   1.200   1.519   0.068
  166SOL    HW2  515   1.135   1.612  -0.049
  167SOL     OW  516   0.822   1.002   1.372
  167SOL    HW1  517   0.862   1.001   1.280
  167SOL    HW2  518   0.832   1.094   1.412
  168SOL     OW  519   0.916   0.910   0.291
  168SOL    HW1  520   0.979   0.948   0.223
  168SOL    HW2  521   0.956   0.827   0.330
  169SOL     OW  522   1.504   1.607   0.044
  169SOL    HW1  523   1.412   1.644   0.051
  169SOL    HW2  524   1.542   1.627  -0.046
  170SOL     OW  525   0.372   1.288   1.490
  170SOL    HW1  526   0.359   1.381   1.456
  170SOL    HW2  527   0.288   1.236   1.477
  171SOL     OW  528   1.614   1.292   1.289
  171SOL    HW1  529   1.674   1.295   1.369
  171SOL    HW2  530   1.539   1.356   1.302
  172SOL     OW  531   1.039   1.098   0.696
  172SOL    HW1  532   0.969   1.051   0.750
  172SOL    HW2  533   1.098   1.030   0.653
  173SOL     OW  534   1.014   0.236   0.971
  173SOL    HW1  535   1.006   0.200   0.878
  173SOL    HW2  536   1.012   0.160   1.036
  174SOL     OW  537   0.590   1.487   0.491
  174SOL    HW1  538   0.632   1.429   0.421
  174SOL    HW2  539   0.546   1.566   0.447
  175SOL     OW  540   1.709   0.385   1.381
  175SOL    HW1  541   1.782   0.454   1.385
  175SOL    HW2  542   1.737   0.310   1.322
  176SOL     OW  543   0.255   1.348   0.290
  176SOL    HW1  544   0.159   1.349   0.263
  176SOL    HW2  545   0.267   1.401   0.374
  177SOL     OW  546   0.105   1.013   1.726
  177SOL    HW1  547   0.028   0.980   1.780
  177SOL    HW2  548   0.190   0.983   1.768
  178SOL     OW  549   0.672   0.203   1.489
  178SOL    HW1  550   0.762   0.187   1.449
  178SOL    HW2  551   0.680   0.208   1.588
  179SOL     OW  552   0.075   0.345   0.033
  179SOL    HW1  553  -0.017   0.317   0.004
  179SOL    HW2  554   0.106   0.422  -0.023
  180SOL     OW  555   1.440   0.856   1.398
  180SOL    HW1  556   1.383   0.908   1.335
  180SOL    HW2  557   1.536   0.868   1.374
  181SOL     OW  558   0.072   0.166   0.318
  181SOL    HW1  559   0.055   0.249   0.264
  181SOL    HW2  560   0.162   0.129   0.296
  182SOL     OW  561   1.183   1.335   0.119
  182SOL    HW1  562   1.084   1.324   0.121
  182SOL    HW2  563   1.217   1.350   0.212
  183SOL     OW  564   0.613   0.842   1.431
  183SOL    HW1  565   0.669   0.923   1.414
  183SOL    HW2  566   0.672   0.762   1.434
  184SOL     OW  567   1.493   1.767   0.959
  184SOL    HW1  568   1.526   1.831   0.890
  184SOL    HW2  569   1.559   1.761   1.034
  185SOL     OW  570   0.716   0.565   1.708
  185SOL    HW1  571   0.735   0.630   1.782
  185SOL    HW2  572   0.776   0.485   1.717
  186SOL     OW  573   1.450   1.220   1.633
  186SOL    HW1  574   1.441   1.210   1.732
  186SOL    HW2  575   1.546   1.213   1.607
  187SOL     OW  576   0.390   1.741   1.560
  187SOL    HW1  577   0.299   1.782   1.558
  187SOL    HW2  578   0.383   1.647   1.592
  188SOL     OW  579   1.674   0.883   1.254
  188SOL    HW1  580   1.647   0.794   1.217
  188SOL    HW2  581   1.675   0.951   1.181
  189SOL     OW  582   1.225   0.325   0.449
  189SOL    HW1  583   1.290   0.251   0.438
  189SOL    HW2  584   1.245   0.375   0.533
  190SOL     OW  585   0.594   0.745   0.652
  190SOL    HW1  586   0.644   0.830   0.633
  190SOL    HW2  587   0.506   0.747   0.604
  191SOL     OW  588   1.777   0.342   1.642
  191SOL    HW1  589   1.760   0.373   1.548
  191SOL    HW2  590   1.693   0.305   1.680
  192SOL     OW  591   1.730   0.934   1.517
  192SOL    HW1  592   1.768   1.025   1.532
  192SOL    HW2  593   1.722   0.917   1.418
  193SOL     OW  594   0.859   1.374   0.016
  193SOL    HW1  595   0.813   1.389   0.104
  193SOL    HW2  596   0.903   1.459  -0.014
  194SOL     OW  597   0.661   1.790   0.953
  194SOL    HW1  598   0.615   1.878   0.940
  194SOL    HW2  599   0.760   1.802   0.946
  195SOL     OW  600   0.859   0.956   0.861
  195SOL    HW1  601   0.913   0.887   0.909
  195SOL    HW2  602   0.827   1.025   0.927
  196SOL     OW  603   1.083   0.984   0.087
  196SOL    HW1  604   1.060   1.037   0.005
  196SOL    HW2  605   1.164   0.928   0.068
  197SOL     OW  606   1.861   1.569   0.851
  197SOL    HW1  607   1.790   1.557   0.781
  197SOL    HW2  608   1.862   1.490   0.911
  198SOL     OW  609   0.221   1.314   1.844
  198SOL    HW1  610   0.156   1.241   1.823
  198SOL    HW2  611   0.225   1.328   1.942
  199SOL     OW  612   0.079   1.240   0.653
  199SOL    HW1  613   0.078   1.193   0.741
  199SOL    HW2  614   0.161   1.212   0.602
  200SOL     OW  615   0.672   1.391   1.624
  200SOL    HW1  616   0.594   1.341   1.662
  200SOL    HW2  617   0.669   1.486   1.655
  201SOL     OW  618   1.824   0.192   1.227
  201SOL    HW1  619   1.820   0.102   1.271
  201SOL    HW2  620   1.827   0.181   1.128
  202SOL     OW  621   0.428   0.424   0.520
  202SOL    HW1  622   0.458   0.352   0.458
  202SOL    HW2  623   0.389   0.384   0.603
  203SOL     OW  624   1.705   1.487   1.104
  203SOL    HW1  625   1.612   1.462   1.077
  203SOL    HW2  626   1.731   1.437   1.186
  204SOL     OW  627   0.317   0.547   1.280
  204SOL    HW1  628   0.355   0.488   1.352
  204SOL    HW2  629   0.357   0.521   1.192
  205SOL     OW  630   0.812   1.586   0.687
  205SOL    HW1  631   0.844   1.596   0.593
  205SOL    HW2  632   0.733   1.524   0.689
  206SOL     OW  633   1.424   0.214   1.112
  206SOL    HW1  634   1.476   0.149   1.167
  206SOL    HW2  635   1.375   0.277   1.173
  207SOL     OW  636   1.001   0.034   1.154
  207SOL    HW1  637   0.938  -0.038   1.123
  207SOL    HW2  638   1.094  -0.002   1.154
  208SOL     OW  639   0.770   1.330   0.301
  208SOL    HW1  640   0.724   1.243   0.318
  208SOL    HW2  641   0.861   1.327   0.342
  209SOL     OW  642   0.618   1.567   1.284
  209SOL    HW1  643   0.613   1.649   1.341
  209SOL    HW2  644   0.707   1.564   1.239
  210SOL     OW  645   1.352   0.052   0.168
  210SOL    HW1  646   1.387   0.011   0.084
  210SOL    HW2  647   1.262   0.014   0.188
  211SOL     OW  648   1.300   0.453   0.691
  211SOL    HW1  649   1.241   0.533   0.695
  211SOL    HW2  650   1.315   0.418   0.784
  212SOL     OW  651   1.593   0.221   0.882
  212SOL    HW1  652   1.509   0.220   0.936
  212SOL    HW2  653   1.595   0.304   0.826
  213SOL     OW  654   0.039   1.077   0.300
  213SOL    HW1  655   0.138   1.066   0.291
  213SOL    HW2  656  -0.001   0.991   0.332
  214SOL     OW  657   0.875   1.646   0.337
  214SOL    HW1  658   0.798   1.611   0.283
  214SOL    HW2  659   0.843   1.717   0.399
  215SOL     OW  660   0.230   0.628   1.975
  215SOL    HW1  661   0.137   0.626   2.012
  215SOL    HW2  662   0.231   0.589   1.883
  216SOL     OW  663   0.225   0.275   2.858
  216SOL    HW1  664   0.260   0.258   2.950
  216SOL    HW2  665   0.137   0.230   2.846
  217SOL     OW  666   0.019   0.368   2.509
  217SOL    HW1  667  -0.063   0.411   2.548
  217SOL    HW2  668  -0.009   0.295   2.446
  218SOL     OW  669   0.569   1.275   3.027
  218SOL    HW1  670   0.476   1.268   2.990
  218SOL    HW2  671   0.580   1.364   3.071
  219SOL     OW  672   1.555   1.511   2.565
  219SOL    HW1  673   1.498   1.495   2.646
  219SOL    HW2  674   1.496   1.521   2.485
  220SOL     OW  675   1.135   0.703   2.579
  220SOL    HW1  676   1.192   0.781   2.554
  220SOL    HW2  677   1.075   0.729   2.655
  221SOL     OW  678   1.755   0.607   2.093
  221SOL    HW1  679   1.743   0.594   1.994
  221SOL    HW2  680   1.725   0.526   2.142
  222SOL     OW  681   0.768   1.144   2.885
  222SOL    HW1  682   0.690   1.161   2.945
  222SOL    HW2  683   0.802   1.231   2.849
  223SOL     OW  684   0.850   0.798   3.685
  223SOL    HW1  685   0.846   0.874   3.750
  223SOL    HW2  686   0.872   0.834   3.594
  224SOL     OW  687   0.685   1.012   2.527
  224SOL    HW1  688   0.754   0.996   2.597
  224SOL    HW2  689   0.612   1.069   2.565
  225SOL     OW  690   0.686   1.161   3.665
  225SOL    HW1  691   0.746   1.240   3.679
  225SOL    HW2  692   0.600   1.192   3.624
  226SOL     OW  693   0.335   1.435   2.923
  226SOL    HW1  694   0.257   1.404   2.870
  226SOL    HW2  695   0.393   1.493   2.866
  227SOL     OW  696   1.460   1.505   3.201
  227SOL    HW1  697   1.484   1.599   3.227
  227SOL    HW2  698   1.444   1.451   3.283
  228SOL     OW  699   0.438   0.392   3.361
  228SOL    HW1  700   0.520   0.336   3.370
  228SOL    HW2  701   0.357   0.334   3.365
  229SOL     OW  702   1.603   0.447   2.599
  229SOL    HW1  703   1.529   0.493   2.549
  229SOL    HW2  704   1.654   0.515   2.652
  230SOL     OW  705   0.231   1.713   2.345
  230SOL    HW1  706   0.265   1.790   2.399
  230SOL    HW2  707   0.275   1.713   2.255
  231SOL     OW  708   1.127   1.341   3.552
  231SOL    HW1  709   1.174   1.341   3.640
  231SOL    HW2  710   1.079   1.254   3.541
  232SOL     OW  711   0.230   1.434   2.400
  232SOL    HW1  712   0.204   1.530   2.400
  232SOL    HW2  713   0.159   1.380   2.445
  233SOL     OW  714   0.240   1.091   2.748
  233SOL    HW1  715   0.254   1.007   2.800
  233SOL    HW2  716   0.185   1.155   2.803
  234SOL     OW  717   0.620   1.786   3.301
  234SOL    HW1  718   0.528   1.769   3.336
  234SOL    HW2  719   0.648   1.878   3.327
  235SOL     OW  720   0.606   0.964   1.985
  235SOL    HW1  721   0.613   1.048   1.931
  235SOL    HW2  722   0.652   0.977   2.073
  236SOL     OW  723   1.594   0.114   3.342
  236SOL    HW1  724   1.576   0.181   3.270
  236SOL    HW2  725   1.591   0.160   3.431
  237SOL     OW  726   0.122   0.643   2.425
  237SOL    HW1  727   0.077   0.555   2.442
  237SOL    HW2  728   0.121   0.697   2.509
  238SOL     OW  729   1.842   1.767   2.221
  238SOL    HW1  730   1.896   1.738   2.301
  238SOL    HW2  731   1.872   1.857   2.192
  239SOL     OW  732   0.027   1.596   1.979
  239SOL    HW1  733   0.008   1.500   2.000
  239SOL    HW2  734  -0.006   1.654   2.054
  240SOL     OW  735   1.689   0.922   2.474
  240SOL    HW1  736   1.784   0.893   2.482
  240SOL    HW2  737   1.681   0.987   2.399
  241SOL     OW  738   1.641   1.108   2.294
  241SOL    HW1  739   1.727   1.110   2.242
  241SOL    HW2  740   1.655   1.155   2.382
  242SOL     OW  741   0.113   0.737   3.459
  242SOL    HW1  742   0.201   0.724   3.504
  242SOL    HW2  743   0.100   0.834   3.437
  243SOL     OW  744   0.613   1.365   2.588
  243SOL    HW1  745   0.564   1.278   2.597
  243SOL    HW2  746   0.590   1.408   2.501
  244SOL     OW  747   1.293   1.228   3.285
  244SOL    HW1  748   1.330   1.155   3.227
  244SOL    HW2  749   1.345   1.233   3.370
  245SOL     OW  750   0.809   0.004   2.364
  245SOL    HW1  751   0.849   0.095   2.355
  245SOL    HW2  752   0.709   0.012   2.370
  246SOL     OW  753   0.197   0.976   3.126
  246SOL    HW1  754   0.286   0.931   3.112
  246SOL    HW2  755   0.124   0.911   3.107
  247SOL     OW  756   1.525   0.999   2.052
  247SOL    HW1  757   1.462   0.923   2.065
  247SOL    HW2  758   1.573   1.017   2.138
  248SOL     OW  759   1.187   1.792   3.478
  248SOL    HW1  760   1.211   1.852   3.402
  248SOL    HW2  761   1.194   1.697   3.448
  249SOL     OW  762   0.317   0.251   3.663
  249SOL    HW1  763   0.388   0.322   3.669
  249SOL    HW2  764   0.229   0.290   3.691
  250SOL     OW  765   1.466   1.417   2.815
  250SOL    HW1  766   1.407   1.423   2.895
  250SOL    HW2  767   1.451   1.329   2.769
  251SOL     OW  768   1.667   1.714   2.434
  251SOL    HW1  769   1.626   1.691   2.346
  251SOL    HW2  770   1.649   1.640   2.499
  252SOL     OW  771   0.598   0.729   2.132
  252SOL    HW1  772   0.622   0.798   2.064
  252SOL    HW2  773   0.520   0.762   2.186
  253SOL     OW  774   1.281   0.345   2.806
  253SOL    HW1  775   1.195   0.295   2.793
  253SOL    HW2  776   1.343   0.291   2.862
  254SOL     OW  777   1.576   1.662   2.169
  254SOL    HW1  778   1.665   1.708   2.172
  254SOL    HW2  779   1.555   1.638   2.074
  255SOL     OW  780   0.807   0.605   3.327
  255SOL    HW1  781   0.760   0.602   3.416
  255SOL    HW2  782   0.756   0.550   3.261
  256SOL     OW  783   1.394   0.469   3.536
  256SOL    HW1  784   1.374   0.512   3.624
  256SOL    HW2  785   1.472   0.407   3.545
  257SOL     OW  786   0.973   0.890   3.434
  257SOL    HW1  787   1.019   0.806   3.405
  257SOL    HW2  788   0.917   0.924   3.359
  258SOL     OW  789   0.991   0.410   3.104
  258SOL    HW1  790   0.914   0.444   3.158
  258SOL    HW2  791   0.957   0.359   3.025
  259SOL     OW  792   1.041   0.701   2.291
  259SOL    HW1  793   1.067   0.697   2.387
  259SOL    HW2  794   0.956   0.650   2.277
  260SOL     OW  795   0.076   0.811   2.651
  260SOL    HW1  796   0.175   0.799   2.660
  260SOL    HW2  797   0.052   0.906   2.672
  261SOL     OW  798   0.130   1.821   3.433
  261SOL    HW1  799   0.120   1.806   3.532
  261SOL    HW2  800   0.044   1.857   3.397
  262SOL     OW  801   0.865   0.348   2.057
  262SOL    HW1  802   0.924   0.411   2.008
  262SOL    HW2  803   0.884   0.254   2.028
  263SOL     OW  804   1.719   0.585   3.693
  263SOL    HW1  805   1.693   0.674   3.657
  263SOL    HW2  806   1.717   0.517   3.620
  264SOL     OW  807   1.362   1.144   2.407
  264SOL    HW1  808   1.445   1.115   2.359
  264SOL    HW2  809   1.313   1.211   2.351
  265SOL     OW  810   0.550   0.196   2.747
  265SOL    HW1  811   0.545   0.191   2.847
  265SOL    HW2  812   0.552   0.292   2.718
  266SOL     OW  813   1.008   1.456   2.339
  266SOL    HW1  814   0.962   1.528   2.287
  266SOL    HW2  815   1.004   1.476   2.437
  267SOL     OW  816   0.351   1.801   2.715
  267SOL    HW1  817   0.401   1.715   2.721
  267SOL    HW2  818   0.416   1.878   2.712
  268SOL     OW  819   1.795   1.066   2.735
  268SOL    HW1  820   1.733   1.051   2.659
  268SOL    HW2  821   1.743   1.077   2.820
  269SOL     OW  822   1.227   1.550   3.368
  269SOL    HW1  823   1.233   1.473   3.432
  269SOL    HW2  824   1.175   1.524   3.288
  270SOL     OW  825   0.321   0.943   2.104
  270SOL    HW1  826   0.403   0.982   2.062
  270SOL    HW2  827   0.294   0.861   2.055
  271SOL     OW  828   1.458   0.735   2.590
  271SOL    HW1  829   1.453   0.670   2.665
  271SOL    HW2  830   1.538   0.794   2.603
  272SOL     OW  831   0.461   1.266   3.589
  272SOL    HW1  832   0.411   1.267   3.503
  272SOL    HW2  833   0.398   1.248   3.665
  273SOL     OW  834   1.111   1.776   2.099
  273SOL    HW1  835   1.051   1.714   2.149
  273SOL    HW2  836   1.142   1.732   2.014
  274SOL     OW  837   0.202   0.285   3.360
  274SOL    HW1  838   0.122   0.345   3.347
  274SOL    HW2  839   0.192   0.236   3.446
  275SOL     OW  840   1.632   1.377   1.943
  275SOL    HW1  841   1.600   1.471   1.933
  275SOL    HW2  842   1.556   1.314   1.931
  276SOL     OW  843   0.464   1.743   2.185
  276SOL    HW1  844   0.497   1.782   2.271
  276SOL    HW2  845   0.540   1.736   2.120
  277SOL     OW  846   1.400   0.107   2.288
  277SOL    HW1  847   1.376   0.070   2.198
  277SOL    HW2  848   1.499   0.123   2.292
  278SOL     OW  849   0.249   1.785   3.103
  278SOL    HW1  850   0.306   1.720   3.153
  278SOL    HW2  851   0.233   1.752   3.010
  279SOL     OW  852   0.940   1.698   2.766
  279SOL    HW1  853   1.020   1.641   2.787
  279SOL    HW2  854   0.891   1.658   2.689
  280SOL     OW  855   0.382   0.700   2.342
  280SOL    HW1  856   0.427   0.610   2.339
  280SOL    HW2  857   0.288   0.689   2.375
  281SOL     OW  858   1.547   0.222   3.591
  281SOL    HW1  859   1.542   0.259   3.683
  281SOL    HW2  860   1.475   0.153   3.579
  282SOL     OW  861   0.614   0.122   1.979
  282SOL    HW1  862   0.712   0.100   1.986
  282SOL    HW2  863   0.583   0.105   1.886
  283SOL     OW  864   0.781   0.264   3.611
  283SOL    HW1  865   0.848   0.203   3.654
  283SOL    HW2  866   0.708   0.283   3.676
  284SOL     OW  867   0.888   1.514   3.057
  284SOL    HW1  868   0.865   1.489   2.963
  284SOL    HW2  869   0.949   1.445   3.096
  285SOL     OW  870   1.351   0.590   3.295
  285SOL    HW1  871   1.379   0.547   3.380
  285SOL    HW2  872   1.376   0.686   3.296
  286SOL     OW  873   0.803   1.402   2.786
  286SOL    HW1  874   0.893   1.416   2.744
  286SOL    HW2  875   0.732   1.404   2.715
  287SOL     OW  876   0.922   0.503   2.761
  287SOL    HW1  877   0.897   0.494   2.665
  287SOL    HW2  878   0.970   0.421   2.792
  288SOL     OW  879   0.539   0.064   2.374
  288SOL    HW1  880   0.458   0.065   2.432
  288SOL    HW2  881   0.542   0.147   2.319
  289SOL     OW  882   1.434   1.188   1.903
  289SOL    HW1  883   1.466   1.112   1.960
  289SOL    HW2  884   1.342   1.215   1.933
  290SOL     OW  885   0.297   0.035   2.033
  290SOL    HW1  886   0.346   0.119   2.012
  290SOL    HW2  887   0.359  -0.030   2.078
  291SOL     OW  888   0.935   0.236   2.342
  291SOL    HW1  889   0.887   0.277   2.264
  291SOL    HW2  890   1.034   0.234   2.323
  292SOL     OW  891   1.076   0.683   3.326
  292SOL    HW1  892   0.996   0.622   3.329
  292SOL    HW2  893   1.157   0.630   3.302
  293SOL     OW  894   1.227   1.570   2.655
  293SOL    HW1  895   1.248   1.644   2.590
  293SOL    HW2  896   1.295   1.570   2.728
  294SOL     OW  897   0.459   1.152   2.603
  294SOL    HW1  898   0.388   1.125   2.668
  294SOL    HW2  899   0.433   1.124   2.510
  295SOL     OW  900   1.271   1.797   2.453
  295SOL    HW1  901   1.315   1.861   2.389
  295SOL    HW2  902   1.221   1.849   2.523
  296SOL     OW  903   1.032   0.549   1.878
  296SOL    HW1  904   0.991   0.631   1.839
  296SOL    HW2  905   1.096   0.575   1.951
  297SOL     OW  906   0.078   0.556   3.248
  297SOL    HW1  907   0.170   0.555   3.207
  297SOL    HW2  908   0.072   0.630   3.315
  298SOL     OW  909   0.561   0.222   3.009
  298SOL    HW1  910   0.599   0.138   3.046
  298SOL    HW2  911   0.473   0.241   3.053
  299SOL     OW  912   0.866   0.454   2.504
  299SOL    HW1  913   0.834   0.526   2.442
  299SOL    HW2  914   0.890   0.373   2.451
  300SOL     OW  915   1.017   0.039   2.615
  300SOL    HW1  916   0.945   0.044   2.546
  300SOL    HW2  917   0.993  -0.030   2.684
  301SOL     OW  918   1.429   1.173   2.729
  301SOL    HW1  919   1.374   1.089   2.722
  301SOL    HW2  920   1.455   1.202   2.637
  302SOL     OW  921   1.466   0.590   2.854
  302SOL    HW1  922   1.436   0.495   2.861
  302SOL    HW2  923   1.539   0.606   2.920
  303SOL     OW  924   1.857   0.833   2.239
  303SOL    HW1  925   1.899   0.769   2.303
  303SOL    HW2  926   1.819   0.782   2.161
  304SOL     OW  927   0.488   1.385   2.036
  304SOL    HW1  928   0.401   1.370   2.083
  304SOL    HW2  929   0.471   1.411   1.941
  305SOL     OW  930   1.664   1.280   2.519
  305SOL    HW1  931   1.763   1.288   2.533
  305SOL    HW2  932   1.619   1.364   2.550
  306SOL     OW  933   1.390   0.575   1.940
  306SOL    HW1  934   1.336   0.554   2.021
  306SOL    HW2  935   1.481   0.534   1.949
  307SOL     OW  936   0.527   0.256   2.190
  307SOL    HW1  937   0.554   0.197   2.115
  307SOL    HW2  938   0.527   0.351   2.159
  308SOL     OW  939   1.754   1.223   3.450
  308SOL    HW1  940   1.845   1.184   3.437
  308SOL    HW2  941   1.762   1.319   3.474
  309SOL     OW  942   1.064   1.347   3.202
  309SOL    HW1  943   0.984   1.324   3.257
  309SOL    HW2  944   1.147   1.321   3.251
  310SOL     OW  945   1.592   1.629   3.487
  310SOL    HW1  946   1.619   1.663   3.397
  310SOL    HW2  947   1.671   1.591   3.533
  311SOL     OW  948   1.111   1.195   2.962
  311SOL    HW1  949   1.071   1.239   3.043
  311SOL    HW2  950   1.070   1.232   2.879
  312SOL     OW  951   1.638   1.099   2.941
  312SOL    HW1  952   1.643   1.180   3.000
  312SOL    HW2  953   1.552   1.101   2.890
  313SOL     OW  954   0.915   0.089   3.264
  313SOL    HW1  955   0.940   0.069   3.169
  313SOL    HW2  956   0.987   0.145   3.306
  314SOL     OW  957   0.980   1.116   3.581
  314SOL    HW1  958   0.881   1.122   3.591
  314SOL    HW2  959   1.003   1.036   3.525
  315SOL     OW  960   0.705   1.050   2.230
  315SOL    HW1  961   0.691   1.057   2.329
  315SOL    HW2  962   0.789   0.999   2.212
  316SOL     OW  963   0.410   0.813   3.113
  316SOL    HW1  964   0.496   0.825   3.163
  316SOL    HW2  965   0.368   0.726   3.140
  317SOL     OW  966   1.274   0.386   3.124
  317SOL    HW1  967   1.295   0.460   3.188
  317SOL    HW2  968   1.185   0.403   3.081
  318SOL     OW  969   0.064   1.564   3.193
  318SOL    HW1  970   0.018   1.646   3.159
  318SOL    HW2  971   0.162   1.583   3.202
  319SOL     OW  972   0.367   1.100   2.363
  319SOL    HW1  973   0.360   1.183   2.307
  319SOL    HW2  974   0.371   1.020   2.303
  320SOL     OW  975   0.566   0.537   2.727
  320SOL    HW1  976   0.578   0.603   2.653
  320SOL    HW2  977   0.612   0.571   2.810
  321SOL     OW  978   1.252   1.348   2.250
  321SOL    HW1  979   1.302   1.425   2.290
  321SOL    HW2  980   1.157   1.350   2.282
  322SOL     OW  981   1.272   1.445   3.004
  322SOL    HW1  982   1.319   1.458   3.091
  322SOL    HW2  983   1.206   1.371   3.013
  323SOL     OW  984   1.582   0.639   2.334
  323SOL    HW1  985   1.551   0.700   2.407
  323SOL    HW2  986   1.632   0.691   2.265
  324SOL     OW  987   0.354   1.510   3.191
  324SOL    HW1  988   0.333   1.466   3.104
  324SOL    HW2  989   0.451   1.536   3.194
  325SOL     OW  990   0.402   0.751   3.460
  325SOL    HW1  991   0.470   0.806   3.413
  325SOL    HW2  992   0.442   0.663   3.487
  326SOL     OW  993   1.587   0.779   3.532
  326SOL    HW1  994   1.495   0.817   3.527
  326SOL    HW2  995   1.647   0.826   3.467
  327SOL     OW  996   1.013   0.105   3.632
  327SOL    HW1  997   1.019   0.190   3.580
  327SOL    HW2  998   1.045   0.029   3.575
  328SOL     OW  999   0.504   0.050   3.602
  328SOL    HW1 1000   0.462  -0.007   3.532
  328SOL    HW2 1001   0.438   0.119   3.634
  329SOL     OW 1002   0.573   0.870   2.891
  329SOL    HW1 1003   0.617   0.959   2.882
  329SOL    HW2 1004   0.510   0.870   2.968
  330SOL     OW 1005   1.360   0.862   2.907
  330SOL    HW1 1006   1.285   0.862   2.841
  330SOL    HW2 1007   1.397   0.770   2.916
  331SOL     OW 1008   1.209   0.525   2.137
  331SOL    HW1 1009   1.222   0.441   2.191
  331SOL    HW2 1010   1.180   0.599   2.197
  332SOL     OW 1011   0.307   0.213   3.093
  332SOL    HW1 1012   0.284   0.250   3.183
  332SOL    HW2 1013   0.277   0.118   3.087
  333SOL     OW 1014   0.037   1.310   3.144
  333SOL    HW1 1015   0.090   1.261   3.212
  333SOL    HW2 1016   0.059   1.408   3.149
  334SOL     OW 1017   0.732   0.634   2.926
  334SOL    HW1 1018   0.791   0.608   2.850
  334SOL    HW2 1019   0.704   0.730   2.915
  335SOL     OW 1020   1.728   0.935   3.716
  335SOL    HW1 1021   1.682   0.928   3.627
  335SOL    HW2 1022   1.666   0.979   3.782
  336SOL     OW 1023   0.307   0.063   2.480
  336SOL    HW1 1024   0.296   0.157   2.513
  336SOL    HW2 1025   0.302   0.000   2.557
  337SOL     OW 1026   1.622   0.367   2.236
  337SOL    HW1 1027   1.624   0.291   2.300
  337SOL    HW2 1028   1.574   0.444   2.276
  338SOL     OW 1029   1.023   0.766   2.828
  338SOL    HW1 1030   1.038   0.787   2.924
  338SOL    HW2 1031   0.993   0.671   2.819
  339SOL     OW 1032   0.980   1.573   3.562
  339SOL    HW1 1033   0.960   1.617   3.474
  339SOL    HW2 1034   1.019   1.482   3.546
  340SOL     OW 1035   1.859   1.518   3.467
  340SOL    HW1 1036   1.873   1.545   3.372
  340SOL    HW2 1037   1.942   1.540   3.520
  341SOL     OW 1038   0.350   0.898   3.666
  341SOL    HW1 1039   0.426   0.942   3.714
  341SOL    HW2 1040   0.385   0.851   3.584
  342SOL     OW 1041   1.540   0.274   1.987
  342SOL    HW1 1042   1.479   0.199   2.010
  342SOL    HW2 1043   1.562   0.326   2.070
  343SOL     OW 1044   1.303   0.838   1.904
  343SOL    HW1 1045   1.337   0.745   1.919
  343SOL    HW2 1046   1.321   0.865   1.809
  344SOL     OW 1047   1.068   1.333   2.711
  344SOL    HW1 1048   1.075   1.249   2.656
  344SOL    HW2 1049   1.130   1.402   2.675
  345SOL     OW 1050   0.319   0.810   2.811
  345SOL    HW1 1051   0.412   0.846   2.816
  345SOL    HW2 1052   0.313   0.725   2.863
  346SOL     OW 1053   0.339   0.509   2.868
  346SOL    HW1 1054   0.287   0.426   2.851
  346SOL    HW2 1055   0.416   0.514   2.804
  347SOL     OW 1056   1.138   0.380   3.540
  347SOL    HW1 1057   1.093   0.443   3.604
  347SOL    HW2 1058   1.231   0.411   3.523
  348SOL     OW 1059   1.160   0.207   3.339
  348SOL    HW1 1060   1.160   0.271   3.416
  348SOL    HW2 1061   1.188   0.255   3.256
  349SOL     OW 1062   0.008   1.326   2.062
  349SOL    HW1 1063  -0.085   1.347   2.031
  349SOL    HW2 1064   0.018   1.227   2.075
  350SOL     OW 1065   0.088   1.801   2.789
  350SOL    HW1 1066   0.046   1.715   2.762
  350SOL    HW2 1067   0.182   1.804   2.755
  351SOL     OW 1068   0.504   1.568   2.772
  351SOL    HW1 1069   0.570   1.642   2.781
  351SOL    HW2 1070   0.548   1.489   2.730
  352SOL     OW 1071   1.002   0.796   3.100
  352SOL    HW1 1072   1.043   0.764   3.186
  352SOL    HW2 1073   0.906   0.769   3.097
  353SOL     OW 1074   0.040   0.544   2.976
  353SOL    HW1 1075   0.125   0.511   2.935
  353SOL    HW2 1076   0.053   0.559   3.074
  354SOL     OW 1077   0.189   0.520   3.584
  354SOL    HW1 1078   0.248   0.480   3.514
  354SOL    HW2 1079   0.131   0.591   3.543
  355SOL     OW 1080   1.369   0.950   3.522
  355SOL    HW1 1081   1.408   1.039   3.542
  355SOL    HW2 1082   1.379   0.930   3.425
  356SOL     OW 1083   0.815   0.572   2.187
  356SOL    HW1 1084   0.822   0.483   2.141
  356SOL    HW2 1085   0.721   0.606   2.179
  357SOL     OW 1086   1.657   0.604   3.068
  357SOL    HW1 1087   1.619   0.535   3.130
  357SOL    HW2 1088   1.739   0.568   3.024
  358SOL     OW 1089   0.252   1.564   3.606
  358SOL    HW1 1090   0.222   1.621   3.682
  358SOL    HW2 1091   0.245   1.467   3.632
  359SOL     OW 1092   0.671   0.464   3.131
  359SOL    HW1 1093   0.637   0.375   3.101
  359SOL    HW2 1094   0.697   0.518   3.051
  360SOL     OW 1095   0.930   1.678   3.327
  360SOL    HW1 1096   0.906   1.660   3.232
  360SOL    HW2 1097   0.960   1.772   3.337
  361SOL     OW 1098   0.473   0.500   2.053
  361SOL    HW1 1099   0.534   0.580   2.057
  361SOL    HW2 1100   0.378   0.531   2.060
  362SOL     OW 1101   0.159   1.137   3.328
  362SOL    HW1 1102   0.181   1.076   3.404
  362SOL    HW2 1103   0.169   1.088   3.242
  363SOL     OW 1104   1.347   1.059   3.096
  363SOL    HW1 1105   1.371   0.996   3.022
  363SOL    HW2 1106   1.257   1.099   3.078
  364SOL     OW 1107   1.302   0.855   2.171
  364SOL    HW1 1108   1.216   0.824   2.213
  364SOL    HW2 1109   1.298   0.841   2.072
  365SOL     OW 1110   1.759   1.747   3.016
  365SOL    HW1 1111   1.820   1.777   2.943
  365SOL    HW2 1112   1.721   1.658   2.994
  366SOL     OW 1113   1.252   1.731   2.990
  366SOL    HW1 1114   1.336   1.736   2.936
  366SOL    HW2 1115   1.229   1.635   3.008
  367SOL     OW 1116   0.083   1.258   2.884
  367SOL    HW1 1117   0.078   1.257   2.984
  367SOL    HW2 1118   0.000   1.217   2.846
  368SOL     OW 1119   0.688   1.662   3.578
  368SOL    HW1 1120   0.632   1.743   3.587
  368SOL    HW2 1121   0.740   1.666   3.492
  369SOL     OW 1122   1.726   0.135   2.385
  369SOL    HW1 1123   1.799   0.118   2.318
  369SOL    HW2 1124   1.695   0.048   2.423
  370SOL     OW 1125   1.388   1.573   2.339
  370SOL    HW1 1126   1.455   1.585   2.265
  370SOL    HW2 1127   1.348   1.662   2.362
  371SOL     OW 1128   0.130   1.794   3.713
  371SOL    HW1 1129   0.089   1.720   3.766
  371SOL    HW2 1130   0.194   1.845   3.771
  372SOL     OW 1131   1.280   0.927   2.534
  372SOL    HW1 1132   1.340   0.846   2.536
  372SOL    HW2 1133   1.320   0.996   2.474
  373SOL     OW 1134   0.830   1.273   3.284
  373SOL    HW1 1135   0.825   1.306   3.379
  373SOL    HW2 1136   0.744   1.292   3.238
  374SOL     OW 1137   0.672   1.616   2.016
  374SOL    HW1 1138   0.681   1.626   1.917
  374SOL    HW2 1139   0.632   1.527   2.037
  375SOL     OW 1140   1.650   1.720   3.256
  375SOL    HW1 1141   1.703   1.730   3.172
  375SOL    HW2 1142   1.623   1.810   3.290
  376SOL     OW 1143   1.841   0.175   2.825
  376SOL    HW1 1144   1.880   0.090   2.789
  376SOL    HW2 1145   1.743   0.177   2.806
  377SOL     OW 1146   0.263   0.326   2.582
  377SOL    HW1 1147   0.184   0.377   2.548
  377SOL    HW2 1148   0.254   0.311   2.680
  378SOL     OW 1149   1.194   1.612   1.893
  378SOL    HW1 1150   1.200   1.519   1.930
  378SOL    HW2 1151   1.135   1.612   1.813
  379SOL     OW 1152   0.822   1.002   3.234
  379SOL    HW1 1153   0.862   1.001   3.142
  379SOL    HW2 1154   0.832   1.094   3.274
  380SOL     OW 1155   0.916   0.910   2.153
  380SOL    HW1 1156   0.979   0.948   2.085
  380SOL    HW2 1157   0.956   0.827   2.192
  381SOL     OW 1158   1.504   1.607   1.906
  381SOL    HW1 1159   1.412   1.644   1.913
  381SOL    HW2 1160   1.542   1.627   1.816
  382SOL     OW 1161   0.372   1.288   3.352
  382SOL    HW1 1162   0.359   1.381   3.318
  382SOL    HW2 1163   0.288   1.236   3.339
  383SOL     OW 1164   1.614   1.292   3.151
  383SOL    HW1 1165   1.674   1.295   3.231
  383SOL    HW2 1166   1.539   1.356   3.164
  384SOL     OW 1167   1.039   1.098   2.558
  384SOL    HW1 1168   0.969   1.051   2.612
  384SOL    HW2 1169   1.098   1.030   2.515
  385SOL     OW 1170   1.014   0.236   2.833
  385SOL    HW1 1171   1.006   0.200   2.740
  385SOL    HW2 1172   1.012   0.160   2.898
  386SOL     OW 1173   0.590   1.487   2.353
  386SOL    HW1 1174   0.632   1.429   2.283
  386SOL    HW2 1175   0.546   1.566   2.309
  387SOL     OW 1176   1.709   0.385   3.243
  387SOL    HW1 1177   1.782   0.454   3.247
  387SOL    HW2 1178   1.737   0.310   3.184
  388SOL     OW 1179   0.255   1.348   2.152
  388SOL    HW1 1180   0.159   1.349   2.125
  388SOL    HW2 1181   0.267   1.401   2.236
  389SOL     OW 1182   0.105   1.013   3.588
  389SOL    HW1 1183   0.028   0.980   3.642
  389SOL    HW2 1184   0.190   0.983   3.630
  390SOL     OW 1185   0.672   0.203   3.351
  390SOL    HW1 1186   0.762   0.187   3.311
  390SOL    HW2 1187   0.680   0.208   3.450
  391SOL     OW 1188   0.075   0.345   1.895
  391SOL    HW1 1189  -0.017   0.317   1.866
  391SOL    HW2 1190   0.106   0.422   1.839
  392SOL     OW 1191   1.440   0.856   3.260
  392SOL    HW1 1192   1.383   0.908   3.197
  392SOL    HW2 1193   1.536   0.868   3.236
  393SOL     OW 1194   0.072   0.166   2.180
  393SOL    HW1 1195   0.055   0.249   2.126
  393SOL    HW2 1196   0.162   0.129   2.158
  394SOL     OW 1197   1.183   1.335   1.981
  394SOL    HW1 1198   1.084   1.324   1.983
  394SOL    HW2 1199   1.217   1.350   2.074
  395SOL     OW 1200   0.613   0.842   3.293
  395SOL    HW1 1201   0.669   0.923   3.276
  395SOL    HW2 1202   0.672   0.762   3.296
  396SOL     OW 1203   1.493   1.767   2.821
  396SOL    HW1 1204   1.526   1.831   2.752
  396SOL    HW2 1205   1.559   1.761   2.896
  397SOL     OW 1206   0.716   0.565   3.570
  397SOL    HW1 1207   0.735   0.630   3.644
  397SOL    HW2 1208   0.776   0.485   3.579
  398SOL     OW 1209   1.450   1.220   3.495
  398SOL    HW1 1210   1.441   1.210   3.594
  398SOL    HW2 1211   1.546   1.213   3.469
  399SOL     OW 1212   0.390   1.741   3.422
  399SOL    HW1 1213   0.299   1.782   3.420
  399SOL    HW2 1214   0.383   1.647   3.454
  400SOL     OW 1215   1.674   0.883   3.116
  400SOL    HW1 1216   1.647   0.794   3.079
  400SOL    HW2 1217   1.675   0.951   3.043
  401SOL     OW 1218   1.225   0.325   2.311
  401SOL    HW1 1219   1.290   0.251   2.300
  401SOL    HW2 1220   1.245   0.375   2.395
  402SOL     OW 1221   0.594   0.745   2.514
  402SOL    HW1 1222   0.644   0.830   2.495
  402SOL    HW2 1223   0.506   0.747   2.466
  403SOL     OW 1224   1.777   0.342   3.504
  403SOL    HW1 1225   1.760   0.373   3.410
  403SOL    HW2 1226   1.693   0.305   3.542
  404SOL     OW 1227   1.730   0.934   3.379
  404SOL    HW1 1228   1.768   1.025   3.394
  404SOL    HW2 1229   1.722   0.917   3.280
  405SOL     OW 1230   0.859   1.374   1.878
  405SOL    HW1 1231   0.813   1.389   1.966
  405SOL    HW2 1232   0.903   1.459   1.848
  406SOL     OW 1233   0.661   1.790   2.815
  406SOL    HW1 1234   0.615   1.878   2.802
  406SOL    HW2 1235   0.760   1.802   2.808
  407SOL     OW 1236   0.859   0.956   2.723
  407SOL    HW1 1237   0.913   0.887   2.771
  407SOL    HW2 1238   0.827   1.025   2.789
  408SOL     OW 1239   1.083   0.984   1.949
  408SOL    HW1 1240   1.060   1.037   1.867
  408SOL    HW2 1241   1.164   0.928   1.930
  409SOL     OW 1242   1.861   1.569   2.713
  409SOL    HW1 1243   1.790   1.557   2.643
  409SOL    HW2 1244   1.862   1.490   2.773
  410SOL     OW 1245   0.221   1.314   3.706
  410SOL    HW1 1246   0.156   1.241   3.685
  410SOL    HW2 1247   0.225   1.328   3.804
  411SOL     OW 1248   0.079   1.240   2.515
  411SOL    HW1 1249   0.078   1.193   2.603
  411SOL    HW2 1250   0.161   1.212   2.464
  412SOL     OW 1251   0.672   1.391   3.486
  412SOL    HW1 1252   0.594   1.341   3.524
  412SOL    HW2 1253   0.669   1.486   3.517
  413SOL     OW 1254   1.824   0.192   3.089
  413SOL    HW1 1255   1.820   0.102   3.133
  413SOL    HW2 1256   1.827   0.181   2.990
  414SOL     OW 1257   0.428   0.424   2.382
  414SOL    HW1 1258   0.458   0.352   2.320
  414SOL    HW2 1259   0.389   0.384   2.465
  415SOL     OW 1260   1.705   1.487   2.966
  415SOL    HW1 1261   1.612   1.462   2.939
  415SOL    HW2 1262   1.731   1.437   3.048
  416SOL     OW 1263   0.317   0.547   3.142
  416SOL    HW1 1264   0.355   0.488   3.214
  416SOL    HW2 1265   0.357   0.521   3.054
  417SOL     OW 1266   0.812   1.586   2.549
  417SOL    HW1 1267   0.844   1.596   2.455
  417SOL    HW2 1268   0.733   1.524   2.551
  418SOL     OW 1269   1.424   0.214   2.974
  418SOL    HW1 1270   1.476   0.149   3.029
  418SOL    HW2 1271   1.375   0.277   3.035
  419SOL     OW 1272   1.001   0.034   3.016
  419SOL    HW1 1273   0.938  -0.038   2.985
  419SOL    HW2 1274   1.094  -0.002   3.016
  420SOL     OW 1275   0.770   1.330   2.163
  420SOL    HW1 1276   0.724   1.243   2.180
  420SOL    HW2 1277   0.861   1.327   2.204
  421SOL     OW 1278   0.618   1.567   3.146
  421SOL    HW1 1279   0.613   1.649   3.203
  421SOL    HW2 1280   0.707   1.564   3.101
  422SOL     OW 1281   1.352   0.052   2.030
  422SOL    HW1 1282   1.387   0.011   1.946
  422SOL    HW2 1283   1.262   0.014   2.050
  423SOL     OW 1284   1.300   0.453   2.553
  423SOL    HW1 1285   1.241   0.533   2.557
  423SOL    HW2 1286   1.315   0.418   2.646
  424SOL     OW 1287   1.593   0.221   2.744
  424SOL    HW1 1288   1.509   0.220   2.798
  424SOL    HW2 1289   1.595   0.304   2.688
  425SOL     OW 1290   0.039   1.077   2.162
  425SOL    HW1 1291   0.138   1.066   2.153
  425SOL    HW2 1292  -0.001   0.991   2.194
  426SOL     OW 1293   0.875   1.646   2.199
  426SOL    HW1 1294   0.798   1.611   2.145
  426SOL    HW2 1295   0.843   1.717   2.261
  427SOL     OW 1296   0.230   0.628   3.837
  427SOL    HW1 1297   0.137   0.626   3.874
  427SOL    HW2 1298   0.231   0.589   3.745
  428SOL     OW 1299   0.225   0.275   4.720
  428SOL    HW1 1300   0.260   0.258   4.812
  428SOL    HW2 1301   0.137   0.230   4.708
  429SOL     OW 1302   0.019   0.368   4.371
  429SOL    HW1 1303  -0.063   0.411   4.410
  429SOL    HW2 1304  -0.009   0.295   4.308
  430SOL     OW 1305   1.555   1.511   4.427
  430SOL    HW1 1306   1.498   1.495   4.508
  430SOL    HW2 1307   1.496   1.521   4.347
  431SOL     OW 1308   1.135   0.703   4.441
  431SOL    HW1 1309   1.192   0.781   4.416
  431SOL    HW2 1310   1.075   0.729   4.517
  432SOL     OW 1311   1.755   0.607   3.955
  432SOL    HW1 1312   1.743   0.594   3.856
  432SOL    HW2 1313   1.725   0.526   4.004
  433SOL     OW 1314   0.768   1.144   4.747
  433SOL    HW1 1315   0.690   1.161   4.807
  433SOL    HW2 1316   0.802   1.231   4.711
  434SOL     OW 1317   0.685   1.012   4.389
  434SOL    HW1 1318   0.754   0.996   4.459
  434SOL    HW2 1319   0.612   1.069   4.427
  435SOL     OW 1320   0.335   1.435   4.785
  435SOL    HW1 1321   0.257   1.404   4.732
  435SOL    HW2 1322   0.393   1.493   4.728
  436SOL     OW 1323   1.603   0.447   4.461
  436SOL    HW1 1324   1.529   0.493   4.411
  436SOL    HW2 1325   1.654   0.515   4.514
  437SOL     OW 1326   0.231   1.713   4.207
  437SOL    HW1 1327   0.265   1.790   4.261
  437SOL    HW2 1328   0.275   1.713   4.117
  438SOL     OW 1329   0.230   1.434   4.262
  438SOL    HW1 1330   0.204   1.530   4.262
  438SOL    HW2 1331   0.159   1.380   4.307
  439SOL     OW 1332   0.240   1.091   4.610
  439SOL    HW1 1333   0.254   1.007   4.662
  439SOL    HW2 1334   0.185   1.155   4.665
  440SOL     OW 1335   0.606   0.964   3.847
  440SOL    HW1 1336   0.613   1.048   3.793
  440SOL    HW2 1337   0.652   0.977   3.935
  441SOL     OW 1338   0.122   0.643   4.287
  441SOL    HW1 1339   0.077   0.555   4.304
  441SOL    HW2 1340   0.121   0.697   4.371
  442SOL     OW 1341   1.842   1.767   4.083
  442SOL    HW1 1342   1.896   1.738   4.163
  442SOL    HW2 1343   1.872   1.857   4.054
  443SOL     OW 1344   0.027   1.596   3.841
  443SOL    HW1 1345   0.008   1.500   3.862
  443SOL    HW2 1346  -0.006   1.654   3.916
  444SOL     OW 1347   1.689   0.922   4.336
  444SOL    HW1 1348   1.784   0.893   4.344
  444SOL    HW2 1349   1.681   0.987   4.261
  445SOL     OW 1350   1.641   1.108   4.156
  445SOL    HW1 1351   1.727   1.110   4.104
  445SOL    HW2 1352   1.655   1.155   4.244
  446SOL     OW 1353   0.613   1.365   4.450
  446SOL    HW1 1354   0.564   1.278   4.459
  446SOL    HW2 1355   0.590   1.408   4.363
  447SOL     OW 1356   0.809   0.004   4.226
  447SOL    HW1 1357   0.849   0.095   4.217
  447SOL    HW2 1358   0.709   0.012   4.232
  448SOL     OW 1359   1.525   0.999   3.914
  448SOL    HW1 1360   1.462   0.923   3.927
  448SOL    HW2 1361   1.573   1.017   4.000
  449SOL     OW 1362   1.466   1.417   4.677
  449SOL    HW1 1363   1.407   1.423   4.757
  449SOL    HW2 1364   1.451   1.329   4.631
  450SOL     OW 1365   1.667   1.714   4.296
  450SOL    HW1 1366   1.626   1.691   4.208
  450SOL    HW2 1367   1.649   1.640   4.361
  451SOL     OW 1368   0.598   0.729   3.994
  451SOL    HW1 1369   0.622   0.798   3.926
  451SOL    HW2 1370   0.520   0.762   4.048
  452SOL     OW 1371   1.281   0.345   4.668
  452SOL    HW1 1372   1.195   0.295   4.655
  452SOL    HW2 1373   1.343   0.291   4.724
  453SOL     OW 1374   1.576   1.662   4.031
  453SOL    HW1 1375   1.665   1.708   4.034
  453SOL    HW2 1376   1.555   1.638   3.936
  454SOL     OW 1377   1.041   0.701   4.153
  454SOL    HW1 1378   1.067   0.697   4.249
  454SOL    HW2 1379   0.956   0.650   4.139
  455SOL     OW 1380   0.076   0.811   4.513
  455SOL    HW1 1381   0.175   0.799   4.522
  455SOL    HW2 1382   0.052   0.906   4.534
  456SOL     OW 1383   0.865   0.348   3.919
  456SOL    HW1 1384   0.924   0.411   3.870
  456SOL    HW2 1385   0.884   0.254   3.890
  457SOL     OW 1386   1.362   1.144   4.269
  457SOL    HW1 1387   1.445   1.115   4.221
  457SOL    HW2 1388   1.313   1.211   4.213
  458SOL     OW 1389   0.550   0.196   4.609
  458SOL    HW1 1390   0.545   0.191   4.709
  458SOL    HW2 1391   0.552   0.292   4.580
  459SOL     OW 1392   1.008   1.456   4.201
  459SOL    HW1 1393   0.962   1.528   4.149
  459SOL    HW2 1394   1.004   1.476   4.299
  460SOL     OW 1395   0.351   1.801   4.577
  460SOL    HW1 1396   0.401   1.715   4.583
  460SOL    HW2 1397   0.416   1.878   4.574
  461SOL     OW 1398   1.795   1.066   4.597
  461SOL    HW1 1399   1.733   1.051   4.521
  461SOL    HW2 1400   1.743   1.077   4.682
  462SOL     OW 1401   0.321   0.943   3.966
  462SOL    HW1 1402   0.403   0.982   3.924
  462SOL    HW2 1403   0.294   0.861   3.917
  463SOL     OW 1404   1.458   0.735   4.452
  463SOL    HW1 1405   1.453   0.670   4.527
  463SOL    HW2 1406   1.538   0.794   4.465
  464SOL     OW 1407   1.111   1.776   3.961
  464SOL    HW1 1408   1.051   1.714   4.011
  464SOL    HW2 1409   1.142   1.732   3.876
  465SOL     OW 1410   1.632   1.377   3.805
  465SOL    HW1 1411   1.600   1.471   3.795
  465SOL    HW2 1412   1.556   1.314   3.793
  466SOL     OW 1413   0.464   1.743   4.047
  466SOL    HW1 1414   0.497   1.782   4.133
  466SOL    HW2 1415   0.540   1.736   3.982
  467SOL     OW 1416   1.400   0.107   4.150
  467SOL    HW1 1417   1.376   0.070   4.060
  467SOL    HW2 1418   1.499   0.123   4.154
  468SOL     OW 1419   0.249   1.785   4.965
  468SOL    HW1 1420   0.306   1.720   5.015
  468SOL    HW2 1421   0.233   1.752   4.872
  469SOL     OW 1422   0.940   1.698   4.628
  469SOL    HW1 1423   1.020   1.641   4.649
  469SOL    HW2 1424   0.891   1.658   4.551
  470SOL     OW 1425   0.382   0.700   4.204
  470SOL    HW1 1426   0.427   0.610   4.201
  470SOL    HW2 1427   0.288   0.689   4.237
  471SOL     OW 1428   0.614   0.122   3.841
  471SOL    HW1 1429   0.712   0.100   3.848
  471SOL    HW2 1430   0.583   0.105   3.748
  472SOL     OW 1431   0.803   1.402   4.648
  472SOL    HW1 1432   0.893   1.416   4.606
  472SOL    HW2 1433   0.732   1.404   4.577
  473SOL     OW 1434   0.922   0.503   4.623
  473SOL    HW1 1435   0.897   0.494   4.527
  473SOL    HW2 1436   0.970   0.421   4.654
  474SOL     OW 1437   0.539   0.064   4.236
  474SOL    HW1 1438   0.458   0.065   4.294
  474SOL    HW2 1439   0.542   0.147   4.181
  475SOL     OW 1440   1.434   1.188   3.765
  475SOL    HW1 1441   1.466   1.112   3.822
  475SOL    HW2 1442   1.342   1.215   3.795
  476SOL     OW 1443   0.297   0.035   3.895
  476SOL    HW1 1444   0.346   0.119   3.874
  476SOL    HW2 1445   0.359  -0.030   3.940
  477SOL     OW 1446   0.935   0.236   4.204
  477SOL    HW1 1447   0.887   0.277   4.126
  477SOL    HW2 1448   1.034   0.234   4.185
  478SOL     OW 1449   1.227   1.570   4.517
  478SOL    HW1 1450   1.248   1.644   4.452
  478SOL    HW2 1451   1.295   1.570   4.590
  479SOL     OW 1452   0.459   1.152   4.465
  479SOL    HW1 1453   0.388   1.125   4.530
  479SOL    HW2 1454   0.433   1.124   4.372
  480SOL     OW 1455   1.271   1.797   4.315
  480SOL    HW1 1456   1.315   1.861   4.251
  480SOL    HW2 1457   1.221   1.849   4.385
  481SOL     OW 1458   1.032   0.549   3.740
  481SOL    HW1 1459   0.991   0.631   3.701
  481SOL    HW2 1460   1.096   0.575   3.813
  482SOL     OW 1461   0.866   0.454   4.366
  482SOL    HW1 1462   0.834   0.526   4.304
  482SOL    HW2 1463   0.890   0.373   4.313
  483SOL     OW 1464   1.017   0.039   4.477
  483SOL    HW1 1465   0.945   0.044   4.408
  483SOL    HW2 1466   0.993  -0.030   4.546
  484SOL     OW 1467   1.429   1.173   4.591
  484SOL    HW1 1468   1.374   1.089   4.584
  484SOL    HW2 1469   1.455   1.202   4.499
  485SOL     OW 1470   1.466   0.590   4.716
  485SOL    HW1 1471   1.436   0.495   4.723
  485SOL    HW2 1472   1.539   0.606   4.782
  486SOL     OW 1473   1.857   0.833   4.101
  486SOL    HW1 1474   1.899   0.769   4.165
  486SOL    HW2 1475   1.819   0.782   4.023
  487SOL     OW 1476   0.488   1.385   3.898
  487SOL    HW1 1477   0.401   1.370   3.945
  487SOL    HW2 1478   0.471   1.411   3.803
  488SOL     OW 1479   1.664   1.280   4.381
  488SOL    HW1 1480   1.763   1.288   4.395
  488SOL    HW2 1481   1.619   1.364   4.412
  489SOL     OW 1482   1.390   0.575   3.802
  489SOL    HW1 1483   1.336   0.554   3.883
  489SOL    HW2 1484   1.481   0.534   3.811
  490SOL     OW 1485   0.527   0.256   4.052
  490SOL    HW1 1486   0.554   0.197   3.977
  490SOL    HW2 1487   0.527   0.351   4.021
  491SOL     OW 1488   1.638   1.099   4.803
  491SOL    HW1 1489   1.643   1.180   4.862
  491SOL    HW2 1490   1.552   1.101   4.752
  492SOL     OW 1491   0.705   1.050   4.092
  492SOL    HW1 1492   0.691   1.057   4.191
  492SOL    HW2 1493   0.789   0.999   4.074
  493SOL     OW 1494   0.367   1.100   4.225
  493SOL    HW1 1495   0.360   1.183   4.169
  493SOL    HW2 1496   0.371   1.020   4.165
  494SOL     OW 1497   0.566   0.537   4.589
  494SOL    HW1 1498   0.578   0.603   4.515
  494SOL    HW2 1499   0.612   0.571   4.672
  495SOL     OW 1500   1.252   1.348   4.112
  495SOL    HW1 1501   1.302   1.425   4.152
  495SOL    HW2 1502   1.157   1.350   4.144
  496SOL     OW 1503   1.582   0.639   4.196
  496SOL    HW1 1504   1.551   0.700   4.269
  496SOL    HW2 1505   1.632   0.691   4.127
  497SOL     OW 1506   0.573   0.870   4.753
  497SOL    HW1 1507   0.617   0.959   4.744
  497SOL    HW2 1508   0.510   0.870   4.830
  498SOL     OW 1509   1.209   0.525   3.999
  498SOL    HW1 1510   1.222   0.441   4.053
  498SOL    HW2 1511   1.180   0.599   4.059
  499SOL     OW 1512   0.732   0.634   4.788
  499SOL    HW1 1513   0.791   0.608   4.712
  499SOL    HW2 1514   0.704   0.730   4.777
  500SOL     OW 1515   0.307   0.063   4.342
  500SOL    HW1 1516   0.296   0.157   4.375
  500SOL    HW2 1517   0.302   0.000   4.419
  501SOL     OW 1518   1.622   0.367   4.098
  501SOL    HW1 1519   1.624   0.291   4.162
  501SOL    HW2 1520   1.574   0.444   4.138
  502SOL     OW 1521   1.023   0.766   4.690
  502SOL    HW1 1522   1.038   0.787   4.786
  502SOL    HW2 1523   0.993   0.671   4.681
  503SOL     OW 1524   1.540   0.274   3.849
  503SOL    HW1 1525   1.479   0.199   3.872
  503SOL    HW2 1526   1.562   0.326   3.932
  504SOL     OW 1527   1.303   0.838   3.766
  504SOL    HW1 1528   1.337   0.745   3.781
  504SOL    HW2 1529   1.321   0.865   3.671
  505SOL     OW 1530   1.068   1.333   4.573
  505SOL    HW1 1531   1.075   1.249   4.518
  505SOL    HW2 1532   1.130   1.402   4.537
  506SOL     OW 1533   0.319   0.810   4.673
  506SOL    HW1 1534   0.412   0.846   4.678
  506SOL    HW2 1535   0.313   0.725   4.725
  507SOL     OW 1536   0.339   0.509   4.730
  507SOL    HW1 1537   0.287   0.426   4.713
  507SOL    HW2 1538   0.416   0.514   4.666
  508SOL     OW 1539   0.008   1.326   3.924
  508SOL    HW1 1540  -0.085   1.347   3.893
  508SOL    HW2 1541   0.018   1.227   3.937
  509SOL     OW 1542   0.088   1.801   4.651
  509SOL    HW1 1543   0.046   1.715   4.624
  509SOL    HW2 1544   0.182   1.804   4.617
  510SOL     OW 1545   0.504   1.568   4.634
  510SOL    HW1 1546   0.570   1.642   4.643
  510SOL    HW2 1547   0.548   1.489   4.592
  511SOL     OW 1548   1.002   0.796   4.962
  511SOL    HW1 1549   1.043   0.764   5.048
  511SOL    HW2 1550   0.906   0.769   4.959
  512SOL     OW 1551   0.815   0.572   4.049
  512SOL    HW1 1552   0.822   0.483   4.003
  512SOL    HW2 1553   0.721   0.606   4.041
  513SOL     OW 1554   0.671   0.464   4.993
  513SOL    HW1 1555   0.637   0.375   4.963
  513SOL    HW2 1556   0.697   0.518   4.913
  514SOL     OW 1557   0.473   0.500   3.915
  514SOL    HW1 1558   0.534   0.580   3.919
  514SOL    HW2 1559   0.378   0.531   3.922
  515SOL     OW 1560   1.302   0.855   4.033
  515SOL    HW1 1561   1.216   0.824   4.075
  515SOL    HW2 1562   1.298   0.841   3.934
  516SOL     OW 1563   1.759   1.747   4.878
  516SOL    HW1 1564   1.820   1.777   4.805
  516SOL    HW2 1565   1.721   1.658   4.856
  517SOL     OW 1566   0.083   1.258   4.746
  517SOL    HW1 1567   0.078   1.257   4.846
  517SOL    HW2 1568   0.000   1.217   4.708
  518SOL     OW 1569   1.726   0.135   4.247
  518SOL    HW1 1570   1.799   0.118   4.180
  518SOL    HW2 1571   1.695   0.048   4.285
  519SOL     OW 1572   1.388   1.573   4.201
  519SOL    HW1 1573   1.455   1.585   4.127
  519SOL    HW2 1574   1.348   1.662   4.224
  520SOL     OW 1575   1.280   0.927   4.396
  520SOL    HW1 1576   1.340   0.846   4.398
  520SOL    HW2 1577   1.320   0.996   4.336
  521SOL     OW 1578   0.672   1.616   3.878
  521SOL    HW1 1579   0.681   1.626   3.779
  521SOL    HW2 1580   0.632   1.527   3.899
  522SOL     OW 1581   1.841   0.175   4.687
  522SOL    HW1 1582   1.880   0.090   4.651
  522SOL    HW2 1583   1.743   0.177   4.668
  523SOL     OW 1584   0.263   0.326   4.444
  523SOL    HW1 1585   0.184   0.377   4.410
  523SOL    HW2 1586   0.254   0.311   4.542
  524SOL     OW 1587   1.194   1.612   3.755
  524SOL    HW1 1588   1.200   1.519   3.792
  524SOL    HW2 1589   1.135   1.612   3.675
  525SOL     OW 1590   0.916   0.910   4.015
  525SOL    HW1 1591   0.979   0.948   3.947
  525SOL    HW2 1592   0.956   0.827   4.054
  526SOL     OW 1593   1.504   1.607   3.768
  526SOL    HW1 1594   1.412   1.644   3.775
  526SOL    HW2 1595   1.542   1.627   3.678
  527SOL     OW 1596   1.039   1.098   4.420
  527SOL    HW1 1597   0.969   1.051   4.474
  527SOL    HW2 1598   1.098   1.030   4.377
  528SOL     OW 1599   1.014   0.236   4.695
  528SOL    HW1 1600   1.006   0.200   4.602
  528SOL    HW2 1601   1.012   0.160   4.760
  529SOL     OW 1602   0.590   1.487   4.215
  529SOL    HW1 1603   0.632   1.429   4.145
  529SOL    HW2 1604   0.546   1.566   4.171
  530SOL     OW 1605   0.255   1.348   4.014
  530SOL    HW1 1606   0.159   1.349   3.987
  530SOL    HW2 1607   0.267   1.401   4.098
  531SOL     OW 1608   0.075   0.345   3.757
  531SOL    HW1 1609  -0.017   0.317   3.728
  531SOL    HW2 1610   0.106   0.422   3.701
  532SOL     OW 1611   0.072   0.166   4.042
  532SOL    HW1 1612   0.055   0.249   3.988
  532SOL    HW2 1613   0.162   0.129   4.020
  533SOL     OW 1614   1.183   1.335   3.843
  533SOL    HW1 1615   1.084   1.324   3.845
  533SOL    HW2 1616   1.217   1.350   3.936
  534SOL     OW 1617   1.493   1.767   4.683
  534SOL    HW1 1618   1.526   1.831   4.614
  534SOL    HW2 1619   1.559   1.761   4.758
  535SOL     OW 1620   1.674   0.883   4.978
  535SOL    HW1 1621   1.647   0.794   4.941
  535SOL    HW2 1622   1.675   0.951   4.905
  536SOL     OW 1623   1.225   0.325   4.173
  536SOL    HW1 1624   1.290   0.251   4.162
  536SOL    HW2 1625   1.245   0.375   4.257
  537SOL     OW 1626   0.594   0.745   4.376
  537SOL    HW1 1627   0.644   0.830   4.357
  537SOL    HW2 1628   0.506   0.747   4.328
  538SOL     OW 1629   0.859   1.374   3.740
  538SOL    HW1 1630   0.813   1.389   3.828
  538SOL    HW2 1631   0.903   1.459   3.710
  539SOL     OW 1632   0.661   1.790   4.677
  539SOL    HW1 1633   0.615   1.878   4.664
  539SOL    HW2 1634   0.760   1.802   4.670
  540SOL     OW 1635   0.859   0.956   4.585
  540SOL    HW1 1636   0.913   0.887   4.633
  540SOL    HW2 1637   0.827   1.025   4.651
  541SOL     OW 1638   1.083   0.984   3.811
  541SOL    HW1 1639   1.060   1.037   3.729
  541SOL    HW2 1640   1.164   0.928   3.792
  542SOL     OW 1641   1.861   1.569   4.575
  542SOL    HW1 1642   1.790   1.557   4.505
  542SOL    HW2 1643   1.862   1.490   4.635
  543SOL     OW 1644   0.079   1.240   4.377
  543SOL    HW1 1645   0.078   1.193   4.465
  543SOL    HW2 1646   0.161   1.212   4.326
  544SOL     OW 1647   1.824   0.192   4.951
  544SOL    HW1 1648   1.820   0.102   4.995
  544SOL    HW2 1649   1.827   0.181   4.852
  545SOL     OW 1650   0.428   0.424   4.244
  545SOL    HW1 1651   0.458   0.352   4.182
  545SOL    HW2 1652   0.389   0.384   4.327
  546SOL     OW 1653   0.812   1.586   4.411
  546SOL    HW1 1654   0.844   1.596   4.317
  546SOL    HW2 1655   0.733   1.524   4.413
  547SOL     OW 1656   0.770   1.330   4.025
  547SOL    HW1 1657   0.724   1.243   4.042
  547SOL    HW2 1658   0.861   1.327   4.066
  548SOL     OW 1659   1.352   0.052   3.892
  548SOL    HW1 1660   1.387   0.011   3.808
  548SOL    HW2 1661   1.262   0.014   3.912
  549SOL     OW 1662   1.300   0.453   4.415
  549SOL    HW1 1663   1.241   0.533   4.419
  549SOL    HW2 1664   1.315   0.418   4.508
  550SOL     OW 1665   1.593   0.221   4.606
  550SOL    HW1 1666   1.509   0.220   4.660
  550SOL    HW2 1667   1.595   0.304   4.550
  551SOL     OW 1668   0.039   1.077   4.024
  551SOL    HW1 1669   0.138   1.066   4.015
  551SOL    HW2 1670  -0.001   0.991   4.056
  552SOL     OW 1671   0.875   1.646   4.061
  552SOL    HW1 1672   0.798   1.611   4.007
  552SOL    HW2 1673   0.843   1.717   4.123
  553SOL     OW 1674   0.230   2.490   0.113
  553SOL    HW1 1675   0.137   2.488   0.150
  553SOL    HW2 1676   0.231   2.451   0.021
  554SOL     OW 1677   0.225   2.137   0.996
  554SOL    HW1 1678   0.260   2.120   1.088
  554SOL    HW2 1679   0.137   2.092   0.984
  555SOL     OW 1680   0.019   2.230   0.647
  555SOL    HW1 1681  -0.063   2.273   0.686
  555SOL    HW2 1682  -0.009   2.157   0.584
  556SOL     OW 1683   0.569   3.137   1.165
  556SOL    HW1 1684   0.476   3.130   1.128
  556SOL    HW2 1685   0.580   3.226   1.209
  557SOL     OW 1686   1.555   3.373   0.703
  557SOL    HW1 1687   1.498   3.357   0.784
  557SOL    HW2 1688   1.496   3.383   0.623
  558SOL     OW 1689   1.135   2.565   0.717
  558SOL    HW1 1690   1.192   2.643   0.692
  558SOL    HW2 1691   1.075   2.591   0.793
  559SOL     OW 1692   1.755   2.469   0.231
  559SOL    HW1 1693   1.743   2.456   0.132
  559SOL    HW2 1694   1.725   2.388   0.280
  560SOL     OW 1695   0.768   3.006   1.023
  560SOL    HW1 1696   0.690   3.023   1.083
  560SOL    HW2 1697   0.802   3.093   0.987
  561SOL     OW 1698   0.850   2.660   1.823
  561SOL    HW1 1699   0.846   2.736   1.888
  561SOL    HW2 1700   0.872   2.696   1.732
  562SOL     OW 1701   0.685   2.874   0.665
  562SOL    HW1 1702   0.754   2.858   0.735
  562SOL    HW2 1703   0.612   2.931   0.703
  563SOL     OW 1704   0.686   3.023   1.803
  563SOL    HW1 1705   0.746   3.102   1.817
  563SOL    HW2 1706   0.600   3.054   1.762
  564SOL     OW 1707   0.335   3.297   1.061
  564SOL    HW1 1708   0.257   3.266   1.008
  564SOL    HW2 1709   0.393   3.355   1.004
  565SOL     OW 1710   1.460   3.367   1.339
  565SOL    HW1 1711   1.484   3.461   1.365
  565SOL    HW2 1712   1.444   3.313   1.421
  566SOL     OW 1713   0.438   2.254   1.499
  566SOL    HW1 1714   0.520   2.198   1.508
  566SOL    HW2 1715   0.357   2.196   1.503
  567SOL     OW 1716   1.603   2.309   0.737
  567SOL    HW1 1717   1.529   2.355   0.687
  567SOL    HW2 1718   1.654   2.377   0.790
  568SOL     OW 1719   0.231   3.575   0.483
  568SOL    HW1 1720   0.265   3.652   0.537
  568SOL    HW2 1721   0.275   3.575   0.393
  569SOL     OW 1722   1.127   3.203   1.690
  569SOL    HW1 1723   1.174   3.203   1.778
  569SOL    HW2 1724   1.079   3.116   1.679
  570SOL     OW 1725   0.230   3.296   0.538
  570SOL    HW1 1726   0.204   3.392   0.538
  570SOL    HW2 1727   0.159   3.242   0.583
  571SOL     OW 1728   0.240   2.953   0.886
  571SOL    HW1 1729   0.254   2.869   0.938
  571SOL    HW2 1730   0.185   3.017   0.941
  572SOL     OW 1731   0.620   3.648   1.439
  572SOL    HW1 1732   0.528   3.631   1.474
  572SOL    HW2 1733   0.648   3.740   1.465
  573SOL     OW 1734   0.606   2.826   0.123
  573SOL    HW1 1735   0.613   2.910   0.069
  573SOL    HW2 1736   0.652   2.839   0.211
  574SOL     OW 1737   1.594   1.976   1.480
  574SOL    HW1 1738   1.576   2.043   1.408
  574SOL    HW2 1739   1.591   2.022   1.569
  575SOL     OW 1740   0.122   2.505   0.563
  575SOL    HW1 1741   0.077   2.417   0.580
  575SOL    HW2 1742   0.121   2.559   0.647
  576SOL     OW 1743   1.842   3.629   0.359
  576SOL    HW1 1744   1.896   3.600   0.439
  576SOL    HW2 1745   1.872   3.719   0.330
  577SOL     OW 1746   0.027   3.458   0.117
  577SOL    HW1 1747   0.008   3.362   0.138
  577SOL    HW2 1748  -0.006   3.516   0.192
  578SOL     OW 1749   1.689   2.784   0.612
  578SOL    HW1 1750   1.784   2.755   0.620
  578SOL    HW2 1751   1.681   2.849   0.537
  579SOL     OW 1752   1.641   2.970   0.432
  579SOL    HW1 1753   1.727   2.972   0.380
  579SOL    HW2 1754   1.655   3.017   0.520
  580SOL     OW 1755   0.113   2.599   1.597
  580SOL    HW1 1756   0.201   2.586   1.642
  580SOL    HW2 1757   0.100   2.696   1.575
  581SOL     OW 1758   0.613   3.227   0.726
  581SOL    HW1 1759   0.564   3.140   0.735
  581SOL    HW2 1760   0.590   3.270   0.639
  582SOL     OW 1761   1.293   3.090   1.423
  582SOL    HW1 1762   1.330   3.017   1.365
  582SOL    HW2 1763   1.345   3.095   1.508
  583SOL     OW 1764   0.809   1.866   0.502
  583SOL    HW1 1765   0.849   1.957   0.493
  583SOL    HW2 1766   0.709   1.874   0.508
  584SOL     OW 1767   0.197   2.838   1.264
  584SOL    HW1 1768   0.286   2.793   1.250
  584SOL    HW2 1769   0.124   2.773   1.245
  585SOL     OW 1770   1.525   2.861   0.190
  585SOL    HW1 1771   1.462   2.785   0.203
  585SOL    HW2 1772   1.573   2.879   0.276
  586SOL     OW 1773   1.187   3.654   1.616
  586SOL    HW1 1774   1.211   3.714   1.540
  586SOL    HW2 1775   1.194   3.559   1.586
  587SOL     OW 1776   0.317   2.113   1.801
  587SOL    HW1 1777   0.388   2.184   1.807
  587SOL    HW2 1778   0.229   2.152   1.829
  588SOL     OW 1779   1.466   3.279   0.953
  588SOL    HW1 1780   1.407   3.285   1.033
  588SOL    HW2 1781   1.451   3.191   0.907
  589SOL     OW 1782   1.667   3.576   0.572
  589SOL    HW1 1783   1.626   3.553   0.484
  589SOL    HW2 1784   1.649   3.502   0.637
  590SOL     OW 1785   0.598   2.591   0.270
  590SOL    HW1 1786   0.622   2.660   0.202
  590SOL    HW2 1787   0.520   2.624   0.324
  591SOL     OW 1788   1.281   2.207   0.944
  591SOL    HW1 1789   1.195   2.157   0.931
  591SOL    HW2 1790   1.343   2.153   1.000
  592SOL     OW 1791   1.576   3.524   0.307
  592SOL    HW1 1792   1.665   3.570   0.310
  592SOL    HW2 1793   1.555   3.500   0.212
  593SOL     OW 1794   0.807   2.467   1.465
  593SOL    HW1 1795   0.760   2.464   1.554
  593SOL    HW2 1796   0.756   2.412   1.399
  594SOL     OW 1797   1.394   2.331   1.674
  594SOL    HW1 1798   1.374   2.374   1.762
  594SOL    HW2 1799   1.472   2.269   1.683
  595SOL     OW 1800   0.973   2.752   1.572
  595SOL    HW1 1801   1.019   2.668   1.543
  595SOL    HW2 1802   0.917   2.786   1.497
  596SOL     OW 1803   0.991   2.272   1.242
  596SOL    HW1 1804   0.914   2.306   1.296
  596SOL    HW2 1805   0.957   2.221   1.163
  597SOL     OW 1806   1.041   2.563   0.429
  597SOL    HW1 1807   1.067   2.559   0.525
  597SOL    HW2 1808   0.956   2.512   0.415
  598SOL     OW 1809   0.076   2.673   0.789
  598SOL    HW1 1810   0.175   2.661   0.798
  598SOL    HW2 1811   0.052   2.768   0.810
  599SOL     OW 1812   0.130   3.683   1.571
  599SOL    HW1 1813   0.120   3.668   1.670
  599SOL    HW2 1814   0.044   3.719   1.535
  600SOL     OW 1815   0.865   2.210   0.195
  600SOL    HW1 1816   0.924   2.273   0.146
  600SOL    HW2 1817   0.884   2.116   0.166
  601SOL     OW 1818   1.719   2.447   1.831
  601SOL    HW1 1819   1.693   2.536   1.795
  601SOL    HW2 1820   1.717   2.379   1.758
  602SOL     OW 1821   1.362   3.006   0.545
  602SOL    HW1 1822   1.445   2.977   0.497
  602SOL    HW2 1823   1.313   3.073   0.489
  603SOL     OW 1824   0.550   2.058   0.885
  603SOL    HW1 1825   0.545   2.053   0.985
  603SOL    HW2 1826   0.552   2.154   0.856
  604SOL     OW 1827   1.008   3.318   0.477
  604SOL    HW1 1828   0.962   3.390   0.425
  604SOL    HW2 1829   1.004   3.338   0.575
  605SOL     OW 1830   0.351   3.663   0.853
  605SOL    HW1 1831   0.401   3.577   0.859
  605SOL    HW2 1832   0.416   3.740   0.850
  606SOL     OW 1833   1.795   2.928   0.873
  606SOL    HW1 1834   1.733   2.913   0.797
  606SOL    HW2 1835   1.743   2.939   0.958
  607SOL     OW 1836   1.227   3.412   1.506
  607SOL    HW1 1837   1.233   3.335   1.570
  607SOL    HW2 1838   1.175   3.386   1.426
  608SOL     OW 1839   0.321   2.805   0.242
  608SOL    HW1 1840   0.403   2.844   0.200
  608SOL    HW2 1841   0.294   2.723   0.193
  609SOL     OW 1842   1.458   2.597   0.728
  609SOL    HW1 1843   1.453   2.532   0.803
  609SOL    HW2 1844   1.538   2.656   0.741
  610SOL     OW 1845   0.461   3.128   1.727
  610SOL    HW1 1846   0.411   3.129   1.641
  610SOL    HW2 1847   0.398   3.110   1.803
  611SOL     OW 1848   1.111   3.638   0.237
  611SOL    HW1 1849   1.051   3.576   0.287
  611SOL    HW2 1850   1.142   3.594   0.152
  612SOL     OW 1851   0.202   2.147   1.498
  612SOL    HW1 1852   0.122   2.207   1.485
  612SOL    HW2 1853   0.192   2.098   1.584
  613SOL     OW 1854   1.632   3.239   0.081
  613SOL    HW1 1855   1.600   3.333   0.071
  613SOL    HW2 1856   1.556   3.176   0.069
  614SOL     OW 1857   0.464   3.605   0.323
  614SOL    HW1 1858   0.497   3.644   0.409
  614SOL    HW2 1859   0.540   3.598   0.258
  615SOL     OW 1860   1.400   1.969   0.426
  615SOL    HW1 1861   1.376   1.932   0.336
  615SOL    HW2 1862   1.499   1.985   0.430
  616SOL     OW 1863   0.249   3.647   1.241
  616SOL    HW1 1864   0.306   3.582   1.291
  616SOL    HW2 1865   0.233   3.614   1.148
  617SOL     OW 1866   0.940   3.560   0.904
  617SOL    HW1 1867   1.020   3.503   0.925
  617SOL    HW2 1868   0.891   3.520   0.827
  618SOL     OW 1869   0.382   2.562   0.480
  618SOL    HW1 1870   0.427   2.472   0.477
  618SOL    HW2 1871   0.288   2.551   0.513
  619SOL     OW 1872   1.547   2.084   1.729
  619SOL    HW1 1873   1.542   2.121   1.821
  619SOL    HW2 1874   1.475   2.015   1.717
  620SOL     OW 1875   0.614   1.984   0.117
  620SOL    HW1 1876   0.712   1.962   0.124
  620SOL    HW2 1877   0.583   1.967   0.024
  621SOL     OW 1878   0.781   2.126   1.749
  621SOL    HW1 1879   0.848   2.065   1.792
  621SOL    HW2 1880   0.708   2.145   1.814
  622SOL     OW 1881   0.888   3.376   1.195
  622SOL    HW1 1882   0.865   3.351   1.101
  622SOL    HW2 1883   0.949   3.307   1.234
  623SOL     OW 1884   1.351   2.452   1.433
  623SOL    HW1 1885   1.379   2.409   1.518
  623SOL    HW2 1886   1.376   2.548   1.434
  624SOL     OW 1887   0.803   3.264   0.924
  624SOL    HW1 1888   0.893   3.278   0.882
  624SOL    HW2 1889   0.732   3.266   0.853
  625SOL     OW 1890   0.922   2.365   0.899
  625SOL    HW1 1891   0.897   2.356   0.803
  625SOL    HW2 1892   0.970   2.283   0.930
  626SOL     OW 1893   0.539   1.926   0.512
  626SOL    HW1 1894   0.458   1.927   0.570
  626SOL    HW2 1895   0.542   2.009   0.457
  627SOL     OW 1896   1.434   3.050   0.041
  627SOL    HW1 1897   1.466   2.974   0.098
  627SOL    HW2 1898   1.342   3.077   0.071
  628SOL     OW 1899   0.935   2.098   0.480
  628SOL    HW1 1900   0.887   2.139   0.402
  628SOL    HW2 1901   1.034   2.096   0.461
  629SOL     OW 1902   1.076   2.545   1.464
  629SOL    HW1 1903   0.996   2.484   1.467
  629SOL    HW2 1904   1.157   2.492   1.440
  630SOL     OW 1905   1.227   3.432   0.793
  630SOL    HW1 1906   1.248   3.506   0.728
  630SOL    HW2 1907   1.295   3.432   0.866
  631SOL     OW 1908   0.459   3.014   0.741
  631SOL    HW1 1909   0.388   2.987   0.806
  631SOL    HW2 1910   0.433   2.986   0.648
  632SOL     OW 1911   1.271   3.659   0.591
  632SOL    HW1 1912   1.315   3.723   0.527
  632SOL    HW2 1913   1.221   3.711   0.661
  633SOL     OW 1914   1.032   2.411   0.016
  633SOL    HW1 1915   0.991   2.493  -0.023
  633SOL    HW2 1916   1.096   2.437   0.089
  634SOL     OW 1917   0.078   2.418   1.386
  634SOL    HW1 1918   0.170   2.417   1.345
  634SOL    HW2 1919   0.072   2.492   1.453
  635SOL     OW 1920   0.561   2.084   1.147
  635SOL    HW1 1921   0.599   2.000   1.184
  635SOL    HW2 1922   0.473   2.103   1.191
  636SOL     OW 1923   0.866   2.316   0.642
  636SOL    HW1 1924   0.834   2.388   0.580
  636SOL    HW2 1925   0.890   2.235   0.589
  637SOL     OW 1926   1.017   1.901   0.753
  637SOL    HW1 1927   0.945   1.906   0.684
  637SOL    HW2 1928   0.993   1.832   0.822
  638SOL     OW 1929   1.429   3.035   0.867
  638SOL    HW1 1930   1.374   2.951   0.860
  638SOL    HW2 1931   1.455   3.064   0.775
  639SOL     OW 1932   1.466   2.452   0.992
  639SOL    HW1 1933   1.436   2.357   0.999
  639SOL    HW2 1934   1.539   2.468   1.058
  640SOL     OW 1935   1.857   2.695   0.377
  640SOL    HW1 1936   1.899   2.631   0.441
  640SOL    HW2 1937   1.819   2.644   0.299
  641SOL     OW 1938   0.488   3.247   0.174
  641SOL    HW1 1939   0.401   3.232   0.221
  641SOL    HW2 1940   0.471   3.273   0.079
  642SOL     OW 1941   1.664   3.142   0.657
  642SOL    HW1 1942   1.763   3.150   0.671
  642SOL    HW2 1943   1.619   3.226   0.688
  643SOL     OW 1944   1.390   2.437   0.078
  643SOL    HW1 1945   1.336   2.416   0.159
  643SOL    HW2 1946   1.481   2.396   0.087
  644SOL     OW 1947   0.527   2.118   0.328
  644SOL    HW1 1948   0.554   2.059   0.253
  644SOL    HW2 1949   0.527   2.213   0.297
  645SOL     OW 1950   1.754   3.085   1.588
  645SOL    HW1 1951   1.845   3.046   1.575
  645SOL    HW2 1952   1.762   3.181   1.612
  646SOL     OW 1953   1.064   3.209   1.340
  646SOL    HW1 1954   0.984   3.186   1.395
  646SOL    HW2 1955   1.147   3.183   1.389
  647SOL     OW 1956   1.592   3.491   1.625
  647SOL    HW1 1957   1.619   3.525   1.535
  647SOL    HW2 1958   1.671   3.453   1.671
  648SOL     OW 1959   1.111   3.057   1.100
  648SOL    HW1 1960   1.071   3.101   1.181
  648SOL    HW2 1961   1.070   3.094   1.017
  649SOL     OW 1962   1.638   2.961   1.079
  649SOL    HW1 1963   1.643   3.042   1.138
  649SOL    HW2 1964   1.552   2.963   1.028
  650SOL     OW 1965   0.915   1.951   1.402
  650SOL    HW1 1966   0.940   1.931   1.307
  650SOL    HW2 1967   0.987   2.007   1.444
  651SOL     OW 1968   0.980   2.978   1.719
  651SOL    HW1 1969   0.881   2.984   1.729
  651SOL    HW2 1970   1.003   2.898   1.663
  652SOL     OW 1971   0.705   2.912   0.368
  652SOL    HW1 1972   0.691   2.919   0.467
  652SOL    HW2 1973   0.789   2.861   0.350
  653SOL     OW 1974   0.410   2.675   1.251
  653SOL    HW1 1975   0.496   2.687   1.301
  653SOL    HW2 1976   0.368   2.588   1.278
  654SOL     OW 1977   1.274   2.248   1.262
  654SOL    HW1 1978   1.295   2.322   1.326
  654SOL    HW2 1979   1.185   2.265   1.219
  655SOL     OW 1980   0.064   3.426   1.331
  655SOL    HW1 1981   0.018   3.508   1.297
  655SOL    HW2 1982   0.162   3.445   1.340
  656SOL     OW 1983   0.367   2.962   0.501
  656SOL    HW1 1984   0.360   3.045   0.445
  656SOL    HW2 1985   0.371   2.882   0.441
  657SOL     OW 1986   0.566   2.399   0.865
  657SOL    HW1 1987   0.578   2.465   0.791
  657SOL    HW2 1988   0.612   2.433   0.948
  658SOL     OW 1989   1.252   3.210   0.388
  658SOL    HW1 1990   1.302   3.287   0.428
  658SOL    HW2 1991   1.157   3.212   0.420
  659SOL     OW 1992   1.272   3.307   1.142
  659SOL    HW1 1993   1.319   3.320   1.229
  659SOL    HW2 1994   1.206   3.233   1.151
  660SOL     OW 1995   1.582   2.501   0.472
  660SOL    HW1 1996   1.551   2.562   0.545
  660SOL    HW2 1997   1.632   2.553   0.403
  661SOL     OW 1998   0.354   3.372   1.329
  661SOL    HW1 1999   0.333   3.328   1.242
  661SOL    HW2 2000   0.451   3.398   1.332
  662SOL     OW 2001   0.402   2.613   1.598
  662SOL    HW1 2002   0.470   2.668   1.551
  662SOL    HW2 2003   0.442   2.525   1.625
  663SOL     OW 2004   1.587   2.641   1.670
  663SOL    HW1 2005   1.495   2.679   1.665
  663SOL    HW2 2006   1.647   2.688   1.605
  664SOL     OW 2007   1.013   1.967   1.770
  664SOL    HW1 2008   1.019   2.052   1.718
  664SOL    HW2 2009   1.045   1.891   1.713
  665SOL     OW 2010   0.504   1.912   1.740
  665SOL    HW1 2011   0.462   1.855   1.670
  665SOL    HW2 2012   0.438   1.981   1.772
  666SOL     OW 2013   0.573   2.732   1.029
  666SOL    HW1 2014   0.617   2.821   1.020
  666SOL    HW2 2015   0.510   2.732   1.106
  667SOL     OW 2016   1.360   2.724   1.045
  667SOL    HW1 2017   1.285   2.724   0.979
  667SOL    HW2 2018   1.397   2.632   1.054
  668SOL     OW 2019   1.209   2.387   0.275
  668SOL    HW1 2020   1.222   2.303   0.329
  668SOL    HW2 2021   1.180   2.461   0.335
  669SOL     OW 2022   0.307   2.075   1.231
  669SOL    HW1 2023   0.284   2.112   1.321
  669SOL    HW2 2024   0.277   1.980   1.225
  670SOL     OW 2025   0.037   3.172   1.282
  670SOL    HW1 2026   0.090   3.123   1.350
  670SOL    HW2 2027   0.059   3.270   1.287
  671SOL     OW 2028   0.732   2.496   1.064
  671SOL    HW1 2029   0.791   2.470   0.988
  671SOL    HW2 2030   0.704   2.592   1.053
  672SOL     OW 2031   1.728   2.797   1.854
  672SOL    HW1 2032   1.682   2.790   1.765
  672SOL    HW2 2033   1.666   2.841   1.920
  673SOL     OW 2034   0.307   1.925   0.618
  673SOL    HW1 2035   0.296   2.019   0.651
  673SOL    HW2 2036   0.302   1.862   0.695
  674SOL     OW 2037   1.622   2.229   0.374
  674SOL    HW1 2038   1.624   2.153   0.438
  674SOL    HW2 2039   1.574   2.306   0.414
  675SOL     OW 2040   1.023   2.628   0.966
  675SOL    HW1 2041   1.038   2.649   1.062
  675SOL    HW2 2042   0.993   2.533   0.957
  676SOL     OW 2043   0.980   3.435   1.700
  676SOL    HW1 2044   0.960   3.479   1.612
  676SOL    HW2 2045   1.019   3.344   1.684
  677SOL     OW 2046   1.859   3.380   1.605
  677SOL    HW1 2047   1.873   3.407   1.510
  677SOL    HW2 2048   1.942   3.402   1.658
  678SOL     OW 2049   0.350   2.760   1.804
  678SOL    HW1 2050   0.426   2.804   1.852
  678SOL    HW2 2051   0.385   2.713   1.722
  679SOL     OW 2052   1.540   2.136   0.125
  679SOL    HW1 2053   1.479   2.061   0.148
  679SOL    HW2 2054   1.562   2.188   0.208
  680SOL     OW 2055   1.303   2.700   0.042
  680SOL    HW1 2056   1.337   2.607   0.057
  680SOL    HW2 2057   1.321   2.727  -0.053
  681SOL     OW 2058   1.068   3.195   0.849
  681SOL    HW1 2059   1.075   3.111   0.794
  681SOL    HW2 2060   1.130   3.264   0.813
  682SOL     OW 2061   0.319   2.672   0.949
  682SOL    HW1 2062   0.412   2.708   0.954
  682SOL    HW2 2063   0.313   2.587   1.001
  683SOL     OW 2064   0.339   2.371   1.006
  683SOL    HW1 2065   0.287   2.288   0.989
  683SOL    HW2 2066   0.416   2.376   0.942
  684SOL     OW 2067   1.138   2.242   1.678
  684SOL    HW1 2068   1.093   2.305   1.742
  684SOL    HW2 2069   1.231   2.273   1.661
  685SOL     OW 2070   1.160   2.069   1.477
  685SOL    HW1 2071   1.160   2.133   1.554
  685SOL    HW2 2072   1.188   2.117   1.394
  686SOL     OW 2073   0.008   3.188   0.200
  686SOL    HW1 2074  -0.085   3.209   0.169
  686SOL    HW2 2075   0.018   3.089   0.213
  687SOL     OW 2076   0.088   3.663   0.927
  687SOL    HW1 2077   0.046   3.577   0.900
  687SOL    HW2 2078   0.182   3.666   0.893
  688SOL     OW 2079   0.504   3.430   0.910
  688SOL    HW1 2080   0.570   3.504   0.919
  688SOL    HW2 2081   0.548   3.351   0.868
  689SOL     OW 2082   1.002   2.658   1.238
  689SOL    HW1 2083   1.043   2.626   1.324
  689SOL    HW2 2084   0.906   2.631   1.235
  690SOL     OW 2085   0.040   2.406   1.114
  690SOL    HW1 2086   0.125   2.373   1.073
  690SOL    HW2 2087   0.053   2.421   1.212
  691SOL     OW 2088   0.189   2.382   1.722
  691SOL    HW1 2089   0.248   2.342   1.652
  691SOL    HW2 2090   0.131   2.453   1.681
  692SOL     OW 2091   1.369   2.812   1.660
  692SOL    HW1 2092   1.408   2.901   1.680
  692SOL    HW2 2093   1.379   2.792   1.563
  693SOL     OW 2094   0.815   2.434   0.325
  693SOL    HW1 2095   0.822   2.345   0.279
  693SOL    HW2 2096   0.721   2.468   0.317
  694SOL     OW 2097   1.657   2.466   1.206
  694SOL    HW1 2098   1.619   2.397   1.268
  694SOL    HW2 2099   1.739   2.430   1.162
  695SOL     OW 2100   0.252   3.426   1.744
  695SOL    HW1 2101   0.222   3.483   1.820
  695SOL    HW2 2102   0.245   3.329   1.770
  696SOL     OW 2103   0.671   2.326   1.269
  696SOL    HW1 2104   0.637   2.237   1.239
  696SOL    HW2 2105   0.697   2.380   1.189
  697SOL     OW 2106   0.930   3.540   1.465
  697SOL    HW1 2107   0.906   3.522   1.370
  697SOL    HW2 2108   0.960   3.634   1.475
  698SOL     OW 2109   0.473   2.362   0.191
  698SOL    HW1 2110   0.534   2.442   0.195
  698SOL    HW2 2111   0.378   2.393   0.198
  699SOL     OW 2112   0.159   2.999   1.466
  699SOL    HW1 2113   0.181   2.938   1.542
  699SOL    HW2 2114   0.169   2.950   1.380
  700SOL     OW 2115   1.347   2.921   1.234
  700SOL    HW1 2116   1.371   2.858   1.160
  700SOL    HW2 2117   1.257   2.961   1.216
  701SOL     OW 2118   1.302   2.717   0.309
  701SOL    HW1 2119   1.216   2.686   0.351
  701SOL    HW2 2120   1.298   2.703   0.210
  702SOL     OW 2121   1.759   3.609   1.154
  702SOL    HW1 2122   1.820   3.639   1.081
  702SOL    HW2 2123   1.721   3.520   1.132
  703SOL     OW 2124   1.252   3.593   1.128
  703SOL    HW1 2125   1.336   3.598   1.074
  703SOL    HW2 2126   1.229   3.497   1.146
  704SOL     OW 2127   0.083   3.120   1.022
  704SOL    HW1 2128   0.078   3.119   1.122
  704SOL    HW2 2129   0.000   3.079   0.984
  705SOL     OW 2130   0.688   3.524   1.716
  705SOL    HW1 2131   0.632   3.605   1.725
  705SOL    HW2 2132   0.740   3.528   1.630
  706SOL     OW 2133   0.903   1.948   0.133
  706SOL    HW1 2134   0.954   1.949   0.047
  706SOL    HW2 2135   0.959   1.906   0.204
  707SOL     OW 2136   1.726   1.997   0.523
  707SOL    HW1 2137   1.799   1.980   0.456
  707SOL    HW2 2138   1.695   1.910   0.561
  708SOL     OW 2139   1.388   3.435   0.477
  708SOL    HW1 2140   1.455   3.447   0.403
  708SOL    HW2 2141   1.348   3.524   0.500
  709SOL     OW 2142   0.130   3.656   1.851
  709SOL    HW1 2143   0.089   3.582   1.904
  709SOL    HW2 2144   0.194   3.707   1.909
  710SOL     OW 2145   1.280   2.789   0.672
  710SOL    HW1 2146   1.340   2.708   0.674
  710SOL    HW2 2147   1.320   2.858   0.612
  711SOL     OW 2148   0.830   3.135   1.422
  711SOL    HW1 2149   0.825   3.168   1.517
  711SOL    HW2 2150   0.744   3.154   1.376
  712SOL     OW 2151   0.672   3.478   0.154
  712SOL    HW1 2152   0.681   3.488   0.055
  712SOL    HW2 2153   0.632   3.389   0.175
  713SOL     OW 2154   1.650   3.582   1.394
  713SOL    HW1 2155   1.703   3.592   1.310
  713SOL    HW2 2156   1.623   3.672   1.428
  714SOL     OW 2157   1.841   2.037   0.963
  714SOL    HW1 2158   1.880   1.952   0.927
  714SOL    HW2 2159   1.743   2.039   0.944
  715SOL     OW 2160   0.263   2.188   0.720
  715SOL    HW1 2161   0.184   2.239   0.686
  715SOL    HW2 2162   0.254   2.173   0.818
  716SOL     OW 2163   1.194   3.474   0.031
  716SOL    HW1 2164   1.200   3.381   0.068
  716SOL    HW2 2165   1.135   3.474  -0.049
  717SOL     OW 2166   0.822   2.864   1.372
  717SOL    HW1 2167   0.862   2.863   1.280
  717SOL    HW2 2168   0.832   2.956   1.412
  718SOL     OW 2169   0.916   2.772   0.291
  718SOL    HW1 2170   0.979   2.810   0.223
  718SOL    HW2 2171   0.956   2.689   0.330
  719SOL     OW 2172   1.504   3.469   0.044
  719SOL    HW1 2173   1.412   3.506   0.051
  719SOL    HW2 2174   1.542   3.489  -0.046
  720SOL     OW 2175   0.372   3.150   1.490
  720SOL    HW1 2176   0.359   3.243   1.456
  720SOL    HW2 2177   0.288   3.098   1.477
  721SOL     OW 2178   1.614   3.154   1.289
  721SOL    HW1 2179   1.674   3.157   1.369
  721SOL    HW2 2180   1.539   3.218   1.302
  722SOL     OW 2181   1.039   2.960   0.696
  722SOL    HW1 2182   0.969   2.913   0.750
  722SOL    HW2 2183   1.098   2.892   0.653
  723SOL     OW 2184   1.014   2.098   0.971
  723SOL    HW1 2185   1.006   2.062   0.878
  723SOL    HW2 2186   1.012   2.022   1.036
  724SOL     OW 2187   0.590   3.349   0.491
  724SOL    HW1 2188   0.632   3.291   0.421
  724SOL    HW2 2189   0.546   3.428   0.447
  725SOL     OW 2190   1.709   2.247   1.381
  725SOL    HW1 2191   1.782   2.316   1.385
  725SOL    HW2 2192   1.737   2.172   1.322
  726SOL     OW 2193   0.255   3.210   0.290
  726SOL    HW1 2194   0.159   3.211   0.263
  726SOL    HW2 2195   0.267   3.263   0.374
  727SOL     OW 2196   0.105   2.875   1.726
  727SOL    HW1 2197   0.028   2.842   1.780
  727SOL    HW2 2198   0.190   2.845   1.768
  728SOL     OW 2199   0.672   2.065   1.489
  728SOL    HW1 2200   0.762   2.049   1.449
  728SOL    HW2 2201   0.680   2.070   1.588
  729SOL     OW 2202   0.075   2.207   0.033
  729SOL    HW1 2203  -0.017   2.179   0.004
  729SOL    HW2 2204   0.106   2.284  -0.023
  730SOL     OW 2205   1.440   2.718   1.398
  730SOL    HW1 2206   1.383   2.770   1.335
  730SOL    HW2 2207   1.536   2.730   1.374
  731SOL     OW 2208   0.072   2.028   0.318
  731SOL    HW1 2209   0.055   2.111   0.264
  731SOL    HW2 2210   0.162   1.991   0.296
  732SOL     OW 2211   1.183   3.197   0.119
  732SOL    HW1 2212   1.084   3.186   0.121
  732SOL    HW2 2213   1.217   3.212   0.212
  733SOL     OW 2214   0.613   2.704   1.431
  733SOL    HW1 2215   0.669   2.785   1.414
  733SOL    HW2 2216   0.672   2.624   1.434
  734SOL     OW 2217   1.493   3.629   0.959
  734SOL    HW1 2218   1.526   3.693   0.890
  734SOL    HW2 2219   1.559   3.623   1.034
  735SOL     OW 2220   0.716   2.427   1.708
  735SOL    HW1 2221   0.735   2.492   1.782
  735SOL    HW2 2222   0.776   2.347   1.717
  736SOL     OW 2223   1.450   3.082   1.633
  736SOL    HW1 2224   1.441   3.072   1.732
  736SOL    HW2 2225   1.546   3.075   1.607
  737SOL     OW 2226   0.390   3.603   1.560
  737SOL    HW1 2227   0.299   3.644   1.558
  737SOL    HW2 2228   0.383   3.509   1.592
  738SOL     OW 2229   1.674   2.745   1.254
  738SOL    HW1 2230   1.647   2.656   1.217
  738SOL    HW2 2231   1.675   2.813   1.181
  739SOL     OW 2232   1.225   2.187   0.449
  739SOL    HW1 2233   1.290   2.113   0.438
  739SOL    HW2 2234   1.245   2.237   0.533
  740SOL     OW 2235   0.594   2.607   0.652
  740SOL    HW1 2236   0.644   2.692   0.633
  740SOL    HW2 2237   0.506   2.609   0.604
  741SOL     OW 2238   1.777   2.204   1.642
  741SOL    HW1 2239   1.760   2.235   1.548
  741SOL    HW2 2240   1.693   2.167   1.680
  742SOL     OW 2241   1.730   2.796   1.517
  742SOL    HW1 2242   1.768   2.887   1.532
  742SOL    HW2 2243   1.722   2.779   1.418
  743SOL     OW 2244   0.859   3.236   0.016
  743SOL    HW1 2245   0.813   3.251   0.104
  743SOL    HW2 2246   0.903   3.321  -0.014
  744SOL     OW 2247   0.661   3.652   0.953
  744SOL    HW1 2248   0.615   3.740   0.940
  744SOL    HW2 2249   0.760   3.664   0.946
  745SOL     OW 2250   0.859   2.818   0.861
  745SOL    HW1 2251   0.913   2.749   0.909
  745SOL    HW2 2252   0.827   2.887   0.927
  746SOL     OW 2253   1.083   2.846   0.087
  746SOL    HW1 2254   1.060   2.899   0.005
  746SOL    HW2 2255   1.164   2.790   0.068
  747SOL     OW 2256   1.861   3.431   0.851
  747SOL    HW1 2257   1.790   3.419   0.781
  747SOL    HW2 2258   1.862   3.352   0.911
  748SOL     OW 2259   0.221   3.176   1.844
  748SOL    HW1 2260   0.156   3.103   1.823
  748SOL    HW2 2261   0.225   3.190   1.942
  749SOL     OW 2262   0.079   3.102   0.653
  749SOL    HW1 2263   0.078   3.055   0.741
  749SOL    HW2 2264   0.161   3.074   0.602
  750SOL     OW 2265   0.672   3.253   1.624
  750SOL    HW1 2266   0.594   3.203   1.662
  750SOL    HW2 2267   0.669   3.348   1.655
  751SOL     OW 2268   1.824   2.054   1.227
  751SOL    HW1 2269   1.820   1.964   1.271
  751SOL    HW2 2270   1.827   2.043   1.128
  752SOL     OW 2271   0.428   2.286   0.520
  752SOL    HW1 2272   0.458   2.214   0.458
  752SOL    HW2 2273   0.389   2.246   0.603
  753SOL     OW 2274   1.705   3.349   1.104
  753SOL    HW1 2275   1.612   3.324   1.077
  753SOL    HW2 2276   1.731   3.299   1.186
  754SOL     OW 2277   0.317   2.409   1.280
  754SOL    HW1 2278   0.355   2.350   1.352
  754SOL    HW2 2279   0.357   2.383   1.192
  755SOL     OW 2280   0.812   3.448   0.687
  755SOL    HW1 2281   0.844   3.458   0.593
  755SOL    HW2 2282   0.733   3.386   0.689
  756SOL     OW 2283   1.424   2.076   1.112
  756SOL    HW1 2284   1.476   2.011   1.167
  756SOL    HW2 2285   1.375   2.139   1.173
  757SOL     OW 2286   1.001   1.896   1.154
  757SOL    HW1 2287   0.938   1.824   1.123
  757SOL    HW2 2288   1.094   1.860   1.154
  758SOL     OW 2289   0.770   3.192   0.301
  758SOL    HW1 2290   0.724   3.105   0.318
  758SOL    HW2 2291   0.861   3.189   0.342
  759SOL     OW 2292   0.618   3.429   1.284
  759SOL    HW1 2293   0.613   3.511   1.341
  759SOL    HW2 2294   0.707   3.426   1.239
  760SOL     OW 2295   1.352   1.914   0.168
  760SOL    HW1 2296   1.387   1.873   0.084
  760SOL    HW2 2297   1.262   1.876   0.188
  761SOL     OW 2298   1.300   2.315   0.691
  761SOL    HW1 2299   1.241   2.395   0.695
  761SOL    HW2 2300   1.315   2.280   0.784
  762SOL     OW 2301   1.593   2.083   0.882
  762SOL    HW1 2302   1.509   2.082   0.936
  762SOL    HW2 2303   1.595   2.166   0.826
  763SOL     OW 2304   0.039   2.939   0.300
  763SOL    HW1 2305   0.138   2.928   0.291
  763SOL    HW2 2306  -0.001   2.853   0.332
  764SOL     OW 2307   0.875   3.508   0.337
  764SOL    HW1 2308   0.798   3.473   0.283
  764SOL    HW2 2309   0.843   3.579   0.399
  765SOL     OW 2310   0.230   2.490   1.975
  765SOL    HW1 2311   0.137   2.488   2.012
  765SOL    HW2 2312   0.231   2.451   1.883
  766SOL     OW 2313   0.225   2.137   2.858
  766SOL    HW1 2314   0.260   2.120   2.950
  766SOL    HW2 2315   0.137   2.092   2.846
  767SOL     OW 2316   0.019   2.230   2.509
  767SOL    HW1 2317  -0.063   2.273   2.548
  767SOL    HW2 2318  -0.009   2.157   2.446
  768SOL     OW 2319   0.569   3.137   3.027
  768SOL    HW1 2320   0.476   3.130   2.990
  768SOL    HW2 2321   0.580   3.226   3.071
  769SOL     OW 2322   1.555   3.373   2.565
  769SOL    HW1 2323   1.498   3.357   2.646
  769SOL    HW2 2324   1.496   3.383   2.485
  770SOL     OW 2325   1.135   2.565   2.579
  770SOL    HW1 2326   1.192   2.643   2.554
  770SOL    HW2 2327   1.075   2.591   2.655
  771SOL     OW 2328   1.755   2.469   2.093
  771SOL    HW1 2329   1.743   2.456   1.994
  771SOL    HW2 2330   1.725   2.388   2.142
  772SOL     OW 2331   0.768   3.006   2.885
  772SOL    HW1 2332   0.690   3.023   2.945
  772SOL    HW2 2333   0.802   3.093   2.849
  773SOL     OW 2334   0.850   2.660   3.685
  773SOL    HW1 2335   0.846   2.736   3.750
  773SOL    HW2 2336   0.872   2.696   3.594
  774SOL     OW 2337   0.685   2.874   2.527
  774SOL    HW1 2338   0.754   2.858   2.597
  774SOL    HW2 2339   0.612   2.931   2.565
  775SOL     OW 2340   0.686   3.023   3.665
  775SOL    HW1 2341   0.746   3.102   3.679
  775SOL    HW2 2342   0.600   3.054   3.624
  776SOL     OW 2343   0.335   3.297   2.923
  776SOL    HW1 2344   0.257   3.266   2.870
  776SOL    HW2 2345   0.393   3.355   2.866
  777SOL     OW 2346   1.460   3.367   3.201
  777SOL    HW1 2347   1.484   3.461   3.227
  777SOL    HW2 2348   1.444   3.313   3.283
  778SOL     OW 2349   0.438   2.254   3.361
  778SOL    HW1 2350   0.520   2.198   3.370
  778SOL    HW2 2351   0.357   2.196   3.365
  779SOL     OW 2352   1.603   2.309   2.599
  779SOL    HW1 2353   1.529   2.355   2.549
  779SOL    HW2 2354   1.654   2.377   2.652
  780SOL     OW 2355   0.231   3.575   2.345
  780SOL    HW1 2356   0.265   3.652   2.399
  780SOL    HW2 2357   0.275   3.575   2.255
  781SOL     OW 2358   1.127   3.203   3.552
  781SOL    HW1 2359   1.174   3.203   3.640
  781SOL    HW2 2360   1.079   3.116   3.541
  782SOL     OW 2361   0.230   3.296   2.400
  782SOL    HW1 2362   0.204   3.392   2.400
  782SOL    HW2 2363   0.159   3.242   2.445
  783SOL     OW 2364   0.240   2.953   2.748
  783SOL    HW1 2365   0.254   2.869   2.800
  783SOL    HW2 2366   0.185   3.017   2.803
  784SOL     OW 2367   0.620   3.648   3.301
  784SOL    HW1 2368   0.528   3.631   3.336
  784SOL    HW2 2369   0.648   3.740   3.327
  785SOL     OW 2370   0.606   2.826   1.985
  785SOL    HW1 2371   0.613   2.910   1.931
  785SOL    HW2 2372   0.652   2.839   2.073
  786SOL     OW 2373   1.594   1.976   3.342
  786SOL    HW1 2374   1.576   2.043   3.270
  786SOL    HW2 2375   1.591   2.022   3.431
  787SOL     OW 2376   0.122   2.505   2.425
  787SOL    HW1 2377   0.077   2.417   2.442
  787SOL    HW2 2378   0.121   2.559   2.509
  788SOL     OW 2379   1.842   3.629   2.221
  788SOL    HW1 2380   1.896   3.600   2.301
  788SOL    HW2 2381   1.872   3.719   2.192
  789SOL     OW 2382   0.027   3.458   1.979
  789SOL    HW1 2383   0.008   3.362   2.000
  789SOL    HW2 2384  -0.006   3.516   2.054
  790SOL     OW 2385   1.689   2.784   2.474
  790SOL    HW1 2386   1.784   2.755   2.482
  790SOL    HW2 2387   1.681   2.849   2.399
  791SOL     OW 2388   1.641   2.970   2.294
  791SOL    HW1 2389   1.727   2.972   2.242
  791SOL    HW2 2390   1.655   3.017   2.382
  792SOL     OW 2391   0.113   2.599   3.459
  792SOL    HW1 2392   0.201   2.586   3.504
  792SOL    HW2 2393   0.100   2.696   3.437
  793SOL     OW 2394   0.613   3.227   2.588
  793SOL    HW1 2395   0.564   3.140   2.597
  793SOL    HW2 2396   0.590   3.270   2.501
  794SOL     OW 2397   1.293   3.090   3.285
  794SOL    HW1 2398   1.330   3.017   3.227
  794SOL    HW2 2399   1.345   3.095   3.370
  795SOL     OW 2400   0.809   1.866   2.364
  795SOL    HW1 2401   0.849   1.957   2.355
  795SOL    HW2 2402   0.709   1.874   2.370
  796SOL     OW 2403   0.197   2.838   3.126
  796SOL    HW1 2404   0.286   2.793   3.112
  796SOL    HW2 2405   0.124   2.773   3.107
  797SOL     OW 2406   1.525   2.861   2.052
  797SOL    HW1 2407   1.462   2.785   2.065
  797SOL    HW2 2408   1.573   2.879   2.138
  798SOL     OW 2409   1.187   3.654   3.478
  798SOL    HW1 2410   1.211   3.714   3.402
  798SOL    HW2 2411   1.194   3.559   3.448
  799SOL     OW 2412   0.317   2.113   3.663
  799SOL    HW1 2413   0.388   2.184   3.669
  799SOL    HW2 2414   0.229   2.152   3.691
  800SOL     OW 2415   1.466   3.279   2.815
  800SOL    HW1 2416   1.407   3.285   2.895
  800SOL    HW2 2417   1.451   3.191   2.769
  801SOL     OW 2418   1.667   3.576   2.434
  801SOL    HW1 2419   1.626   3.553   2.346
  801SOL    HW2 2420   1.649   3.502   2.499
  802SOL     OW 2421   0.598   2.591   2.132
  802SOL    HW1 2422   0.622   2.660   2.064
  802SOL    HW2 2423   0.520   2.624   2.186
  803SOL     OW 2424   1.281   2.207   2.806
  803SOL    HW1 2425   1.195   2.157   2.793
  803SOL    HW2 2426   1.343   2.153   2.862
  804SOL     OW 2427   1.576   3.524   2.169
  804SOL    HW1 2428   1.665   3.570   2.172
  804SOL    HW2 2429   1.555   3.500   2.074
  805SOL     OW 2430   0.807   2.467   3.327
  805SOL    HW1 2431   0.760   2.464   3.416
  805SOL    HW2 2432   0.756   2.412   3.261
  806SOL     OW 2433   1.394   2.331   3.536
  806SOL    HW1 2434   1.374   2.374   3.624
  806SOL    HW2 2435   1.472   2.269   3.545
  807SOL     OW 2436   0.973   2.752   3.434
  807SOL    HW1 2437   1.019   2.668   3.405
  807SOL    HW2 2438   0.917   2.786   3.359
  808SOL     OW 2439   0.991   2.272   3.104
  808SOL    HW1 2440   0.914   2.306   3.158
  808SOL    HW2 2441   0.957   2.221   3.025
  809SOL     OW 2442   1.041   2.563   2.291
  809SOL    HW1 2443   1.067   2.559   2.387
  809SOL    HW2 2444   0.956   2.512   2.277
  810SOL     OW 2445   0.076   2.673   2.651
  810SOL    HW1 2446   0.175   2.661   2.660
  810SOL    HW2 2447   0.052   2.768   2.672
  811SOL     OW 2448   0.130   3.683   3.433
  811SOL    HW1 2449   0.120   3.668   3.532
  811SOL    HW2 2450   0.044   3.719   3.397
  812SOL     OW 2451   0.865   2.210   2.057
  812SOL    HW1 2452   0.924   2.273   2.008
  812SOL    HW2 2453   0.884   2.116   2.028
  813SOL     OW 2454   1.719   2.447   3.693
  813SOL    HW1 2455   1.693   2.536   3.657
  813SOL    HW2 2456   1.717   2.379   3.620
  814SOL     OW 2457   1.362   3.006   2.407
  814SOL    HW1 2458   1.445   2.977   2.359
  814SOL    HW2 2459   1.313   3.073   2.351
  815SOL     OW 2460   0.550   2.058   2.747
  815SOL    HW1 2461   0.545   2.053   2.847
  815SOL    HW2 2462   0.552   2.154   2.718
  816SOL     OW 2463   1.008   3.318   2.339
  816SOL    HW1 2464   0.962   3.390   2.287
  816SOL    HW2 2465   1.004   3.338   2.437
  817SOL     OW 2466   0.351   3.663   2.715
  817SOL    HW1 2467   0.401   3.577   2.721
  817SOL    HW2 2468   0.416   3.740   2.712
  818SOL     OW 2469   1.795   2.928   2.735
  818SOL    HW1 2470   1.733   2.913   2.659
  818SOL    HW2 2471   1.743   2.939   2.820
  819SOL     OW 2472   1.227   3.412   3.368
  819SOL    HW1 2473   1.233   3.335   3.432
  819SOL    HW2 2474   1.175   3.386   3.288
  820SOL     OW 2475   0.321   2.805   2.104
  820SOL    HW1 2476   0.403   2.844   2.062
  820SOL    HW2 2477   0.294   2.723   2.055
  821SOL     OW 2478   1.458   2.597   2.590
  821SOL    HW1 2479   1.453   2.532   2.665
  821SOL    HW2 2480   1.538   2.656   2.603
  822SOL     OW 2481   0.461   3.128   3.589
  822SOL    HW1 2482   0.411   3.129   3.503
  822SOL    HW2 2483   0.398   3.110   3.665
  823SOL     OW 2484   1.111   3.638   2.099
  823SOL    HW1 2485   1.051   3.576   2.149
  823SOL    HW2 2486   1.142   3.594   2.014
  824SOL     OW 2487   0.202   2.147   3.360
  824SOL    HW1 2488   0.122   2.207   3.347
  824SOL    HW2 2489   0.192   2.098   3.446
  825SOL     OW 2490   1.632   3.239   1.943
  825SOL    HW1 2491   1.600   3.333   1.933
  825SOL    HW2 2492   1.556   3.176   1.931
  826SOL     OW 2493   0.464   3.605   2.185
  826SOL    HW1 2494   0.497   3.644   2.271
  826SOL    HW2 2495   0.540   3.598   2.120
  827SOL     OW 2496   1.400   1.969   2.288
  827SOL    HW1 2497   1.376   1.932   2.198
  827SOL    HW2 2498   1.499   1.985   2.292
  828SOL     OW 2499   0.249   3.647   3.103
  828SOL    HW1 2500   0.306   3.582   3.153
  828SOL    HW2 2501   0.233   3.614   3.010
  829SOL     OW 2502   0.940   3.560   2.766
  829SOL    HW1 2503   1.020   3.503   2.787
  829SOL    HW2 2504   0.891   3.520   2.689
  830SOL     OW 2505   0.382   2.562   2.342
  830SOL    HW1 2506   0.427   2.472   2.339
  830SOL    HW2 2507   0.288   2.551   2.375
  831SOL     OW 2508   1.547   2.084   3.591
  831SOL    HW1 2509   1.542   2.121   3.683
  831SOL    HW2 2510   1.475   2.015   3.579
  832SOL     OW 2511   0.614   1.984   1.979
  832SOL    HW1 2512   0.712   1.962   1.986
  832SOL    HW2 2513   0.583   1.967   1.886
  833SOL     OW 2514   0.781   2.126   3.611
  833SOL    HW1 2515   0.848   2.065   3.654
  833SOL    HW2 2516   0.708   2.145   3.676
  834SOL     OW 2517   0.888   3.376   3.057
  834SOL    HW1 2518   0.865   3.351   2.963
  834SOL    HW2 2519   0.949   3.307   3.096
  835SOL     OW 2520   1.351   2.452   3.295
  835SOL    HW1 2521   1.379   2.409   3.380
  835SOL    HW2 2522   1.376   2.548   3.296
  836SOL     OW 2523   0.803   3.264   2.786
  836SOL    HW1 2524   0.893   3.278   2.744
  836SOL    HW2 2525   0.732   3.266   2.715
  837SOL     OW 2526   0.922   2.365   2.761
  837SOL    HW1 2527   0.897   2.356   2.665
  837SOL    HW2 2528   0.970   2.283   2.792
  838SOL     OW 2529   0.539   1.926   2.374
  838SOL    HW1 2530   0.458   1.927   2.432
  838SOL    HW2 2531   0.542   2.009   2.319
  839SOL     OW 2532   1.434   3.050   1.903
  839SOL    HW1 2533   1.466   2.974   1.960
  839SOL    HW2 2534   1.342   3.077   1.933
  840SOL     OW 2535   0.297   1.897   2.033
  840SOL    HW1 2536   0.346   1.981   2.012
  840SOL    HW2 2537   0.359   1.832   2.078
  841SOL     OW 2538   0.935   2.098   2.342
  841SOL    HW1 2539   0.887   2.139   2.264
  841SOL    HW2 2540   1.034   2.096   2.323
  842SOL     OW 2541   1.076   2.545   3.326
  842SOL    HW1 2542   0.996   2.484   3.329
  842SOL    HW2 2543   1.157   2.492   3.302
  843SOL     OW 2544   1.227   3.432   2.655
  843SOL    HW1 2545   1.248   3.506   2.590
  843SOL    HW2 2546   1.295   3.432   2.728
  844SOL     OW 2547   0.459   3.014   2.603
  844SOL    HW1 2548   0.388   2.987   2.668
  844SOL    HW2 2549   0.433   2.986   2.510
  845SOL     OW 2550   1.271   3.659   2.453
  845SOL    HW1 2551   1.315   3.723   2.389
  845SOL    HW2 2552   1.221   3.711   2.523
  846SOL     OW 2553   1.032   2.411   1.878
  846SOL    HW1 2554   0.991   2.493   1.839
  846SOL    HW2 2555   1.096   2.437   1.951
  847SOL     OW 2556   0.078   2.418   3.248
  847SOL    HW1 2557   0.170   2.417   3.207
  847SOL    HW2 2558   0.072   2.492   3.315
  848SOL     OW 2559   0.561   2.084   3.009
  848SOL    HW1 2560   0.599   2.000   3.046
  848SOL    HW2 2561   0.473   2.103   3.053
  849SOL     OW 2562   0.866   2.316   2.504
  849SOL    HW1 2563   0.834   2.388   2.442
  849SOL    HW2 2564   0.890   2.235   2.451
  850SOL     OW 2565   1.017   1.901   2.615
  850SOL    HW1 2566   0.945   1.906   2.546
  850SOL    HW2 2567   0.993   1.832   2.684
  851SOL     OW 2568   1.429   3.035   2.729
  851SOL    HW1 2569   1.374   2.951   2.722
  851SOL    HW2 2570   1.455   3.064   2.637
  852SOL     OW 2571   1.466   2.452   2.854
  852SOL    HW1 2572   1.436   2.357   2.861
  852SOL    HW2 2573   1.539   2.468   2.920
  853SOL     OW 2574   1.857   2.695   2.239
  853SOL    HW1 2575   1.899   2.631   2.303
  853SOL    HW2 2576   1.819   2.644   2.161
  854SOL     OW 2577   0.488   3.247   2.036
  854SOL    HW1 2578   0.401   3.232   2.083
  854SOL    HW2 2579   0.471   3.273   1.941
  855SOL     OW 2580   1.664   3.142   2.519
  855SOL    HW1 2581   1.763   3.150   2.533
  855SOL    HW2 2582   1.619   3.226   2.550
  856SOL     OW 2583   1.390   2.437   1.940
  856SOL    HW1 2584   1.336   2.416   2.021
  856SOL    HW2 2585   1.481   2.396   1.949
  857SOL     OW 2586   0.527   2.118   2.190
  857SOL    HW1 2587   0.554   2.059   2.115
  857SOL    HW2 2588   0.527   2.213   2.159
  858SOL     OW 2589   1.754   3.085   3.450
  858SOL    HW1 2590   1.845   3.046   3.437
  858SOL    HW2 2591   1.762   3.181   3.474
  859SOL     OW 2592   1.064   3.209   3.202
  859SOL    HW1 2593   0.984   3.186   3.257
  859SOL    HW2 2594   1.147   3.183   3.251
  860SOL     OW 2595   1.592   3.491   3.487
  860SOL    HW1 2596   1.619   3.525   3.397
  860SOL    HW2 2597   1.671   3.453   3.533
  861SOL     OW 2598   1.111   3.057   2.962
  861SOL    HW1 2599   1.071   3.101   3.043
  861SOL    HW2 2600   1.070   3.094   2.879
  862SOL     OW 2601   1.638   2.961   2.941
  862SOL    HW1 2602   1.643   3.042   3.000
  862SOL    HW2 2603   1.552   2.963   2.890
  863SOL     OW 2604   0.915   1.951   3.264
  863SOL    HW1 2605   0.940   1.931   3.169
  863SOL    HW2 2606   0.987   2.007   3.306
  864SOL     OW 2607   0.980   2.978   3.581
  864SOL    HW1 2608   0.881   2.984   3.591
  864SOL    HW2 2609   1.003   2.898   3.525
  865SOL     OW 2610   0.705   2.912   2.230
  865SOL    HW1 2611   0.691   2.919   2.329
  865SOL    HW2 2612   0.789   2.861   2.212
  866SOL     OW 2613   0.410   2.675   3.113
  866SOL    HW1 2614   0.496   2.687   3.163
  866SOL    HW2 2615   0.368   2.588   3.140
  867SOL     OW 2616   1.274   2.248   3.124
  867SOL    HW1 2617   1.295   2.322   3.188
  867SOL    HW2 2618   1.185   2.265   3.081
  868SOL     OW 2619   0.064   3.426   3.193
  868SOL    HW1 2620   0.018   3.508   3.159
  868SOL    HW2 2621   0.162   3.445   3.202
  869SOL     OW 2622   0.367   2.962   2.363
  869SOL    HW1 2623   0.360   3.045   2.307
  869SOL    HW2 2624   0.371   2.882   2.303
  870SOL     OW 2625   0.566   2.399   2.727
  870SOL    HW1 2626   0.578   2.465   2.653
  870SOL    HW2 2627   0.612   2.433   2.810
  871SOL     OW 2628   1.252   3.210   2.250
  871SOL    HW1 2629   1.302   3.287   2.290
  871SOL    HW2 2630   1.157   3.212   2.282
  872SOL     OW 2631   1.272   3.307   3.004
  872SOL    HW1 2632   1.319   3.320   3.091
  872SOL    HW2 2633   1.206   3.233   3.013
  873SOL     OW 2634   1.582   2.501   2.334
  873SOL    HW1 2635   1.551   2.562   2.407
  873SOL    HW2 2636   1.632   2.553   2.265
  874SOL     OW 2637   0.354   3.372   3.191
  874SOL    HW1 2638   0.333   3.328   3.104
  874SOL    HW2 2639   0.451   3.398   3.194
  875SOL     OW 2640   0.402   2.613   3.460
  875SOL    HW1 2641   0.470   2.668   3.413
  875SOL    HW2 2642   0.442   2.525   3.487
  876SOL     OW 2643   1.587   2.641   3.532
  876SOL    HW1 2644   1.495   2.679   3.527
  876SOL    HW2 2645   1.647   2.688   3.467
  877SOL     OW 2646   1.013   1.967   3.632
  877SOL    HW1 2647   1.019   2.052   3.580
  877SOL    HW2 2648   1.045   1.891   3.575
  878SOL     OW 2649   0.504   1.912   3.602
  878SOL    HW1 2650   0.462   1.855   3.532
  878SOL    HW2 2651   0.438   1.981   3.634
  879SOL     OW 2652   0.573   2.732   2.891
  879SOL    HW1 2653   0.617   2.821   2.882
  879SOL    HW2 2654   0.510   2.732   2.968
  880SOL     OW 2655   1.360   2.724   2.907
  880SOL    HW1 2656   1.285   2.724   2.841
  880SOL    HW2 2657   1.397   2.632   2.916
  881SOL     OW 2658   1.209   2.387   2.137
  881SOL    HW1 2659   1.222   2.303   2.191
  881SOL    HW2 2660   1.180   2.461   2.197
  882SOL     OW 2661   0.307   2.075   3.093
  882SOL    HW1 2662   0.284   2.112   3.183
  882SOL    HW2 2663   0.277   1.980   3.087
  883SOL     OW 2664   0.037   3.172   3.144
  883SOL    HW1 2665   0.090   3.123   3.212
  883SOL    HW2 2666   0.059   3.270   3.149
  884SOL     OW 2667   0.732   2.496   2.926
  884SOL    HW1 2668   0.791   2.470   2.850
  884SOL    HW2 2669   0.704   2.592   2.915
  885SOL     OW 2670   1.728   2.797   3.716
  885SOL    HW1 2671   1.682   2.790   3.627
  885SOL    HW2 2672   1.666   2.841   3.782
  886SOL     OW 2673   0.307   1.925   2.480
  886SOL    HW1 2674   0.296   2.019   2.513
  886SOL    HW2 2675   0.302   1.862   2.557
  887SOL     OW 2676   1.622   2.229   2.236
  887SOL    HW1 2677   1.624   2.153   2.300
  887SOL    HW2 2678   1.574   2.306   2.276
  888SOL     OW 2679   1.023   2.628   2.828
  888SOL    HW1 2680   1.038   2.649   2.924
  888SOL    HW2 2681   0.993   2.533   2.819
  889SOL     OW 2682   0.980   3.435   3.562
  889SOL    HW1 2683   0.960   3.479   3.474
  889SOL    HW2 2684   1.019   3.344   3.546
  890SOL     OW 2685   1.859   3.380   3.467
  890SOL    HW1 2686   1.873   3.407   3.372
  890SOL    HW2 2687   1.942   3.402   3.520
  891SOL     OW 2688   0.350   2.760   3.666
  891SOL    HW1 2689   0.426   2.804   3.714
  891SOL    HW2 2690   0.385   2.713   3.584
  892SOL     OW 2691   1.540   2.136   1.987
  892SOL    HW1 2692   1.479   2.061   2.010
  892SOL    HW2 2693   1.562   2.188   2.070
  893SOL     OW 2694   1.303   2.700   1.904
  893SOL    HW1 2695   1.337   2.607   1.919
  893SOL    HW2 2696   1.321   2.727   1.809
  894SOL     OW 2697   1.068   3.195   2.711
  894SOL    HW1 2698   1.075   3.111   2.656
  894SOL    HW2 2699   1.130   3.264   2.675
  895SOL     OW 2700   0.319   2.672   2.811
  895SOL    HW1 2701   0.412   2.708   2.816
  895SOL    HW2 2702   0.313   2.587   2.863
  896SOL     OW 2703   0.339   2.371   2.868
  896SOL    HW1 2704   0.287   2.288   2.851
  896SOL    HW2 2705   0.416   2.376   2.804
  897SOL     OW 2706   1.138   2.242   3.540
  897SOL    HW1 2707   1.093   2.305   3.604
  897SOL    HW2 2708   1.231   2.273   3.523
  898SOL     OW 2709   1.160   2.069   3.339
  898SOL    HW1 2710   1.160   2.133   3.416
  898SOL    HW2 2711   1.188   2.117   3.256
  899SOL     OW 2712   0.008   3.188   2.062
  899SOL    HW1 2713  -0.085   3.209   2.031
  899SOL    HW2 2714   0.018   3.089   2.075
  900SOL     OW 2715   0.088   3.663   2.789
  900SOL    HW1 2716   0.046   3.577   2.762
  900SOL    HW2 2717   0.182   3.666   2.755
  901SOL     OW 2718   0.504   3.430   2.772
  901SOL    HW1 2719   0.570   3.504   2.781
  901SOL    HW2 2720   0.548   3.351   2.730
  902SOL     OW 2721   1.002   2.658   3.100
  902SOL    HW1 2722   1.043   2.626   3.186
  902SOL    HW2 2723   0.906   2.631   3.097
  903SOL     OW 2724   0.040   2.406   2.976
  903SOL    HW1 2725   0.125   2.373   2.935
  903SOL    HW2 2726   0.053   2.421   3.074
  904SOL     OW 2727   0.189   2.382   3.584
  904SOL    HW1 2728   0.248   2.342   3.514
  904SOL    HW2 2729   0.131   2.453   3.543
  905SOL     OW 2730   1.369   2.812   3.522
  905SOL    HW1 2731   1.408   2.901   3.542
  905SOL    HW2 2732   1.379   2.792   3.425
  906SOL     OW 2733   0.815   2.434   2.187
  906SOL    HW1 2734   0.822   2.345   2.141
  906SOL    HW2 2735   0.721   2.468   2.179
  907SOL     OW 2736   1.657   2.466   3.068
  907SOL    HW1 2737   1.619   2.397   3.130
  907SOL    HW2 2738   1.739   2.430   3.024
  908SOL     OW 2739   0.252   3.426   3.606
  908SOL    HW1 2740   0.222   3.483   3.682
  908SOL    HW2 2741   0.245   3.329   3.632
  909SOL     OW 2742   0.671   2.326   3.131
  909SOL    HW1 2743   0.637   2.237   3.101
  909SOL    HW2 2744   0.697   2.380   3.051
  910SOL     OW 2745   0.930   3.540   3.327
  910SOL    HW1 2746   0.906   3.522   3.232
  910SOL    HW2 2747   0.960   3.634   3.337
  911SOL     OW 2748   0.473   2.362   2.053
  911SOL    HW1 2749   0.534   2.442   2.057
  911SOL    HW2 2750   0.378   2.393   2.060
  912SOL     OW 2751   0.159   2.999   3.328
  912SOL    HW1 2752   0.181   2.938   3.404
  912SOL    HW2 2753   0.169   2.950   3.242
  913SOL     OW 2754   1.347   2.921   3.096
  913SOL    HW1 2755   1.371   2.858   3.022
  913SOL    HW2 2756   1.257   2.961   3.078
  914SOL     OW 2757   1.302   2.717   2.171
  914SOL    HW1 2758   1.216   2.686   2.213
  914SOL    HW2 2759   1.298   2.703   2.072
  915SOL     OW 2760   1.759   3.609   3.016
  915SOL    HW1 2761   1.820   3.639   2.943
  915SOL    HW2 2762   1.721   3.520   2.994
  916SOL     OW 2763   1.252   3.593   2.990
  916SOL    HW1 2764   1.336   3.598   2.936
  916SOL    HW2 2765   1.229   3.497   3.008
  917SOL     OW 2766   0.083   3.120   2.884
  917SOL    HW1 2767   0.078   3.119   2.984
  917SOL    HW2 2768   0.000   3.079   2.846
  918SOL     OW 2769   0.688   3.524   3.578
  918SOL    HW1 2770   0.632   3.605   3.587
  918SOL    HW2 2771   0.740   3.528   3.492
  919SOL     OW 2772   1.726   1.997   2.385
  919SOL    HW1 2773   1.799   1.980   2.318
  919SOL    HW2 2774   1.695   1.910   2.423
  920SOL     OW 2775   1.388   3.435   2.339
  920SOL    HW1 2776   1.455   3.447   2.265
  920SOL    HW2 2777   1.348   3.524   2.362
  921SOL     OW 2778   0.130   3.656   3.713
  921SOL    HW1 2779   0.089   3.582   3.766
  921SOL    HW2 2780   0.194   3.707   3.771
  922SOL     OW 2781   1.280   2.789   2.534
  922SOL    HW1 2782   1.340   2.708   2.536
  922SOL    HW2 2783   1.320   2.858   2.474
  923SOL     OW 2784   0.830   3.135   3.284
  923SOL    HW1 2785   0.825   3.168   3.379
  923SOL    HW2 2786   0.744   3.154   3.238
  924SOL     OW 2787   0.672   3.478   2.016
  924SOL    HW1 2788   0.681   3.488   1.917
  924SOL    HW2 2789   0.632   3.389   2.037
  925SOL     OW 2790   1.650   3.582   3.256
  925SOL    HW1 2791   1.703   3.592   3.172
  925SOL    HW2 2792   1.623   3.672   3.290
  926SOL     OW 2793   1.841   2.037   2.825
  926SOL    HW1 2794   1.880   1.952   2.789
  926SOL    HW2 2795   1.743   2.039   2.806
  927SOL     OW 2796   0.263   2.188   2.582
  927SOL    HW1 2797   0.184   2.239   2.548
  927SOL    HW2 2798   0.254   2.173   2.680
  928SOL     OW 2799   1.194   3.474   1.893
  928SOL    HW1 2800   1.200   3.381   1.930
  928SOL    HW2 2801   1.135   3.474   1.813
  929SOL     OW 2802   0.822   2.864   3.234
  929SOL    HW1 2803   0.862   2.863   3.142
  929SOL    HW2 2804   0.832   2.956   3.274
  930SOL     OW 2805   0.916   2.772   2.153
  930SOL    HW1 2806   0.979   2.810   2.085
  930SOL    HW2 2807   0.956   2.689   2.192
  931SOL     OW 2808   1.504   3.469   1.906
  931SOL    HW1 2809   1.412   3.506   1.913
  931SOL    HW2 2810   1.542   3.489   1.816
  932SOL     OW 2811   0.372   3.150   3.352
  932SOL    HW1 2812   0.359   3.243   3.318
  932SOL    HW2 2813   0.288   3.098   3.339
  933SOL     OW 2814   1.614   3.154   3.151
  933SOL    HW1 2815   1.674   3.157   3.231
  933SOL    HW2 2816   1.539   3.218   3.164
  934SOL     OW 2817   1.039   2.960   2.558
  934SOL    HW1 2818   0.969   2.913   2.612
  934SOL    HW2 2819   1.098   2.892   2.515
  935SOL     OW 2820   1.014   2.098   2.833
  935SOL    HW1 2821   1.006   2.062   2.740
  935SOL    HW2 2822   1.012   2.022   2.898
  936SOL     OW 2823   0.590   3.349   2.353
  936SOL    HW1 2824   0.632   3.291   2.283
  936SOL    HW2 2825   0.546   3.428   2.309
  937SOL     OW 2826   1.709   2.247   3.243
  937SOL    HW1 2827   1.782   2.316   3.247
  937SOL    HW2 2828   1.737   2.172   3.184
  938SOL     OW 2829   0.255   3.210   2.152
  938SOL    HW1 2830   0.159   3.211   2.125
  938SOL    HW2 2831   0.267   3.263   2.236
  939SOL     OW 2832   0.105   2.875   3.588
  939SOL    HW1 2833   0.028   2.842   3.642
  939SOL    HW2 2834   0.190   2.845   3.630
  940SOL     OW 2835   0.672   2.065   3.351
  940SOL    HW1 2836   0.762   2.049   3.311
  940SOL    HW2 2837   0.680   2.070   3.450
  941SOL     OW 2838   0.075   2.207   1.895
  941SOL    HW1 2839  -0.017   2.179   1.866
  941SOL    HW2 2840   0.106   2.284   1.839
  942SOL     OW 2841   1.440   2.718   3.260
  942SOL    HW1 2842   1.383   2.770   3.197
  942SOL    HW2 2843   1.536   2.730   3.236
  943SOL     OW 2844   0.072   2.028   2.180
  943SOL    HW1 2845   0.055   2.111   2.126
  943SOL    HW2 2846   0.162   1.991   2.158
  944SOL     OW 2847   1.183   3.197   1.981
  944SOL    HW1 2848   1.084   3.186   1.983
  944SOL    HW2 2849   1.217   3.212   2.074
  945SOL     OW 2850   0.613   2.704   3.293
  945SOL    HW1 2851   0.669   2.785   3.276
  945SOL    HW2 2852   0.672   2.624   3.296
  946SOL     OW 2853   1.493   3.629   2.821
  946SOL    HW1 2854   1.526   3.693   2.752
  946SOL    HW2 2855   1.559   3.623   2.896
  947SOL     OW 2856   0.716   2.427   3.570
  947SOL    HW1 2857   0.735   2.492   3.644
  947SOL    HW2 2858   0.776   2.347   3.579
  948SOL     OW 2859   1.450   3.082   3.495
  948SOL    HW1 2860   1.441   3.072   3.594
  948SOL    HW2 2861   1.546   3.075   3.469
  949SOL     OW 2862   0.390   3.603   3.422
  949SOL    HW1 2863   0.299   3.644   3.420
  949SOL    HW2 2864   0.383   3.509   3.454
  950SOL     OW 2865   1.674   2.745   3.116
  950SOL    HW1 2866   1.647   2.656   3.079
  950SOL    HW2 2867   1.675   2.813   3.043
  951SOL     OW 2868   1.225   2.187   2.311
  951SOL    HW1 2869   1.290   2.113   2.300
  951SOL    HW2 2870   1.245   2.237   2.395
  952SOL     OW 2871   0.594   2.607   2.514
  952SOL    HW1 2872   0.644   2.692   2.495
  952SOL    HW2 2873   0.506   2.609   2.466
  953SOL     OW 2874   1.777   2.204   3.504
  953SOL    HW1 2875   1.760   2.235   3.410
  953SOL    HW2 2876   1.693   2.167   3.542
  954SOL     OW 2877   1.730   2.796   3.379
  954SOL    HW1 2878   1.768   2.887   3.394
  954SOL    HW2 2879   1.722   2.779   3.280
  955SOL     OW 2880   0.859   3.236   1.878
  955SOL    HW1 2881   0.813   3.251   1.966
  955SOL    HW2 2882   0.903   3.321   1.848
  956SOL     OW 2883   0.661   3.652   2.815
  956SOL    HW1 2884   0.615   3.740   2.802
  956SOL    HW2 2885   0.760   3.664   2.808
  957SOL     OW 2886   0.859   2.818   2.723
  957SOL    HW1 2887   0.913   2.749   2.771
  957SOL    HW2 2888   0.827   2.887   2.789
  958SOL     OW 2889   1.083   2.846   1.949
  958SOL    HW1 2890   1.060   2.899   1.867
  958SOL    HW2 2891   1.164   2.790   1.930
  959SOL     OW 2892   1.861   3.431   2.713
  959SOL    HW1 2893   1.790   3.419   2.643
  959SOL    HW2 2894   1.862   3.352   2.773
  960SOL     OW 2895   0.221   3.176   3.706
  960SOL    HW1 2896   0.156   3.103   3.685
  960SOL    HW2 2897   0.225   3.190   3.804
  961SOL     OW 2898   0.079   3.102   2.515
  961SOL    HW1 2899   0.078   3.055   2.603
  961SOL    HW2 2900   0.161   3.074   2.464
  962SOL     OW 2901   0.672   3.253   3.486
  962SOL    HW1 2902   0.594   3.203   3.524
  962SOL    HW2 2903   0.669   3.348   3.517
  963SOL     OW 2904   1.824   2.054   3.089
  963SOL    HW1 2905   1.820   1.964   3.133
  963SOL    HW2 2906   1.827   2.043   2.990
  964SOL     OW 2907   0.428   2.286   2.382
  964SOL    HW1 2908   0.458   2.214   2.320
  964SOL    HW2 2909   0.389   2.246   2.465
  965SOL     OW 2910   1.705   3.349   2.966
  965SOL    HW1 2911   1.612   3.324   2.939
  965SOL    HW2 2912   1.731   3.299   3.048
  966SOL     OW 2913   0.317   2.409   3.142
  966SOL    HW1 2914   0.355   2.350   3.214
  966SOL    HW2 2915   0.357   2.383   3.054
  967SOL     OW 2916   0.812   3.448   2.549
  967SOL    HW1 2917   0.844   3.458   2.455
  967SOL    HW2 2918   0.733   3.386   2.551
  968SOL     OW 2919   1.424   2.076   2.974
  968SOL    HW1 2920   1.476   2.011   3.029
  968SOL    HW2 2921   1.375   2.139   3.035
  969SOL     OW 2922   1.001   1.896   3.016
  969SOL    HW1 2923   0.938   1.824   2.985
  969SOL    HW2 2924   1.094   1.860   3.016
  970SOL     OW 2925   0.770   3.192   2.163
  970SOL    HW1 2926   0.724   3.105   2.180
  970SOL    HW2 2927   0.861   3.189   2.204
  971SOL     OW 2928   0.618   3.429   3.146
  971SOL    HW1 2929   0.613   3.511   3.203
  971SOL    HW2 2930   0.707   3.426   3.101
  972SOL     OW 2931   1.352   1.914   2.030
  972SOL    HW1 2932   1.387   1.873   1.946
  972SOL    HW2 2933   1.262   1.876   2.050
  973SOL     OW 2934   1.300   2.315   2.553
  973SOL    HW1 2935   1.241   2.395   2.557
  973SOL    HW2 2936   1.315   2.280   2.646
  974SOL     OW 2937   1.593   2.083   2.744
  974SOL    HW1 2938   1.509   2.082   2.798
  974SOL    HW2 2939   1.595   2.166   2.688
  975SOL     OW 2940   0.039   2.939   2.162
  975SOL    HW1 2941   0.138   2.928   2.153
  975SOL    HW2 2942  -0.001   2.853   2.194
  976SOL     OW 2943   0.875   3.508   2.199
  976SOL    HW1 2944   0.798   3.473   2.145
  976SOL    HW2 2945   0.843   3.579   2.261
  977SOL     OW 2946   0.230   2.490   3.837
  977SOL    HW1 2947   0.137   2.488   3.874
  977SOL    HW2 2948   0.231   2.451   3.745
  978SOL     OW 2949   0.225   2.137   4.720
  978SOL    HW1 2950   0.260   2.120   4.812
  978SOL    HW2 2951   0.137   2.092   4.708
  979SOL     OW 2952   0.019   2.230   4.371
  979SOL    HW1 2953  -0.063   2.273   4.410
  979SOL    HW2 2954  -0.009   2.157   4.308
  980SOL     OW 2955   1.555   3.373   4.427
  980SOL    HW1 2956   1.498   3.357   4.508
  980SOL    HW2 2957   1.496   3.383   4.347
  981SOL     OW 2958   1.135   2.565   4.441
  981SOL    HW1 2959   1.192   2.643   4.416
  981SOL    HW2 2960   1.075   2.591   4.517
  982SOL     OW 2961   1.755   2.469   3.955
  982SOL    HW1 2962   1.743   2.456   3.856
  982SOL    HW2 2963   1.725   2.388   4.004
  983SOL     OW 2964   0.768   3.006   4.747
  983SOL    HW1 2965   0.690   3.023   4.807
  983SOL    HW2 2966   0.802   3.093   4.711
  984SOL     OW 2967   0.685   2.874   4.389
  984SOL    HW1 2968   0.754   2.858   4.459
  984SOL    HW2 2969   0.612   2.931   4.427
  985SOL     OW 2970   0.335   3.297   4.785
  985SOL    HW1 2971   0.257   3.266   4.732
  985SOL    HW2 2972   0.393   3.355   4.728
  986SOL     OW 2973   1.603   2.309   4.461
  986SOL    HW1 2974   1.529   2.355   4.411
  986SOL    HW2 2975   1.654   2.377   4.514
  987SOL     OW 2976   0.231   3.575   4.207
  987SOL    HW1 2977   0.265   3.652   4.261
  987SOL    HW2 2978   0.275   3.575   4.117
  988SOL     OW 2979   0.230   3.296   4.262
  988SOL    HW1 2980   0.204   3.392   4.262
  988SOL    HW2 2981   0.159   3.242   4.307
  989SOL     OW 2982   0.240   2.953   4.610
  989SOL    HW1 2983   0.254   2.869   4.662
  989SOL    HW2 2984   0.185   3.017   4.665
  990SOL     OW 2985   0.606   2.826   3.847
  990SOL    HW1 2986   0.613   2.910   3.793
  990SOL    HW2 2987   0.652   2.839   3.935
  991SOL     OW 2988   0.122   2.505   4.287
  991SOL    HW1 2989   0.077   2.417   4.304
  991SOL    HW2 2990   0.121   2.559   4.371
  992SOL     OW 2991   1.842   3.629   4.083
  992SOL    HW1 2992   1.896   3.600   4.163
  992SOL    HW2 2993   1.872   3.719   4.054
  993SOL     OW 2994   0.027   3.458   3.841
  993SOL    HW1 2995   0.008   3.362   3.862
  993SOL    HW2 2996  -0.006   3.516   3.916
  994SOL     OW 2997   1.689   2.784   4.336
  994SOL    HW1 2998   1.784   2.755   4.344
  994SOL    HW2 2999   1.681   2.849   4.261
  995SOL     OW 3000   1.641   2.970   4.156
  995SOL    HW1 3001   1.727   2.972   4.104
  995SOL    HW2 3002   1.655   3.017   4.244
  996SOL     OW 3003   0.613   3.227   4.450
  996SOL    HW1 3004   0.564   3.140   4.459
  996SOL    HW2 3005   0.590   3.270   4.363
  997SOL     OW 3006   0.809   1.866   4.226
  997SOL    HW1 3007   0.849   1.957   4.217
  997SOL    HW2 3008   0.709   1.874   4.232
  998SOL     OW 3009   1.525   2.861   3.914
  998SOL    HW1 3010   1.462   2.785   3.927
  998SOL    HW2 3011   1.573   2.879   4.000
  999SOL     OW 3012   1.466   3.279   4.677
  999SOL    HW1 3013   1.407   3.285   4.757
  999SOL    HW2 3014   1.451   3.191   4.631
 1000SOL     OW 3015   1.667   3.576   4.296
 1000SOL    HW1 3016   1.626   3.553   4.208
 1000SOL    HW2 3017   1.649   3.502   4.361
 1001SOL     OW 3018   0.598   2.591   3.994
 1001SOL    HW1 3019   0.622   2.660   3.926
 1001SOL    HW2 3020   0.520   2.624   4.048
 1002SOL     OW 3021   1.281   2.207   4.668
 1002SOL    HW1 3022   1.195   2.157   4.655
 1002SOL    HW2 3023   1.343   2.153   4.724
 1003SOL     OW 3024   1.576   3.524   4.031
 1003SOL    HW1 3025   1.665   3.570   4.034
 1003SOL    HW2 3026   1.555   3.500   3.936
 1004SOL     OW 3027   1.041   2.563   4.153
 1004SOL    HW1 3028   1.067   2.559   4.249
 1004SOL    HW2 3029   0.956   2.512   4.139
 1005SOL     OW 3030   0.076   2.673   4.513
 1005SOL    HW1 3031   0.175   2.661   4.522
 1005SOL    HW2 3032   0.052   2.768   4.534
 1006SOL     OW 3033   0.865   2.210   3.919
 1006SOL    HW1 3034   0.924   2.273   3.870
 1006SOL    HW2 3035   0.884   2.116   3.890
 1007SOL     OW 3036   1.362   3.006   4.269
 1007SOL    HW1 3037   1.445   2.977   4.221
 1007SOL    HW2 3038   1.313   3.073   4.213
 1008SOL     OW 3039   0.550   2.058   4.609
 1008SOL    HW1 3040   0.545   2.053   4.709
 1008SOL    HW2 3041   0.552   2.154   4.580
 1009SOL     OW 3042   1.008   3.318   4.201
 1009SOL    HW1 3043   0.962   3.390   4.149
 1009SOL    HW2 3044   1.004   3.338   4.299
 1010SOL     OW 3045   0.351   3.663   4.577
 1010SOL    HW1 3046   0.401   3.577   4.583
 1010SOL    HW2 3047   0.416   3.740   4.574
 1011SOL     OW 3048   1.795   2.928   4.597
 1011SOL    HW1 3049   1.733   2.913   4.521
 1011SOL    HW2 3050   1.743   2.939   4.682
 1012SOL     OW 3051   0.321   2.805   3.966
 1012SOL    HW1 3052   0.403   2.844   3.924
 1012SOL    HW2 3053   0.294   2.723   3.917
 1013SOL     OW 3054   1.458   2.597   4.452
 1013SOL    HW1 3055   1.453   2.532   4.527
 1013SOL    HW2 3056   1.538   2.656   4.465
 1014SOL     OW 3057   1.111   3.638   3.961
 1014SOL    HW1 3058   1.051   3.576   4.011
 1014SOL    HW2 3059   1.142   3.594   3.876
 1015SOL     OW 3060   1.632   3.239   3.805
 1015SOL    HW1 3061   1.600   3.333   3.795
 1015SOL    HW2 3062   1.556   3.176   3.793
 1016SOL     OW 3063   0.464   3.605   4.047
 1016SOL    HW1 3064   0.497   3.644   4.133
 1016SOL    HW2 3065   0.540   3.598   3.982
 1017SOL     OW 3066   1.400   1.969   4.150
 1017SOL    HW1 3067   1.376   1.932   4.060
 1017SOL    HW2 3068   1.499   1.985   4.154
 1018SOL     OW 3069   0.249   3.647   4.965
 1018SOL    HW1 3070   0.306   3.582   5.015
 1018SOL    HW2 3071   0.233   3.614   4.872
 1019SOL     OW 3072   0.940   3.560   4.628
 1019SOL    HW1 3073   1.020   3.503   4.649
 1019SOL    HW2 3074   0.891   3.520   4.551
 1020SOL     OW 3075   0.382   2.562   4.204
 1020SOL    HW1 3076   0.427   2.472   4.201
 1020SOL    HW2 3077   0.288   2.551   4.237
 1021SOL     OW 3078   0.614   1.984   3.841
 1021SOL    HW1 3079   0.712   1.962   3.848
 1021SOL    HW2 3080   0.583   1.967   3.748
 1022SOL     OW 3081   0.803   3.264   4.648
 1022SOL    HW1 3082   0.893   3.278   4.606
 1022SOL    HW2 3083   0.732   3.266   4.577
 1023SOL     OW 3084   0.922   2.365   4.623
 1023SOL    HW1 3085   0.897   2.356   4.527
 1023SOL    HW2 3086   0.970   2.283   4.654
 1024SOL     OW 3087   0.539   1.926   4.236
 1024SOL    HW1 3088   0.458   1.927   4.294
 1024SOL    HW2 3089   0.542   2.009   4.181
 1025SOL     OW 3090   1.434   3.050   3.765
 1025SOL    HW1 3091   1.466   2.974   3.822
 1025SOL    HW2 3092   1.342   3.077   3.795
 1026SOL     OW 3093   0.297   1.897   3.895
 1026SOL    HW1 3094   0.346   1.981   3.874
 1026SOL    HW2 3095   0.359   1.832   3.940
 1027SOL     OW 3096   0.935   2.098   4.204
 1027SOL    HW1 3097   0.887   2.139   4.126
 1027SOL    HW2 3098   1.034   2.096   4.185
 1028SOL     OW 3099   1.227   3.432   4.517
 1028SOL    HW1 3100   1.248   3.506   4.452
 1028SOL    HW2 3101   1.295   3.432   4.590
 1029SOL     OW 3102   0.459   3.014   4.465
 1029SOL    HW1 3103   0.388   2.987   4.530
 1029SOL    HW2 3104   0.433   2.986   4.372
 1030SOL     OW 3105   1.271   3.659   4.315
 1030SOL    HW1 3106   1.315   3.723   4.251
 1030SOL    HW2 3107   1.221   3.711   4.385
 1031SOL     OW 3108   1.032   2.411   3.740
 1031SOL    HW1 3109   0.991   2.493   3.701
 1031SOL    HW2 3110   1.096   2.437   3.813
 1032SOL     OW 3111   0.866   2.316   4.366
 1032SOL    HW1 3112   0.834   2.388   4.304
 1032SOL    HW2 3113   0.890   2.235   4.313
 1033SOL     OW 3114   1.017   1.901   4.477
 1033SOL    HW1 3115   0.945   1.906   4.408
 1033SOL    HW2 3116   0.993   1.832   4.546
 1034SOL     OW 3117   1.429   3.035   4.591
 1034SOL    HW1 3118   1.374   2.951   4.584
 1034SOL    HW2 3119   1.455   3.064   4.499
 1035SOL     OW 3120   1.466   2.452   4.716
 1035SOL    HW1 3121   1.436   2.357   4.723
 1035SOL    HW2 3122   1.539   2.468   4.782
 1036SOL     OW 3123   1.857   2.695   4.101
 1036SOL    HW1 3124   1.899   2.631   4.165
 1036SOL    HW2 3125   1.819   2.644   4.023
 1037SOL     OW 3126   0.488   3.247   3.898
 1037SOL    HW1 3127   0.401   3.232   3.945
 1037SOL    HW2 3128   0.471   3.273   3.803
 1038SOL     OW 3129   1.664   3.142   4.381
 1038SOL    HW1 3130   1.763   3.150   4.395
 1038SOL    HW2 3131   1.619   3.226   4.412
 1039SOL     OW 3132   1.390   2.437   3.802
 1039SOL    HW1 3133   1.336   2.416   3.883
 1039SOL    HW2 3134   1.481   2.396   3.811
 1040SOL     OW 3135   0.527   2.118   4.052
 1040SOL    HW1 3136   0.554   2.059   3.977
 1040SOL    HW2 3137   0.527   2.213   4.021
 1041SOL     OW 3138   1.638   2.961   4.803
 1041SOL    HW1 3139   1.643   3.042   4.862
 1041SOL    HW2 3140   1.552   2.963   4.752
 1042SOL     OW 3141   0.705   2.912   4.092
 1042SOL    HW1 3142   0.691   2.919   4.191
 1042SOL    HW2 3143   0.789   2.861   4.074
 1043SOL     OW 3144   0.367   2.962   4.225
 1043SOL    HW1 3145   0.360   3.045   4.169
 1043SOL    HW2 3146   0.371   2.882   4.165
 1044SOL     OW 3147   0.566   2.399   4.589
 1044SOL    HW1 3148   0.578   2.465   4.515
 1044SOL    HW2 3149   0.612   2.433   4.672
 1045SOL     OW 3150   1.252   3.210   4.112
 1045SOL    HW1 3151   1.302   3.287   4.152
 1045SOL    HW2 3152   1.157   3.212   4.144
 1046SOL     OW 3153   1.582   2.501   4.196
 1046SOL    HW1 3154   1.551   2.562   4.269
 1046SOL    HW2 3155   1.632   2.553   4.127
 1047SOL     OW 3156   0.573   2.732   4.753
 1047SOL    HW1 3157   0.617   2.821   4.744
 1047SOL    HW2 3158   0.510   2.732   4.830
 1048SOL     OW 3159   1.209   2.387   3.999
 1048SOL    HW1 3160   1.222   2.303   4.053
 1048SOL    HW2 3161   1.180   2.461   4.059
 1049SOL     OW 3162   0.307   2.075   4.955
 1049SOL    HW1 3163   0.284   2.112   5.045
 1049SOL    HW2 3164   0.277   1.980   4.949
 1050SOL     OW 3165   0.732   2.496   4.788
 1050SOL    HW1 3166   0.791   2.470   4.712
 1050SOL    HW2 3167   0.704   2.592   4.777
 1051SOL     OW 3168   0.307   1.925   4.342
 1051SOL    HW1 3169   0.296   2.019   4.375
 1051SOL    HW2 3170   0.302   1.862   4.419
 1052SOL     OW 3171   1.622   2.229   4.098
 1052SOL    HW1 3172   1.624   2.153   4.162
 1052SOL    HW2 3173   1.574   2.306   4.138
 1053SOL     OW 3174   1.023   2.628   4.690
 1053SOL    HW1 3175   1.038   2.649   4.786
 1053SOL    HW2 3176   0.993   2.533   4.681
 1054SOL     OW 3177   1.540   2.136   3.849
 1054SOL    HW1 3178   1.479   2.061   3.872
 1054SOL    HW2 3179   1.562   2.188   3.932
 1055SOL     OW 3180   1.303   2.700   3.766
 1055SOL    HW1 3181   1.337   2.607   3.781
 1055SOL    HW2 3182   1.321   2.727   3.671
 1056SOL     OW 3183   1.068   3.195   4.573
 1056SOL    HW1 3184   1.075   3.111   4.518
 1056SOL    HW2 3185   1.130   3.264   4.537
 1057SOL     OW 3186   0.319   2.672   4.673
 1057SOL    HW1 3187   0.412   2.708   4.678
 1057SOL    HW2 3188   0.313   2.587   4.725
 1058SOL     OW 3189   0.339   2.371   4.730
 1058SOL    HW1 3190   0.287   2.288   4.713
 1058SOL    HW2 3191   0.416   2.376   4.666
 1059SOL     OW 3192   0.008   3.188   3.924
 1059SOL    HW1 3193  -0.085   3.209   3.893
 1059SOL    HW2 3194   0.018   3.089   3.937
 1060SOL     OW 3195   0.088   3.663   4.651
 1060SOL    HW1 3196   0.046   3.577   4.624
 1060SOL    HW2 3197   0.182   3.666   4.617
 1061SOL     OW 3198   0.504   3.430   4.634
 1061SOL    HW1 3199   0.570   3.504   4.643
 1061SOL    HW2 3200   0.548   3.351   4.592
 1062SOL     OW 3201   1.002   2.658   4.962
 1062SOL    HW1 3202   1.043   2.626   5.048
 1062SOL    HW2 3203   0.906   2.631   4.959
 1063SOL     OW 3204   0.815   2.434   4.049
 1063SOL    HW1 3205   0.822   2.345   4.003
 1063SOL    HW2 3206   0.721   2.468   4.041
 1064SOL     OW 3207   0.671   2.326   4.993
 1064SOL    HW1 3208   0.637   2.237   4.963
 1064SOL    HW2 3209   0.697   2.380   4.913
 1065SOL     OW 3210   0.473   2.362   3.915
 1065SOL    HW1 3211   0.534   2.442   3.919
 1065SOL    HW2 3212   0.378   2.393   3.922
 1066SOL     OW 3213   1.302   2.717   4.033
 1066SOL    HW1 3214   1.216   2.686   4.075
 1066SOL    HW2 3215   1.298   2.703   3.934
 1067SOL     OW 3216   1.759   3.609   4.878
 1067SOL    HW1 3217   1.820   3.639   4.805
 1067SOL    HW2 3218   1.721   3.520   4.856
 1068SOL     OW 3219   0.083   3.120   4.746
 1068SOL    HW1 3220   0.078   3.119   4.846
 1068SOL    HW2 3221   0.000   3.079   4.708
 1069SOL     OW 3222   1.726   1.997   4.247
 1069SOL    HW1 3223   1.799   1.980   4.180
 1069SOL    HW2 3224   1.695   1.910   4.285
 1070SOL     OW 3225   1.388   3.435   4.201
 1070SOL    HW1 3226   1.455   3.447   4.127
 1070SOL    HW2 3227   1.348   3.524   4.224
 1071SOL     OW 3228   1.280   2.789   4.396
 1071SOL    HW1 3229   1.340   2.708   4.398
 1071SOL    HW2 3230   1.320   2.858   4.336
 1072SOL     OW 3231   0.672   3.478   3.878
 1072SOL    HW1 3232   0.681   3.488   3.779
 1072SOL    HW2 3233   0.632   3.389   3.899
 1073SOL     OW 3234   1.841   2.037   4.687
 1073SOL    HW1 3235   1.880   1.952   4.651
 1073SOL    HW2 3236   1.743   2.039   4.668
 1074SOL     OW 3237   0.263   2.188   4.444
 1074SOL    HW1 3238   0.184   2.239   4.410
 1074SOL    HW2 3239   0.254   2.173   4.542
 1075SOL     OW 3240   1.194   3.474   3.755
 1075SOL    HW1 3241   1.200   3.381   3.792
 1075SOL    HW2 3242   1.135   3.474   3.675
 1076SOL     OW 3243   0.916   2.772   4.015
 1076SOL    HW1 3244   0.979   2.810   3.947
 1076SOL    HW2 3245   0.956   2.689   4.054
 1077SOL     OW 3246   1.504   3.469   3.768
 1077SOL    HW1 3247   1.412   3.506   3.775
 1077SOL    HW2 3248   1.542   3.489   3.678
 1078SOL     OW 3249   1.039   2.960   4.420
 1078SOL    HW1 3250   0.969   2.913   4.474
 1078SOL    HW2 3251   1.098   2.892   4.377
 1079SOL     OW 3252   1.014   2.098   4.695
 1079SOL    HW1 3253   1.006   2.062   4.602
 1079SOL    HW2 3254   1.012   2.022   4.760
 1080SOL     OW 3255   0.590   3.349   4.215
 1080SOL    HW1 3256   0.632   3.291   4.145
 1080SOL    HW2 3257   0.546   3.428   4.171
 1081SOL     OW 3258   0.255   3.210   4.014
 1081SOL    HW1 3259   0.159   3.211   3.987
 1081SOL    HW2 3260   0.267   3.263   4.098
 1082SOL     OW 3261   0.075   2.207   3.757
 1082SOL    HW1 3262  -0.017   2.179   3.728
 1082SOL    HW2 3263   0.106   2.284   3.701
 1083SOL     OW 3264   0.072   2.028   4.042
 1083SOL    HW1 3265   0.055   2.111   3.988
 1083SOL    HW2 3266   0.162   1.991   4.020
 1084SOL     OW 3267   1.183   3.197   3.843
 1084SOL    HW1 3268   1.084   3.186   3.845
 1084SOL    HW2 3269   1.217   3.212   3.936
 1085SOL     OW 3270   1.493   3.629   4.683
 1085SOL    HW1 3271   1.526   3.693   4.614
 1085SOL    HW2 3272   1.559   3.623   4.758
 1086SOL     OW 3273   1.674   2.745   4.978
 1086SOL    HW1 3274   1.647   2.656   4.941
 1086SOL    HW2 3275   1.675   2.813   4.905
 1087SOL     OW 3276   1.225   2.187   4.173
 1087SOL    HW1 3277   1.290   2.113   4.162
 1087SOL    HW2 3278   1.245   2.237   4.257
 1088SOL     OW 3279   0.594   2.607   4.376
 1088SOL    HW1 3280   0.644   2.692   4.357
 1088SOL    HW2 3281   0.506   2.609   4.328
 1089SOL     OW 3282   0.859   3.236   3.740
 1089SOL    HW1 3283   0.813   3.251   3.828
 1089SOL    HW2 3284   0.903   3.321   3.710
 1090SOL     OW 3285   0.661   3.652   4.677
 1090SOL    HW1 3286   0.615   3.740   4.664
 1090SOL    HW2 3287   0.760   3.664   4.670
 1091SOL     OW 3288   0.859   2.818   4.585
 1091SOL    HW1 3289   0.913   2.749   4.633
 1091SOL    HW2 3290   0.827   2.887   4.651
 1092SOL     OW 3291   1.083   2.846   3.811
 1092SOL    HW1 3292   1.060   2.899   3.729
 1092SOL    HW2 3293   1.164   2.790   3.792
 1093SOL     OW 3294   1.861   3.431   4.575
 1093SOL    HW1 3295   1.790   3.419   4.505
 1093SOL    HW2 3296   1.862   3.352   4.635
 1094SOL     OW 3297   0.079   3.102   4.377
 1094SOL    HW1 3298   0.078   3.055   4.465
 1094SOL    HW2 3299   0.161   3.074   4.326
 1095SOL     OW 3300   1.824   2.054   4.951
 1095SOL    HW1 3301   1.820   1.964   4.995
 1095SOL    HW2 3302   1.827   2.043   4.852
 1096SOL     OW 3303   0.428   2.286   4.244
 1096SOL    HW1 3304   0.458   2.214   4.182
 1096SOL    HW2 3305   0.389   2.246   4.327
 1097SOL     OW 3306   0.812   3.448   4.411
 1097SOL    HW1 3307   0.844   3.458   4.317
 1097SOL    HW2 3308   0.733   3.386   4.413
 1098SOL     OW 3309   0.770   3.192   4.025
 1098SOL    HW1 3310   0.724   3.105   4.042
 1098SOL    HW2 3311   0.861   3.189   4.066
 1099SOL     OW 3312   1.352   1.914   3.892
 1099SOL    HW1 3313   1.387   1.873   3.808
 1099SOL    HW2 3314   1.262   1.876   3.912
 1100SOL     OW 3315   1.300   2.315   4.415
 1100SOL    HW1 3316   1.241   2.395   4.419
 1100SOL    HW2 3317   1.315   2.280   4.508
 1101SOL     OW 3318   1.593   2.083   4.606
 1101SOL    HW1 3319   1.509   2.082   4.660
 1101SOL    HW2 3320   1.595   2.166   4.550
 1102SOL     OW 3321   0.039   2.939   4.024
 1102SOL    HW1 3322   0.138   2.928   4.015
 1102SOL    HW2 3323  -0.001   2.853   4.056
 1103SOL     OW 3324   0.875   3.508   4.061
 1103SOL    HW1 3325   0.798   3.473   4.007
 1103SOL    HW2 3326   0.843   3.579   4.123
 1104SOL     OW 3327   0.230   4.352   0.113
 1104SOL    HW1 3328   0.137   4.350   0.150
 1104SOL    HW2 3329   0.231   4.313   0.021
 1105SOL     OW 3330   0.225   3.999   0.996
 1105SOL    HW1 3331   0.260   3.982   1.088
 1105SOL    HW2 3332   0.137   3.954   0.984
 1106SOL     OW 3333   0.019   4.092   0.647
 1106SOL    HW1 3334  -0.063   4.135   0.686
 1106SOL    HW2 3335  -0.009   4.019   0.584
 1107SOL     OW 3336   1.135   4.427   0.717
 1107SOL    HW1 3337   1.192   4.505   0.692
 1107SOL    HW2 3338   1.075   4.453   0.793
 1108SOL     OW 3339   1.755   4.331   0.231
 1108SOL    HW1 3340   1.743   4.318   0.132
 1108SOL    HW2 3341   1.725   4.250   0.280
 1109SOL     OW 3342   0.768   4.868   1.023
 1109SOL    HW1 3343   0.690   4.885   1.083
 1109SOL    HW2 3344   0.802   4.955   0.987
 1110SOL     OW 3345   0.850   4.522   1.823
 1110SOL    HW1 3346   0.846   4.598   1.888
 1110SOL    HW2 3347   0.872   4.558   1.732
 1111SOL     OW 3348   0.685   4.736   0.665
 1111SOL    HW1 3349   0.754   4.720   0.735
 1111SOL    HW2 3350   0.612   4.793   0.703
 1112SOL     OW 3351   0.438   4.116   1.499
 1112SOL    HW1 3352   0.520   4.060   1.508
 1112SOL    HW2 3353   0.357   4.058   1.503
 1113SOL     OW 3354   1.603   4.171   0.737
 1113SOL    HW1 3355   1.529   4.217   0.687
 1113SOL    HW2 3356   1.654   4.239   0.790
 1114SOL     OW 3357   0.230   5.158   0.538
 1114SOL    HW1 3358   0.204   5.254   0.538
 1114SOL    HW2 3359   0.159   5.104   0.583
 1115SOL     OW 3360   0.240   4.815   0.886
 1115SOL    HW1 3361   0.254   4.731   0.938
 1115SOL    HW2 3362   0.185   4.879   0.941
 1116SOL     OW 3363   0.606   4.688   0.123
 1116SOL    HW1 3364   0.613   4.772   0.069
 1116SOL    HW2 3365   0.652   4.701   0.211
 1117SOL     OW 3366   1.594   3.838   1.480
 1117SOL    HW1 3367   1.576   3.905   1.408
 1117SOL    HW2 3368   1.591   3.884   1.569
 1118SOL     OW 3369   0.122   4.367   0.563
 1118SOL    HW1 3370   0.077   4.279   0.580
 1118SOL    HW2 3371   0.121   4.421   0.647
 1119SOL     OW 3372   1.689   4.646   0.612
 1119SOL    HW1 3373   1.784   4.617   0.620
 1119SOL    HW2 3374   1.681   4.711   0.537
 1120SOL     OW 3375   0.113   4.461   1.597
 1120SOL    HW1 3376   0.201   4.448   1.642
 1120SOL    HW2 3377   0.100   4.558   1.575
 1121SOL     OW 3378   0.613   5.089   0.726
 1121SOL    HW1 3379   0.564   5.002   0.735
 1121SOL    HW2 3380   0.590   5.132   0.639
 1122SOL     OW 3381   1.293   4.952   1.423
 1122SOL    HW1 3382   1.330   4.879   1.365
 1122SOL    HW2 3383   1.345   4.957   1.508
 1123SOL     OW 3384   0.809   3.728   0.502
 1123SOL    HW1 3385   0.849   3.819   0.493
 1123SOL    HW2 3386   0.709   3.736   0.508
 1124SOL     OW 3387   0.197   4.700   1.264
 1124SOL    HW1 3388   0.286   4.655   1.250
 1124SOL    HW2 3389   0.124   4.635   1.245
 1125SOL     OW 3390   1.525   4.723   0.190
 1125SOL    HW1 3391   1.462   4.647   0.203
 1125SOL    HW2 3392   1.573   4.741   0.276
 1126SOL     OW 3393   0.317   3.975   1.801
 1126SOL    HW1 3394   0.388   4.046   1.807
 1126SOL    HW2 3395   0.229   4.014   1.829
 1127SOL     OW 3396   0.598   4.453   0.270
 1127SOL    HW1 3397   0.622   4.522   0.202
 1127SOL    HW2 3398   0.520   4.486   0.324
 1128SOL     OW 3399   1.281   4.069   0.944
 1128SOL    HW1 3400   1.195   4.019   0.931
 1128SOL    HW2 3401   1.343   4.015   1.000
 1129SOL     OW 3402   0.807   4.329   1.465
 1129SOL    HW1 3403   0.760   4.326   1.554
 1129SOL    HW2 3404   0.756   4.274   1.399
 1130SOL     OW 3405   1.394   4.193   1.674
 1130SOL    HW1 3406   1.374   4.236   1.762
 1130SOL    HW2 3407   1.472   4.131   1.683
 1131SOL     OW 3408   0.973   4.614   1.572
 1131SOL    HW1 3409   1.019   4.530   1.543
 1131SOL    HW2 3410   0.917   4.648   1.497
 1132SOL     OW 3411   0.991   4.134   1.242
 1132SOL    HW1 3412   0.914   4.168   1.296
 1132SOL    HW2 3413   0.957   4.083   1.163
 1133SOL     OW 3414   1.041   4.425   0.429
 1133SOL    HW1 3415   1.067   4.421   0.525
 1133SOL    HW2 3416   0.956   4.374   0.415
 1134SOL     OW 3417   0.076   4.535   0.789
 1134SOL    HW1 3418   0.175   4.523   0.798
 1134SOL    HW2 3419   0.052   4.630   0.810
 1135SOL     OW 3420   0.865   4.072   0.195
 1135SOL    HW1 3421   0.924   4.135   0.146
 1135SOL    HW2 3422   0.884   3.978   0.166
 1136SOL     OW 3423   1.719   4.309   1.831
 1136SOL    HW1 3424   1.693   4.398   1.795
 1136SOL    HW2 3425   1.717   4.241   1.758
 1137SOL     OW 3426   0.550   3.920   0.885
 1137SOL    HW1 3427   0.545   3.915   0.985
 1137SOL    HW2 3428   0.552   4.016   0.856
 1138SOL     OW 3429   1.795   4.790   0.873
 1138SOL    HW1 3430   1.733   4.775   0.797
 1138SOL    HW2 3431   1.743   4.801   0.958
 1139SOL     OW 3432   1.458   4.459   0.728
 1139SOL    HW1 3433   1.453   4.394   0.803
 1139SOL    HW2 3434   1.538   4.518   0.741
 1140SOL     OW 3435   0.202   4.009   1.498
 1140SOL    HW1 3436   0.122   4.069   1.485
 1140SOL    HW2 3437   0.192   3.960   1.584
 1141SOL     OW 3438   1.400   3.831   0.426
 1141SOL    HW1 3439   1.376   3.794   0.336
 1141SOL    HW2 3440   1.499   3.847   0.430
 1142SOL     OW 3441   0.382   4.424   0.480
 1142SOL    HW1 3442   0.427   4.334   0.477
 1142SOL    HW2 3443   0.288   4.413   0.513
 1143SOL     OW 3444   1.547   3.946   1.729
 1143SOL    HW1 3445   1.542   3.983   1.821
 1143SOL    HW2 3446   1.475   3.877   1.717
 1144SOL     OW 3447   0.614   3.846   0.117
 1144SOL    HW1 3448   0.712   3.824   0.124
 1144SOL    HW2 3449   0.583   3.829   0.024
 1145SOL     OW 3450   0.781   3.988   1.749
 1145SOL    HW1 3451   0.848   3.927   1.792
 1145SOL    HW2 3452   0.708   4.007   1.814
 1146SOL     OW 3453   1.351   4.314   1.433
 1146SOL    HW1 3454   1.379   4.271   1.518
 1146SOL    HW2 3455   1.376   4.410   1.434
 1147SOL     OW 3456   0.922   4.227   0.899
 1147SOL    HW1 3457   0.897   4.218   0.803
 1147SOL    HW2 3458   0.970   4.145   0.930
 1148SOL     OW 3459   0.539   3.788   0.512
 1148SOL    HW1 3460   0.458   3.789   0.570
 1148SOL    HW2 3461   0.542   3.871   0.457
 1149SOL     OW 3462   0.935   3.960   0.480
 1149SOL    HW1 3463   0.887   4.001   0.402
 1149SOL    HW2 3464   1.034   3.958   0.461
 1150SOL     OW 3465   1.076   4.407   1.464
 1150SOL    HW1 3466   0.996   4.346   1.467
 1150SOL    HW2 3467   1.157   4.354   1.440
 1151SOL     OW 3468   1.032   4.273   0.016
 1151SOL    HW1 3469   0.991   4.355  -0.023
 1151SOL    HW2 3470   1.096   4.299   0.089
 1152SOL     OW 3471   0.078   4.280   1.386
 1152SOL    HW1 3472   0.170   4.279   1.345
 1152SOL    HW2 3473   0.072   4.354   1.453
 1153SOL     OW 3474   0.561   3.946   1.147
 1153SOL    HW1 3475   0.599   3.862   1.184
 1153SOL    HW2 3476   0.473   3.965   1.191
 1154SOL     OW 3477   0.866   4.178   0.642
 1154SOL    HW1 3478   0.834   4.250   0.580
 1154SOL    HW2 3479   0.890   4.097   0.589
 1155SOL     OW 3480   1.017   3.763   0.753
 1155SOL    HW1 3481   0.945   3.768   0.684
 1155SOL    HW2 3482   0.993   3.694   0.822
 1156SOL     OW 3483   1.429   4.897   0.867
 1156SOL    HW1 3484   1.374   4.813   0.860
 1156SOL    HW2 3485   1.455   4.926   0.775
 1157SOL     OW 3486   1.466   4.314   0.992
 1157SOL    HW1 3487   1.436   4.219   0.999
 1157SOL    HW2 3488   1.539   4.330   1.058
 1158SOL     OW 3489   1.857   4.557   0.377
 1158SOL    HW1 3490   1.899   4.493   0.441
 1158SOL    HW2 3491   1.819   4.506   0.299
 1159SOL     OW 3492   1.390   4.299   0.078
 1159SOL    HW1 3493   1.336   4.278   0.159
 1159SOL    HW2 3494   1.481   4.258   0.087
 1160SOL     OW 3495   0.527   3.980   0.328
 1160SOL    HW1 3496   0.554   3.921   0.253
 1160SOL    HW2 3497   0.527   4.075   0.297
 1161SOL     OW 3498   1.754   4.947   1.588
 1161SOL    HW1 3499   1.845   4.908   1.575
 1161SOL    HW2 3500   1.762   5.043   1.612
 1162SOL     OW 3501   1.638   4.823   1.079
 1162SOL    HW1 3502   1.643   4.904   1.138
 1162SOL    HW2 3503   1.552   4.825   1.028
 1163SOL     OW 3504   0.915   3.813   1.402
 1163SOL    HW1 3505   0.940   3.793   1.307
 1163SOL    HW2 3506   0.987   3.869   1.444
 1164SOL     OW 3507   0.410   4.537   1.251
 1164SOL    HW1 3508   0.496   4.549   1.301
 1164SOL    HW2 3509   0.368   4.450   1.278
 1165SOL     OW 3510   1.274   4.110   1.262
 1165SOL    HW1 3511   1.295   4.184   1.326
 1165SOL    HW2 3512   1.185   4.127   1.219
 1166SOL     OW 3513   0.566   4.261   0.865
 1166SOL    HW1 3514   0.578   4.327   0.791
 1166SOL    HW2 3515   0.612   4.295   0.948
 1167SOL     OW 3516   1.582   4.363   0.472
 1167SOL    HW1 3517   1.551   4.424   0.545
 1167SOL    HW2 3518   1.632   4.415   0.403
 1168SOL     OW 3519   0.402   4.475   1.598
 1168SOL    HW1 3520   0.470   4.530   1.551
 1168SOL    HW2 3521   0.442   4.387   1.625
 1169SOL     OW 3522   1.587   4.503   1.670
 1169SOL    HW1 3523   1.495   4.541   1.665
 1169SOL    HW2 3524   1.647   4.550   1.605
 1170SOL     OW 3525   1.013   3.829   1.770
 1170SOL    HW1 3526   1.019   3.914   1.718
 1170SOL    HW2 3527   1.045   3.753   1.713
 1171SOL     OW 3528   0.504   3.774   1.740
 1171SOL    HW1 3529   0.462   3.717   1.670
 1171SOL    HW2 3530   0.438   3.843   1.772
 1172SOL     OW 3531   0.573   4.594   1.029
 1172SOL    HW1 3532   0.617   4.683   1.020
 1172SOL    HW2 3533   0.510   4.594   1.106
 1173SOL     OW 3534   1.360   4.586   1.045
 1173SOL    HW1 3535   1.285   4.586   0.979
 1173SOL    HW2 3536   1.397   4.494   1.054
 1174SOL     OW 3537   1.209   4.249   0.275
 1174SOL    HW1 3538   1.222   4.165   0.329
 1174SOL    HW2 3539   1.180   4.323   0.335
 1175SOL     OW 3540   0.307   3.937   1.231
 1175SOL    HW1 3541   0.284   3.974   1.321
 1175SOL    HW2 3542   0.277   3.842   1.225
 1176SOL     OW 3543   0.037   5.034   1.282
 1176SOL    HW1 3544   0.090   4.985   1.350
 1176SOL    HW2 3545   0.059   5.132   1.287
 1177SOL     OW 3546   0.732   4.358   1.064
 1177SOL    HW1 3547   0.791   4.332   0.988
 1177SOL    HW2 3548   0.704   4.454   1.053
 1178SOL     OW 3549   1.728   4.659   1.854
 1178SOL    HW1 3550   1.682   4.652   1.765
 1178SOL    HW2 3551   1.666   4.703   1.920
 1179SOL     OW 3552   0.307   3.787   0.618
 1179SOL    HW1 3553   0.296   3.881   0.651
 1179SOL    HW2 3554   0.302   3.724   0.695
 1180SOL     OW 3555   1.622   4.091   0.374
 1180SOL    HW1 3556   1.624   4.015   0.438
 1180SOL    HW2 3557   1.574   4.168   0.414
 1181SOL     OW 3558   1.023   4.490   0.966
 1181SOL    HW1 3559   1.038   4.511   1.062
 1181SOL    HW2 3560   0.993   4.395   0.957
 1182SOL     OW 3561   0.350   4.622   1.804
 1182SOL    HW1 3562   0.426   4.666   1.852
 1182SOL    HW2 3563   0.385   4.575   1.722
 1183SOL     OW 3564   1.540   3.998   0.125
 1183SOL    HW1 3565   1.479   3.923   0.148
 1183SOL    HW2 3566   1.562   4.050   0.208
 1184SOL     OW 3567   1.303   4.562   0.042
 1184SOL    HW1 3568   1.337   4.469   0.057
 1184SOL    HW2 3569   1.321   4.589  -0.053
 1185SOL     OW 3570   0.319   4.534   0.949
 1185SOL    HW1 3571   0.412   4.570   0.954
 1185SOL    HW2 3572   0.313   4.449   1.001
 1186SOL     OW 3573   0.339   4.233   1.006
 1186SOL    HW1 3574   0.287   4.150   0.989
 1186SOL    HW2 3575   0.416   4.238   0.942
 1187SOL     OW 3576   1.138   4.104   1.678
 1187SOL    HW1 3577   1.093   4.167   1.742
 1187SOL    HW2 3578   1.231   4.135   1.661
 1188SOL     OW 3579   1.160   3.931   1.477
 1188SOL    HW1 3580   1.160   3.995   1.554
 1188SOL    HW2 3581   1.188   3.979   1.394
 1189SOL     OW 3582   1.002   4.520   1.238
 1189SOL    HW1 3583   1.043   4.488   1.324
 1189SOL    HW2 3584   0.906   4.493   1.235
 1190SOL     OW 3585   0.040   4.268   1.114
 1190SOL    HW1 3586   0.125   4.235   1.073
 1190SOL    HW2 3587   0.053   4.283   1.212
 1191SOL     OW 3588   0.189   4.244   1.722
 1191SOL    HW1 3589   0.248   4.204   1.652
 1191SOL    HW2 3590   0.131   4.315   1.681
 1192SOL     OW 3591   1.369   4.674   1.660
 1192SOL    HW1 3592   1.408   4.763   1.680
 1192SOL    HW2 3593   1.379   4.654   1.563
 1193SOL     OW 3594   0.815   4.296   0.325
 1193SOL    HW1 3595   0.822   4.207   0.279
 1193SOL    HW2 3596   0.721   4.330   0.317
 1194SOL     OW 3597   1.657   4.328   1.206
 1194SOL    HW1 3598   1.619   4.259   1.268
 1194SOL    HW2 3599   1.739   4.292   1.162
 1195SOL     OW 3600   0.671   4.188   1.269
 1195SOL    HW1 3601   0.637   4.099   1.239
 1195SOL    HW2 3602   0.697   4.242   1.189
 1196SOL     OW 3603   0.473   4.224   0.191
 1196SOL    HW1 3604   0.534   4.304   0.195
 1196SOL    HW2 3605   0.378   4.255   0.198
 1197SOL     OW 3606   0.159   4.861   1.466
 1197SOL    HW1 3607   0.181   4.800   1.542
 1197SOL    HW2 3608   0.169   4.812   1.380
 1198SOL     OW 3609   1.347   4.783   1.234
 1198SOL    HW1 3610   1.371   4.720   1.160
 1198SOL    HW2 3611   1.257   4.823   1.216
 1199SOL     OW 3612   1.302   4.579   0.309
 1199SOL    HW1 3613   1.216   4.548   0.351
 1199SOL    HW2 3614   1.298   4.565   0.210
 1200SOL     OW 3615   0.903   3.810   0.133
 1200SOL    HW1 3616   0.954   3.811   0.047
 1200SOL    HW2 3617   0.959   3.768   0.204
 1201SOL     OW 3618   1.726   3.859   0.523
 1201SOL    HW1 3619   1.799   3.842   0.456
 1201SOL    HW2 3620   1.695   3.772   0.561
 1202SOL     OW 3621   1.280   4.651   0.672
 1202SOL    HW1 3622   1.340   4.570   0.674
 1202SOL    HW2 3623   1.320   4.720   0.612
 1203SOL     OW 3624   1.841   3.899   0.963
 1203SOL    HW1 3625   1.880   3.814   0.927
 1203SOL    HW2 3626   1.743   3.901   0.944
 1204SOL     OW 3627   0.263   4.050   0.720
 1204SOL    HW1 3628   0.184   4.101   0.686
 1204SOL    HW2 3629   0.254   4.035   0.818
 1205SOL     OW 3630   0.822   4.726   1.372
 1205SOL    HW1 3631   0.862   4.725   1.280
 1205SOL    HW2 3632   0.832   4.818   1.412
 1206SOL     OW 3633   0.916   4.634   0.291
 1206SOL    HW1 3634   0.979   4.672   0.223
 1206SOL    HW2 3635   0.956   4.551   0.330
 1207SOL     OW 3636   1.014   3.960   0.971
 1207SOL    HW1 3637   1.006   3.924   0.878
 1207SOL    HW2 3638   1.012   3.884   1.036
 1208SOL     OW 3639   1.709   4.109   1.381
 1208SOL    HW1 3640   1.782   4.178   1.385
 1208SOL    HW2 3641   1.737   4.034   1.322
 1209SOL     OW 3642   0.105   4.737   1.726
 1209SOL    HW1 3643   0.028   4.704   1.780
 1209SOL    HW2 3644   0.190   4.707   1.768
 1210SOL     OW 3645   0.672   3.927   1.489
 1210SOL    HW1 3646   0.762   3.911   1.449
 1210SOL    HW2 3647   0.680   3.932   1.588
 1211SOL     OW 3648   0.075   4.069   0.033
 1211SOL    HW1 3649  -0.017   4.041   0.004
 1211SOL    HW2 3650   0.106   4.146  -0.023
 1212SOL     OW 3651   1.440   4.580   1.398
 1212SOL    HW1 3652   1.383   4.632   1.335
 1212SOL    HW2 3653   1.536   4.592   1.374
 1213SOL     OW 3654   0.072   3.890   0.318
 1213SOL    HW1 3655   0.055   3.973   0.264
 1213SOL    HW2 3656   0.162   3.853   0.296
 1214SOL     OW 3657   1.183   5.059   0.119
 1214SOL    HW1 3658   1.084   5.048   0.121
 1214SOL    HW2 3659   1.217   5.074   0.212
 1215SOL     OW 3660   0.613   4.566   1.431
 1215SOL    HW1 3661   0.669   4.647   1.414
 1215SOL    HW2 3662   0.672   4.486   1.434
 1216SOL     OW 3663   0.716   4.289   1.708
 1216SOL    HW1 3664   0.735   4.354   1.782
 1216SOL    HW2 3665   0.776   4.209   1.717
 1217SOL     OW 3666   1.674   4.607   1.254
 1217SOL    HW1 3667   1.647   4.518   1.217
 1217SOL    HW2 3668   1.675   4.675   1.181
 1218SOL     OW 3669   1.225   4.049   0.449
 1218SOL    HW1 3670   1.290   3.975   0.438
 1218SOL    HW2 3671   1.245   4.099   0.533
 1219SOL     OW 3672   0.594   4.469   0.652
 1219SOL    HW1 3673   0.644   4.554   0.633
 1219SOL    HW2 3674   0.506   4.471   0.604
 1220SOL     OW 3675   1.777   4.066   1.642
 1220SOL    HW1 3676   1.760   4.097   1.548
 1220SOL    HW2 3677   1.693   4.029   1.680
 1221SOL     OW 3678   1.730   4.658   1.517
 1221SOL    HW1 3679   1.768   4.749   1.532
 1221SOL    HW2 3680   1.722   4.641   1.418
 1222SOL     OW 3681   0.859   4.680   0.861
 1222SOL    HW1 3682   0.913   4.611   0.909
 1222SOL    HW2 3683   0.827   4.749   0.927
 1223SOL     OW 3684   1.083   4.708   0.087
 1223SOL    HW1 3685   1.060   4.761   0.005
 1223SOL    HW2 3686   1.164   4.652   0.068
 1224SOL     OW 3687   1.824   3.916   1.227
 1224SOL    HW1 3688   1.820   3.826   1.271
 1224SOL    HW2 3689   1.827   3.905   1.128
 1225SOL     OW 3690   0.428   4.148   0.520
 1225SOL    HW1 3691   0.458   4.076   0.458
 1225SOL    HW2 3692   0.389   4.108   0.603
 1226SOL     OW 3693   0.317   4.271   1.280
 1226SOL    HW1 3694   0.355   4.212   1.352
 1226SOL    HW2 3695   0.357   4.245   1.192
 1227SOL     OW 3696   1.424   3.938   1.112
 1227SOL    HW1 3697   1.476   3.873   1.167
 1227SOL    HW2 3698   1.375   4.001   1.173
 1228SOL     OW 3699   1.001   3.758   1.154
 1228SOL    HW1 3700   0.938   3.686   1.123
 1228SOL    HW2 3701   1.094   3.722   1.154
 1229SOL     OW 3702   1.352   3.776   0.168
 1229SOL    HW1 3703   1.387   3.735   0.084
 1229SOL    HW2 3704   1.262   3.738   0.188
 1230SOL     OW 3705   1.300   4.177   0.691
 1230SOL    HW1 3706   1.241   4.257   0.695
 1230SOL    HW2 3707   1.315   4.142   0.784
 1231SOL     OW 3708   1.593   3.945   0.882
 1231SOL    HW1 3709   1.509   3.944   0.936
 1231SOL    HW2 3710   1.595   4.028   0.826
 1232SOL     OW 3711   0.039   4.801   0.300
 1232SOL    HW1 3712   0.138   4.790   0.291
 1232SOL    HW2 3713  -0.001   4.715   0.332
 1233SOL     OW 3714   0.230   4.352   1.975
 1233SOL    HW1 3715   0.137   4.350   2.012
 1233SOL    HW2 3716   0.231   4.313   1.883
 1234SOL     OW 3717   0.225   3.999   2.858
 1234SOL    HW1 3718   0.260   3.982   2.950
 1234SOL    HW2 3719   0.137   3.954   2.846
 1235SOL     OW 3720   0.019   4.092   2.509
 1235SOL    HW1 3721  -0.063   4.135   2.548
 1235SOL    HW2 3722  -0.009   4.019   2.446
 1236SOL     OW 3723   1.135   4.427   2.579
 1236SOL    HW1 3724   1.192   4.505   2.554
 1236SOL    HW2 3725   1.075   4.453   2.655
 1237SOL     OW 3726   1.755   4.331   2.093
 1237SOL    HW1 3727   1.743   4.318   1.994
 1237SOL    HW2 3728   1.725   4.250   2.142
 1238SOL     OW 3729   0.768   4.868   2.885
 1238SOL    HW1 3730   0.690   4.885   2.945
 1238SOL    HW2 3731   0.802   4.955   2.849
 1239SOL     OW 3732   0.850   4.522   3.685
 1239SOL    HW1 3733   0.846   4.598   3.750
 1239SOL    HW2 3734   0.872   4.558   3.594
 1240SOL     OW 3735   0.685   4.736   2.527
 1240SOL    HW1 3736   0.754   4.720   2.597
 1240SOL    HW2 3737   0.612   4.793   2.565
 1241SOL     OW 3738   0.438   4.116   3.361
 1241SOL    HW1 3739   0.520   4.060   3.370
 1241SOL    HW2 3740   0.357   4.058   3.365
 1242SOL     OW 3741   1.603   4.171   2.599
 1242SOL    HW1 3742   1.529   4.217   2.549
 1242SOL    HW2 3743   1.654   4.239   2.652
 1243SOL     OW 3744   0.230   5.158   2.400
 1243SOL    HW1 3745   0.204   5.254   2.400
 1243SOL    HW2 3746   0.159   5.104   2.445
 1244SOL     OW 3747   0.240   4.815   2.748
 1244SOL    HW1 3748   0.254   4.731   2.800
 1244SOL    HW2 3749   0.185   4.879   2.803
 1245SOL     OW 3750   0.606   4.688   1.985
 1245SOL    HW1 3751   0.613   4.772   1.931
 1245SOL    HW2 3752   0.652   4.701   2.073
 1246SOL     OW 3753   1.594   3.838   3.342
 1246SOL    HW1 3754   1.576   3.905   3.270
 1246SOL    HW2 3755   1.591   3.884   3.431
 1247SOL     OW 3756   0.122   4.367   2.425
 1247SOL    HW1 3757   0.077   4.279   2.442
 1247SOL    HW2 3758   0.121   4.421   2.509
 1248SOL     OW 3759   1.689   4.646   2.474
 1248SOL    HW1 3760   1.784   4.617   2.482
 1248SOL    HW2 3761   1.681   4.711   2.399
 1249SOL     OW 3762   0.113   4.461   3.459
 1249SOL    HW1 3763   0.201   4.448   3.504
 1249SOL    HW2 3764   0.100   4.558   3.437
 1250SOL     OW 3765   0.613   5.089   2.588
 1250SOL    HW1 3766   0.564   5.002   2.597
 1250SOL    HW2 3767   0.590   5.132   2.501
 1251SOL     OW 3768   1.293   4.952   3.285
 1251SOL    HW1 3769   1.330   4.879   3.227
 1251SOL    HW2 3770   1.345   4.957   3.370
 1252SOL     OW 3771   0.809   3.728   2.364
 1252SOL    HW1 3772   0.849   3.819   2.355
 1252SOL    HW2 3773   0.709   3.736   2.370
 1253SOL     OW 3774   0.197   4.700   3.126
 1253SOL    HW1 3775   0.286   4.655   3.112
 1253SOL    HW2 3776   0.124   4.635   3.107
 1254SOL     OW 3777   1.525   4.723   2.052
 1254SOL    HW1 3778   1.462   4.647   2.065
 1254SOL    HW2 3779   1.573   4.741   2.138
 1255SOL     OW 3780   0.317   3.975   3.663
 1255SOL    HW1 3781   0.388   4.046   3.669
 1255SOL    HW2 3782   0.229   4.014   3.691
 1256SOL     OW 3783   0.598   4.453   2.132
 1256SOL    HW1 3784   0.622   4.522   2.064
 1256SOL    HW2 3785   0.520   4.486   2.186
 1257SOL     OW 3786   1.281   4.069   2.806
 1257SOL    HW1 3787   1.195   4.019   2.793
 1257SOL    HW2 3788   1.343   4.015   2.862
 1258SOL     OW 3789   0.807   4.329   3.327
 1258SOL    HW1 3790   0.760   4.326   3.416
 1258SOL    HW2 3791   0.756   4.274   3.261
 1259SOL     OW 3792   1.394   4.193   3.536
 1259SOL    HW1 3793   1.374   4.236   3.624
 1259SOL    HW2 3794   1.472   4.131   3.545
 1260SOL     OW 3795   0.973   4.614   3.434
 1260SOL    HW1 3796   1.019   4.530   3.405
 1260SOL    HW2 3797   0.917   4.648   3.359
 1261SOL     OW 3798   0.991   4.134   3.104
 1261SOL    HW1 3799   0.914   4.168   3.158
 1261SOL    HW2 3800   0.957   4.083   3.025
 1262SOL     OW 3801   1.041   4.425   2.291
 1262SOL    HW1 3802   1.067   4.421   2.387
 1262SOL    HW2 3803   0.956   4.374   2.277
 1263SOL     OW 3804   0.076   4.535   2.651
 1263SOL    HW1 3805   0.175   4.523   2.660
 1263SOL    HW2 3806   0.052   4.630   2.672
 1264SOL     OW 3807   0.865   4.072   2.057
 1264SOL    HW1 3808   0.924   4.135   2.008
 1264SOL    HW2 3809   0.884   3.978   2.028
 1265SOL     OW 3810   1.719   4.309   3.693
 1265SOL    HW1 3811   1.693   4.398   3.657
 1265SOL    HW2 3812   1.717   4.241   3.620
 1266SOL     OW 3813   0.550   3.920   2.747
 1266SOL    HW1 3814   0.545   3.915   2.847
 1266SOL    HW2 3815   0.552   4.016   2.718
 1267SOL     OW 3816   1.795   4.790   2.735
 1267SOL    HW1 3817   1.733   4.775   2.659
 1267SOL    HW2 3818   1.743   4.801   2.820
 1268SOL     OW 3819   1.458   4.459   2.590
 1268SOL    HW1 3820   1.453   4.394   2.665
 1268SOL    HW2 3821   1.538   4.518   2.603
 1269SOL     OW 3822   0.202   4.009   3.360
 1269SOL    HW1 3823   0.122   4.069   3.347
 1269SOL    HW2 3824   0.192   3.960   3.446
 1270SOL     OW 3825   1.400   3.831   2.288
 1270SOL    HW1 3826   1.376   3.794   2.198
 1270SOL    HW2 3827   1.499   3.847   2.292
 1271SOL     OW 3828   0.382   4.424   2.342
 1271SOL    HW1 3829   0.427   4.334   2.339
 1271SOL    HW2 3830   0.288   4.413   2.375
 1272SOL     OW 3831   1.547   3.946   3.591
 1272SOL    HW1 3832   1.542   3.983   3.683
 1272SOL    HW2 3833   1.475   3.877   3.579
 1273SOL     OW 3834   0.614   3.846   1.979
 1273SOL    HW1 3835   0.712   3.824   1.986
 1273SOL    HW2 3836   0.583   3.829   1.886
 1274SOL     OW 3837   0.781   3.988   3.611
 1274SOL    HW1 3838   0.848   3.927   3.654
 1274SOL    HW2 3839   0.708   4.007   3.676
 1275SOL     OW 3840   1.351   4.314   3.295
 1275SOL    HW1 3841   1.379   4.271   3.380
 1275SOL    HW2 3842   1.376   4.410   3.296
 1276SOL     OW 3843   0.922   4.227   2.761
 1276SOL    HW1 3844   0.897   4.218   2.665
 1276SOL    HW2 3845   0.970   4.145   2.792
 1277SOL     OW 3846   0.539   3.788   2.374
 1277SOL    HW1 3847   0.458   3.789   2.432
 1277SOL    HW2 3848   0.542   3.871   2.319
 1278SOL     OW 3849   0.297   3.759   2.033
 1278SOL    HW1 3850   0.346   3.843   2.012
 1278SOL    HW2 3851   0.359   3.694   2.078
 1279SOL     OW 3852   0.935   3.960   2.342
 1279SOL    HW1 3853   0.887   4.001   2.264
 1279SOL    HW2 3854   1.034   3.958   2.323
 1280SOL     OW 3855   1.076   4.407   3.326
 1280SOL    HW1 3856   0.996   4.346   3.329
 1280SOL    HW2 3857   1.157   4.354   3.302
 1281SOL     OW 3858   1.032   4.273   1.878
 1281SOL    HW1 3859   0.991   4.355   1.839
 1281SOL    HW2 3860   1.096   4.299   1.951
 1282SOL     OW 3861   0.078   4.280   3.248
 1282SOL    HW1 3862   0.170   4.279   3.207
 1282SOL    HW2 3863   0.072   4.354   3.315
 1283SOL     OW 3864   0.561   3.946   3.009
 1283SOL    HW1 3865   0.599   3.862   3.046
 1283SOL    HW2 3866   0.473   3.965   3.053
 1284SOL     OW 3867   0.866   4.178   2.504
 1284SOL    HW1 3868   0.834   4.250   2.442
 1284SOL    HW2 3869   0.890   4.097   2.451
 1285SOL     OW 3870   1.017   3.763   2.615
 1285SOL    HW1 3871   0.945   3.768   2.546
 1285SOL    HW2 3872   0.993   3.694   2.684
 1286SOL     OW 3873   1.429   4.897   2.729
 1286SOL    HW1 3874   1.374   4.813   2.722
 1286SOL    HW2 3875   1.455   4.926   2.637
 1287SOL     OW 3876   1.466   4.314   2.854
 1287SOL    HW1 3877   1.436   4.219   2.861
 1287SOL    HW2 3878   1.539   4.330   2.920
 1288SOL     OW 3879   1.857   4.557   2.239
 1288SOL    HW1 3880   1.899   4.493   2.303
 1288SOL    HW2 3881   1.819   4.506   2.161
 1289SOL     OW 3882   1.390   4.299   1.940
 1289SOL    HW1 3883   1.336   4.278   2.021
 1289SOL    HW2 3884   1.481   4.258   1.949
 1290SOL     OW 3885   0.527   3.980   2.190
 1290SOL    HW1 3886   0.554   3.921   2.115
 1290SOL    HW2 3887   0.527   4.075   2.159
 1291SOL     OW 3888   1.754   4.947   3.450
 1291SOL    HW1 3889   1.845   4.908   3.437
 1291SOL    HW2 3890   1.762   5.043   3.474
 1292SOL     OW 3891   1.638   4.823   2.941
 1292SOL    HW1 3892   1.643   4.904   3.000
 1292SOL    HW2 3893   1.552   4.825   2.890
 1293SOL     OW 3894   0.915   3.813   3.264
 1293SOL    HW1 3895   0.940   3.793   3.169
 1293SOL    HW2 3896   0.987   3.869   3.306
 1294SOL     OW 3897   0.410   4.537   3.113
 1294SOL    HW1 3898   0.496   4.549   3.163
 1294SOL    HW2 3899   0.368   4.450   3.140
 1295SOL     OW 3900   1.274   4.110   3.124
 1295SOL    HW1 3901   1.295   4.184   3.188
 1295SOL    HW2 3902   1.185   4.127   3.081
 1296SOL     OW 3903   0.566   4.261   2.727
 1296SOL    HW1 3904   0.578   4.327   2.653
 1296SOL    HW2 3905   0.612   4.295   2.810
 1297SOL     OW 3906   1.582   4.363   2.334
 1297SOL    HW1 3907   1.551   4.424   2.407
 1297SOL    HW2 3908   1.632   4.415   2.265
 1298SOL     OW 3909   0.402   4.475   3.460
 1298SOL    HW1 3910   0.470   4.530   3.413
 1298SOL    HW2 3911   0.442   4.387   3.487
 1299SOL     OW 3912   1.587   4.503   3.532
 1299SOL    HW1 3913   1.495   4.541   3.527
 1299SOL    HW2 3914   1.647   4.550   3.467
 1300SOL     OW 3915   1.013   3.829   3.632
 1300SOL    HW1 3916   1.019   3.914   3.580
 1300SOL    HW2 3917   1.045   3.753   3.575
 1301SOL     OW 3918   0.504   3.774   3.602
 1301SOL    HW1 3919   0.462   3.717   3.532
 1301SOL    HW2 3920   0.438   3.843   3.634
 1302SOL     OW 3921   0.573   4.594   2.891
 1302SOL    HW1 3922   0.617   4.683   2.882
 1302SOL    HW2 3923   0.510   4.594   2.968
 1303SOL     OW 3924   1.360   4.586   2.907
 1303SOL    HW1 3925   1.285   4.586   2.841
 1303SOL    HW2 3926   1.397   4.494   2.916
 1304SOL     OW 3927   1.209   4.249   2.137
 1304SOL    HW1 3928   1.222   4.165   2.191
 1304SOL    HW2 3929   1.180   4.323   2.197
 1305SOL     OW 3930   0.307   3.937   3.093
 1305SOL    HW1 3931   0.284   3.974   3.183
 1305SOL    HW2 3932   0.277   3.842   3.087
 1306SOL     OW 3933   0.037   5.034   3.144
 1306SOL    HW1 3934   0.090   4.985   3.212
 1306SOL    HW2 3935   0.059   5.132   3.149
 1307SOL     OW 3936   0.732   4.358   2.926
 1307SOL    HW1 3937   0.791   4.332   2.850
 1307SOL    HW2 3938   0.704   4.454   2.915
 1308SOL     OW 3939   1.728   4.659   3.716
 1308SOL    HW1 3940   1.682   4.652   3.627
 1308SOL    HW2 3941   1.666   4.703   3.782
 1309SOL     OW 3942   0.307   3.787   2.480
 1309SOL    HW1 3943   0.296   3.881   2.513
 1309SOL    HW2 3944   0.302   3.724   2.557
 1310SOL     OW 3945   1.622   4.091   2.236
 1310SOL    HW1 3946   1.624   4.015   2.300
 1310SOL    HW2 3947   1.574   4.168   2.276
 1311SOL     OW 3948   1.023   4.490   2.828
 1311SOL    HW1 3949   1.038   4.511   2.924
 1311SOL    HW2 3950   0.993   4.395   2.819
 1312SOL     OW 3951   0.350   4.622   3.666
 1312SOL    HW1 3952   0.426   4.666   3.714
 1312SOL    HW2 3953   0.385   4.575   3.584
 1313SOL     OW 3954   1.540   3.998   1.987
 1313SOL    HW1 3955   1.479   3.923   2.010
 1313SOL    HW2 3956   1.562   4.050   2.070
 1314SOL     OW 3957   1.303   4.562   1.904
 1314SOL    HW1 3958   1.337   4.469   1.919
 1314SOL    HW2 3959   1.321   4.589   1.809
 1315SOL     OW 3960   0.319   4.534   2.811
 1315SOL    HW1 3961   0.412   4.570   2.816
 1315SOL    HW2 3962   0.313   4.449   2.863
 1316SOL     OW 3963   0.339   4.233   2.868
 1316SOL    HW1 3964   0.287   4.150   2.851
 1316SOL    HW2 3965   0.416   4.238   2.804
 1317SOL     OW 3966   1.138   4.104   3.540
 1317SOL    HW1 3967   1.093   4.167   3.604
 1317SOL    HW2 3968   1.231   4.135   3.523
 1318SOL     OW 3969   1.160   3.931   3.339
 1318SOL    HW1 3970   1.160   3.995   3.416
 1318SOL    HW2 3971   1.188   3.979   3.256
 1319SOL     OW 3972   1.002   4.520   3.100
 1319SOL    HW1 3973   1.043   4.488   3.186
 1319SOL    HW2 3974   0.906   4.493   3.097
 1320SOL     OW 3975   0.040   4.268   2.976
 1320SOL    HW1 3976   0.125   4.235   2.935
 1320SOL    HW2 3977   0.053   4.283   3.074
 1321SOL     OW 3978   0.189   4.244   3.584
 1321SOL    HW1 3979   0.248   4.204   3.514
 1321SOL    HW2 3980   0.131   4.315   3.543
 1322SOL     OW 3981   1.369   4.674   3.522
 1322SOL    HW1 3982   1.408   4.763   3.542
 1322SOL    HW2 3983   1.379   4.654   3.425
 1323SOL     OW 3984   0.815   4.296   2.187
 1323SOL    HW1 3985   0.822   4.207   2.141
 1323SOL    HW2 3986   0.721   4.330   2.179
 1324SOL     OW 3987   1.657   4.328   3.068
 1324SOL    HW1 3988   1.619   4.259   3.130
 1324SOL    HW2 3989   1.739   4.292   3.024
 1325SOL     OW 3990   0.671   4.188   3.131
 1325SOL    HW1 3991   0.637   4.099   3.101
 1325SOL    HW2 3992   0.697   4.242   3.051
 1326SOL     OW 3993   0.473   4.224   2.053
 1326SOL    HW1 3994   0.534   4.304   2.057
 1326SOL    HW2 3995   0.378   4.255   2.060
 1327SOL     OW 3996   0.159   4.861   3.328
 1327SOL    HW1 3997   0.181   4.800   3.404
 1327SOL    HW2 3998   0.169   4.812   3.242
 1328SOL     OW 3999   1.347   4.783   3.096
 1328SOL    HW1 4000   1.371   4.720   3.022
 1328SOL    HW2 4001   1.257   4.823   3.078
 1329SOL     OW 4002   1.302   4.579   2.171
 1329SOL    HW1 4003   1.216   4.548   2.213
 1329SOL    HW2 4004   1.298   4.565   2.072
 1330SOL     OW 4005   1.726   3.859   2.385
 1330SOL    HW1 4006   1.799   3.842   2.318
 1330SOL    HW2 4007   1.695   3.772   2.423
 1331SOL     OW 4008   1.280   4.651   2.534
 1331SOL    HW1 4009   1.340   4.570   2.536
 1331SOL    HW2 4010   1.320   4.720   2.474
 1332SOL     OW 4011   1.841   3.899   2.825
 1332SOL    HW1 4012   1.880   3.814   2.789
 1332SOL    HW2 4013   1.743   3.901   2.806
 1333SOL     OW 4014   0.263   4.050   2.582
 1333SOL    HW1 4015   0.184   4.101   2.548
 1333SOL    HW2 4016   0.254   4.035   2.680
 1334SOL     OW 4017   0.822   4.726   3.234
 1334SOL    HW1 4018   0.862   4.725   3.142
 1334SOL    HW2 4019   0.832   4.818   3.274
 1335SOL     OW 4020   0.916   4.634   2.153
 1335SOL    HW1 4021   0.979   4.672   2.085
 1335SOL    HW2 4022   0.956   4.551   2.192
 1336SOL     OW 4023   1.014   3.960   2.833
 1336SOL    HW1 4024   1.006   3.924   2.740
 1336SOL    HW2 4025   1.012   3.884   2.898
 1337SOL     OW 4026   1.709   4.109   3.243
 1337SOL    HW1 4027   1.782   4.178   3.247
 1337SOL    HW2 4028   1.737   4.034   3.184
 1338SOL     OW 4029   0.105   4.737   3.588
 1338SOL    HW1 4030   0.028   4.704   3.642
 1338SOL    HW2 4031   0.190   4.707   3.630
 1339SOL     OW 4032   0.672   3.927   3.351
 1339SOL    HW1 4033   0.762   3.911   3.311
 1339SOL    HW2 4034   0.680   3.932   3.450
 1340SOL     OW 4035   0.075   4.069   1.895
 1340SOL    HW1 4036  -0.017   4.041   1.866
 1340SOL    HW2 4037   0.106   4.146   1.839
 1341SOL     OW 4038   1.440   4.580   3.260
 1341SOL    HW1 4039   1.383   4.632   3.197
 1341SOL    HW2 4040   1.536   4.592   3.236
 1342SOL     OW 4041   0.072   3.890   2.180
 1342SOL    HW1 4042   0.055   3.973   2.126
 1342SOL    HW2 4043   0.162   3.853   2.158
 1343SOL     OW 4044   1.183   5.059   1.981
 1343SOL    HW1 4045   1.084   5.048   1.983
 1343SOL    HW2 4046   1.217   5.074   2.074
 1344SOL     OW 4047   0.613   4.566   3.293
 1344SOL    HW1 4048   0.669   4.647   3.276
 1344SOL    HW2 4049   0.672   4.486   3.296
 1345SOL     OW 4050   0.716   4.289   3.570
 1345SOL    HW1 4051   0.735   4.354   3.644
 1345SOL    HW2 4052   0.776   4.209   3.579
 1346SOL     OW 4053   1.674   4.607   3.116
 1346SOL    HW1 4054   1.647   4.518   3.079
 1346SOL    HW2 4055   1.675   4.675   3.043
 1347SOL     OW 4056   1.225   4.049   2.311
 1347SOL    HW1 4057   1.290   3.975   2.300
 1347SOL    HW2 4058   1.245   4.099   2.395
 1348SOL     OW 4059   0.594   4.469   2.514
 1348SOL    HW1 4060   0.644   4.554   2.495
 1348SOL    HW2 4061   0.506   4.471   2.466
 1349SOL     OW 4062   1.777   4.066   3.504
 1349SOL    HW1 4063   1.760   4.097   3.410
 1349SOL    HW2 4064   1.693   4.029   3.542
 1350SOL     OW 4065   1.730   4.658   3.379
 1350SOL    HW1 4066   1.768   4.749   3.394
 1350SOL    HW2 4067   1.722   4.641   3.280
 1351SOL     OW 4068   0.859   4.680   2.723
 1351SOL    HW1 4069   0.913   4.611   2.771
 1351SOL    HW2 4070   0.827   4.749   2.789
 1352SOL     OW 4071   1.083   4.708   1.949
 1352SOL    HW1 4072   1.060   4.761   1.867
 1352SOL    HW2 4073   1.164   4.652   1.930
 1353SOL     OW 4074   1.824   3.916   3.089
 1353SOL    HW1 4075   1.820   3.826   3.133
 1353SOL    HW2 4076   1.827   3.905   2.990
 1354SOL     OW 4077   0.428   4.148   2.382
 1354SOL    HW1 4078   0.458   4.076   2.320
 1354SOL    HW2 4079   0.389   4.108   2.465
 1355SOL     OW 4080   0.317   4.271   3.142
 1355SOL    HW1 4081   0.355   4.212   3.214
 1355SOL    HW2 4082   0.357   4.245   3.054
 1356SOL     OW 4083   1.424   3.938   2.974
 1356SOL    HW1 4084   1.476   3.873   3.029
 1356SOL    HW2 4085   1.375   4.001   3.035
 1357SOL     OW 4086   1.001   3.758   3.016
 1357SOL    HW1 4087   0.938   3.686   2.985
 1357SOL    HW2 4088   1.094   3.722   3.016
 1358SOL     OW 4089   1.352   3.776   2.030
 1358SOL    HW1 4090   1.387   3.735   1.946
 1358SOL    HW2 4091   1.262   3.738   2.050
 1359SOL     OW 4092   1.300   4.177   2.553
 1359SOL    HW1 4093   1.241   4.257   2.557
 1359SOL    HW2 4094   1.315   4.142   2.646
 1360SOL     OW 4095   1.593   3.945   2.744
 1360SOL    HW1 4096   1.509   3.944   2.798
 1360SOL    HW2 4097   1.595   4.028   2.688
 1361SOL     OW 4098   0.039   4.801   2.162
 1361SOL    HW1 4099   0.138   4.790   2.153
 1361SOL    HW2 4100  -0.001   4.715   2.194
 1362SOL     OW 4101   0.230   4.352   3.837
 1362SOL    HW1 4102   0.137   4.350   3.874
 1362SOL    HW2 4103   0.231   4.313   3.745
 1363SOL     OW 4104   0.225   3.999   4.720
 1363SOL    HW1 4105   0.260   3.982   4.812
 1363SOL    HW2 4106   0.137   3.954   4.708
 1364SOL     OW 4107   0.019   4.092   4.371
 1364SOL    HW1 4108  -0.063   4.135   4.410
 1364SOL    HW2 4109  -0.009   4.019   4.308
 1365SOL     OW 4110   1.135   4.427   4.441
 1365SOL    HW1 4111   1.192   4.505   4.416
 1365SOL    HW2 4112   1.075   4.453   4.517
 1366SOL     OW 4113   1.755   4.331   3.955
 1366SOL    HW1 4114   1.743   4.318   3.856
 1366SOL    HW2 4115   1.725   4.250   4.004
 1367SOL     OW 4116   0.768   4.868   4.747
 1367SOL    HW1 4117   0.690   4.885   4.807
 1367SOL    HW2 4118   0.802   4.955   4.711
 1368SOL     OW 4119   0.685   4.736   4.389
 1368SOL    HW1 4120   0.754   4.720   4.459
 1368SOL    HW2 4121   0.612   4.793   4.427
 1369SOL     OW 4122   1.603   4.171   4.461
 1369SOL    HW1 4123   1.529   4.217   4.411
 1369SOL    HW2 4124   1.654   4.239   4.514
 1370SOL     OW 4125   0.230   5.158   4.262
 1370SOL    HW1 4126   0.204   5.254   4.262
 1370SOL    HW2 4127   0.159   5.104   4.307
 1371SOL     OW 4128   0.240   4.815   4.610
 1371SOL    HW1 4129   0.254   4.731   4.662
 1371SOL    HW2 4130   0.185   4.879   4.665
 1372SOL     OW 4131   0.606   4.688   3.847
 1372SOL    HW1 4132   0.613   4.772   3.793
 1372SOL    HW2 4133   0.652   4.701   3.935
 1373SOL     OW 4134   0.122   4.367   4.287
 1373SOL    HW1 4135   0.077   4.279   4.304
 1373SOL    HW2 4136   0.121   4.421   4.371
 1374SOL     OW 4137   1.689   4.646   4.336
 1374SOL    HW1 4138   1.784   4.617   4.344
 1374SOL    HW2 4139   1.681   4.711   4.261
 1375SOL     OW 4140   0.613   5.089   4.450
 1375SOL    HW1 4141   0.564   5.002   4.459
 1375SOL    HW2 4142   0.590   5.132   4.363
 1376SOL     OW 4143   0.809   3.728   4.226
 1376SOL    HW1 4144   0.849   3.819   4.217
 1376SOL    HW2 4145   0.709   3.736   4.232
 1377SOL     OW 4146   0.197   4.700   4.988
 1377SOL    HW1 4147   0.286   4.655   4.974
 1377SOL    HW2 4148   0.124   4.635   4.969
 1378SOL     OW 4149   1.525   4.723   3.914
 1378SOL    HW1 4150   1.462   4.647   3.927
 1378SOL    HW2 4151   1.573   4.741   4.000
 1379SOL     OW 4152   0.598   4.453   3.994
 1379SOL    HW1 4153   0.622   4.522   3.926
 1379SOL    HW2 4154   0.520   4.486   4.048
 1380SOL     OW 4155   1.281   4.069   4.668
 1380SOL    HW1 4156   1.195   4.019   4.655
 1380SOL    HW2 4157   1.343   4.015   4.724
 1381SOL     OW 4158   1.041   4.425   4.153
 1381SOL    HW1 4159   1.067   4.421   4.249
 1381SOL    HW2 4160   0.956   4.374   4.139
 1382SOL     OW 4161   0.076   4.535   4.513
 1382SOL    HW1 4162   0.175   4.523   4.522
 1382SOL    HW2 4163   0.052   4.630   4.534
 1383SOL     OW 4164   0.865   4.072   3.919
 1383SOL    HW1 4165   0.924   4.135   3.870
 1383SOL    HW2 4166   0.884   3.978   3.890
 1384SOL     OW 4167   0.550   3.920   4.609
 1384SOL    HW1 4168   0.545   3.915   4.709
 1384SOL    HW2 4169   0.552   4.016   4.580
 1385SOL     OW 4170   1.795   4.790   4.597
 1385SOL    HW1 4171   1.733   4.775   4.521
 1385SOL    HW2 4172   1.743   4.801   4.682
 1386SOL     OW 4173   1.458   4.459   4.452
 1386SOL    HW1 4174   1.453   4.394   4.527
 1386SOL    HW2 4175   1.538   4.518   4.465
 1387SOL     OW 4176   1.400   3.831   4.150
 1387SOL    HW1 4177   1.376   3.794   4.060
 1387SOL    HW2 4178   1.499   3.847   4.154
 1388SOL     OW 4179   0.382   4.424   4.204
 1388SOL    HW1 4180   0.427   4.334   4.201
 1388SOL    HW2 4181   0.288   4.413   4.237
 1389SOL     OW 4182   0.614   3.846   3.841
 1389SOL    HW1 4183   0.712   3.824   3.848
 1389SOL    HW2 4184   0.583   3.829   3.748
 1390SOL     OW 4185   0.922   4.227   4.623
 1390SOL    HW1 4186   0.897   4.218   4.527
 1390SOL    HW2 4187   0.970   4.145   4.654
 1391SOL     OW 4188   0.539   3.788   4.236
 1391SOL    HW1 4189   0.458   3.789   4.294
 1391SOL    HW2 4190   0.542   3.871   4.181
 1392SOL     OW 4191   0.297   3.759   3.895
 1392SOL    HW1 4192   0.346   3.843   3.874
 1392SOL    HW2 4193   0.359   3.694   3.940
 1393SOL     OW 4194   0.935   3.960   4.204
 1393SOL    HW1 4195   0.887   4.001   4.126
 1393SOL    HW2 4196   1.034   3.958   4.185
 1394SOL     OW 4197   1.032   4.273   3.740
 1394SOL    HW1 4198   0.991   4.355   3.701
 1394SOL    HW2 4199   1.096   4.299   3.813
 1395SOL     OW 4200   0.866   4.178   4.366
 1395SOL    HW1 4201   0.834   4.250   4.304
 1395SOL    HW2 4202   0.890   4.097   4.313
 1396SOL     OW 4203   1.017   3.763   4.477
 1396SOL    HW1 4204   0.945   3.768   4.408
 1396SOL    HW2 4205   0.993   3.694   4.546
 1397SOL     OW 4206   1.429   4.897   4.591
 1397SOL    HW1 4207   1.374   4.813   4.584
 1397SOL    HW2 4208   1.455   4.926   4.499
 1398SOL     OW 4209   1.466   4.314   4.716
 1398SOL    HW1 4210   1.436   4.219   4.723
 1398SOL    HW2 4211   1.539   4.330   4.782
 1399SOL     OW 4212   1.857   4.557   4.101
 1399SOL    HW1 4213   1.899   4.493   4.165
 1399SOL    HW2 4214   1.819   4.506   4.023
 1400SOL     OW 4215   1.390   4.299   3.802
 1400SOL    HW1 4216   1.336   4.278   3.883
 1400SOL    HW2 4217   1.481   4.258   3.811
 1401SOL     OW 4218   0.527   3.980   4.052
 1401SOL    HW1 4219   0.554   3.921   3.977
 1401SOL    HW2 4220   0.527   4.075   4.021
 1402SOL     OW 4221   1.638   4.823   4.803
 1402SOL    HW1 4222   1.643   4.904   4.862
 1402SOL    HW2 4223   1.552   4.825   4.752
 1403SOL     OW 4224   0.566   4.261   4.589
 1403SOL    HW1 4225   0.578   4.327   4.515
 1403SOL    HW2 4226   0.612   4.295   4.672
 1404SOL     OW 4227   1.582   4.363   4.196
 1404SOL    HW1 4228   1.551   4.424   4.269
 1404SOL    HW2 4229   1.632   4.415   4.127
 1405SOL     OW 4230   0.573   4.594   4.753
 1405SOL    HW1 4231   0.617   4.683   4.744
 1405SOL    HW2 4232   0.510   4.594   4.830
 1406SOL     OW 4233   1.209   4.249   3.999
 1406SOL    HW1 4234   1.222   4.165   4.053
 1406SOL    HW2 4235   1.180   4.323   4.059
 1407SOL     OW 4236   0.307   3.937   4.955
 1407SOL    HW1 4237   0.284   3.974   5.045
 1407SOL    HW2 4238   0.277   3.842   4.949
 1408SOL     OW 4239   0.732   4.358   4.788
 1408SOL    HW1 4240   0.791   4.332   4.712
 1408SOL    HW2 4241   0.704   4.454   4.777
 1409SOL     OW 4242   0.307   3.787   4.342
 1409SOL    HW1 4243   0.296   3.881   4.375
 1409SOL    HW2 4244   0.302   3.724   4.419
 1410SOL     OW 4245   1.622   4.091   4.098
 1410SOL    HW1 4246   1.624   4.015   4.162
 1410SOL    HW2 4247   1.574   4.168   4.138
 1411SOL     OW 4248   1.023   4.490   4.690
 1411SOL    HW1 4249   1.038   4.511   4.786
 1411SOL    HW2 4250   0.993   4.395   4.681
 1412SOL     OW 4251   1.540   3.998   3.849
 1412SOL    HW1 4252   1.479   3.923   3.872
 1412SOL    HW2 4253   1.562   4.050   3.932
 1413SOL     OW 4254   1.303   4.562   3.766
 1413SOL    HW1 4255   1.337   4.469   3.781
 1413SOL    HW2 4256   1.321   4.589   3.671
 1414SOL     OW 4257   0.319   4.534   4.673
 1414SOL    HW1 4258   0.412   4.570   4.678
 1414SOL    HW2 4259   0.313   4.449   4.725
 1415SOL     OW 4260   0.339   4.233   4.730
 1415SOL    HW1 4261   0.287   4.150   4.713
 1415SOL    HW2 4262   0.416   4.238   4.666
 1416SOL     OW 4263   1.002   4.520   4.962
 1416SOL    HW1 4264   1.043   4.488   5.048
 1416SOL    HW2 4265   0.906   4.493   4.959
 1417SOL     OW 4266   0.815   4.296   4.049
 1417SOL    HW1 4267   0.822   4.207   4.003
 1417SOL    HW2 4268   0.721   4.330   4.041
 1418SOL     OW 4269   0.671   4.188   4.993
 1418SOL    HW1 4270   0.637   4.099   4.963
 1418SOL    HW2 4271   0.697   4.242   4.913
 1419SOL     OW 4272   0.473   4.224   3.915
 1419SOL    HW1 4273   0.534   4.304   3.919
 1419SOL    HW2 4274   0.378   4.255   3.922
 1420SOL     OW 4275   1.302   4.579   4.033
 1420SOL    HW1 4276   1.216   4.548   4.075
 1420SOL    HW2 4277   1.298   4.565   3.934
 1421SOL     OW 4278   1.726   3.859   4.247
 1421SOL    HW1 4279   1.799   3.842   4.180
 1421SOL    HW2 4280   1.695   3.772   4.285
 1422SOL     OW 4281   1.280   4.651   4.396
 1422SOL    HW1 4282   1.340   4.570   4.398
 1422SOL    HW2 4283   1.320   4.720   4.336
 1423SOL     OW 4284   1.841   3.899   4.687
 1423SOL    HW1 4285   1.880   3.814   4.651
 1423SOL    HW2 4286   1.743   3.901   4.668
 1424SOL     OW 4287   0.263   4.050   4.444
 1424SOL    HW1 4288   0.184   4.101   4.410
 1424SOL    HW2 4289   0.254   4.035   4.542
 1425SOL     OW 4290   0.916   4.634   4.015
 1425SOL    HW1 4291   0.979   4.672   3.947
 1425SOL    HW2 4292   0.956   4.551   4.054
 1426SOL     OW 4293   1.014   3.960   4.695
 1426SOL    HW1 4294   1.006   3.924   4.602
 1426SOL    HW2 4295   1.012   3.884   4.760
 1427SOL     OW 4296   0.075   4.069   3.757
 1427SOL    HW1 4297  -0.017   4.041   3.728
 1427SOL    HW2 4298   0.106   4.146   3.701
 1428SOL     OW 4299   0.072   3.890   4.042
 1428SOL    HW1 4300   0.055   3.973   3.988
 1428SOL    HW2 4301   0.162   3.853   4.020
 1429SOL     OW 4302   1.183   5.059   3.843
 1429SOL    HW1 4303   1.084   5.048   3.845
 1429SOL    HW2 4304   1.217   5.074   3.936
 1430SOL     OW 4305   1.674   4.607   4.978
 1430SOL    HW1 4306   1.647   4.518   4.941
 1430SOL    HW2 4307   1.675   4.675   4.905
 1431SOL     OW 4308   1.225   4.049   4.173
 1431SOL    HW1 4309   1.290   3.975   4.162
 1431SOL    HW2 4310   1.245   4.099   4.257
 1432SOL     OW 4311   0.594   4.469   4.376
 1432SOL    HW1 4312   0.644   4.554   4.357
 1432SOL    HW2 4313   0.506   4.471   4.328
 1433SOL     OW 4314   0.859   4.680   4.585
 1433SOL    HW1 4315   0.913   4.611   4.633
 1433SOL    HW2 4316   0.827   4.749   4.651
 1434SOL     OW 4317   1.083   4.708   3.811
 1434SOL    HW1 4318   1.060   4.761   3.729
 1434SOL    HW2 4319   1.164   4.652   3.792
 1435SOL     OW 4320   1.824   3.916   4.951
 1435SOL    HW1 4321   1.820   3.826   4.995
 1435SOL    HW2 4322   1.827   3.905   4.852
 1436SOL     OW 4323   0.428   4.148   4.244
 1436SOL    HW1 4324   0.458   4.076   4.182
 1436SOL    HW2 4325   0.389   4.108   4.327
 1437SOL     OW 4326   1.352   3.776   3.892
 1437SOL    HW1 4327   1.387   3.735   3.808
 1437SOL    HW2 4328   1.262   3.738   3.912
 1438SOL     OW 4329   1.300   4.177   4.415
 1438SOL    HW1 4330   1.241   4.257   4.419
 1438SOL    HW2 4331   1.315   4.142   4.508
 1439SOL     OW 4332   1.593   3.945   4.606
 1439SOL    HW1 4333   1.509   3.944   4.660
 1439SOL    HW2 4334   1.595   4.028   4.550
 1440SOL     OW 4335   0.039   4.801   4.024
 1440SOL    HW1 4336   0.138   4.790   4.015
 1440SOL    HW2 4337  -0.001   4.715   4.056
 1441SOL     OW 4338   2.092   0.628   0.113
 1441SOL    HW1 4339   1.999   0.626   0.150
 1441SOL    HW2 4340   2.093   0.589   0.021
 1442SOL     OW 4341   2.087   0.275   0.996
 1442SOL    HW1 4342   2.122   0.258   1.088
 1442SOL    HW2 4343   1.999   0.230   0.984
 1443SOL     OW 4344   1.881   0.368   0.647
 1443SOL    HW1 4345   1.799   0.411   0.686
 1443SOL    HW2 4346   1.853   0.295   0.584
 1444SOL     OW 4347   2.431   1.275   1.165
 1444SOL    HW1 4348   2.338   1.268   1.128
 1444SOL    HW2 4349   2.442   1.364   1.209
 1445SOL     OW 4350   3.417   1.511   0.703
 1445SOL    HW1 4351   3.360   1.495   0.784
 1445SOL    HW2 4352   3.358   1.521   0.623
 1446SOL     OW 4353   2.997   0.703   0.717
 1446SOL    HW1 4354   3.054   0.781   0.692
 1446SOL    HW2 4355   2.937   0.729   0.793
 1447SOL     OW 4356   3.617   0.607   0.231
 1447SOL    HW1 4357   3.605   0.594   0.132
 1447SOL    HW2 4358   3.587   0.526   0.280
 1448SOL     OW 4359   2.630   1.144   1.023
 1448SOL    HW1 4360   2.552   1.161   1.083
 1448SOL    HW2 4361   2.664   1.231   0.987
 1449SOL     OW 4362   2.712   0.798   1.823
 1449SOL    HW1 4363   2.708   0.874   1.888
 1449SOL    HW2 4364   2.734   0.834   1.732
 1450SOL     OW 4365   2.547   1.012   0.665
 1450SOL    HW1 4366   2.616   0.996   0.735
 1450SOL    HW2 4367   2.474   1.069   0.703
 1451SOL     OW 4368   2.548   1.161   1.803
 1451SOL    HW1 4369   2.608   1.240   1.817
 1451SOL    HW2 4370   2.462   1.192   1.762
 1452SOL     OW 4371   2.197   1.435   1.061
 1452SOL    HW1 4372   2.119   1.404   1.008
 1452SOL    HW2 4373   2.255   1.493   1.004
 1453SOL     OW 4374   3.322   1.505   1.339
 1453SOL    HW1 4375   3.346   1.599   1.365
 1453SOL    HW2 4376   3.306   1.451   1.421
 1454SOL     OW 4377   2.300   0.392   1.499
 1454SOL    HW1 4378   2.382   0.336   1.508
 1454SOL    HW2 4379   2.219   0.334   1.503
 1455SOL     OW 4380   3.465   0.447   0.737
 1455SOL    HW1 4381   3.391   0.493   0.687
 1455SOL    HW2 4382   3.516   0.515   0.790
 1456SOL     OW 4383   2.093   1.713   0.483
 1456SOL    HW1 4384   2.127   1.790   0.537
 1456SOL    HW2 4385   2.137   1.713   0.393
 1457SOL     OW 4386   2.989   1.341   1.690
 1457SOL    HW1 4387   3.036   1.341   1.778
 1457SOL    HW2 4388   2.941   1.254   1.679
 1458SOL     OW 4389   2.092   1.434   0.538
 1458SOL    HW1 4390   2.066   1.530   0.538
 1458SOL    HW2 4391   2.021   1.380   0.583
 1459SOL     OW 4392   2.102   1.091   0.886
 1459SOL    HW1 4393   2.116   1.007   0.938
 1459SOL    HW2 4394   2.047   1.155   0.941
 1460SOL     OW 4395   2.482   1.786   1.439
 1460SOL    HW1 4396   2.390   1.769   1.474
 1460SOL    HW2 4397   2.510   1.878   1.465
 1461SOL     OW 4398   2.468   0.964   0.123
 1461SOL    HW1 4399   2.475   1.048   0.069
 1461SOL    HW2 4400   2.514   0.977   0.211
 1462SOL     OW 4401   3.456   0.114   1.480
 1462SOL    HW1 4402   3.438   0.181   1.408
 1462SOL    HW2 4403   3.453   0.160   1.569
 1463SOL     OW 4404   1.984   0.643   0.563
 1463SOL    HW1 4405   1.939   0.555   0.580
 1463SOL    HW2 4406   1.983   0.697   0.647
 1464SOL     OW 4407   3.704   1.767   0.359
 1464SOL    HW1 4408   3.758   1.738   0.439
 1464SOL    HW2 4409   3.734   1.857   0.330
 1465SOL     OW 4410   1.889   1.596   0.117
 1465SOL    HW1 4411   1.870   1.500   0.138
 1465SOL    HW2 4412   1.856   1.654   0.192
 1466SOL     OW 4413   3.551   0.922   0.612
 1466SOL    HW1 4414   3.646   0.893   0.620
 1466SOL    HW2 4415   3.543   0.987   0.537
 1467SOL     OW 4416   3.503   1.108   0.432
 1467SOL    HW1 4417   3.589   1.110   0.380
 1467SOL    HW2 4418   3.517   1.155   0.520
 1468SOL     OW 4419   1.975   0.737   1.597
 1468SOL    HW1 4420   2.063   0.724   1.642
 1468SOL    HW2 4421   1.962   0.834   1.575
 1469SOL     OW 4422   2.475   1.365   0.726
 1469SOL    HW1 4423   2.426   1.278   0.735
 1469SOL    HW2 4424   2.452   1.408   0.639
 1470SOL     OW 4425   3.155   1.228   1.423
 1470SOL    HW1 4426   3.192   1.155   1.365
 1470SOL    HW2 4427   3.207   1.233   1.508
 1471SOL     OW 4428   2.671   0.004   0.502
 1471SOL    HW1 4429   2.711   0.095   0.493
 1471SOL    HW2 4430   2.571   0.012   0.508
 1472SOL     OW 4431   2.059   0.976   1.264
 1472SOL    HW1 4432   2.148   0.931   1.250
 1472SOL    HW2 4433   1.986   0.911   1.245
 1473SOL     OW 4434   3.387   0.999   0.190
 1473SOL    HW1 4435   3.324   0.923   0.203
 1473SOL    HW2 4436   3.435   1.017   0.276
 1474SOL     OW 4437   3.049   1.792   1.616
 1474SOL    HW1 4438   3.073   1.852   1.540
 1474SOL    HW2 4439   3.056   1.697   1.586
 1475SOL     OW 4440   2.179   0.251   1.801
 1475SOL    HW1 4441   2.250   0.322   1.807
 1475SOL    HW2 4442   2.091   0.290   1.829
 1476SOL     OW 4443   3.328   1.417   0.953
 1476SOL    HW1 4444   3.269   1.423   1.033
 1476SOL    HW2 4445   3.313   1.329   0.907
 1477SOL     OW 4446   3.529   1.714   0.572
 1477SOL    HW1 4447   3.488   1.691   0.484
 1477SOL    HW2 4448   3.511   1.640   0.637
 1478SOL     OW 4449   2.460   0.729   0.270
 1478SOL    HW1 4450   2.484   0.798   0.202
 1478SOL    HW2 4451   2.382   0.762   0.324
 1479SOL     OW 4452   3.143   0.345   0.944
 1479SOL    HW1 4453   3.057   0.295   0.931
 1479SOL    HW2 4454   3.205   0.291   1.000
 1480SOL     OW 4455   3.438   1.662   0.307
 1480SOL    HW1 4456   3.527   1.708   0.310
 1480SOL    HW2 4457   3.417   1.638   0.212
 1481SOL     OW 4458   2.669   0.605   1.465
 1481SOL    HW1 4459   2.622   0.602   1.554
 1481SOL    HW2 4460   2.618   0.550   1.399
 1482SOL     OW 4461   3.256   0.469   1.674
 1482SOL    HW1 4462   3.236   0.512   1.762
 1482SOL    HW2 4463   3.334   0.407   1.683
 1483SOL     OW 4464   2.835   0.890   1.572
 1483SOL    HW1 4465   2.881   0.806   1.543
 1483SOL    HW2 4466   2.779   0.924   1.497
 1484SOL     OW 4467   2.853   0.410   1.242
 1484SOL    HW1 4468   2.776   0.444   1.296
 1484SOL    HW2 4469   2.819   0.359   1.163
 1485SOL     OW 4470   2.903   0.701   0.429
 1485SOL    HW1 4471   2.929   0.697   0.525
 1485SOL    HW2 4472   2.818   0.650   0.415
 1486SOL     OW 4473   1.938   0.811   0.789
 1486SOL    HW1 4474   2.037   0.799   0.798
 1486SOL    HW2 4475   1.914   0.906   0.810
 1487SOL     OW 4476   1.992   1.821   1.571
 1487SOL    HW1 4477   1.982   1.806   1.670
 1487SOL    HW2 4478   1.906   1.857   1.535
 1488SOL     OW 4479   2.727   0.348   0.195
 1488SOL    HW1 4480   2.786   0.411   0.146
 1488SOL    HW2 4481   2.746   0.254   0.166
 1489SOL     OW 4482   3.581   0.585   1.831
 1489SOL    HW1 4483   3.555   0.674   1.795
 1489SOL    HW2 4484   3.579   0.517   1.758
 1490SOL     OW 4485   3.224   1.144   0.545
 1490SOL    HW1 4486   3.307   1.115   0.497
 1490SOL    HW2 4487   3.175   1.211   0.489
 1491SOL     OW 4488   2.412   0.196   0.885
 1491SOL    HW1 4489   2.407   0.191   0.985
 1491SOL    HW2 4490   2.414   0.292   0.856
 1492SOL     OW 4491   2.870   1.456   0.477
 1492SOL    HW1 4492   2.824   1.528   0.425
 1492SOL    HW2 4493   2.866   1.476   0.575
 1493SOL     OW 4494   2.213   1.801   0.853
 1493SOL    HW1 4495   2.263   1.715   0.859
 1493SOL    HW2 4496   2.278   1.878   0.850
 1494SOL     OW 4497   3.657   1.066   0.873
 1494SOL    HW1 4498   3.595   1.051   0.797
 1494SOL    HW2 4499   3.605   1.077   0.958
 1495SOL     OW 4500   3.089   1.550   1.506
 1495SOL    HW1 4501   3.095   1.473   1.570
 1495SOL    HW2 4502   3.037   1.524   1.426
 1496SOL     OW 4503   2.183   0.943   0.242
 1496SOL    HW1 4504   2.265   0.982   0.200
 1496SOL    HW2 4505   2.156   0.861   0.193
 1497SOL     OW 4506   3.320   0.735   0.728
 1497SOL    HW1 4507   3.315   0.670   0.803
 1497SOL    HW2 4508   3.400   0.794   0.741
 1498SOL     OW 4509   2.323   1.266   1.727
 1498SOL    HW1 4510   2.273   1.267   1.641
 1498SOL    HW2 4511   2.260   1.248   1.803
 1499SOL     OW 4512   2.973   1.776   0.237
 1499SOL    HW1 4513   2.913   1.714   0.287
 1499SOL    HW2 4514   3.004   1.732   0.152
 1500SOL     OW 4515   2.064   0.285   1.498
 1500SOL    HW1 4516   1.984   0.345   1.485
 1500SOL    HW2 4517   2.054   0.236   1.584
 1501SOL     OW 4518   3.494   1.377   0.081
 1501SOL    HW1 4519   3.462   1.471   0.071
 1501SOL    HW2 4520   3.418   1.314   0.069
 1502SOL     OW 4521   2.326   1.743   0.323
 1502SOL    HW1 4522   2.359   1.782   0.409
 1502SOL    HW2 4523   2.402   1.736   0.258
 1503SOL     OW 4524   3.262   0.107   0.426
 1503SOL    HW1 4525   3.238   0.070   0.336
 1503SOL    HW2 4526   3.361   0.123   0.430
 1504SOL     OW 4527   2.111   1.785   1.241
 1504SOL    HW1 4528   2.168   1.720   1.291
 1504SOL    HW2 4529   2.095   1.752   1.148
 1505SOL     OW 4530   2.802   1.698   0.904
 1505SOL    HW1 4531   2.882   1.641   0.925
 1505SOL    HW2 4532   2.753   1.658   0.827
 1506SOL     OW 4533   2.244   0.700   0.480
 1506SOL    HW1 4534   2.289   0.610   0.477
 1506SOL    HW2 4535   2.150   0.689   0.513
 1507SOL     OW 4536   3.409   0.222   1.729
 1507SOL    HW1 4537   3.404   0.259   1.821
 1507SOL    HW2 4538   3.337   0.153   1.717
 1508SOL     OW 4539   2.476   0.122   0.117
 1508SOL    HW1 4540   2.574   0.100   0.124
 1508SOL    HW2 4541   2.445   0.105   0.024
 1509SOL     OW 4542   2.643   0.264   1.749
 1509SOL    HW1 4543   2.710   0.203   1.792
 1509SOL    HW2 4544   2.570   0.283   1.814
 1510SOL     OW 4545   2.750   1.514   1.195
 1510SOL    HW1 4546   2.727   1.489   1.101
 1510SOL    HW2 4547   2.811   1.445   1.234
 1511SOL     OW 4548   3.213   0.590   1.433
 1511SOL    HW1 4549   3.241   0.547   1.518
 1511SOL    HW2 4550   3.238   0.686   1.434
 1512SOL     OW 4551   2.665   1.402   0.924
 1512SOL    HW1 4552   2.755   1.416   0.882
 1512SOL    HW2 4553   2.594   1.404   0.853
 1513SOL     OW 4554   2.784   0.503   0.899
 1513SOL    HW1 4555   2.759   0.494   0.803
 1513SOL    HW2 4556   2.832   0.421   0.930
 1514SOL     OW 4557   2.401   0.064   0.512
 1514SOL    HW1 4558   2.320   0.065   0.570
 1514SOL    HW2 4559   2.404   0.147   0.457
 1515SOL     OW 4560   3.296   1.188   0.041
 1515SOL    HW1 4561   3.328   1.112   0.098
 1515SOL    HW2 4562   3.204   1.215   0.071
 1516SOL     OW 4563   2.159   0.035   0.171
 1516SOL    HW1 4564   2.208   0.119   0.150
 1516SOL    HW2 4565   2.221  -0.030   0.216
 1517SOL     OW 4566   2.797   0.236   0.480
 1517SOL    HW1 4567   2.749   0.277   0.402
 1517SOL    HW2 4568   2.896   0.234   0.461
 1518SOL     OW 4569   2.938   0.683   1.464
 1518SOL    HW1 4570   2.858   0.622   1.467
 1518SOL    HW2 4571   3.019   0.630   1.440
 1519SOL     OW 4572   3.089   1.570   0.793
 1519SOL    HW1 4573   3.110   1.644   0.728
 1519SOL    HW2 4574   3.157   1.570   0.866
 1520SOL     OW 4575   2.321   1.152   0.741
 1520SOL    HW1 4576   2.250   1.125   0.806
 1520SOL    HW2 4577   2.295   1.124   0.648
 1521SOL     OW 4578   3.133   1.797   0.591
 1521SOL    HW1 4579   3.177   1.861   0.527
 1521SOL    HW2 4580   3.083   1.849   0.661
 1522SOL     OW 4581   2.894   0.549   0.016
 1522SOL    HW1 4582   2.853   0.631  -0.023
 1522SOL    HW2 4583   2.958   0.575   0.089
 1523SOL     OW 4584   1.940   0.556   1.386
 1523SOL    HW1 4585   2.032   0.555   1.345
 1523SOL    HW2 4586   1.934   0.630   1.453
 1524SOL     OW 4587   2.423   0.222   1.147
 1524SOL    HW1 4588   2.461   0.138   1.184
 1524SOL    HW2 4589   2.335   0.241   1.191
 1525SOL     OW 4590   2.728   0.454   0.642
 1525SOL    HW1 4591   2.696   0.526   0.580
 1525SOL    HW2 4592   2.752   0.373   0.589
 1526SOL     OW 4593   2.879   0.039   0.753
 1526SOL    HW1 4594   2.807   0.044   0.684
 1526SOL    HW2 4595   2.855  -0.030   0.822
 1527SOL     OW 4596   3.291   1.173   0.867
 1527SOL    HW1 4597   3.236   1.089   0.860
 1527SOL    HW2 4598   3.317   1.202   0.775
 1528SOL     OW 4599   3.328   0.590   0.992
 1528SOL    HW1 4600   3.298   0.495   0.999
 1528SOL    HW2 4601   3.401   0.606   1.058
 1529SOL     OW 4602   3.719   0.833   0.377
 1529SOL    HW1 4603   3.761   0.769   0.441
 1529SOL    HW2 4604   3.681   0.782   0.299
 1530SOL     OW 4605   2.350   1.385   0.174
 1530SOL    HW1 4606   2.263   1.370   0.221
 1530SOL    HW2 4607   2.333   1.411   0.079
 1531SOL     OW 4608   3.526   1.280   0.657
 1531SOL    HW1 4609   3.625   1.288   0.671
 1531SOL    HW2 4610   3.481   1.364   0.688
 1532SOL     OW 4611   3.252   0.575   0.078
 1532SOL    HW1 4612   3.198   0.554   0.159
 1532SOL    HW2 4613   3.343   0.534   0.087
 1533SOL     OW 4614   2.389   0.256   0.328
 1533SOL    HW1 4615   2.416   0.197   0.253
 1533SOL    HW2 4616   2.389   0.351   0.297
 1534SOL     OW 4617   3.616   1.223   1.588
 1534SOL    HW1 4618   3.707   1.184   1.575
 1534SOL    HW2 4619   3.624   1.319   1.612
 1535SOL     OW 4620   2.926   1.347   1.340
 1535SOL    HW1 4621   2.846   1.324   1.395
 1535SOL    HW2 4622   3.009   1.321   1.389
 1536SOL     OW 4623   3.454   1.629   1.625
 1536SOL    HW1 4624   3.481   1.663   1.535
 1536SOL    HW2 4625   3.533   1.591   1.671
 1537SOL     OW 4626   2.973   1.195   1.100
 1537SOL    HW1 4627   2.933   1.239   1.181
 1537SOL    HW2 4628   2.932   1.232   1.017
 1538SOL     OW 4629   3.500   1.099   1.079
 1538SOL    HW1 4630   3.505   1.180   1.138
 1538SOL    HW2 4631   3.414   1.101   1.028
 1539SOL     OW 4632   2.777   0.089   1.402
 1539SOL    HW1 4633   2.802   0.069   1.307
 1539SOL    HW2 4634   2.849   0.145   1.444
 1540SOL     OW 4635   2.842   1.116   1.719
 1540SOL    HW1 4636   2.743   1.122   1.729
 1540SOL    HW2 4637   2.865   1.036   1.663
 1541SOL     OW 4638   2.567   1.050   0.368
 1541SOL    HW1 4639   2.553   1.057   0.467
 1541SOL    HW2 4640   2.651   0.999   0.350
 1542SOL     OW 4641   2.272   0.813   1.251
 1542SOL    HW1 4642   2.358   0.825   1.301
 1542SOL    HW2 4643   2.230   0.726   1.278
 1543SOL     OW 4644   3.136   0.386   1.262
 1543SOL    HW1 4645   3.157   0.460   1.326
 1543SOL    HW2 4646   3.047   0.403   1.219
 1544SOL     OW 4647   1.926   1.564   1.331
 1544SOL    HW1 4648   1.880   1.646   1.297
 1544SOL    HW2 4649   2.024   1.583   1.340
 1545SOL     OW 4650   2.229   1.100   0.501
 1545SOL    HW1 4651   2.222   1.183   0.445
 1545SOL    HW2 4652   2.233   1.020   0.441
 1546SOL     OW 4653   2.428   0.537   0.865
 1546SOL    HW1 4654   2.440   0.603   0.791
 1546SOL    HW2 4655   2.474   0.571   0.948
 1547SOL     OW 4656   3.114   1.348   0.388
 1547SOL    HW1 4657   3.164   1.425   0.428
 1547SOL    HW2 4658   3.019   1.350   0.420
 1548SOL     OW 4659   3.134   1.445   1.142
 1548SOL    HW1 4660   3.181   1.458   1.229
 1548SOL    HW2 4661   3.068   1.371   1.151
 1549SOL     OW 4662   3.444   0.639   0.472
 1549SOL    HW1 4663   3.413   0.700   0.545
 1549SOL    HW2 4664   3.494   0.691   0.403
 1550SOL     OW 4665   2.216   1.510   1.329
 1550SOL    HW1 4666   2.195   1.466   1.242
 1550SOL    HW2 4667   2.313   1.536   1.332
 1551SOL     OW 4668   2.264   0.751   1.598
 1551SOL    HW1 4669   2.332   0.806   1.551
 1551SOL    HW2 4670   2.304   0.663   1.625
 1552SOL     OW 4671   3.449   0.779   1.670
 1552SOL    HW1 4672   3.357   0.817   1.665
 1552SOL    HW2 4673   3.509   0.826   1.605
 1553SOL     OW 4674   2.875   0.105   1.770
 1553SOL    HW1 4675   2.881   0.190   1.718
 1553SOL    HW2 4676   2.907   0.029   1.713
 1554SOL     OW 4677   2.366   0.050   1.740
 1554SOL    HW1 4678   2.324  -0.007   1.670
 1554SOL    HW2 4679   2.300   0.119   1.772
 1555SOL     OW 4680   2.435   0.870   1.029
 1555SOL    HW1 4681   2.479   0.959   1.020
 1555SOL    HW2 4682   2.372   0.870   1.106
 1556SOL     OW 4683   3.222   0.862   1.045
 1556SOL    HW1 4684   3.147   0.862   0.979
 1556SOL    HW2 4685   3.259   0.770   1.054
 1557SOL     OW 4686   3.071   0.525   0.275
 1557SOL    HW1 4687   3.084   0.441   0.329
 1557SOL    HW2 4688   3.042   0.599   0.335
 1558SOL     OW 4689   2.169   0.213   1.231
 1558SOL    HW1 4690   2.146   0.250   1.321
 1558SOL    HW2 4691   2.139   0.118   1.225
 1559SOL     OW 4692   1.899   1.310   1.282
 1559SOL    HW1 4693   1.952   1.261   1.350
 1559SOL    HW2 4694   1.921   1.408   1.287
 1560SOL     OW 4695   2.594   0.634   1.064
 1560SOL    HW1 4696   2.653   0.608   0.988
 1560SOL    HW2 4697   2.566   0.730   1.053
 1561SOL     OW 4698   3.590   0.935   1.854
 1561SOL    HW1 4699   3.544   0.928   1.765
 1561SOL    HW2 4700   3.528   0.979   1.920
 1562SOL     OW 4701   2.169   0.063   0.618
 1562SOL    HW1 4702   2.158   0.157   0.651
 1562SOL    HW2 4703   2.164   0.000   0.695
 1563SOL     OW 4704   3.484   0.367   0.374
 1563SOL    HW1 4705   3.486   0.291   0.438
 1563SOL    HW2 4706   3.436   0.444   0.414
 1564SOL     OW 4707   2.885   0.766   0.966
 1564SOL    HW1 4708   2.900   0.787   1.062
 1564SOL    HW2 4709   2.855   0.671   0.957
 1565SOL     OW 4710   2.842   1.573   1.700
 1565SOL    HW1 4711   2.822   1.617   1.612
 1565SOL    HW2 4712   2.881   1.482   1.684
 1566SOL     OW 4713   3.721   1.518   1.605
 1566SOL    HW1 4714   3.735   1.545   1.510
 1566SOL    HW2 4715   3.804   1.540   1.658
 1567SOL     OW 4716   2.212   0.898   1.804
 1567SOL    HW1 4717   2.288   0.942   1.852
 1567SOL    HW2 4718   2.247   0.851   1.722
 1568SOL     OW 4719   3.402   0.274   0.125
 1568SOL    HW1 4720   3.341   0.199   0.148
 1568SOL    HW2 4721   3.424   0.326   0.208
 1569SOL     OW 4722   3.165   0.838   0.042
 1569SOL    HW1 4723   3.199   0.745   0.057
 1569SOL    HW2 4724   3.183   0.865  -0.053
 1570SOL     OW 4725   2.930   1.333   0.849
 1570SOL    HW1 4726   2.937   1.249   0.794
 1570SOL    HW2 4727   2.992   1.402   0.813
 1571SOL     OW 4728   2.181   0.810   0.949
 1571SOL    HW1 4729   2.274   0.846   0.954
 1571SOL    HW2 4730   2.175   0.725   1.001
 1572SOL     OW 4731   2.201   0.509   1.006
 1572SOL    HW1 4732   2.149   0.426   0.989
 1572SOL    HW2 4733   2.278   0.514   0.942
 1573SOL     OW 4734   3.000   0.380   1.678
 1573SOL    HW1 4735   2.955   0.443   1.742
 1573SOL    HW2 4736   3.093   0.411   1.661
 1574SOL     OW 4737   3.022   0.207   1.477
 1574SOL    HW1 4738   3.022   0.271   1.554
 1574SOL    HW2 4739   3.050   0.255   1.394
 1575SOL     OW 4740   1.870   1.326   0.200
 1575SOL    HW1 4741   1.777   1.347   0.169
 1575SOL    HW2 4742   1.880   1.227   0.213
 1576SOL     OW 4743   1.950   1.801   0.927
 1576SOL    HW1 4744   1.908   1.715   0.900
 1576SOL    HW2 4745   2.044   1.804   0.893
 1577SOL     OW 4746   2.366   1.568   0.910
 1577SOL    HW1 4747   2.432   1.642   0.919
 1577SOL    HW2 4748   2.410   1.489   0.868
 1578SOL     OW 4749   2.864   0.796   1.238
 1578SOL    HW1 4750   2.905   0.764   1.324
 1578SOL    HW2 4751   2.768   0.769   1.235
 1579SOL     OW 4752   1.902   0.544   1.114
 1579SOL    HW1 4753   1.987   0.511   1.073
 1579SOL    HW2 4754   1.915   0.559   1.212
 1580SOL     OW 4755   2.051   0.520   1.722
 1580SOL    HW1 4756   2.110   0.480   1.652
 1580SOL    HW2 4757   1.993   0.591   1.681
 1581SOL     OW 4758   3.231   0.950   1.660
 1581SOL    HW1 4759   3.270   1.039   1.680
 1581SOL    HW2 4760   3.241   0.930   1.563
 1582SOL     OW 4761   2.677   0.572   0.325
 1582SOL    HW1 4762   2.684   0.483   0.279
 1582SOL    HW2 4763   2.583   0.606   0.317
 1583SOL     OW 4764   3.519   0.604   1.206
 1583SOL    HW1 4765   3.481   0.535   1.268
 1583SOL    HW2 4766   3.601   0.568   1.162
 1584SOL     OW 4767   2.114   1.564   1.744
 1584SOL    HW1 4768   2.084   1.621   1.820
 1584SOL    HW2 4769   2.107   1.467   1.770
 1585SOL     OW 4770   2.533   0.464   1.269
 1585SOL    HW1 4771   2.499   0.375   1.239
 1585SOL    HW2 4772   2.559   0.518   1.189
 1586SOL     OW 4773   2.792   1.678   1.465
 1586SOL    HW1 4774   2.768   1.660   1.370
 1586SOL    HW2 4775   2.822   1.772   1.475
 1587SOL     OW 4776   2.335   0.500   0.191
 1587SOL    HW1 4777   2.396   0.580   0.195
 1587SOL    HW2 4778   2.240   0.531   0.198
 1588SOL     OW 4779   2.021   1.137   1.466
 1588SOL    HW1 4780   2.043   1.076   1.542
 1588SOL    HW2 4781   2.031   1.088   1.380
 1589SOL     OW 4782   3.209   1.059   1.234
 1589SOL    HW1 4783   3.233   0.996   1.160
 1589SOL    HW2 4784   3.119   1.099   1.216
 1590SOL     OW 4785   3.164   0.855   0.309
 1590SOL    HW1 4786   3.078   0.824   0.351
 1590SOL    HW2 4787   3.160   0.841   0.210
 1591SOL     OW 4788   3.621   1.747   1.154
 1591SOL    HW1 4789   3.682   1.777   1.081
 1591SOL    HW2 4790   3.583   1.658   1.132
 1592SOL     OW 4791   3.114   1.731   1.128
 1592SOL    HW1 4792   3.198   1.736   1.074
 1592SOL    HW2 4793   3.091   1.635   1.146
 1593SOL     OW 4794   1.945   1.258   1.022
 1593SOL    HW1 4795   1.940   1.257   1.122
 1593SOL    HW2 4796   1.862   1.217   0.984
 1594SOL     OW 4797   2.550   1.662   1.716
 1594SOL    HW1 4798   2.494   1.743   1.725
 1594SOL    HW2 4799   2.602   1.666   1.630
 1595SOL     OW 4800   2.765   0.086   0.133
 1595SOL    HW1 4801   2.816   0.087   0.047
 1595SOL    HW2 4802   2.821   0.044   0.204
 1596SOL     OW 4803   3.588   0.135   0.523
 1596SOL    HW1 4804   3.661   0.118   0.456
 1596SOL    HW2 4805   3.557   0.048   0.561
 1597SOL     OW 4806   3.250   1.573   0.477
 1597SOL    HW1 4807   3.317   1.585   0.403
 1597SOL    HW2 4808   3.210   1.662   0.500
 1598SOL     OW 4809   1.992   1.794   1.851
 1598SOL    HW1 4810   1.951   1.720   1.904
 1598SOL    HW2 4811   2.056   1.845   1.909
 1599SOL     OW 4812   3.142   0.927   0.672
 1599SOL    HW1 4813   3.202   0.846   0.674
 1599SOL    HW2 4814   3.182   0.996   0.612
 1600SOL     OW 4815   2.692   1.273   1.422
 1600SOL    HW1 4816   2.687   1.306   1.517
 1600SOL    HW2 4817   2.606   1.292   1.376
 1601SOL     OW 4818   2.534   1.616   0.154
 1601SOL    HW1 4819   2.543   1.626   0.055
 1601SOL    HW2 4820   2.494   1.527   0.175
 1602SOL     OW 4821   3.512   1.720   1.394
 1602SOL    HW1 4822   3.565   1.730   1.310
 1602SOL    HW2 4823   3.485   1.810   1.428
 1603SOL     OW 4824   3.703   0.175   0.963
 1603SOL    HW1 4825   3.742   0.090   0.927
 1603SOL    HW2 4826   3.605   0.177   0.944
 1604SOL     OW 4827   2.125   0.326   0.720
 1604SOL    HW1 4828   2.046   0.377   0.686
 1604SOL    HW2 4829   2.116   0.311   0.818
 1605SOL     OW 4830   3.056   1.612   0.031
 1605SOL    HW1 4831   3.062   1.519   0.068
 1605SOL    HW2 4832   2.997   1.612  -0.049
 1606SOL     OW 4833   2.684   1.002   1.372
 1606SOL    HW1 4834   2.724   1.001   1.280
 1606SOL    HW2 4835   2.694   1.094   1.412
 1607SOL     OW 4836   2.778   0.910   0.291
 1607SOL    HW1 4837   2.841   0.948   0.223
 1607SOL    HW2 4838   2.818   0.827   0.330
 1608SOL     OW 4839   3.366   1.607   0.044
 1608SOL    HW1 4840   3.274   1.644   0.051
 1608SOL    HW2 4841   3.404   1.627  -0.046
 1609SOL     OW 4842   2.234   1.288   1.490
 1609SOL    HW1 4843   2.221   1.381   1.456
 1609SOL    HW2 4844   2.150   1.236   1.477
 1610SOL     OW 4845   3.476   1.292   1.289
 1610SOL    HW1 4846   3.536   1.295   1.369
 1610SOL    HW2 4847   3.401   1.356   1.302
 1611SOL     OW 4848   2.901   1.098   0.696
 1611SOL    HW1 4849   2.831   1.051   0.750
 1611SOL    HW2 4850   2.960   1.030   0.653
 1612SOL     OW 4851   2.876   0.236   0.971
 1612SOL    HW1 4852   2.868   0.200   0.878
 1612SOL    HW2 4853   2.874   0.160   1.036
 1613SOL     OW 4854   2.452   1.487   0.491
 1613SOL    HW1 4855   2.494   1.429   0.421
 1613SOL    HW2 4856   2.408   1.566   0.447
 1614SOL     OW 4857   3.571   0.385   1.381
 1614SOL    HW1 4858   3.644   0.454   1.385
 1614SOL    HW2 4859   3.599   0.310   1.322
 1615SOL     OW 4860   2.117   1.348   0.290
 1615SOL    HW1 4861   2.021   1.349   0.263
 1615SOL    HW2 4862   2.129   1.401   0.374
 1616SOL     OW 4863   1.967   1.013   1.726
 1616SOL    HW1 4864   1.890   0.980   1.780
 1616SOL    HW2 4865   2.052   0.983   1.768
 1617SOL     OW 4866   2.534   0.203   1.489
 1617SOL    HW1 4867   2.624   0.187   1.449
 1617SOL    HW2 4868   2.542   0.208   1.588
 1618SOL     OW 4869   3.302   0.856   1.398
 1618SOL    HW1 4870   3.245   0.908   1.335
 1618SOL    HW2 4871   3.398   0.868   1.374
 1619SOL     OW 4872   1.934   0.166   0.318
 1619SOL    HW1 4873   1.917   0.249   0.264
 1619SOL    HW2 4874   2.024   0.129   0.296
 1620SOL     OW 4875   3.045   1.335   0.119
 1620SOL    HW1 4876   2.946   1.324   0.121
 1620SOL    HW2 4877   3.079   1.350   0.212
 1621SOL     OW 4878   2.475   0.842   1.431
 1621SOL    HW1 4879   2.531   0.923   1.414
 1621SOL    HW2 4880   2.534   0.762   1.434
 1622SOL     OW 4881   3.355   1.767   0.959
 1622SOL    HW1 4882   3.388   1.831   0.890
 1622SOL    HW2 4883   3.421   1.761   1.034
 1623SOL     OW 4884   2.578   0.565   1.708
 1623SOL    HW1 4885   2.597   0.630   1.782
 1623SOL    HW2 4886   2.638   0.485   1.717
 1624SOL     OW 4887   3.312   1.220   1.633
 1624SOL    HW1 4888   3.303   1.210   1.732
 1624SOL    HW2 4889   3.408   1.213   1.607
 1625SOL     OW 4890   2.252   1.741   1.560
 1625SOL    HW1 4891   2.161   1.782   1.558
 1625SOL    HW2 4892   2.245   1.647   1.592
 1626SOL     OW 4893   3.536   0.883   1.254
 1626SOL    HW1 4894   3.509   0.794   1.217
 1626SOL    HW2 4895   3.537   0.951   1.181
 1627SOL     OW 4896   3.087   0.325   0.449
 1627SOL    HW1 4897   3.152   0.251   0.438
 1627SOL    HW2 4898   3.107   0.375   0.533
 1628SOL     OW 4899   2.456   0.745   0.652
 1628SOL    HW1 4900   2.506   0.830   0.633
 1628SOL    HW2 4901   2.368   0.747   0.604
 1629SOL     OW 4902   3.639   0.342   1.642
 1629SOL    HW1 4903   3.622   0.373   1.548
 1629SOL    HW2 4904   3.555   0.305   1.680
 1630SOL     OW 4905   3.592   0.934   1.517
 1630SOL    HW1 4906   3.630   1.025   1.532
 1630SOL    HW2 4907   3.584   0.917   1.418
 1631SOL     OW 4908   2.721   1.374   0.016
 1631SOL    HW1 4909   2.675   1.389   0.104
 1631SOL    HW2 4910   2.765   1.459  -0.014
 1632SOL     OW 4911   2.523   1.790   0.953
 1632SOL    HW1 4912   2.477   1.878   0.940
 1632SOL    HW2 4913   2.622   1.802   0.946
 1633SOL     OW 4914   2.721   0.956   0.861
 1633SOL    HW1 4915   2.775   0.887   0.909
 1633SOL    HW2 4916   2.689   1.025   0.927
 1634SOL     OW 4917   2.945   0.984   0.087
 1634SOL    HW1 4918   2.922   1.037   0.005
 1634SOL    HW2 4919   3.026   0.928   0.068
 1635SOL     OW 4920   3.723   1.569   0.851
 1635SOL    HW1 4921   3.652   1.557   0.781
 1635SOL    HW2 4922   3.724   1.490   0.911
 1636SOL     OW 4923   2.083   1.314   1.844
 1636SOL    HW1 4924   2.018   1.241   1.823
 1636SOL    HW2 4925   2.087   1.328   1.942
 1637SOL     OW 4926   1.941   1.240   0.653
 1637SOL    HW1 4927   1.940   1.193   0.741
 1637SOL    HW2 4928   2.023   1.212   0.602
 1638SOL     OW 4929   2.534   1.391   1.624
 1638SOL    HW1 4930   2.456   1.341   1.662
 1638SOL    HW2 4931   2.531   1.486   1.655
 1639SOL     OW 4932   3.686   0.192   1.227
 1639SOL    HW1 4933   3.682   0.102   1.271
 1639SOL    HW2 4934   3.689   0.181   1.128
 1640SOL     OW 4935   2.290   0.424   0.520
 1640SOL    HW1 4936   2.320   0.352   0.458
 1640SOL    HW2 4937   2.251   0.384   0.603
 1641SOL     OW 4938   3.567   1.487   1.104
 1641SOL    HW1 4939   3.474   1.462   1.077
 1641SOL    HW2 4940   3.593   1.437   1.186
 1642SOL     OW 4941   2.179   0.547   1.280
 1642SOL    HW1 4942   2.217   0.488   1.352
 1642SOL    HW2 4943   2.219   0.521   1.192
 1643SOL     OW 4944   2.674   1.586   0.687
 1643SOL    HW1 4945   2.706   1.596   0.593
 1643SOL    HW2 4946   2.595   1.524   0.689
 1644SOL     OW 4947   3.286   0.214   1.112
 1644SOL    HW1 4948   3.338   0.149   1.167
 1644SOL    HW2 4949   3.237   0.277   1.173
 1645SOL     OW 4950   2.863   0.034   1.154
 1645SOL    HW1 4951   2.800  -0.038   1.123
 1645SOL    HW2 4952   2.956  -0.002   1.154
 1646SOL     OW 4953   2.632   1.330   0.301
 1646SOL    HW1 4954   2.586   1.243   0.318
 1646SOL    HW2 4955   2.723   1.327   0.342
 1647SOL     OW 4956   2.480   1.567   1.284
 1647SOL    HW1 4957   2.475   1.649   1.341
 1647SOL    HW2 4958   2.569   1.564   1.239
 1648SOL     OW 4959   3.214   0.052   0.168
 1648SOL    HW1 4960   3.249   0.011   0.084
 1648SOL    HW2 4961   3.124   0.014   0.188
 1649SOL     OW 4962   3.162   0.453   0.691
 1649SOL    HW1 4963   3.103   0.533   0.695
 1649SOL    HW2 4964   3.177   0.418   0.784
 1650SOL     OW 4965   3.455   0.221   0.882
 1650SOL    HW1 4966   3.371   0.220   0.936
 1650SOL    HW2 4967   3.457   0.304   0.826
 1651SOL     OW 4968   1.901   1.077   0.300
 1651SOL    HW1 4969   2.000   1.066   0.291
 1651SOL    HW2 4970   1.861   0.991   0.332
 1652SOL     OW 4971   2.737   1.646   0.337
 1652SOL    HW1 4972   2.660   1.611   0.283
 1652SOL    HW2 4973   2.705   1.717   0.399
 1653SOL     OW 4974   2.092   0.628   1.975
 1653SOL    HW1 4975   1.999   0.626   2.012
 1653SOL    HW2 4976   2.093   0.589   1.883
 1654SOL     OW 4977   2.087   0.275   2.858
 1654SOL    HW1 4978   2.122   0.258   2.950
 1654SOL    HW2 4979   1.999   0.230   2.846
 1655SOL     OW 4980   1.881   0.368   2.509
 1655SOL    HW1 4981   1.799   0.411   2.548
 1655SOL    HW2 4982   1.853   0.295   2.446
 1656SOL     OW 4983   2.431   1.275   3.027
 1656SOL    HW1 4984   2.338   1.268   2.990
 1656SOL    HW2 4985   2.442   1.364   3.071
 1657SOL     OW 4986   3.417   1.511   2.565
 1657SOL    HW1 4987   3.360   1.495   2.646
 1657SOL    HW2 4988   3.358   1.521   2.485
 1658SOL     OW 4989   2.997   0.703   2.579
 1658SOL    HW1 4990   3.054   0.781   2.554
 1658SOL    HW2 4991   2.937   0.729   2.655
 1659SOL     OW 4992   3.617   0.607   2.093
 1659SOL    HW1 4993   3.605   0.594   1.994
 1659SOL    HW2 4994   3.587   0.526   2.142
 1660SOL     OW 4995   2.630   1.144   2.885
 1660SOL    HW1 4996   2.552   1.161   2.945
 1660SOL    HW2 4997   2.664   1.231   2.849
 1661SOL     OW 4998   2.712   0.798   3.685
 1661SOL    HW1 4999   2.708   0.874   3.750
 1661SOL    HW2 5000   2.734   0.834   3.594
 1662SOL     OW 5001   2.547   1.012   2.527
 1662SOL    HW1 5002   2.616   0.996   2.597
 1662SOL    HW2 5003   2.474   1.069   2.565
 1663SOL     OW 5004   2.548   1.161   3.665
 1663SOL    HW1 5005   2.608   1.240   3.679
 1663SOL    HW2 5006   2.462   1.192   3.624
 1664SOL     OW 5007   2.197   1.435   2.923
 1664SOL    HW1 5008   2.119   1.404   2.870
 1664SOL    HW2 5009   2.255   1.493   2.866
 1665SOL     OW 5010   3.322   1.505   3.201
 1665SOL    HW1 5011   3.346   1.599   3.227
 1665SOL    HW2 5012   3.306   1.451   3.283
 1666SOL     OW 5013   2.300   0.392   3.361
 1666SOL    HW1 5014   2.382   0.336   3.370
 1666SOL    HW2 5015   2.219   0.334   3.365
 1667SOL     OW 5016   3.465   0.447   2.599
 1667SOL    HW1 5017   3.391   0.493   2.549
 1667SOL    HW2 5018   3.516   0.515   2.652
 1668SOL     OW 5019   2.093   1.713   2.345
 1668SOL    HW1 5020   2.127   1.790   2.399
 1668SOL    HW2 5021   2.137   1.713   2.255
 1669SOL     OW 5022   2.989   1.341   3.552
 1669SOL    HW1 5023   3.036   1.341   3.640
 1669SOL    HW2 5024   2.941   1.254   3.541
 1670SOL     OW 5025   2.092   1.434   2.400
 1670SOL    HW1 5026   2.066   1.530   2.400
 1670SOL    HW2 5027   2.021   1.380   2.445
 1671SOL     OW 5028   2.102   1.091   2.748
 1671SOL    HW1 5029   2.116   1.007   2.800
 1671SOL    HW2 5030   2.047   1.155   2.803
 1672SOL     OW 5031   2.482   1.786   3.301
 1672SOL    HW1 5032   2.390   1.769   3.336
 1672SOL    HW2 5033   2.510   1.878   3.327
 1673SOL     OW 5034   2.468   0.964   1.985
 1673SOL    HW1 5035   2.475   1.048   1.931
 1673SOL    HW2 5036   2.514   0.977   2.073
 1674SOL     OW 5037   3.456   0.114   3.342
 1674SOL    HW1 5038   3.438   0.181   3.270
 1674SOL    HW2 5039   3.453   0.160   3.431
 1675SOL     OW 5040   1.984   0.643   2.425
 1675SOL    HW1 5041   1.939   0.555   2.442
 1675SOL    HW2 5042   1.983   0.697   2.509
 1676SOL     OW 5043   3.704   1.767   2.221
 1676SOL    HW1 5044   3.758   1.738   2.301
 1676SOL    HW2 5045   3.734   1.857   2.192
 1677SOL     OW 5046   1.889   1.596   1.979
 1677SOL    HW1 5047   1.870   1.500   2.000
 1677SOL    HW2 5048   1.856   1.654   2.054
 1678SOL     OW 5049   3.551   0.922   2.474
 1678SOL    HW1 5050   3.646   0.893   2.482
 1678SOL    HW2 5051   3.543   0.987   2.399
 1679SOL     OW 5052   3.503   1.108   2.294
 1679SOL    HW1 5053   3.589   1.110   2.242
 1679SOL    HW2 5054   3.517   1.155   2.382
 1680SOL     OW 5055   1.975   0.737   3.459
 1680SOL    HW1 5056   2.063   0.724   3.504
 1680SOL    HW2 5057   1.962   0.834   3.437
 1681SOL     OW 5058   2.475   1.365   2.588
 1681SOL    HW1 5059   2.426   1.278   2.597
 1681SOL    HW2 5060   2.452   1.408   2.501
 1682SOL     OW 5061   3.155   1.228   3.285
 1682SOL    HW1 5062   3.192   1.155   3.227
 1682SOL    HW2 5063   3.207   1.233   3.370
 1683SOL     OW 5064   2.671   0.004   2.364
 1683SOL    HW1 5065   2.711   0.095   2.355
 1683SOL    HW2 5066   2.571   0.012   2.370
 1684SOL     OW 5067   2.059   0.976   3.126
 1684SOL    HW1 5068   2.148   0.931   3.112
 1684SOL    HW2 5069   1.986   0.911   3.107
 1685SOL     OW 5070   3.387   0.999   2.052
 1685SOL    HW1 5071   3.324   0.923   2.065
 1685SOL    HW2 5072   3.435   1.017   2.138
 1686SOL     OW 5073   3.049   1.792   3.478
 1686SOL    HW1 5074   3.073   1.852   3.402
 1686SOL    HW2 5075   3.056   1.697   3.448
 1687SOL     OW 5076   2.179   0.251   3.663
 1687SOL    HW1 5077   2.250   0.322   3.669
 1687SOL    HW2 5078   2.091   0.290   3.691
 1688SOL     OW 5079   3.328   1.417   2.815
 1688SOL    HW1 5080   3.269   1.423   2.895
 1688SOL    HW2 5081   3.313   1.329   2.769
 1689SOL     OW 5082   3.529   1.714   2.434
 1689SOL    HW1 5083   3.488   1.691   2.346
 1689SOL    HW2 5084   3.511   1.640   2.499
 1690SOL     OW 5085   2.460   0.729   2.132
 1690SOL    HW1 5086   2.484   0.798   2.064
 1690SOL    HW2 5087   2.382   0.762   2.186
 1691SOL     OW 5088   3.143   0.345   2.806
 1691SOL    HW1 5089   3.057   0.295   2.793
 1691SOL    HW2 5090   3.205   0.291   2.862
 1692SOL     OW 5091   3.438   1.662   2.169
 1692SOL    HW1 5092   3.527   1.708   2.172
 1692SOL    HW2 5093   3.417   1.638   2.074
 1693SOL     OW 5094   2.669   0.605   3.327
 1693SOL    HW1 5095   2.622   0.602   3.416
 1693SOL    HW2 5096   2.618   0.550   3.261
 1694SOL     OW 5097   3.256   0.469   3.536
 1694SOL    HW1 5098   3.236   0.512   3.624
 1694SOL    HW2 5099   3.334   0.407   3.545
 1695SOL     OW 5100   2.835   0.890   3.434
 1695SOL    HW1 5101   2.881   0.806   3.405
 1695SOL    HW2 5102   2.779   0.924   3.359
 1696SOL     OW 5103   2.853   0.410   3.104
 1696SOL    HW1 5104   2.776   0.444   3.158
 1696SOL    HW2 5105   2.819   0.359   3.025
 1697SOL     OW 5106   2.903   0.701   2.291
 1697SOL    HW1 5107   2.929   0.697   2.387
 1697SOL    HW2 5108   2.818   0.650   2.277
 1698SOL     OW 5109   1.938   0.811   2.651
 1698SOL    HW1 5110   2.037   0.799   2.660
 1698SOL    HW2 5111   1.914   0.906   2.672
 1699SOL     OW 5112   1.992   1.821   3.433
 1699SOL    HW1 5113   1.982   1.806   3.532
 1699SOL    HW2 5114   1.906   1.857   3.397
 1700SOL     OW 5115   2.727   0.348   2.057
 1700SOL    HW1 5116   2.786   0.411   2.008
 1700SOL    HW2 5117   2.746   0.254   2.028
 1701SOL     OW 5118   3.581   0.585   3.693
 1701SOL    HW1 5119   3.555   0.674   3.657
 1701SOL    HW2 5120   3.579   0.517   3.620
 1702SOL     OW 5121   3.224   1.144   2.407
 1702SOL    HW1 5122   3.307   1.115   2.359
 1702SOL    HW2 5123   3.175   1.211   2.351
 1703SOL     OW 5124   2.412   0.196   2.747
 1703SOL    HW1 5125   2.407   0.191   2.847
 1703SOL    HW2 5126   2.414   0.292   2.718
 1704SOL     OW 5127   2.870   1.456   2.339
 1704SOL    HW1 5128   2.824   1.528   2.287
 1704SOL    HW2 5129   2.866   1.476   2.437
 1705SOL     OW 5130   2.213   1.801   2.715
 1705SOL    HW1 5131   2.263   1.715   2.721
 1705SOL    HW2 5132   2.278   1.878   2.712
 1706SOL     OW 5133   3.657   1.066   2.735
 1706SOL    HW1 5134   3.595   1.051   2.659
 1706SOL    HW2 5135   3.605   1.077   2.820
 1707SOL     OW 5136   3.089   1.550   3.368
 1707SOL    HW1 5137   3.095   1.473   3.432
 1707SOL    HW2 5138   3.037   1.524   3.288
 1708SOL     OW 5139   2.183   0.943   2.104
 1708SOL    HW1 5140   2.265   0.982   2.062
 1708SOL    HW2 5141   2.156   0.861   2.055
 1709SOL     OW 5142   3.320   0.735   2.590
 1709SOL    HW1 5143   3.315   0.670   2.665
 1709SOL    HW2 5144   3.400   0.794   2.603
 1710SOL     OW 5145   2.323   1.266   3.589
 1710SOL    HW1 5146   2.273   1.267   3.503
 1710SOL    HW2 5147   2.260   1.248   3.665
 1711SOL     OW 5148   2.973   1.776   2.099
 1711SOL    HW1 5149   2.913   1.714   2.149
 1711SOL    HW2 5150   3.004   1.732   2.014
 1712SOL     OW 5151   2.064   0.285   3.360
 1712SOL    HW1 5152   1.984   0.345   3.347
 1712SOL    HW2 5153   2.054   0.236   3.446
 1713SOL     OW 5154   3.494   1.377   1.943
 1713SOL    HW1 5155   3.462   1.471   1.933
 1713SOL    HW2 5156   3.418   1.314   1.931
 1714SOL     OW 5157   2.326   1.743   2.185
 1714SOL    HW1 5158   2.359   1.782   2.271
 1714SOL    HW2 5159   2.402   1.736   2.120
 1715SOL     OW 5160   3.262   0.107   2.288
 1715SOL    HW1 5161   3.238   0.070   2.198
 1715SOL    HW2 5162   3.361   0.123   2.292
 1716SOL     OW 5163   2.111   1.785   3.103
 1716SOL    HW1 5164   2.168   1.720   3.153
 1716SOL    HW2 5165   2.095   1.752   3.010
 1717SOL     OW 5166   2.802   1.698   2.766
 1717SOL    HW1 5167   2.882   1.641   2.787
 1717SOL    HW2 5168   2.753   1.658   2.689
 1718SOL     OW 5169   2.244   0.700   2.342
 1718SOL    HW1 5170   2.289   0.610   2.339
 1718SOL    HW2 5171   2.150   0.689   2.375
 1719SOL     OW 5172   3.409   0.222   3.591
 1719SOL    HW1 5173   3.404   0.259   3.683
 1719SOL    HW2 5174   3.337   0.153   3.579
 1720SOL     OW 5175   2.476   0.122   1.979
 1720SOL    HW1 5176   2.574   0.100   1.986
 1720SOL    HW2 5177   2.445   0.105   1.886
 1721SOL     OW 5178   2.643   0.264   3.611
 1721SOL    HW1 5179   2.710   0.203   3.654
 1721SOL    HW2 5180   2.570   0.283   3.676
 1722SOL     OW 5181   2.750   1.514   3.057
 1722SOL    HW1 5182   2.727   1.489   2.963
 1722SOL    HW2 5183   2.811   1.445   3.096
 1723SOL     OW 5184   3.213   0.590   3.295
 1723SOL    HW1 5185   3.241   0.547   3.380
 1723SOL    HW2 5186   3.238   0.686   3.296
 1724SOL     OW 5187   2.665   1.402   2.786
 1724SOL    HW1 5188   2.755   1.416   2.744
 1724SOL    HW2 5189   2.594   1.404   2.715
 1725SOL     OW 5190   2.784   0.503   2.761
 1725SOL    HW1 5191   2.759   0.494   2.665
 1725SOL    HW2 5192   2.832   0.421   2.792
 1726SOL     OW 5193   2.401   0.064   2.374
 1726SOL    HW1 5194   2.320   0.065   2.432
 1726SOL    HW2 5195   2.404   0.147   2.319
 1727SOL     OW 5196   3.296   1.188   1.903
 1727SOL    HW1 5197   3.328   1.112   1.960
 1727SOL    HW2 5198   3.204   1.215   1.933
 1728SOL     OW 5199   2.159   0.035   2.033
 1728SOL    HW1 5200   2.208   0.119   2.012
 1728SOL    HW2 5201   2.221  -0.030   2.078
 1729SOL     OW 5202   2.797   0.236   2.342
 1729SOL    HW1 5203   2.749   0.277   2.264
 1729SOL    HW2 5204   2.896   0.234   2.323
 1730SOL     OW 5205   2.938   0.683   3.326
 1730SOL    HW1 5206   2.858   0.622   3.329
 1730SOL    HW2 5207   3.019   0.630   3.302
 1731SOL     OW 5208   3.089   1.570   2.655
 1731SOL    HW1 5209   3.110   1.644   2.590
 1731SOL    HW2 5210   3.157   1.570   2.728
 1732SOL     OW 5211   2.321   1.152   2.603
 1732SOL    HW1 5212   2.250   1.125   2.668
 1732SOL    HW2 5213   2.295   1.124   2.510
 1733SOL     OW 5214   3.133   1.797   2.453
 1733SOL    HW1 5215   3.177   1.861   2.389
 1733SOL    HW2 5216   3.083   1.849   2.523
 1734SOL     OW 5217   2.894   0.549   1.878
 1734SOL    HW1 5218   2.853   0.631   1.839
 1734SOL    HW2 5219   2.958   0.575   1.951
 1735SOL     OW 5220   1.940   0.556   3.248
 1735SOL    HW1 5221   2.032   0.555   3.207
 1735SOL    HW2 5222   1.934   0.630   3.315
 1736SOL     OW 5223   2.423   0.222   3.009
 1736SOL    HW1 5224   2.461   0.138   3.046
 1736SOL    HW2 5225   2.335   0.241   3.053
 1737SOL     OW 5226   2.728   0.454   2.504
 1737SOL    HW1 5227   2.696   0.526   2.442
 1737SOL    HW2 5228   2.752   0.373   2.451
 1738SOL     OW 5229   2.879   0.039   2.615
 1738SOL    HW1 5230   2.807   0.044   2.546
 1738SOL    HW2 5231   2.855  -0.030   2.684
 1739SOL     OW 5232   3.291   1.173   2.729
 1739SOL    HW1 5233   3.236   1.089   2.722
 1739SOL    HW2 5234   3.317   1.202   2.637
 1740SOL     OW 5235   3.328   0.590   2.854
 1740SOL    HW1 5236   3.298   0.495   2.861
 1740SOL    HW2 5237   3.401   0.606   2.920
 1741SOL     OW 5238   3.719   0.833   2.239
 1741SOL    HW1 5239   3.761   0.769   2.303
 1741SOL    HW2 5240   3.681   0.782   2.161
 1742SOL     OW 5241   2.350   1.385   2.036
 1742SOL    HW1 5242   2.263   1.370   2.083
 1742SOL    HW2 5243   2.333   1.411   1.941
 1743SOL     OW 5244   3.526   1.280   2.519
 1743SOL    HW1 5245   3.625   1.288   2.533
 1743SOL    HW2 5246   3.481   1.364   2.550
 1744SOL     OW 5247   3.252   0.575   1.940
 1744SOL    HW1 5248   3.198   0.554   2.021
 1744SOL    HW2 5249   3.343   0.534   1.949
 1745SOL     OW 5250   2.389   0.256   2.190
 1745SOL    HW1 5251   2.416   0.197   2.115
 1745SOL    HW2 5252   2.389   0.351   2.159
 1746SOL     OW 5253   3.616   1.223   3.450
 1746SOL    HW1 5254   3.707   1.184   3.437
 1746SOL    HW2 5255   3.624   1.319   3.474
 1747SOL     OW 5256   2.926   1.347   3.202
 1747SOL    HW1 5257   2.846   1.324   3.257
 1747SOL    HW2 5258   3.009   1.321   3.251
 1748SOL     OW 5259   3.454   1.629   3.487
 1748SOL    HW1 5260   3.481   1.663   3.397
 1748SOL    HW2 5261   3.533   1.591   3.533
 1749SOL     OW 5262   2.973   1.195   2.962
 1749SOL    HW1 5263   2.933   1.239   3.043
 1749SOL    HW2 5264   2.932   1.232   2.879
 1750SOL     OW 5265   3.500   1.099   2.941
 1750SOL    HW1 5266   3.505   1.180   3.000
 1750SOL    HW2 5267   3.414   1.101   2.890
 1751SOL     OW 5268   2.777   0.089   3.264
 1751SOL    HW1 5269   2.802   0.069   3.169
 1751SOL    HW2 5270   2.849   0.145   3.306
 1752SOL     OW 5271   2.842   1.116   3.581
 1752SOL    HW1 5272   2.743   1.122   3.591
 1752SOL    HW2 5273   2.865   1.036   3.525
 1753SOL     OW 5274   2.567   1.050   2.230
 1753SOL    HW1 5275   2.553   1.057   2.329
 1753SOL    HW2 5276   2.651   0.999   2.212
 1754SOL     OW 5277   2.272   0.813   3.113
 1754SOL    HW1 5278   2.358   0.825   3.163
 1754SOL    HW2 5279   2.230   0.726   3.140
 1755SOL     OW 5280   3.136   0.386   3.124
 1755SOL    HW1 5281   3.157   0.460   3.188
 1755SOL    HW2 5282   3.047   0.403   3.081
 1756SOL     OW 5283   1.926   1.564   3.193
 1756SOL    HW1 5284   1.880   1.646   3.159
 1756SOL    HW2 5285   2.024   1.583   3.202
 1757SOL     OW 5286   2.229   1.100   2.363
 1757SOL    HW1 5287   2.222   1.183   2.307
 1757SOL    HW2 5288   2.233   1.020   2.303
 1758SOL     OW 5289   2.428   0.537   2.727
 1758SOL    HW1 5290   2.440   0.603   2.653
 1758SOL    HW2 5291   2.474   0.571   2.810
 1759SOL     OW 5292   3.114   1.348   2.250
 1759SOL    HW1 5293   3.164   1.425   2.290
 1759SOL    HW2 5294   3.019   1.350   2.282
 1760SOL     OW 5295   3.134   1.445   3.004
 1760SOL    HW1 5296   3.181   1.458   3.091
 1760SOL    HW2 5297   3.068   1.371   3.013
 1761SOL     OW 5298   3.444   0.639   2.334
 1761SOL    HW1 5299   3.413   0.700   2.407
 1761SOL    HW2 5300   3.494   0.691   2.265
 1762SOL     OW 5301   2.216   1.510   3.191
 1762SOL    HW1 5302   2.195   1.466   3.104
 1762SOL    HW2 5303   2.313   1.536   3.194
 1763SOL     OW 5304   2.264   0.751   3.460
 1763SOL    HW1 5305   2.332   0.806   3.413
 1763SOL    HW2 5306   2.304   0.663   3.487
 1764SOL     OW 5307   3.449   0.779   3.532
 1764SOL    HW1 5308   3.357   0.817   3.527
 1764SOL    HW2 5309   3.509   0.826   3.467
 1765SOL     OW 5310   2.875   0.105   3.632
 1765SOL    HW1 5311   2.881   0.190   3.580
 1765SOL    HW2 5312   2.907   0.029   3.575
 1766SOL     OW 5313   2.366   0.050   3.602
 1766SOL    HW1 5314   2.324  -0.007   3.532
 1766SOL    HW2 5315   2.300   0.119   3.634
 1767SOL     OW 5316   2.435   0.870   2.891
 1767SOL    HW1 5317   2.479   0.959   2.882
 1767SOL    HW2 5318   2.372   0.870   2.968
 1768SOL     OW 5319   3.222   0.862   2.907
 1768SOL    HW1 5320   3.147   0.862   2.841
 1768SOL    HW2 5321   3.259   0.770   2.916
 1769SOL     OW 5322   3.071   0.525   2.137
 1769SOL    HW1 5323   3.084   0.441   2.191
 1769SOL    HW2 5324   3.042   0.599   2.197
 1770SOL     OW 5325   2.169   0.213   3.093
 1770SOL    HW1 5326   2.146   0.250   3.183
 1770SOL    HW2 5327   2.139   0.118   3.087
 1771SOL     OW 5328   1.899   1.310   3.144
 1771SOL    HW1 5329   1.952   1.261   3.212
 1771SOL    HW2 5330   1.921   1.408   3.149
 1772SOL     OW 5331   2.594   0.634   2.926
 1772SOL    HW1 5332   2.653   0.608   2.850
 1772SOL    HW2 5333   2.566   0.730   2.915
 1773SOL     OW 5334   3.590   0.935   3.716
 1773SOL    HW1 5335   3.544   0.928   3.627
 1773SOL    HW2 5336   3.528   0.979   3.782
 1774SOL     OW 5337   2.169   0.063   2.480
 1774SOL    HW1 5338   2.158   0.157   2.513
 1774SOL    HW2 5339   2.164   0.000   2.557
 1775SOL     OW 5340   3.484   0.367   2.236
 1775SOL    HW1 5341   3.486   0.291   2.300
 1775SOL    HW2 5342   3.436   0.444   2.276
 1776SOL     OW 5343   2.885   0.766   2.828
 1776SOL    HW1 5344   2.900   0.787   2.924
 1776SOL    HW2 5345   2.855   0.671   2.819
 1777SOL     OW 5346   2.842   1.573   3.562
 1777SOL    HW1 5347   2.822   1.617   3.474
 1777SOL    HW2 5348   2.881   1.482   3.546
 1778SOL     OW 5349   3.721   1.518   3.467
 1778SOL    HW1 5350   3.735   1.545   3.372
 1778SOL    HW2 5351   3.804   1.540   3.520
 1779SOL     OW 5352   2.212   0.898   3.666
 1779SOL    HW1 5353   2.288   0.942   3.714
 1779SOL    HW2 5354   2.247   0.851   3.584
 1780SOL     OW 5355   3.402   0.274   1.987
 1780SOL    HW1 5356   3.341   0.199   2.010
 1780SOL    HW2 5357   3.424   0.326   2.070
 1781SOL     OW 5358   3.165   0.838   1.904
 1781SOL    HW1 5359   3.199   0.745   1.919
 1781SOL    HW2 5360   3.183   0.865   1.809
 1782SOL     OW 5361   2.930   1.333   2.711
 1782SOL    HW1 5362   2.937   1.249   2.656
 1782SOL    HW2 5363   2.992   1.402   2.675
 1783SOL     OW 5364   2.181   0.810   2.811
 1783SOL    HW1 5365   2.274   0.846   2.816
 1783SOL    HW2 5366   2.175   0.725   2.863
 1784SOL     OW 5367   2.201   0.509   2.868
 1784SOL    HW1 5368   2.149   0.426   2.851
 1784SOL    HW2 5369   2.278   0.514   2.804
 1785SOL     OW 5370   3.000   0.380   3.540
 1785SOL    HW1 5371   2.955   0.443   3.604
 1785SOL    HW2 5372   3.093   0.411   3.523
 1786SOL     OW 5373   3.022   0.207   3.339
 1786SOL    HW1 5374   3.022   0.271   3.416
 1786SOL    HW2 5375   3.050   0.255   3.256
 1787SOL     OW 5376   1.870   1.326   2.062
 1787SOL    HW1 5377   1.777   1.347   2.031
 1787SOL    HW2 5378   1.880   1.227   2.075
 1788SOL     OW 5379   1.950   1.801   2.789
 1788SOL    HW1 5380   1.908   1.715   2.762
 1788SOL    HW2 5381   2.044   1.804   2.755
 1789SOL     OW 5382   2.366   1.568   2.772
 1789SOL    HW1 5383   2.432   1.642   2.781
 1789SOL    HW2 5384   2.410   1.489   2.730
 1790SOL     OW 5385   2.864   0.796   3.100
 1790SOL    HW1 5386   2.905   0.764   3.186
 1790SOL    HW2 5387   2.768   0.769   3.097
 1791SOL     OW 5388   1.902   0.544   2.976
 1791SOL    HW1 5389   1.987   0.511   2.935
 1791SOL    HW2 5390   1.915   0.559   3.074
 1792SOL     OW 5391   2.051   0.520   3.584
 1792SOL    HW1 5392   2.110   0.480   3.514
 1792SOL    HW2 5393   1.993   0.591   3.543
 1793SOL     OW 5394   3.231   0.950   3.522
 1793SOL    HW1 5395   3.270   1.039   3.542
 1793SOL    HW2 5396   3.241   0.930   3.425
 1794SOL     OW 5397   2.677   0.572   2.187
 1794SOL    HW1 5398   2.684   0.483   2.141
 1794SOL    HW2 5399   2.583   0.606   2.179
 1795SOL     OW 5400   3.519   0.604   3.068
 1795SOL    HW1 5401   3.481   0.535   3.130
 1795SOL    HW2 5402   3.601   0.568   3.024
 1796SOL     OW 5403   2.114   1.564   3.606
 1796SOL    HW1 5404   2.084   1.621   3.682
 1796SOL    HW2 5405   2.107   1.467   3.632
 1797SOL     OW 5406   2.533   0.464   3.131
 1797SOL    HW1 5407   2.499   0.375   3.101
 1797SOL    HW2 5408   2.559   0.518   3.051
 1798SOL     OW 5409   2.792   1.678   3.327
 1798SOL    HW1 5410   2.768   1.660   3.232
 1798SOL    HW2 5411   2.822   1.772   3.337
 1799SOL     OW 5412   2.335   0.500   2.053
 1799SOL    HW1 5413   2.396   0.580   2.057
 1799SOL    HW2 5414   2.240   0.531   2.060
 1800SOL     OW 5415   2.021   1.137   3.328
 1800SOL    HW1 5416   2.043   1.076   3.404
 1800SOL    HW2 5417   2.031   1.088   3.242
 1801SOL     OW 5418   3.209   1.059   3.096
 1801SOL    HW1 5419   3.233   0.996   3.022
 1801SOL    HW2 5420   3.119   1.099   3.078
 1802SOL     OW 5421   3.164   0.855   2.171
 1802SOL    HW1 5422   3.078   0.824   2.213
 1802SOL    HW2 5423   3.160   0.841   2.072
 1803SOL     OW 5424   3.621   1.747   3.016
 1803SOL    HW1 5425   3.682   1.777   2.943
 1803SOL    HW2 5426   3.583   1.658   2.994
 1804SOL     OW 5427   3.114   1.731   2.990
 1804SOL    HW1 5428   3.198   1.736   2.936
 1804SOL    HW2 5429   3.091   1.635   3.008
 1805SOL     OW 5430   1.945   1.258   2.884
 1805SOL    HW1 5431   1.940   1.257   2.984
 1805SOL    HW2 5432   1.862   1.217   2.846
 1806SOL     OW 5433   2.550   1.662   3.578
 1806SOL    HW1 5434   2.494   1.743   3.587
 1806SOL    HW2 5435   2.602   1.666   3.492
 1807SOL     OW 5436   3.588   0.135   2.385
 1807SOL    HW1 5437   3.661   0.118   2.318
 1807SOL    HW2 5438   3.557   0.048   2.423
 1808SOL     OW 5439   3.250   1.573   2.339
 1808SOL    HW1 5440   3.317   1.585   2.265
 1808SOL    HW2 5441   3.210   1.662   2.362
 1809SOL     OW 5442   1.992   1.794   3.713
 1809SOL    HW1 5443   1.951   1.720   3.766
 1809SOL    HW2 5444   2.056   1.845   3.771
 1810SOL     OW 5445   3.142   0.927   2.534
 1810SOL    HW1 5446   3.202   0.846   2.536
 1810SOL    HW2 5447   3.182   0.996   2.474
 1811SOL     OW 5448   2.692   1.273   3.284
 1811SOL    HW1 5449   2.687   1.306   3.379
 1811SOL    HW2 5450   2.606   1.292   3.238
 1812SOL     OW 5451   2.534   1.616   2.016
 1812SOL    HW1 5452   2.543   1.626   1.917
 1812SOL    HW2 5453   2.494   1.527   2.037
 1813SOL     OW 5454   3.512   1.720   3.256
 1813SOL    HW1 5455   3.565   1.730   3.172
 1813SOL    HW2 5456   3.485   1.810   3.290
 1814SOL     OW 5457   3.703   0.175   2.825
 1814SOL    HW1 5458   3.742   0.090   2.789
 1814SOL    HW2 5459   3.605   0.177   2.806
 1815SOL     OW 5460   2.125   0.326   2.582
 1815SOL    HW1 5461   2.046   0.377   2.548
 1815SOL    HW2 5462   2.116   0.311   2.680
 1816SOL     OW 5463   3.056   1.612   1.893
 1816SOL    HW1 5464   3.062   1.519   1.930
 1816SOL    HW2 5465   2.997   1.612   1.813
 1817SOL     OW 5466   2.684   1.002   3.234
 1817SOL    HW1 5467   2.724   1.001   3.142
 1817SOL    HW2 5468   2.694   1.094   3.274
 1818SOL     OW 5469   2.778   0.910   2.153
 1818SOL    HW1 5470   2.841   0.948   2.085
 1818SOL    HW2 5471   2.818   0.827   2.192
 1819SOL     OW 5472   3.366   1.607   1.906
 1819SOL    HW1 5473   3.274   1.644   1.913
 1819SOL    HW2 5474   3.404   1.627   1.816
 1820SOL     OW 5475   2.234   1.288   3.352
 1820SOL    HW1 5476   2.221   1.381   3.318
 1820SOL    HW2 5477   2.150   1.236   3.339
 1821SOL     OW 5478   3.476   1.292   3.151
 1821SOL    HW1 5479   3.536   1.295   3.231
 1821SOL    HW2 5480   3.401   1.356   3.164
 1822SOL     OW 5481   2.901   1.098   2.558
 1822SOL    HW1 5482   2.831   1.051   2.612
 1822SOL    HW2 5483   2.960   1.030   2.515
 1823SOL     OW 5484   2.876   0.236   2.833
 1823SOL    HW1 5485   2.868   0.200   2.740
 1823SOL    HW2 5486   2.874   0.160   2.898
 1824SOL     OW 5487   2.452   1.487   2.353
 1824SOL    HW1 5488   2.494   1.429   2.283
 1824SOL    HW2 5489   2.408   1.566   2.309
 1825SOL     OW 5490   3.571   0.385   3.243
 1825SOL    HW1 5491   3.644   0.454   3.247
 1825SOL    HW2 5492   3.599   0.310   3.184
 1826SOL     OW 5493   2.117   1.348   2.152
 1826SOL    HW1 5494   2.021   1.349   2.125
 1826SOL    HW2 5495   2.129   1.401   2.236
 1827SOL     OW 5496   1.967   1.013   3.588
 1827SOL    HW1 5497   1.890   0.980   3.642
 1827SOL    HW2 5498   2.052   0.983   3.630
 1828SOL     OW 5499   2.534   0.203   3.351
 1828SOL    HW1 5500   2.624   0.187   3.311
 1828SOL    HW2 5501   2.542   0.208   3.450
 1829SOL     OW 5502   1.937   0.345   1.895
 1829SOL    HW1 5503   1.845   0.317   1.866
 1829SOL    HW2 5504   1.968   0.422   1.839
 1830SOL     OW 5505   3.302   0.856   3.260
 1830SOL    HW1 5506   3.245   0.908   3.197
 1830SOL    HW2 5507   3.398   0.868   3.236
 1831SOL     OW 5508   1.934   0.166   2.180
 1831SOL    HW1 5509   1.917   0.249   2.126
 1831SOL    HW2 5510   2.024   0.129   2.158
 1832SOL     OW 5511   3.045   1.335   1.981
 1832SOL    HW1 5512   2.946   1.324   1.983
 1832SOL    HW2 5513   3.079   1.350   2.074
 1833SOL     OW 5514   2.475   0.842   3.293
 1833SOL    HW1 5515   2.531   0.923   3.276
 1833SOL    HW2 5516   2.534   0.762   3.296
 1834SOL     OW 5517   3.355   1.767   2.821
 1834SOL    HW1 5518   3.388   1.831   2.752
 1834SOL    HW2 5519   3.421   1.761   2.896
 1835SOL     OW 5520   2.578   0.565   3.570
 1835SOL    HW1 5521   2.597   0.630   3.644
 1835SOL    HW2 5522   2.638   0.485   3.579
 1836SOL     OW 5523   3.312   1.220   3.495
 1836SOL    HW1 5524   3.303   1.210   3.594
 1836SOL    HW2 5525   3.408   1.213   3.469
 1837SOL     OW 5526   2.252   1.741   3.422
 1837SOL    HW1 5527   2.161   1.782   3.420
 1837SOL    HW2 5528   2.245   1.647   3.454
 1838SOL     OW 5529   3.536   0.883   3.116
 1838SOL    HW1 5530   3.509   0.794   3.079
 1838SOL    HW2 5531   3.537   0.951   3.043
 1839SOL     OW 5532   3.087   0.325   2.311
 1839SOL    HW1 5533   3.152   0.251   2.300
 1839SOL    HW2 5534   3.107   0.375   2.395
 1840SOL     OW 5535   2.456   0.745   2.514
 1840SOL    HW1 5536   2.506   0.830   2.495
 1840SOL    HW2 5537   2.368   0.747   2.466
 1841SOL     OW 5538   3.639   0.342   3.504
 1841SOL    HW1 5539   3.622   0.373   3.410
 1841SOL    HW2 5540   3.555   0.305   3.542
 1842SOL     OW 5541   3.592   0.934   3.379
 1842SOL    HW1 5542   3.630   1.025   3.394
 1842SOL    HW2 5543   3.584   0.917   3.280
 1843SOL     OW 5544   2.721   1.374   1.878
 1843SOL    HW1 5545   2.675   1.389   1.966
 1843SOL    HW2 5546   2.765   1.459   1.848
 1844SOL     OW 5547   2.523   1.790   2.815
 1844SOL    HW1 5548   2.477   1.878   2.802
 1844SOL    HW2 5549   2.622   1.802   2.808
 1845SOL     OW 5550   2.721   0.956   2.723
 1845SOL    HW1 5551   2.775   0.887   2.771
 1845SOL    HW2 5552   2.689   1.025   2.789
 1846SOL     OW 5553   2.945   0.984   1.949
 1846SOL    HW1 5554   2.922   1.037   1.867
 1846SOL    HW2 5555   3.026   0.928   1.930
 1847SOL     OW 5556   3.723   1.569   2.713
 1847SOL    HW1 5557   3.652   1.557   2.643
 1847SOL    HW2 5558   3.724   1.490   2.773
 1848SOL     OW 5559   2.083   1.314   3.706
 1848SOL    HW1 5560   2.018   1.241   3.685
 1848SOL    HW2 5561   2.087   1.328   3.804
 1849SOL     OW 5562   1.941   1.240   2.515
 1849SOL    HW1 5563   1.940   1.193   2.603
 1849SOL    HW2 5564   2.023   1.212   2.464
 1850SOL     OW 5565   2.534   1.391   3.486
 1850SOL    HW1 5566   2.456   1.341   3.524
 1850SOL    HW2 5567   2.531   1.486   3.517
 1851SOL     OW 5568   3.686   0.192   3.089
 1851SOL    HW1 5569   3.682   0.102   3.133
 1851SOL    HW2 5570   3.689   0.181   2.990
 1852SOL     OW 5571   2.290   0.424   2.382
 1852SOL    HW1 5572   2.320   0.352   2.320
 1852SOL    HW2 5573   2.251   0.384   2.465
 1853SOL     OW 5574   3.567   1.487   2.966
 1853SOL    HW1 5575   3.474   1.462   2.939
 1853SOL    HW2 5576   3.593   1.437   3.048
 1854SOL     OW 5577   2.179   0.547   3.142
 1854SOL    HW1 5578   2.217   0.488   3.214
 1854SOL    HW2 5579   2.219   0.521   3.054
 1855SOL     OW 5580   2.674   1.586   2.549
 1855SOL    HW1 5581   2.706   1.596   2.455
 1855SOL    HW2 5582   2.595   1.524   2.551
 1856SOL     OW 5583   3.286   0.214   2.974
 1856SOL    HW1 5584   3.338   0.149   3.029
 1856SOL    HW2 5585   3.237   0.277   3.035
 1857SOL     OW 5586   2.863   0.034   3.016
 1857SOL    HW1 5587   2.800  -0.038   2.985
 1857SOL    HW2 5588   2.956  -0.002   3.016
 1858SOL     OW 5589   2.632   1.330   2.163
 1858SOL    HW1 5590   2.586   1.243   2.180
 1858SOL    HW2 5591   2.723   1.327   2.204
 1859SOL     OW 5592   2.480   1.567   3.146
 1859SOL    HW1 5593   2.475   1.649   3.203
 1859SOL    HW2 5594   2.569   1.564   3.101
 1860SOL     OW 5595   3.214   0.052   2.030
 1860SOL    HW1 5596   3.249   0.011   1.946
 1860SOL    HW2 5597   3.124   0.014   2.050
 1861SOL     OW 5598   3.162   0.453   2.553
 1861SOL    HW1 5599   3.103   0.533   2.557
 1861SOL    HW2 5600   3.177   0.418   2.646
 1862SOL     OW 5601   3.455   0.221   2.744
 1862SOL    HW1 5602   3.371   0.220   2.798
 1862SOL    HW2 5603   3.457   0.304   2.688
 1863SOL     OW 5604   1.901   1.077   2.162
 1863SOL    HW1 5605   2.000   1.066   2.153
 1863SOL    HW2 5606   1.861   0.991   2.194
 1864SOL     OW 5607   2.737   1.646   2.199
 1864SOL    HW1 5608   2.660   1.611   2.145
 1864SOL    HW2 5609   2.705   1.717   2.261
 1865SOL     OW 5610   2.092   0.628   3.837
 1865SOL    HW1 5611   1.999   0.626   3.874
 1865SOL    HW2 5612   2.093   0.589   3.745
 1866SOL     OW 5613   2.087   0.275   4.720
 1866SOL    HW1 5614   2.122   0.258   4.812
 1866SOL    HW2 5615   1.999   0.230   4.708
 1867SOL     OW 5616   1.881   0.368   4.371
 1867SOL    HW1 5617   1.799   0.411   4.410
 1867SOL    HW2 5618   1.853   0.295   4.308
 1868SOL     OW 5619   3.417   1.511   4.427
 1868SOL    HW1 5620   3.360   1.495   4.508
 1868SOL    HW2 5621   3.358   1.521   4.347
 1869SOL     OW 5622   2.997   0.703   4.441
 1869SOL    HW1 5623   3.054   0.781   4.416
 1869SOL    HW2 5624   2.937   0.729   4.517
 1870SOL     OW 5625   3.617   0.607   3.955
 1870SOL    HW1 5626   3.605   0.594   3.856
 1870SOL    HW2 5627   3.587   0.526   4.004
 1871SOL     OW 5628   2.630   1.144   4.747
 1871SOL    HW1 5629   2.552   1.161   4.807
 1871SOL    HW2 5630   2.664   1.231   4.711
 1872SOL     OW 5631   2.547   1.012   4.389
 1872SOL    HW1 5632   2.616   0.996   4.459
 1872SOL    HW2 5633   2.474   1.069   4.427
 1873SOL     OW 5634   2.197   1.435   4.785
 1873SOL    HW1 5635   2.119   1.404   4.732
 1873SOL    HW2 5636   2.255   1.493   4.728
 1874SOL     OW 5637   3.465   0.447   4.461
 1874SOL    HW1 5638   3.391   0.493   4.411
 1874SOL    HW2 5639   3.516   0.515   4.514
 1875SOL     OW 5640   2.093   1.713   4.207
 1875SOL    HW1 5641   2.127   1.790   4.261
 1875SOL    HW2 5642   2.137   1.713   4.117
 1876SOL     OW 5643   2.092   1.434   4.262
 1876SOL    HW1 5644   2.066   1.530   4.262
 1876SOL    HW2 5645   2.021   1.380   4.307
 1877SOL     OW 5646   2.102   1.091   4.610
 1877SOL    HW1 5647   2.116   1.007   4.662
 1877SOL    HW2 5648   2.047   1.155   4.665
 1878SOL     OW 5649   2.468   0.964   3.847
 1878SOL    HW1 5650   2.475   1.048   3.793
 1878SOL    HW2 5651   2.514   0.977   3.935
 1879SOL     OW 5652   1.984   0.643   4.287
 1879SOL    HW1 5653   1.939   0.555   4.304
 1879SOL    HW2 5654   1.983   0.697   4.371
 1880SOL     OW 5655   3.704   1.767   4.083
 1880SOL    HW1 5656   3.758   1.738   4.163
 1880SOL    HW2 5657   3.734   1.857   4.054
 1881SOL     OW 5658   1.889   1.596   3.841
 1881SOL    HW1 5659   1.870   1.500   3.862
 1881SOL    HW2 5660   1.856   1.654   3.916
 1882SOL     OW 5661   3.551   0.922   4.336
 1882SOL    HW1 5662   3.646   0.893   4.344
 1882SOL    HW2 5663   3.543   0.987   4.261
 1883SOL     OW 5664   3.503   1.108   4.156
 1883SOL    HW1 5665   3.589   1.110   4.104
 1883SOL    HW2 5666   3.517   1.155   4.244
 1884SOL     OW 5667   2.475   1.365   4.450
 1884SOL    HW1 5668   2.426   1.278   4.459
 1884SOL    HW2 5669   2.452   1.408   4.363
 1885SOL     OW 5670   2.671   0.004   4.226
 1885SOL    HW1 5671   2.711   0.095   4.217
 1885SOL    HW2 5672   2.571   0.012   4.232
 1886SOL     OW 5673   3.387   0.999   3.914
 1886SOL    HW1 5674   3.324   0.923   3.927
 1886SOL    HW2 5675   3.435   1.017   4.000
 1887SOL     OW 5676   3.328   1.417   4.677
 1887SOL    HW1 5677   3.269   1.423   4.757
 1887SOL    HW2 5678   3.313   1.329   4.631
 1888SOL     OW 5679   3.529   1.714   4.296
 1888SOL    HW1 5680   3.488   1.691   4.208
 1888SOL    HW2 5681   3.511   1.640   4.361
 1889SOL     OW 5682   2.460   0.729   3.994
 1889SOL    HW1 5683   2.484   0.798   3.926
 1889SOL    HW2 5684   2.382   0.762   4.048
 1890SOL     OW 5685   3.143   0.345   4.668
 1890SOL    HW1 5686   3.057   0.295   4.655
 1890SOL    HW2 5687   3.205   0.291   4.724
 1891SOL     OW 5688   3.438   1.662   4.031
 1891SOL    HW1 5689   3.527   1.708   4.034
 1891SOL    HW2 5690   3.417   1.638   3.936
 1892SOL     OW 5691   2.903   0.701   4.153
 1892SOL    HW1 5692   2.929   0.697   4.249
 1892SOL    HW2 5693   2.818   0.650   4.139
 1893SOL     OW 5694   1.938   0.811   4.513
 1893SOL    HW1 5695   2.037   0.799   4.522
 1893SOL    HW2 5696   1.914   0.906   4.534
 1894SOL     OW 5697   2.727   0.348   3.919
 1894SOL    HW1 5698   2.786   0.411   3.870
 1894SOL    HW2 5699   2.746   0.254   3.890
 1895SOL     OW 5700   3.224   1.144   4.269
 1895SOL    HW1 5701   3.307   1.115   4.221
 1895SOL    HW2 5702   3.175   1.211   4.213
 1896SOL     OW 5703   2.412   0.196   4.609
 1896SOL    HW1 5704   2.407   0.191   4.709
 1896SOL    HW2 5705   2.414   0.292   4.580
 1897SOL     OW 5706   2.870   1.456   4.201
 1897SOL    HW1 5707   2.824   1.528   4.149
 1897SOL    HW2 5708   2.866   1.476   4.299
 1898SOL     OW 5709   2.213   1.801   4.577
 1898SOL    HW1 5710   2.263   1.715   4.583
 1898SOL    HW2 5711   2.278   1.878   4.574
 1899SOL     OW 5712   3.657   1.066   4.597
 1899SOL    HW1 5713   3.595   1.051   4.521
 1899SOL    HW2 5714   3.605   1.077   4.682
 1900SOL     OW 5715   2.183   0.943   3.966
 1900SOL    HW1 5716   2.265   0.982   3.924
 1900SOL    HW2 5717   2.156   0.861   3.917
 1901SOL     OW 5718   3.320   0.735   4.452
 1901SOL    HW1 5719   3.315   0.670   4.527
 1901SOL    HW2 5720   3.400   0.794   4.465
 1902SOL     OW 5721   2.973   1.776   3.961
 1902SOL    HW1 5722   2.913   1.714   4.011
 1902SOL    HW2 5723   3.004   1.732   3.876
 1903SOL     OW 5724   3.494   1.377   3.805
 1903SOL    HW1 5725   3.462   1.471   3.795
 1903SOL    HW2 5726   3.418   1.314   3.793
 1904SOL     OW 5727   2.326   1.743   4.047
 1904SOL    HW1 5728   2.359   1.782   4.133
 1904SOL    HW2 5729   2.402   1.736   3.982
 1905SOL     OW 5730   3.262   0.107   4.150
 1905SOL    HW1 5731   3.238   0.070   4.060
 1905SOL    HW2 5732   3.361   0.123   4.154
 1906SOL     OW 5733   2.111   1.785   4.965
 1906SOL    HW1 5734   2.168   1.720   5.015
 1906SOL    HW2 5735   2.095   1.752   4.872
 1907SOL     OW 5736   2.802   1.698   4.628
 1907SOL    HW1 5737   2.882   1.641   4.649
 1907SOL    HW2 5738   2.753   1.658   4.551
 1908SOL     OW 5739   2.244   0.700   4.204
 1908SOL    HW1 5740   2.289   0.610   4.201
 1908SOL    HW2 5741   2.150   0.689   4.237
 1909SOL     OW 5742   2.476   0.122   3.841
 1909SOL    HW1 5743   2.574   0.100   3.848
 1909SOL    HW2 5744   2.445   0.105   3.748
 1910SOL     OW 5745   2.665   1.402   4.648
 1910SOL    HW1 5746   2.755   1.416   4.606
 1910SOL    HW2 5747   2.594   1.404   4.577
 1911SOL     OW 5748   2.784   0.503   4.623
 1911SOL    HW1 5749   2.759   0.494   4.527
 1911SOL    HW2 5750   2.832   0.421   4.654
 1912SOL     OW 5751   2.401   0.064   4.236
 1912SOL    HW1 5752   2.320   0.065   4.294
 1912SOL    HW2 5753   2.404   0.147   4.181
 1913SOL     OW 5754   3.296   1.188   3.765
 1913SOL    HW1 5755   3.328   1.112   3.822
 1913SOL    HW2 5756   3.204   1.215   3.795
 1914SOL     OW 5757   2.159   0.035   3.895
 1914SOL    HW1 5758   2.208   0.119   3.874
 1914SOL    HW2 5759   2.221  -0.030   3.940
 1915SOL     OW 5760   2.797   0.236   4.204
 1915SOL    HW1 5761   2.749   0.277   4.126
 1915SOL    HW2 5762   2.896   0.234   4.185
 1916SOL     OW 5763   3.089   1.570   4.517
 1916SOL    HW1 5764   3.110   1.644   4.452
 1916SOL    HW2 5765   3.157   1.570   4.590
 1917SOL     OW 5766   2.321   1.152   4.465
 1917SOL    HW1 5767   2.250   1.125   4.530
 1917SOL    HW2 5768   2.295   1.124   4.372
 1918SOL     OW 5769   3.133   1.797   4.315
 1918SOL    HW1 5770   3.177   1.861   4.251
 1918SOL    HW2 5771   3.083   1.849   4.385
 1919SOL     OW 5772   2.894   0.549   3.740
 1919SOL    HW1 5773   2.853   0.631   3.701
 1919SOL    HW2 5774   2.958   0.575   3.813
 1920SOL     OW 5775   2.728   0.454   4.366
 1920SOL    HW1 5776   2.696   0.526   4.304
 1920SOL    HW2 5777   2.752   0.373   4.313
 1921SOL     OW 5778   2.879   0.039   4.477
 1921SOL    HW1 5779   2.807   0.044   4.408
 1921SOL    HW2 5780   2.855  -0.030   4.546
 1922SOL     OW 5781   3.291   1.173   4.591
 1922SOL    HW1 5782   3.236   1.089   4.584
 1922SOL    HW2 5783   3.317   1.202   4.499
 1923SOL     OW 5784   3.328   0.590   4.716
 1923SOL    HW1 5785   3.298   0.495   4.723
 1923SOL    HW2 5786   3.401   0.606   4.782
 1924SOL     OW 5787   3.719   0.833   4.101
 1924SOL    HW1 5788   3.761   0.769   4.165
 1924SOL    HW2 5789   3.681   0.782   4.023
 1925SOL     OW 5790   2.350   1.385   3.898
 1925SOL    HW1 5791   2.263   1.370   3.945
 1925SOL    HW2 5792   2.333   1.411   3.803
 1926SOL     OW 5793   3.526   1.280   4.381
 1926SOL    HW1 5794   3.625   1.288   4.395
 1926SOL    HW2 5795   3.481   1.364   4.412
 1927SOL     OW 5796   3.252   0.575   3.802
 1927SOL    HW1 5797   3.198   0.554   3.883
 1927SOL    HW2 5798   3.343   0.534   3.811
 1928SOL     OW 5799   2.389   0.256   4.052
 1928SOL    HW1 5800   2.416   0.197   3.977
 1928SOL    HW2 5801   2.389   0.351   4.021
 1929SOL     OW 5802   3.500   1.099   4.803
 1929SOL    HW1 5803   3.505   1.180   4.862
 1929SOL    HW2 5804   3.414   1.101   4.752
 1930SOL     OW 5805   2.567   1.050   4.092
 1930SOL    HW1 5806   2.553   1.057   4.191
 1930SOL    HW2 5807   2.651   0.999   4.074
 1931SOL     OW 5808   2.229   1.100   4.225
 1931SOL    HW1 5809   2.222   1.183   4.169
 1931SOL    HW2 5810   2.233   1.020   4.165
 1932SOL     OW 5811   2.428   0.537   4.589
 1932SOL    HW1 5812   2.440   0.603   4.515
 1932SOL    HW2 5813   2.474   0.571   4.672
 1933SOL     OW 5814   3.114   1.348   4.112
 1933SOL    HW1 5815   3.164   1.425   4.152
 1933SOL    HW2 5816   3.019   1.350   4.144
 1934SOL     OW 5817   3.444   0.639   4.196
 1934SOL    HW1 5818   3.413   0.700   4.269
 1934SOL    HW2 5819   3.494   0.691   4.127
 1935SOL     OW 5820   2.435   0.870   4.753
 1935SOL    HW1 5821   2.479   0.959   4.744
 1935SOL    HW2 5822   2.372   0.870   4.830
 1936SOL     OW 5823   3.071   0.525   3.999
 1936SOL    HW1 5824   3.084   0.441   4.053
 1936SOL    HW2 5825   3.042   0.599   4.059
 1937SOL     OW 5826   2.594   0.634   4.788
 1937SOL    HW1 5827   2.653   0.608   4.712
 1937SOL    HW2 5828   2.566   0.730   4.777
 1938SOL     OW 5829   2.169   0.063   4.342
 1938SOL    HW1 5830   2.158   0.157   4.375
 1938SOL    HW2 5831   2.164   0.000   4.419
 1939SOL     OW 5832   3.484   0.367   4.098
 1939SOL    HW1 5833   3.486   0.291   4.162
 1939SOL    HW2 5834   3.436   0.444   4.138
 1940SOL     OW 5835   2.885   0.766   4.690
 1940SOL    HW1 5836   2.900   0.787   4.786
 1940SOL    HW2 5837   2.855   0.671   4.681
 1941SOL     OW 5838   3.402   0.274   3.849
 1941SOL    HW1 5839   3.341   0.199   3.872
 1941SOL    HW2 5840   3.424   0.326   3.932
 1942SOL     OW 5841   3.165   0.838   3.766
 1942SOL    HW1 5842   3.199   0.745   3.781
 1942SOL    HW2 5843   3.183   0.865   3.671
 1943SOL     OW 5844   2.930   1.333   4.573
 1943SOL    HW1 5845   2.937   1.249   4.518
 1943SOL    HW2 5846   2.992   1.402   4.537
 1944SOL     OW 5847   2.181   0.810   4.673
 1944SOL    HW1 5848   2.274   0.846   4.678
 1944SOL    HW2 5849   2.175   0.725   4.725
 1945SOL     OW 5850   2.201   0.509   4.730
 1945SOL    HW1 5851   2.149   0.426   4.713
 1945SOL    HW2 5852   2.278   0.514   4.666
 1946SOL     OW 5853   1.870   1.326   3.924
 1946SOL    HW1 5854   1.777   1.347   3.893
 1946SOL    HW2 5855   1.880   1.227   3.937
 1947SOL     OW 5856   1.950   1.801   4.651
 1947SOL    HW1 5857   1.908   1.715   4.624
 1947SOL    HW2 5858   2.044   1.804   4.617
 1948SOL     OW 5859   2.366   1.568   4.634
 1948SOL    HW1 5860   2.432   1.642   4.643
 1948SOL    HW2 5861   2.410   1.489   4.592
 1949SOL     OW 5862   2.864   0.796   4.962
 1949SOL    HW1 5863   2.905   0.764   5.048
 1949SOL    HW2 5864   2.768   0.769   4.959
 1950SOL     OW 5865   2.677   0.572   4.049
 1950SOL    HW1 5866   2.684   0.483   4.003
 1950SOL    HW2 5867   2.583   0.606   4.041
 1951SOL     OW 5868   2.533   0.464   4.993
 1951SOL    HW1 5869   2.499   0.375   4.963
 1951SOL    HW2 5870   2.559   0.518   4.913
 1952SOL     OW 5871   2.335   0.500   3.915
 1952SOL    HW1 5872   2.396   0.580   3.919
 1952SOL    HW2 5873   2.240   0.531   3.922
 1953SOL     OW 5874   3.164   0.855   4.033
 1953SOL    HW1 5875   3.078   0.824   4.075
 1953SOL    HW2 5876   3.160   0.841   3.934
 1954SOL     OW 5877   3.621   1.747   4.878
 1954SOL    HW1 5878   3.682   1.777   4.805
 1954SOL    HW2 5879   3.583   1.658   4.856
 1955SOL     OW 5880   1.945   1.258   4.746
 1955SOL    HW1 5881   1.940   1.257   4.846
 1955SOL    HW2 5882   1.862   1.217   4.708
 1956SOL     OW 5883   3.588   0.135   4.247
 1956SOL    HW1 5884   3.661   0.118   4.180
 1956SOL    HW2 5885   3.557   0.048   4.285
 1957SOL     OW 5886   3.250   1.573   4.201
 1957SOL    HW1 5887   3.317   1.585   4.127
 1957SOL    HW2 5888   3.210   1.662   4.224
 1958SOL     OW 5889   3.142   0.927   4.396
 1958SOL    HW1 5890   3.202   0.846   4.398
 1958SOL    HW2 5891   3.182   0.996   4.336
 1959SOL     OW 5892   2.534   1.616   3.878
 1959SOL    HW1 5893   2.543   1.626   3.779
 1959SOL    HW2 5894   2.494   1.527   3.899
 1960SOL     OW 5895   3.703   0.175   4.687
 1960SOL    HW1 5896   3.742   0.090   4.651
 1960SOL    HW2 5897   3.605   0.177   4.668
 1961SOL     OW 5898   2.125   0.326   4.444
 1961SOL    HW1 5899   2.046   0.377   4.410
 1961SOL    HW2 5900   2.116   0.311   4.542
 1962SOL     OW 5901   3.056   1.612   3.755
 1962SOL    HW1 5902   3.062   1.519   3.792
 1962SOL    HW2 5903   2.997   1.612   3.675
 1963SOL     OW 5904   2.778   0.910   4.015
 1963SOL    HW1 5905   2.841   0.948   3.947
 1963SOL    HW2 5906   2.818   0.827   4.054
 1964SOL     OW 5907   3.366   1.607   3.768
 1964SOL    HW1 5908   3.274   1.644   3.775
 1964SOL    HW2 5909   3.404   1.627   3.678
 1965SOL     OW 5910   2.901   1.098   4.420
 1965SOL    HW1 5911   2.831   1.051   4.474
 1965SOL    HW2 5912   2.960   1.030   4.377
 1966SOL     OW 5913   2.876   0.236   4.695
 1966SOL    HW1 5914   2.868   0.200   4.602
 1966SOL    HW2 5915   2.874   0.160   4.760
 1967SOL     OW 5916   2.452   1.487   4.215
 1967SOL    HW1 5917   2.494   1.429   4.145
 1967SOL    HW2 5918   2.408   1.566   4.171
 1968SOL     OW 5919   2.117   1.348   4.014
 1968SOL    HW1 5920   2.021   1.349   3.987
 1968SOL    HW2 5921   2.129   1.401   4.098
 1969SOL     OW 5922   1.937   0.345   3.757
 1969SOL    HW1 5923   1.845   0.317   3.728
 1969SOL    HW2 5924   1.968   0.422   3.701
 1970SOL     OW 5925   1.934   0.166   4.042
 1970SOL    HW1 5926   1.917   0.249   3.988
 1970SOL    HW2 5927   2.024   0.129   4.020
 1971SOL     OW 5928   3.045   1.335   3.843
 1971SOL    HW1 5929   2.946   1.324   3.845
 1971SOL    HW2 5930   3.079   1.350   3.936
 1972SOL     OW 5931   3.355   1.767   4.683
 1972SOL    HW1 5932   3.388   1.831   4.614
 1972SOL    HW2 5933   3.421   1.761   4.758
 1973SOL     OW 5934   3.536   0.883   4.978
 1973SOL    HW1 5935   3.509   0.794   4.941
 1973SOL    HW2 5936   3.537   0.951   4.905
 1974SOL     OW 5937   3.087   0.325   4.173
 1974SOL    HW1 5938   3.152   0.251   4.162
 1974SOL    HW2 5939   3.107   0.375   4.257
 1975SOL     OW 5940   2.456   0.745   4.376
 1975SOL    HW1 5941   2.506   0.830   4.357
 1975SOL    HW2 5942   2.368   0.747   4.328
 1976SOL     OW 5943   2.721   1.374   3.740
 1976SOL    HW1 5944   2.675   1.389   3.828
 1976SOL    HW2 5945   2.765   1.459   3.710
 1977SOL     OW 5946   2.523   1.790   4.677
 1977SOL    HW1 5947   2.477   1.878   4.664
 1977SOL    HW2 5948   2.622   1.802   4.670
 1978SOL     OW 5949   2.721   0.956   4.585
 1978SOL    HW1 5950   2.775   0.887   4.633
 1978SOL    HW2 5951   2.689   1.025   4.651
 1979SOL     OW 5952   2.945   0.984   3.811
 1979SOL    HW1 5953   2.922   1.037   3.729
 1979SOL    HW2 5954   3.026   0.928   3.792
 1980SOL     OW 5955   3.723   1.569   4.575
 1980SOL    HW1 5956   3.652   1.557   4.505
 1980SOL    HW2 5957   3.724   1.490   4.635
 1981SOL     OW 5958   1.941   1.240   4.377
 1981SOL    HW1 5959   1.940   1.193   4.465
 1981SOL    HW2 5960   2.023   1.212   4.326
 1982SOL     OW 5961   3.686   0.192   4.951
 1982SOL    HW1 5962   3.682   0.102   4.995
 1982SOL    HW2 5963   3.689   0.181   4.852
 1983SOL     OW 5964   2.290   0.424   4.244
 1983SOL    HW1 5965   2.320   0.352   4.182
 1983SOL    HW2 5966   2.251   0.384   4.327
 1984SOL     OW 5967   2.674   1.586   4.411
 1984SOL    HW1 5968   2.706   1.596   4.317
 1984SOL    HW2 5969   2.595   1.524   4.413
 1985SOL     OW 5970   2.632   1.330   4.025
 1985SOL    HW1 5971   2.586   1.243   4.042
 1985SOL    HW2 5972   2.723   1.327   4.066
 1986SOL     OW 5973   3.214   0.052   3.892
 1986SOL    HW1 5974   3.249   0.011   3.808
 1986SOL    HW2 5975   3.124   0.014   3.912
 1987SOL     OW 5976   3.162   0.453   4.415
 1987SOL    HW1 5977   3.103   0.533   4.419
 1987SOL    HW2 5978   3.177   0.418   4.508
 1988SOL     OW 5979   3.455   0.221   4.606
 1988SOL    HW1 5980   3.371   0.220   4.660
 1988SOL    HW2 5981   3.457   0.304   4.550
 1989SOL     OW 5982   1.901   1.077   4.024
 1989SOL    HW1 5983   2.000   1.066   4.015
 1989SOL    HW2 5984   1.861   0.991   4.056
 1990SOL     OW 5985   2.737   1.646   4.061
 1990SOL    HW1 5986   2.660   1.611   4.007
 1990SOL    HW2 5987   2.705   1.717   4.123
 1991SOL     OW 5988   2.092   2.490   0.113
 1991SOL    HW1 5989   1.999   2.488   0.150
 1991SOL    HW2 5990   2.093   2.451   0.021
 1992SOL     OW 5991   2.087   2.137   0.996
 1992SOL    HW1 5992   2.122   2.120   1.088
 1992SOL    HW2 5993   1.999   2.092   0.984
 1993SOL     OW 5994   1.881   2.230   0.647
 1993SOL    HW1 5995   1.799   2.273   0.686
 1993SOL    HW2 5996   1.853   2.157   0.584
 1994SOL     OW 5997   2.431   3.137   1.165
 1994SOL    HW1 5998   2.338   3.130   1.128
 1994SOL    HW2 5999   2.442   3.226   1.209
 1995SOL     OW 6000   3.417   3.373   0.703
 1995SOL    HW1 6001   3.360   3.357   0.784
 1995SOL    HW2 6002   3.358   3.383   0.623
 1996SOL     OW 6003   2.997   2.565   0.717
 1996SOL    HW1 6004   3.054   2.643   0.692
 1996SOL    HW2 6005   2.937   2.591   0.793
 1997SOL     OW 6006   3.617   2.469   0.231
 1997SOL    HW1 6007   3.605   2.456   0.132
 1997SOL    HW2 6008   3.587   2.388   0.280
 1998SOL     OW 6009   2.630   3.006   1.023
 1998SOL    HW1 6010   2.552   3.023   1.083
 1998SOL    HW2 6011   2.664   3.093   0.987
 1999SOL     OW 6012   2.712   2.660   1.823
 1999SOL    HW1 6013   2.708   2.736   1.888
 1999SOL    HW2 6014   2.734   2.696   1.732
 2000SOL     OW 6015   2.547   2.874   0.665
 2000SOL    HW1 6016   2.616   2.858   0.735
 2000SOL    HW2 6017   2.474   2.931   0.703
 2001SOL     OW 6018   2.548   3.023   1.803
 2001SOL    HW1 6019   2.608   3.102   1.817
 2001SOL    HW2 6020   2.462   3.054   1.762
 2002SOL     OW 6021   2.197   3.297   1.061
 2002SOL    HW1 6022   2.119   3.266   1.008
 2002SOL    HW2 6023   2.255   3.355   1.004
 2003SOL     OW 6024   3.322   3.367   1.339
 2003SOL    HW1 6025   3.346   3.461   1.365
 2003SOL    HW2 6026   3.306   3.313   1.421
 2004SOL     OW 6027   2.300   2.254   1.499
 2004SOL    HW1 6028   2.382   2.198   1.508
 2004SOL    HW2 6029   2.219   2.196   1.503
 2005SOL     OW 6030   3.465   2.309   0.737
 2005SOL    HW1 6031   3.391   2.355   0.687
 2005SOL    HW2 6032   3.516   2.377   0.790
 2006SOL     OW 6033   2.093   3.575   0.483
 2006SOL    HW1 6034   2.127   3.652   0.537
 2006SOL    HW2 6035   2.137   3.575   0.393
 2007SOL     OW 6036   2.989   3.203   1.690
 2007SOL    HW1 6037   3.036   3.203   1.778
 2007SOL    HW2 6038   2.941   3.116   1.679
 2008SOL     OW 6039   2.092   3.296   0.538
 2008SOL    HW1 6040   2.066   3.392   0.538
 2008SOL    HW2 6041   2.021   3.242   0.583
 2009SOL     OW 6042   2.102   2.953   0.886
 2009SOL    HW1 6043   2.116   2.869   0.938
 2009SOL    HW2 6044   2.047   3.017   0.941
 2010SOL     OW 6045   2.482   3.648   1.439
 2010SOL    HW1 6046   2.390   3.631   1.474
 2010SOL    HW2 6047   2.510   3.740   1.465
 2011SOL     OW 6048   2.468   2.826   0.123
 2011SOL    HW1 6049   2.475   2.910   0.069
 2011SOL    HW2 6050   2.514   2.839   0.211
 2012SOL     OW 6051   3.456   1.976   1.480
 2012SOL    HW1 6052   3.438   2.043   1.408
 2012SOL    HW2 6053   3.453   2.022   1.569
 2013SOL     OW 6054   1.984   2.505   0.563
 2013SOL    HW1 6055   1.939   2.417   0.580
 2013SOL    HW2 6056   1.983   2.559   0.647
 2014SOL     OW 6057   3.704   3.629   0.359
 2014SOL    HW1 6058   3.758   3.600   0.439
 2014SOL    HW2 6059   3.734   3.719   0.330
 2015SOL     OW 6060   1.889   3.458   0.117
 2015SOL    HW1 6061   1.870   3.362   0.138
 2015SOL    HW2 6062   1.856   3.516   0.192
 2016SOL     OW 6063   3.551   2.784   0.612
 2016SOL    HW1 6064   3.646   2.755   0.620
 2016SOL    HW2 6065   3.543   2.849   0.537
 2017SOL     OW 6066   3.503   2.970   0.432
 2017SOL    HW1 6067   3.589   2.972   0.380
 2017SOL    HW2 6068   3.517   3.017   0.520
 2018SOL     OW 6069   1.975   2.599   1.597
 2018SOL    HW1 6070   2.063   2.586   1.642
 2018SOL    HW2 6071   1.962   2.696   1.575
 2019SOL     OW 6072   2.475   3.227   0.726
 2019SOL    HW1 6073   2.426   3.140   0.735
 2019SOL    HW2 6074   2.452   3.270   0.639
 2020SOL     OW 6075   3.155   3.090   1.423
 2020SOL    HW1 6076   3.192   3.017   1.365
 2020SOL    HW2 6077   3.207   3.095   1.508
 2021SOL     OW 6078   2.671   1.866   0.502
 2021SOL    HW1 6079   2.711   1.957   0.493
 2021SOL    HW2 6080   2.571   1.874   0.508
 2022SOL     OW 6081   2.059   2.838   1.264
 2022SOL    HW1 6082   2.148   2.793   1.250
 2022SOL    HW2 6083   1.986   2.773   1.245
 2023SOL     OW 6084   3.387   2.861   0.190
 2023SOL    HW1 6085   3.324   2.785   0.203
 2023SOL    HW2 6086   3.435   2.879   0.276
 2024SOL     OW 6087   3.049   3.654   1.616
 2024SOL    HW1 6088   3.073   3.714   1.540
 2024SOL    HW2 6089   3.056   3.559   1.586
 2025SOL     OW 6090   2.179   2.113   1.801
 2025SOL    HW1 6091   2.250   2.184   1.807
 2025SOL    HW2 6092   2.091   2.152   1.829
 2026SOL     OW 6093   3.328   3.279   0.953
 2026SOL    HW1 6094   3.269   3.285   1.033
 2026SOL    HW2 6095   3.313   3.191   0.907
 2027SOL     OW 6096   3.529   3.576   0.572
 2027SOL    HW1 6097   3.488   3.553   0.484
 2027SOL    HW2 6098   3.511   3.502   0.637
 2028SOL     OW 6099   2.460   2.591   0.270
 2028SOL    HW1 6100   2.484   2.660   0.202
 2028SOL    HW2 6101   2.382   2.624   0.324
 2029SOL     OW 6102   3.143   2.207   0.944
 2029SOL    HW1 6103   3.057   2.157   0.931
 2029SOL    HW2 6104   3.205   2.153   1.000
 2030SOL     OW 6105   3.438   3.524   0.307
 2030SOL    HW1 6106   3.527   3.570   0.310
 2030SOL    HW2 6107   3.417   3.500   0.212
 2031SOL     OW 6108   2.669   2.467   1.465
 2031SOL    HW1 6109   2.622   2.464   1.554
 2031SOL    HW2 6110   2.618   2.412   1.399
 2032SOL     OW 6111   3.256   2.331   1.674
 2032SOL    HW1 6112   3.236   2.374   1.762
 2032SOL    HW2 6113   3.334   2.269   1.683
 2033SOL     OW 6114   2.835   2.752   1.572
 2033SOL    HW1 6115   2.881   2.668   1.543
 2033SOL    HW2 6116   2.779   2.786   1.497
 2034SOL     OW 6117   2.853   2.272   1.242
 2034SOL    HW1 6118   2.776   2.306   1.296
 2034SOL    HW2 6119   2.819   2.221   1.163
 2035SOL     OW 6120   2.903   2.563   0.429
 2035SOL    HW1 6121   2.929   2.559   0.525
 2035SOL    HW2 6122   2.818   2.512   0.415
 2036SOL     OW 6123   1.938   2.673   0.789
 2036SOL    HW1 6124   2.037   2.661   0.798
 2036SOL    HW2 6125   1.914   2.768   0.810
 2037SOL     OW 6126   1.992   3.683   1.571
 2037SOL    HW1 6127   1.982   3.668   1.670
 2037SOL    HW2 6128   1.906   3.719   1.535
 2038SOL     OW 6129   2.727   2.210   0.195
 2038SOL    HW1 6130   2.786   2.273   0.146
 2038SOL    HW2 6131   2.746   2.116   0.166
 2039SOL     OW 6132   3.581   2.447   1.831
 2039SOL    HW1 6133   3.555   2.536   1.795
 2039SOL    HW2 6134   3.579   2.379   1.758
 2040SOL     OW 6135   3.224   3.006   0.545
 2040SOL    HW1 6136   3.307   2.977   0.497
 2040SOL    HW2 6137   3.175   3.073   0.489
 2041SOL     OW 6138   2.412   2.058   0.885
 2041SOL    HW1 6139   2.407   2.053   0.985
 2041SOL    HW2 6140   2.414   2.154   0.856
 2042SOL     OW 6141   2.870   3.318   0.477
 2042SOL    HW1 6142   2.824   3.390   0.425
 2042SOL    HW2 6143   2.866   3.338   0.575
 2043SOL     OW 6144   2.213   3.663   0.853
 2043SOL    HW1 6145   2.263   3.577   0.859
 2043SOL    HW2 6146   2.278   3.740   0.850
 2044SOL     OW 6147   3.657   2.928   0.873
 2044SOL    HW1 6148   3.595   2.913   0.797
 2044SOL    HW2 6149   3.605   2.939   0.958
 2045SOL     OW 6150   3.089   3.412   1.506
 2045SOL    HW1 6151   3.095   3.335   1.570
 2045SOL    HW2 6152   3.037   3.386   1.426
 2046SOL     OW 6153   2.183   2.805   0.242
 2046SOL    HW1 6154   2.265   2.844   0.200
 2046SOL    HW2 6155   2.156   2.723   0.193
 2047SOL     OW 6156   3.320   2.597   0.728
 2047SOL    HW1 6157   3.315   2.532   0.803
 2047SOL    HW2 6158   3.400   2.656   0.741
 2048SOL     OW 6159   2.323   3.128   1.727
 2048SOL    HW1 6160   2.273   3.129   1.641
 2048SOL    HW2 6161   2.260   3.110   1.803
 2049SOL     OW 6162   2.973   3.638   0.237
 2049SOL    HW1 6163   2.913   3.576   0.287
 2049SOL    HW2 6164   3.004   3.594   0.152
 2050SOL     OW 6165   2.064   2.147   1.498
 2050SOL    HW1 6166   1.984   2.207   1.485
 2050SOL    HW2 6167   2.054   2.098   1.584
 2051SOL     OW 6168   3.494   3.239   0.081
 2051SOL    HW1 6169   3.462   3.333   0.071
 2051SOL    HW2 6170   3.418   3.176   0.069
 2052SOL     OW 6171   2.326   3.605   0.323
 2052SOL    HW1 6172   2.359   3.644   0.409
 2052SOL    HW2 6173   2.402   3.598   0.258
 2053SOL     OW 6174   3.262   1.969   0.426
 2053SOL    HW1 6175   3.238   1.932   0.336
 2053SOL    HW2 6176   3.361   1.985   0.430
 2054SOL     OW 6177   2.111   3.647   1.241
 2054SOL    HW1 6178   2.168   3.582   1.291
 2054SOL    HW2 6179   2.095   3.614   1.148
 2055SOL     OW 6180   2.802   3.560   0.904
 2055SOL    HW1 6181   2.882   3.503   0.925
 2055SOL    HW2 6182   2.753   3.520   0.827
 2056SOL     OW 6183   2.244   2.562   0.480
 2056SOL    HW1 6184   2.289   2.472   0.477
 2056SOL    HW2 6185   2.150   2.551   0.513
 2057SOL     OW 6186   3.409   2.084   1.729
 2057SOL    HW1 6187   3.404   2.121   1.821
 2057SOL    HW2 6188   3.337   2.015   1.717
 2058SOL     OW 6189   2.476   1.984   0.117
 2058SOL    HW1 6190   2.574   1.962   0.124
 2058SOL    HW2 6191   2.445   1.967   0.024
 2059SOL     OW 6192   2.643   2.126   1.749
 2059SOL    HW1 6193   2.710   2.065   1.792
 2059SOL    HW2 6194   2.570   2.145   1.814
 2060SOL     OW 6195   2.750   3.376   1.195
 2060SOL    HW1 6196   2.727   3.351   1.101
 2060SOL    HW2 6197   2.811   3.307   1.234
 2061SOL     OW 6198   3.213   2.452   1.433
 2061SOL    HW1 6199   3.241   2.409   1.518
 2061SOL    HW2 6200   3.238   2.548   1.434
 2062SOL     OW 6201   2.665   3.264   0.924
 2062SOL    HW1 6202   2.755   3.278   0.882
 2062SOL    HW2 6203   2.594   3.266   0.853
 2063SOL     OW 6204   2.784   2.365   0.899
 2063SOL    HW1 6205   2.759   2.356   0.803
 2063SOL    HW2 6206   2.832   2.283   0.930
 2064SOL     OW 6207   2.401   1.926   0.512
 2064SOL    HW1 6208   2.320   1.927   0.570
 2064SOL    HW2 6209   2.404   2.009   0.457
 2065SOL     OW 6210   3.296   3.050   0.041
 2065SOL    HW1 6211   3.328   2.974   0.098
 2065SOL    HW2 6212   3.204   3.077   0.071
 2066SOL     OW 6213   2.797   2.098   0.480
 2066SOL    HW1 6214   2.749   2.139   0.402
 2066SOL    HW2 6215   2.896   2.096   0.461
 2067SOL     OW 6216   2.938   2.545   1.464
 2067SOL    HW1 6217   2.858   2.484   1.467
 2067SOL    HW2 6218   3.019   2.492   1.440
 2068SOL     OW 6219   3.089   3.432   0.793
 2068SOL    HW1 6220   3.110   3.506   0.728
 2068SOL    HW2 6221   3.157   3.432   0.866
 2069SOL     OW 6222   2.321   3.014   0.741
 2069SOL    HW1 6223   2.250   2.987   0.806
 2069SOL    HW2 6224   2.295   2.986   0.648
 2070SOL     OW 6225   3.133   3.659   0.591
 2070SOL    HW1 6226   3.177   3.723   0.527
 2070SOL    HW2 6227   3.083   3.711   0.661
 2071SOL     OW 6228   2.894   2.411   0.016
 2071SOL    HW1 6229   2.853   2.493  -0.023
 2071SOL    HW2 6230   2.958   2.437   0.089
 2072SOL     OW 6231   1.940   2.418   1.386
 2072SOL    HW1 6232   2.032   2.417   1.345
 2072SOL    HW2 6233   1.934   2.492   1.453
 2073SOL     OW 6234   2.423   2.084   1.147
 2073SOL    HW1 6235   2.461   2.000   1.184
 2073SOL    HW2 6236   2.335   2.103   1.191
 2074SOL     OW 6237   2.728   2.316   0.642
 2074SOL    HW1 6238   2.696   2.388   0.580
 2074SOL    HW2 6239   2.752   2.235   0.589
 2075SOL     OW 6240   2.879   1.901   0.753
 2075SOL    HW1 6241   2.807   1.906   0.684
 2075SOL    HW2 6242   2.855   1.832   0.822
 2076SOL     OW 6243   3.291   3.035   0.867
 2076SOL    HW1 6244   3.236   2.951   0.860
 2076SOL    HW2 6245   3.317   3.064   0.775
 2077SOL     OW 6246   3.328   2.452   0.992
 2077SOL    HW1 6247   3.298   2.357   0.999
 2077SOL    HW2 6248   3.401   2.468   1.058
 2078SOL     OW 6249   3.719   2.695   0.377
 2078SOL    HW1 6250   3.761   2.631   0.441
 2078SOL    HW2 6251   3.681   2.644   0.299
 2079SOL     OW 6252   2.350   3.247   0.174
 2079SOL    HW1 6253   2.263   3.232   0.221
 2079SOL    HW2 6254   2.333   3.273   0.079
 2080SOL     OW 6255   3.526   3.142   0.657
 2080SOL    HW1 6256   3.625   3.150   0.671
 2080SOL    HW2 6257   3.481   3.226   0.688
 2081SOL     OW 6258   3.252   2.437   0.078
 2081SOL    HW1 6259   3.198   2.416   0.159
 2081SOL    HW2 6260   3.343   2.396   0.087
 2082SOL     OW 6261   2.389   2.118   0.328
 2082SOL    HW1 6262   2.416   2.059   0.253
 2082SOL    HW2 6263   2.389   2.213   0.297
 2083SOL     OW 6264   3.616   3.085   1.588
 2083SOL    HW1 6265   3.707   3.046   1.575
 2083SOL    HW2 6266   3.624   3.181   1.612
 2084SOL     OW 6267   2.926   3.209   1.340
 2084SOL    HW1 6268   2.846   3.186   1.395
 2084SOL    HW2 6269   3.009   3.183   1.389
 2085SOL     OW 6270   3.454   3.491   1.625
 2085SOL    HW1 6271   3.481   3.525   1.535
 2085SOL    HW2 6272   3.533   3.453   1.671
 2086SOL     OW 6273   2.973   3.057   1.100
 2086SOL    HW1 6274   2.933   3.101   1.181
 2086SOL    HW2 6275   2.932   3.094   1.017
 2087SOL     OW 6276   3.500   2.961   1.079
 2087SOL    HW1 6277   3.505   3.042   1.138
 2087SOL    HW2 6278   3.414   2.963   1.028
 2088SOL     OW 6279   2.777   1.951   1.402
 2088SOL    HW1 6280   2.802   1.931   1.307
 2088SOL    HW2 6281   2.849   2.007   1.444
 2089SOL     OW 6282   2.842   2.978   1.719
 2089SOL    HW1 6283   2.743   2.984   1.729
 2089SOL    HW2 6284   2.865   2.898   1.663
 2090SOL     OW 6285   2.567   2.912   0.368
 2090SOL    HW1 6286   2.553   2.919   0.467
 2090SOL    HW2 6287   2.651   2.861   0.350
 2091SOL     OW 6288   2.272   2.675   1.251
 2091SOL    HW1 6289   2.358   2.687   1.301
 2091SOL    HW2 6290   2.230   2.588   1.278
 2092SOL     OW 6291   3.136   2.248   1.262
 2092SOL    HW1 6292   3.157   2.322   1.326
 2092SOL    HW2 6293   3.047   2.265   1.219
 2093SOL     OW 6294   1.926   3.426   1.331
 2093SOL    HW1 6295   1.880   3.508   1.297
 2093SOL    HW2 6296   2.024   3.445   1.340
 2094SOL     OW 6297   2.229   2.962   0.501
 2094SOL    HW1 6298   2.222   3.045   0.445
 2094SOL    HW2 6299   2.233   2.882   0.441
 2095SOL     OW 6300   2.428   2.399   0.865
 2095SOL    HW1 6301   2.440   2.465   0.791
 2095SOL    HW2 6302   2.474   2.433   0.948
 2096SOL     OW 6303   3.114   3.210   0.388
 2096SOL    HW1 6304   3.164   3.287   0.428
 2096SOL    HW2 6305   3.019   3.212   0.420
 2097SOL     OW 6306   3.134   3.307   1.142
 2097SOL    HW1 6307   3.181   3.320   1.229
 2097SOL    HW2 6308   3.068   3.233   1.151
 2098SOL     OW 6309   3.444   2.501   0.472
 2098SOL    HW1 6310   3.413   2.562   0.545
 2098SOL    HW2 6311   3.494   2.553   0.403
 2099SOL     OW 6312   2.216   3.372   1.329
 2099SOL    HW1 6313   2.195   3.328   1.242
 2099SOL    HW2 6314   2.313   3.398   1.332
 2100SOL     OW 6315   2.264   2.613   1.598
 2100SOL    HW1 6316   2.332   2.668   1.551
 2100SOL    HW2 6317   2.304   2.525   1.625
 2101SOL     OW 6318   3.449   2.641   1.670
 2101SOL    HW1 6319   3.357   2.679   1.665
 2101SOL    HW2 6320   3.509   2.688   1.605
 2102SOL     OW 6321   2.875   1.967   1.770
 2102SOL    HW1 6322   2.881   2.052   1.718
 2102SOL    HW2 6323   2.907   1.891   1.713
 2103SOL     OW 6324   2.366   1.912   1.740
 2103SOL    HW1 6325   2.324   1.855   1.670
 2103SOL    HW2 6326   2.300   1.981   1.772
 2104SOL     OW 6327   2.435   2.732   1.029
 2104SOL    HW1 6328   2.479   2.821   1.020
 2104SOL    HW2 6329   2.372   2.732   1.106
 2105SOL     OW 6330   3.222   2.724   1.045
 2105SOL    HW1 6331   3.147   2.724   0.979
 2105SOL    HW2 6332   3.259   2.632   1.054
 2106SOL     OW 6333   3.071   2.387   0.275
 2106SOL    HW1 6334   3.084   2.303   0.329
 2106SOL    HW2 6335   3.042   2.461   0.335
 2107SOL     OW 6336   2.169   2.075   1.231
 2107SOL    HW1 6337   2.146   2.112   1.321
 2107SOL    HW2 6338   2.139   1.980   1.225
 2108SOL     OW 6339   1.899   3.172   1.282
 2108SOL    HW1 6340   1.952   3.123   1.350
 2108SOL    HW2 6341   1.921   3.270   1.287
 2109SOL     OW 6342   2.594   2.496   1.064
 2109SOL    HW1 6343   2.653   2.470   0.988
 2109SOL    HW2 6344   2.566   2.592   1.053
 2110SOL     OW 6345   3.590   2.797   1.854
 2110SOL    HW1 6346   3.544   2.790   1.765
 2110SOL    HW2 6347   3.528   2.841   1.920
 2111SOL     OW 6348   2.169   1.925   0.618
 2111SOL    HW1 6349   2.158   2.019   0.651
 2111SOL    HW2 6350   2.164   1.862   0.695
 2112SOL     OW 6351   3.484   2.229   0.374
 2112SOL    HW1 6352   3.486   2.153   0.438
 2112SOL    HW2 6353   3.436   2.306   0.414
 2113SOL     OW 6354   2.885   2.628   0.966
 2113SOL    HW1 6355   2.900   2.649   1.062
 2113SOL    HW2 6356   2.855   2.533   0.957
 2114SOL     OW 6357   2.842   3.435   1.700
 2114SOL    HW1 6358   2.822   3.479   1.612
 2114SOL    HW2 6359   2.881   3.344   1.684
 2115SOL     OW 6360   3.721   3.380   1.605
 2115SOL    HW1 6361   3.735   3.407   1.510
 2115SOL    HW2 6362   3.804   3.402   1.658
 2116SOL     OW 6363   2.212   2.760   1.804
 2116SOL    HW1 6364   2.288   2.804   1.852
 2116SOL    HW2 6365   2.247   2.713   1.722
 2117SOL     OW 6366   3.402   2.136   0.125
 2117SOL    HW1 6367   3.341   2.061   0.148
 2117SOL    HW2 6368   3.424   2.188   0.208
 2118SOL     OW 6369   3.165   2.700   0.042
 2118SOL    HW1 6370   3.199   2.607   0.057
 2118SOL    HW2 6371   3.183   2.727  -0.053
 2119SOL     OW 6372   2.930   3.195   0.849
 2119SOL    HW1 6373   2.937   3.111   0.794
 2119SOL    HW2 6374   2.992   3.264   0.813
 2120SOL     OW 6375   2.181   2.672   0.949
 2120SOL    HW1 6376   2.274   2.708   0.954
 2120SOL    HW2 6377   2.175   2.587   1.001
 2121SOL     OW 6378   2.201   2.371   1.006
 2121SOL    HW1 6379   2.149   2.288   0.989
 2121SOL    HW2 6380   2.278   2.376   0.942
 2122SOL     OW 6381   3.000   2.242   1.678
 2122SOL    HW1 6382   2.955   2.305   1.742
 2122SOL    HW2 6383   3.093   2.273   1.661
 2123SOL     OW 6384   3.022   2.069   1.477
 2123SOL    HW1 6385   3.022   2.133   1.554
 2123SOL    HW2 6386   3.050   2.117   1.394
 2124SOL     OW 6387   1.870   3.188   0.200
 2124SOL    HW1 6388   1.777   3.209   0.169
 2124SOL    HW2 6389   1.880   3.089   0.213
 2125SOL     OW 6390   1.950   3.663   0.927
 2125SOL    HW1 6391   1.908   3.577   0.900
 2125SOL    HW2 6392   2.044   3.666   0.893
 2126SOL     OW 6393   2.366   3.430   0.910
 2126SOL    HW1 6394   2.432   3.504   0.919
 2126SOL    HW2 6395   2.410   3.351   0.868
 2127SOL     OW 6396   2.864   2.658   1.238
 2127SOL    HW1 6397   2.905   2.626   1.324
 2127SOL    HW2 6398   2.768   2.631   1.235
 2128SOL     OW 6399   1.902   2.406   1.114
 2128SOL    HW1 6400   1.987   2.373   1.073
 2128SOL    HW2 6401   1.915   2.421   1.212
 2129SOL     OW 6402   2.051   2.382   1.722
 2129SOL    HW1 6403   2.110   2.342   1.652
 2129SOL    HW2 6404   1.993   2.453   1.681
 2130SOL     OW 6405   3.231   2.812   1.660
 2130SOL    HW1 6406   3.270   2.901   1.680
 2130SOL    HW2 6407   3.241   2.792   1.563
 2131SOL     OW 6408   2.677   2.434   0.325
 2131SOL    HW1 6409   2.684   2.345   0.279
 2131SOL    HW2 6410   2.583   2.468   0.317
 2132SOL     OW 6411   3.519   2.466   1.206
 2132SOL    HW1 6412   3.481   2.397   1.268
 2132SOL    HW2 6413   3.601   2.430   1.162
 2133SOL     OW 6414   2.114   3.426   1.744
 2133SOL    HW1 6415   2.084   3.483   1.820
 2133SOL    HW2 6416   2.107   3.329   1.770
 2134SOL     OW 6417   2.533   2.326   1.269
 2134SOL    HW1 6418   2.499   2.237   1.239
 2134SOL    HW2 6419   2.559   2.380   1.189
 2135SOL     OW 6420   2.792   3.540   1.465
 2135SOL    HW1 6421   2.768   3.522   1.370
 2135SOL    HW2 6422   2.822   3.634   1.475
 2136SOL     OW 6423   2.335   2.362   0.191
 2136SOL    HW1 6424   2.396   2.442   0.195
 2136SOL    HW2 6425   2.240   2.393   0.198
 2137SOL     OW 6426   2.021   2.999   1.466
 2137SOL    HW1 6427   2.043   2.938   1.542
 2137SOL    HW2 6428   2.031   2.950   1.380
 2138SOL     OW 6429   3.209   2.921   1.234
 2138SOL    HW1 6430   3.233   2.858   1.160
 2138SOL    HW2 6431   3.119   2.961   1.216
 2139SOL     OW 6432   3.164   2.717   0.309
 2139SOL    HW1 6433   3.078   2.686   0.351
 2139SOL    HW2 6434   3.160   2.703   0.210
 2140SOL     OW 6435   3.621   3.609   1.154
 2140SOL    HW1 6436   3.682   3.639   1.081
 2140SOL    HW2 6437   3.583   3.520   1.132
 2141SOL     OW 6438   3.114   3.593   1.128
 2141SOL    HW1 6439   3.198   3.598   1.074
 2141SOL    HW2 6440   3.091   3.497   1.146
 2142SOL     OW 6441   1.945   3.120   1.022
 2142SOL    HW1 6442   1.940   3.119   1.122
 2142SOL    HW2 6443   1.862   3.079   0.984
 2143SOL     OW 6444   2.550   3.524   1.716
 2143SOL    HW1 6445   2.494   3.605   1.725
 2143SOL    HW2 6446   2.602   3.528   1.630
 2144SOL     OW 6447   2.765   1.948   0.133
 2144SOL    HW1 6448   2.816   1.949   0.047
 2144SOL    HW2 6449   2.821   1.906   0.204
 2145SOL     OW 6450   3.588   1.997   0.523
 2145SOL    HW1 6451   3.661   1.980   0.456
 2145SOL    HW2 6452   3.557   1.910   0.561
 2146SOL     OW 6453   3.250   3.435   0.477
 2146SOL    HW1 6454   3.317   3.447   0.403
 2146SOL    HW2 6455   3.210   3.524   0.500
 2147SOL     OW 6456   1.992   3.656   1.851
 2147SOL    HW1 6457   1.951   3.582   1.904
 2147SOL    HW2 6458   2.056   3.707   1.909
 2148SOL     OW 6459   3.142   2.789   0.672
 2148SOL    HW1 6460   3.202   2.708   0.674
 2148SOL    HW2 6461   3.182   2.858   0.612
 2149SOL     OW 6462   2.692   3.135   1.422
 2149SOL    HW1 6463   2.687   3.168   1.517
 2149SOL    HW2 6464   2.606   3.154   1.376
 2150SOL     OW 6465   2.534   3.478   0.154
 2150SOL    HW1 6466   2.543   3.488   0.055
 2150SOL    HW2 6467   2.494   3.389   0.175
 2151SOL     OW 6468   3.512   3.582   1.394
 2151SOL    HW1 6469   3.565   3.592   1.310
 2151SOL    HW2 6470   3.485   3.672   1.428
 2152SOL     OW 6471   3.703   2.037   0.963
 2152SOL    HW1 6472   3.742   1.952   0.927
 2152SOL    HW2 6473   3.605   2.039   0.944
 2153SOL     OW 6474   2.125   2.188   0.720
 2153SOL    HW1 6475   2.046   2.239   0.686
 2153SOL    HW2 6476   2.116   2.173   0.818
 2154SOL     OW 6477   3.056   3.474   0.031
 2154SOL    HW1 6478   3.062   3.381   0.068
 2154SOL    HW2 6479   2.997   3.474  -0.049
 2155SOL     OW 6480   2.684   2.864   1.372
 2155SOL    HW1 6481   2.724   2.863   1.280
 2155SOL    HW2 6482   2.694   2.956   1.412
 2156SOL     OW 6483   2.778   2.772   0.291
 2156SOL    HW1 6484   2.841   2.810   0.223
 2156SOL    HW2 6485   2.818   2.689   0.330
 2157SOL     OW 6486   3.366   3.469   0.044
 2157SOL    HW1 6487   3.274   3.506   0.051
 2157SOL    HW2 6488   3.404   3.489  -0.046
 2158SOL     OW 6489   2.234   3.150   1.490
 2158SOL    HW1 6490   2.221   3.243   1.456
 2158SOL    HW2 6491   2.150   3.098   1.477
 2159SOL     OW 6492   3.476   3.154   1.289
 2159SOL    HW1 6493   3.536   3.157   1.369
 2159SOL    HW2 6494   3.401   3.218   1.302
 2160SOL     OW 6495   2.901   2.960   0.696
 2160SOL    HW1 6496   2.831   2.913   0.750
 2160SOL    HW2 6497   2.960   2.892   0.653
 2161SOL     OW 6498   2.876   2.098   0.971
 2161SOL    HW1 6499   2.868   2.062   0.878
 2161SOL    HW2 6500   2.874   2.022   1.036
 2162SOL     OW 6501   2.452   3.349   0.491
 2162SOL    HW1 6502   2.494   3.291   0.421
 2162SOL    HW2 6503   2.408   3.428   0.447
 2163SOL     OW 6504   3.571   2.247   1.381
 2163SOL    HW1 6505   3.644   2.316   1.385
 2163SOL    HW2 6506   3.599   2.172   1.322
 2164SOL     OW 6507   2.117   3.210   0.290
 2164SOL    HW1 6508   2.021   3.211   0.263
 2164SOL    HW2 6509   2.129   3.263   0.374
 2165SOL     OW 6510   1.967   2.875   1.726
 2165SOL    HW1 6511   1.890   2.842   1.780
 2165SOL    HW2 6512   2.052   2.845   1.768
 2166SOL     OW 6513   2.534   2.065   1.489
 2166SOL    HW1 6514   2.624   2.049   1.449
 2166SOL    HW2 6515   2.542   2.070   1.588
 2167SOL     OW 6516   3.302   2.718   1.398
 2167SOL    HW1 6517   3.245   2.770   1.335
 2167SOL    HW2 6518   3.398   2.730   1.374
 2168SOL     OW 6519   1.934   2.028   0.318
 2168SOL    HW1 6520   1.917   2.111   0.264
 2168SOL    HW2 6521   2.024   1.991   0.296
 2169SOL     OW 6522   3.045   3.197   0.119
 2169SOL    HW1 6523   2.946   3.186   0.121
 2169SOL    HW2 6524   3.079   3.212   0.212
 2170SOL     OW 6525   2.475   2.704   1.431
 2170SOL    HW1 6526   2.531   2.785   1.414
 2170SOL    HW2 6527   2.534   2.624   1.434
 2171SOL     OW 6528   3.355   3.629   0.959
 2171SOL    HW1 6529   3.388   3.693   0.890
 2171SOL    HW2 6530   3.421   3.623   1.034
 2172SOL     OW 6531   2.578   2.427   1.708
 2172SOL    HW1 6532   2.597   2.492   1.782
 2172SOL    HW2 6533   2.638   2.347   1.717
 2173SOL     OW 6534   3.312   3.082   1.633
 2173SOL    HW1 6535   3.303   3.072   1.732
 2173SOL    HW2 6536   3.408   3.075   1.607
 2174SOL     OW 6537   2.252   3.603   1.560
 2174SOL    HW1 6538   2.161   3.644   1.558
 2174SOL    HW2 6539   2.245   3.509   1.592
 2175SOL     OW 6540   3.536   2.745   1.254
 2175SOL    HW1 6541   3.509   2.656   1.217
 2175SOL    HW2 6542   3.537   2.813   1.181
 2176SOL     OW 6543   3.087   2.187   0.449
 2176SOL    HW1 6544   3.152   2.113   0.438
 2176SOL    HW2 6545   3.107   2.237   0.533
 2177SOL     OW 6546   2.456   2.607   0.652
 2177SOL    HW1 6547   2.506   2.692   0.633
 2177SOL    HW2 6548   2.368   2.609   0.604
 2178SOL     OW 6549   3.639   2.204   1.642
 2178SOL    HW1 6550   3.622   2.235   1.548
 2178SOL    HW2 6551   3.555   2.167   1.680
 2179SOL     OW 6552   3.592   2.796   1.517
 2179SOL    HW1 6553   3.630   2.887   1.532
 2179SOL    HW2 6554   3.584   2.779   1.418
 2180SOL     OW 6555   2.721   3.236   0.016
 2180SOL    HW1 6556   2.675   3.251   0.104
 2180SOL    HW2 6557   2.765   3.321  -0.014
 2181SOL     OW 6558   2.523   3.652   0.953
 2181SOL    HW1 6559   2.477   3.740   0.940
 2181SOL    HW2 6560   2.622   3.664   0.946
 2182SOL     OW 6561   2.721   2.818   0.861
 2182SOL    HW1 6562   2.775   2.749   0.909
 2182SOL    HW2 6563   2.689   2.887   0.927
 2183SOL     OW 6564   2.945   2.846   0.087
 2183SOL    HW1 6565   2.922   2.899   0.005
 2183SOL    HW2 6566   3.026   2.790   0.068
 2184SOL     OW 6567   3.723   3.431   0.851
 2184SOL    HW1 6568   3.652   3.419   0.781
 2184SOL    HW2 6569   3.724   3.352   0.911
 2185SOL     OW 6570   2.083   3.176   1.844
 2185SOL    HW1 6571   2.018   3.103   1.823
 2185SOL    HW2 6572   2.087   3.190   1.942
 2186SOL     OW 6573   1.941   3.102   0.653
 2186SOL    HW1 6574   1.940   3.055   0.741
 2186SOL    HW2 6575   2.023   3.074   0.602
 2187SOL     OW 6576   2.534   3.253   1.624
 2187SOL    HW1 6577   2.456   3.203   1.662
 2187SOL    HW2 6578   2.531   3.348   1.655
 2188SOL     OW 6579   3.686   2.054   1.227
 2188SOL    HW1 6580   3.682   1.964   1.271
 2188SOL    HW2 6581   3.689   2.043   1.128
 2189SOL     OW 6582   2.290   2.286   0.520
 2189SOL    HW1 6583   2.320   2.214   0.458
 2189SOL    HW2 6584   2.251   2.246   0.603
 2190SOL     OW 6585   3.567   3.349   1.104
 2190SOL    HW1 6586   3.474   3.324   1.077
 2190SOL    HW2 6587   3.593   3.299   1.186
 2191SOL     OW 6588   2.179   2.409   1.280
 2191SOL    HW1 6589   2.217   2.350   1.352
 2191SOL    HW2 6590   2.219   2.383   1.192
 2192SOL     OW 6591   2.674   3.448   0.687
 2192SOL    HW1 6592   2.706   3.458   0.593
 2192SOL    HW2 6593   2.595   3.386   0.689
 2193SOL     OW 6594   3.286   2.076   1.112
 2193SOL    HW1 6595   3.338   2.011   1.167
 2193SOL    HW2 6596   3.237   2.139   1.173
 2194SOL     OW 6597   2.863   1.896   1.154
 2194SOL    HW1 6598   2.800   1.824   1.123
 2194SOL    HW2 6599   2.956   1.860   1.154
 2195SOL     OW 6600   2.632   3.192   0.301
 2195SOL    HW1 6601   2.586   3.105   0.318
 2195SOL    HW2 6602   2.723   3.189   0.342
 2196SOL     OW 6603   2.480   3.429   1.284
 2196SOL    HW1 6604   2.475   3.511   1.341
 2196SOL    HW2 6605   2.569   3.426   1.239
 2197SOL     OW 6606   3.214   1.914   0.168
 2197SOL    HW1 6607   3.249   1.873   0.084
 2197SOL    HW2 6608   3.124   1.876   0.188
 2198SOL     OW 6609   3.162   2.315   0.691
 2198SOL    HW1 6610   3.103   2.395   0.695
 2198SOL    HW2 6611   3.177   2.280   0.784
 2199SOL     OW 6612   3.455   2.083   0.882
 2199SOL    HW1 6613   3.371   2.082   0.936
 2199SOL    HW2 6614   3.457   2.166   0.826
 2200SOL     OW 6615   1.901   2.939   0.300
 2200SOL    HW1 6616   2.000   2.928   0.291
 2200SOL    HW2 6617   1.861   2.853   0.332
 2201SOL     OW 6618   2.737   3.508   0.337
 2201SOL    HW1 6619   2.660   3.473   0.283
 2201SOL    HW2 6620   2.705   3.579   0.399
 2202SOL     OW 6621   2.092   2.490   1.975
 2202SOL    HW1 6622   1.999   2.488   2.012
 2202SOL    HW2 6623   2.093   2.451   1.883
 2203SOL     OW 6624   2.087   2.137   2.858
 2203SOL    HW1 6625   2.122   2.120   2.950
 2203SOL    HW2 6626   1.999   2.092   2.846
 2204SOL     OW 6627   1.881   2.230   2.509
 2204SOL    HW1 6628   1.799   2.273   2.548
 2204SOL    HW2 6629   1.853   2.157   2.446
 2205SOL     OW 6630   2.431   3.137   3.027
 2205SOL    HW1 6631   2.338   3.130   2.990
 2205SOL    HW2 6632   2.442   3.226   3.071
 2206SOL     OW 6633   3.417   3.373   2.565
 2206SOL    HW1 6634   3.360   3.357   2.646
 2206SOL    HW2 6635   3.358   3.383   2.485
 2207SOL     OW 6636   2.997   2.565   2.579
 2207SOL    HW1 6637   3.054   2.643   2.554
 2207SOL    HW2 6638   2.937   2.591   2.655
 2208SOL     OW 6639   3.617   2.469   2.093
 2208SOL    HW1 6640   3.605   2.456   1.994
 2208SOL    HW2 6641   3.587   2.388   2.142
 2209SOL     OW 6642   2.630   3.006   2.885
 2209SOL    HW1 6643   2.552   3.023   2.945
 2209SOL    HW2 6644   2.664   3.093   2.849
 2210SOL     OW 6645   2.712   2.660   3.685
 2210SOL    HW1 6646   2.708   2.736   3.750
 2210SOL    HW2 6647   2.734   2.696   3.594
 2211SOL     OW 6648   2.547   2.874   2.527
 2211SOL    HW1 6649   2.616   2.858   2.597
 2211SOL    HW2 6650   2.474   2.931   2.565
 2212SOL     OW 6651   2.548   3.023   3.665
 2212SOL    HW1 6652   2.608   3.102   3.679
 2212SOL    HW2 6653   2.462   3.054   3.624
 2213SOL     OW 6654   2.197   3.297   2.923
 2213SOL    HW1 6655   2.119   3.266   2.870
 2213SOL    HW2 6656   2.255   3.355   2.866
 2214SOL     OW 6657   3.322   3.367   3.201
 2214SOL    HW1 6658   3.346   3.461   3.227
 2214SOL    HW2 6659   3.306   3.313   3.283
 2215SOL     OW 6660   2.300   2.254   3.361
 2215SOL    HW1 6661   2.382   2.198   3.370
 2215SOL    HW2 6662   2.219   2.196   3.365
 2216SOL     OW 6663   3.465   2.309   2.599
 2216SOL    HW1 6664   3.391   2.355   2.549
 2216SOL    HW2 6665   3.516   2.377   2.652
 2217SOL     OW 6666   2.093   3.575   2.345
 2217SOL    HW1 6667   2.127   3.652   2.399
 2217SOL    HW2 6668   2.137   3.575   2.255
 2218SOL     OW 6669   2.989   3.203   3.552
 2218SOL    HW1 6670   3.036   3.203   3.640
 2218SOL    HW2 6671   2.941   3.116   3.541
 2219SOL     OW 6672   2.092   3.296   2.400
 2219SOL    HW1 6673   2.066   3.392   2.400
 2219SOL    HW2 6674   2.021   3.242   2.445
 2220SOL     OW 6675   2.102   2.953   2.748
 2220SOL    HW1 6676   2.116   2.869   2.800
 2220SOL    HW2 6677   2.047   3.017   2.803
 2221SOL     OW 6678   2.482   3.648   3.301
 2221SOL    HW1 6679   2.390   3.631   3.336
 2221SOL    HW2 6680   2.510   3.740   3.327
 2222SOL     OW 6681   2.468   2.826   1.985
 2222SOL    HW1 6682   2.475   2.910   1.931
 2222SOL    HW2 6683   2.514   2.839   2.073
 2223SOL     OW 6684   3.456   1.976   3.342
 2223SOL    HW1 6685   3.438   2.043   3.270
 2223SOL    HW2 6686   3.453   2.022   3.431
 2224SOL     OW 6687   1.984   2.505   2.425
 2224SOL    HW1 6688   1.939   2.417   2.442
 2224SOL    HW2 6689   1.983   2.559   2.509
 2225SOL     OW 6690   3.704   3.629   2.221
 2225SOL    HW1 6691   3.758   3.600   2.301
 2225SOL    HW2 6692   3.734   3.719   2.192
 2226SOL     OW 6693   1.889   3.458   1.979
 2226SOL    HW1 6694   1.870   3.362   2.000
 2226SOL    HW2 6695   1.856   3.516   2.054
 2227SOL     OW 6696   3.551   2.784   2.474
 2227SOL    HW1 6697   3.646   2.755   2.482
 2227SOL    HW2 6698   3.543   2.849   2.399
 2228SOL     OW 6699   3.503   2.970   2.294
 2228SOL    HW1 6700   3.589   2.972   2.242
 2228SOL    HW2 6701   3.517   3.017   2.382
 2229SOL     OW 6702   1.975   2.599   3.459
 2229SOL    HW1 6703   2.063   2.586   3.504
 2229SOL    HW2 6704   1.962   2.696   3.437
 2230SOL     OW 6705   2.475   3.227   2.588
 2230SOL    HW1 6706   2.426   3.140   2.597
 2230SOL    HW2 6707   2.452   3.270   2.501
 2231SOL     OW 6708   3.155   3.090   3.285
 2231SOL    HW1 6709   3.192   3.017   3.227
 2231SOL    HW2 6710   3.207   3.095   3.370
 2232SOL     OW 6711   2.671   1.866   2.364
 2232SOL    HW1 6712   2.711   1.957   2.355
 2232SOL    HW2 6713   2.571   1.874   2.370
 2233SOL     OW 6714   2.059   2.838   3.126
 2233SOL    HW1 6715   2.148   2.793   3.112
 2233SOL    HW2 6716   1.986   2.773   3.107
 2234SOL     OW 6717   3.387   2.861   2.052
 2234SOL    HW1 6718   3.324   2.785   2.065
 2234SOL    HW2 6719   3.435   2.879   2.138
 2235SOL     OW 6720   3.049   3.654   3.478
 2235SOL    HW1 6721   3.073   3.714   3.402
 2235SOL    HW2 6722   3.056   3.559   3.448
 2236SOL     OW 6723   2.179   2.113   3.663
 2236SOL    HW1 6724   2.250   2.184   3.669
 2236SOL    HW2 6725   2.091   2.152   3.691
 2237SOL     OW 6726   3.328   3.279   2.815
 2237SOL    HW1 6727   3.269   3.285   2.895
 2237SOL    HW2 6728   3.313   3.191   2.769
 2238SOL     OW 6729   3.529   3.576   2.434
 2238SOL    HW1 6730   3.488   3.553   2.346
 2238SOL    HW2 6731   3.511   3.502   2.499
 2239SOL     OW 6732   2.460   2.591   2.132
 2239SOL    HW1 6733   2.484   2.660   2.064
 2239SOL    HW2 6734   2.382   2.624   2.186
 2240SOL     OW 6735   3.143   2.207   2.806
 2240SOL    HW1 6736   3.057   2.157   2.793
 2240SOL    HW2 6737   3.205   2.153   2.862
 2241SOL     OW 6738   3.438   3.524   2.169
 2241SOL    HW1 6739   3.527   3.570   2.172
 2241SOL    HW2 6740   3.417   3.500   2.074
 2242SOL     OW 6741   2.669   2.467   3.327
 2242SOL    HW1 6742   2.622   2.464   3.416
 2242SOL    HW2 6743   2.618   2.412   3.261
 2243SOL     OW 6744   3.256   2.331   3.536
 2243SOL    HW1 6745   3.236   2.374   3.624
 2243SOL    HW2 6746   3.334   2.269   3.545
 2244SOL     OW 6747   2.835   2.752   3.434
 2244SOL    HW1 6748   2.881   2.668   3.405
 2244SOL    HW2 6749   2.779   2.786   3.359
 2245SOL     OW 6750   2.853   2.272   3.104
 2245SOL    HW1 6751   2.776   2.306   3.158
 2245SOL    HW2 6752   2.819   2.221   3.025
 2246SOL     OW 6753   2.903   2.563   2.291
 2246SOL    HW1 6754   2.929   2.559   2.387
 2246SOL    HW2 6755   2.818   2.512   2.277
 2247SOL     OW 6756   1.938   2.673   2.651
 2247SOL    HW1 6757   2.037   2.661   2.660
 2247SOL    HW2 6758   1.914   2.768   2.672
 2248SOL     OW 6759   1.992   3.683   3.433
 2248SOL    HW1 6760   1.982   3.668   3.532
 2248SOL    HW2 6761   1.906   3.719   3.397
 2249SOL     OW 6762   2.727   2.210   2.057
 2249SOL    HW1 6763   2.786   2.273   2.008
 2249SOL    HW2 6764   2.746   2.116   2.028
 2250SOL     OW 6765   3.581   2.447   3.693
 2250SOL    HW1 6766   3.555   2.536   3.657
 2250SOL    HW2 6767   3.579   2.379   3.620
 2251SOL     OW 6768   3.224   3.006   2.407
 2251SOL    HW1 6769   3.307   2.977   2.359
 2251SOL    HW2 6770   3.175   3.073   2.351
 2252SOL     OW 6771   2.412   2.058   2.747
 2252SOL    HW1 6772   2.407   2.053   2.847
 2252SOL    HW2 6773   2.414   2.154   2.718
 2253SOL     OW 6774   2.870   3.318   2.339
 2253SOL    HW1 6775   2.824   3.390   2.287
 2253SOL    HW2 6776   2.866   3.338   2.437
 2254SOL     OW 6777   2.213   3.663   2.715
 2254SOL    HW1 6778   2.263   3.577   2.721
 2254SOL    HW2 6779   2.278   3.740   2.712
 2255SOL     OW 6780   3.657   2.928   2.735
 2255SOL    HW1 6781   3.595   2.913   2.659
 2255SOL    HW2 6782   3.605   2.939   2.820
 2256SOL     OW 6783   3.089   3.412   3.368
 2256SOL    HW1 6784   3.095   3.335   3.432
 2256SOL    HW2 6785   3.037   3.386   3.288
 2257SOL     OW 6786   2.183   2.805   2.104
 2257SOL    HW1 6787   2.265   2.844   2.062
 2257SOL    HW2 6788   2.156   2.723   2.055
 2258SOL     OW 6789   3.320   2.597   2.590
 2258SOL    HW1 6790   3.315   2.532   2.665
 2258SOL    HW2 6791   3.400   2.656   2.603
 2259SOL     OW 6792   2.323   3.128   3.589
 2259SOL    HW1 6793   2.273   3.129   3.503
 2259SOL    HW2 6794   2.260   3.110   3.665
 2260SOL     OW 6795   2.973   3.638   2.099
 2260SOL    HW1 6796   2.913   3.576   2.149
 2260SOL    HW2 6797   3.004   3.594   2.014
 2261SOL     OW 6798   2.064   2.147   3.360
 2261SOL    HW1 6799   1.984   2.207   3.347
 2261SOL    HW2 6800   2.054   2.098   3.446
 2262SOL     OW 6801   3.494   3.239   1.943
 2262SOL    HW1 6802   3.462   3.333   1.933
 2262SOL    HW2 6803   3.418   3.176   1.931
 2263SOL     OW 6804   2.326   3.605   2.185
 2263SOL    HW1 6805   2.359   3.644   2.271
 2263SOL    HW2 6806   2.402   3.598   2.120
 2264SOL     OW 6807   3.262   1.969   2.288
 2264SOL    HW1 6808   3.238   1.932   2.198
 2264SOL    HW2 6809   3.361   1.985   2.292
 2265SOL     OW 6810   2.111   3.647   3.103
 2265SOL    HW1 6811   2.168   3.582   3.153
 2265SOL    HW2 6812   2.095   3.614   3.010
 2266SOL     OW 6813   2.802   3.560   2.766
 2266SOL    HW1 6814   2.882   3.503   2.787
 2266SOL    HW2 6815   2.753   3.520   2.689
 2267SOL     OW 6816   3.409   2.084   3.591
 2267SOL    HW1 6817   3.404   2.121   3.683
 2267SOL    HW2 6818   3.337   2.015   3.579
 2268SOL     OW 6819   2.476   1.984   1.979
 2268SOL    HW1 6820   2.574   1.962   1.986
 2268SOL    HW2 6821   2.445   1.967   1.886
 2269SOL     OW 6822   2.643   2.126   3.611
 2269SOL    HW1 6823   2.710   2.065   3.654
 2269SOL    HW2 6824   2.570   2.145   3.676
 2270SOL     OW 6825   2.750   3.376   3.057
 2270SOL    HW1 6826   2.727   3.351   2.963
 2270SOL    HW2 6827   2.811   3.307   3.096
 2271SOL     OW 6828   3.213   2.452   3.295
 2271SOL    HW1 6829   3.241   2.409   3.380
 2271SOL    HW2 6830   3.238   2.548   3.296
 2272SOL     OW 6831   2.665   3.264   2.786
 2272SOL    HW1 6832   2.755   3.278   2.744
 2272SOL    HW2 6833   2.594   3.266   2.715
 2273SOL     OW 6834   3.296   3.050   1.903
 2273SOL    HW1 6835   3.328   2.974   1.960
 2273SOL    HW2 6836   3.204   3.077   1.933
 2274SOL     OW 6837   2.159   1.897   2.033
 2274SOL    HW1 6838   2.208   1.981   2.012
 2274SOL    HW2 6839   2.221   1.832   2.078
 2275SOL     OW 6840   2.797   2.098   2.342
 2275SOL    HW1 6841   2.749   2.139   2.264
 2275SOL    HW2 6842   2.896   2.096   2.323
 2276SOL     OW 6843   2.938   2.545   3.326
 2276SOL    HW1 6844   2.858   2.484   3.329
 2276SOL    HW2 6845   3.019   2.492   3.302
 2277SOL     OW 6846   3.089   3.432   2.655
 2277SOL    HW1 6847   3.110   3.506   2.590
 2277SOL    HW2 6848   3.157   3.432   2.728
 2278SOL     OW 6849   2.321   3.014   2.603
 2278SOL    HW1 6850   2.250   2.987   2.668
 2278SOL    HW2 6851   2.295   2.986   2.510
 2279SOL     OW 6852   3.133   3.659   2.453
 2279SOL    HW1 6853   3.177   3.723   2.389
 2279SOL    HW2 6854   3.083   3.711   2.523
 2280SOL     OW 6855   2.894   2.411   1.878
 2280SOL    HW1 6856   2.853   2.493   1.839
 2280SOL    HW2 6857   2.958   2.437   1.951
 2281SOL     OW 6858   1.940   2.418   3.248
 2281SOL    HW1 6859   2.032   2.417   3.207
 2281SOL    HW2 6860   1.934   2.492   3.315
 2282SOL     OW 6861   2.423   2.084   3.009
 2282SOL    HW1 6862   2.461   2.000   3.046
 2282SOL    HW2 6863   2.335   2.103   3.053
 2283SOL     OW 6864   2.728   2.316   2.504
 2283SOL    HW1 6865   2.696   2.388   2.442
 2283SOL    HW2 6866   2.752   2.235   2.451
 2284SOL     OW 6867   2.879   1.901   2.615
 2284SOL    HW1 6868   2.807   1.906   2.546
 2284SOL    HW2 6869   2.855   1.832   2.684
 2285SOL     OW 6870   3.291   3.035   2.729
 2285SOL    HW1 6871   3.236   2.951   2.722
 2285SOL    HW2 6872   3.317   3.064   2.637
 2286SOL     OW 6873   3.328   2.452   2.854
 2286SOL    HW1 6874   3.298   2.357   2.861
 2286SOL    HW2 6875   3.401   2.468   2.920
 2287SOL     OW 6876   3.719   2.695   2.239
 2287SOL    HW1 6877   3.761   2.631   2.303
 2287SOL    HW2 6878   3.681   2.644   2.161
 2288SOL     OW 6879   2.350   3.247   2.036
 2288SOL    HW1 6880   2.263   3.232   2.083
 2288SOL    HW2 6881   2.333   3.273   1.941
 2289SOL     OW 6882   3.526   3.142   2.519
 2289SOL    HW1 6883   3.625   3.150   2.533
 2289SOL    HW2 6884   3.481   3.226   2.550
 2290SOL     OW 6885   3.252   2.437   1.940
 2290SOL    HW1 6886   3.198   2.416   2.021
 2290SOL    HW2 6887   3.343   2.396   1.949
 2291SOL     OW 6888   3.616   3.085   3.450
 2291SOL    HW1 6889   3.707   3.046   3.437
 2291SOL    HW2 6890   3.624   3.181   3.474
 2292SOL     OW 6891   2.926   3.209   3.202
 2292SOL    HW1 6892   2.846   3.186   3.257
 2292SOL    HW2 6893   3.009   3.183   3.251
 2293SOL     OW 6894   3.454   3.491   3.487
 2293SOL    HW1 6895   3.481   3.525   3.397
 2293SOL    HW2 6896   3.533   3.453   3.533
 2294SOL     OW 6897   2.973   3.057   2.962
 2294SOL    HW1 6898   2.933   3.101   3.043
 2294SOL    HW2 6899   2.932   3.094   2.879
 2295SOL     OW 6900   3.500   2.961   2.941
 2295SOL    HW1 6901   3.505   3.042   3.000
 2295SOL    HW2 6902   3.414   2.963   2.890
 2296SOL     OW 6903   2.777   1.951   3.264
 2296SOL    HW1 6904   2.802   1.931   3.169
 2296SOL    HW2 6905   2.849   2.007   3.306
 2297SOL     OW 6906   2.842   2.978   3.581
 2297SOL    HW1 6907   2.743   2.984   3.591
 2297SOL    HW2 6908   2.865   2.898   3.525
 2298SOL     OW 6909   2.567   2.912   2.230
 2298SOL    HW1 6910   2.553   2.919   2.329
 2298SOL    HW2 6911   2.651   2.861   2.212
 2299SOL     OW 6912   2.272   2.675   3.113
 2299SOL    HW1 6913   2.358   2.687   3.163
 2299SOL    HW2 6914   2.230   2.588   3.140
 2300SOL     OW 6915   3.136   2.248   3.124
 2300SOL    HW1 6916   3.157   2.322   3.188
 2300SOL    HW2 6917   3.047   2.265   3.081
 2301SOL     OW 6918   1.926   3.426   3.193
 2301SOL    HW1 6919   1.880   3.508   3.159
 2301SOL    HW2 6920   2.024   3.445   3.202
 2302SOL     OW 6921   2.229   2.962   2.363
 2302SOL    HW1 6922   2.222   3.045   2.307
 2302SOL    HW2 6923   2.233   2.882   2.303
 2303SOL     OW 6924   2.428   2.399   2.727
 2303SOL    HW1 6925   2.440   2.465   2.653
 2303SOL    HW2 6926   2.474   2.433   2.810
 2304SOL     OW 6927   3.114   3.210   2.250
 2304SOL    HW1 6928   3.164   3.287   2.290
 2304SOL    HW2 6929   3.019   3.212   2.282
 2305SOL     OW 6930   3.134   3.307   3.004
 2305SOL    HW1 6931   3.181   3.320   3.091
 2305SOL    HW2 6932   3.068   3.233   3.013
 2306SOL     OW 6933   3.444   2.501   2.334
 2306SOL    HW1 6934   3.413   2.562   2.407
 2306SOL    HW2 6935   3.494   2.553   2.265
 2307SOL     OW 6936   2.216   3.372   3.191
 2307SOL    HW1 6937   2.195   3.328   3.104
 2307SOL    HW2 6938   2.313   3.398   3.194
 2308SOL     OW 6939   2.264   2.613   3.460
 2308SOL    HW1 6940   2.332   2.668   3.413
 2308SOL    HW2 6941   2.304   2.525   3.487
 2309SOL     OW 6942   3.449   2.641   3.532
 2309SOL    HW1 6943   3.357   2.679   3.527
 2309SOL    HW2 6944   3.509   2.688   3.467
 2310SOL     OW 6945   2.875   1.967   3.632
 2310SOL    HW1 6946   2.881   2.052   3.580
 2310SOL    HW2 6947   2.907   1.891   3.575
 2311SOL     OW 6948   2.366   1.912   3.602
 2311SOL    HW1 6949   2.324   1.855   3.532
 2311SOL    HW2 6950   2.300   1.981   3.634
 2312SOL     OW 6951   2.435   2.732   2.891
 2312SOL    HW1 6952   2.479   2.821   2.882
 2312SOL    HW2 6953   2.372   2.732   2.968
 2313SOL     OW 6954   3.222   2.724   2.907
 2313SOL    HW1 6955   3.147   2.724   2.841
 2313SOL    HW2 6956   3.259   2.632   2.916
 2314SOL     OW 6957   3.071   2.387   2.137
 2314SOL    HW1 6958   3.084   2.303   2.191
 2314SOL    HW2 6959   3.042   2.461   2.197
 2315SOL     OW 6960   2.169   2.075   3.093
 2315SOL    HW1 6961   2.146   2.112   3.183
 2315SOL    HW2 6962   2.139   1.980   3.087
 2316SOL     OW 6963   1.899   3.172   3.144
 2316SOL    HW1 6964   1.952   3.123   3.212
 2316SOL    HW2 6965   1.921   3.270   3.149
 2317SOL     OW 6966   2.594   2.496   2.926
 2317SOL    HW1 6967   2.653   2.470   2.850
 2317SOL    HW2 6968   2.566   2.592   2.915
 2318SOL     OW 6969   3.590   2.797   3.716
 2318SOL    HW1 6970   3.544   2.790   3.627
 2318SOL    HW2 6971   3.528   2.841   3.782
 2319SOL     OW 6972   3.484   2.229   2.236
 2319SOL    HW1 6973   3.486   2.153   2.300
 2319SOL    HW2 6974   3.436   2.306   2.276
 2320SOL     OW 6975   2.885   2.628   2.828
 2320SOL    HW1 6976   2.900   2.649   2.924
 2320SOL    HW2 6977   2.855   2.533   2.819
 2321SOL     OW 6978   2.842   3.435   3.562
 2321SOL    HW1 6979   2.822   3.479   3.474
 2321SOL    HW2 6980   2.881   3.344   3.546
 2322SOL     OW 6981   3.721   3.380   3.467
 2322SOL    HW1 6982   3.735   3.407   3.372
 2322SOL    HW2 6983   3.804   3.402   3.520
 2323SOL     OW 6984   2.212   2.760   3.666
 2323SOL    HW1 6985   2.288   2.804   3.714
 2323SOL    HW2 6986   2.247   2.713   3.584
 2324SOL     OW 6987   3.402   2.136   1.987
 2324SOL    HW1 6988   3.341   2.061   2.010
 2324SOL    HW2 6989   3.424   2.188   2.070
 2325SOL     OW 6990   3.165   2.700   1.904
 2325SOL    HW1 6991   3.199   2.607   1.919
 2325SOL    HW2 6992   3.183   2.727   1.809
 2326SOL     OW 6993   2.930   3.195   2.711
 2326SOL    HW1 6994   2.937   3.111   2.656
 2326SOL    HW2 6995   2.992   3.264   2.675
 2327SOL     OW 6996   2.181   2.672   2.811
 2327SOL    HW1 6997   2.274   2.708   2.816
 2327SOL    HW2 6998   2.175   2.587   2.863
 2328SOL     OW 6999   2.201   2.371   2.868
 2328SOL    HW1 7000   2.149   2.288   2.851
 2328SOL    HW2 7001   2.278   2.376   2.804
 2329SOL     OW 7002   3.000   2.242   3.540
 2329SOL    HW1 7003   2.955   2.305   3.604
 2329SOL    HW2 7004   3.093   2.273   3.523
 2330SOL     OW 7005   3.022   2.069   3.339
 2330SOL    HW1 7006   3.022   2.133   3.416
 2330SOL    HW2 7007   3.050   2.117   3.256
 2331SOL     OW 7008   1.870   3.188   2.062
 2331SOL    HW1 7009   1.777   3.209   2.031
 2331SOL    HW2 7010   1.880   3.089   2.075
 2332SOL     OW 7011   1.950   3.663   2.789
 2332SOL    HW1 7012   1.908   3.577   2.762
 2332SOL    HW2 7013   2.044   3.666   2.755
 2333SOL     OW 7014   2.366   3.430   2.772
 2333SOL    HW1 7015   2.432   3.504   2.781
 2333SOL    HW2 7016   2.410   3.351   2.730
 2334SOL     OW 7017   2.864   2.658   3.100
 2334SOL    HW1 7018   2.905   2.626   3.186
 2334SOL    HW2 7019   2.768   2.631   3.097
 2335SOL     OW 7020   1.902   2.406   2.976
 2335SOL    HW1 7021   1.987   2.373   2.935
 2335SOL    HW2 7022   1.915   2.421   3.074
 2336SOL     OW 7023   2.051   2.382   3.584
 2336SOL    HW1 7024   2.110   2.342   3.514
 2336SOL    HW2 7025   1.993   2.453   3.543
 2337SOL     OW 7026   3.231   2.812   3.522
 2337SOL    HW1 7027   3.270   2.901   3.542
 2337SOL    HW2 7028   3.241   2.792   3.425
 2338SOL     OW 7029   3.519   2.466   3.068
 2338SOL    HW1 7030   3.481   2.397   3.130
 2338SOL    HW2 7031   3.601   2.430   3.024
 2339SOL     OW 7032   2.114   3.426   3.606
 2339SOL    HW1 7033   2.084   3.483   3.682
 2339SOL    HW2 7034   2.107   3.329   3.632
 2340SOL     OW 7035   2.533   2.326   3.131
 2340SOL    HW1 7036   2.499   2.237   3.101
 2340SOL    HW2 7037   2.559   2.380   3.051
 2341SOL     OW 7038   2.792   3.540   3.327
 2341SOL    HW1 7039   2.768   3.522   3.232
 2341SOL    HW2 7040   2.822   3.634   3.337
 2342SOL     OW 7041   2.335   2.362   2.053
 2342SOL    HW1 7042   2.396   2.442   2.057
 2342SOL    HW2 7043   2.240   2.393   2.060
 2343SOL     OW 7044   2.021   2.999   3.328
 2343SOL    HW1 7045   2.043   2.938   3.404
 2343SOL    HW2 7046   2.031   2.950   3.242
 2344SOL     OW 7047   3.209   2.921   3.096
 2344SOL    HW1 7048   3.233   2.858   3.022
 2344SOL    HW2 7049   3.119   2.961   3.078
 2345SOL     OW 7050   3.164   2.717   2.171
 2345SOL    HW1 7051   3.078   2.686   2.213
 2345SOL    HW2 7052   3.160   2.703   2.072
 2346SOL     OW 7053   3.621   3.609   3.016
 2346SOL    HW1 7054   3.682   3.639   2.943
 2346SOL    HW2 7055   3.583   3.520   2.994
 2347SOL     OW 7056   3.114   3.593   2.990
 2347SOL    HW1 7057   3.198   3.598   2.936
 2347SOL    HW2 7058   3.091   3.497   3.008
 2348SOL     OW 7059   1.945   3.120   2.884
 2348SOL    HW1 7060   1.940   3.119   2.984
 2348SOL    HW2 7061   1.862   3.079   2.846
 2349SOL     OW 7062   2.550   3.524   3.578
 2349SOL    HW1 7063   2.494   3.605   3.587
 2349SOL    HW2 7064   2.602   3.528   3.492
 2350SOL     OW 7065   3.588   1.997   2.385
 2350SOL    HW1 7066   3.661   1.980   2.318
 2350SOL    HW2 7067   3.557   1.910   2.423
 2351SOL     OW 7068   3.250   3.435   2.339
 2351SOL    HW1 7069   3.317   3.447   2.265
 2351SOL    HW2 7070   3.210   3.524   2.362
 2352SOL     OW 7071   1.992   3.656   3.713
 2352SOL    HW1 7072   1.951   3.582   3.766
 2352SOL    HW2 7073   2.056   3.707   3.771
 2353SOL     OW 7074   3.142   2.789   2.534
 2353SOL    HW1 7075   3.202   2.708   2.536
 2353SOL    HW2 7076   3.182   2.858   2.474
 2354SOL     OW 7077   2.692   3.135   3.284
 2354SOL    HW1 7078   2.687   3.168   3.379
 2354SOL    HW2 7079   2.606   3.154   3.238
 2355SOL     OW 7080   2.534   3.478   2.016
 2355SOL    HW1 7081   2.543   3.488   1.917
 2355SOL    HW2 7082   2.494   3.389   2.037
 2356SOL     OW 7083   3.512   3.582   3.256
 2356SOL    HW1 7084   3.565   3.592   3.172
 2356SOL    HW2 7085   3.485   3.672   3.290
 2357SOL     OW 7086   3.703   2.037   2.825
 2357SOL    HW1 7087   3.742   1.952   2.789
 2357SOL    HW2 7088   3.605   2.039   2.806
 2358SOL     OW 7089   2.125   2.188   2.582
 2358SOL    HW1 7090   2.046   2.239   2.548
 2358SOL    HW2 7091   2.116   2.173   2.680
 2359SOL     OW 7092   3.056   3.474   1.893
 2359SOL    HW1 7093   3.062   3.381   1.930
 2359SOL    HW2 7094   2.997   3.474   1.813
 2360SOL     OW 7095   2.684   2.864   3.234
 2360SOL    HW1 7096   2.724   2.863   3.142
 2360SOL    HW2 7097   2.694   2.956   3.274
 2361SOL     OW 7098   2.778   2.772   2.153
 2361SOL    HW1 7099   2.841   2.810   2.085
 2361SOL    HW2 7100   2.818   2.689   2.192
 2362SOL     OW 7101   3.366   3.469   1.906
 2362SOL    HW1 7102   3.274   3.506   1.913
 2362SOL    HW2 7103   3.404   3.489   1.816
 2363SOL     OW 7104   2.234   3.150   3.352
 2363SOL    HW1 7105   2.221   3.243   3.318
 2363SOL    HW2 7106   2.150   3.098   3.339
 2364SOL     OW 7107   3.476   3.154   3.151
 2364SOL    HW1 7108   3.536   3.157   3.231
 2364SOL    HW2 7109   3.401   3.218   3.164
 2365SOL     OW 7110   2.901   2.960   2.558
 2365SOL    HW1 7111   2.831   2.913   2.612
 2365SOL    HW2 7112   2.960   2.892   2.515
 2366SOL     OW 7113   2.876   2.098   2.833
 2366SOL    HW1 7114   2.868   2.062   2.740
 2366SOL    HW2 7115   2.874   2.022   2.898
 2367SOL     OW 7116   2.452   3.349   2.353
 2367SOL    HW1 7117   2.494   3.291   2.283
 2367SOL    HW2 7118   2.408   3.428   2.309
 2368SOL     OW 7119   3.571   2.247   3.243
 2368SOL    HW1 7120   3.644   2.316   3.247
 2368SOL    HW2 7121   3.599   2.172   3.184
 2369SOL     OW 7122   2.117   3.210   2.152
 2369SOL    HW1 7123   2.021   3.211   2.125
 2369SOL    HW2 7124   2.129   3.263   2.236
 2370SOL     OW 7125   1.967   2.875   3.588
 2370SOL    HW1 7126   1.890   2.842   3.642
 2370SOL    HW2 7127   2.052   2.845   3.630
 2371SOL     OW 7128   2.534   2.065   3.351
 2371SOL    HW1 7129   2.624   2.049   3.311
 2371SOL    HW2 7130   2.542   2.070   3.450
 2372SOL     OW 7131   1.937   2.207   1.895
 2372SOL    HW1 7132   1.845   2.179   1.866
 2372SOL    HW2 7133   1.968   2.284   1.839
 2373SOL     OW 7134   3.302   2.718   3.260
 2373SOL    HW1 7135   3.245   2.770   3.197
 2373SOL    HW2 7136   3.398   2.730   3.236
 2374SOL     OW 7137   1.934   2.028   2.180
 2374SOL    HW1 7138   1.917   2.111   2.126
 2374SOL    HW2 7139   2.024   1.991   2.158
 2375SOL     OW 7140   3.045   3.197   1.981
 2375SOL    HW1 7141   2.946   3.186   1.983
 2375SOL    HW2 7142   3.079   3.212   2.074
 2376SOL     OW 7143   2.475   2.704   3.293
 2376SOL    HW1 7144   2.531   2.785   3.276
 2376SOL    HW2 7145   2.534   2.624   3.296
 2377SOL     OW 7146   3.355   3.629   2.821
 2377SOL    HW1 7147   3.388   3.693   2.752
 2377SOL    HW2 7148   3.421   3.623   2.896
 2378SOL     OW 7149   2.578   2.427   3.570
 2378SOL    HW1 7150   2.597   2.492   3.644
 2378SOL    HW2 7151   2.638   2.347   3.579
 2379SOL     OW 7152   3.312   3.082   3.495
 2379SOL    HW1 7153   3.303   3.072   3.594
 2379SOL    HW2 7154   3.408   3.075   3.469
 2380SOL     OW 7155   2.252   3.603   3.422
 2380SOL    HW1 7156   2.161   3.644   3.420
 2380SOL    HW2 7157   2.245   3.509   3.454
 2381SOL     OW 7158   3.536   2.745   3.116
 2381SOL    HW1 7159   3.509   2.656   3.079
 2381SOL    HW2 7160   3.537   2.813   3.043
 2382SOL     OW 7161   3.087   2.187   2.311
 2382SOL    HW1 7162   3.152   2.113   2.300
 2382SOL    HW2 7163   3.107   2.237   2.395
 2383SOL     OW 7164   3.639   2.204   3.504
 2383SOL    HW1 7165   3.622   2.235   3.410
 2383SOL    HW2 7166   3.555   2.167   3.542
 2384SOL     OW 7167   3.592   2.796   3.379
 2384SOL    HW1 7168   3.630   2.887   3.394
 2384SOL    HW2 7169   3.584   2.779   3.280
 2385SOL     OW 7170   2.721   3.236   1.878
 2385SOL    HW1 7171   2.675   3.251   1.966
 2385SOL    HW2 7172   2.765   3.321   1.848
 2386SOL     OW 7173   2.523   3.652   2.815
 2386SOL    HW1 7174   2.477   3.740   2.802
 2386SOL    HW2 7175   2.622   3.664   2.808
 2387SOL     OW 7176   2.721   2.818   2.723
 2387SOL    HW1 7177   2.775   2.749   2.771
 2387SOL    HW2 7178   2.689   2.887   2.789
 2388SOL     OW 7179   2.945   2.846   1.949
 2388SOL    HW1 7180   2.922   2.899   1.867
 2388SOL    HW2 7181   3.026   2.790   1.930
 2389SOL     OW 7182   3.723   3.431   2.713
 2389SOL    HW1 7183   3.652   3.419   2.643
 2389SOL    HW2 7184   3.724   3.352   2.773
 2390SOL     OW 7185   2.083   3.176   3.706
 2390SOL    HW1 7186   2.018   3.103   3.685
 2390SOL    HW2 7187   2.087   3.190   3.804
 2391SOL     OW 7188   1.941   3.102   2.515
 2391SOL    HW1 7189   1.940   3.055   2.603
 2391SOL    HW2 7190   2.023   3.074   2.464
 2392SOL     OW 7191   2.534   3.253   3.486
 2392SOL    HW1 7192   2.456   3.203   3.524
 2392SOL    HW2 7193   2.531   3.348   3.517
 2393SOL     OW 7194   3.686   2.054   3.089
 2393SOL    HW1 7195   3.682   1.964   3.133
 2393SOL    HW2 7196   3.689   2.043   2.990
 2394SOL     OW 7197   3.567   3.349   2.966
 2394SOL    HW1 7198   3.474   3.324   2.939
 2394SOL    HW2 7199   3.593   3.299   3.048
 2395SOL     OW 7200   2.179   2.409   3.142
 2395SOL    HW1 7201   2.217   2.350   3.214
 2395SOL    HW2 7202   2.219   2.383   3.054
 2396SOL     OW 7203   2.674   3.448   2.549
 2396SOL    HW1 7204   2.706   3.458   2.455
 2396SOL    HW2 7205   2.595   3.386   2.551
 2397SOL     OW 7206   3.286   2.076   2.974
 2397SOL    HW1 7207   3.338   2.011   3.029
 2397SOL    HW2 7208   3.237   2.139   3.035
 2398SOL     OW 7209   2.863   1.896   3.016
 2398SOL    HW1 7210   2.800   1.824   2.985
 2398SOL    HW2 7211   2.956   1.860   3.016
 2399SOL     OW 7212   2.632   3.192   2.163
 2399SOL    HW1 7213   2.586   3.105   2.180
 2399SOL    HW2 7214   2.723   3.189   2.204
 2400SOL     OW 7215   2.480   3.429   3.146
 2400SOL    HW1 7216   2.475   3.511   3.203
 2400SOL    HW2 7217   2.569   3.426   3.101
 2401SOL     OW 7218   3.214   1.914   2.030
 2401SOL    HW1 7219   3.249   1.873   1.946
 2401SOL    HW2 7220   3.124   1.876   2.050
 2402SOL     OW 7221   3.162   2.315   2.553
 2402SOL    HW1 7222   3.103   2.395   2.557
 2402SOL    HW2 7223   3.177   2.280   2.646
 2403SOL     OW 7224   3.455   2.083   2.744
 2403SOL    HW1 7225   3.371   2.082   2.798
 2403SOL    HW2 7226   3.457   2.166   2.688
 2404SOL     OW 7227   1.901   2.939   2.162
 2404SOL    HW1 7228   2.000   2.928   2.153
 2404SOL    HW2 7229   1.861   2.853   2.194
 2405SOL     OW 7230   2.737   3.508   2.199
 2405SOL    HW1 7231   2.660   3.473   2.145
 2405SOL    HW2 7232   2.705   3.579   2.261
 2406SOL     OW 7233   2.092   2.490   3.837
 2406SOL    HW1 7234   1.999   2.488   3.874
 2406SOL    HW2 7235   2.093   2.451   3.745
 2407SOL     OW 7236   2.087   2.137   4.720
 2407SOL    HW1 7237   2.122   2.120   4.812
 2407SOL    HW2 7238   1.999   2.092   4.708
 2408SOL     OW 7239   1.881   2.230   4.371
 2408SOL    HW1 7240   1.799   2.273   4.410
 2408SOL    HW2 7241   1.853   2.157   4.308
 2409SOL     OW 7242   3.417   3.373   4.427
 2409SOL    HW1 7243   3.360   3.357   4.508
 2409SOL    HW2 7244   3.358   3.383   4.347
 2410SOL     OW 7245   2.997   2.565   4.441
 2410SOL    HW1 7246   3.054   2.643   4.416
 2410SOL    HW2 7247   2.937   2.591   4.517
 2411SOL     OW 7248   3.617   2.469   3.955
 2411SOL    HW1 7249   3.605   2.456   3.856
 2411SOL    HW2 7250   3.587   2.388   4.004
 2412SOL     OW 7251   2.630   3.006   4.747
 2412SOL    HW1 7252   2.552   3.023   4.807
 2412SOL    HW2 7253   2.664   3.093   4.711
 2413SOL     OW 7254   2.547   2.874   4.389
 2413SOL    HW1 7255   2.616   2.858   4.459
 2413SOL    HW2 7256   2.474   2.931   4.427
 2414SOL     OW 7257   2.197   3.297   4.785
 2414SOL    HW1 7258   2.119   3.266   4.732
 2414SOL    HW2 7259   2.255   3.355   4.728
 2415SOL     OW 7260   3.465   2.309   4.461
 2415SOL    HW1 7261   3.391   2.355   4.411
 2415SOL    HW2 7262   3.516   2.377   4.514
 2416SOL     OW 7263   2.093   3.575   4.207
 2416SOL    HW1 7264   2.127   3.652   4.261
 2416SOL    HW2 7265   2.137   3.575   4.117
 2417SOL     OW 7266   2.092   3.296   4.262
 2417SOL    HW1 7267   2.066   3.392   4.262
 2417SOL    HW2 7268   2.021   3.242   4.307
 2418SOL     OW 7269   2.102   2.953   4.610
 2418SOL    HW1 7270   2.116   2.869   4.662
 2418SOL    HW2 7271   2.047   3.017   4.665
 2419SOL     OW 7272   2.468   2.826   3.847
 2419SOL    HW1 7273   2.475   2.910   3.793
 2419SOL    HW2 7274   2.514   2.839   3.935
 2420SOL     OW 7275   1.984   2.505   4.287
 2420SOL    HW1 7276   1.939   2.417   4.304
 2420SOL    HW2 7277   1.983   2.559   4.371
 2421SOL     OW 7278   3.704   3.629   4.083
 2421SOL    HW1 7279   3.758   3.600   4.163
 2421SOL    HW2 7280   3.734   3.719   4.054
 2422SOL     OW 7281   1.889   3.458   3.841
 2422SOL    HW1 7282   1.870   3.362   3.862
 2422SOL    HW2 7283   1.856   3.516   3.916
 2423SOL     OW 7284   3.551   2.784   4.336
 2423SOL    HW1 7285   3.646   2.755   4.344
 2423SOL    HW2 7286   3.543   2.849   4.261
 2424SOL     OW 7287   3.503   2.970   4.156
 2424SOL    HW1 7288   3.589   2.972   4.104
 2424SOL    HW2 7289   3.517   3.017   4.244
 2425SOL     OW 7290   2.475   3.227   4.450
 2425SOL    HW1 7291   2.426   3.140   4.459
 2425SOL    HW2 7292   2.452   3.270   4.363
 2426SOL     OW 7293   2.671   1.866   4.226
 2426SOL    HW1 7294   2.711   1.957   4.217
 2426SOL    HW2 7295   2.571   1.874   4.232
 2427SOL     OW 7296   3.387   2.861   3.914
 2427SOL    HW1 7297   3.324   2.785   3.927
 2427SOL    HW2 7298   3.435   2.879   4.000
 2428SOL     OW 7299   3.328   3.279   4.677
 2428SOL    HW1 7300   3.269   3.285   4.757
 2428SOL    HW2 7301   3.313   3.191   4.631
 2429SOL     OW 7302   3.529   3.576   4.296
 2429SOL    HW1 7303   3.488   3.553   4.208
 2429SOL    HW2 7304   3.511   3.502   4.361
 2430SOL     OW 7305   2.460   2.591   3.994
 2430SOL    HW1 7306   2.484   2.660   3.926
 2430SOL    HW2 7307   2.382   2.624   4.048
 2431SOL     OW 7308   3.143   2.207   4.668
 2431SOL    HW1 7309   3.057   2.157   4.655
 2431SOL    HW2 7310   3.205   2.153   4.724
 2432SOL     OW 7311   3.438   3.524   4.031
 2432SOL    HW1 7312   3.527   3.570   4.034
 2432SOL    HW2 7313   3.417   3.500   3.936
 2433SOL     OW 7314   2.903   2.563   4.153
 2433SOL    HW1 7315   2.929   2.559   4.249
 2433SOL    HW2 7316   2.818   2.512   4.139
 2434SOL     OW 7317   1.938   2.673   4.513
 2434SOL    HW1 7318   2.037   2.661   4.522
 2434SOL    HW2 7319   1.914   2.768   4.534
 2435SOL     OW 7320   2.727   2.210   3.919
 2435SOL    HW1 7321   2.786   2.273   3.870
 2435SOL    HW2 7322   2.746   2.116   3.890
 2436SOL     OW 7323   3.224   3.006   4.269
 2436SOL    HW1 7324   3.307   2.977   4.221
 2436SOL    HW2 7325   3.175   3.073   4.213
 2437SOL     OW 7326   2.412   2.058   4.609
 2437SOL    HW1 7327   2.407   2.053   4.709
 2437SOL    HW2 7328   2.414   2.154   4.580
 2438SOL     OW 7329   2.870   3.318   4.201
 2438SOL    HW1 7330   2.824   3.390   4.149
 2438SOL    HW2 7331   2.866   3.338   4.299
 2439SOL     OW 7332   2.213   3.663   4.577
 2439SOL    HW1 7333   2.263   3.577   4.583
 2439SOL    HW2 7334   2.278   3.740   4.574
 2440SOL     OW 7335   3.657   2.928   4.597
 2440SOL    HW1 7336   3.595   2.913   4.521
 2440SOL    HW2 7337   3.605   2.939   4.682
 2441SOL     OW 7338   2.183   2.805   3.966
 2441SOL    HW1 7339   2.265   2.844   3.924
 2441SOL    HW2 7340   2.156   2.723   3.917
 2442SOL     OW 7341   3.320   2.597   4.452
 2442SOL    HW1 7342   3.315   2.532   4.527
 2442SOL    HW2 7343   3.400   2.656   4.465
 2443SOL     OW 7344   2.973   3.638   3.961
 2443SOL    HW1 7345   2.913   3.576   4.011
 2443SOL    HW2 7346   3.004   3.594   3.876
 2444SOL     OW 7347   3.494   3.239   3.805
 2444SOL    HW1 7348   3.462   3.333   3.795
 2444SOL    HW2 7349   3.418   3.176   3.793
 2445SOL     OW 7350   2.326   3.605   4.047
 2445SOL    HW1 7351   2.359   3.644   4.133
 2445SOL    HW2 7352   2.402   3.598   3.982
 2446SOL     OW 7353   3.262   1.969   4.150
 2446SOL    HW1 7354   3.238   1.932   4.060
 2446SOL    HW2 7355   3.361   1.985   4.154
 2447SOL     OW 7356   2.111   3.647   4.965
 2447SOL    HW1 7357   2.168   3.582   5.015
 2447SOL    HW2 7358   2.095   3.614   4.872
 2448SOL     OW 7359   2.802   3.560   4.628
 2448SOL    HW1 7360   2.882   3.503   4.649
 2448SOL    HW2 7361   2.753   3.520   4.551
 2449SOL     OW 7362   2.244   2.562   4.204
 2449SOL    HW1 7363   2.289   2.472   4.201
 2449SOL    HW2 7364   2.150   2.551   4.237
 2450SOL     OW 7365   2.476   1.984   3.841
 2450SOL    HW1 7366   2.574   1.962   3.848
 2450SOL    HW2 7367   2.445   1.967   3.748
 2451SOL     OW 7368   2.665   3.264   4.648
 2451SOL    HW1 7369   2.755   3.278   4.606
 2451SOL    HW2 7370   2.594   3.266   4.577
 2452SOL     OW 7371   2.784   2.365   4.623
 2452SOL    HW1 7372   2.759   2.356   4.527
 2452SOL    HW2 7373   2.832   2.283   4.654
 2453SOL     OW 7374   2.401   1.926   4.236
 2453SOL    HW1 7375   2.320   1.927   4.294
 2453SOL    HW2 7376   2.404   2.009   4.181
 2454SOL     OW 7377   3.296   3.050   3.765
 2454SOL    HW1 7378   3.328   2.974   3.822
 2454SOL    HW2 7379   3.204   3.077   3.795
 2455SOL     OW 7380   2.159   1.897   3.895
 2455SOL    HW1 7381   2.208   1.981   3.874
 2455SOL    HW2 7382   2.221   1.832   3.940
 2456SOL     OW 7383   2.797   2.098   4.204
 2456SOL    HW1 7384   2.749   2.139   4.126
 2456SOL    HW2 7385   2.896   2.096   4.185
 2457SOL     OW 7386   3.089   3.432   4.517
 2457SOL    HW1 7387   3.110   3.506   4.452
 2457SOL    HW2 7388   3.157   3.432   4.590
 2458SOL     OW 7389   2.321   3.014   4.465
 2458SOL    HW1 7390   2.250   2.987   4.530
 2458SOL    HW2 7391   2.295   2.986   4.372
 2459SOL     OW 7392   3.133   3.659   4.315
 2459SOL    HW1 7393   3.177   3.723   4.251
 2459SOL    HW2 7394   3.083   3.711   4.385
 2460SOL     OW 7395   2.894   2.411   3.740
 2460SOL    HW1 7396   2.853   2.493   3.701
 2460SOL    HW2 7397   2.958   2.437   3.813
 2461SOL     OW 7398   2.728   2.316   4.366
 2461SOL    HW1 7399   2.696   2.388   4.304
 2461SOL    HW2 7400   2.752   2.235   4.313
 2462SOL     OW 7401   2.879   1.901   4.477
 2462SOL    HW1 7402   2.807   1.906   4.408
 2462SOL    HW2 7403   2.855   1.832   4.546
 2463SOL     OW 7404   3.291   3.035   4.591
 2463SOL    HW1 7405   3.236   2.951   4.584
 2463SOL    HW2 7406   3.317   3.064   4.499
 2464SOL     OW 7407   3.328   2.452   4.716
 2464SOL    HW1 7408   3.298   2.357   4.723
 2464SOL    HW2 7409   3.401   2.468   4.782
 2465SOL     OW 7410   3.719   2.695   4.101
 2465SOL    HW1 7411   3.761   2.631   4.165
 2465SOL    HW2 7412   3.681   2.644   4.023
 2466SOL     OW 7413   2.350   3.247   3.898
 2466SOL    HW1 7414   2.263   3.232   3.945
 2466SOL    HW2 7415   2.333   3.273   3.803
 2467SOL     OW 7416   3.526   3.142   4.381
 2467SOL    HW1 7417   3.625   3.150   4.395
 2467SOL    HW2 7418   3.481   3.226   4.412
 2468SOL     OW 7419   3.252   2.437   3.802
 2468SOL    HW1 7420   3.198   2.416   3.883
 2468SOL    HW2 7421   3.343   2.396   3.811
 2469SOL     OW 7422   2.389   2.118   4.052
 2469SOL    HW1 7423   2.416   2.059   3.977
 2469SOL    HW2 7424   2.389   2.213   4.021
 2470SOL     OW 7425   3.500   2.961   4.803
 2470SOL    HW1 7426   3.505   3.042   4.862
 2470SOL    HW2 7427   3.414   2.963   4.752
 2471SOL     OW 7428   2.567   2.912   4.092
 2471SOL    HW1 7429   2.553   2.919   4.191
 2471SOL    HW2 7430   2.651   2.861   4.074
 2472SOL     OW 7431   2.229   2.962   4.225
 2472SOL    HW1 7432   2.222   3.045   4.169
 2472SOL    HW2 7433   2.233   2.882   4.165
 2473SOL     OW 7434   2.428   2.399   4.589
 2473SOL    HW1 7435   2.440   2.465   4.515
 2473SOL    HW2 7436   2.474   2.433   4.672
 2474SOL     OW 7437   3.114   3.210   4.112
 2474SOL    HW1 7438   3.164   3.287   4.152
 2474SOL    HW2 7439   3.019   3.212   4.144
 2475SOL     OW 7440   3.444   2.501   4.196
 2475SOL    HW1 7441   3.413   2.562   4.269
 2475SOL    HW2 7442   3.494   2.553   4.127
 2476SOL     OW 7443   2.435   2.732   4.753
 2476SOL    HW1 7444   2.479   2.821   4.744
 2476SOL    HW2 7445   2.372   2.732   4.830
 2477SOL     OW 7446   3.071   2.387   3.999
 2477SOL    HW1 7447   3.084   2.303   4.053
 2477SOL    HW2 7448   3.042   2.461   4.059
 2478SOL     OW 7449   2.169   2.075   4.955
 2478SOL    HW1 7450   2.146   2.112   5.045
 2478SOL    HW2 7451   2.139   1.980   4.949
 2479SOL     OW 7452   2.594   2.496   4.788
 2479SOL    HW1 7453   2.653   2.470   4.712
 2479SOL    HW2 7454   2.566   2.592   4.777
 2480SOL     OW 7455   2.169   1.925   4.342
 2480SOL    HW1 7456   2.158   2.019   4.375
 2480SOL    HW2 7457   2.164   1.862   4.419
 2481SOL     OW 7458   3.484   2.229   4.098
 2481SOL    HW1 7459   3.486   2.153   4.162
 2481SOL    HW2 7460   3.436   2.306   4.138
 2482SOL     OW 7461   2.885   2.628   4.690
 2482SOL    HW1 7462   2.900   2.649   4.786
 2482SOL    HW2 7463   2.855   2.533   4.681
 2483SOL     OW 7464   3.402   2.136   3.849
 2483SOL    HW1 7465   3.341   2.061   3.872
 2483SOL    HW2 7466   3.424   2.188   3.932
 2484SOL     OW 7467   3.165   2.700   3.766
 2484SOL    HW1 7468   3.199   2.607   3.781
 2484SOL    HW2 7469   3.183   2.727   3.671
 2485SOL     OW 7470   2.930   3.195   4.573
 2485SOL    HW1 7471   2.937   3.111   4.518
 2485SOL    HW2 7472   2.992   3.264   4.537
 2486SOL     OW 7473   2.181   2.672   4.673
 2486SOL    HW1 7474   2.274   2.708   4.678
 2486SOL    HW2 7475   2.175   2.587   4.725
 2487SOL     OW 7476   2.201   2.371   4.730
 2487SOL    HW1 7477   2.149   2.288   4.713
 2487SOL    HW2 7478   2.278   2.376   4.666
 2488SOL     OW 7479   1.870   3.188   3.924
 2488SOL    HW1 7480   1.777   3.209   3.893
 2488SOL    HW2 7481   1.880   3.089   3.937
 2489SOL     OW 7482   1.950   3.663   4.651
 2489SOL    HW1 7483   1.908   3.577   4.624
 2489SOL    HW2 7484   2.044   3.666   4.617
 2490SOL     OW 7485   2.366   3.430   4.634
 2490SOL    HW1 7486   2.432   3.504   4.643
 2490SOL    HW2 7487   2.410   3.351   4.592
 2491SOL     OW 7488   2.864   2.658   4.962
 2491SOL    HW1 7489   2.905   2.626   5.048
 2491SOL    HW2 7490   2.768   2.631   4.959
 2492SOL     OW 7491   2.677   2.434   4.049
 2492SOL    HW1 7492   2.684   2.345   4.003
 2492SOL    HW2 7493   2.583   2.468   4.041
 2493SOL     OW 7494   2.533   2.326   4.993
 2493SOL    HW1 7495   2.499   2.237   4.963
 2493SOL    HW2 7496   2.559   2.380   4.913
 2494SOL     OW 7497   2.335   2.362   3.915
 2494SOL    HW1 7498   2.396   2.442   3.919
 2494SOL    HW2 7499   2.240   2.393   3.922
 2495SOL     OW 7500   3.164   2.717   4.033
 2495SOL    HW1 7501   3.078   2.686   4.075
 2495SOL    HW2 7502   3.160   2.703   3.934
 2496SOL     OW 7503   3.621   3.609   4.878
 2496SOL    HW1 7504   3.682   3.639   4.805
 2496SOL    HW2 7505   3.583   3.520   4.856
 2497SOL     OW 7506   1.945   3.120   4.746
 2497SOL    HW1 7507   1.940   3.119   4.846
 2497SOL    HW2 7508   1.862   3.079   4.708
 2498SOL     OW 7509   3.588   1.997   4.247
 2498SOL    HW1 7510   3.661   1.980   4.180
 2498SOL    HW2 7511   3.557   1.910   4.285
 2499SOL     OW 7512   3.250   3.435   4.201
 2499SOL    HW1 7513   3.317   3.447   4.127
 2499SOL    HW2 7514   3.210   3.524   4.224
 2500SOL     OW 7515   3.142   2.789   4.396
 2500SOL    HW1 7516   3.202   2.708   4.398
 2500SOL    HW2 7517   3.182   2.858   4.336
 2501SOL     OW 7518   2.534   3.478   3.878
 2501SOL    HW1 7519   2.543   3.488   3.779
 2501SOL    HW2 7520   2.494   3.389   3.899
 2502SOL     OW 7521   3.703   2.037   4.687
 2502SOL    HW1 7522   3.742   1.952   4.651
 2502SOL    HW2 7523   3.605   2.039   4.668
 2503SOL     OW 7524   2.125   2.188   4.444
 2503SOL    HW1 7525   2.046   2.239   4.410
 2503SOL    HW2 7526   2.116   2.173   4.542
 2504SOL     OW 7527   3.056   3.474   3.755
 2504SOL    HW1 7528   3.062   3.381   3.792
 2504SOL    HW2 7529   2.997   3.474   3.675
 2505SOL     OW 7530   2.778   2.772   4.015
 2505SOL    HW1 7531   2.841   2.810   3.947
 2505SOL    HW2 7532   2.818   2.689   4.054
 2506SOL     OW 7533   3.366   3.469   3.768
 2506SOL    HW1 7534   3.274   3.506   3.775
 2506SOL    HW2 7535   3.404   3.489   3.678
 2507SOL     OW 7536   2.901   2.960   4.420
 2507SOL    HW1 7537   2.831   2.913   4.474
 2507SOL    HW2 7538   2.960   2.892   4.377
 2508SOL     OW 7539   2.876   2.098   4.695
 2508SOL    HW1 7540   2.868   2.062   4.602
 2508SOL    HW2 7541   2.874   2.022   4.760
 2509SOL     OW 7542   2.452   3.349   4.215
 2509SOL    HW1 7543   2.494   3.291   4.145
 2509SOL    HW2 7544   2.408   3.428   4.171
 2510SOL     OW 7545   2.117   3.210   4.014
 2510SOL    HW1 7546   2.021   3.211   3.987
 2510SOL    HW2 7547   2.129   3.263   4.098
 2511SOL     OW 7548   1.937   2.207   3.757
 2511SOL    HW1 7549   1.845   2.179   3.728
 2511SOL    HW2 7550   1.968   2.284   3.701
 2512SOL     OW 7551   1.934   2.028   4.042
 2512SOL    HW1 7552   1.917   2.111   3.988
 2512SOL    HW2 7553   2.024   1.991   4.020
 2513SOL     OW 7554   3.045   3.197   3.843
 2513SOL    HW1 7555   2.946   3.186   3.845
 2513SOL    HW2 7556   3.079   3.212   3.936
 2514SOL     OW 7557   3.355   3.629   4.683
 2514SOL    HW1 7558   3.388   3.693   4.614
 2514SOL    HW2 7559   3.421   3.623   4.758
 2515SOL     OW 7560   3.536   2.745   4.978
 2515SOL    HW1 7561   3.509   2.656   4.941
 2515SOL    HW2 7562   3.537   2.813   4.905
 2516SOL     OW 7563   3.087   2.187   4.173
 2516SOL    HW1 7564   3.152   2.113   4.162
 2516SOL    HW2 7565   3.107   2.237   4.257
 2517SOL     OW 7566   2.456   2.607   4.376
 2517SOL    HW1 7567   2.506   2.692   4.357
 2517SOL    HW2 7568   2.368   2.609   4.328
 2518SOL     OW 7569   2.721   3.236   3.740
 2518SOL    HW1 7570   2.675   3.251   3.828
 2518SOL    HW2 7571   2.765   3.321   3.710
 2519SOL     OW 7572   2.523   3.652   4.677
 2519SOL    HW1 7573   2.477   3.740   4.664
 2519SOL    HW2 7574   2.622   3.664   4.670
 2520SOL     OW 7575   2.721   2.818   4.585
 2520SOL    HW1 7576   2.775   2.749   4.633
 2520SOL    HW2 7577   2.689   2.887   4.651
 2521SOL     OW 7578   2.945   2.846   3.811
 2521SOL    HW1 7579   2.922   2.899   3.729
 2521SOL    HW2 7580   3.026   2.790   3.792
 2522SOL     OW 7581   3.723   3.431   4.575
 2522SOL    HW1 7582   3.652   3.419   4.505
 2522SOL    HW2 7583   3.724   3.352   4.635
 2523SOL     OW 7584   1.941   3.102   4.377
 2523SOL    HW1 7585   1.940   3.055   4.465
 2523SOL    HW2 7586   2.023   3.074   4.326
 2524SOL     OW 7587   3.686   2.054   4.951
 2524SOL    HW1 7588   3.682   1.964   4.995
 2524SOL    HW2 7589   3.689   2.043   4.852
 2525SOL     OW 7590   2.290   2.286   4.244
 2525SOL    HW1 7591   2.320   2.214   4.182
 2525SOL    HW2 7592   2.251   2.246   4.327
 2526SOL     OW 7593   2.674   3.448   4.411
 2526SOL    HW1 7594   2.706   3.458   4.317
 2526SOL    HW2 7595   2.595   3.386   4.413
 2527SOL     OW 7596   2.632   3.192   4.025
 2527SOL    HW1 7597   2.586   3.105   4.042
 2527SOL    HW2 7598   2.723   3.189   4.066
 2528SOL     OW 7599   3.214   1.914   3.892
 2528SOL    HW1 7600   3.249   1.873   3.808
 2528SOL    HW2 7601   3.124   1.876   3.912
 2529SOL     OW 7602   3.162   2.315   4.415
 2529SOL    HW1 7603   3.103   2.395   4.419
 2529SOL    HW2 7604   3.177   2.280   4.508
 2530SOL     OW 7605   3.455   2.083   4.606
 2530SOL    HW1 7606   3.371   2.082   4.660
 2530SOL    HW2 7607   3.457   2.166   4.550
 2531SOL     OW 7608   1.901   2.939   4.024
 2531SOL    HW1 7609   2.000   2.928   4.015
 2531SOL    HW2 7610   1.861   2.853   4.056
 2532SOL     OW 7611   2.737   3.508   4.061
 2532SOL    HW1 7612   2.660   3.473   4.007
 2532SOL    HW2 7613   2.705   3.579   4.123
 2533SOL     OW 7614   2.092   4.352   0.113
 2533SOL    HW1 7615   1.999   4.350   0.150
 2533SOL    HW2 7616   2.093   4.313   0.021
 2534SOL     OW 7617   2.087   3.999   0.996
 2534SOL    HW1 7618   2.122   3.982   1.088
 2534SOL    HW2 7619   1.999   3.954   0.984
 2535SOL     OW 7620   1.881   4.092   0.647
 2535SOL    HW1 7621   1.799   4.135   0.686
 2535SOL    HW2 7622   1.853   4.019   0.584
 2536SOL     OW 7623   2.997   4.427   0.717
 2536SOL    HW1 7624   3.054   4.505   0.692
 2536SOL    HW2 7625   2.937   4.453   0.793
 2537SOL     OW 7626   3.617   4.331   0.231
 2537SOL    HW1 7627   3.605   4.318   0.132
 2537SOL    HW2 7628   3.587   4.250   0.280
 2538SOL     OW 7629   2.630   4.868   1.023
 2538SOL    HW1 7630   2.552   4.885   1.083
 2538SOL    HW2 7631   2.664   4.955   0.987
 2539SOL     OW 7632   2.712   4.522   1.823
 2539SOL    HW1 7633   2.708   4.598   1.888
 2539SOL    HW2 7634   2.734   4.558   1.732
 2540SOL     OW 7635   2.547   4.736   0.665
 2540SOL    HW1 7636   2.616   4.720   0.735
 2540SOL    HW2 7637   2.474   4.793   0.703
 2541SOL     OW 7638   2.300   4.116   1.499
 2541SOL    HW1 7639   2.382   4.060   1.508
 2541SOL    HW2 7640   2.219   4.058   1.503
 2542SOL     OW 7641   3.465   4.171   0.737
 2542SOL    HW1 7642   3.391   4.217   0.687
 2542SOL    HW2 7643   3.516   4.239   0.790
 2543SOL     OW 7644   2.092   5.158   0.538
 2543SOL    HW1 7645   2.066   5.254   0.538
 2543SOL    HW2 7646   2.021   5.104   0.583
 2544SOL     OW 7647   2.102   4.815   0.886
 2544SOL    HW1 7648   2.116   4.731   0.938
 2544SOL    HW2 7649   2.047   4.879   0.941
 2545SOL     OW 7650   2.468   4.688   0.123
 2545SOL    HW1 7651   2.475   4.772   0.069
 2545SOL    HW2 7652   2.514   4.701   0.211
 2546SOL     OW 7653   3.456   3.838   1.480
 2546SOL    HW1 7654   3.438   3.905   1.408
 2546SOL    HW2 7655   3.453   3.884   1.569
 2547SOL     OW 7656   1.984   4.367   0.563
 2547SOL    HW1 7657   1.939   4.279   0.580
 2547SOL    HW2 7658   1.983   4.421   0.647
 2548SOL     OW 7659   3.551   4.646   0.612
 2548SOL    HW1 7660   3.646   4.617   0.620
 2548SOL    HW2 7661   3.543   4.711   0.537
 2549SOL     OW 7662   1.975   4.461   1.597
 2549SOL    HW1 7663   2.063   4.448   1.642
 2549SOL    HW2 7664   1.962   4.558   1.575
 2550SOL     OW 7665   2.475   5.089   0.726
 2550SOL    HW1 7666   2.426   5.002   0.735
 2550SOL    HW2 7667   2.452   5.132   0.639
 2551SOL     OW 7668   3.155   4.952   1.423
 2551SOL    HW1 7669   3.192   4.879   1.365
 2551SOL    HW2 7670   3.207   4.957   1.508
 2552SOL     OW 7671   2.671   3.728   0.502
 2552SOL    HW1 7672   2.711   3.819   0.493
 2552SOL    HW2 7673   2.571   3.736   0.508
 2553SOL     OW 7674   2.059   4.700   1.264
 2553SOL    HW1 7675   2.148   4.655   1.250
 2553SOL    HW2 7676   1.986   4.635   1.245
 2554SOL     OW 7677   3.387   4.723   0.190
 2554SOL    HW1 7678   3.324   4.647   0.203
 2554SOL    HW2 7679   3.435   4.741   0.276
 2555SOL     OW 7680   2.179   3.975   1.801
 2555SOL    HW1 7681   2.250   4.046   1.807
 2555SOL    HW2 7682   2.091   4.014   1.829
 2556SOL     OW 7683   2.460   4.453   0.270
 2556SOL    HW1 7684   2.484   4.522   0.202
 2556SOL    HW2 7685   2.382   4.486   0.324
 2557SOL     OW 7686   3.143   4.069   0.944
 2557SOL    HW1 7687   3.057   4.019   0.931
 2557SOL    HW2 7688   3.205   4.015   1.000
 2558SOL     OW 7689   2.669   4.329   1.465
 2558SOL    HW1 7690   2.622   4.326   1.554
 2558SOL    HW2 7691   2.618   4.274   1.399
 2559SOL     OW 7692   3.256   4.193   1.674
 2559SOL    HW1 7693   3.236   4.236   1.762
 2559SOL    HW2 7694   3.334   4.131   1.683
 2560SOL     OW 7695   2.835   4.614   1.572
 2560SOL    HW1 7696   2.881   4.530   1.543
 2560SOL    HW2 7697   2.779   4.648   1.497
 2561SOL     OW 7698   2.853   4.134   1.242
 2561SOL    HW1 7699   2.776   4.168   1.296
 2561SOL    HW2 7700   2.819   4.083   1.163
 2562SOL     OW 7701   2.903   4.425   0.429
 2562SOL    HW1 7702   2.929   4.421   0.525
 2562SOL    HW2 7703   2.818   4.374   0.415
 2563SOL     OW 7704   1.938   4.535   0.789
 2563SOL    HW1 7705   2.037   4.523   0.798
 2563SOL    HW2 7706   1.914   4.630   0.810
 2564SOL     OW 7707   2.727   4.072   0.195
 2564SOL    HW1 7708   2.786   4.135   0.146
 2564SOL    HW2 7709   2.746   3.978   0.166
 2565SOL     OW 7710   3.581   4.309   1.831
 2565SOL    HW1 7711   3.555   4.398   1.795
 2565SOL    HW2 7712   3.579   4.241   1.758
 2566SOL     OW 7713   2.412   3.920   0.885
 2566SOL    HW1 7714   2.407   3.915   0.985
 2566SOL    HW2 7715   2.414   4.016   0.856
 2567SOL     OW 7716   3.657   4.790   0.873
 2567SOL    HW1 7717   3.595   4.775   0.797
 2567SOL    HW2 7718   3.605   4.801   0.958
 2568SOL     OW 7719   3.320   4.459   0.728
 2568SOL    HW1 7720   3.315   4.394   0.803
 2568SOL    HW2 7721   3.400   4.518   0.741
 2569SOL     OW 7722   2.064   4.009   1.498
 2569SOL    HW1 7723   1.984   4.069   1.485
 2569SOL    HW2 7724   2.054   3.960   1.584
 2570SOL     OW 7725   3.262   3.831   0.426
 2570SOL    HW1 7726   3.238   3.794   0.336
 2570SOL    HW2 7727   3.361   3.847   0.430
 2571SOL     OW 7728   2.244   4.424   0.480
 2571SOL    HW1 7729   2.289   4.334   0.477
 2571SOL    HW2 7730   2.150   4.413   0.513
 2572SOL     OW 7731   3.409   3.946   1.729
 2572SOL    HW1 7732   3.404   3.983   1.821
 2572SOL    HW2 7733   3.337   3.877   1.717
 2573SOL     OW 7734   2.476   3.846   0.117
 2573SOL    HW1 7735   2.574   3.824   0.124
 2573SOL    HW2 7736   2.445   3.829   0.024
 2574SOL     OW 7737   2.643   3.988   1.749
 2574SOL    HW1 7738   2.710   3.927   1.792
 2574SOL    HW2 7739   2.570   4.007   1.814
 2575SOL     OW 7740   3.213   4.314   1.433
 2575SOL    HW1 7741   3.241   4.271   1.518
 2575SOL    HW2 7742   3.238   4.410   1.434
 2576SOL     OW 7743   2.784   4.227   0.899
 2576SOL    HW1 7744   2.759   4.218   0.803
 2576SOL    HW2 7745   2.832   4.145   0.930
 2577SOL     OW 7746   2.401   3.788   0.512
 2577SOL    HW1 7747   2.320   3.789   0.570
 2577SOL    HW2 7748   2.404   3.871   0.457
 2578SOL     OW 7749   2.797   3.960   0.480
 2578SOL    HW1 7750   2.749   4.001   0.402
 2578SOL    HW2 7751   2.896   3.958   0.461
 2579SOL     OW 7752   2.938   4.407   1.464
 2579SOL    HW1 7753   2.858   4.346   1.467
 2579SOL    HW2 7754   3.019   4.354   1.440
 2580SOL     OW 7755   2.894   4.273   0.016
 2580SOL    HW1 7756   2.853   4.355  -0.023
 2580SOL    HW2 7757   2.958   4.299   0.089
 2581SOL     OW 7758   1.940   4.280   1.386
 2581SOL    HW1 7759   2.032   4.279   1.345
 2581SOL    HW2 7760   1.934   4.354   1.453
 2582SOL     OW 7761   2.423   3.946   1.147
 2582SOL    HW1 7762   2.461   3.862   1.184
 2582SOL    HW2 7763   2.335   3.965   1.191
 2583SOL     OW 7764   2.728   4.178   0.642
 2583SOL    HW1 7765   2.696   4.250   0.580
 2583SOL    HW2 7766   2.752   4.097   0.589
 2584SOL     OW 7767   2.879   3.763   0.753
 2584SOL    HW1 7768   2.807   3.768   0.684
 2584SOL    HW2 7769   2.855   3.694   0.822
 2585SOL     OW 7770   3.291   4.897   0.867
 2585SOL    HW1 7771   3.236   4.813   0.860
 2585SOL    HW2 7772   3.317   4.926   0.775
 2586SOL     OW 7773   3.328   4.314   0.992
 2586SOL    HW1 7774   3.298   4.219   0.999
 2586SOL    HW2 7775   3.401   4.330   1.058
 2587SOL     OW 7776   3.719   4.557   0.377
 2587SOL    HW1 7777   3.761   4.493   0.441
 2587SOL    HW2 7778   3.681   4.506   0.299
 2588SOL     OW 7779   3.252   4.299   0.078
 2588SOL    HW1 7780   3.198   4.278   0.159
 2588SOL    HW2 7781   3.343   4.258   0.087
 2589SOL     OW 7782   2.389   3.980   0.328
 2589SOL    HW1 7783   2.416   3.921   0.253
 2589SOL    HW2 7784   2.389   4.075   0.297
 2590SOL     OW 7785   3.616   4.947   1.588
 2590SOL    HW1 7786   3.707   4.908   1.575
 2590SOL    HW2 7787   3.624   5.043   1.612
 2591SOL     OW 7788   3.500   4.823   1.079
 2591SOL    HW1 7789   3.505   4.904   1.138
 2591SOL    HW2 7790   3.414   4.825   1.028
 2592SOL     OW 7791   2.777   3.813   1.402
 2592SOL    HW1 7792   2.802   3.793   1.307
 2592SOL    HW2 7793   2.849   3.869   1.444
 2593SOL     OW 7794   2.272   4.537   1.251
 2593SOL    HW1 7795   2.358   4.549   1.301
 2593SOL    HW2 7796   2.230   4.450   1.278
 2594SOL     OW 7797   3.136   4.110   1.262
 2594SOL    HW1 7798   3.157   4.184   1.326
 2594SOL    HW2 7799   3.047   4.127   1.219
 2595SOL     OW 7800   2.428   4.261   0.865
 2595SOL    HW1 7801   2.440   4.327   0.791
 2595SOL    HW2 7802   2.474   4.295   0.948
 2596SOL     OW 7803   3.444   4.363   0.472
 2596SOL    HW1 7804   3.413   4.424   0.545
 2596SOL    HW2 7805   3.494   4.415   0.403
 2597SOL     OW 7806   2.264   4.475   1.598
 2597SOL    HW1 7807   2.332   4.530   1.551
 2597SOL    HW2 7808   2.304   4.387   1.625
 2598SOL     OW 7809   3.449   4.503   1.670
 2598SOL    HW1 7810   3.357   4.541   1.665
 2598SOL    HW2 7811   3.509   4.550   1.605
 2599SOL     OW 7812   2.875   3.829   1.770
 2599SOL    HW1 7813   2.881   3.914   1.718
 2599SOL    HW2 7814   2.907   3.753   1.713
 2600SOL     OW 7815   2.366   3.774   1.740
 2600SOL    HW1 7816   2.324   3.717   1.670
 2600SOL    HW2 7817   2.300   3.843   1.772
 2601SOL     OW 7818   2.435   4.594   1.029
 2601SOL    HW1 7819   2.479   4.683   1.020
 2601SOL    HW2 7820   2.372   4.594   1.106
 2602SOL     OW 7821   3.222   4.586   1.045
 2602SOL    HW1 7822   3.147   4.586   0.979
 2602SOL    HW2 7823   3.259   4.494   1.054
 2603SOL     OW 7824   3.071   4.249   0.275
 2603SOL    HW1 7825   3.084   4.165   0.329
 2603SOL    HW2 7826   3.042   4.323   0.335
 2604SOL     OW 7827   2.169   3.937   1.231
 2604SOL    HW1 7828   2.146   3.974   1.321
 2604SOL    HW2 7829   2.139   3.842   1.225
 2605SOL     OW 7830   2.594   4.358   1.064
 2605SOL    HW1 7831   2.653   4.332   0.988
 2605SOL    HW2 7832   2.566   4.454   1.053
 2606SOL     OW 7833   3.590   4.659   1.854
 2606SOL    HW1 7834   3.544   4.652   1.765
 2606SOL    HW2 7835   3.528   4.703   1.920
 2607SOL     OW 7836   2.169   3.787   0.618
 2607SOL    HW1 7837   2.158   3.881   0.651
 2607SOL    HW2 7838   2.164   3.724   0.695
 2608SOL     OW 7839   3.484   4.091   0.374
 2608SOL    HW1 7840   3.486   4.015   0.438
 2608SOL    HW2 7841   3.436   4.168   0.414
 2609SOL     OW 7842   2.885   4.490   0.966
 2609SOL    HW1 7843   2.900   4.511   1.062
 2609SOL    HW2 7844   2.855   4.395   0.957
 2610SOL     OW 7845   2.212   4.622   1.804
 2610SOL    HW1 7846   2.288   4.666   1.852
 2610SOL    HW2 7847   2.247   4.575   1.722
 2611SOL     OW 7848   3.402   3.998   0.125
 2611SOL    HW1 7849   3.341   3.923   0.148
 2611SOL    HW2 7850   3.424   4.050   0.208
 2612SOL     OW 7851   3.165   4.562   0.042
 2612SOL    HW1 7852   3.199   4.469   0.057
 2612SOL    HW2 7853   3.183   4.589  -0.053
 2613SOL     OW 7854   2.181   4.534   0.949
 2613SOL    HW1 7855   2.274   4.570   0.954
 2613SOL    HW2 7856   2.175   4.449   1.001
 2614SOL     OW 7857   2.201   4.233   1.006
 2614SOL    HW1 7858   2.149   4.150   0.989
 2614SOL    HW2 7859   2.278   4.238   0.942
 2615SOL     OW 7860   3.000   4.104   1.678
 2615SOL    HW1 7861   2.955   4.167   1.742
 2615SOL    HW2 7862   3.093   4.135   1.661
 2616SOL     OW 7863   3.022   3.931   1.477
 2616SOL    HW1 7864   3.022   3.995   1.554
 2616SOL    HW2 7865   3.050   3.979   1.394
 2617SOL     OW 7866   2.864   4.520   1.238
 2617SOL    HW1 7867   2.905   4.488   1.324
 2617SOL    HW2 7868   2.768   4.493   1.235
 2618SOL     OW 7869   1.902   4.268   1.114
 2618SOL    HW1 7870   1.987   4.235   1.073
 2618SOL    HW2 7871   1.915   4.283   1.212
 2619SOL     OW 7872   2.051   4.244   1.722
 2619SOL    HW1 7873   2.110   4.204   1.652
 2619SOL    HW2 7874   1.993   4.315   1.681
 2620SOL     OW 7875   3.231   4.674   1.660
 2620SOL    HW1 7876   3.270   4.763   1.680
 2620SOL    HW2 7877   3.241   4.654   1.563
 2621SOL     OW 7878   2.677   4.296   0.325
 2621SOL    HW1 7879   2.684   4.207   0.279
 2621SOL    HW2 7880   2.583   4.330   0.317
 2622SOL     OW 7881   3.519   4.328   1.206
 2622SOL    HW1 7882   3.481   4.259   1.268
 2622SOL    HW2 7883   3.601   4.292   1.162
 2623SOL     OW 7884   2.533   4.188   1.269
 2623SOL    HW1 7885   2.499   4.099   1.239
 2623SOL    HW2 7886   2.559   4.242   1.189
 2624SOL     OW 7887   2.335   4.224   0.191
 2624SOL    HW1 7888   2.396   4.304   0.195
 2624SOL    HW2 7889   2.240   4.255   0.198
 2625SOL     OW 7890   2.021   4.861   1.466
 2625SOL    HW1 7891   2.043   4.800   1.542
 2625SOL    HW2 7892   2.031   4.812   1.380
 2626SOL     OW 7893   3.209   4.783   1.234
 2626SOL    HW1 7894   3.233   4.720   1.160
 2626SOL    HW2 7895   3.119   4.823   1.216
 2627SOL     OW 7896   3.164   4.579   0.309
 2627SOL    HW1 7897   3.078   4.548   0.351
 2627SOL    HW2 7898   3.160   4.565   0.210
 2628SOL     OW 7899   2.765   3.810   0.133
 2628SOL    HW1 7900   2.816   3.811   0.047
 2628SOL    HW2 7901   2.821   3.768   0.204
 2629SOL     OW 7902   3.588   3.859   0.523
 2629SOL    HW1 7903   3.661   3.842   0.456
 2629SOL    HW2 7904   3.557   3.772   0.561
 2630SOL     OW 7905   3.142   4.651   0.672
 2630SOL    HW1 7906   3.202   4.570   0.674
 2630SOL    HW2 7907   3.182   4.720   0.612
 2631SOL     OW 7908   3.703   3.899   0.963
 2631SOL    HW1 7909   3.742   3.814   0.927
 2631SOL    HW2 7910   3.605   3.901   0.944
 2632SOL     OW 7911   2.125   4.050   0.720
 2632SOL    HW1 7912   2.046   4.101   0.686
 2632SOL    HW2 7913   2.116   4.035   0.818
 2633SOL     OW 7914   2.684   4.726   1.372
 2633SOL    HW1 7915   2.724   4.725   1.280
 2633SOL    HW2 7916   2.694   4.818   1.412
 2634SOL     OW 7917   2.778   4.634   0.291
 2634SOL    HW1 7918   2.841   4.672   0.223
 2634SOL    HW2 7919   2.818   4.551   0.330
 2635SOL     OW 7920   2.876   3.960   0.971
 2635SOL    HW1 7921   2.868   3.924   0.878
 2635SOL    HW2 7922   2.874   3.884   1.036
 2636SOL     OW 7923   3.571   4.109   1.381
 2636SOL    HW1 7924   3.644   4.178   1.385
 2636SOL    HW2 7925   3.599   4.034   1.322
 2637SOL     OW 7926   1.967   4.737   1.726
 2637SOL    HW1 7927   1.890   4.704   1.780
 2637SOL    HW2 7928   2.052   4.707   1.768
 2638SOL     OW 7929   2.534   3.927   1.489
 2638SOL    HW1 7930   2.624   3.911   1.449
 2638SOL    HW2 7931   2.542   3.932   1.588
 2639SOL     OW 7932   3.302   4.580   1.398
 2639SOL    HW1 7933   3.245   4.632   1.335
 2639SOL    HW2 7934   3.398   4.592   1.374
 2640SOL     OW 7935   1.934   3.890   0.318
 2640SOL    HW1 7936   1.917   3.973   0.264
 2640SOL    HW2 7937   2.024   3.853   0.296
 2641SOL     OW 7938   3.045   5.059   0.119
 2641SOL    HW1 7939   2.946   5.048   0.121
 2641SOL    HW2 7940   3.079   5.074   0.212
 2642SOL     OW 7941   2.475   4.566   1.431
 2642SOL    HW1 7942   2.531   4.647   1.414
 2642SOL    HW2 7943   2.534   4.486   1.434
 2643SOL     OW 7944   2.578   4.289   1.708
 2643SOL    HW1 7945   2.597   4.354   1.782
 2643SOL    HW2 7946   2.638   4.209   1.717
 2644SOL     OW 7947   3.536   4.607   1.254
 2644SOL    HW1 7948   3.509   4.518   1.217
 2644SOL    HW2 7949   3.537   4.675   1.181
 2645SOL     OW 7950   3.087   4.049   0.449
 2645SOL    HW1 7951   3.152   3.975   0.438
 2645SOL    HW2 7952   3.107   4.099   0.533
 2646SOL     OW 7953   2.456   4.469   0.652
 2646SOL    HW1 7954   2.506   4.554   0.633
 2646SOL    HW2 7955   2.368   4.471   0.604
 2647SOL     OW 7956   3.639   4.066   1.642
 2647SOL    HW1 7957   3.622   4.097   1.548
 2647SOL    HW2 7958   3.555   4.029   1.680
 2648SOL     OW 7959   3.592   4.658   1.517
 2648SOL    HW1 7960   3.630   4.749   1.532
 2648SOL    HW2 7961   3.584   4.641   1.418
 2649SOL     OW 7962   2.721   4.680   0.861
 2649SOL    HW1 7963   2.775   4.611   0.909
 2649SOL    HW2 7964   2.689   4.749   0.927
 2650SOL     OW 7965   2.945   4.708   0.087
 2650SOL    HW1 7966   2.922   4.761   0.005
 2650SOL    HW2 7967   3.026   4.652   0.068
 2651SOL     OW 7968   3.686   3.916   1.227
 2651SOL    HW1 7969   3.682   3.826   1.271
 2651SOL    HW2 7970   3.689   3.905   1.128
 2652SOL     OW 7971   2.290   4.148   0.520
 2652SOL    HW1 7972   2.320   4.076   0.458
 2652SOL    HW2 7973   2.251   4.108   0.603
 2653SOL     OW 7974   2.179   4.271   1.280
 2653SOL    HW1 7975   2.217   4.212   1.352
 2653SOL    HW2 7976   2.219   4.245   1.192
 2654SOL     OW 7977   3.286   3.938   1.112
 2654SOL    HW1 7978   3.338   3.873   1.167
 2654SOL    HW2 7979   3.237   4.001   1.173
 2655SOL     OW 7980   2.863   3.758   1.154
 2655SOL    HW1 7981   2.800   3.686   1.123
 2655SOL    HW2 7982   2.956   3.722   1.154
 2656SOL     OW 7983   3.214   3.776   0.168
 2656SOL    HW1 7984   3.249   3.735   0.084
 2656SOL    HW2 7985   3.124   3.738   0.188
 2657SOL     OW 7986   3.162   4.177   0.691
 2657SOL    HW1 7987   3.103   4.257   0.695
 2657SOL    HW2 7988   3.177   4.142   0.784
 2658SOL     OW 7989   3.455   3.945   0.882
 2658SOL    HW1 7990   3.371   3.944   0.936
 2658SOL    HW2 7991   3.457   4.028   0.826
 2659SOL     OW 7992   1.901   4.801   0.300
 2659SOL    HW1 7993   2.000   4.790   0.291
 2659SOL    HW2 7994   1.861   4.715   0.332
 2660SOL     OW 7995   2.092   4.352   1.975
 2660SOL    HW1 7996   1.999   4.350   2.012
 2660SOL    HW2 7997   2.093   4.313   1.883
 2661SOL     OW 7998   2.087   3.999   2.858
 2661SOL    HW1 7999   2.122   3.982   2.950
 2661SOL    HW2 8000   1.999   3.954   2.846
 2662SOL     OW 8001   1.881   4.092   2.509
 2662SOL    HW1 8002   1.799   4.135   2.548
 2662SOL    HW2 8003   1.853   4.019   2.446
 2663SOL     OW 8004   2.997   4.427   2.579
 2663SOL    HW1 8005   3.054   4.505   2.554
 2663SOL    HW2 8006   2.937   4.453   2.655
 2664SOL     OW 8007   3.617   4.331   2.093
 2664SOL    HW1 8008   3.605   4.318   1.994
 2664SOL    HW2 8009   3.587   4.250   2.142
 2665SOL     OW 8010   2.630   4.868   2.885
 2665SOL    HW1 8011   2.552   4.885   2.945
 2665SOL    HW2 8012   2.664   4.955   2.849
 2666SOL     OW 8013   2.712   4.522   3.685
 2666SOL    HW1 8014   2.708   4.598   3.750
 2666SOL    HW2 8015   2.734   4.558   3.594
 2667SOL     OW 8016   2.547   4.736   2.527
 2667SOL    HW1 8017   2.616   4.720   2.597
 2667SOL    HW2 8018   2.474   4.793   2.565
 2668SOL     OW 8019   2.300   4.116   3.361
 2668SOL    HW1 8020   2.382   4.060   3.370
 2668SOL    HW2 8021   2.219   4.058   3.365
 2669SOL     OW 8022   3.465   4.171   2.599
 2669SOL    HW1 8023   3.391   4.217   2.549
 2669SOL    HW2 8024   3.516   4.239   2.652
 2670SOL     OW 8025   2.092   5.158   2.400
 2670SOL    HW1 8026   2.066   5.254   2.400
 2670SOL    HW2 8027   2.021   5.104   2.445
 2671SOL     OW 8028   2.102   4.815   2.748
 2671SOL    HW1 8029   2.116   4.731   2.800
 2671SOL    HW2 8030   2.047   4.879   2.803
 2672SOL     OW 8031   2.468   4.688   1.985
 2672SOL    HW1 8032   2.475   4.772   1.931
 2672SOL    HW2 8033   2.514   4.701   2.073
 2673SOL     OW 8034   3.456   3.838   3.342
 2673SOL    HW1 8035   3.438   3.905   3.270
 2673SOL    HW2 8036   3.453   3.884   3.431
 2674SOL     OW 8037   1.984   4.367   2.425
 2674SOL    HW1 8038   1.939   4.279   2.442
 2674SOL    HW2 8039   1.983   4.421   2.509
 2675SOL     OW 8040   3.551   4.646   2.474
 2675SOL    HW1 8041   3.646   4.617   2.482
 2675SOL    HW2 8042   3.543   4.711   2.399
 2676SOL     OW 8043   1.975   4.461   3.459
 2676SOL    HW1 8044   2.063   4.448   3.504
 2676SOL    HW2 8045   1.962   4.558   3.437
 2677SOL     OW 8046   2.475   5.089   2.588
 2677SOL    HW1 8047   2.426   5.002   2.597
 2677SOL    HW2 8048   2.452   5.132   2.501
 2678SOL     OW 8049   3.155   4.952   3.285
 2678SOL    HW1 8050   3.192   4.879   3.227
 2678SOL    HW2 8051   3.207   4.957   3.370
 2679SOL     OW 8052   2.671   3.728   2.364
 2679SOL    HW1 8053   2.711   3.819   2.355
 2679SOL    HW2 8054   2.571   3.736   2.370
 2680SOL     OW 8055   2.059   4.700   3.126
 2680SOL    HW1 8056   2.148   4.655   3.112
 2680SOL    HW2 8057   1.986   4.635   3.107
 2681SOL     OW 8058   3.387   4.723   2.052
 2681SOL    HW1 8059   3.324   4.647   2.065
 2681SOL    HW2 8060   3.435   4.741   2.138
 2682SOL     OW 8061   2.179   3.975   3.663
 2682SOL    HW1 8062   2.250   4.046   3.669
 2682SOL    HW2 8063   2.091   4.014   3.691
 2683SOL     OW 8064   2.460   4.453   2.132
 2683SOL    HW1 8065   2.484   4.522   2.064
 2683SOL    HW2 8066   2.382   4.486   2.186
 2684SOL     OW 8067   3.143   4.069   2.806
 2684SOL    HW1 8068   3.057   4.019   2.793
 2684SOL    HW2 8069   3.205   4.015   2.862
 2685SOL     OW 8070   2.669   4.329   3.327
 2685SOL    HW1 8071   2.622   4.326   3.416
 2685SOL    HW2 8072   2.618   4.274   3.261
 2686SOL     OW 8073   3.256   4.193   3.536
 2686SOL    HW1 8074   3.236   4.236   3.624
 2686SOL    HW2 8075   3.334   4.131   3.545
 2687SOL     OW 8076   2.835   4.614   3.434
 2687SOL    HW1 8077   2.881   4.530   3.405
 2687SOL    HW2 8078   2.779   4.648   3.359
 2688SOL     OW 8079   2.853   4.134   3.104
 2688SOL    HW1 8080   2.776   4.168   3.158
 2688SOL    HW2 8081   2.819   4.083   3.025
 2689SOL     OW 8082   2.903   4.425   2.291
 2689SOL    HW1 8083   2.929   4.421   2.387
 2689SOL    HW2 8084   2.818   4.374   2.277
 2690SOL     OW 8085   1.938   4.535   2.651
 2690SOL    HW1 8086   2.037   4.523   2.660
 2690SOL    HW2 8087   1.914   4.630   2.672
 2691SOL     OW 8088   2.727   4.072   2.057
 2691SOL    HW1 8089   2.786   4.135   2.008
 2691SOL    HW2 8090   2.746   3.978   2.028
 2692SOL     OW 8091   3.581   4.309   3.693
 2692SOL    HW1 8092   3.555   4.398   3.657
 2692SOL    HW2 8093   3.579   4.241   3.620
 2693SOL     OW 8094   2.412   3.920   2.747
 2693SOL    HW1 8095   2.407   3.915   2.847
 2693SOL    HW2 8096   2.414   4.016   2.718
 2694SOL     OW 8097   3.657   4.790   2.735
 2694SOL    HW1 8098   3.595   4.775   2.659
 2694SOL    HW2 8099   3.605   4.801   2.820
 2695SOL     OW 8100   3.320   4.459   2.590
 2695SOL    HW1 8101   3.315   4.394   2.665
 2695SOL    HW2 8102   3.400   4.518   2.603
 2696SOL     OW 8103   2.064   4.009   3.360
 2696SOL    HW1 8104   1.984   4.069   3.347
 2696SOL    HW2 8105   2.054   3.960   3.446
 2697SOL     OW 8106   3.262   3.831   2.288
 2697SOL    HW1 8107   3.238   3.794   2.198
 2697SOL    HW2 8108   3.361   3.847   2.292
 2698SOL     OW 8109   2.244   4.424   2.342
 2698SOL    HW1 8110   2.289   4.334   2.339
 2698SOL    HW2 8111   2.150   4.413   2.375
 2699SOL     OW 8112   3.409   3.946   3.591
 2699SOL    HW1 8113   3.404   3.983   3.683
 2699SOL    HW2 8114   3.337   3.877   3.579
 2700SOL     OW 8115   2.476   3.846   1.979
 2700SOL    HW1 8116   2.574   3.824   1.986
 2700SOL    HW2 8117   2.445   3.829   1.886
 2701SOL     OW 8118   2.643   3.988   3.611
 2701SOL    HW1 8119   2.710   3.927   3.654
 2701SOL    HW2 8120   2.570   4.007   3.676
 2702SOL     OW 8121   3.213   4.314   3.295
 2702SOL    HW1 8122   3.241   4.271   3.380
 2702SOL    HW2 8123   3.238   4.410   3.296
 2703SOL     OW 8124   2.784   4.227   2.761
 2703SOL    HW1 8125   2.759   4.218   2.665
 2703SOL    HW2 8126   2.832   4.145   2.792
 2704SOL     OW 8127   2.401   3.788   2.374
 2704SOL    HW1 8128   2.320   3.789   2.432
 2704SOL    HW2 8129   2.404   3.871   2.319
 2705SOL     OW 8130   2.159   3.759   2.033
 2705SOL    HW1 8131   2.208   3.843   2.012
 2705SOL    HW2 8132   2.221   3.694   2.078
 2706SOL     OW 8133   2.797   3.960   2.342
 2706SOL    HW1 8134   2.749   4.001   2.264
 2706SOL    HW2 8135   2.896   3.958   2.323
 2707SOL     OW 8136   2.938   4.407   3.326
 2707SOL    HW1 8137   2.858   4.346   3.329
 2707SOL    HW2 8138   3.019   4.354   3.302
 2708SOL     OW 8139   2.894   4.273   1.878
 2708SOL    HW1 8140   2.853   4.355   1.839
 2708SOL    HW2 8141   2.958   4.299   1.951
 2709SOL     OW 8142   1.940   4.280   3.248
 2709SOL    HW1 8143   2.032   4.279   3.207
 2709SOL    HW2 8144   1.934   4.354   3.315
 2710SOL     OW 8145   2.423   3.946   3.009
 2710SOL    HW1 8146   2.461   3.862   3.046
 2710SOL    HW2 8147   2.335   3.965   3.053
 2711SOL     OW 8148   2.728   4.178   2.504
 2711SOL    HW1 8149   2.696   4.250   2.442
 2711SOL    HW2 8150   2.752   4.097   2.451
 2712SOL     OW 8151   2.879   3.763   2.615
 2712SOL    HW1 8152   2.807   3.768   2.546
 2712SOL    HW2 8153   2.855   3.694   2.684
 2713SOL     OW 8154   3.291   4.897   2.729
 2713SOL    HW1 8155   3.236   4.813   2.722
 2713SOL    HW2 8156   3.317   4.926   2.637
 2714SOL     OW 8157   3.328   4.314   2.854
 2714SOL    HW1 8158   3.298   4.219   2.861
 2714SOL    HW2 8159   3.401   4.330   2.920
 2715SOL     OW 8160   3.719   4.557   2.239
 2715SOL    HW1 8161   3.761   4.493   2.303
 2715SOL    HW2 8162   3.681   4.506   2.161
 2716SOL     OW 8163   3.252   4.299   1.940
 2716SOL    HW1 8164   3.198   4.278   2.021
 2716SOL    HW2 8165   3.343   4.258   1.949
 2717SOL     OW 8166   2.389   3.980   2.190
 2717SOL    HW1 8167   2.416   3.921   2.115
 2717SOL    HW2 8168   2.389   4.075   2.159
 2718SOL     OW 8169   3.616   4.947   3.450
 2718SOL    HW1 8170   3.707   4.908   3.437
 2718SOL    HW2 8171   3.624   5.043   3.474
 2719SOL     OW 8172   3.500   4.823   2.941
 2719SOL    HW1 8173   3.505   4.904   3.000
 2719SOL    HW2 8174   3.414   4.825   2.890
 2720SOL     OW 8175   2.777   3.813   3.264
 2720SOL    HW1 8176   2.802   3.793   3.169
 2720SOL    HW2 8177   2.849   3.869   3.306
 2721SOL     OW 8178   2.272   4.537   3.113
 2721SOL    HW1 8179   2.358   4.549   3.163
 2721SOL    HW2 8180   2.230   4.450   3.140
 2722SOL     OW 8181   3.136   4.110   3.124
 2722SOL    HW1 8182   3.157   4.184   3.188
 2722SOL    HW2 8183   3.047   4.127   3.081
 2723SOL     OW 8184   2.428   4.261   2.727
 2723SOL    HW1 8185   2.440   4.327   2.653
 2723SOL    HW2 8186   2.474   4.295   2.810
 2724SOL     OW 8187   3.444   4.363   2.334
 2724SOL    HW1 8188   3.413   4.424   2.407
 2724SOL    HW2 8189   3.494   4.415   2.265
 2725SOL     OW 8190   2.264   4.475   3.460
 2725SOL    HW1 8191   2.332   4.530   3.413
 2725SOL    HW2 8192   2.304   4.387   3.487
 2726SOL     OW 8193   3.449   4.503   3.532
 2726SOL    HW1 8194   3.357   4.541   3.527
 2726SOL    HW2 8195   3.509   4.550   3.467
 2727SOL     OW 8196   2.875   3.829   3.632
 2727SOL    HW1 8197   2.881   3.914   3.580
 2727SOL    HW2 8198   2.907   3.753   3.575
 2728SOL     OW 8199   2.366   3.774   3.602
 2728SOL    HW1 8200   2.324   3.717   3.532
 2728SOL    HW2 8201   2.300   3.843   3.634
 2729SOL     OW 8202   2.435   4.594   2.891
 2729SOL    HW1 8203   2.479   4.683   2.882
 2729SOL    HW2 8204   2.372   4.594   2.968
 2730SOL     OW 8205   3.222   4.586   2.907
 2730SOL    HW1 8206   3.147   4.586   2.841
 2730SOL    HW2 8207   3.259   4.494   2.916
 2731SOL     OW 8208   3.071   4.249   2.137
 2731SOL    HW1 8209   3.084   4.165   2.191
 2731SOL    HW2 8210   3.042   4.323   2.197
 2732SOL     OW 8211   2.169   3.937   3.093
 2732SOL    HW1 8212   2.146   3.974   3.183
 2732SOL    HW2 8213   2.139   3.842   3.087
 2733SOL     OW 8214   2.594   4.358   2.926
 2733SOL    HW1 8215   2.653   4.332   2.850
 2733SOL    HW2 8216   2.566   4.454   2.915
 2734SOL     OW 8217   3.590   4.659   3.716
 2734SOL    HW1 8218   3.544   4.652   3.627
 2734SOL    HW2 8219   3.528   4.703   3.782
 2735SOL     OW 8220   2.169   3.787   2.480
 2735SOL    HW1 8221   2.158   3.881   2.513
 2735SOL    HW2 8222   2.164   3.724   2.557
 2736SOL     OW 8223   3.484   4.091   2.236
 2736SOL    HW1 8224   3.486   4.015   2.300
 2736SOL    HW2 8225   3.436   4.168   2.276
 2737SOL     OW 8226   2.885   4.490   2.828
 2737SOL    HW1 8227   2.900   4.511   2.924
 2737SOL    HW2 8228   2.855   4.395   2.819
 2738SOL     OW 8229   2.212   4.622   3.666
 2738SOL    HW1 8230   2.288   4.666   3.714
 2738SOL    HW2 8231   2.247   4.575   3.584
 2739SOL     OW 8232   3.402   3.998   1.987
 2739SOL    HW1 8233   3.341   3.923   2.010
 2739SOL    HW2 8234   3.424   4.050   2.070
 2740SOL     OW 8235   3.165   4.562   1.904
 2740SOL    HW1 8236   3.199   4.469   1.919
 2740SOL    HW2 8237   3.183   4.589   1.809
 2741SOL     OW 8238   2.181   4.534   2.811
 2741SOL    HW1 8239   2.274   4.570   2.816
 2741SOL    HW2 8240   2.175   4.449   2.863
 2742SOL     OW 8241   2.201   4.233   2.868
 2742SOL    HW1 8242   2.149   4.150   2.851
 2742SOL    HW2 8243   2.278   4.238   2.804
 2743SOL     OW 8244   3.000   4.104   3.540
 2743SOL    HW1 8245   2.955   4.167   3.604
 2743SOL    HW2 8246   3.093   4.135   3.523
 2744SOL     OW 8247   3.022   3.931   3.339
 2744SOL    HW1 8248   3.022   3.995   3.416
 2744SOL    HW2 8249   3.050   3.979   3.256
 2745SOL     OW 8250   2.864   4.520   3.100
 2745SOL    HW1 8251   2.905   4.488   3.186
 2745SOL    HW2 8252   2.768   4.493   3.097
 2746SOL     OW 8253   1.902   4.268   2.976
 2746SOL    HW1 8254   1.987   4.235   2.935
 2746SOL    HW2 8255   1.915   4.283   3.074
 2747SOL     OW 8256   2.051   4.244   3.584
 2747SOL    HW1 8257   2.110   4.204   3.514
 2747SOL    HW2 8258   1.993   4.315   3.543
 2748SOL     OW 8259   3.231   4.674   3.522
 2748SOL    HW1 8260   3.270   4.763   3.542
 2748SOL    HW2 8261   3.241   4.654   3.425
 2749SOL     OW 8262   2.677   4.296   2.187
 2749SOL    HW1 8263   2.684   4.207   2.141
 2749SOL    HW2 8264   2.583   4.330   2.179
 2750SOL     OW 8265   3.519   4.328   3.068
 2750SOL    HW1 8266   3.481   4.259   3.130
 2750SOL    HW2 8267   3.601   4.292   3.024
 2751SOL     OW 8268   2.533   4.188   3.131
 2751SOL    HW1 8269   2.499   4.099   3.101
 2751SOL    HW2 8270   2.559   4.242   3.051
 2752SOL     OW 8271   2.335   4.224   2.053
 2752SOL    HW1 8272   2.396   4.304   2.057
 2752SOL    HW2 8273   2.240   4.255   2.060
 2753SOL     OW 8274   2.021   4.861   3.328
 2753SOL    HW1 8275   2.043   4.800   3.404
 2753SOL    HW2 8276   2.031   4.812   3.242
 2754SOL     OW 8277   3.209   4.783   3.096
 2754SOL    HW1 8278   3.233   4.720   3.022
 2754SOL    HW2 8279   3.119   4.823   3.078
 2755SOL     OW 8280   3.164   4.579   2.171
 2755SOL    HW1 8281   3.078   4.548   2.213
 2755SOL    HW2 8282   3.160   4.565   2.072
 2756SOL     OW 8283   3.588   3.859   2.385
 2756SOL    HW1 8284   3.661   3.842   2.318
 2756SOL    HW2 8285   3.557   3.772   2.423
 2757SOL     OW 8286   3.142   4.651   2.534
 2757SOL    HW1 8287   3.202   4.570   2.536
 2757SOL    HW2 8288   3.182   4.720   2.474
 2758SOL     OW 8289   3.703   3.899   2.825
 2758SOL    HW1 8290   3.742   3.814   2.789
 2758SOL    HW2 8291   3.605   3.901   2.806
 2759SOL     OW 8292   2.125   4.050   2.582
 2759SOL    HW1 8293   2.046   4.101   2.548
 2759SOL    HW2 8294   2.116   4.035   2.680
 2760SOL     OW 8295   2.684   4.726   3.234
 2760SOL    HW1 8296   2.724   4.725   3.142
 2760SOL    HW2 8297   2.694   4.818   3.274
 2761SOL     OW 8298   2.778   4.634   2.153
 2761SOL    HW1 8299   2.841   4.672   2.085
 2761SOL    HW2 8300   2.818   4.551   2.192
 2762SOL     OW 8301   2.876   3.960   2.833
 2762SOL    HW1 8302   2.868   3.924   2.740
 2762SOL    HW2 8303   2.874   3.884   2.898
 2763SOL     OW 8304   3.571   4.109   3.243
 2763SOL    HW1 8305   3.644   4.178   3.247
 2763SOL    HW2 8306   3.599   4.034   3.184
 2764SOL     OW 8307   1.967   4.737   3.588
 2764SOL    HW1 8308   1.890   4.704   3.642
 2764SOL    HW2 8309   2.052   4.707   3.630
 2765SOL     OW 8310   2.534   3.927   3.351
 2765SOL    HW1 8311   2.624   3.911   3.311
 2765SOL    HW2 8312   2.542   3.932   3.450
 2766SOL     OW 8313   1.937   4.069   1.895
 2766SOL    HW1 8314   1.845   4.041   1.866
 2766SOL    HW2 8315   1.968   4.146   1.839
 2767SOL     OW 8316   3.302   4.580   3.260
 2767SOL    HW1 8317   3.245   4.632   3.197
 2767SOL    HW2 8318   3.398   4.592   3.236
 2768SOL     OW 8319   1.934   3.890   2.180
 2768SOL    HW1 8320   1.917   3.973   2.126
 2768SOL    HW2 8321   2.024   3.853   2.158
 2769SOL     OW 8322   3.045   5.059   1.981
 2769SOL    HW1 8323   2.946   5.048   1.983
 2769SOL    HW2 8324   3.079   5.074   2.074
 2770SOL     OW 8325   2.475   4.566   3.293
 2770SOL    HW1 8326   2.531   4.647   3.276
 2770SOL    HW2 8327   2.534   4.486   3.296
 2771SOL     OW 8328   2.578   4.289   3.570
 2771SOL    HW1 8329   2.597   4.354   3.644
 2771SOL    HW2 8330   2.638   4.209   3.579
 2772SOL     OW 8331   3.536   4.607   3.116
 2772SOL    HW1 8332   3.509   4.518   3.079
 2772SOL    HW2 8333   3.537   4.675   3.043
 2773SOL     OW 8334   3.087   4.049   2.311
 2773SOL    HW1 8335   3.152   3.975   2.300
 2773SOL    HW2 8336   3.107   4.099   2.395
 2774SOL     OW 8337   2.456   4.469   2.514
 2774SOL    HW1 8338   2.506   4.554   2.495
 2774SOL    HW2 8339   2.368   4.471   2.466
 2775SOL     OW 8340   3.639   4.066   3.504
 2775SOL    HW1 8341   3.622   4.097   3.410
 2775SOL    HW2 8342   3.555   4.029   3.542
 2776SOL     OW 8343   3.592   4.658   3.379
 2776SOL    HW1 8344   3.630   4.749   3.394
 2776SOL    HW2 8345   3.584   4.641   3.280
 2777SOL     OW 8346   2.721   4.680   2.723
 2777SOL    HW1 8347   2.775   4.611   2.771
 2777SOL    HW2 8348   2.689   4.749   2.789
 2778SOL     OW 8349   2.945   4.708   1.949
 2778SOL    HW1 8350   2.922   4.761   1.867
 2778SOL    HW2 8351   3.026   4.652   1.930
 2779SOL     OW 8352   3.686   3.916   3.089
 2779SOL    HW1 8353   3.682   3.826   3.133
 2779SOL    HW2 8354   3.689   3.905   2.990
 2780SOL     OW 8355   2.290   4.148   2.382
 2780SOL    HW1 8356   2.320   4.076   2.320
 2780SOL    HW2 8357   2.251   4.108   2.465
 2781SOL     OW 8358   2.179   4.271   3.142
 2781SOL    HW1 8359   2.217   4.212   3.214
 2781SOL    HW2 8360   2.219   4.245   3.054
 2782SOL     OW 8361   3.286   3.938   2.974
 2782SOL    HW1 8362   3.338   3.873   3.029
 2782SOL    HW2 8363   3.237   4.001   3.035
 2783SOL     OW 8364   2.863   3.758   3.016
 2783SOL    HW1 8365   2.800   3.686   2.985
 2783SOL    HW2 8366   2.956   3.722   3.016
 2784SOL     OW 8367   3.214   3.776   2.030
 2784SOL    HW1 8368   3.249   3.735   1.946
 2784SOL    HW2 8369   3.124   3.738   2.050
 2785SOL     OW 8370   3.162   4.177   2.553
 2785SOL    HW1 8371   3.103   4.257   2.557
 2785SOL    HW2 8372   3.177   4.142   2.646
 2786SOL     OW 8373   3.455   3.945   2.744
 2786SOL    HW1 8374   3.371   3.944   2.798
 2786SOL    HW2 8375   3.457   4.028   2.688
 2787SOL     OW 8376   1.901   4.801   2.162
 2787SOL    HW1 8377   2.000   4.790   2.153
 2787SOL    HW2 8378   1.861   4.715   2.194
 2788SOL     OW 8379   2.092   4.352   3.837
 2788SOL    HW1 8380   1.999   4.350   3.874
 2788SOL    HW2 8381   2.093   4.313   3.745
 2789SOL     OW 8382   2.087   3.999   4.720
 2789SOL    HW1 8383   2.122   3.982   4.812
 2789SOL    HW2 8384   1.999   3.954   4.708
 2790SOL     OW 8385   1.881   4.092   4.371
 2790SOL    HW1 8386   1.799   4.135   4.410
 2790SOL    HW2 8387   1.853   4.019   4.308
 2791SOL     OW 8388   2.997   4.427   4.441
 2791SOL    HW1 8389   3.054   4.505   4.416
 2791SOL    HW2 8390   2.937   4.453   4.517
 2792SOL     OW 8391   3.617   4.331   3.955
 2792SOL    HW1 8392   3.605   4.318   3.856
 2792SOL    HW2 8393   3.587   4.250   4.004
 2793SOL     OW 8394   2.630   4.868   4.747
 2793SOL    HW1 8395   2.552   4.885   4.807
 2793SOL    HW2 8396   2.664   4.955   4.711
 2794SOL     OW 8397   2.547   4.736   4.389
 2794SOL    HW1 8398   2.616   4.720   4.459
 2794SOL    HW2 8399   2.474   4.793   4.427
 2795SOL     OW 8400   3.465   4.171   4.461
 2795SOL    HW1 8401   3.391   4.217   4.411
 2795SOL    HW2 8402   3.516   4.239   4.514
 2796SOL     OW 8403   2.092   5.158   4.262
 2796SOL    HW1 8404   2.066   5.254   4.262
 2796SOL    HW2 8405   2.021   5.104   4.307
 2797SOL     OW 8406   2.102   4.815   4.610
 2797SOL    HW1 8407   2.116   4.731   4.662
 2797SOL    HW2 8408   2.047   4.879   4.665
 2798SOL     OW 8409   2.468   4.688   3.847
 2798SOL    HW1 8410   2.475   4.772   3.793
 2798SOL    HW2 8411   2.514   4.701   3.935
 2799SOL     OW 8412   1.984   4.367   4.287
 2799SOL    HW1 8413   1.939   4.279   4.304
 2799SOL    HW2 8414   1.983   4.421   4.371
 2800SOL     OW 8415   3.551   4.646   4.336
 2800SOL    HW1 8416   3.646   4.617   4.344
 2800SOL    HW2 8417   3.543   4.711   4.261
 2801SOL     OW 8418   2.475   5.089   4.450
 2801SOL    HW1 8419   2.426   5.002   4.459
 2801SOL    HW2 8420   2.452   5.132   4.363
 2802SOL     OW 8421   2.671   3.728   4.226
 2802SOL    HW1 8422   2.711   3.819   4.217
 2802SOL    HW2 8423   2.571   3.736   4.232
 2803SOL     OW 8424   2.059   4.700   4.988
 2803SOL    HW1 8425   2.148   4.655   4.974
 2803SOL    HW2 8426   1.986   4.635   4.969
 2804SOL     OW 8427   3.387   4.723   3.914
 2804SOL    HW1 8428   3.324   4.647   3.927
 2804SOL    HW2 8429   3.435   4.741   4.000
 2805SOL     OW 8430   2.460   4.453   3.994
 2805SOL    HW1 8431   2.484   4.522   3.926
 2805SOL    HW2 8432   2.382   4.486   4.048
 2806SOL     OW 8433   3.143   4.069   4.668
 2806SOL    HW1 8434   3.057   4.019   4.655
 2806SOL    HW2 8435   3.205   4.015   4.724
 2807SOL     OW 8436   2.903   4.425   4.153
 2807SOL    HW1 8437   2.929   4.421   4.249
 2807SOL    HW2 8438   2.818   4.374   4.139
 2808SOL     OW 8439   1.938   4.535   4.513
 2808SOL    HW1 8440   2.037   4.523   4.522
 2808SOL    HW2 8441   1.914   4.630   4.534
 2809SOL     OW 8442   2.727   4.072   3.919
 2809SOL    HW1 8443   2.786   4.135   3.870
 2809SOL    HW2 8444   2.746   3.978   3.890
 2810SOL     OW 8445   2.412   3.920   4.609
 2810SOL    HW1 8446   2.407   3.915   4.709
 2810SOL    HW2 8447   2.414   4.016   4.580
 2811SOL     OW 8448   3.657   4.790   4.597
 2811SOL    HW1 8449   3.595   4.775   4.521
 2811SOL    HW2 8450   3.605   4.801   4.682
 2812SOL     OW 8451   3.320   4.459   4.452
 2812SOL    HW1 8452   3.315   4.394   4.527
 2812SOL    HW2 8453   3.400   4.518   4.465
 2813SOL     OW 8454   3.262   3.831   4.150
 2813SOL    HW1 8455   3.238   3.794   4.060
 2813SOL    HW2 8456   3.361   3.847   4.154
 2814SOL     OW 8457   2.244   4.424   4.204
 2814SOL    HW1 8458   2.289   4.334   4.201
 2814SOL    HW2 8459   2.150   4.413   4.237
 2815SOL     OW 8460   2.476   3.846   3.841
 2815SOL    HW1 8461   2.574   3.824   3.848
 2815SOL    HW2 8462   2.445   3.829   3.748
 2816SOL     OW 8463   2.784   4.227   4.623
 2816SOL    HW1 8464   2.759   4.218   4.527
 2816SOL    HW2 8465   2.832   4.145   4.654
 2817SOL     OW 8466   2.401   3.788   4.236
 2817SOL    HW1 8467   2.320   3.789   4.294
 2817SOL    HW2 8468   2.404   3.871   4.181
 2818SOL     OW 8469   2.159   3.759   3.895
 2818SOL    HW1 8470   2.208   3.843   3.874
 2818SOL    HW2 8471   2.221   3.694   3.940
 2819SOL     OW 8472   2.797   3.960   4.204
 2819SOL    HW1 8473   2.749   4.001   4.126
 2819SOL    HW2 8474   2.896   3.958   4.185
 2820SOL     OW 8475   2.894   4.273   3.740
 2820SOL    HW1 8476   2.853   4.355   3.701
 2820SOL    HW2 8477   2.958   4.299   3.813
 2821SOL     OW 8478   2.728   4.178   4.366
 2821SOL    HW1 8479   2.696   4.250   4.304
 2821SOL    HW2 8480   2.752   4.097   4.313
 2822SOL     OW 8481   2.879   3.763   4.477
 2822SOL    HW1 8482   2.807   3.768   4.408
 2822SOL    HW2 8483   2.855   3.694   4.546
 2823SOL     OW 8484   3.291   4.897   4.591
 2823SOL    HW1 8485   3.236   4.813   4.584
 2823SOL    HW2 8486   3.317   4.926   4.499
 2824SOL     OW 8487   3.328   4.314   4.716
 2824SOL    HW1 8488   3.298   4.219   4.723
 2824SOL    HW2 8489   3.401   4.330   4.782
 2825SOL     OW 8490   3.719   4.557   4.101
 2825SOL    HW1 8491   3.761   4.493   4.165
 2825SOL    HW2 8492   3.681   4.506   4.023
 2826SOL     OW 8493   3.252   4.299   3.802
 2826SOL    HW1 8494   3.198   4.278   3.883
 2826SOL    HW2 8495   3.343   4.258   3.811
 2827SOL     OW 8496   2.389   3.980   4.052
 2827SOL    HW1 8497   2.416   3.921   3.977
 2827SOL    HW2 8498   2.389   4.075   4.021
 2828SOL     OW 8499   3.500   4.823   4.803
 2828SOL    HW1 8500   3.505   4.904   4.862
 2828SOL    HW2 8501   3.414   4.825   4.752
 2829SOL     OW 8502   2.428   4.261   4.589
 2829SOL    HW1 8503   2.440   4.327   4.515
 2829SOL    HW2 8504   2.474   4.295   4.672
 2830SOL     OW 8505   3.444   4.363   4.196
 2830SOL    HW1 8506   3.413   4.424   4.269
 2830SOL    HW2 8507   3.494   4.415   4.127
 2831SOL     OW 8508   2.435   4.594   4.753
 2831SOL    HW1 8509   2.479   4.683   4.744
 2831SOL    HW2 8510   2.372   4.594   4.830
 2832SOL     OW 8511   3.071   4.249   3.999
 2832SOL    HW1 8512   3.084   4.165   4.053
 2832SOL    HW2 8513   3.042   4.323   4.059
 2833SOL     OW 8514   2.169   3.937   4.955
 2833SOL    HW1 8515   2.146   3.974   5.045
 2833SOL    HW2 8516   2.139   3.842   4.949
 2834SOL     OW 8517   2.594   4.358   4.788
 2834SOL    HW1 8518   2.653   4.332   4.712
 2834SOL    HW2 8519   2.566   4.454   4.777
 2835SOL     OW 8520   2.169   3.787   4.342
 2835SOL    HW1 8521   2.158   3.881   4.375
 2835SOL    HW2 8522   2.164   3.724   4.419
 2836SOL     OW 8523   3.484   4.091   4.098
 2836SOL    HW1 8524   3.486   4.015   4.162
 2836SOL    HW2 8525   3.436   4.168   4.138
 2837SOL     OW 8526   2.885   4.490   4.690
 2837SOL    HW1 8527   2.900   4.511   4.786
 2837SOL    HW2 8528   2.855   4.395   4.681
 2838SOL     OW 8529   3.402   3.998   3.849
 2838SOL    HW1 8530   3.341   3.923   3.872
 2838SOL    HW2 8531   3.424   4.050   3.932
 2839SOL     OW 8532   3.165   4.562   3.766
 2839SOL    HW1 8533   3.199   4.469   3.781
 2839SOL    HW2 8534   3.183   4.589   3.671
 2840SOL     OW 8535   2.181   4.534   4.673
 2840SOL    HW1 8536   2.274   4.570   4.678
 2840SOL    HW2 8537   2.175   4.449   4.725
 2841SOL     OW 8538   2.201   4.233   4.730
 2841SOL    HW1 8539   2.149   4.150   4.713
 2841SOL    HW2 8540   2.278   4.238   4.666
 2842SOL     OW 8541   2.864   4.520   4.962
 2842SOL    HW1 8542   2.905   4.488   5.048
 2842SOL    HW2 8543   2.768   4.493   4.959
 2843SOL     OW 8544   2.677   4.296   4.049
 2843SOL    HW1 8545   2.684   4.207   4.003
 2843SOL    HW2 8546   2.583   4.330   4.041
 2844SOL     OW 8547   2.533   4.188   4.993
 2844SOL    HW1 8548   2.499   4.099   4.963
 2844SOL    HW2 8549   2.559   4.242   4.913
 2845SOL     OW 8550   2.335   4.224   3.915
 2845SOL    HW1 8551   2.396   4.304   3.919
 2845SOL    HW2 8552   2.240   4.255   3.922
 2846SOL     OW 8553   3.164   4.579   4.033
 2846SOL    HW1 8554   3.078   4.548   4.075
 2846SOL    HW2 8555   3.160   4.565   3.934
 2847SOL     OW 8556   3.588   3.859   4.247
 2847SOL    HW1 8557   3.661   3.842   4.180
 2847SOL    HW2 8558   3.557   3.772   4.285
 2848SOL     OW 8559   3.142   4.651   4.396
 2848SOL    HW1 8560   3.202   4.570   4.398
 2848SOL    HW2 8561   3.182   4.720   4.336
 2849SOL     OW 8562   3.703   3.899   4.687
 2849SOL    HW1 8563   3.742   3.814   4.651
 2849SOL    HW2 8564   3.605   3.901   4.668
 2850SOL     OW 8565   2.125   4.050   4.444
 2850SOL    HW1 8566   2.046   4.101   4.410
 2850SOL    HW2 8567   2.116   4.035   4.542
 2851SOL     OW 8568   2.778   4.634   4.015
 2851SOL    HW1 8569   2.841   4.672   3.947
 2851SOL    HW2 8570   2.818   4.551   4.054
 2852SOL     OW 8571   2.876   3.960   4.695
 2852SOL    HW1 8572   2.868   3.924   4.602
 2852SOL    HW2 8573   2.874   3.884   4.760
 2853SOL     OW 8574   1.937   4.069   3.757
 2853SOL    HW1 8575   1.845   4.041   3.728
 2853SOL    HW2 8576   1.968   4.146   3.701
 2854SOL     OW 8577   1.934   3.890   4.042
 2854SOL    HW1 8578   1.917   3.973   3.988
 2854SOL    HW2 8579   2.024   3.853   4.020
 2855SOL     OW 8580   3.045   5.059   3.843
 2855SOL    HW1 8581   2.946   5.048   3.845
 2855SOL    HW2 8582   3.079   5.074   3.936
 2856SOL     OW 8583   3.536   4.607   4.978
 2856SOL    HW1 8584   3.509   4.518   4.941
 2856SOL    HW2 8585   3.537   4.675   4.905
 2857SOL     OW 8586   3.087   4.049   4.173
 2857SOL    HW1 8587   3.152   3.975   4.162
 2857SOL    HW2 8588   3.107   4.099   4.257
 2858SOL     OW 8589   2.456   4.469   4.376
 2858SOL    HW1 8590   2.506   4.554   4.357
 2858SOL    HW2 8591   2.368   4.471   4.328
 2859SOL     OW 8592   2.721   4.680   4.585
 2859SOL    HW1 8593   2.775   4.611   4.633
 2859SOL    HW2 8594   2.689   4.749   4.651
 2860SOL     OW 8595   2.945   4.708   3.811
 2860SOL    HW1 8596   2.922   4.761   3.729
 2860SOL    HW2 8597   3.026   4.652   3.792
 2861SOL     OW 8598   3.686   3.916   4.951
 2861SOL    HW1 8599   3.682   3.826   4.995
 2861SOL    HW2 8600   3.689   3.905   4.852
 2862SOL     OW 8601   2.290   4.148   4.244
 2862SOL    HW1 8602   2.320   4.076   4.182
 2862SOL    HW2 8603   2.251   4.108   4.327
 2863SOL     OW 8604   3.214   3.776   3.892
 2863SOL    HW1 8605   3.249   3.735   3.808
 2863SOL    HW2 8606   3.124   3.738   3.912
 2864SOL     OW 8607   3.162   4.177   4.415
 2864SOL    HW1 8608   3.103   4.257   4.419
 2864SOL    HW2 8609   3.177   4.142   4.508
 2865SOL     OW 8610   3.455   3.945   4.606
 2865SOL    HW1 8611   3.371   3.944   4.660
 2865SOL    HW2 8612   3.457   4.028   4.550
 2866SOL     OW 8613   1.901   4.801   4.024
 2866SOL    HW1 8614   2.000   4.790   4.015
 2866SOL    HW2 8615   1.861   4.715   4.056
 2867SOL     OW 8616   3.954   0.628   0.113
 2867SOL    HW1 8617   3.861   0.626   0.150
 2867SOL    HW2 8618   3.955   0.589   0.021
 2868SOL     OW 8619   3.949   0.275   0.996
 2868SOL    HW1 8620   3.984   0.258   1.088
 2868SOL    HW2 8621   3.861   0.230   0.984
 2869SOL     OW 8622   3.743   0.368   0.647
 2869SOL    HW1 8623   3.661   0.411   0.686
 2869SOL    HW2 8624   3.715   0.295   0.584
 2870SOL     OW 8625   4.293   1.275   1.165
 2870SOL    HW1 8626   4.200   1.268   1.128
 2870SOL    HW2 8627   4.304   1.364   1.209
 2871SOL     OW 8628   4.492   1.144   1.023
 2871SOL    HW1 8629   4.414   1.161   1.083
 2871SOL    HW2 8630   4.526   1.231   0.987
 2872SOL     OW 8631   4.574   0.798   1.823
 2872SOL    HW1 8632   4.570   0.874   1.888
 2872SOL    HW2 8633   4.596   0.834   1.732
 2873SOL     OW 8634   4.409   1.012   0.665
 2873SOL    HW1 8635   4.478   0.996   0.735
 2873SOL    HW2 8636   4.336   1.069   0.703
 2874SOL     OW 8637   4.410   1.161   1.803
 2874SOL    HW1 8638   4.470   1.240   1.817
 2874SOL    HW2 8639   4.324   1.192   1.762
 2875SOL     OW 8640   4.059   1.435   1.061
 2875SOL    HW1 8641   3.981   1.404   1.008
 2875SOL    HW2 8642   4.117   1.493   1.004
 2876SOL     OW 8643   4.162   0.392   1.499
 2876SOL    HW1 8644   4.244   0.336   1.508
 2876SOL    HW2 8645   4.081   0.334   1.503
 2877SOL     OW 8646   3.955   1.713   0.483
 2877SOL    HW1 8647   3.989   1.790   0.537
 2877SOL    HW2 8648   3.999   1.713   0.393
 2878SOL     OW 8649   4.851   1.341   1.690
 2878SOL    HW1 8650   4.898   1.341   1.778
 2878SOL    HW2 8651   4.803   1.254   1.679
 2879SOL     OW 8652   3.954   1.434   0.538
 2879SOL    HW1 8653   3.928   1.530   0.538
 2879SOL    HW2 8654   3.883   1.380   0.583
 2880SOL     OW 8655   3.964   1.091   0.886
 2880SOL    HW1 8656   3.978   1.007   0.938
 2880SOL    HW2 8657   3.909   1.155   0.941
 2881SOL     OW 8658   4.344   1.786   1.439
 2881SOL    HW1 8659   4.252   1.769   1.474
 2881SOL    HW2 8660   4.372   1.878   1.465
 2882SOL     OW 8661   4.330   0.964   0.123
 2882SOL    HW1 8662   4.337   1.048   0.069
 2882SOL    HW2 8663   4.376   0.977   0.211
 2883SOL     OW 8664   3.846   0.643   0.563
 2883SOL    HW1 8665   3.801   0.555   0.580
 2883SOL    HW2 8666   3.845   0.697   0.647
 2884SOL     OW 8667   3.751   1.596   0.117
 2884SOL    HW1 8668   3.732   1.500   0.138
 2884SOL    HW2 8669   3.718   1.654   0.192
 2885SOL     OW 8670   3.837   0.737   1.597
 2885SOL    HW1 8671   3.925   0.724   1.642
 2885SOL    HW2 8672   3.824   0.834   1.575
 2886SOL     OW 8673   4.337   1.365   0.726
 2886SOL    HW1 8674   4.288   1.278   0.735
 2886SOL    HW2 8675   4.314   1.408   0.639
 2887SOL     OW 8676   4.533   0.004   0.502
 2887SOL    HW1 8677   4.573   0.095   0.493
 2887SOL    HW2 8678   4.433   0.012   0.508
 2888SOL     OW 8679   3.921   0.976   1.264
 2888SOL    HW1 8680   4.010   0.931   1.250
 2888SOL    HW2 8681   3.848   0.911   1.245
 2889SOL     OW 8682   4.041   0.251   1.801
 2889SOL    HW1 8683   4.112   0.322   1.807
 2889SOL    HW2 8684   3.953   0.290   1.829
 2890SOL     OW 8685   4.322   0.729   0.270
 2890SOL    HW1 8686   4.346   0.798   0.202
 2890SOL    HW2 8687   4.244   0.762   0.324
 2891SOL     OW 8688   4.531   0.605   1.465
 2891SOL    HW1 8689   4.484   0.602   1.554
 2891SOL    HW2 8690   4.480   0.550   1.399
 2892SOL     OW 8691   4.697   0.890   1.572
 2892SOL    HW1 8692   4.743   0.806   1.543
 2892SOL    HW2 8693   4.641   0.924   1.497
 2893SOL     OW 8694   4.715   0.410   1.242
 2893SOL    HW1 8695   4.638   0.444   1.296
 2893SOL    HW2 8696   4.681   0.359   1.163
 2894SOL     OW 8697   4.765   0.701   0.429
 2894SOL    HW1 8698   4.791   0.697   0.525
 2894SOL    HW2 8699   4.680   0.650   0.415
 2895SOL     OW 8700   3.800   0.811   0.789
 2895SOL    HW1 8701   3.899   0.799   0.798
 2895SOL    HW2 8702   3.776   0.906   0.810
 2896SOL     OW 8703   3.854   1.821   1.571
 2896SOL    HW1 8704   3.844   1.806   1.670
 2896SOL    HW2 8705   3.768   1.857   1.535
 2897SOL     OW 8706   4.589   0.348   0.195
 2897SOL    HW1 8707   4.648   0.411   0.146
 2897SOL    HW2 8708   4.608   0.254   0.166
 2898SOL     OW 8709   4.274   0.196   0.885
 2898SOL    HW1 8710   4.269   0.191   0.985
 2898SOL    HW2 8711   4.276   0.292   0.856
 2899SOL     OW 8712   4.732   1.456   0.477
 2899SOL    HW1 8713   4.686   1.528   0.425
 2899SOL    HW2 8714   4.728   1.476   0.575
 2900SOL     OW 8715   4.075   1.801   0.853
 2900SOL    HW1 8716   4.125   1.715   0.859
 2900SOL    HW2 8717   4.140   1.878   0.850
 2901SOL     OW 8718   4.045   0.943   0.242
 2901SOL    HW1 8719   4.127   0.982   0.200
 2901SOL    HW2 8720   4.018   0.861   0.193
 2902SOL     OW 8721   4.185   1.266   1.727
 2902SOL    HW1 8722   4.135   1.267   1.641
 2902SOL    HW2 8723   4.122   1.248   1.803
 2903SOL     OW 8724   3.926   0.285   1.498
 2903SOL    HW1 8725   3.846   0.345   1.485
 2903SOL    HW2 8726   3.916   0.236   1.584
 2904SOL     OW 8727   4.188   1.743   0.323
 2904SOL    HW1 8728   4.221   1.782   0.409
 2904SOL    HW2 8729   4.264   1.736   0.258
 2905SOL     OW 8730   3.973   1.785   1.241
 2905SOL    HW1 8731   4.030   1.720   1.291
 2905SOL    HW2 8732   3.957   1.752   1.148
 2906SOL     OW 8733   4.664   1.698   0.904
 2906SOL    HW1 8734   4.744   1.641   0.925
 2906SOL    HW2 8735   4.615   1.658   0.827
 2907SOL     OW 8736   4.106   0.700   0.480
 2907SOL    HW1 8737   4.151   0.610   0.477
 2907SOL    HW2 8738   4.012   0.689   0.513
 2908SOL     OW 8739   4.338   0.122   0.117
 2908SOL    HW1 8740   4.436   0.100   0.124
 2908SOL    HW2 8741   4.307   0.105   0.024
 2909SOL     OW 8742   4.505   0.264   1.749
 2909SOL    HW1 8743   4.572   0.203   1.792
 2909SOL    HW2 8744   4.432   0.283   1.814
 2910SOL     OW 8745   4.612   1.514   1.195
 2910SOL    HW1 8746   4.589   1.489   1.101
 2910SOL    HW2 8747   4.673   1.445   1.234
 2911SOL     OW 8748   4.527   1.402   0.924
 2911SOL    HW1 8749   4.617   1.416   0.882
 2911SOL    HW2 8750   4.456   1.404   0.853
 2912SOL     OW 8751   4.646   0.503   0.899
 2912SOL    HW1 8752   4.621   0.494   0.803
 2912SOL    HW2 8753   4.694   0.421   0.930
 2913SOL     OW 8754   4.263   0.064   0.512
 2913SOL    HW1 8755   4.182   0.065   0.570
 2913SOL    HW2 8756   4.266   0.147   0.457
 2914SOL     OW 8757   5.158   1.188   0.041
 2914SOL    HW1 8758   5.190   1.112   0.098
 2914SOL    HW2 8759   5.066   1.215   0.071
 2915SOL     OW 8760   4.021   0.035   0.171
 2915SOL    HW1 8761   4.070   0.119   0.150
 2915SOL    HW2 8762   4.083  -0.030   0.216
 2916SOL     OW 8763   4.659   0.236   0.480
 2916SOL    HW1 8764   4.611   0.277   0.402
 2916SOL    HW2 8765   4.758   0.234   0.461
 2917SOL     OW 8766   4.951   1.570   0.793
 2917SOL    HW1 8767   4.972   1.644   0.728
 2917SOL    HW2 8768   5.019   1.570   0.866
 2918SOL     OW 8769   4.183   1.152   0.741
 2918SOL    HW1 8770   4.112   1.125   0.806
 2918SOL    HW2 8771   4.157   1.124   0.648
 2919SOL     OW 8772   4.756   0.549   0.016
 2919SOL    HW1 8773   4.715   0.631  -0.023
 2919SOL    HW2 8774   4.820   0.575   0.089
 2920SOL     OW 8775   3.802   0.556   1.386
 2920SOL    HW1 8776   3.894   0.555   1.345
 2920SOL    HW2 8777   3.796   0.630   1.453
 2921SOL     OW 8778   4.285   0.222   1.147
 2921SOL    HW1 8779   4.323   0.138   1.184
 2921SOL    HW2 8780   4.197   0.241   1.191
 2922SOL     OW 8781   4.590   0.454   0.642
 2922SOL    HW1 8782   4.558   0.526   0.580
 2922SOL    HW2 8783   4.614   0.373   0.589
 2923SOL     OW 8784   4.741   0.039   0.753
 2923SOL    HW1 8785   4.669   0.044   0.684
 2923SOL    HW2 8786   4.717  -0.030   0.822
 2924SOL     OW 8787   4.212   1.385   0.174
 2924SOL    HW1 8788   4.125   1.370   0.221
 2924SOL    HW2 8789   4.195   1.411   0.079
 2925SOL     OW 8790   4.251   0.256   0.328
 2925SOL    HW1 8791   4.278   0.197   0.253
 2925SOL    HW2 8792   4.251   0.351   0.297
 2926SOL     OW 8793   4.639   0.089   1.402
 2926SOL    HW1 8794   4.664   0.069   1.307
 2926SOL    HW2 8795   4.711   0.145   1.444
 2927SOL     OW 8796   4.704   1.116   1.719
 2927SOL    HW1 8797   4.605   1.122   1.729
 2927SOL    HW2 8798   4.727   1.036   1.663
 2928SOL     OW 8799   4.429   1.050   0.368
 2928SOL    HW1 8800   4.415   1.057   0.467
 2928SOL    HW2 8801   4.513   0.999   0.350
 2929SOL     OW 8802   4.134   0.813   1.251
 2929SOL    HW1 8803   4.220   0.825   1.301
 2929SOL    HW2 8804   4.092   0.726   1.278
 2930SOL     OW 8805   3.788   1.564   1.331
 2930SOL    HW1 8806   3.742   1.646   1.297
 2930SOL    HW2 8807   3.886   1.583   1.340
 2931SOL     OW 8808   4.091   1.100   0.501
 2931SOL    HW1 8809   4.084   1.183   0.445
 2931SOL    HW2 8810   4.095   1.020   0.441
 2932SOL     OW 8811   4.290   0.537   0.865
 2932SOL    HW1 8812   4.302   0.603   0.791
 2932SOL    HW2 8813   4.336   0.571   0.948
 2933SOL     OW 8814   4.078   1.510   1.329
 2933SOL    HW1 8815   4.057   1.466   1.242
 2933SOL    HW2 8816   4.175   1.536   1.332
 2934SOL     OW 8817   4.126   0.751   1.598
 2934SOL    HW1 8818   4.194   0.806   1.551
 2934SOL    HW2 8819   4.166   0.663   1.625
 2935SOL     OW 8820   4.737   0.105   1.770
 2935SOL    HW1 8821   4.743   0.190   1.718
 2935SOL    HW2 8822   4.769   0.029   1.713
 2936SOL     OW 8823   4.228   0.050   1.740
 2936SOL    HW1 8824   4.186  -0.007   1.670
 2936SOL    HW2 8825   4.162   0.119   1.772
 2937SOL     OW 8826   4.297   0.870   1.029
 2937SOL    HW1 8827   4.341   0.959   1.020
 2937SOL    HW2 8828   4.234   0.870   1.106
 2938SOL     OW 8829   4.933   0.525   0.275
 2938SOL    HW1 8830   4.946   0.441   0.329
 2938SOL    HW2 8831   4.904   0.599   0.335
 2939SOL     OW 8832   4.031   0.213   1.231
 2939SOL    HW1 8833   4.008   0.250   1.321
 2939SOL    HW2 8834   4.001   0.118   1.225
 2940SOL     OW 8835   3.761   1.310   1.282
 2940SOL    HW1 8836   3.814   1.261   1.350
 2940SOL    HW2 8837   3.783   1.408   1.287
 2941SOL     OW 8838   4.456   0.634   1.064
 2941SOL    HW1 8839   4.515   0.608   0.988
 2941SOL    HW2 8840   4.428   0.730   1.053
 2942SOL     OW 8841   4.031   0.063   0.618
 2942SOL    HW1 8842   4.020   0.157   0.651
 2942SOL    HW2 8843   4.026   0.000   0.695
 2943SOL     OW 8844   4.747   0.766   0.966
 2943SOL    HW1 8845   4.762   0.787   1.062
 2943SOL    HW2 8846   4.717   0.671   0.957
 2944SOL     OW 8847   4.704   1.573   1.700
 2944SOL    HW1 8848   4.684   1.617   1.612
 2944SOL    HW2 8849   4.743   1.482   1.684
 2945SOL     OW 8850   4.074   0.898   1.804
 2945SOL    HW1 8851   4.150   0.942   1.852
 2945SOL    HW2 8852   4.109   0.851   1.722
 2946SOL     OW 8853   4.792   1.333   0.849
 2946SOL    HW1 8854   4.799   1.249   0.794
 2946SOL    HW2 8855   4.854   1.402   0.813
 2947SOL     OW 8856   4.043   0.810   0.949
 2947SOL    HW1 8857   4.136   0.846   0.954
 2947SOL    HW2 8858   4.037   0.725   1.001
 2948SOL     OW 8859   4.063   0.509   1.006
 2948SOL    HW1 8860   4.011   0.426   0.989
 2948SOL    HW2 8861   4.140   0.514   0.942
 2949SOL     OW 8862   4.862   0.380   1.678
 2949SOL    HW1 8863   4.817   0.443   1.742
 2949SOL    HW2 8864   4.955   0.411   1.661
 2950SOL     OW 8865   3.732   1.326   0.200
 2950SOL    HW1 8866   3.639   1.347   0.169
 2950SOL    HW2 8867   3.742   1.227   0.213
 2951SOL     OW 8868   3.812   1.801   0.927
 2951SOL    HW1 8869   3.770   1.715   0.900
 2951SOL    HW2 8870   3.906   1.804   0.893
 2952SOL     OW 8871   4.228   1.568   0.910
 2952SOL    HW1 8872   4.294   1.642   0.919
 2952SOL    HW2 8873   4.272   1.489   0.868
 2953SOL     OW 8874   4.726   0.796   1.238
 2953SOL    HW1 8875   4.767   0.764   1.324
 2953SOL    HW2 8876   4.630   0.769   1.235
 2954SOL     OW 8877   3.764   0.544   1.114
 2954SOL    HW1 8878   3.849   0.511   1.073
 2954SOL    HW2 8879   3.777   0.559   1.212
 2955SOL     OW 8880   3.913   0.520   1.722
 2955SOL    HW1 8881   3.972   0.480   1.652
 2955SOL    HW2 8882   3.855   0.591   1.681
 2956SOL     OW 8883   4.539   0.572   0.325
 2956SOL    HW1 8884   4.546   0.483   0.279
 2956SOL    HW2 8885   4.445   0.606   0.317
 2957SOL     OW 8886   3.976   1.564   1.744
 2957SOL    HW1 8887   3.946   1.621   1.820
 2957SOL    HW2 8888   3.969   1.467   1.770
 2958SOL     OW 8889   4.395   0.464   1.269
 2958SOL    HW1 8890   4.361   0.375   1.239
 2958SOL    HW2 8891   4.421   0.518   1.189
 2959SOL     OW 8892   4.654   1.678   1.465
 2959SOL    HW1 8893   4.630   1.660   1.370
 2959SOL    HW2 8894   4.684   1.772   1.475
 2960SOL     OW 8895   4.197   0.500   0.191
 2960SOL    HW1 8896   4.258   0.580   0.195
 2960SOL    HW2 8897   4.102   0.531   0.198
 2961SOL     OW 8898   3.883   1.137   1.466
 2961SOL    HW1 8899   3.905   1.076   1.542
 2961SOL    HW2 8900   3.893   1.088   1.380
 2962SOL     OW 8901   3.807   1.258   1.022
 2962SOL    HW1 8902   3.802   1.257   1.122
 2962SOL    HW2 8903   3.724   1.217   0.984
 2963SOL     OW 8904   4.412   1.662   1.716
 2963SOL    HW1 8905   4.356   1.743   1.725
 2963SOL    HW2 8906   4.464   1.666   1.630
 2964SOL     OW 8907   4.627   0.086   0.133
 2964SOL    HW1 8908   4.678   0.087   0.047
 2964SOL    HW2 8909   4.683   0.044   0.204
 2965SOL     OW 8910   3.854   1.794   1.851
 2965SOL    HW1 8911   3.813   1.720   1.904
 2965SOL    HW2 8912   3.918   1.845   1.909
 2966SOL     OW 8913   4.554   1.273   1.422
 2966SOL    HW1 8914   4.549   1.306   1.517
 2966SOL    HW2 8915   4.468   1.292   1.376
 2967SOL     OW 8916   4.396   1.616   0.154
 2967SOL    HW1 8917   4.405   1.626   0.055
 2967SOL    HW2 8918   4.356   1.527   0.175
 2968SOL     OW 8919   3.987   0.326   0.720
 2968SOL    HW1 8920   3.908   0.377   0.686
 2968SOL    HW2 8921   3.978   0.311   0.818
 2969SOL     OW 8922   4.546   1.002   1.372
 2969SOL    HW1 8923   4.586   1.001   1.280
 2969SOL    HW2 8924   4.556   1.094   1.412
 2970SOL     OW 8925   4.640   0.910   0.291
 2970SOL    HW1 8926   4.703   0.948   0.223
 2970SOL    HW2 8927   4.680   0.827   0.330
 2971SOL     OW 8928   4.096   1.288   1.490
 2971SOL    HW1 8929   4.083   1.381   1.456
 2971SOL    HW2 8930   4.012   1.236   1.477
 2972SOL     OW 8931   4.763   1.098   0.696
 2972SOL    HW1 8932   4.693   1.051   0.750
 2972SOL    HW2 8933   4.822   1.030   0.653
 2973SOL     OW 8934   4.738   0.236   0.971
 2973SOL    HW1 8935   4.730   0.200   0.878
 2973SOL    HW2 8936   4.736   0.160   1.036
 2974SOL     OW 8937   4.314   1.487   0.491
 2974SOL    HW1 8938   4.356   1.429   0.421
 2974SOL    HW2 8939   4.270   1.566   0.447
 2975SOL     OW 8940   3.979   1.348   0.290
 2975SOL    HW1 8941   3.883   1.349   0.263
 2975SOL    HW2 8942   3.991   1.401   0.374
 2976SOL     OW 8943   3.829   1.013   1.726
 2976SOL    HW1 8944   3.752   0.980   1.780
 2976SOL    HW2 8945   3.914   0.983   1.768
 2977SOL     OW 8946   4.396   0.203   1.489
 2977SOL    HW1 8947   4.486   0.187   1.449
 2977SOL    HW2 8948   4.404   0.208   1.588
 2978SOL     OW 8949   3.796   0.166   0.318
 2978SOL    HW1 8950   3.779   0.249   0.264
 2978SOL    HW2 8951   3.886   0.129   0.296
 2979SOL     OW 8952   4.337   0.842   1.431
 2979SOL    HW1 8953   4.393   0.923   1.414
 2979SOL    HW2 8954   4.396   0.762   1.434
 2980SOL     OW 8955   4.440   0.565   1.708
 2980SOL    HW1 8956   4.459   0.630   1.782
 2980SOL    HW2 8957   4.500   0.485   1.717
 2981SOL     OW 8958   4.114   1.741   1.560
 2981SOL    HW1 8959   4.023   1.782   1.558
 2981SOL    HW2 8960   4.107   1.647   1.592
 2982SOL     OW 8961   4.318   0.745   0.652
 2982SOL    HW1 8962   4.368   0.830   0.633
 2982SOL    HW2 8963   4.230   0.747   0.604
 2983SOL     OW 8964   4.583   1.374   0.016
 2983SOL    HW1 8965   4.537   1.389   0.104
 2983SOL    HW2 8966   4.627   1.459  -0.014
 2984SOL     OW 8967   4.385   1.790   0.953
 2984SOL    HW1 8968   4.339   1.878   0.940
 2984SOL    HW2 8969   4.484   1.802   0.946
 2985SOL     OW 8970   4.583   0.956   0.861
 2985SOL    HW1 8971   4.637   0.887   0.909
 2985SOL    HW2 8972   4.551   1.025   0.927
 2986SOL     OW 8973   4.807   0.984   0.087
 2986SOL    HW1 8974   4.784   1.037   0.005
 2986SOL    HW2 8975   4.888   0.928   0.068
 2987SOL     OW 8976   3.945   1.314   1.844
 2987SOL    HW1 8977   3.880   1.241   1.823
 2987SOL    HW2 8978   3.949   1.328   1.942
 2988SOL     OW 8979   3.803   1.240   0.653
 2988SOL    HW1 8980   3.802   1.193   0.741
 2988SOL    HW2 8981   3.885   1.212   0.602
 2989SOL     OW 8982   4.396   1.391   1.624
 2989SOL    HW1 8983   4.318   1.341   1.662
 2989SOL    HW2 8984   4.393   1.486   1.655
 2990SOL     OW 8985   4.152   0.424   0.520
 2990SOL    HW1 8986   4.182   0.352   0.458
 2990SOL    HW2 8987   4.113   0.384   0.603
 2991SOL     OW 8988   4.041   0.547   1.280
 2991SOL    HW1 8989   4.079   0.488   1.352
 2991SOL    HW2 8990   4.081   0.521   1.192
 2992SOL     OW 8991   4.536   1.586   0.687
 2992SOL    HW1 8992   4.568   1.596   0.593
 2992SOL    HW2 8993   4.457   1.524   0.689
 2993SOL     OW 8994   4.725   0.034   1.154
 2993SOL    HW1 8995   4.662  -0.038   1.123
 2993SOL    HW2 8996   4.818  -0.002   1.154
 2994SOL     OW 8997   4.494   1.330   0.301
 2994SOL    HW1 8998   4.448   1.243   0.318
 2994SOL    HW2 8999   4.585   1.327   0.342
 2995SOL     OW 9000   4.342   1.567   1.284
 2995SOL    HW1 9001   4.337   1.649   1.341
 2995SOL    HW2 9002   4.431   1.564   1.239
 2996SOL     OW 9003   3.763   1.077   0.300
 2996SOL    HW1 9004   3.862   1.066   0.291
 2996SOL    HW2 9005   3.723   0.991   0.332
 2997SOL     OW 9006   4.599   1.646   0.337
 2997SOL    HW1 9007   4.522   1.611   0.283
 2997SOL    HW2 9008   4.567   1.717   0.399
 2998SOL     OW 9009   3.954   0.628   1.975
 2998SOL    HW1 9010   3.861   0.626   2.012
 2998SOL    HW2 9011   3.955   0.589   1.883
 2999SOL     OW 9012   3.949   0.275   2.858
 2999SOL    HW1 9013   3.984   0.258   2.950
 2999SOL    HW2 9014   3.861   0.230   2.846
 3000SOL     OW 9015   3.743   0.368   2.509
 3000SOL    HW1 9016   3.661   0.411   2.548
 3000SOL    HW2 9017   3.715   0.295   2.446
 3001SOL     OW 9018   4.293   1.275   3.027
 3001SOL    HW1 9019   4.200   1.268   2.990
 3001SOL    HW2 9020   4.304   1.364   3.071
 3002SOL     OW 9021   4.492   1.144   2.885
 3002SOL    HW1 9022   4.414   1.161   2.945
 3002SOL    HW2 9023   4.526   1.231   2.849
 3003SOL     OW 9024   4.574   0.798   3.685
 3003SOL    HW1 9025   4.570   0.874   3.750
 3003SOL    HW2 9026   4.596   0.834   3.594
 3004SOL     OW 9027   4.409   1.012   2.527
 3004SOL    HW1 9028   4.478   0.996   2.597
 3004SOL    HW2 9029   4.336   1.069   2.565
 3005SOL     OW 9030   4.410   1.161   3.665
 3005SOL    HW1 9031   4.470   1.240   3.679
 3005SOL    HW2 9032   4.324   1.192   3.624
 3006SOL     OW 9033   4.059   1.435   2.923
 3006SOL    HW1 9034   3.981   1.404   2.870
 3006SOL    HW2 9035   4.117   1.493   2.866
 3007SOL     OW 9036   4.162   0.392   3.361
 3007SOL    HW1 9037   4.244   0.336   3.370
 3007SOL    HW2 9038   4.081   0.334   3.365
 3008SOL     OW 9039   3.955   1.713   2.345
 3008SOL    HW1 9040   3.989   1.790   2.399
 3008SOL    HW2 9041   3.999   1.713   2.255
 3009SOL     OW 9042   4.851   1.341   3.552
 3009SOL    HW1 9043   4.898   1.341   3.640
 3009SOL    HW2 9044   4.803   1.254   3.541
 3010SOL     OW 9045   3.954   1.434   2.400
 3010SOL    HW1 9046   3.928   1.530   2.400
 3010SOL    HW2 9047   3.883   1.380   2.445
 3011SOL     OW 9048   3.964   1.091   2.748
 3011SOL    HW1 9049   3.978   1.007   2.800
 3011SOL    HW2 9050   3.909   1.155   2.803
 3012SOL     OW 9051   4.344   1.786   3.301
 3012SOL    HW1 9052   4.252   1.769   3.336
 3012SOL    HW2 9053   4.372   1.878   3.327
 3013SOL     OW 9054   4.330   0.964   1.985
 3013SOL    HW1 9055   4.337   1.048   1.931
 3013SOL    HW2 9056   4.376   0.977   2.073
 3014SOL     OW 9057   3.846   0.643   2.425
 3014SOL    HW1 9058   3.801   0.555   2.442
 3014SOL    HW2 9059   3.845   0.697   2.509
 3015SOL     OW 9060   3.751   1.596   1.979
 3015SOL    HW1 9061   3.732   1.500   2.000
 3015SOL    HW2 9062   3.718   1.654   2.054
 3016SOL     OW 9063   3.837   0.737   3.459
 3016SOL    HW1 9064   3.925   0.724   3.504
 3016SOL    HW2 9065   3.824   0.834   3.437
 3017SOL     OW 9066   4.337   1.365   2.588
 3017SOL    HW1 9067   4.288   1.278   2.597
 3017SOL    HW2 9068   4.314   1.408   2.501
 3018SOL     OW 9069   4.533   0.004   2.364
 3018SOL    HW1 9070   4.573   0.095   2.355
 3018SOL    HW2 9071   4.433   0.012   2.370
 3019SOL     OW 9072   3.921   0.976   3.126
 3019SOL    HW1 9073   4.010   0.931   3.112
 3019SOL    HW2 9074   3.848   0.911   3.107
 3020SOL     OW 9075   4.041   0.251   3.663
 3020SOL    HW1 9076   4.112   0.322   3.669
 3020SOL    HW2 9077   3.953   0.290   3.691
 3021SOL     OW 9078   4.322   0.729   2.132
 3021SOL    HW1 9079   4.346   0.798   2.064
 3021SOL    HW2 9080   4.244   0.762   2.186
 3022SOL     OW 9081   4.531   0.605   3.327
 3022SOL    HW1 9082   4.484   0.602   3.416
 3022SOL    HW2 9083   4.480   0.550   3.261
 3023SOL     OW 9084   4.697   0.890   3.434
 3023SOL    HW1 9085   4.743   0.806   3.405
 3023SOL    HW2 9086   4.641   0.924   3.359
 3024SOL     OW 9087   4.715   0.410   3.104
 3024SOL    HW1 9088   4.638   0.444   3.158
 3024SOL    HW2 9089   4.681   0.359   3.025
 3025SOL     OW 9090   4.765   0.701   2.291
 3025SOL    HW1 9091   4.791   0.697   2.387
 3025SOL    HW2 9092   4.680   0.650   2.277
 3026SOL     OW 9093   3.800   0.811   2.651
 3026SOL    HW1 9094   3.899   0.799   2.660
 3026SOL    HW2 9095   3.776   0.906   2.672
 3027SOL     OW 9096   3.854   1.821   3.433
 3027SOL    HW1 9097   3.844   1.806   3.532
 3027SOL    HW2 9098   3.768   1.857   3.397
 3028SOL     OW 9099   4.589   0.348   2.057
 3028SOL    HW1 9100   4.648   0.411   2.008
 3028SOL    HW2 9101   4.608   0.254   2.028
 3029SOL     OW 9102   4.274   0.196   2.747
 3029SOL    HW1 9103   4.269   0.191   2.847
 3029SOL    HW2 9104   4.276   0.292   2.718
 3030SOL     OW 9105   4.732   1.456   2.339
 3030SOL    HW1 9106   4.686   1.528   2.287
 3030SOL    HW2 9107   4.728   1.476   2.437
 3031SOL     OW 9108   4.075   1.801   2.715
 3031SOL    HW1 9109   4.125   1.715   2.721
 3031SOL    HW2 9110   4.140   1.878   2.712
 3032SOL     OW 9111   4.045   0.943   2.104
 3032SOL    HW1 9112   4.127   0.982   2.062
 3032SOL    HW2 9113   4.018   0.861   2.055
 3033SOL     OW 9114   4.185   1.266   3.589
 3033SOL    HW1 9115   4.135   1.267   3.503
 3033SOL    HW2 9116   4.122   1.248   3.665
 3034SOL     OW 9117   3.926   0.285   3.360
 3034SOL    HW1 9118   3.846   0.345   3.347
 3034SOL    HW2 9119   3.916   0.236   3.446
 3035SOL     OW 9120   4.188   1.743   2.185
 3035SOL    HW1 9121   4.221   1.782   2.271
 3035SOL    HW2 9122   4.264   1.736   2.120
 3036SOL     OW 9123   3.973   1.785   3.103
 3036SOL    HW1 9124   4.030   1.720   3.153
 3036SOL    HW2 9125   3.957   1.752   3.010
 3037SOL     OW 9126   4.664   1.698   2.766
 3037SOL    HW1 9127   4.744   1.641   2.787
 3037SOL    HW2 9128   4.615   1.658   2.689
 3038SOL     OW 9129   4.106   0.700   2.342
 3038SOL    HW1 9130   4.151   0.610   2.339
 3038SOL    HW2 9131   4.012   0.689   2.375
 3039SOL     OW 9132   4.338   0.122   1.979
 3039SOL    HW1 9133   4.436   0.100   1.986
 3039SOL    HW2 9134   4.307   0.105   1.886
 3040SOL     OW 9135   4.505   0.264   3.611
 3040SOL    HW1 9136   4.572   0.203   3.654
 3040SOL    HW2 9137   4.432   0.283   3.676
 3041SOL     OW 9138   4.612   1.514   3.057
 3041SOL    HW1 9139   4.589   1.489   2.963
 3041SOL    HW2 9140   4.673   1.445   3.096
 3042SOL     OW 9141   4.527   1.402   2.786
 3042SOL    HW1 9142   4.617   1.416   2.744
 3042SOL    HW2 9143   4.456   1.404   2.715
 3043SOL     OW 9144   4.646   0.503   2.761
 3043SOL    HW1 9145   4.621   0.494   2.665
 3043SOL    HW2 9146   4.694   0.421   2.792
 3044SOL     OW 9147   4.263   0.064   2.374
 3044SOL    HW1 9148   4.182   0.065   2.432
 3044SOL    HW2 9149   4.266   0.147   2.319
 3045SOL     OW 9150   4.021   0.035   2.033
 3045SOL    HW1 9151   4.070   0.119   2.012
 3045SOL    HW2 9152   4.083  -0.030   2.078
 3046SOL     OW 9153   4.659   0.236   2.342
 3046SOL    HW1 9154   4.611   0.277   2.264
 3046SOL    HW2 9155   4.758   0.234   2.323
 3047SOL     OW 9156   4.951   1.570   2.655
 3047SOL    HW1 9157   4.972   1.644   2.590
 3047SOL    HW2 9158   5.019   1.570   2.728
 3048SOL     OW 9159   4.183   1.152   2.603
 3048SOL    HW1 9160   4.112   1.125   2.668
 3048SOL    HW2 9161   4.157   1.124   2.510
 3049SOL     OW 9162   4.756   0.549   1.878
 3049SOL    HW1 9163   4.715   0.631   1.839
 3049SOL    HW2 9164   4.820   0.575   1.951
 3050SOL     OW 9165   3.802   0.556   3.248
 3050SOL    HW1 9166   3.894   0.555   3.207
 3050SOL    HW2 9167   3.796   0.630   3.315
 3051SOL     OW 9168   4.285   0.222   3.009
 3051SOL    HW1 9169   4.323   0.138   3.046
 3051SOL    HW2 9170   4.197   0.241   3.053
 3052SOL     OW 9171   4.590   0.454   2.504
 3052SOL    HW1 9172   4.558   0.526   2.442
 3052SOL    HW2 9173   4.614   0.373   2.451
 3053SOL     OW 9174   4.741   0.039   2.615
 3053SOL    HW1 9175   4.669   0.044   2.546
 3053SOL    HW2 9176   4.717  -0.030   2.684
 3054SOL     OW 9177   4.212   1.385   2.036
 3054SOL    HW1 9178   4.125   1.370   2.083
 3054SOL    HW2 9179   4.195   1.411   1.941
 3055SOL     OW 9180   4.251   0.256   2.190
 3055SOL    HW1 9181   4.278   0.197   2.115
 3055SOL    HW2 9182   4.251   0.351   2.159
 3056SOL     OW 9183   4.639   0.089   3.264
 3056SOL    HW1 9184   4.664   0.069   3.169
 3056SOL    HW2 9185   4.711   0.145   3.306
 3057SOL     OW 9186   4.704   1.116   3.581
 3057SOL    HW1 9187   4.605   1.122   3.591
 3057SOL    HW2 9188   4.727   1.036   3.525
 3058SOL     OW 9189   4.429   1.050   2.230
 3058SOL    HW1 9190   4.415   1.057   2.329
 3058SOL    HW2 9191   4.513   0.999   2.212
 3059SOL     OW 9192   4.134   0.813   3.113
 3059SOL    HW1 9193   4.220   0.825   3.163
 3059SOL    HW2 9194   4.092   0.726   3.140
 3060SOL     OW 9195   3.788   1.564   3.193
 3060SOL    HW1 9196   3.742   1.646   3.159
 3060SOL    HW2 9197   3.886   1.583   3.202
 3061SOL     OW 9198   4.091   1.100   2.363
 3061SOL    HW1 9199   4.084   1.183   2.307
 3061SOL    HW2 9200   4.095   1.020   2.303
 3062SOL     OW 9201   4.290   0.537   2.727
 3062SOL    HW1 9202   4.302   0.603   2.653
 3062SOL    HW2 9203   4.336   0.571   2.810
 3063SOL     OW 9204   4.078   1.510   3.191
 3063SOL    HW1 9205   4.057   1.466   3.104
 3063SOL    HW2 9206   4.175   1.536   3.194
 3064SOL     OW 9207   4.126   0.751   3.460
 3064SOL    HW1 9208   4.194   0.806   3.413
 3064SOL    HW2 9209   4.166   0.663   3.487
 3065SOL     OW 9210   4.737   0.105   3.632
 3065SOL    HW1 9211   4.743   0.190   3.580
 3065SOL    HW2 9212   4.769   0.029   3.575
 3066SOL     OW 9213   4.228   0.050   3.602
 3066SOL    HW1 9214   4.186  -0.007   3.532
 3066SOL    HW2 9215   4.162   0.119   3.634
 3067SOL     OW 9216   4.297   0.870   2.891
 3067SOL    HW1 9217   4.341   0.959   2.882
 3067SOL    HW2 9218   4.234   0.870   2.968
 3068SOL     OW 9219   4.933   0.525   2.137
 3068SOL    HW1 9220   4.946   0.441   2.191
 3068SOL    HW2 9221   4.904   0.599   2.197
 3069SOL     OW 9222   4.031   0.213   3.093
 3069SOL    HW1 9223   4.008   0.250   3.183
 3069SOL    HW2 9224   4.001   0.118   3.087
 3070SOL     OW 9225   3.761   1.310   3.144
 3070SOL    HW1 9226   3.814   1.261   3.212
 3070SOL    HW2 9227   3.783   1.408   3.149
 3071SOL     OW 9228   4.456   0.634   2.926
 3071SOL    HW1 9229   4.515   0.608   2.850
 3071SOL    HW2 9230   4.428   0.730   2.915
 3072SOL     OW 9231   4.031   0.063   2.480
 3072SOL    HW1 9232   4.020   0.157   2.513
 3072SOL    HW2 9233   4.026   0.000   2.557
 3073SOL     OW 9234   4.747   0.766   2.828
 3073SOL    HW1 9235   4.762   0.787   2.924
 3073SOL    HW2 9236   4.717   0.671   2.819
 3074SOL     OW 9237   4.704   1.573   3.562
 3074SOL    HW1 9238   4.684   1.617   3.474
 3074SOL    HW2 9239   4.743   1.482   3.546
 3075SOL     OW 9240   4.074   0.898   3.666
 3075SOL    HW1 9241   4.150   0.942   3.714
 3075SOL    HW2 9242   4.109   0.851   3.584
 3076SOL     OW 9243   4.792   1.333   2.711
 3076SOL    HW1 9244   4.799   1.249   2.656
 3076SOL    HW2 9245   4.854   1.402   2.675
 3077SOL     OW 9246   4.043   0.810   2.811
 3077SOL    HW1 9247   4.136   0.846   2.816
 3077SOL    HW2 9248   4.037   0.725   2.863
 3078SOL     OW 9249   4.063   0.509   2.868
 3078SOL    HW1 9250   4.011   0.426   2.851
 3078SOL    HW2 9251   4.140   0.514   2.804
 3079SOL     OW 9252   4.862   0.380   3.540
 3079SOL    HW1 9253   4.817   0.443   3.604
 3079SOL    HW2 9254   4.955   0.411   3.523
 3080SOL     OW 9255   3.732   1.326   2.062
 3080SOL    HW1 9256   3.639   1.347   2.031
 3080SOL    HW2 9257   3.742   1.227   2.075
 3081SOL     OW 9258   3.812   1.801   2.789
 3081SOL    HW1 9259   3.770   1.715   2.762
 3081SOL    HW2 9260   3.906   1.804   2.755
 3082SOL     OW 9261   4.228   1.568   2.772
 3082SOL    HW1 9262   4.294   1.642   2.781
 3082SOL    HW2 9263   4.272   1.489   2.730
 3083SOL     OW 9264   4.726   0.796   3.100
 3083SOL    HW1 9265   4.767   0.764   3.186
 3083SOL    HW2 9266   4.630   0.769   3.097
 3084SOL     OW 9267   3.764   0.544   2.976
 3084SOL    HW1 9268   3.849   0.511   2.935
 3084SOL    HW2 9269   3.777   0.559   3.074
 3085SOL     OW 9270   3.913   0.520   3.584
 3085SOL    HW1 9271   3.972   0.480   3.514
 3085SOL    HW2 9272   3.855   0.591   3.543
 3086SOL     OW 9273   4.539   0.572   2.187
 3086SOL    HW1 9274   4.546   0.483   2.141
 3086SOL    HW2 9275   4.445   0.606   2.179
 3087SOL     OW 9276   3.976   1.564   3.606
 3087SOL    HW1 9277   3.946   1.621   3.682
 3087SOL    HW2 9278   3.969   1.467   3.632
 3088SOL     OW 9279   4.395   0.464   3.131
 3088SOL    HW1 9280   4.361   0.375   3.101
 3088SOL    HW2 9281   4.421   0.518   3.051
 3089SOL     OW 9282   4.654   1.678   3.327
 3089SOL    HW1 9283   4.630   1.660   3.232
 3089SOL    HW2 9284   4.684   1.772   3.337
 3090SOL     OW 9285   4.197   0.500   2.053
 3090SOL    HW1 9286   4.258   0.580   2.057
 3090SOL    HW2 9287   4.102   0.531   2.060
 3091SOL     OW 9288   3.883   1.137   3.328
 3091SOL    HW1 9289   3.905   1.076   3.404
 3091SOL    HW2 9290   3.893   1.088   3.242
 3092SOL     OW 9291   3.807   1.258   2.884
 3092SOL    HW1 9292   3.802   1.257   2.984
 3092SOL    HW2 9293   3.724   1.217   2.846
 3093SOL     OW 9294   4.412   1.662   3.578
 3093SOL    HW1 9295   4.356   1.743   3.587
 3093SOL    HW2 9296   4.464   1.666   3.492
 3094SOL     OW 9297   3.854   1.794   3.713
 3094SOL    HW1 9298   3.813   1.720   3.766
 3094SOL    HW2 9299   3.918   1.845   3.771
 3095SOL     OW 9300   4.554   1.273   3.284
 3095SOL    HW1 9301   4.549   1.306   3.379
 3095SOL    HW2 9302   4.468   1.292   3.238
 3096SOL     OW 9303   4.396   1.616   2.016
 3096SOL    HW1 9304   4.405   1.626   1.917
 3096SOL    HW2 9305   4.356   1.527   2.037
 3097SOL     OW 9306   3.987   0.326   2.582
 3097SOL    HW1 9307   3.908   0.377   2.548
 3097SOL    HW2 9308   3.978   0.311   2.680
 3098SOL     OW 9309   4.546   1.002   3.234
 3098SOL    HW1 9310   4.586   1.001   3.142
 3098SOL    HW2 9311   4.556   1.094   3.274
 3099SOL     OW 9312   4.640   0.910   2.153
 3099SOL    HW1 9313   4.703   0.948   2.085
 3099SOL    HW2 9314   4.680   0.827   2.192
 3100SOL     OW 9315   4.096   1.288   3.352
 3100SOL    HW1 9316   4.083   1.381   3.318
 3100SOL    HW2 9317   4.012   1.236   3.339
 3101SOL     OW 9318   4.763   1.098   2.558
 3101SOL    HW1 9319   4.693   1.051   2.612
 3101SOL    HW2 9320   4.822   1.030   2.515
 3102SOL     OW 9321   4.738   0.236   2.833
 3102SOL    HW1 9322   4.730   0.200   2.740
 3102SOL    HW2 9323   4.736   0.160   2.898
 3103SOL     OW 9324   4.314   1.487   2.353
 3103SOL    HW1 9325   4.356   1.429   2.283
 3103SOL    HW2 9326   4.270   1.566   2.309
 3104SOL     OW 9327   3.979   1.348   2.152
 3104SOL    HW1 9328   3.883   1.349   2.125
 3104SOL    HW2 9329   3.991   1.401   2.236
 3105SOL     OW 9330   3.829   1.013   3.588
 3105SOL    HW1 9331   3.752   0.980   3.642
 3105SOL    HW2 9332   3.914   0.983   3.630
 3106SOL     OW 9333   4.396   0.203   3.351
 3106SOL    HW1 9334   4.486   0.187   3.311
 3106SOL    HW2 9335   4.404   0.208   3.450
 3107SOL     OW 9336   3.799   0.345   1.895
 3107SOL    HW1 9337   3.707   0.317   1.866
 3107SOL    HW2 9338   3.830   0.422   1.839
 3108SOL     OW 9339   3.796   0.166   2.180
 3108SOL    HW1 9340   3.779   0.249   2.126
 3108SOL    HW2 9341   3.886   0.129   2.158
 3109SOL     OW 9342   4.337   0.842   3.293
 3109SOL    HW1 9343   4.393   0.923   3.276
 3109SOL    HW2 9344   4.396   0.762   3.296
 3110SOL     OW 9345   4.440   0.565   3.570
 3110SOL    HW1 9346   4.459   0.630   3.644
 3110SOL    HW2 9347   4.500   0.485   3.579
 3111SOL     OW 9348   4.114   1.741   3.422
 3111SOL    HW1 9349   4.023   1.782   3.420
 3111SOL    HW2 9350   4.107   1.647   3.454
 3112SOL     OW 9351   4.318   0.745   2.514
 3112SOL    HW1 9352   4.368   0.830   2.495
 3112SOL    HW2 9353   4.230   0.747   2.466
 3113SOL     OW 9354   4.583   1.374   1.878
 3113SOL    HW1 9355   4.537   1.389   1.966
 3113SOL    HW2 9356   4.627   1.459   1.848
 3114SOL     OW 9357   4.385   1.790   2.815
 3114SOL    HW1 9358   4.339   1.878   2.802
 3114SOL    HW2 9359   4.484   1.802   2.808
 3115SOL     OW 9360   4.583   0.956   2.723
 3115SOL    HW1 9361   4.637   0.887   2.771
 3115SOL    HW2 9362   4.551   1.025   2.789
 3116SOL     OW 9363   4.807   0.984   1.949
 3116SOL    HW1 9364   4.784   1.037   1.867
 3116SOL    HW2 9365   4.888   0.928   1.930
 3117SOL     OW 9366   3.945   1.314   3.706
 3117SOL    HW1 9367   3.880   1.241   3.685
 3117SOL    HW2 9368   3.949   1.328   3.804
 3118SOL     OW 9369   3.803   1.240   2.515
 3118SOL    HW1 9370   3.802   1.193   2.603
 3118SOL    HW2 9371   3.885   1.212   2.464
 3119SOL     OW 9372   4.396   1.391   3.486
 3119SOL    HW1 9373   4.318   1.341   3.524
 3119SOL    HW2 9374   4.393   1.486   3.517
 3120SOL     OW 9375   4.152   0.424   2.382
 3120SOL    HW1 9376   4.182   0.352   2.320
 3120SOL    HW2 9377   4.113   0.384   2.465
 3121SOL     OW 9378   4.041   0.547   3.142
 3121SOL    HW1 9379   4.079   0.488   3.214
 3121SOL    HW2 9380   4.081   0.521   3.054
 3122SOL     OW 9381   4.536   1.586   2.549
 3122SOL    HW1 9382   4.568   1.596   2.455
 3122SOL    HW2 9383   4.457   1.524   2.551
 3123SOL     OW 9384   4.725   0.034   3.016
 3123SOL    HW1 9385   4.662  -0.038   2.985
 3123SOL    HW2 9386   4.818  -0.002   3.016
 3124SOL     OW 9387   4.494   1.330   2.163
 3124SOL    HW1 9388   4.448   1.243   2.180
 3124SOL    HW2 9389   4.585   1.327   2.204
 3125SOL     OW 9390   4.342   1.567   3.146
 3125SOL    HW1 9391   4.337   1.649   3.203
 3125SOL    HW2 9392   4.431   1.564   3.101
 3126SOL     OW 9393   3.763   1.077   2.162
 3126SOL    HW1 9394   3.862   1.066   2.153
 3126SOL    HW2 9395   3.723   0.991   2.194
 3127SOL     OW 9396   4.599   1.646   2.199
 3127SOL    HW1 9397   4.522   1.611   2.145
 3127SOL    HW2 9398   4.567   1.717   2.261
 3128SOL     OW 9399   3.954   0.628   3.837
 3128SOL    HW1 9400   3.861   0.626   3.874
 3128SOL    HW2 9401   3.955   0.589   3.745
 3129SOL     OW 9402   3.949   0.275   4.720
 3129SOL    HW1 9403   3.984   0.258   4.812
 3129SOL    HW2 9404   3.861   0.230   4.708
 3130SOL     OW 9405   3.743   0.368   4.371
 3130SOL    HW1 9406   3.661   0.411   4.410
 3130SOL    HW2 9407   3.715   0.295   4.308
 3131SOL     OW 9408   4.492   1.144   4.747
 3131SOL    HW1 9409   4.414   1.161   4.807
 3131SOL    HW2 9410   4.526   1.231   4.711
 3132SOL     OW 9411   4.409   1.012   4.389
 3132SOL    HW1 9412   4.478   0.996   4.459
 3132SOL    HW2 9413   4.336   1.069   4.427
 3133SOL     OW 9414   4.059   1.435   4.785
 3133SOL    HW1 9415   3.981   1.404   4.732
 3133SOL    HW2 9416   4.117   1.493   4.728
 3134SOL     OW 9417   3.955   1.713   4.207
 3134SOL    HW1 9418   3.989   1.790   4.261
 3134SOL    HW2 9419   3.999   1.713   4.117
 3135SOL     OW 9420   3.954   1.434   4.262
 3135SOL    HW1 9421   3.928   1.530   4.262
 3135SOL    HW2 9422   3.883   1.380   4.307
 3136SOL     OW 9423   3.964   1.091   4.610
 3136SOL    HW1 9424   3.978   1.007   4.662
 3136SOL    HW2 9425   3.909   1.155   4.665
 3137SOL     OW 9426   4.330   0.964   3.847
 3137SOL    HW1 9427   4.337   1.048   3.793
 3137SOL    HW2 9428   4.376   0.977   3.935
 3138SOL     OW 9429   3.846   0.643   4.287
 3138SOL    HW1 9430   3.801   0.555   4.304
 3138SOL    HW2 9431   3.845   0.697   4.371
 3139SOL     OW 9432   3.751   1.596   3.841
 3139SOL    HW1 9433   3.732   1.500   3.862
 3139SOL    HW2 9434   3.718   1.654   3.916
 3140SOL     OW 9435   4.337   1.365   4.450
 3140SOL    HW1 9436   4.288   1.278   4.459
 3140SOL    HW2 9437   4.314   1.408   4.363
 3141SOL     OW 9438   4.533   0.004   4.226
 3141SOL    HW1 9439   4.573   0.095   4.217
 3141SOL    HW2 9440   4.433   0.012   4.232
 3142SOL     OW 9441   4.322   0.729   3.994
 3142SOL    HW1 9442   4.346   0.798   3.926
 3142SOL    HW2 9443   4.244   0.762   4.048
 3143SOL     OW 9444   4.765   0.701   4.153
 3143SOL    HW1 9445   4.791   0.697   4.249
 3143SOL    HW2 9446   4.680   0.650   4.139
 3144SOL     OW 9447   3.800   0.811   4.513
 3144SOL    HW1 9448   3.899   0.799   4.522
 3144SOL    HW2 9449   3.776   0.906   4.534
 3145SOL     OW 9450   4.589   0.348   3.919
 3145SOL    HW1 9451   4.648   0.411   3.870
 3145SOL    HW2 9452   4.608   0.254   3.890
 3146SOL     OW 9453   4.274   0.196   4.609
 3146SOL    HW1 9454   4.269   0.191   4.709
 3146SOL    HW2 9455   4.276   0.292   4.580
 3147SOL     OW 9456   4.732   1.456   4.201
 3147SOL    HW1 9457   4.686   1.528   4.149
 3147SOL    HW2 9458   4.728   1.476   4.299
 3148SOL     OW 9459   4.075   1.801   4.577
 3148SOL    HW1 9460   4.125   1.715   4.583
 3148SOL    HW2 9461   4.140   1.878   4.574
 3149SOL     OW 9462   4.045   0.943   3.966
 3149SOL    HW1 9463   4.127   0.982   3.924
 3149SOL    HW2 9464   4.018   0.861   3.917
 3150SOL     OW 9465   4.188   1.743   4.047
 3150SOL    HW1 9466   4.221   1.782   4.133
 3150SOL    HW2 9467   4.264   1.736   3.982
 3151SOL     OW 9468   3.973   1.785   4.965
 3151SOL    HW1 9469   4.030   1.720   5.015
 3151SOL    HW2 9470   3.957   1.752   4.872
 3152SOL     OW 9471   4.664   1.698   4.628
 3152SOL    HW1 9472   4.744   1.641   4.649
 3152SOL    HW2 9473   4.615   1.658   4.551
 3153SOL     OW 9474   4.106   0.700   4.204
 3153SOL    HW1 9475   4.151   0.610   4.201
 3153SOL    HW2 9476   4.012   0.689   4.237
 3154SOL     OW 9477   4.338   0.122   3.841
 3154SOL    HW1 9478   4.436   0.100   3.848
 3154SOL    HW2 9479   4.307   0.105   3.748
 3155SOL     OW 9480   4.527   1.402   4.648
 3155SOL    HW1 9481   4.617   1.416   4.606
 3155SOL    HW2 9482   4.456   1.404   4.577
 3156SOL     OW 9483   4.646   0.503   4.623
 3156SOL    HW1 9484   4.621   0.494   4.527
 3156SOL    HW2 9485   4.694   0.421   4.654
 3157SOL     OW 9486   4.263   0.064   4.236
 3157SOL    HW1 9487   4.182   0.065   4.294
 3157SOL    HW2 9488   4.266   0.147   4.181
 3158SOL     OW 9489   4.021   0.035   3.895
 3158SOL    HW1 9490   4.070   0.119   3.874
 3158SOL    HW2 9491   4.083  -0.030   3.940
 3159SOL     OW 9492   4.659   0.236   4.204
 3159SOL    HW1 9493   4.611   0.277   4.126
 3159SOL    HW2 9494   4.758   0.234   4.185
 3160SOL     OW 9495   4.951   1.570   4.517
 3160SOL    HW1 9496   4.972   1.644   4.452
 3160SOL    HW2 9497   5.019   1.570   4.590
 3161SOL     OW 9498   4.183   1.152   4.465
 3161SOL    HW1 9499   4.112   1.125   4.530
 3161SOL    HW2 9500   4.157   1.124   4.372
 3162SOL     OW 9501   4.756   0.549   3.740
 3162SOL    HW1 9502   4.715   0.631   3.701
 3162SOL    HW2 9503   4.820   0.575   3.813
 3163SOL     OW 9504   4.590   0.454   4.366
 3163SOL    HW1 9505   4.558   0.526   4.304
 3163SOL    HW2 9506   4.614   0.373   4.313
 3164SOL     OW 9507   4.741   0.039   4.477
 3164SOL    HW1 9508   4.669   0.044   4.408
 3164SOL    HW2 9509   4.717  -0.030   4.546
 3165SOL     OW 9510   4.212   1.385   3.898
 3165SOL    HW1 9511   4.125   1.370   3.945
 3165SOL    HW2 9512   4.195   1.411   3.803
 3166SOL     OW 9513   4.251   0.256   4.052
 3166SOL    HW1 9514   4.278   0.197   3.977
 3166SOL    HW2 9515   4.251   0.351   4.021
 3167SOL     OW 9516   4.429   1.050   4.092
 3167SOL    HW1 9517   4.415   1.057   4.191
 3167SOL    HW2 9518   4.513   0.999   4.074
 3168SOL     OW 9519   4.091   1.100   4.225
 3168SOL    HW1 9520   4.084   1.183   4.169
 3168SOL    HW2 9521   4.095   1.020   4.165
 3169SOL     OW 9522   4.290   0.537   4.589
 3169SOL    HW1 9523   4.302   0.603   4.515
 3169SOL    HW2 9524   4.336   0.571   4.672
 3170SOL     OW 9525   4.297   0.870   4.753
 3170SOL    HW1 9526   4.341   0.959   4.744
 3170SOL    HW2 9527   4.234   0.870   4.830
 3171SOL     OW 9528   4.933   0.525   3.999
 3171SOL    HW1 9529   4.946   0.441   4.053
 3171SOL    HW2 9530   4.904   0.599   4.059
 3172SOL     OW 9531   4.456   0.634   4.788
 3172SOL    HW1 9532   4.515   0.608   4.712
 3172SOL    HW2 9533   4.428   0.730   4.777
 3173SOL     OW 9534   4.031   0.063   4.342
 3173SOL    HW1 9535   4.020   0.157   4.375
 3173SOL    HW2 9536   4.026   0.000   4.419
 3174SOL     OW 9537   4.747   0.766   4.690
 3174SOL    HW1 9538   4.762   0.787   4.786
 3174SOL    HW2 9539   4.717   0.671   4.681
 3175SOL     OW 9540   4.792   1.333   4.573
 3175SOL    HW1 9541   4.799   1.249   4.518
 3175SOL    HW2 9542   4.854   1.402   4.537
 3176SOL     OW 9543   4.043   0.810   4.673
 3176SOL    HW1 9544   4.136   0.846   4.678
 3176SOL    HW2 9545   4.037   0.725   4.725
 3177SOL     OW 9546   4.063   0.509   4.730
 3177SOL    HW1 9547   4.011   0.426   4.713
 3177SOL    HW2 9548   4.140   0.514   4.666
 3178SOL     OW 9549   3.732   1.326   3.924
 3178SOL    HW1 9550   3.639   1.347   3.893
 3178SOL    HW2 9551   3.742   1.227   3.937
 3179SOL     OW 9552   3.812   1.801   4.651
 3179SOL    HW1 9553   3.770   1.715   4.624
 3179SOL    HW2 9554   3.906   1.804   4.617
 3180SOL     OW 9555   4.228   1.568   4.634
 3180SOL    HW1 9556   4.294   1.642   4.643
 3180SOL    HW2 9557   4.272   1.489   4.592
 3181SOL     OW 9558   4.726   0.796   4.962
 3181SOL    HW1 9559   4.767   0.764   5.048
 3181SOL    HW2 9560   4.630   0.769   4.959
 3182SOL     OW 9561   4.539   0.572   4.049
 3182SOL    HW1 9562   4.546   0.483   4.003
 3182SOL    HW2 9563   4.445   0.606   4.041
 3183SOL     OW 9564   4.395   0.464   4.993
 3183SOL    HW1 9565   4.361   0.375   4.963
 3183SOL    HW2 9566   4.421   0.518   4.913
 3184SOL     OW 9567   4.197   0.500   3.915
 3184SOL    HW1 9568   4.258   0.580   3.919
 3184SOL    HW2 9569   4.102   0.531   3.922
 3185SOL     OW 9570   3.807   1.258   4.746
 3185SOL    HW1 9571   3.802   1.257   4.846
 3185SOL    HW2 9572   3.724   1.217   4.708
 3186SOL     OW 9573   4.396   1.616   3.878
 3186SOL    HW1 9574   4.405   1.626   3.779
 3186SOL    HW2 9575   4.356   1.527   3.899
 3187SOL     OW 9576   3.987   0.326   4.444
 3187SOL    HW1 9577   3.908   0.377   4.410
 3187SOL    HW2 9578   3.978   0.311   4.542
 3188SOL     OW 9579   4.640   0.910   4.015
 3188SOL    HW1 9580   4.703   0.948   3.947
 3188SOL    HW2 9581   4.680   0.827   4.054
 3189SOL     OW 9582   4.763   1.098   4.420
 3189SOL    HW1 9583   4.693   1.051   4.474
 3189SOL    HW2 9584   4.822   1.030   4.377
 3190SOL     OW 9585   4.738   0.236   4.695
 3190SOL    HW1 9586   4.730   0.200   4.602
 3190SOL    HW2 9587   4.736   0.160   4.760
 3191SOL     OW 9588   4.314   1.487   4.215
 3191SOL    HW1 9589   4.356   1.429   4.145
 3191SOL    HW2 9590   4.270   1.566   4.171
 3192SOL     OW 9591   3.979   1.348   4.014
 3192SOL    HW1 9592   3.883   1.349   3.987
 3192SOL    HW2 9593   3.991   1.401   4.098
 3193SOL     OW 9594   3.799   0.345   3.757
 3193SOL    HW1 9595   3.707   0.317   3.728
 3193SOL    HW2 9596   3.830   0.422   3.701
 3194SOL     OW 9597   3.796   0.166   4.042
 3194SOL    HW1 9598   3.779   0.249   3.988
 3194SOL    HW2 9599   3.886   0.129   4.020
 3195SOL     OW 9600   4.318   0.745   4.376
 3195SOL    HW1 9601   4.368   0.830   4.357
 3195SOL    HW2 9602   4.230   0.747   4.328
 3196SOL     OW 9603   4.583   1.374   3.740
 3196SOL    HW1 9604   4.537   1.389   3.828
 3196SOL    HW2 9605   4.627   1.459   3.710
 3197SOL     OW 9606   4.385   1.790   4.677
 3197SOL    HW1 9607   4.339   1.878   4.664
 3197SOL    HW2 9608   4.484   1.802   4.670
 3198SOL     OW 9609   4.583   0.956   4.585
 3198SOL    HW1 9610   4.637   0.887   4.633
 3198SOL    HW2 9611   4.551   1.025   4.651
 3199SOL     OW 9612   4.807   0.984   3.811
 3199SOL    HW1 9613   4.784   1.037   3.729
 3199SOL    HW2 9614   4.888   0.928   3.792
 3200SOL     OW 9615   3.803   1.240   4.377
 3200SOL    HW1 9616   3.802   1.193   4.465
 3200SOL    HW2 9617   3.885   1.212   4.326
 3201SOL     OW 9618   4.152   0.424   4.244
 3201SOL    HW1 9619   4.182   0.352   4.182
 3201SOL    HW2 9620   4.113   0.384   4.327
 3202SOL     OW 9621   4.536   1.586   4.411
 3202SOL    HW1 9622   4.568   1.596   4.317
 3202SOL    HW2 9623   4.457   1.524   4.413
 3203SOL     OW 9624   4.494   1.330   4.025
 3203SOL    HW1 9625   4.448   1.243   4.042
 3203SOL    HW2 9626   4.585   1.327   4.066
 3204SOL     OW 9627   3.763   1.077   4.024
 3204SOL    HW1 9628   3.862   1.066   4.015
 3204SOL    HW2 9629   3.723   0.991   4.056
 3205SOL     OW 9630   4.599   1.646   4.061
 3205SOL    HW1 9631   4.522   1.611   4.007
 3205SOL    HW2 9632   4.567   1.717   4.123
 3206SOL     OW 9633   3.954   2.490   0.113
 3206SOL    HW1 9634   3.861   2.488   0.150
 3206SOL    HW2 9635   3.955   2.451   0.021
 3207SOL     OW 9636   3.949   2.137   0.996
 3207SOL    HW1 9637   3.984   2.120   1.088
 3207SOL    HW2 9638   3.861   2.092   0.984
 3208SOL     OW 9639   3.743   2.230   0.647
 3208SOL    HW1 9640   3.661   2.273   0.686
 3208SOL    HW2 9641   3.715   2.157   0.584
 3209SOL     OW 9642   4.293   3.137   1.165
 3209SOL    HW1 9643   4.200   3.130   1.128
 3209SOL    HW2 9644   4.304   3.226   1.209
 3210SOL     OW 9645   4.492   3.006   1.023
 3210SOL    HW1 9646   4.414   3.023   1.083
 3210SOL    HW2 9647   4.526   3.093   0.987
 3211SOL     OW 9648   4.574   2.660   1.823
 3211SOL    HW1 9649   4.570   2.736   1.888
 3211SOL    HW2 9650   4.596   2.696   1.732
 3212SOL     OW 9651   4.409   2.874   0.665
 3212SOL    HW1 9652   4.478   2.858   0.735
 3212SOL    HW2 9653   4.336   2.931   0.703
 3213SOL     OW 9654   4.410   3.023   1.803
 3213SOL    HW1 9655   4.470   3.102   1.817
 3213SOL    HW2 9656   4.324   3.054   1.762
 3214SOL     OW 9657   4.059   3.297   1.061
 3214SOL    HW1 9658   3.981   3.266   1.008
 3214SOL    HW2 9659   4.117   3.355   1.004
 3215SOL     OW 9660   4.162   2.254   1.499
 3215SOL    HW1 9661   4.244   2.198   1.508
 3215SOL    HW2 9662   4.081   2.196   1.503
 3216SOL     OW 9663   3.955   3.575   0.483
 3216SOL    HW1 9664   3.989   3.652   0.537
 3216SOL    HW2 9665   3.999   3.575   0.393
 3217SOL     OW 9666   4.851   3.203   1.690
 3217SOL    HW1 9667   4.898   3.203   1.778
 3217SOL    HW2 9668   4.803   3.116   1.679
 3218SOL     OW 9669   3.954   3.296   0.538
 3218SOL    HW1 9670   3.928   3.392   0.538
 3218SOL    HW2 9671   3.883   3.242   0.583
 3219SOL     OW 9672   3.964   2.953   0.886
 3219SOL    HW1 9673   3.978   2.869   0.938
 3219SOL    HW2 9674   3.909   3.017   0.941
 3220SOL     OW 9675   4.344   3.648   1.439
 3220SOL    HW1 9676   4.252   3.631   1.474
 3220SOL    HW2 9677   4.372   3.740   1.465
 3221SOL     OW 9678   4.330   2.826   0.123
 3221SOL    HW1 9679   4.337   2.910   0.069
 3221SOL    HW2 9680   4.376   2.839   0.211
 3222SOL     OW 9681   3.846   2.505   0.563
 3222SOL    HW1 9682   3.801   2.417   0.580
 3222SOL    HW2 9683   3.845   2.559   0.647
 3223SOL     OW 9684   3.751   3.458   0.117
 3223SOL    HW1 9685   3.732   3.362   0.138
 3223SOL    HW2 9686   3.718   3.516   0.192
 3224SOL     OW 9687   3.837   2.599   1.597
 3224SOL    HW1 9688   3.925   2.586   1.642
 3224SOL    HW2 9689   3.824   2.696   1.575
 3225SOL     OW 9690   4.337   3.227   0.726
 3225SOL    HW1 9691   4.288   3.140   0.735
 3225SOL    HW2 9692   4.314   3.270   0.639
 3226SOL     OW 9693   4.533   1.866   0.502
 3226SOL    HW1 9694   4.573   1.957   0.493
 3226SOL    HW2 9695   4.433   1.874   0.508
 3227SOL     OW 9696   3.921   2.838   1.264
 3227SOL    HW1 9697   4.010   2.793   1.250
 3227SOL    HW2 9698   3.848   2.773   1.245
 3228SOL     OW 9699   4.041   2.113   1.801
 3228SOL    HW1 9700   4.112   2.184   1.807
 3228SOL    HW2 9701   3.953   2.152   1.829
 3229SOL     OW 9702   4.322   2.591   0.270
 3229SOL    HW1 9703   4.346   2.660   0.202
 3229SOL    HW2 9704   4.244   2.624   0.324
 3230SOL     OW 9705   4.531   2.467   1.465
 3230SOL    HW1 9706   4.484   2.464   1.554
 3230SOL    HW2 9707   4.480   2.412   1.399
 3231SOL     OW 9708   4.697   2.752   1.572
 3231SOL    HW1 9709   4.743   2.668   1.543
 3231SOL    HW2 9710   4.641   2.786   1.497
 3232SOL     OW 9711   4.715   2.272   1.242
 3232SOL    HW1 9712   4.638   2.306   1.296
 3232SOL    HW2 9713   4.681   2.221   1.163
 3233SOL     OW 9714   4.765   2.563   0.429
 3233SOL    HW1 9715   4.791   2.559   0.525
 3233SOL    HW2 9716   4.680   2.512   0.415
 3234SOL     OW 9717   3.800   2.673   0.789
 3234SOL    HW1 9718   3.899   2.661   0.798
 3234SOL    HW2 9719   3.776   2.768   0.810
 3235SOL     OW 9720   3.854   3.683   1.571
 3235SOL    HW1 9721   3.844   3.668   1.670
 3235SOL    HW2 9722   3.768   3.719   1.535
 3236SOL     OW 9723   4.589   2.210   0.195
 3236SOL    HW1 9724   4.648   2.273   0.146
 3236SOL    HW2 9725   4.608   2.116   0.166
 3237SOL     OW 9726   4.274   2.058   0.885
 3237SOL    HW1 9727   4.269   2.053   0.985
 3237SOL    HW2 9728   4.276   2.154   0.856
 3238SOL     OW 9729   4.732   3.318   0.477
 3238SOL    HW1 9730   4.686   3.390   0.425
 3238SOL    HW2 9731   4.728   3.338   0.575
 3239SOL     OW 9732   4.075   3.663   0.853
 3239SOL    HW1 9733   4.125   3.577   0.859
 3239SOL    HW2 9734   4.140   3.740   0.850
 3240SOL     OW 9735   4.045   2.805   0.242
 3240SOL    HW1 9736   4.127   2.844   0.200
 3240SOL    HW2 9737   4.018   2.723   0.193
 3241SOL     OW 9738   4.185   3.128   1.727
 3241SOL    HW1 9739   4.135   3.129   1.641
 3241SOL    HW2 9740   4.122   3.110   1.803
 3242SOL     OW 9741   3.926   2.147   1.498
 3242SOL    HW1 9742   3.846   2.207   1.485
 3242SOL    HW2 9743   3.916   2.098   1.584
 3243SOL     OW 9744   4.188   3.605   0.323
 3243SOL    HW1 9745   4.221   3.644   0.409
 3243SOL    HW2 9746   4.264   3.598   0.258
 3244SOL     OW 9747   3.973   3.647   1.241
 3244SOL    HW1 9748   4.030   3.582   1.291
 3244SOL    HW2 9749   3.957   3.614   1.148
 3245SOL     OW 9750   4.664   3.560   0.904
 3245SOL    HW1 9751   4.744   3.503   0.925
 3245SOL    HW2 9752   4.615   3.520   0.827
 3246SOL     OW 9753   4.106   2.562   0.480
 3246SOL    HW1 9754   4.151   2.472   0.477
 3246SOL    HW2 9755   4.012   2.551   0.513
 3247SOL     OW 9756   4.338   1.984   0.117
 3247SOL    HW1 9757   4.436   1.962   0.124
 3247SOL    HW2 9758   4.307   1.967   0.024
 3248SOL     OW 9759   4.505   2.126   1.749
 3248SOL    HW1 9760   4.572   2.065   1.792
 3248SOL    HW2 9761   4.432   2.145   1.814
 3249SOL     OW 9762   4.612   3.376   1.195
 3249SOL    HW1 9763   4.589   3.351   1.101
 3249SOL    HW2 9764   4.673   3.307   1.234
 3250SOL     OW 9765   4.527   3.264   0.924
 3250SOL    HW1 9766   4.617   3.278   0.882
 3250SOL    HW2 9767   4.456   3.266   0.853
 3251SOL     OW 9768   4.646   2.365   0.899
 3251SOL    HW1 9769   4.621   2.356   0.803
 3251SOL    HW2 9770   4.694   2.283   0.930
 3252SOL     OW 9771   4.263   1.926   0.512
 3252SOL    HW1 9772   4.182   1.927   0.570
 3252SOL    HW2 9773   4.266   2.009   0.457
 3253SOL     OW 9774   5.158   3.050   0.041
 3253SOL    HW1 9775   5.190   2.974   0.098
 3253SOL    HW2 9776   5.066   3.077   0.071
 3254SOL     OW 9777   4.659   2.098   0.480
 3254SOL    HW1 9778   4.611   2.139   0.402
 3254SOL    HW2 9779   4.758   2.096   0.461
 3255SOL     OW 9780   4.951   3.432   0.793
 3255SOL    HW1 9781   4.972   3.506   0.728
 3255SOL    HW2 9782   5.019   3.432   0.866
 3256SOL     OW 9783   4.183   3.014   0.741
 3256SOL    HW1 9784   4.112   2.987   0.806
 3256SOL    HW2 9785   4.157   2.986   0.648
 3257SOL     OW 9786   4.756   2.411   0.016
 3257SOL    HW1 9787   4.715   2.493  -0.023
 3257SOL    HW2 9788   4.820   2.437   0.089
 3258SOL     OW 9789   3.802   2.418   1.386
 3258SOL    HW1 9790   3.894   2.417   1.345
 3258SOL    HW2 9791   3.796   2.492   1.453
 3259SOL     OW 9792   4.285   2.084   1.147
 3259SOL    HW1 9793   4.323   2.000   1.184
 3259SOL    HW2 9794   4.197   2.103   1.191
 3260SOL     OW 9795   4.590   2.316   0.642
 3260SOL    HW1 9796   4.558   2.388   0.580
 3260SOL    HW2 9797   4.614   2.235   0.589
 3261SOL     OW 9798   4.741   1.901   0.753
 3261SOL    HW1 9799   4.669   1.906   0.684
 3261SOL    HW2 9800   4.717   1.832   0.822
 3262SOL     OW 9801   4.212   3.247   0.174
 3262SOL    HW1 9802   4.125   3.232   0.221
 3262SOL    HW2 9803   4.195   3.273   0.079
 3263SOL     OW 9804   4.251   2.118   0.328
 3263SOL    HW1 9805   4.278   2.059   0.253
 3263SOL    HW2 9806   4.251   2.213   0.297
 3264SOL     OW 9807   4.639   1.951   1.402
 3264SOL    HW1 9808   4.664   1.931   1.307
 3264SOL    HW2 9809   4.711   2.007   1.444
 3265SOL     OW 9810   4.704   2.978   1.719
 3265SOL    HW1 9811   4.605   2.984   1.729
 3265SOL    HW2 9812   4.727   2.898   1.663
 3266SOL     OW 9813   4.429   2.912   0.368
 3266SOL    HW1 9814   4.415   2.919   0.467
 3266SOL    HW2 9815   4.513   2.861   0.350
 3267SOL     OW 9816   4.134   2.675   1.251
 3267SOL    HW1 9817   4.220   2.687   1.301
 3267SOL    HW2 9818   4.092   2.588   1.278
 3268SOL     OW 9819   3.788   3.426   1.331
 3268SOL    HW1 9820   3.742   3.508   1.297
 3268SOL    HW2 9821   3.886   3.445   1.340
 3269SOL     OW 9822   4.091   2.962   0.501
 3269SOL    HW1 9823   4.084   3.045   0.445
 3269SOL    HW2 9824   4.095   2.882   0.441
 3270SOL     OW 9825   4.290   2.399   0.865
 3270SOL    HW1 9826   4.302   2.465   0.791
 3270SOL    HW2 9827   4.336   2.433   0.948
 3271SOL     OW 9828   4.078   3.372   1.329
 3271SOL    HW1 9829   4.057   3.328   1.242
 3271SOL    HW2 9830   4.175   3.398   1.332
 3272SOL     OW 9831   4.126   2.613   1.598
 3272SOL    HW1 9832   4.194   2.668   1.551
 3272SOL    HW2 9833   4.166   2.525   1.625
 3273SOL     OW 9834   4.737   1.967   1.770
 3273SOL    HW1 9835   4.743   2.052   1.718
 3273SOL    HW2 9836   4.769   1.891   1.713
 3274SOL     OW 9837   4.228   1.912   1.740
 3274SOL    HW1 9838   4.186   1.855   1.670
 3274SOL    HW2 9839   4.162   1.981   1.772
 3275SOL     OW 9840   4.297   2.732   1.029
 3275SOL    HW1 9841   4.341   2.821   1.020
 3275SOL    HW2 9842   4.234   2.732   1.106
 3276SOL     OW 9843   4.933   2.387   0.275
 3276SOL    HW1 9844   4.946   2.303   0.329
 3276SOL    HW2 9845   4.904   2.461   0.335
 3277SOL     OW 9846   4.031   2.075   1.231
 3277SOL    HW1 9847   4.008   2.112   1.321
 3277SOL    HW2 9848   4.001   1.980   1.225
 3278SOL     OW 9849   3.761   3.172   1.282
 3278SOL    HW1 9850   3.814   3.123   1.350
 3278SOL    HW2 9851   3.783   3.270   1.287
 3279SOL     OW 9852   4.456   2.496   1.064
 3279SOL    HW1 9853   4.515   2.470   0.988
 3279SOL    HW2 9854   4.428   2.592   1.053
 3280SOL     OW 9855   4.031   1.925   0.618
 3280SOL    HW1 9856   4.020   2.019   0.651
 3280SOL    HW2 9857   4.026   1.862   0.695
 3281SOL     OW 9858   4.747   2.628   0.966
 3281SOL    HW1 9859   4.762   2.649   1.062
 3281SOL    HW2 9860   4.717   2.533   0.957
 3282SOL     OW 9861   4.704   3.435   1.700
 3282SOL    HW1 9862   4.684   3.479   1.612
 3282SOL    HW2 9863   4.743   3.344   1.684
 3283SOL     OW 9864   4.074   2.760   1.804
 3283SOL    HW1 9865   4.150   2.804   1.852
 3283SOL    HW2 9866   4.109   2.713   1.722
 3284SOL     OW 9867   4.792   3.195   0.849
 3284SOL    HW1 9868   4.799   3.111   0.794
 3284SOL    HW2 9869   4.854   3.264   0.813
 3285SOL     OW 9870   4.043   2.672   0.949
 3285SOL    HW1 9871   4.136   2.708   0.954
 3285SOL    HW2 9872   4.037   2.587   1.001
 3286SOL     OW 9873   4.063   2.371   1.006
 3286SOL    HW1 9874   4.011   2.288   0.989
 3286SOL    HW2 9875   4.140   2.376   0.942
 3287SOL     OW 9876   4.862   2.242   1.678
 3287SOL    HW1 9877   4.817   2.305   1.742
 3287SOL    HW2 9878   4.955   2.273   1.661
 3288SOL     OW 9879   4.884   2.069   1.477
 3288SOL    HW1 9880   4.884   2.133   1.554
 3288SOL    HW2 9881   4.912   2.117   1.394
 3289SOL     OW 9882   3.732   3.188   0.200
 3289SOL    HW1 9883   3.639   3.209   0.169
 3289SOL    HW2 9884   3.742   3.089   0.213
 3290SOL     OW 9885   3.812   3.663   0.927
 3290SOL    HW1 9886   3.770   3.577   0.900
 3290SOL    HW2 9887   3.906   3.666   0.893
 3291SOL     OW 9888   4.228   3.430   0.910
 3291SOL    HW1 9889   4.294   3.504   0.919
 3291SOL    HW2 9890   4.272   3.351   0.868
 3292SOL     OW 9891   4.726   2.658   1.238
 3292SOL    HW1 9892   4.767   2.626   1.324
 3292SOL    HW2 9893   4.630   2.631   1.235
 3293SOL     OW 9894   3.764   2.406   1.114
 3293SOL    HW1 9895   3.849   2.373   1.073
 3293SOL    HW2 9896   3.777   2.421   1.212
 3294SOL     OW 9897   3.913   2.382   1.722
 3294SOL    HW1 9898   3.972   2.342   1.652
 3294SOL    HW2 9899   3.855   2.453   1.681
 3295SOL     OW 9900   4.539   2.434   0.325
 3295SOL    HW1 9901   4.546   2.345   0.279
 3295SOL    HW2 9902   4.445   2.468   0.317
 3296SOL     OW 9903   3.976   3.426   1.744
 3296SOL    HW1 9904   3.946   3.483   1.820
 3296SOL    HW2 9905   3.969   3.329   1.770
 3297SOL     OW 9906   4.395   2.326   1.269
 3297SOL    HW1 9907   4.361   2.237   1.239
 3297SOL    HW2 9908   4.421   2.380   1.189
 3298SOL     OW 9909   4.654   3.540   1.465
 3298SOL    HW1 9910   4.630   3.522   1.370
 3298SOL    HW2 9911   4.684   3.634   1.475
 3299SOL     OW 9912   4.197   2.362   0.191
 3299SOL    HW1 9913   4.258   2.442   0.195
 3299SOL    HW2 9914   4.102   2.393   0.198
 3300SOL     OW 9915   3.883   2.999   1.466
 3300SOL    HW1 9916   3.905   2.938   1.542
 3300SOL    HW2 9917   3.893   2.950   1.380
 3301SOL     OW 9918   3.807   3.120   1.022
 3301SOL    HW1 9919   3.802   3.119   1.122
 3301SOL    HW2 9920   3.724   3.079   0.984
 3302SOL     OW 9921   4.412   3.524   1.716
 3302SOL    HW1 9922   4.356   3.605   1.725
 3302SOL    HW2 9923   4.464   3.528   1.630
 3303SOL     OW 9924   4.627   1.948   0.133
 3303SOL    HW1 9925   4.678   1.949   0.047
 3303SOL    HW2 9926   4.683   1.906   0.204
 3304SOL     OW 9927   3.854   3.656   1.851
 3304SOL    HW1 9928   3.813   3.582   1.904
 3304SOL    HW2 9929   3.918   3.707   1.909
 3305SOL     OW 9930   4.554   3.135   1.422
 3305SOL    HW1 9931   4.549   3.168   1.517
 3305SOL    HW2 9932   4.468   3.154   1.376
 3306SOL     OW 9933   4.396   3.478   0.154
 3306SOL    HW1 9934   4.405   3.488   0.055
 3306SOL    HW2 9935   4.356   3.389   0.175
 3307SOL     OW 9936   3.987   2.188   0.720
 3307SOL    HW1 9937   3.908   2.239   0.686
 3307SOL    HW2 9938   3.978   2.173   0.818
 3308SOL     OW 9939   4.546   2.864   1.372
 3308SOL    HW1 9940   4.586   2.863   1.280
 3308SOL    HW2 9941   4.556   2.956   1.412
 3309SOL     OW 9942   4.640   2.772   0.291
 3309SOL    HW1 9943   4.703   2.810   0.223
 3309SOL    HW2 9944   4.680   2.689   0.330
 3310SOL     OW 9945   4.096   3.150   1.490
 3310SOL    HW1 9946   4.083   3.243   1.456
 3310SOL    HW2 9947   4.012   3.098   1.477
 3311SOL     OW 9948   4.763   2.960   0.696
 3311SOL    HW1 9949   4.693   2.913   0.750
 3311SOL    HW2 9950   4.822   2.892   0.653
 3312SOL     OW 9951   4.738   2.098   0.971
 3312SOL    HW1 9952   4.730   2.062   0.878
 3312SOL    HW2 9953   4.736   2.022   1.036
 3313SOL     OW 9954   4.314   3.349   0.491
 3313SOL    HW1 9955   4.356   3.291   0.421
 3313SOL    HW2 9956   4.270   3.428   0.447
 3314SOL     OW 9957   3.979   3.210   0.290
 3314SOL    HW1 9958   3.883   3.211   0.263
 3314SOL    HW2 9959   3.991   3.263   0.374
 3315SOL     OW 9960   3.829   2.875   1.726
 3315SOL    HW1 9961   3.752   2.842   1.780
 3315SOL    HW2 9962   3.914   2.845   1.768
 3316SOL     OW 9963   4.396   2.065   1.489
 3316SOL    HW1 9964   4.486   2.049   1.449
 3316SOL    HW2 9965   4.404   2.070   1.588
 3317SOL     OW 9966   3.796   2.028   0.318
 3317SOL    HW1 9967   3.779   2.111   0.264
 3317SOL    HW2 9968   3.886   1.991   0.296
 3318SOL     OW 9969   4.337   2.704   1.431
 3318SOL    HW1 9970   4.393   2.785   1.414
 3318SOL    HW2 9971   4.396   2.624   1.434
 3319SOL     OW 9972   4.440   2.427   1.708
 3319SOL    HW1 9973   4.459   2.492   1.782
 3319SOL    HW2 9974   4.500   2.347   1.717
 3320SOL     OW 9975   4.114   3.603   1.560
 3320SOL    HW1 9976   4.023   3.644   1.558
 3320SOL    HW2 9977   4.107   3.509   1.592
 3321SOL     OW 9978   4.318   2.607   0.652
 3321SOL    HW1 9979   4.368   2.692   0.633
 3321SOL    HW2 9980   4.230   2.609   0.604
 3322SOL     OW 9981   4.583   3.236   0.016
 3322SOL    HW1 9982   4.537   3.251   0.104
 3322SOL    HW2 9983   4.627   3.321  -0.014
 3323SOL     OW 9984   4.385   3.652   0.953
 3323SOL    HW1 9985   4.339   3.740   0.940
 3323SOL    HW2 9986   4.484   3.664   0.946
 3324SOL     OW 9987   4.583   2.818   0.861
 3324SOL    HW1 9988   4.637   2.749   0.909
 3324SOL    HW2 9989   4.551   2.887   0.927
 3325SOL     OW 9990   4.807   2.846   0.087
 3325SOL    HW1 9991   4.784   2.899   0.005
 3325SOL    HW2 9992   4.888   2.790   0.068
 3326SOL     OW 9993   3.945   3.176   1.844
 3326SOL    HW1 9994   3.880   3.103   1.823
 3326SOL    HW2 9995   3.949   3.190   1.942
 3327SOL     OW 9996   3.803   3.102   0.653
 3327SOL    HW1 9997   3.802   3.055   0.741
 3327SOL    HW2 9998   3.885   3.074   0.602
 3328SOL     OW 9999   4.396   3.253   1.624
 3328SOL    HW110000   4.318   3.203   1.662
 3328SOL    HW210001   4.393   3.348   1.655
 3329SOL     OW10002   4.152   2.286   0.520
 3329SOL    HW110003   4.182   2.214   0.458
 3329SOL    HW210004   4.113   2.246   0.603
 3330SOL     OW10005   4.041   2.409   1.280
 3330SOL    HW110006   4.079   2.350   1.352
 3330SOL    HW210007   4.081   2.383   1.192
 3331SOL     OW10008   4.536   3.448   0.687
 3331SOL    HW110009   4.568   3.458   0.593
 3331SOL    HW210010   4.457   3.386   0.689
 3332SOL     OW10011   4.725   1.896   1.154
 3332SOL    HW110012   4.662   1.824   1.123
 3332SOL    HW210013   4.818   1.860   1.154
 3333SOL     OW10014   4.494   3.192   0.301
 3333SOL    HW110015   4.448   3.105   0.318
 3333SOL    HW210016   4.585   3.189   0.342
 3334SOL     OW10017   4.342   3.429   1.284
 3334SOL    HW110018   4.337   3.511   1.341
 3334SOL    HW210019   4.431   3.426   1.239
 3335SOL     OW10020   3.763   2.939   0.300
 3335SOL    HW110021   3.862   2.928   0.291
 3335SOL    HW210022   3.723   2.853   0.332
 3336SOL     OW10023   4.599   3.508   0.337
 3336SOL    HW110024   4.522   3.473   0.283
 3336SOL    HW210025   4.567   3.579   0.399
 3337SOL     OW10026   3.954   2.490   1.975
 3337SOL    HW110027   3.861   2.488   2.012
 3337SOL    HW210028   3.955   2.451   1.883
 3338SOL     OW10029   3.949   2.137   2.858
 3338SOL    HW110030   3.984   2.120   2.950
 3338SOL    HW210031   3.861   2.092   2.846
 3339SOL     OW10032   3.743   2.230   2.509
 3339SOL    HW110033   3.661   2.273   2.548
 3339SOL    HW210034   3.715   2.157   2.446
 3340SOL     OW10035   4.293   3.137   3.027
 3340SOL    HW110036   4.200   3.130   2.990
 3340SOL    HW210037   4.304   3.226   3.071
 3341SOL     OW10038   4.492   3.006   2.885
 3341SOL    HW110039   4.414   3.023   2.945
 3341SOL    HW210040   4.526   3.093   2.849
 3342SOL     OW10041   4.574   2.660   3.685
 3342SOL    HW110042   4.570   2.736   3.750
 3342SOL    HW210043   4.596   2.696   3.594
 3343SOL     OW10044   4.409   2.874   2.527
 3343SOL    HW110045   4.478   2.858   2.597
 3343SOL    HW210046   4.336   2.931   2.565
 3344SOL     OW10047   4.410   3.023   3.665
 3344SOL    HW110048   4.470   3.102   3.679
 3344SOL    HW210049   4.324   3.054   3.624
 3345SOL     OW10050   4.059   3.297   2.923
 3345SOL    HW110051   3.981   3.266   2.870
 3345SOL    HW210052   4.117   3.355   2.866
 3346SOL     OW10053   4.162   2.254   3.361
 3346SOL    HW110054   4.244   2.198   3.370
 3346SOL    HW210055   4.081   2.196   3.365
 3347SOL     OW10056   3.955   3.575   2.345
 3347SOL    HW110057   3.989   3.652   2.399
 3347SOL    HW210058   3.999   3.575   2.255
 3348SOL     OW10059   4.851   3.203   3.552
 3348SOL    HW110060   4.898   3.203   3.640
 3348SOL    HW210061   4.803   3.116   3.541
 3349SOL     OW10062   3.954   3.296   2.400
 3349SOL    HW110063   3.928   3.392   2.400
 3349SOL    HW210064   3.883   3.242   2.445
 3350SOL     OW10065   3.964   2.953   2.748
 3350SOL    HW110066   3.978   2.869   2.800
 3350SOL    HW210067   3.909   3.017   2.803
 3351SOL     OW10068   4.344   3.648   3.301
 3351SOL    HW110069   4.252   3.631   3.336
 3351SOL    HW210070   4.372   3.740   3.327
 3352SOL     OW10071   4.330   2.826   1.985
 3352SOL    HW110072   4.337   2.910   1.931
 3352SOL    HW210073   4.376   2.839   2.073
 3353SOL     OW10074   3.846   2.505   2.425
 3353SOL    HW110075   3.801   2.417   2.442
 3353SOL    HW210076   3.845   2.559   2.509
 3354SOL     OW10077   3.751   3.458   1.979
 3354SOL    HW110078   3.732   3.362   2.000
 3354SOL    HW210079   3.718   3.516   2.054
 3355SOL     OW10080   3.837   2.599   3.459
 3355SOL    HW110081   3.925   2.586   3.504
 3355SOL    HW210082   3.824   2.696   3.437
 3356SOL     OW10083   4.337   3.227   2.588
 3356SOL    HW110084   4.288   3.140   2.597
 3356SOL    HW210085   4.314   3.270   2.501
 3357SOL     OW10086   4.533   1.866   2.364
 3357SOL    HW110087   4.573   1.957   2.355
 3357SOL    HW210088   4.433   1.874   2.370
 3358SOL     OW10089   3.921   2.838   3.126
 3358SOL    HW110090   4.010   2.793   3.112
 3358SOL    HW210091   3.848   2.773   3.107
 3359SOL     OW10092   4.041   2.113   3.663
 3359SOL    HW110093   4.112   2.184   3.669
 3359SOL    HW210094   3.953   2.152   3.691
 3360SOL     OW10095   4.322   2.591   2.132
 3360SOL    HW110096   4.346   2.660   2.064
 3360SOL    HW210097   4.244   2.624   2.186
 3361SOL     OW10098   4.531   2.467   3.327
 3361SOL    HW110099   4.484   2.464   3.416
 3361SOL    HW210100   4.480   2.412   3.261
 3362SOL     OW10101   4.697   2.752   3.434
 3362SOL    HW110102   4.743   2.668   3.405
 3362SOL    HW210103   4.641   2.786   3.359
 3363SOL     OW10104   4.715   2.272   3.104
 3363SOL    HW110105   4.638   2.306   3.158
 3363SOL    HW210106   4.681   2.221   3.025
 3364SOL     OW10107   4.765   2.563   2.291
 3364SOL    HW110108   4.791   2.559   2.387
 3364SOL    HW210109   4.680   2.512   2.277
 3365SOL     OW10110   3.800   2.673   2.651
 3365SOL    HW110111   3.899   2.661   2.660
 3365SOL    HW210112   3.776   2.768   2.672
 3366SOL     OW10113   3.854   3.683   3.433
 3366SOL    HW110114   3.844   3.668   3.532
 3366SOL    HW210115   3.768   3.719   3.397
 3367SOL     OW10116   4.589   2.210   2.057
 3367SOL    HW110117   4.648   2.273   2.008
 3367SOL    HW210118   4.608   2.116   2.028
 3368SOL     OW10119   4.274   2.058   2.747
 3368SOL    HW110120   4.269   2.053   2.847
 3368SOL    HW210121   4.276   2.154   2.718
 3369SOL     OW10122   4.732   3.318   2.339
 3369SOL    HW110123   4.686   3.390   2.287
 3369SOL    HW210124   4.728   3.338   2.437
 3370SOL     OW10125   4.075   3.663   2.715
 3370SOL    HW110126   4.125   3.577   2.721
 3370SOL    HW210127   4.140   3.740   2.712
 3371SOL     OW10128   4.045   2.805   2.104
 3371SOL    HW110129   4.127   2.844   2.062
 3371SOL    HW210130   4.018   2.723   2.055
 3372SOL     OW10131   4.185   3.128   3.589
 3372SOL    HW110132   4.135   3.129   3.503
 3372SOL    HW210133   4.122   3.110   3.665
 3373SOL     OW10134   3.926   2.147   3.360
 3373SOL    HW110135   3.846   2.207   3.347
 3373SOL    HW210136   3.916   2.098   3.446
 3374SOL     OW10137   4.188   3.605   2.185
 3374SOL    HW110138   4.221   3.644   2.271
 3374SOL    HW210139   4.264   3.598   2.120
 3375SOL     OW10140   3.973   3.647   3.103
 3375SOL    HW110141   4.030   3.582   3.153
 3375SOL    HW210142   3.957   3.614   3.010
 3376SOL     OW10143   4.664   3.560   2.766
 3376SOL    HW110144   4.744   3.503   2.787
 3376SOL    HW210145   4.615   3.520   2.689
 3377SOL     OW10146   4.106   2.562   2.342
 3377SOL    HW110147   4.151   2.472   2.339
 3377SOL    HW210148   4.012   2.551   2.375
 3378SOL     OW10149   4.338   1.984   1.979
 3378SOL    HW110150   4.436   1.962   1.986
 3378SOL    HW210151   4.307   1.967   1.886
 3379SOL     OW10152   4.505   2.126   3.611
 3379SOL    HW110153   4.572   2.065   3.654
 3379SOL    HW210154   4.432   2.145   3.676
 3380SOL     OW10155   4.612   3.376   3.057
 3380SOL    HW110156   4.589   3.351   2.963
 3380SOL    HW210157   4.673   3.307   3.096
 3381SOL     OW10158   4.527   3.264   2.786
 3381SOL    HW110159   4.617   3.278   2.744
 3381SOL    HW210160   4.456   3.266   2.715
 3382SOL     OW10161   4.646   2.365   2.761
 3382SOL    HW110162   4.621   2.356   2.665
 3382SOL    HW210163   4.694   2.283   2.792
 3383SOL     OW10164   4.263   1.926   2.374
 3383SOL    HW110165   4.182   1.927   2.432
 3383SOL    HW210166   4.266   2.009   2.319
 3384SOL     OW10167   4.021   1.897   2.033
 3384SOL    HW110168   4.070   1.981   2.012
 3384SOL    HW210169   4.083   1.832   2.078
 3385SOL     OW10170   4.659   2.098   2.342
 3385SOL    HW110171   4.611   2.139   2.264
 3385SOL    HW210172   4.758   2.096   2.323
 3386SOL     OW10173   4.951   3.432   2.655
 3386SOL    HW110174   4.972   3.506   2.590
 3386SOL    HW210175   5.019   3.432   2.728
 3387SOL     OW10176   4.183   3.014   2.603
 3387SOL    HW110177   4.112   2.987   2.668
 3387SOL    HW210178   4.157   2.986   2.510
 3388SOL     OW10179   4.756   2.411   1.878
 3388SOL    HW110180   4.715   2.493   1.839
 3388SOL    HW210181   4.820   2.437   1.951
 3389SOL     OW10182   3.802   2.418   3.248
 3389SOL    HW110183   3.894   2.417   3.207
 3389SOL    HW210184   3.796   2.492   3.315
 3390SOL     OW10185   4.285   2.084   3.009
 3390SOL    HW110186   4.323   2.000   3.046
 3390SOL    HW210187   4.197   2.103   3.053
 3391SOL     OW10188   4.590   2.316   2.504
 3391SOL    HW110189   4.558   2.388   2.442
 3391SOL    HW210190   4.614   2.235   2.451
 3392SOL     OW10191   4.741   1.901   2.615
 3392SOL    HW110192   4.669   1.906   2.546
 3392SOL    HW210193   4.717   1.832   2.684
 3393SOL     OW10194   4.212   3.247   2.036
 3393SOL    HW110195   4.125   3.232   2.083
 3393SOL    HW210196   4.195   3.273   1.941
 3394SOL     OW10197   4.251   2.118   2.190
 3394SOL    HW110198   4.278   2.059   2.115
 3394SOL    HW210199   4.251   2.213   2.159
 3395SOL     OW10200   4.639   1.951   3.264
 3395SOL    HW110201   4.664   1.931   3.169
 3395SOL    HW210202   4.711   2.007   3.306
 3396SOL     OW10203   4.704   2.978   3.581
 3396SOL    HW110204   4.605   2.984   3.591
 3396SOL    HW210205   4.727   2.898   3.525
 3397SOL     OW10206   4.429   2.912   2.230
 3397SOL    HW110207   4.415   2.919   2.329
 3397SOL    HW210208   4.513   2.861   2.212
 3398SOL     OW10209   4.134   2.675   3.113
 3398SOL    HW110210   4.220   2.687   3.163
 3398SOL    HW210211   4.092   2.588   3.140
 3399SOL     OW10212   3.788   3.426   3.193
 3399SOL    HW110213   3.742   3.508   3.159
 3399SOL    HW210214   3.886   3.445   3.202
 3400SOL     OW10215   4.091   2.962   2.363
 3400SOL    HW110216   4.084   3.045   2.307
 3400SOL    HW210217   4.095   2.882   2.303
 3401SOL     OW10218   4.290   2.399   2.727
 3401SOL    HW110219   4.302   2.465   2.653
 3401SOL    HW210220   4.336   2.433   2.810
 3402SOL     OW10221   4.078   3.372   3.191
 3402SOL    HW110222   4.057   3.328   3.104
 3402SOL    HW210223   4.175   3.398   3.194
 3403SOL     OW10224   4.126   2.613   3.460
 3403SOL    HW110225   4.194   2.668   3.413
 3403SOL    HW210226   4.166   2.525   3.487
 3404SOL     OW10227   4.737   1.967   3.632
 3404SOL    HW110228   4.743   2.052   3.580
 3404SOL    HW210229   4.769   1.891   3.575
 3405SOL     OW10230   4.228   1.912   3.602
 3405SOL    HW110231   4.186   1.855   3.532
 3405SOL    HW210232   4.162   1.981   3.634
 3406SOL     OW10233   4.297   2.732   2.891
 3406SOL    HW110234   4.341   2.821   2.882
 3406SOL    HW210235   4.234   2.732   2.968
 3407SOL     OW10236   4.933   2.387   2.137
 3407SOL    HW110237   4.946   2.303   2.191
 3407SOL    HW210238   4.904   2.461   2.197
 3408SOL     OW10239   4.031   2.075   3.093
 3408SOL    HW110240   4.008   2.112   3.183
 3408SOL    HW210241   4.001   1.980   3.087
 3409SOL     OW10242   3.761   3.172   3.144
 3409SOL    HW110243   3.814   3.123   3.212
 3409SOL    HW210244   3.783   3.270   3.149
 3410SOL     OW10245   4.456   2.496   2.926
 3410SOL    HW110246   4.515   2.470   2.850
 3410SOL    HW210247   4.428   2.592   2.915
 3411SOL     OW10248   4.031   1.925   2.480
 3411SOL    HW110249   4.020   2.019   2.513
 3411SOL    HW210250   4.026   1.862   2.557
 3412SOL     OW10251   4.747   2.628   2.828
 3412SOL    HW110252   4.762   2.649   2.924
 3412SOL    HW210253   4.717   2.533   2.819
 3413SOL     OW10254   4.704   3.435   3.562
 3413SOL    HW110255   4.684   3.479   3.474
 3413SOL    HW210256   4.743   3.344   3.546
 3414SOL     OW10257   4.074   2.760   3.666
 3414SOL    HW110258   4.150   2.804   3.714
 3414SOL    HW210259   4.109   2.713   3.584
 3415SOL     OW10260   4.792   3.195   2.711
 3415SOL    HW110261   4.799   3.111   2.656
 3415SOL    HW210262   4.854   3.264   2.675
 3416SOL     OW10263   4.043   2.672   2.811
 3416SOL    HW110264   4.136   2.708   2.816
 3416SOL    HW210265   4.037   2.587   2.863
 3417SOL     OW10266   4.063   2.371   2.868
 3417SOL    HW110267   4.011   2.288   2.851
 3417SOL    HW210268   4.140   2.376   2.804
 3418SOL     OW10269   4.862   2.242   3.540
 3418SOL    HW110270   4.817   2.305   3.604
 3418SOL    HW210271   4.955   2.273   3.523
 3419SOL     OW10272   4.884   2.069   3.339
 3419SOL    HW110273   4.884   2.133   3.416
 3419SOL    HW210274   4.912   2.117   3.256
 3420SOL     OW10275   3.732   3.188   2.062
 3420SOL    HW110276   3.639   3.209   2.031
 3420SOL    HW210277   3.742   3.089   2.075
 3421SOL     OW10278   3.812   3.663   2.789
 3421SOL    HW110279   3.770   3.577   2.762
 3421SOL    HW210280   3.906   3.666   2.755
 3422SOL     OW10281   4.228   3.430   2.772
 3422SOL    HW110282   4.294   3.504   2.781
 3422SOL    HW210283   4.272   3.351   2.730
 3423SOL     OW10284   4.726   2.658   3.100
 3423SOL    HW110285   4.767   2.626   3.186
 3423SOL    HW210286   4.630   2.631   3.097
 3424SOL     OW10287   3.764   2.406   2.976
 3424SOL    HW110288   3.849   2.373   2.935
 3424SOL    HW210289   3.777   2.421   3.074
 3425SOL     OW10290   3.913   2.382   3.584
 3425SOL    HW110291   3.972   2.342   3.514
 3425SOL    HW210292   3.855   2.453   3.543
 3426SOL     OW10293   4.539   2.434   2.187
 3426SOL    HW110294   4.546   2.345   2.141
 3426SOL    HW210295   4.445   2.468   2.179
 3427SOL     OW10296   3.976   3.426   3.606
 3427SOL    HW110297   3.946   3.483   3.682
 3427SOL    HW210298   3.969   3.329   3.632
 3428SOL     OW10299   4.395   2.326   3.131
 3428SOL    HW110300   4.361   2.237   3.101
 3428SOL    HW210301   4.421   2.380   3.051
 3429SOL     OW10302   4.654   3.540   3.327
 3429SOL    HW110303   4.630   3.522   3.232
 3429SOL    HW210304   4.684   3.634   3.337
 3430SOL     OW10305   4.197   2.362   2.053
 3430SOL    HW110306   4.258   2.442   2.057
 3430SOL    HW210307   4.102   2.393   2.060
 3431SOL     OW10308   3.883   2.999   3.328
 3431SOL    HW110309   3.905   2.938   3.404
 3431SOL    HW210310   3.893   2.950   3.242
 3432SOL     OW10311   3.807   3.120   2.884
 3432SOL    HW110312   3.802   3.119   2.984
 3432SOL    HW210313   3.724   3.079   2.846
 3433SOL     OW10314   4.412   3.524   3.578
 3433SOL    HW110315   4.356   3.605   3.587
 3433SOL    HW210316   4.464   3.528   3.492
 3434SOL     OW10317   3.854   3.656   3.713
 3434SOL    HW110318   3.813   3.582   3.766
 3434SOL    HW210319   3.918   3.707   3.771
 3435SOL     OW10320   4.554   3.135   3.284
 3435SOL    HW110321   4.549   3.168   3.379
 3435SOL    HW210322   4.468   3.154   3.238
 3436SOL     OW10323   4.396   3.478   2.016
 3436SOL    HW110324   4.405   3.488   1.917
 3436SOL    HW210325   4.356   3.389   2.037
 3437SOL     OW10326   3.987   2.188   2.582
 3437SOL    HW110327   3.908   2.239   2.548
 3437SOL    HW210328   3.978   2.173   2.680
 3438SOL     OW10329   4.546   2.864   3.234
 3438SOL    HW110330   4.586   2.863   3.142
 3438SOL    HW210331   4.556   2.956   3.274
 3439SOL     OW10332   4.640   2.772   2.153
 3439SOL    HW110333   4.703   2.810   2.085
 3439SOL    HW210334   4.680   2.689   2.192
 3440SOL     OW10335   4.096   3.150   3.352
 3440SOL    HW110336   4.083   3.243   3.318
 3440SOL    HW210337   4.012   3.098   3.339
 3441SOL     OW10338   4.763   2.960   2.558
 3441SOL    HW110339   4.693   2.913   2.612
 3441SOL    HW210340   4.822   2.892   2.515
 3442SOL     OW10341   4.738   2.098   2.833
 3442SOL    HW110342   4.730   2.062   2.740
 3442SOL    HW210343   4.736   2.022   2.898
 3443SOL     OW10344   4.314   3.349   2.353
 3443SOL    HW110345   4.356   3.291   2.283
 3443SOL    HW210346   4.270   3.428   2.309
 3444SOL     OW10347   3.979   3.210   2.152
 3444SOL    HW110348   3.883   3.211   2.125
 3444SOL    HW210349   3.991   3.263   2.236
 3445SOL     OW10350   3.829   2.875   3.588
 3445SOL    HW110351   3.752   2.842   3.642
 3445SOL    HW210352   3.914   2.845   3.630
 3446SOL     OW10353   4.396   2.065   3.351
 3446SOL    HW110354   4.486   2.049   3.311
 3446SOL    HW210355   4.404   2.070   3.450
 3447SOL     OW10356   3.799   2.207   1.895
 3447SOL    HW110357   3.707   2.179   1.866
 3447SOL    HW210358   3.830   2.284   1.839
 3448SOL     OW10359   3.796   2.028   2.180
 3448SOL    HW110360   3.779   2.111   2.126
 3448SOL    HW210361   3.886   1.991   2.158
 3449SOL     OW10362   4.337   2.704   3.293
 3449SOL    HW110363   4.393   2.785   3.276
 3449SOL    HW210364   4.396   2.624   3.296
 3450SOL     OW10365   4.440   2.427   3.570
 3450SOL    HW110366   4.459   2.492   3.644
 3450SOL    HW210367   4.500   2.347   3.579
 3451SOL     OW10368   4.114   3.603   3.422
 3451SOL    HW110369   4.023   3.644   3.420
 3451SOL    HW210370   4.107   3.509   3.454
 3452SOL     OW10371   4.318   2.607   2.514
 3452SOL    HW110372   4.368   2.692   2.495
 3452SOL    HW210373   4.230   2.609   2.466
 3453SOL     OW10374   4.583   3.236   1.878
 3453SOL    HW110375   4.537   3.251   1.966
 3453SOL    HW210376   4.627   3.321   1.848
 3454SOL     OW10377   4.385   3.652   2.815
 3454SOL    HW110378   4.339   3.740   2.802
 3454SOL    HW210379   4.484   3.664   2.808
 3455SOL     OW10380   4.583   2.818   2.723
 3455SOL    HW110381   4.637   2.749   2.771
 3455SOL    HW210382   4.551   2.887   2.789
 3456SOL     OW10383   4.807   2.846   1.949
 3456SOL    HW110384   4.784   2.899   1.867
 3456SOL    HW210385   4.888   2.790   1.930
 3457SOL     OW10386   3.945   3.176   3.706
 3457SOL    HW110387   3.880   3.103   3.685
 3457SOL    HW210388   3.949   3.190   3.804
 3458SOL     OW10389   3.803   3.102   2.515
 3458SOL    HW110390   3.802   3.055   2.603
 3458SOL    HW210391   3.885   3.074   2.464
 3459SOL     OW10392   4.396   3.253   3.486
 3459SOL    HW110393   4.318   3.203   3.524
 3459SOL    HW210394   4.393   3.348   3.517
 3460SOL     OW10395   4.152   2.286   2.382
 3460SOL    HW110396   4.182   2.214   2.320
 3460SOL    HW210397   4.113   2.246   2.465
 3461SOL     OW10398   4.041   2.409   3.142
 3461SOL    HW110399   4.079   2.350   3.214
 3461SOL    HW210400   4.081   2.383   3.054
 3462SOL     OW10401   4.536   3.448   2.549
 3462SOL    HW110402   4.568   3.458   2.455
 3462SOL    HW210403   4.457   3.386   2.551
 3463SOL     OW10404   4.725   1.896   3.016
 3463SOL    HW110405   4.662   1.824   2.985
 3463SOL    HW210406   4.818   1.860   3.016
 3464SOL     OW10407   4.494   3.192   2.163
 3464SOL    HW110408   4.448   3.105   2.180
 3464SOL    HW210409   4.585   3.189   2.204
 3465SOL     OW10410   4.342   3.429   3.146
 3465SOL    HW110411   4.337   3.511   3.203
 3465SOL    HW210412   4.431   3.426   3.101
 3466SOL     OW10413   3.763   2.939   2.162
 3466SOL    HW110414   3.862   2.928   2.153
 3466SOL    HW210415   3.723   2.853   2.194
 3467SOL     OW10416   4.599   3.508   2.199
 3467SOL    HW110417   4.522   3.473   2.145
 3467SOL    HW210418   4.567   3.579   2.261
 3468SOL     OW10419   3.954   2.490   3.837
 3468SOL    HW110420   3.861   2.488   3.874
 3468SOL    HW210421   3.955   2.451   3.745
 3469SOL     OW10422   3.949   2.137   4.720
 3469SOL    HW110423   3.984   2.120   4.812
 3469SOL    HW210424   3.861   2.092   4.708
 3470SOL     OW10425   3.743   2.230   4.371
 3470SOL    HW110426   3.661   2.273   4.410
 3470SOL    HW210427   3.715   2.157   4.308
 3471SOL     OW10428   4.492   3.006   4.747
 3471SOL    HW110429   4.414   3.023   4.807
 3471SOL    HW210430   4.526   3.093   4.711
 3472SOL     OW10431   4.409   2.874   4.389
 3472SOL    HW110432   4.478   2.858   4.459
 3472SOL    HW210433   4.336   2.931   4.427
 3473SOL     OW10434   4.059   3.297   4.785
 3473SOL    HW110435   3.981   3.266   4.732
 3473SOL    HW210436   4.117   3.355   4.728
 3474SOL     OW10437   3.955   3.575   4.207
 3474SOL    HW110438   3.989   3.652   4.261
 3474SOL    HW210439   3.999   3.575   4.117
 3475SOL     OW10440   3.954   3.296   4.262
 3475SOL    HW110441   3.928   3.392   4.262
 3475SOL    HW210442   3.883   3.242   4.307
 3476SOL     OW10443   3.964   2.953   4.610
 3476SOL    HW110444   3.978   2.869   4.662
 3476SOL    HW210445   3.909   3.017   4.665
 3477SOL     OW10446   4.330   2.826   3.847
 3477SOL    HW110447   4.337   2.910   3.793
 3477SOL    HW210448   4.376   2.839   3.935
 3478SOL     OW10449   3.846   2.505   4.287
 3478SOL    HW110450   3.801   2.417   4.304
 3478SOL    HW210451   3.845   2.559   4.371
 3479SOL     OW10452   3.751   3.458   3.841
 3479SOL    HW110453   3.732   3.362   3.862
 3479SOL    HW210454   3.718   3.516   3.916
 3480SOL     OW10455   4.337   3.227   4.450
 3480SOL    HW110456   4.288   3.140   4.459
 3480SOL    HW210457   4.314   3.270   4.363
 3481SOL     OW10458   4.533   1.866   4.226
 3481SOL    HW110459   4.573   1.957   4.217
 3481SOL    HW210460   4.433   1.874   4.232
 3482SOL     OW10461   4.322   2.591   3.994
 3482SOL    HW110462   4.346   2.660   3.926
 3482SOL    HW210463   4.244   2.624   4.048
 3483SOL     OW10464   4.765   2.563   4.153
 3483SOL    HW110465   4.791   2.559   4.249
 3483SOL    HW210466   4.680   2.512   4.139
 3484SOL     OW10467   3.800   2.673   4.513
 3484SOL    HW110468   3.899   2.661   4.522
 3484SOL    HW210469   3.776   2.768   4.534
 3485SOL     OW10470   4.589   2.210   3.919
 3485SOL    HW110471   4.648   2.273   3.870
 3485SOL    HW210472   4.608   2.116   3.890
 3486SOL     OW10473   4.274   2.058   4.609
 3486SOL    HW110474   4.269   2.053   4.709
 3486SOL    HW210475   4.276   2.154   4.580
 3487SOL     OW10476   4.732   3.318   4.201
 3487SOL    HW110477   4.686   3.390   4.149
 3487SOL    HW210478   4.728   3.338   4.299
 3488SOL     OW10479   4.075   3.663   4.577
 3488SOL    HW110480   4.125   3.577   4.583
 3488SOL    HW210481   4.140   3.740   4.574
 3489SOL     OW10482   4.045   2.805   3.966
 3489SOL    HW110483   4.127   2.844   3.924
 3489SOL    HW210484   4.018   2.723   3.917
 3490SOL     OW10485   4.188   3.605   4.047
 3490SOL    HW110486   4.221   3.644   4.133
 3490SOL    HW210487   4.264   3.598   3.982
 3491SOL     OW10488   3.973   3.647   4.965
 3491SOL    HW110489   4.030   3.582   5.015
 3491SOL    HW210490   3.957   3.614   4.872
 3492SOL     OW10491   4.664   3.560   4.628
 3492SOL    HW110492   4.744   3.503   4.649
 3492SOL    HW210493   4.615   3.520   4.551
 3493SOL     OW10494   4.106   2.562   4.204
 3493SOL    HW110495   4.151   2.472   4.201
 3493SOL    HW210496   4.012   2.551   4.237
 3494SOL     OW10497   4.338   1.984   3.841
 3494SOL    HW110498   4.436   1.962   3.848
 3494SOL    HW210499   4.307   1.967   3.748
 3495SOL     OW10500   4.527   3.264   4.648
 3495SOL    HW110501   4.617   3.278   4.606
 3495SOL    HW210502   4.456   3.266   4.577
 3496SOL     OW10503   4.646   2.365   4.623
 3496SOL    HW110504   4.621   2.356   4.527
 3496SOL    HW210505   4.694   2.283   4.654
 3497SOL     OW10506   4.263   1.926   4.236
 3497SOL    HW110507   4.182   1.927   4.294
 3497SOL    HW210508   4.266   2.009   4.181
 3498SOL     OW10509   4.021   1.897   3.895
 3498SOL    HW110510   4.070   1.981   3.874
 3498SOL    HW210511   4.083   1.832   3.940
 3499SOL     OW10512   4.659   2.098   4.204
 3499SOL    HW110513   4.611   2.139   4.126
 3499SOL    HW210514   4.758   2.096   4.185
 3500SOL     OW10515   4.951   3.432   4.517
 3500SOL    HW110516   4.972   3.506   4.452
 3500SOL    HW210517   5.019   3.432   4.590
 3501SOL     OW10518   4.183   3.014   4.465
 3501SOL    HW110519   4.112   2.987   4.530
 3501SOL    HW210520   4.157   2.986   4.372
 3502SOL     OW10521   4.756   2.411   3.740
 3502SOL    HW110522   4.715   2.493   3.701
 3502SOL    HW210523   4.820   2.437   3.813
 3503SOL     OW10524   4.590   2.316   4.366
 3503SOL    HW110525   4.558   2.388   4.304
 3503SOL    HW210526   4.614   2.235   4.313
 3504SOL     OW10527   4.741   1.901   4.477
 3504SOL    HW110528   4.669   1.906   4.408
 3504SOL    HW210529   4.717   1.832   4.546
 3505SOL     OW10530   4.212   3.247   3.898
 3505SOL    HW110531   4.125   3.232   3.945
 3505SOL    HW210532   4.195   3.273   3.803
 3506SOL     OW10533   4.251   2.118   4.052
 3506SOL    HW110534   4.278   2.059   3.977
 3506SOL    HW210535   4.251   2.213   4.021
 3507SOL     OW10536   4.429   2.912   4.092
 3507SOL    HW110537   4.415   2.919   4.191
 3507SOL    HW210538   4.513   2.861   4.074
 3508SOL     OW10539   4.091   2.962   4.225
 3508SOL    HW110540   4.084   3.045   4.169
 3508SOL    HW210541   4.095   2.882   4.165
 3509SOL     OW10542   4.290   2.399   4.589
 3509SOL    HW110543   4.302   2.465   4.515
 3509SOL    HW210544   4.336   2.433   4.672
 3510SOL     OW10545   4.297   2.732   4.753
 3510SOL    HW110546   4.341   2.821   4.744
 3510SOL    HW210547   4.234   2.732   4.830
 3511SOL     OW10548   4.933   2.387   3.999
 3511SOL    HW110549   4.946   2.303   4.053
 3511SOL    HW210550   4.904   2.461   4.059
 3512SOL     OW10551   4.031   2.075   4.955
 3512SOL    HW110552   4.008   2.112   5.045
 3512SOL    HW210553   4.001   1.980   4.949
 3513SOL     OW10554   4.456   2.496   4.788
 3513SOL    HW110555   4.515   2.470   4.712
 3513SOL    HW210556   4.428   2.592   4.777
 3514SOL     OW10557   4.031   1.925   4.342
 3514SOL    HW110558   4.020   2.019   4.375
 3514SOL    HW210559   4.026   1.862   4.419
 3515SOL     OW10560   4.747   2.628   4.690
 3515SOL    HW110561   4.762   2.649   4.786
 3515SOL    HW210562   4.717   2.533   4.681
 3516SOL     OW10563   4.792   3.195   4.573
 3516SOL    HW110564   4.799   3.111   4.518
 3516SOL    HW210565   4.854   3.264   4.537
 3517SOL     OW10566   4.043   2.672   4.673
 3517SOL    HW110567   4.136   2.708   4.678
 3517SOL    HW210568   4.037   2.587   4.725
 3518SOL     OW10569   4.063   2.371   4.730
 3518SOL    HW110570   4.011   2.288   4.713
 3518SOL    HW210571   4.140   2.376   4.666
 3519SOL     OW10572   3.732   3.188   3.924
 3519SOL    HW110573   3.639   3.209   3.893
 3519SOL    HW210574   3.742   3.089   3.937
 3520SOL     OW10575   3.812   3.663   4.651
 3520SOL    HW110576   3.770   3.577   4.624
 3520SOL    HW210577   3.906   3.666   4.617
 3521SOL     OW10578   4.228   3.430   4.634
 3521SOL    HW110579   4.294   3.504   4.643
 3521SOL    HW210580   4.272   3.351   4.592
 3522SOL     OW10581   4.726   2.658   4.962
 3522SOL    HW110582   4.767   2.626   5.048
 3522SOL    HW210583   4.630   2.631   4.959
 3523SOL     OW10584   4.539   2.434   4.049
 3523SOL    HW110585   4.546   2.345   4.003
 3523SOL    HW210586   4.445   2.468   4.041
 3524SOL     OW10587   4.395   2.326   4.993
 3524SOL    HW110588   4.361   2.237   4.963
 3524SOL    HW210589   4.421   2.380   4.913
 3525SOL     OW10590   4.197   2.362   3.915
 3525SOL    HW110591   4.258   2.442   3.919
 3525SOL    HW210592   4.102   2.393   3.922
 3526SOL     OW10593   3.807   3.120   4.746
 3526SOL    HW110594   3.802   3.119   4.846
 3526SOL    HW210595   3.724   3.079   4.708
 3527SOL     OW10596   4.396   3.478   3.878
 3527SOL    HW110597   4.405   3.488   3.779
 3527SOL    HW210598   4.356   3.389   3.899
 3528SOL     OW10599   3.987   2.188   4.444
 3528SOL    HW110600   3.908   2.239   4.410
 3528SOL    HW210601   3.978   2.173   4.542
 3529SOL     OW10602   4.640   2.772   4.015
 3529SOL    HW110603   4.703   2.810   3.947
 3529SOL    HW210604   4.680   2.689   4.054
 3530SOL     OW10605   4.763   2.960   4.420
 3530SOL    HW110606   4.693   2.913   4.474
 3530SOL    HW210607   4.822   2.892   4.377
 3531SOL     OW10608   4.738   2.098   4.695
 3531SOL    HW110609   4.730   2.062   4.602
 3531SOL    HW210610   4.736   2.022   4.760
 3532SOL     OW10611   4.314   3.349   4.215
 3532SOL    HW110612   4.356   3.291   4.145
 3532SOL    HW210613   4.270   3.428   4.171
 3533SOL     OW10614   3.979   3.210   4.014
 3533SOL    HW110615   3.883   3.211   3.987
 3533SOL    HW210616   3.991   3.263   4.098
 3534SOL     OW10617   3.799   2.207   3.757
 3534SOL    HW110618   3.707   2.179   3.728
 3534SOL    HW210619   3.830   2.284   3.701
 3535SOL     OW10620   3.796   2.028   4.042
 3535SOL    HW110621   3.779   2.111   3.988
 3535SOL    HW210622   3.886   1.991   4.020
 3536SOL     OW10623   4.318   2.607   4.376
 3536SOL    HW110624   4.368   2.692   4.357
 3536SOL    HW210625   4.230   2.609   4.328
 3537SOL     OW10626   4.583   3.236   3.740
 3537SOL    HW110627   4.537   3.251   3.828
 3537SOL    HW210628   4.627   3.321   3.710
 3538SOL     OW10629   4.385   3.652   4.677
 3538SOL    HW110630   4.339   3.740   4.664
 3538SOL    HW210631   4.484   3.664   4.670
 3539SOL     OW10632   4.583   2.818   4.585
 3539SOL    HW110633   4.637   2.749   4.633
 3539SOL    HW210634   4.551   2.887   4.651
 3540SOL     OW10635   4.807   2.846   3.811
 3540SOL    HW110636   4.784   2.899   3.729
 3540SOL    HW210637   4.888   2.790   3.792
 3541SOL     OW10638   3.803   3.102   4.377
 3541SOL    HW110639   3.802   3.055   4.465
 3541SOL    HW210640   3.885   3.074   4.326
 3542SOL     OW10641   4.152   2.286   4.244
 3542SOL    HW110642   4.182   2.214   4.182
 3542SOL    HW210643   4.113   2.246   4.327
 3543SOL     OW10644   4.536   3.448   4.411
 3543SOL    HW110645   4.568   3.458   4.317
 3543SOL    HW210646   4.457   3.386   4.413
 3544SOL     OW10647   4.494   3.192   4.025
 3544SOL    HW110648   4.448   3.105   4.042
 3544SOL    HW210649   4.585   3.189   4.066
 3545SOL     OW10650   3.763   2.939   4.024
 3545SOL    HW110651   3.862   2.928   4.015
 3545SOL    HW210652   3.723   2.853   4.056
 3546SOL     OW10653   4.599   3.508   4.061
 3546SOL    HW110654   4.522   3.473   4.007
 3546SOL    HW210655   4.567   3.579   4.123
 3547SOL     OW10656   3.954   4.352   0.113
 3547SOL    HW110657   3.861   4.350   0.150
 3547SOL    HW210658   3.955   4.313   0.021
 3548SOL     OW10659   3.949   3.999   0.996
 3548SOL    HW110660   3.984   3.982   1.088
 3548SOL    HW210661   3.861   3.954   0.984
 3549SOL     OW10662   3.743   4.092   0.647
 3549SOL    HW110663   3.661   4.135   0.686
 3549SOL    HW210664   3.715   4.019   0.584
 3550SOL     OW10665   4.492   4.868   1.023
 3550SOL    HW110666   4.414   4.885   1.083
 3550SOL    HW210667   4.526   4.955   0.987
 3551SOL     OW10668   4.574   4.522   1.823
 3551SOL    HW110669   4.570   4.598   1.888
 3551SOL    HW210670   4.596   4.558   1.732
 3552SOL     OW10671   4.409   4.736   0.665
 3552SOL    HW110672   4.478   4.720   0.735
 3552SOL    HW210673   4.336   4.793   0.703
 3553SOL     OW10674   4.162   4.116   1.499
 3553SOL    HW110675   4.244   4.060   1.508
 3553SOL    HW210676   4.081   4.058   1.503
 3554SOL     OW10677   3.954   5.158   0.538
 3554SOL    HW110678   3.928   5.254   0.538
 3554SOL    HW210679   3.883   5.104   0.583
 3555SOL     OW10680   3.964   4.815   0.886
 3555SOL    HW110681   3.978   4.731   0.938
 3555SOL    HW210682   3.909   4.879   0.941
 3556SOL     OW10683   4.330   4.688   0.123
 3556SOL    HW110684   4.337   4.772   0.069
 3556SOL    HW210685   4.376   4.701   0.211
 3557SOL     OW10686   3.846   4.367   0.563
 3557SOL    HW110687   3.801   4.279   0.580
 3557SOL    HW210688   3.845   4.421   0.647
 3558SOL     OW10689   3.837   4.461   1.597
 3558SOL    HW110690   3.925   4.448   1.642
 3558SOL    HW210691   3.824   4.558   1.575
 3559SOL     OW10692   4.337   5.089   0.726
 3559SOL    HW110693   4.288   5.002   0.735
 3559SOL    HW210694   4.314   5.132   0.639
 3560SOL     OW10695   4.533   3.728   0.502
 3560SOL    HW110696   4.573   3.819   0.493
 3560SOL    HW210697   4.433   3.736   0.508
 3561SOL     OW10698   3.921   4.700   1.264
 3561SOL    HW110699   4.010   4.655   1.250
 3561SOL    HW210700   3.848   4.635   1.245
 3562SOL     OW10701   4.041   3.975   1.801
 3562SOL    HW110702   4.112   4.046   1.807
 3562SOL    HW210703   3.953   4.014   1.829
 3563SOL     OW10704   4.322   4.453   0.270
 3563SOL    HW110705   4.346   4.522   0.202
 3563SOL    HW210706   4.244   4.486   0.324
 3564SOL     OW10707   4.531   4.329   1.465
 3564SOL    HW110708   4.484   4.326   1.554
 3564SOL    HW210709   4.480   4.274   1.399
 3565SOL     OW10710   4.697   4.614   1.572
 3565SOL    HW110711   4.743   4.530   1.543
 3565SOL    HW210712   4.641   4.648   1.497
 3566SOL     OW10713   4.715   4.134   1.242
 3566SOL    HW110714   4.638   4.168   1.296
 3566SOL    HW210715   4.681   4.083   1.163
 3567SOL     OW10716   4.765   4.425   0.429
 3567SOL    HW110717   4.791   4.421   0.525
 3567SOL    HW210718   4.680   4.374   0.415
 3568SOL     OW10719   3.800   4.535   0.789
 3568SOL    HW110720   3.899   4.523   0.798
 3568SOL    HW210721   3.776   4.630   0.810
 3569SOL     OW10722   4.589   4.072   0.195
 3569SOL    HW110723   4.648   4.135   0.146
 3569SOL    HW210724   4.608   3.978   0.166
 3570SOL     OW10725   4.274   3.920   0.885
 3570SOL    HW110726   4.269   3.915   0.985
 3570SOL    HW210727   4.276   4.016   0.856
 3571SOL     OW10728   3.926   4.009   1.498
 3571SOL    HW110729   3.846   4.069   1.485
 3571SOL    HW210730   3.916   3.960   1.584
 3572SOL     OW10731   4.106   4.424   0.480
 3572SOL    HW110732   4.151   4.334   0.477
 3572SOL    HW210733   4.012   4.413   0.513
 3573SOL     OW10734   4.338   3.846   0.117
 3573SOL    HW110735   4.436   3.824   0.124
 3573SOL    HW210736   4.307   3.829   0.024
 3574SOL     OW10737   4.505   3.988   1.749
 3574SOL    HW110738   4.572   3.927   1.792
 3574SOL    HW210739   4.432   4.007   1.814
 3575SOL     OW10740   4.646   4.227   0.899
 3575SOL    HW110741   4.621   4.218   0.803
 3575SOL    HW210742   4.694   4.145   0.930
 3576SOL     OW10743   4.263   3.788   0.512
 3576SOL    HW110744   4.182   3.789   0.570
 3576SOL    HW210745   4.266   3.871   0.457
 3577SOL     OW10746   4.659   3.960   0.480
 3577SOL    HW110747   4.611   4.001   0.402
 3577SOL    HW210748   4.758   3.958   0.461
 3578SOL     OW10749   4.756   4.273   0.016
 3578SOL    HW110750   4.715   4.355  -0.023
 3578SOL    HW210751   4.820   4.299   0.089
 3579SOL     OW10752   3.802   4.280   1.386
 3579SOL    HW110753   3.894   4.279   1.345
 3579SOL    HW210754   3.796   4.354   1.453
 3580SOL     OW10755   4.285   3.946   1.147
 3580SOL    HW110756   4.323   3.862   1.184
 3580SOL    HW210757   4.197   3.965   1.191
 3581SOL     OW10758   4.590   4.178   0.642
 3581SOL    HW110759   4.558   4.250   0.580
 3581SOL    HW210760   4.614   4.097   0.589
 3582SOL     OW10761   4.741   3.763   0.753
 3582SOL    HW110762   4.669   3.768   0.684
 3582SOL    HW210763   4.717   3.694   0.822
 3583SOL     OW10764   4.251   3.980   0.328
 3583SOL    HW110765   4.278   3.921   0.253
 3583SOL    HW210766   4.251   4.075   0.297
 3584SOL     OW10767   4.639   3.813   1.402
 3584SOL    HW110768   4.664   3.793   1.307
 3584SOL    HW210769   4.711   3.869   1.444
 3585SOL     OW10770   4.134   4.537   1.251
 3585SOL    HW110771   4.220   4.549   1.301
 3585SOL    HW210772   4.092   4.450   1.278
 3586SOL     OW10773   4.290   4.261   0.865
 3586SOL    HW110774   4.302   4.327   0.791
 3586SOL    HW210775   4.336   4.295   0.948
 3587SOL     OW10776   4.126   4.475   1.598
 3587SOL    HW110777   4.194   4.530   1.551
 3587SOL    HW210778   4.166   4.387   1.625
 3588SOL     OW10779   4.737   3.829   1.770
 3588SOL    HW110780   4.743   3.914   1.718
 3588SOL    HW210781   4.769   3.753   1.713
 3589SOL     OW10782   4.228   3.774   1.740
 3589SOL    HW110783   4.186   3.717   1.670
 3589SOL    HW210784   4.162   3.843   1.772
 3590SOL     OW10785   4.297   4.594   1.029
 3590SOL    HW110786   4.341   4.683   1.020
 3590SOL    HW210787   4.234   4.594   1.106
 3591SOL     OW10788   4.933   4.249   0.275
 3591SOL    HW110789   4.946   4.165   0.329
 3591SOL    HW210790   4.904   4.323   0.335
 3592SOL     OW10791   4.031   3.937   1.231
 3592SOL    HW110792   4.008   3.974   1.321
 3592SOL    HW210793   4.001   3.842   1.225
 3593SOL     OW10794   4.456   4.358   1.064
 3593SOL    HW110795   4.515   4.332   0.988
 3593SOL    HW210796   4.428   4.454   1.053
 3594SOL     OW10797   4.031   3.787   0.618
 3594SOL    HW110798   4.020   3.881   0.651
 3594SOL    HW210799   4.026   3.724   0.695
 3595SOL     OW10800   4.747   4.490   0.966
 3595SOL    HW110801   4.762   4.511   1.062
 3595SOL    HW210802   4.717   4.395   0.957
 3596SOL     OW10803   4.074   4.622   1.804
 3596SOL    HW110804   4.150   4.666   1.852
 3596SOL    HW210805   4.109   4.575   1.722
 3597SOL     OW10806   4.043   4.534   0.949
 3597SOL    HW110807   4.136   4.570   0.954
 3597SOL    HW210808   4.037   4.449   1.001
 3598SOL     OW10809   4.063   4.233   1.006
 3598SOL    HW110810   4.011   4.150   0.989
 3598SOL    HW210811   4.140   4.238   0.942
 3599SOL     OW10812   4.862   4.104   1.678
 3599SOL    HW110813   4.817   4.167   1.742
 3599SOL    HW210814   4.955   4.135   1.661
 3600SOL     OW10815   4.884   3.931   1.477
 3600SOL    HW110816   4.884   3.995   1.554
 3600SOL    HW210817   4.912   3.979   1.394
 3601SOL     OW10818   4.726   4.520   1.238
 3601SOL    HW110819   4.767   4.488   1.324
 3601SOL    HW210820   4.630   4.493   1.235
 3602SOL     OW10821   3.764   4.268   1.114
 3602SOL    HW110822   3.849   4.235   1.073
 3602SOL    HW210823   3.777   4.283   1.212
 3603SOL     OW10824   3.913   4.244   1.722
 3603SOL    HW110825   3.972   4.204   1.652
 3603SOL    HW210826   3.855   4.315   1.681
 3604SOL     OW10827   4.539   4.296   0.325
 3604SOL    HW110828   4.546   4.207   0.279
 3604SOL    HW210829   4.445   4.330   0.317
 3605SOL     OW10830   4.395   4.188   1.269
 3605SOL    HW110831   4.361   4.099   1.239
 3605SOL    HW210832   4.421   4.242   1.189
 3606SOL     OW10833   4.197   4.224   0.191
 3606SOL    HW110834   4.258   4.304   0.195
 3606SOL    HW210835   4.102   4.255   0.198
 3607SOL     OW10836   3.883   4.861   1.466
 3607SOL    HW110837   3.905   4.800   1.542
 3607SOL    HW210838   3.893   4.812   1.380
 3608SOL     OW10839   4.627   3.810   0.133
 3608SOL    HW110840   4.678   3.811   0.047
 3608SOL    HW210841   4.683   3.768   0.204
 3609SOL     OW10842   3.987   4.050   0.720
 3609SOL    HW110843   3.908   4.101   0.686
 3609SOL    HW210844   3.978   4.035   0.818
 3610SOL     OW10845   4.546   4.726   1.372
 3610SOL    HW110846   4.586   4.725   1.280
 3610SOL    HW210847   4.556   4.818   1.412
 3611SOL     OW10848   4.640   4.634   0.291
 3611SOL    HW110849   4.703   4.672   0.223
 3611SOL    HW210850   4.680   4.551   0.330
 3612SOL     OW10851   4.738   3.960   0.971
 3612SOL    HW110852   4.730   3.924   0.878
 3612SOL    HW210853   4.736   3.884   1.036
 3613SOL     OW10854   3.829   4.737   1.726
 3613SOL    HW110855   3.752   4.704   1.780
 3613SOL    HW210856   3.914   4.707   1.768
 3614SOL     OW10857   4.396   3.927   1.489
 3614SOL    HW110858   4.486   3.911   1.449
 3614SOL    HW210859   4.404   3.932   1.588
 3615SOL     OW10860   3.796   3.890   0.318
 3615SOL    HW110861   3.779   3.973   0.264
 3615SOL    HW210862   3.886   3.853   0.296
 3616SOL     OW10863   4.337   4.566   1.431
 3616SOL    HW110864   4.393   4.647   1.414
 3616SOL    HW210865   4.396   4.486   1.434
 3617SOL     OW10866   4.440   4.289   1.708
 3617SOL    HW110867   4.459   4.354   1.782
 3617SOL    HW210868   4.500   4.209   1.717
 3618SOL     OW10869   4.318   4.469   0.652
 3618SOL    HW110870   4.368   4.554   0.633
 3618SOL    HW210871   4.230   4.471   0.604
 3619SOL     OW10872   4.583   4.680   0.861
 3619SOL    HW110873   4.637   4.611   0.909
 3619SOL    HW210874   4.551   4.749   0.927
 3620SOL     OW10875   4.152   4.148   0.520
 3620SOL    HW110876   4.182   4.076   0.458
 3620SOL    HW210877   4.113   4.108   0.603
 3621SOL     OW10878   4.041   4.271   1.280
 3621SOL    HW110879   4.079   4.212   1.352
 3621SOL    HW210880   4.081   4.245   1.192
 3622SOL     OW10881   4.725   3.758   1.154
 3622SOL    HW110882   4.662   3.686   1.123
 3622SOL    HW210883   4.818   3.722   1.154
 3623SOL     OW10884   3.763   4.801   0.300
 3623SOL    HW110885   3.862   4.790   0.291
 3623SOL    HW210886   3.723   4.715   0.332
 3624SOL     OW10887   3.954   4.352   1.975
 3624SOL    HW110888   3.861   4.350   2.012
 3624SOL    HW210889   3.955   4.313   1.883
 3625SOL     OW10890   3.949   3.999   2.858
 3625SOL    HW110891   3.984   3.982   2.950
 3625SOL    HW210892   3.861   3.954   2.846
 3626SOL     OW10893   3.743   4.092   2.509
 3626SOL    HW110894   3.661   4.135   2.548
 3626SOL    HW210895   3.715   4.019   2.446
 3627SOL     OW10896   4.492   4.868   2.885
 3627SOL    HW110897   4.414   4.885   2.945
 3627SOL    HW210898   4.526   4.955   2.849
 3628SOL     OW10899   4.574   4.522   3.685
 3628SOL    HW110900   4.570   4.598   3.750
 3628SOL    HW210901   4.596   4.558   3.594
 3629SOL     OW10902   4.409   4.736   2.527
 3629SOL    HW110903   4.478   4.720   2.597
 3629SOL    HW210904   4.336   4.793   2.565
 3630SOL     OW10905   4.162   4.116   3.361
 3630SOL    HW110906   4.244   4.060   3.370
 3630SOL    HW210907   4.081   4.058   3.365
 3631SOL     OW10908   3.954   5.158   2.400
 3631SOL    HW110909   3.928   5.254   2.400
 3631SOL    HW210910   3.883   5.104   2.445
 3632SOL     OW10911   3.964   4.815   2.748
 3632SOL    HW110912   3.978   4.731   2.800
 3632SOL    HW210913   3.909   4.879   2.803
 3633SOL     OW10914   4.330   4.688   1.985
 3633SOL    HW110915   4.337   4.772   1.931
 3633SOL    HW210916   4.376   4.701   2.073
 3634SOL     OW10917   3.846   4.367   2.425
 3634SOL    HW110918   3.801   4.279   2.442
 3634SOL    HW210919   3.845   4.421   2.509
 3635SOL     OW10920   3.837   4.461   3.459
 3635SOL    HW110921   3.925   4.448   3.504
 3635SOL    HW210922   3.824   4.558   3.437
 3636SOL     OW10923   4.337   5.089   2.588
 3636SOL    HW110924   4.288   5.002   2.597
 3636SOL    HW210925   4.314   5.132   2.501
 3637SOL     OW10926   4.533   3.728   2.364
 3637SOL    HW110927   4.573   3.819   2.355
 3637SOL    HW210928   4.433   3.736   2.370
 3638SOL     OW10929   3.921   4.700   3.126
 3638SOL    HW110930   4.010   4.655   3.112
 3638SOL    HW210931   3.848   4.635   3.107
 3639SOL     OW10932   4.041   3.975   3.663
 3639SOL    HW110933   4.112   4.046   3.669
 3639SOL    HW210934   3.953   4.014   3.691
 3640SOL     OW10935   4.322   4.453   2.132
 3640SOL    HW110936   4.346   4.522   2.064
 3640SOL    HW210937   4.244   4.486   2.186
 3641SOL     OW10938   4.531   4.329   3.327
 3641SOL    HW110939   4.484   4.326   3.416
 3641SOL    HW210940   4.480   4.274   3.261
 3642SOL     OW10941   4.697   4.614   3.434
 3642SOL    HW110942   4.743   4.530   3.405
 3642SOL    HW210943   4.641   4.648   3.359
 3643SOL     OW10944   4.715   4.134   3.104
 3643SOL    HW110945   4.638   4.168   3.158
 3643SOL    HW210946   4.681   4.083   3.025
 3644SOL     OW10947   4.765   4.425   2.291
 3644SOL    HW110948   4.791   4.421   2.387
 3644SOL    HW210949   4.680   4.374   2.277
 3645SOL     OW10950   3.800   4.535   2.651
 3645SOL    HW110951   3.899   4.523   2.660
 3645SOL    HW210952   3.776   4.630   2.672
 3646SOL     OW10953   4.589   4.072   2.057
 3646SOL    HW110954   4.648   4.135   2.008
 3646SOL    HW210955   4.608   3.978   2.028
 3647SOL     OW10956   4.274   3.920   2.747
 3647SOL    HW110957   4.269   3.915   2.847
 3647SOL    HW210958   4.276   4.016   2.718
 3648SOL     OW10959   3.926   4.009   3.360
 3648SOL    HW110960   3.846   4.069   3.347
 3648SOL    HW210961   3.916   3.960   3.446
 3649SOL     OW10962   4.106   4.424   2.342
 3649SOL    HW110963   4.151   4.334   2.339
 3649SOL    HW210964   4.012   4.413   2.375
 3650SOL     OW10965   4.338   3.846   1.979
 3650SOL    HW110966   4.436   3.824   1.986
 3650SOL    HW210967   4.307   3.829   1.886
 3651SOL     OW10968   4.505   3.988   3.611
 3651SOL    HW110969   4.572   3.927   3.654
 3651SOL    HW210970   4.432   4.007   3.676
 3652SOL     OW10971   4.646   4.227   2.761
 3652SOL    HW110972   4.621   4.218   2.665
 3652SOL    HW210973   4.694   4.145   2.792
 3653SOL     OW10974   4.263   3.788   2.374
 3653SOL    HW110975   4.182   3.789   2.432
 3653SOL    HW210976   4.266   3.871   2.319
 3654SOL     OW10977   4.021   3.759   2.033
 3654SOL    HW110978   4.070   3.843   2.012
 3654SOL    HW210979   4.083   3.694   2.078
 3655SOL     OW10980   4.659   3.960   2.342
 3655SOL    HW110981   4.611   4.001   2.264
 3655SOL    HW210982   4.758   3.958   2.323
 3656SOL     OW10983   4.756   4.273   1.878
 3656SOL    HW110984   4.715   4.355   1.839
 3656SOL    HW210985   4.820   4.299   1.951
 3657SOL     OW10986   3.802   4.280   3.248
 3657SOL    HW110987   3.894   4.279   3.207
 3657SOL    HW210988   3.796   4.354   3.315
 3658SOL     OW10989   4.285   3.946   3.009
 3658SOL    HW110990   4.323   3.862   3.046
 3658SOL    HW210991   4.197   3.965   3.053
 3659SOL     OW10992   4.590   4.178   2.504
 3659SOL    HW110993   4.558   4.250   2.442
 3659SOL    HW210994   4.614   4.097   2.451
 3660SOL     OW10995   4.741   3.763   2.615
 3660SOL    HW110996   4.669   3.768   2.546
 3660SOL    HW210997   4.717   3.694   2.684
 3661SOL     OW10998   4.251   3.980   2.190
 3661SOL    HW110999   4.278   3.921   2.115
 3661SOL    HW211000   4.251   4.075   2.159
 3662SOL     OW11001   4.639   3.813   3.264
 3662SOL    HW111002   4.664   3.793   3.169
 3662SOL    HW211003   4.711   3.869   3.306
 3663SOL     OW11004   4.134   4.537   3.113
 3663SOL    HW111005   4.220   4.549   3.163
 3663SOL    HW211006   4.092   4.450   3.140
 3664SOL     OW11007   4.290   4.261   2.727
 3664SOL    HW111008   4.302   4.327   2.653
 3664SOL    HW211009   4.336   4.295   2.810
 3665SOL     OW11010   4.126   4.475   3.460
 3665SOL    HW111011   4.194   4.530   3.413
 3665SOL    HW211012   4.166   4.387   3.487
 3666SOL     OW11013   4.737   3.829   3.632
 3666SOL    HW111014   4.743   3.914   3.580
 3666SOL    HW211015   4.769   3.753   3.575
 3667SOL     OW11016   4.228   3.774   3.602
 3667SOL    HW111017   4.186   3.717   3.532
 3667SOL    HW211018   4.162   3.843   3.634
 3668SOL     OW11019   4.297   4.594   2.891
 3668SOL    HW111020   4.341   4.683   2.882
 3668SOL    HW211021   4.234   4.594   2.968
 3669SOL     OW11022   4.933   4.249   2.137
 3669SOL    HW111023   4.946   4.165   2.191
 3669SOL    HW211024   4.904   4.323   2.197
 3670SOL     OW11025   4.031   3.937   3.093
 3670SOL    HW111026   4.008   3.974   3.183
 3670SOL    HW211027   4.001   3.842   3.087
 3671SOL     OW11028   4.456   4.358   2.926
 3671SOL    HW111029   4.515   4.332   2.850
 3671SOL    HW211030   4.428   4.454   2.915
 3672SOL     OW11031   4.031   3.787   2.480
 3672SOL    HW111032   4.020   3.881   2.513
 3672SOL    HW211033   4.026   3.724   2.557
 3673SOL     OW11034   4.747   4.490   2.828
 3673SOL    HW111035   4.762   4.511   2.924
 3673SOL    HW211036   4.717   4.395   2.819
 3674SOL     OW11037   4.074   4.622   3.666
 3674SOL    HW111038   4.150   4.666   3.714
 3674SOL    HW211039   4.109   4.575   3.584
 3675SOL     OW11040   4.043   4.534   2.811
 3675SOL    HW111041   4.136   4.570   2.816
 3675SOL    HW211042   4.037   4.449   2.863
 3676SOL     OW11043   4.063   4.233   2.868
 3676SOL    HW111044   4.011   4.150   2.851
 3676SOL    HW211045   4.140   4.238   2.804
 3677SOL     OW11046   4.862   4.104   3.540
 3677SOL    HW111047   4.817   4.167   3.604
 3677SOL    HW211048   4.955   4.135   3.523
 3678SOL     OW11049   4.884   3.931   3.339
 3678SOL    HW111050   4.884   3.995   3.416
 3678SOL    HW211051   4.912   3.979   3.256
 3679SOL     OW11052   4.726   4.520   3.100
 3679SOL    HW111053   4.767   4.488   3.186
 3679SOL    HW211054   4.630   4.493   3.097
 3680SOL     OW11055   3.764   4.268   2.976
 3680SOL    HW111056   3.849   4.235   2.935
 3680SOL    HW211057   3.777   4.283   3.074
 3681SOL     OW11058   3.913   4.244   3.584
 3681SOL    HW111059   3.972   4.204   3.514
 3681SOL    HW211060   3.855   4.315   3.543
 3682SOL     OW11061   4.539   4.296   2.187
 3682SOL    HW111062   4.546   4.207   2.141
 3682SOL    HW211063   4.445   4.330   2.179
 3683SOL     OW11064   4.395   4.188   3.131
 3683SOL    HW111065   4.361   4.099   3.101
 3683SOL    HW211066   4.421   4.242   3.051
 3684SOL     OW11067   4.197   4.224   2.053
 3684SOL    HW111068   4.258   4.304   2.057
 3684SOL    HW211069   4.102   4.255   2.060
 3685SOL     OW11070   3.883   4.861   3.328
 3685SOL    HW111071   3.905   4.800   3.404
 3685SOL    HW211072   3.893   4.812   3.242
 3686SOL     OW11073   5.026   4.579   2.171
 3686SOL    HW111074   4.940   4.548   2.213
 3686SOL    HW211075   5.022   4.565   2.072
 3687SOL     OW11076   3.987   4.050   2.582
 3687SOL    HW111077   3.908   4.101   2.548
 3687SOL    HW211078   3.978   4.035   2.680
 3688SOL     OW11079   4.546   4.726   3.234
 3688SOL    HW111080   4.586   4.725   3.142
 3688SOL    HW211081   4.556   4.818   3.274
 3689SOL     OW11082   4.640   4.634   2.153
 3689SOL    HW111083   4.703   4.672   2.085
 3689SOL    HW211084   4.680   4.551   2.192
 3690SOL     OW11085   4.738   3.960   2.833
 3690SOL    HW111086   4.730   3.924   2.740
 3690SOL    HW211087   4.736   3.884   2.898
 3691SOL     OW11088   3.829   4.737   3.588
 3691SOL    HW111089   3.752   4.704   3.642
 3691SOL    HW211090   3.914   4.707   3.630
 3692SOL     OW11091   4.396   3.927   3.351
 3692SOL    HW111092   4.486   3.911   3.311
 3692SOL    HW211093   4.404   3.932   3.450
 3693SOL     OW11094   3.799   4.069   1.895
 3693SOL    HW111095   3.707   4.041   1.866
 3693SOL    HW211096   3.830   4.146   1.839
 3694SOL     OW11097   3.796   3.890   2.180
 3694SOL    HW111098   3.779   3.973   2.126
 3694SOL    HW211099   3.886   3.853   2.158
 3695SOL     OW11100   4.337   4.566   3.293
 3695SOL    HW111101   4.393   4.647   3.276
 3695SOL    HW211102   4.396   4.486   3.296
 3696SOL     OW11103   4.440   4.289   3.570
 3696SOL    HW111104   4.459   4.354   3.644
 3696SOL    HW211105   4.500   4.209   3.579
 3697SOL     OW11106   4.318   4.469   2.514
 3697SOL    HW111107   4.368   4.554   2.495
 3697SOL    HW211108   4.230   4.471   2.466
 3698SOL     OW11109   4.583   4.680   2.723
 3698SOL    HW111110   4.637   4.611   2.771
 3698SOL    HW211111   4.551   4.749   2.789
 3699SOL     OW11112   4.807   4.708   1.949
 3699SOL    HW111113   4.784   4.761   1.867
 3699SOL    HW211114   4.888   4.652   1.930
 3700SOL     OW11115   4.152   4.148   2.382
 3700SOL    HW111116   4.182   4.076   2.320
 3700SOL    HW211117   4.113   4.108   2.465
 3701SOL     OW11118   4.041   4.271   3.142
 3701SOL    HW111119   4.079   4.212   3.214
 3701SOL    HW211120   4.081   4.245   3.054
 3702SOL     OW11121   4.725   3.758   3.016
 3702SOL    HW111122   4.662   3.686   2.985
 3702SOL    HW211123   4.818   3.722   3.016
 3703SOL     OW11124   3.763   4.801   2.162
 3703SOL    HW111125   3.862   4.790   2.153
 3703SOL    HW211126   3.723   4.715   2.194
 3704SOL     OW11127   3.954   4.352   3.837
 3704SOL    HW111128   3.861   4.350   3.874
 3704SOL    HW211129   3.955   4.313   3.745
 3705SOL     OW11130   3.949   3.999   4.720
 3705SOL    HW111131   3.984   3.982   4.812
 3705SOL    HW211132   3.861   3.954   4.708
 3706SOL     OW11133   3.743   4.092   4.371
 3706SOL    HW111134   3.661   4.135   4.410
 3706SOL    HW211135   3.715   4.019   4.308
 3707SOL     OW11136   4.492   4.868   4.747
 3707SOL    HW111137   4.414   4.885   4.807
 3707SOL    HW211138   4.526   4.955   4.711
 3708SOL     OW11139   4.409   4.736   4.389
 3708SOL    HW111140   4.478   4.720   4.459
 3708SOL    HW211141   4.336   4.793   4.427
 3709SOL     OW11142   3.954   5.158   4.262
 3709SOL    HW111143   3.928   5.254   4.262
 3709SOL    HW211144   3.883   5.104   4.307
 3710SOL     OW11145   3.964   4.815   4.610
 3710SOL    HW111146   3.978   4.731   4.662
 3710SOL    HW211147   3.909   4.879   4.665
 3711SOL     OW11148   4.330   4.688   3.847
 3711SOL    HW111149   4.337   4.772   3.793
 3711SOL    HW211150   4.376   4.701   3.935
 3712SOL     OW11151   3.846   4.367   4.287
 3712SOL    HW111152   3.801   4.279   4.304
 3712SOL    HW211153   3.845   4.421   4.371
 3713SOL     OW11154   4.337   5.089   4.450
 3713SOL    HW111155   4.288   5.002   4.459
 3713SOL    HW211156   4.314   5.132   4.363
 3714SOL     OW11157   4.533   3.728   4.226
 3714SOL    HW111158   4.573   3.819   4.217
 3714SOL    HW211159   4.433   3.736   4.232
 3715SOL     OW11160   3.921   4.700   4.988
 3715SOL    HW111161   4.010   4.655   4.974
 3715SOL    HW211162   3.848   4.635   4.969
 3716SOL     OW11163   4.322   4.453   3.994
 3716SOL    HW111164   4.346   4.522   3.926
 3716SOL    HW211165   4.244   4.486   4.048
 3717SOL     OW11166   4.765   4.425   4.153
 3717SOL    HW111167   4.791   4.421   4.249
 3717SOL    HW211168   4.680   4.374   4.139
 3718SOL     OW11169   3.800   4.535   4.513
 3718SOL    HW111170   3.899   4.523   4.522
 3718SOL    HW211171   3.776   4.630   4.534
 3719SOL     OW11172   4.589   4.072   3.919
 3719SOL    HW111173   4.648   4.135   3.870
 3719SOL    HW211174   4.608   3.978   3.890
 3720SOL     OW11175   4.274   3.920   4.609
 3720SOL    HW111176   4.269   3.915   4.709
 3720SOL    HW211177   4.276   4.016   4.580
 3721SOL     OW11178   4.106   4.424   4.204
 3721SOL    HW111179   4.151   4.334   4.201
 3721SOL    HW211180   4.012   4.413   4.237
 3722SOL     OW11181   4.338   3.846   3.841
 3722SOL    HW111182   4.436   3.824   3.848
 3722SOL    HW211183   4.307   3.829   3.748
 3723SOL     OW11184   4.646   4.227   4.623
 3723SOL    HW111185   4.621   4.218   4.527
 3723SOL    HW211186   4.694   4.145   4.654
 3724SOL     OW11187   4.263   3.788   4.236
 3724SOL    HW111188   4.182   3.789   4.294
 3724SOL    HW211189   4.266   3.871   4.181
 3725SOL     OW11190   4.021   3.759   3.895
 3725SOL    HW111191   4.070   3.843   3.874
 3725SOL    HW211192   4.083   3.694   3.940
 3726SOL     OW11193   4.659   3.960   4.204
 3726SOL    HW111194   4.611   4.001   4.126
 3726SOL    HW211195   4.758   3.958   4.185
 3727SOL     OW11196   4.756   4.273   3.740
 3727SOL    HW111197   4.715   4.355   3.701
 3727SOL    HW211198   4.820   4.299   3.813
 3728SOL     OW11199   4.590   4.178   4.366
 3728SOL    HW111200   4.558   4.250   4.304
 3728SOL    HW211201   4.614   4.097   4.313
 3729SOL     OW11202   4.741   3.763   4.477
 3729SOL    HW111203   4.669   3.768   4.408
 3729SOL    HW211204   4.717   3.694   4.546
 3730SOL     OW11205   4.251   3.980   4.052
 3730SOL    HW111206   4.278   3.921   3.977
 3730SOL    HW211207   4.251   4.075   4.021
 3731SOL     OW11208   4.290   4.261   4.589
 3731SOL    HW111209   4.302   4.327   4.515
 3731SOL    HW211210   4.336   4.295   4.672
 3732SOL     OW11211   4.297   4.594   4.753
 3732SOL    HW111212   4.341   4.683   4.744
 3732SOL    HW211213   4.234   4.594   4.830
 3733SOL     OW11214   4.933   4.249   3.999
 3733SOL    HW111215   4.946   4.165   4.053
 3733SOL    HW211216   4.904   4.323   4.059
 3734SOL     OW11217   4.031   3.937   4.955
 3734SOL    HW111218   4.008   3.974   5.045
 3734SOL    HW211219   4.001   3.842   4.949
 3735SOL     OW11220   4.456   4.358   4.788
 3735SOL    HW111221   4.515   4.332   4.712
 3735SOL    HW211222   4.428   4.454   4.777
 3736SOL     OW11223   4.031   3.787   4.342
 3736SOL    HW111224   4.020   3.881   4.375
 3736SOL    HW211225   4.026   3.724   4.419
 3737SOL     OW11226   4.747   4.490   4.690
 3737SOL    HW111227   4.762   4.511   4.786
 3737SOL    HW211228   4.717   4.395   4.681
 3738SOL     OW11229   4.043   4.534   4.673
 3738SOL    HW111230   4.136   4.570   4.678
 3738SOL    HW211231   4.037   4.449   4.725
 3739SOL     OW11232   4.063   4.233   4.730
 3739SOL    HW111233   4.011   4.150   4.713
 3739SOL    HW211234   4.140   4.238   4.666
 3740SOL     OW11235   4.726   4.520   4.962
 3740SOL    HW111236   4.767   4.488   5.048
 3740SOL    HW211237   4.630   4.493   4.959
 3741SOL     OW11238   4.539   4.296   4.049
 3741SOL    HW111239   4.546   4.207   4.003
 3741SOL    HW211240   4.445   4.330   4.041
 3742SOL     OW11241   4.395   4.188   4.993
 3742SOL    HW111242   4.361   4.099   4.963
 3742SOL    HW211243   4.421   4.242   4.913
 3743SOL     OW11244   4.197   4.224   3.915
 3743SOL    HW111245   4.258   4.304   3.919
 3743SOL    HW211246   4.102   4.255   3.922
 3744SOL     OW11247   5.026   4.579   4.033
 3744SOL    HW111248   4.940   4.548   4.075
 3744SOL    HW211249   5.022   4.565   3.934
 3745SOL     OW11250   3.987   4.050   4.444
 3745SOL    HW111251   3.908   4.101   4.410
 3745SOL    HW211252   3.978   4.035   4.542
 3746SOL     OW11253   4.640   4.634   4.015
 3746SOL    HW111254   4.703   4.672   3.947
 3746SOL    HW211255   4.680   4.551   4.054
 3747SOL     OW11256   4.738   3.960   4.695
 3747SOL    HW111257   4.730   3.924   4.602
 3747SOL    HW211258   4.736   3.884   4.760
 3748SOL     OW11259   3.799   4.069   3.757
 3748SOL    HW111260   3.707   4.041   3.728
 3748SOL    HW211261   3.830   4.146   3.701
 3749SOL     OW11262   3.796   3.890   4.042
 3749SOL    HW111263   3.779   3.973   3.988
 3749SOL    HW211264   3.886   3.853   4.020
 3750SOL     OW11265   4.318   4.469   4.376
 3750SOL    HW111266   4.368   4.554   4.357
 3750SOL    HW211267   4.230   4.471   4.328
 3751SOL     OW11268   4.583   4.680   4.585
 3751SOL    HW111269   4.637   4.611   4.633
 3751SOL    HW211270   4.551   4.749   4.651
 3752SOL     OW11271   4.807   4.708   3.811
 3752SOL    HW111272   4.784   4.761   3.729
 3752SOL    HW211273   4.888   4.652   3.792
 3753SOL     OW11274   4.152   4.148   4.244
 3753SOL    HW111275   4.182   4.076   4.182
 3753SOL    HW211276   4.113   4.108   4.327
 3754SOL     OW11277   3.763   4.801   4.024
 3754SOL    HW111278   3.862   4.790   4.015
 3754SOL    HW211279   3.723   4.715   4.056
   4.86050   4.86050   4.86050
