3_chlorophenol
    13
   0.8320000  -0.3950000   0.5750000   1.8990000  -1.0140000  -0.0770000
   0.8350000  -0.2830000   1.9660000   2.9710000  -1.4090000   2.0520000
   2.9680000  -1.5200000   0.6620000   1.9040000  -0.7900000   2.7040000
   4.0090000  -2.1250000   0.0260000   1.9060000  -0.6520000   4.4190000
   0.0000000   0.0000000   0.0000000   1.8920000  -1.0970000  -1.1600000
  -0.0030000   0.2020000   2.4600000   3.8080000  -1.8070000   2.6210000
   4.6600000  -2.4140000   0.6910000
