; mobley_8057732_GMX_OPLS.top created by acpype (v: 2023.10.27) on Wed May 20 23:59:03 2026

; Include forcefield parameters
#include "ffoplsaa.itp"

; Include mobley_8057732_GMX.itp topology
#include "mobley_8057732_GMX.itp"

; Ligand position restraints
#ifdef POSRES_LIG
#include "posre_mobley_8057732.itp"
#endif

[ system ]
 mobley_8057732

[ molecules ]
; Compound        nmols
 mobley_8057732   1     
