mobley_8057732_GMX.gro created by acpype (v: 2023.10.27) on Wed May 20 23:59:03 2026
 13
    1  MOL   C1    1   0.083  -0.040   0.057
    1  MOL   C2    2   0.190  -0.101  -0.008
    1  MOL   C3    3   0.084  -0.028   0.197
    1  MOL   C4    4   0.297  -0.141   0.205
    1  MOL   C5    5   0.297  -0.152   0.066
    1  MOL   C6    6   0.190  -0.079   0.270
    1  MOL   O1    7   0.401  -0.213   0.003
    1  MOL  CL1    8   0.191  -0.065   0.442
    1  MOL   H1    9   0.000   0.000   0.000
    1  MOL   H2   10   0.189  -0.110  -0.116
    1  MOL   H3   11  -0.000   0.020   0.246
    1  MOL   H4   12   0.381  -0.181   0.262
    1  MOL   H5   13   0.466  -0.241   0.069
    9.32600     5.23200    11.15800
